Title
82282
    1SAPS     N    1   4.405   5.975  11.085 -0.2652 -0.1640  0.7854
    1SAPS   HN1    2   4.397   5.943  11.184  1.4151 -0.6924  0.7770
    1SAPS   HN2    3   4.490   6.035  11.087  1.1937 -2.1142  2.6485
    1SAPS   HN3    4   4.321   6.032  11.063  0.5184  0.5894 -0.3309
    1SAPS   C12    5   4.437   5.852  10.993  0.8391 -0.3321 -0.6098
    1SAPS  H12A    6   4.495   5.781  11.050  2.2049 -0.9417 -2.6328
    1SAPS   C13    7   4.310   5.784  10.935  0.0771 -0.4788 -0.1179
    1SAPS  O13A    8   4.195   5.830  10.951 -0.9952 -0.1574  0.1126
    1SAPS  O13B    9   4.330   5.686  10.855  0.3276 -0.1508 -0.3853
    1SAPS   C11   10   4.534   5.896  10.889 -0.3976  0.4166 -0.0508
    1SAPS  H11A   11   4.489   5.978  10.829  0.6834  1.9317  1.1207
    1SAPS  H11B   12   4.549   5.822  10.808 -1.3319 -0.6560  0.7328
    1SAPS     P   13   4.774   5.826  10.946 -0.3719  0.2781  0.4473
    1SAPS   O13   14   4.891   5.869  11.034  0.2225  0.3218  0.3408
    1SAPS   O14   15   4.723   5.686  10.951  0.3406 -0.2311  0.3162
    1SAPS   O12   16   4.655   5.933  10.959  0.4129 -0.1404  0.5706
    1SAPS   O11   17   4.813   5.848  10.799 -0.6497 -0.2432  0.2556
    1SAPS    C1   18   4.851   5.975  10.738  0.6857 -0.5909  0.1608
    1SAPS    HA   19   4.764   6.041  10.719  0.6670 -0.6651 -0.0173
    1SAPS    HB   20   4.913   6.036  10.807 -0.0264 -0.8121  1.0178
    1SAPS    C2   21   4.925   5.950  10.607  0.2559  0.6361  0.6516
    1SAPS    HS   22   4.932   6.039  10.541 -1.7861 -0.8423 -1.7522
    1SAPS   O21   23   4.868   5.848  10.522 -0.7125  0.1843 -0.9237
    1SAPS   C21   24   4.743   5.872  10.490  0.4195 -0.6620  1.1429
    1SAPS   O22   25   4.678   5.978  10.510  0.2896 -0.1991 -0.1997
    1SAPS   C22   26   4.685   5.749  10.426 -0.4047 -0.3102  0.3125
    1SAPS   H2R   27   4.739   5.658  10.461  0.9048  0.3498  0.0465
    1SAPS   H2S   28   4.575   5.750  10.441 -0.4964 -1.3104 -0.1662
    1SAPS    C3   29   5.067   5.895  10.647 -0.2163 -0.5706  0.7311
    1SAPS    HX   30   5.046   5.804  10.707  0.9926 -1.3757 -0.0289
    1SAPS    HY   31   5.123   5.960  10.717  1.9298 -0.0679 -1.3418
    1SAPS   O31   32   5.148   5.852  10.544 -0.2251  0.0780 -0.0241
    1SAPS   C31   33   5.190   5.944  10.457  0.5355 -0.3836  0.2579
    1SAPS   O32   34   5.177   6.068  10.470  0.1381  0.6792  0.3859
    1SAPS   C32   35   5.268   5.875  10.344  0.1391  0.1815 -1.2126
    1SAPS   H2X   36   5.198   5.825  10.273 -0.5217 -2.6940  1.2504
    1SAPS   H2Y   37   5.305   5.780  10.388 -1.8450 -0.4585 -0.8153
    1SAPS   C23   38   4.694   5.758  10.273  1.4533 -0.4743  0.5373
    1SAPS   H3R   39   4.652   5.857  10.245 -1.4106 -1.6810  0.2257
    1SAPS   H3S   40   4.626   5.686  10.221  2.4016 -1.2262  0.3063
    1SAPS   C24   41   4.833   5.753  10.219  0.0083  0.2029 -0.2893
    1SAPS   H4R   42   4.883   5.656  10.239  1.4049  0.7522 -0.9740
    1SAPS   H4S   43   4.901   5.824  10.271  0.2897 -1.8151  2.3454
    1SAPS   C25   44   4.838   5.777  10.073  0.6317 -0.4428  0.1477
    1SAPS   H5R   45   4.835   5.683  10.017  0.2105 -0.4186  0.1299
    1SAPS   C26   46   4.865   5.888  10.004 -0.8870  0.4977  0.3189
    1SAPS   H6R   47   4.864   5.884   9.894 -0.8681  0.2936  0.3257
    1SAPS   C27   48   4.890   6.024  10.059  0.4930 -0.8233 -0.4710
    1SAPS   H7R   49   4.811   6.042  10.134 -0.2200 -0.1328 -1.3691
    1SAPS   H7S   50   4.859   6.099   9.984 -1.7882 -0.9183  0.2989
    1SAPS   C28   51   5.026   6.069  10.114  0.5797  0.0675 -0.5971
    1SAPS   H8R   52   5.032   6.052  10.223 -0.1960  1.5268 -0.2957
    1SAPS   C29   53   5.132   6.112  10.052  0.0611 -0.0779 -0.3385
    1SAPS   H9R   54   5.216   6.153  10.110 -0.4943 -0.0416  0.4611
    1SAPS  C210   55   5.156   6.145   9.906  1.0548  0.6769  0.2550
    1SAPS  H10R   56   5.248   6.205   9.888  1.4543  0.7973  2.4317
    1SAPS  H10S   57   5.079   6.213   9.862  2.8016  2.0689 -0.8111
    1SAPS  C211   58   5.176   6.011   9.828 -0.5167 -0.7268 -0.0151
    1SAPS  H11R   59   5.210   5.927   9.890  0.8581  0.8746  1.5320
    1SAPS  C212   60   5.151   6.003   9.696  0.6103  0.1992  0.4736
    1SAPS  H12R   61   5.178   5.913   9.637 -3.2039  0.4800 -2.0856
    1SAPS  C213   62   5.099   6.107   9.610 -0.5435  0.0254  0.4170
    1SAPS  H13R   63   5.117   6.091   9.502  0.4662  0.7756  0.4515
    1SAPS  H13S   64   5.162   6.197   9.630 -0.4969  0.1346 -0.2111
    1SAPS  C214   65   4.955   6.134   9.640  0.2878 -0.6909  0.4632
    1SAPS  H14R   66   4.911   6.098   9.734 -0.9861 -1.2032 -0.3043
    1SAPS  C215   67   4.875   6.201   9.548 -0.4292  0.2937 -0.7648
    1SAPS  H15R   68   4.770   6.218   9.576  0.3988 -0.2910  3.2481
    1SAPS  C216   69   4.907   6.252   9.415 -0.1781  0.0121  0.4032
    1SAPS  H16R   70   5.016   6.263   9.398 -0.8391  3.0725 -3.3135
    1SAPS  H16S   71   4.877   6.358   9.402  1.1722  0.3291 -0.2798
    1SAPS  C217   72   4.862   6.160   9.301  0.5441  0.5113  0.4171
    1SAPS  H17R   73   4.909   6.059   9.310 -1.9847 -0.7742  0.0981
    1SAPS  H17S   74   4.900   6.197   9.204  0.8313  0.5982  0.5632
    1SAPS  C218   75   4.710   6.154   9.285  0.5328 -0.1569  0.2993
    1SAPS  H18R   76   4.669   6.254   9.261 -1.7995 -1.3204 -0.9385
    1SAPS  H18S   77   4.653   6.122   9.375  0.2433 -1.3110 -0.2804
    1SAPS  C219   78   4.660   6.060   9.173  0.2311 -0.2160  0.4735
    1SAPS  H19R   79   4.677   6.107   9.073 -1.0400 -1.6053 -0.4441
    1SAPS  H19S   80   4.552   6.037   9.178  0.6063 -2.2817 -0.0212
    1SAPS  C220   81   4.730   5.921   9.160  0.7945  0.1980  0.6495
    1SAPS  H20R   82   4.749   5.881   9.262 -1.2657  3.3657  2.4631
    1SAPS  H20S   83   4.824   5.943   9.104 -0.4643  1.6510 -1.0186
    1SAPS  H20T   84   4.666   5.854   9.099  2.3961  0.5316 -1.5113
    1SAPS   C33   85   5.381   5.958  10.283  0.2779  0.2267  0.4282
    1SAPS   H3X   86   5.460   5.968  10.360 -0.8913 -0.5774  1.7670
    1SAPS   H3Y   87   5.343   6.059  10.257 -0.5887 -0.1968  0.0242
    1SAPS   C34   88   5.446   5.903  10.154 -0.6985 -0.6628  0.1543
    1SAPS   H4X   89   5.361   5.885  10.085  1.2025 -1.1710 -2.1983
    1SAPS   H4Y   90   5.509   5.813  10.170  0.7997  0.3424  0.1469
    1SAPS   C35   91   5.540   5.996  10.078 -0.1900  0.1459 -0.1542
    1SAPS   H5X   92   5.629   6.023  10.139 -0.2863  0.6229 -0.2219
    1SAPS   H5Y   93   5.483   6.090  10.067  2.7259  2.0454 -0.1597
    1SAPS   C36   94   5.609   5.939   9.951  0.4413 -0.6053  0.1208
    1SAPS   H6X   95   5.654   5.839   9.967 -0.8346 -1.2457 -0.1409
    1SAPS   H6Y   96   5.686   6.017   9.931 -0.6180 -0.1167 -2.5588
    1SAPS   C37   97   5.515   5.916   9.835  0.6346 -0.3767 -0.0656
    1SAPS   H7X   98   5.452   6.005   9.814  0.1180 -0.6683  0.2274
    1SAPS   H7Y   99   5.435   5.840   9.849  0.2976 -0.5888 -2.6799
    1SAPS   C38  100   5.589   5.878   9.705 -0.4476 -0.0888  0.0132
    1SAPS   H8X  101   5.684   5.821   9.720 -0.0935  0.0182 -1.6279
    1SAPS   H8Y  102   5.614   5.975   9.658  2.5856 -1.2016 -0.9215
    1SAPS   C39  103   5.501   5.802   9.605  0.7346  0.0408  0.6596
    1SAPS   H9X  104   5.398   5.843   9.604  0.9892  0.7150 -1.1007
    1SAPS   H9Y  105   5.500   5.696   9.639 -0.5046 -0.5649 -1.1405
    1SAPS  C310  106   5.561   5.813   9.469 -0.6883  0.3810 -0.1180
    1SAPS  H10X  107   5.666   5.777   9.466 -1.5951 -2.6532  0.8919
    1SAPS  H10Y  108   5.571   5.921   9.446  1.9065  0.1295 -0.4621
    1SAPS  C311  109   5.476   5.742   9.365 -0.7178 -0.2611  0.2565
    1SAPS  H11X  110   5.400   5.821   9.347  0.4287  1.1747  1.3410
    1SAPS  H11Y  111   5.436   5.647   9.405  0.8103 -1.8396 -1.7563
    1SAPS  C312  112   5.554   5.712   9.239  0.2055  0.2046  0.7952
    1SAPS  H12X  113   5.647   5.659   9.266 -0.5741 -2.4609 -1.3052
    1SAPS  H12Y  114   5.577   5.806   9.186 -0.3687  0.2107  0.5458
    1SAPS  C313  115   5.474   5.619   9.143 -0.6838  0.5751 -0.7239
    1SAPS  H13X  116   5.413   5.542   9.196 -0.9517  0.7143 -0.8277
    1SAPS  H13Y  117   5.544   5.559   9.082 -1.6352 -0.9825 -0.3395
    1SAPS  C314  118   5.377   5.688   9.044 -0.3687 -0.3355  0.6235
    1SAPS  H14X  119   5.432   5.775   9.003  0.2556 -0.5872  0.9128
    1SAPS  H14Y  120   5.289   5.732   9.094  0.6277  2.4564  0.1140
    1SAPS  C315  121   5.333   5.592   8.933  0.0169  0.3935 -0.3857
    1SAPS  H15X  122   5.254   5.527   8.975  1.6466 -1.4184  0.0586
    1SAPS  H15Y  123   5.429   5.538   8.918  0.8977  1.7367  0.2168
    1SAPS  C316  124   5.288   5.654   8.801 -0.6194  0.2437 -0.1052
    1SAPS  H16X  125   5.373   5.696   8.743  0.8724 -1.4935  0.7126
    1SAPS  H16Y  126   5.223   5.742   8.821 -0.9112 -0.0203  0.1037
    1SAPS  C317  127   5.217   5.554   8.713  0.5695 -0.4853  0.6832
    1SAPS  H17X  128   5.185   5.621   8.630  0.1408  1.6388  2.4622
    1SAPS  H17Y  129   5.123   5.518   8.761  0.6863 -0.8896  0.6112
    1SAPS  C318  130   5.291   5.436   8.652  0.3303  0.2572 -0.1855
    1SAPS  H18X  131   5.387   5.475   8.611  0.5946  0.3527  0.5203
    1SAPS  H18Y  132   5.230   5.376   8.581  0.6499 -0.7390  0.3618
    1SAPS  H18Z  133   5.316   5.369   8.737 -1.1423  1.3702  1.1822
    2SAPS     N  134   1.299   6.194  10.735  0.1100 -0.3677 -0.7885
    2SAPS   HN1  135   1.356   6.281  10.742  0.0153 -0.4302  1.2827
    2SAPS   HN2  136   1.343   6.112  10.781  0.7753 -0.8581 -2.2393
    2SAPS   HN3  137   1.286   6.167  10.635 -0.6981  1.7832 -1.3330
    2SAPS   C12  138   1.166   6.225  10.796  0.5719  0.4324 -0.0995
    2SAPS  H12A  139   1.127   6.132  10.834 -0.7814  0.8482 -0.4365
    2SAPS   C13  140   1.155   6.334  10.914 -0.4493  0.3261 -0.5799
    2SAPS  O13A  141   1.262   6.371  10.965  0.0999  0.4151  0.1267
    2SAPS  O13B  142   1.041   6.370  10.952  0.0869 -0.2247  0.9163
    2SAPS   C11  143   1.070   6.277  10.682 -0.7726 -0.1606  0.5350
    2SAPS  H11A  144   1.102   6.380  10.656 -0.3859 -0.4318 -0.0798
    2SAPS  H11B  145   0.965   6.293  10.717 -0.5443  0.3964  0.9921
    2SAPS     P  146   1.034   6.223  10.421 -0.3333 -0.3843  0.1417
    2SAPS   O13  147   1.086   6.120  10.330 -0.1498  0.0832 -0.3532
    2SAPS   O14  148   0.887   6.248  10.415  0.3835 -0.1597  0.3389
    2SAPS   O12  149   1.070   6.187  10.574  0.6939  0.4218  0.0099
    2SAPS   O11  150   1.100   6.361  10.399  0.2770 -0.8521  0.0520
    2SAPS    C1  151   1.234   6.362  10.357  0.0504 -0.1450 -0.5384
    2SAPS    HA  152   1.294   6.283  10.407 -0.4224 -0.3826 -0.3331
    2SAPS    HB  153   1.238   6.343  10.247  1.3256  2.4875 -1.0155
    2SAPS    C2  154   1.317   6.492  10.382 -0.8835  0.6434  0.2188
    2SAPS    HS  155   1.295   6.513  10.488 -1.7000 -1.8886  0.6247
    2SAPS   O21  156   1.258   6.600  10.306 -0.5936  0.1548 -0.5251
    2SAPS   C21  157   1.313   6.714  10.347  0.5748 -0.1867  0.3337
    2SAPS   O22  158   1.399   6.727  10.433 -0.3937  0.0911  0.8649
    2SAPS   C22  159   1.263   6.820  10.249 -0.5723 -0.2465  0.2648
    2SAPS   H2R  160   1.280   6.782  10.146  0.9560  0.6475  0.1577
    2SAPS   H2S  161   1.155   6.842  10.259 -0.9892 -1.9657 -0.1060
    2SAPS    C3  162   1.474   6.473  10.366 -0.3781  0.2447  0.3805
    2SAPS    HX  163   1.498   6.367  10.386 -3.3820 -0.5999  0.1058
    2SAPS    HY  164   1.523   6.537  10.442 -0.1776  0.5556 -0.0077
    2SAPS   O31  165   1.519   6.512  10.235  0.2740 -0.0734 -0.0795
    2SAPS   C31  166   1.504   6.428  10.139 -0.0934 -0.0663  1.0631
    2SAPS   O32  167   1.487   6.306  10.149 -0.1576 -0.8901 -0.2442
    2SAPS   C32  168   1.514   6.496  10.000  0.4783  0.0549 -0.4759
    2SAPS   H2X  169   1.615   6.542   9.991  0.7479 -0.6241 -1.0716
    2SAPS   H2Y  170   1.428   6.567   9.993 -0.5971 -0.7152  3.0539
    2SAPS   C23  171   1.340   6.960  10.264 -0.3349  0.3973 -0.2649
    2SAPS   H3R  172   1.446   6.933  10.244 -1.0051 -1.9740 -0.8918
    2SAPS   H3S  173   1.325   6.993  10.369 -0.0120  0.3316 -0.1962
    2SAPS   C24  174   1.296   7.065  10.166  0.2535 -0.1758 -0.0450
    2SAPS   H4R  175   1.186   7.076  10.172  0.1259 -1.3019 -0.1914
    2SAPS   H4S  176   1.321   7.020  10.068 -0.8191 -0.6509 -0.1117
    2SAPS   C25  177   1.348   7.204  10.185  0.3600 -0.7096 -0.9806
    2SAPS   H5R  178   1.322   7.249  10.282  2.5099 -0.6324 -0.3905
    2SAPS   C26  179   1.402   7.285  10.095  0.3064 -0.1338 -0.2464
    2SAPS   H6R  180   1.427   7.386  10.130 -3.2878  0.9168 -0.3056
    2SAPS   C27  181   1.426   7.256   9.947  0.5988  0.8968 -0.1878
    2SAPS   H7R  182   1.452   7.148   9.944 -0.1976  0.5663  2.2743
    2SAPS   H7S  183   1.517   7.301   9.902 -0.8359  1.6429 -2.4751
    2SAPS   C28  184   1.303   7.269   9.856 -0.1785 -0.0413 -0.5672
    2SAPS   H8R  185   1.210   7.312   9.897 -0.5276  1.3079 -2.6436
    2SAPS   C29  186   1.304   7.252   9.721 -0.0070  0.2382  0.5854
    2SAPS   H9R  187   1.204   7.264   9.677 -0.4982  1.6775  2.0058
    2SAPS  C210  188   1.416   7.217   9.627 -0.2675  0.2487  0.3398
    2SAPS  H10R  189   1.385   7.147   9.546  1.2252  0.2999 -0.3164
    2SAPS  H10S  190   1.497   7.166   9.684  0.3520 -2.4477 -2.6428
    2SAPS  C211  191   1.472   7.341   9.569  0.3824  0.6717 -0.2162
    2SAPS  H11R  192   1.502   7.419   9.641 -0.7497  2.0823 -1.2295
    2SAPS  C212  193   1.503   7.378   9.441  0.5324 -0.7473  0.9139
    2SAPS  H12R  194   1.528   7.485   9.431  0.4420 -0.7319  0.8478
    2SAPS  C213  195   1.491   7.304   9.314  0.4617 -0.3953  0.1465
    2SAPS  H13R  196   1.443   7.365   9.235 -3.2868  0.1552  2.5702
    2SAPS  H13S  197   1.417   7.223   9.331  2.3069 -1.7900  2.0883
    2SAPS  C214  198   1.615   7.240   9.271  0.6029  0.3827 -0.4895
    2SAPS  H14R  199   1.677   7.201   9.353  0.0349  1.7839  0.6489
    2SAPS  C215  200   1.663   7.237   9.144 -0.2447 -0.8261  0.1461
    2SAPS  H15R  201   1.762   7.190   9.132  0.2274 -0.2144  1.4455
    2SAPS  C216  202   1.604   7.292   9.020 -0.3327 -0.2766  0.7317
    2SAPS  H16R  203   1.670   7.357   8.960  0.1875 -1.5259 -0.0960
    2SAPS  H16S  204   1.519   7.358   9.047 -0.4378 -1.1298  2.6904
    2SAPS  C217  205   1.542   7.177   8.932 -0.3718  0.3241  0.3345
    2SAPS  H17R  206   1.460   7.220   8.871 -0.1041  0.7434  0.2629
    2SAPS  H17S  207   1.496   7.099   8.996  1.2396 -1.9022 -1.0479
    2SAPS  C218  208   1.632   7.110   8.825 -0.1815  0.2198  0.1305
    2SAPS  H18R  209   1.575   7.031   8.771  2.3421 -3.2021  2.0473
    2SAPS  H18S  210   1.714   7.054   8.874  0.2178 -0.0539 -0.8285
    2SAPS  C219  211   1.686   7.213   8.726 -0.5003  0.2170  0.0565
    2SAPS  H19R  212   1.721   7.306   8.776 -1.8553  2.3620 -2.6342
    2SAPS  H19S  213   1.613   7.247   8.648  1.1172 -0.1555 -1.6948
    2SAPS  C220  214   1.797   7.141   8.645  0.6737 -0.1061 -0.1033
    2SAPS  H20R  215   1.862   7.081   8.711 -0.8273  0.0264  1.5634
    2SAPS  H20S  216   1.854   7.208   8.577  0.4561 -1.8690 -2.1488
    2SAPS  H20T  217   1.760   7.063   8.575  1.1666  1.2824 -2.0031
    2SAPS   C33  218   1.500   6.393   9.886 -0.4040 -0.4648  0.1440
    2SAPS   H3X  219   1.391   6.372   9.879 -0.8928  1.1895  1.7329
    2SAPS   H3Y  220   1.550   6.298   9.912  1.1111  0.3645  0.4087
    2SAPS   C34  221   1.546   6.452   9.754 -0.4304 -0.6439 -0.0485
    2SAPS   H4X  222   1.645   6.502   9.747 -1.2920  1.1147 -0.2119
    2SAPS   H4Y  223   1.485   6.543   9.735  0.9415  0.1885 -0.6104
    2SAPS   C35  224   1.536   6.365   9.628 -0.3504 -0.5745 -0.3682
    2SAPS   H5X  225   1.436   6.323   9.605 -0.7535  0.5753 -0.7737
    2SAPS   H5Y  226   1.606   6.282   9.652 -0.7782 -0.2357  2.4150
    2SAPS   C36  227   1.578   6.438   9.497 -0.4864  0.0733  0.1677
    2SAPS   H6X  228   1.683   6.475   9.508 -0.9883  2.2341 -1.6498
    2SAPS   H6Y  229   1.514   6.528   9.492 -0.5216  0.1804  1.9329
    2SAPS   C37  230   1.570   6.352   9.363 -0.4547  0.0254 -0.0755
    2SAPS   H7X  231   1.463   6.329   9.343 -0.1743 -0.7919 -0.7223
    2SAPS   H7Y  232   1.639   6.267   9.384 -0.7543 -0.1060  0.4214
    2SAPS   C38  233   1.613   6.430   9.235  0.3434 -0.1553 -0.2009
    2SAPS   H8X  234   1.715   6.472   9.247  0.4122  0.3174 -2.1459
    2SAPS   H8Y  235   1.548   6.520   9.224  2.9934  1.8542 -0.3800
    2SAPS   C39  236   1.595   6.342   9.112 -0.1600  0.7943  0.1059
    2SAPS   H9X  237   1.490   6.304   9.119  0.5756 -1.4152  0.0396
    2SAPS   H9Y  238   1.661   6.252   9.115  0.5273  1.2802 -0.2481
    2SAPS  C310  239   1.640   6.422   8.986  0.4785  0.9689  0.3009
    2SAPS  H10X  240   1.750   6.413   8.992  0.4818  1.1368  0.4826
    2SAPS  H10Y  241   1.598   6.523   9.002 -2.3696 -0.3402  1.9267
    2SAPS  C311  242   1.594   6.352   8.859  0.4351 -0.6147 -0.2415
    2SAPS  H11X  243   1.486   6.364   8.836  0.0014 -1.5209  1.1803
    2SAPS  H11Y  244   1.616   6.243   8.868 -1.5305 -1.2396 -2.1452
    2SAPS  C312  245   1.668   6.411   8.739  0.3868  0.2070  0.4986
    2SAPS  H12X  246   1.779   6.407   8.748  0.3896 -0.1290  0.3063
    2SAPS  H12Y  247   1.653   6.521   8.732  1.2821  0.6296  3.4945
    2SAPS  C313  248   1.628   6.344   8.604  0.3715 -0.7091 -0.1732
    2SAPS  H13X  249   1.521   6.372   8.595  0.1543 -1.7862 -1.1165
    2SAPS  H13Y  250   1.632   6.233   8.596 -2.8443 -0.9366  0.2176
    2SAPS  C314  251   1.688   6.402   8.474 -0.6986  0.0599 -0.3005
    2SAPS  H14X  252   1.796   6.379   8.484 -0.4425  0.4440 -2.0069
    2SAPS  H14Y  253   1.665   6.511   8.481 -0.8893 -0.0089  0.2116
    2SAPS  C315  254   1.616   6.347   8.349 -0.6457  0.0761 -0.1150
    2SAPS  H15X  255   1.508   6.373   8.350 -1.1662 -1.9174 -1.0918
    2SAPS  H15Y  256   1.625   6.237   8.346  0.0489  0.1020 -4.1685
    2SAPS  C316  257   1.679   6.395   8.211 -0.3983 -0.0352 -0.1649
    2SAPS  H16X  258   1.789   6.408   8.221 -0.3977 -1.1550  1.7532
    2SAPS  H16Y  259   1.628   6.492   8.191  0.2642  0.1053 -1.2409
    2SAPS  C317  260   1.655   6.294   8.103 -0.9818  0.3956 -0.6735
    2SAPS  H17X  261   1.549   6.262   8.091 -0.9263 -0.2334  0.3636
    2SAPS  H17Y  262   1.701   6.195   8.122 -0.9426 -0.0266 -2.7011
    2SAPS  C318  263   1.721   6.346   7.968 -0.9165 -0.6625  0.4425
    2SAPS  H18X  264   1.732   6.262   7.896  2.0182  0.0219 -0.0199
    2SAPS  H18Y  265   1.819   6.397   7.981 -0.2639 -1.8260  0.2478
    2SAPS  H18Z  266   1.659   6.427   7.925 -2.5116 -0.5216  2.7931
    3SAPS     N  267   2.423   0.809  11.153 -0.0496 -0.6062 -0.2635
    3SAPS   HN1  268   2.400   0.848  11.247 -1.7901  0.1925 -0.9771
    3SAPS   HN2  269   2.352   0.854  11.092  1.1410 -0.3995 -1.5371
    3SAPS   HN3  270   2.404   0.707  11.156  0.3447 -0.6684  1.1396
    3SAPS   C12  271   2.566   0.848  11.140  0.2005 -0.4142  0.1939
    3SAPS  H12A  272   2.568   0.888  11.040 -0.6969 -3.5188 -1.1929
    3SAPS   C13  273   2.616   0.960  11.236 -0.4476  0.3273  0.0266
    3SAPS  O13A  274   2.529   1.019  11.298  0.8019 -0.2523  0.1406
    3SAPS  O13B  275   2.729   1.013  11.206  0.1493 -0.6022  0.2397
    3SAPS   C11  276   2.655   0.720  11.167 -0.0730 -0.3047 -0.0919
    3SAPS  H11A  277   2.635   0.686  11.271  0.8376 -0.4686  0.0417
    3SAPS  H11B  278   2.765   0.734  11.167 -0.2980  1.9614 -1.6691
    3SAPS     P  279   2.691   0.553  10.970 -0.1340 -0.4234  0.1025
    3SAPS   O13  280   2.829   0.550  11.019 -0.0185  0.2612  0.4193
    3SAPS   O14  281   2.632   0.419  10.954  0.1864  0.2538 -0.3347
    3SAPS   O12  282   2.600   0.610  11.086  0.2480 -0.4611  0.2892
    3SAPS   O11  283   2.674   0.646  10.845 -0.0810  0.1292 -0.3505
    3SAPS    C1  284   2.558   0.628  10.762  1.5072  0.1271 -0.4930
    3SAPS    HA  285   2.565   0.554  10.679 -1.3532 -1.7095  0.7475
    3SAPS    HB  286   2.463   0.614  10.817  1.3283 -0.6361 -0.9798
    3SAPS    C2  287   2.518   0.763  10.689  0.4275  0.1861 -0.3143
    3SAPS    HS  288   2.518   0.838  10.771 -2.0752  0.1993 -0.2547
    3SAPS   O21  289   2.395   0.739  10.622 -0.5016 -0.6880  0.7505
    3SAPS   C21  290   2.322   0.846  10.606  0.4056 -0.5553 -0.2706
    3SAPS   O22  291   2.347   0.963  10.639 -0.2353 -0.4318  0.5791
    3SAPS   C22  292   2.190   0.802  10.539  0.0359 -0.0366  0.1392
    3SAPS   H2R  293   2.209   0.724  10.462 -0.7512  3.1590 -3.5997
    3SAPS   H2S  294   2.129   0.754  10.618 -0.0130 -1.5156 -0.7520
    3SAPS    C3  295   2.633   0.800  10.589  0.0730  0.1578 -0.7527
    3SAPS    HX  296   2.652   0.709  10.527  2.1481  1.1653 -1.7073
    3SAPS    HY  297   2.727   0.818  10.647 -1.2290  0.7646  1.2713
    3SAPS   O31  298   2.609   0.901  10.501 -0.0399 -0.8208  0.1412
    3SAPS   C31  299   2.642   1.022  10.529  0.2651 -0.3172  0.2685
    3SAPS   O32  300   2.681   1.062  10.638 -0.4447  0.7501  0.6205
    3SAPS   C32  301   2.627   1.112  10.412  1.2762 -0.1741  0.4211
    3SAPS   H2X  302   2.523   1.084  10.385  1.4900 -3.6689  2.6058
    3SAPS   H2Y  303   2.688   1.086  10.322  0.9030 -0.8045  0.3419
    3SAPS   C23  304   2.116   0.922  10.476 -0.0341 -0.2687  0.2647
    3SAPS   H3R  305   2.103   0.998  10.556 -0.5570 -1.4357  1.3289
    3SAPS   H3S  306   2.016   0.883  10.446 -0.1284 -0.7452  1.1657
    3SAPS   C24  307   2.185   0.980  10.353 -0.1156 -0.3959  0.1652
    3SAPS   H4R  308   2.289   1.007  10.378 -0.1413  0.3565 -0.5304
    3SAPS   H4S  309   2.140   1.080  10.335  0.7133 -0.3379 -1.8514
    3SAPS   C25  310   2.173   0.901  10.222 -0.6985 -0.3156 -0.1043
    3SAPS   H5R  311   2.183   0.792  10.225 -2.6418 -0.5032  1.0773
    3SAPS   C26  312   2.159   0.963  10.104  0.5449  0.2416 -0.9365
    3SAPS   H6R  313   2.169   0.902  10.013 -2.2224 -0.9452 -0.5374
    3SAPS   C27  314   2.139   1.109  10.073 -0.4040 -1.0527 -0.2224
    3SAPS   H7R  315   2.202   1.169  10.143  0.9965  0.0561 -2.3227
    3SAPS   H7S  316   2.032   1.127  10.097  0.0962  0.2950  1.1752
    3SAPS   C28  317   2.165   1.155   9.932  0.8621  0.3974  0.5431
    3SAPS   H8R  318   2.074   1.187   9.879  0.4868 -2.8100 -1.0206
    3SAPS   C29  319   2.284   1.160   9.866  0.2293  0.3734 -0.1269
    3SAPS   H9R  320   2.288   1.205   9.766  1.6271 -1.8819 -1.1616
    3SAPS  C210  321   2.425   1.125   9.920 -0.0278 -0.3122 -0.1681
    3SAPS  H10R  322   2.471   1.054   9.848  0.7661 -0.0450  0.0672
    3SAPS  H10S  323   2.409   1.078  10.019 -0.3555  1.4405  0.6398
    3SAPS  C211  324   2.519   1.241   9.937 -0.0719  1.1856 -0.4188
    3SAPS  H11R  325   2.542   1.269  10.041  2.1319 -0.3512 -0.4273
    3SAPS  C212  326   2.578   1.318   9.844 -0.5684 -0.0374 -0.0201
    3SAPS  H12R  327   2.636   1.403   9.882 -1.9061  0.8390  0.1500
    3SAPS  C213  328   2.559   1.307   9.691  0.5150 -0.2150 -0.1321
    3SAPS  H13R  329   2.600   1.402   9.650  0.3211 -0.3031 -0.5341
    3SAPS  H13S  330   2.450   1.291   9.685  0.8242 -3.1925  0.7432
    3SAPS  C214  331   2.633   1.194   9.619  0.7945 -0.0620  0.0817
    3SAPS  H14R  332   2.729   1.167   9.666 -1.1947 -0.7528  4.1905
    3SAPS  C215  333   2.595   1.136   9.500 -0.2025 -0.1897 -0.4807
    3SAPS  H15R  334   2.652   1.057   9.448 -0.5926  0.2500 -1.6143
    3SAPS  C216  335   2.466   1.176   9.423 -0.2528 -0.4321 -0.2797
    3SAPS  H16R  336   2.389   1.206   9.497  0.5468 -0.7167  0.6850
    3SAPS  H16S  337   2.423   1.092   9.364 -0.2279 -1.2616  0.8389
    3SAPS  C217  338   2.499   1.284   9.320  0.1714 -0.0544  0.0970
    3SAPS  H17R  339   2.562   1.365   9.362  1.3501 -0.7212 -0.3460
    3SAPS  H17S  340   2.404   1.322   9.276  0.4702 -3.1206 -3.7158
    3SAPS  C218  341   2.586   1.227   9.203  0.1122 -0.6166  0.1210
    3SAPS  H18R  342   2.514   1.161   9.151  0.9242  0.4490 -2.5061
    3SAPS  H18S  343   2.675   1.169   9.238 -0.8105 -1.4377  1.2068
    3SAPS  C219  344   2.629   1.335   9.099  0.3170  0.3449 -0.0086
    3SAPS  H19R  345   2.707   1.396   9.150 -0.3989  2.0882 -0.8947
    3SAPS  H19S  346   2.542   1.399   9.073 -0.7916 -0.5076  1.4164
    3SAPS  C220  347   2.697   1.269   8.975  0.1519  0.3688 -0.4859
    3SAPS  H20R  348   2.637   1.179   8.947  2.6387 -1.4810 -0.1992
    3SAPS  H20S  349   2.795   1.231   9.010 -0.4553  0.1789  1.1088
    3SAPS  H20T  350   2.707   1.337   8.889  0.7634  0.0649 -0.6572
    3SAPS   C33  351   2.647   1.268  10.434 -0.4972 -0.7958 -0.3504
    3SAPS   H3X  352   2.749   1.293  10.397 -0.5329 -1.5341 -0.9835
    3SAPS   H3Y  353   2.642   1.294  10.542  0.2265  2.8858 -1.0768
    3SAPS   C34  354   2.536   1.340  10.361  0.0047 -0.7974 -0.1520
    3SAPS   H4X  355   2.435   1.309  10.396 -0.1744  1.8230  1.9656
    3SAPS   H4Y  356   2.551   1.307  10.256  0.7154 -1.1299  0.0477
    3SAPS   C35  357   2.556   1.487  10.385  0.0801  0.5737  0.1576
    3SAPS   H5X  358   2.661   1.517  10.363 -0.3191  1.5787 -0.4729
    3SAPS   H5Y  359   2.536   1.510  10.491 -3.8029 -0.6475 -0.1743
    3SAPS   C36  360   2.459   1.581  10.306 -0.1116  0.3669 -0.1265
    3SAPS   H6X  361   2.460   1.680  10.356 -2.5113  0.2471  0.2732
    3SAPS   H6Y  362   2.356   1.541  10.319  0.8661 -1.9687  0.9740
    3SAPS   C37  363   2.481   1.598  10.157  0.1997 -0.2403 -0.4872
    3SAPS   H7X  364   2.503   1.500  10.110  2.1469 -0.4456  0.7334
    3SAPS   H7Y  365   2.569   1.665  10.146  0.3058  0.2753  2.7292
    3SAPS   C38  366   2.367   1.659  10.078 -0.0395 -0.2466  0.3676
    3SAPS   H8X  367   2.333   1.753  10.125 -0.9072 -1.1028  1.5039
    3SAPS   H8Y  368   2.281   1.589  10.073 -1.1166  1.0978 -0.4476
    3SAPS   C39  369   2.408   1.704   9.937 -0.8185 -0.6428  0.1468
    3SAPS   H9X  370   2.466   1.619   9.895 -0.5787 -0.1109 -0.6141
    3SAPS   H9Y  371   2.470   1.795   9.929 -0.1782 -1.0837  0.0643
    3SAPS  C310  372   2.282   1.728   9.852 -0.8076  0.5115  0.1332
    3SAPS  H10X  373   2.228   1.821   9.882  0.5168  0.3353  3.4706
    3SAPS  H10Y  374   2.211   1.644   9.869  1.6388 -1.3314  1.9742
    3SAPS  C311  375   2.310   1.749   9.706  0.1702 -0.7046 -0.0710
    3SAPS  H11X  376   2.385   1.824   9.673 -2.1413  2.1505  0.6915
    3SAPS  H11Y  377   2.219   1.785   9.654  0.9719  0.4846 -0.6753
    3SAPS  C312  378   2.345   1.610   9.645 -0.0493 -0.6655  0.1461
    3SAPS  H12X  379   2.254   1.560   9.606  1.4411 -1.3414 -2.6925
    3SAPS  H12Y  380   2.399   1.541   9.713  1.8837 -0.1334 -0.7863
    3SAPS  C313  381   2.432   1.626   9.528 -0.3709 -0.1322  0.4520
    3SAPS  H13X  382   2.465   1.524   9.498 -3.4072 -1.0103 -0.2698
    3SAPS  H13Y  383   2.522   1.689   9.545  0.5776 -1.5482  0.8661
    3SAPS  C314  384   2.363   1.684   9.401 -0.1011  0.3917 -0.3091
    3SAPS  H14X  385   2.352   1.793   9.420 -0.0628  0.4877 -0.8221
    3SAPS  H14Y  386   2.266   1.633   9.380  0.4274 -0.5895 -0.4299
    3SAPS  C315  387   2.442   1.664   9.265  0.0379  0.4553 -0.4159
    3SAPS  H15X  388   2.462   1.561   9.230 -0.9655  0.2798 -0.4781
    3SAPS  H15Y  389   2.544   1.706   9.282  0.8875  0.2425 -4.1049
    3SAPS  C316  390   2.374   1.735   9.145  0.2257 -0.2886 -0.5068
    3SAPS  H16X  391   2.368   1.846   9.150  1.9983 -0.1755 -0.0582
    3SAPS  H16Y  392   2.281   1.678   9.122  1.7840 -2.9049 -0.7313
    3SAPS  C317  393   2.473   1.719   9.027  0.3130 -0.2367 -0.5026
    3SAPS  H17X  394   2.473   1.615   8.985  0.4206 -0.0736 -0.9133
    3SAPS  H17Y  395   2.568   1.749   9.075  1.5988 -0.0172 -3.0265
    3SAPS  C318  396   2.457   1.812   8.905 -0.5796  0.6159 -0.3565
    3SAPS  H18X  397   2.536   1.787   8.831 -0.3777 -0.3587  0.1594
    3SAPS  H18Y  398   2.479   1.917   8.933  2.7038 -0.2445  0.7645
    3SAPS  H18Z  399   2.359   1.796   8.855  0.2445 -2.1462 -1.3099
    4SAPS     N  400   5.804   1.606  10.803  0.6812 -0.7473  0.4980
    4SAPS   HN1  401   5.715   1.652  10.775  0.3482 -1.7501 -0.1401
    4SAPS   HN2  402   5.882   1.640  10.742 -0.5421  2.8256  0.6849
    4SAPS   HN3  403   5.788   1.504  10.799 -0.9513 -0.4699 -1.3226
    4SAPS   C12  404   5.835   1.652  10.943 -0.5606 -0.4993  0.0988
    4SAPS  H12A  405   5.741   1.648  10.997 -0.6399 -0.3473 -0.0296
    4SAPS   C13  406   5.946   1.568  11.021  0.4938  0.0553  0.1766
    4SAPS  O13A  407   5.986   1.455  10.974 -0.1722 -0.9268  0.6568
    4SAPS  O13B  408   5.938   1.584  11.146  0.8230 -0.1617  0.2315
    4SAPS   C11  409   5.888   1.802  10.951 -0.0179  0.1217  0.2289
    4SAPS  H11A  410   5.990   1.813  10.908  0.6461 -1.9026  1.1944
    4SAPS  H11B  411   5.901   1.817  11.060 -0.2002 -0.1973  0.2951
    4SAPS     P  412   5.786   2.044  10.898 -0.1747 -0.4784  0.1283
    4SAPS   O13  413   5.707   2.079  11.023  0.2065 -0.0410 -0.1724
    4SAPS   O14  414   5.925   2.097  10.894  0.0075 -0.0195 -0.3666
    4SAPS   O12  415   5.797   1.886  10.875 -0.0211 -0.2275  0.5640
    4SAPS   O11  416   5.712   2.093  10.767 -0.3076  0.4577 -0.2793
    4SAPS    C1  417   5.733   2.032  10.638  0.1085 -0.1884 -0.2019
    4SAPS    HA  418   5.753   1.923  10.644  3.3641 -0.0688 -4.3826
    4SAPS    HB  419   5.644   2.040  10.573 -0.7093  3.2164  1.1004
    4SAPS    C2  420   5.845   2.093  10.559 -0.2666  0.6097 -0.3088
    4SAPS    HS  421   5.932   2.082  10.628 -0.6469  0.2292  0.1175
    4SAPS   O21  422   5.815   2.232  10.543 -0.5758 -1.0599 -0.1171
    4SAPS   C21  423   5.929   2.297  10.512 -0.5451  0.0621  0.4586
    4SAPS   O22  424   6.043   2.254  10.520  0.4338 -0.1017  0.1133
    4SAPS   C22  425   5.878   2.440  10.458 -0.5407 -0.0370 -0.1279
    4SAPS   H2R  426   5.773   2.430  10.425 -0.1907  1.3068 -1.7484
    4SAPS   H2S  427   5.890   2.510  10.544 -2.0348  0.5697 -0.3802
    4SAPS    C3  428   5.887   2.027  10.422 -0.4007  0.1004 -0.2988
    4SAPS    HX  429   5.886   1.918  10.440 -3.6121  0.4157  2.3110
    4SAPS    HY  430   5.992   2.057  10.399 -0.5826  0.6407 -0.4546
    4SAPS   O31  431   5.803   2.078  10.314  0.2503 -0.0037 -0.4217
    4SAPS   C31  432   5.720   1.992  10.271 -0.3345 -0.4002  0.6138
    4SAPS   O32  433   5.723   1.869  10.288  0.1435 -0.2591 -0.3292
    4SAPS   C32  434   5.621   2.057  10.171  0.3553 -0.3699  0.4493
    4SAPS   H2X  435   5.555   2.138  10.209  0.9674  0.4961 -0.3029
    4SAPS   H2Y  436   5.552   1.979  10.132 -0.7222  0.5022  0.5291
    4SAPS   C23  437   5.975   2.485  10.340 -0.0334  0.2505  0.3861
    4SAPS   H3R  438   6.076   2.483  10.386 -0.6737 -0.7126  1.8076
    4SAPS   H3S  439   5.959   2.593  10.319  1.6063  0.2318 -1.2491
    4SAPS   C24  440   5.953   2.395  10.212 -0.3692  0.0113 -0.2421
    4SAPS   H4R  441   5.944   2.291  10.249  4.8229 -1.2331 -1.6428
    4SAPS   H4S  442   6.047   2.402  10.154 -0.4890 -1.8073 -0.6976
    4SAPS   C25  443   5.842   2.437  10.122  0.6012 -0.0146  0.4102
    4SAPS   H5R  444   5.747   2.455  10.175  1.0059  0.6613  0.9302
    4SAPS   C26  445   5.851   2.461   9.992 -0.6016  0.1928  0.0966
    4SAPS   H6R  446   5.763   2.495   9.936 -1.5929  0.5299  1.7758
    4SAPS   C27  447   5.976   2.434   9.904 -0.3215 -0.0424  0.0726
    4SAPS   H7R  448   6.059   2.393   9.965  1.8691  1.7145 -1.5827
    4SAPS   H7S  449   6.003   2.533   9.863 -1.3710 -0.2434 -1.1667
    4SAPS   C28  450   5.957   2.343   9.784  0.0023  0.9207 -0.2700
    4SAPS   H8R  451   5.983   2.239   9.810  0.0800  1.2086  0.8773
    4SAPS   C29  452   5.914   2.369   9.665  0.5118  0.1582  0.9513
    4SAPS   H9R  453   5.911   2.282   9.597  1.1597  0.1248  0.9646
    4SAPS  C210  454   5.871   2.496   9.605 -0.5963 -0.6986 -0.2191
    4SAPS  H10R  455   5.823   2.563   9.680  2.4598  0.3018  0.9875
    4SAPS  H10S  456   5.784   2.485   9.537 -1.3259 -1.9675  0.8642
    4SAPS  C211  457   5.981   2.583   9.543 -0.3108  0.3738  0.0486
    4SAPS  H11R  458   6.009   2.665   9.611  0.9685 -0.0956  0.1037
    4SAPS  C212  459   6.037   2.576   9.423  0.3635  0.4355  0.8321
    4SAPS  H12R  460   6.111   2.653   9.395  1.2528 -1.3814 -2.1943
    4SAPS  C213  461   6.003   2.490   9.307  0.4704 -0.0294 -0.4504
    4SAPS  H13R  462   5.967   2.554   9.223 -0.1073  0.1218 -0.0990
    4SAPS  H13S  463   5.915   2.431   9.341  2.6710 -1.9823  2.3495
    4SAPS  C214  464   6.101   2.375   9.271 -0.3839 -0.2862  0.4320
    4SAPS  H14R  465   6.207   2.390   9.297 -0.2230 -0.5804 -0.0495
    4SAPS  C215  466   6.064   2.263   9.213  0.0553 -0.1581  0.2801
    4SAPS  H15R  467   6.140   2.185   9.195 -2.0131 -2.4166  0.8550
    4SAPS  C216  468   5.925   2.221   9.170 -0.4185  0.0549  0.2261
    4SAPS  H16R  469   5.847   2.283   9.220 -0.4785  0.2004 -0.0514
    4SAPS  H16S  470   5.897   2.118   9.202 -2.8242  0.9122  1.1048
    4SAPS  C217  471   5.918   2.225   9.020 -0.8654 -0.0366 -0.0825
    4SAPS  H17R  472   5.938   2.321   8.968 -1.4626 -1.0184 -2.2389
    4SAPS  H17S  473   5.811   2.214   8.990 -1.2142  0.7324  0.8277
    4SAPS  C218  474   6.000   2.103   8.959 -0.0721 -0.2467 -0.6945
    4SAPS  H18R  475   6.012   2.020   9.032 -1.3249 -0.6573 -0.9386
    4SAPS  H18S  476   6.106   2.136   8.954 -0.1808  0.1887 -0.1970
    4SAPS  C219  477   5.947   2.050   8.825  0.1070 -0.1307  0.4207
    4SAPS  H19R  478   5.943   2.135   8.754  0.3121  1.0176  1.7479
    4SAPS  H19S  479   5.840   2.022   8.840  0.0277  0.2885  0.6578
    4SAPS  C220  480   6.020   1.930   8.769  0.3367  0.3766  0.5672
    4SAPS  H20R  481   5.998   1.841   8.832  1.5235 -0.5986 -0.3436
    4SAPS  H20S  482   6.130   1.949   8.767  0.2346  0.9374 -0.5960
    4SAPS  H20T  483   5.993   1.898   8.666 -1.2635 -0.3115  1.1758
    4SAPS   C33  484   5.702   2.103  10.046 -0.2270 -0.7638 -0.1182
    4SAPS   H3X  485   5.810   2.114  10.070 -0.6335 -1.2782  2.1731
    4SAPS   H3Y  486   5.655   2.202  10.026 -2.0291 -1.4910  0.3872
    4SAPS   C34  487   5.690   1.993   9.942 -0.0722 -0.8151  0.5660
    4SAPS   H4X  488   5.584   1.961   9.943 -0.3415 -0.0921  3.8609
    4SAPS   H4Y  489   5.747   1.904   9.976  0.2672 -0.7341  0.2256
    4SAPS   C35  490   5.736   2.042   9.800 -0.0306  0.1764 -0.1981
    4SAPS   H5X  491   5.842   2.072   9.813 -0.2233  2.1161 -2.4319
    4SAPS   H5Y  492   5.693   2.136   9.761  0.5827  0.7179  0.4110
    4SAPS   C36  493   5.722   1.934   9.685 -0.2416 -0.5834 -0.2044
    4SAPS   H6X  494   5.612   1.930   9.672 -0.1698 -1.7984 -0.4812
    4SAPS   H6Y  495   5.758   1.834   9.717 -0.2229 -0.8659 -1.0870
    4SAPS   C37  496   5.786   1.961   9.546 -0.1397 -0.3621  0.2420
    4SAPS   H7X  497   5.895   1.967   9.565 -0.5928  0.0892  3.0915
    4SAPS   H7Y  498   5.754   2.057   9.501  0.6810  0.1559  0.7576
    4SAPS   C38  499   5.743   1.845   9.451  1.0685  0.0356  0.5231
    4SAPS   H8X  500   5.633   1.850   9.439  0.7516 -0.2485  2.8709
    4SAPS   H8Y  501   5.771   1.751   9.503  0.3314  0.0468  0.9450
    4SAPS   C39  502   5.797   1.867   9.304 -0.3608  0.3720 -0.3000
    4SAPS   H9X  503   5.908   1.864   9.309 -0.4170 -2.1815  1.7281
    4SAPS   H9Y  504   5.762   1.968   9.275 -3.4577 -0.6043 -0.3657
    4SAPS  C310  505   5.747   1.770   9.190  0.1628 -0.2056  0.6603
    4SAPS  H10X  506   5.637   1.783   9.201  0.4549  2.2501  1.5219
    4SAPS  H10Y  507   5.770   1.665   9.218 -0.0767 -0.8666 -1.4629
    4SAPS  C311  508   5.807   1.804   9.056  0.4116 -0.4299 -0.4855
    4SAPS  H11X  509   5.917   1.788   9.066  0.3727 -0.3705  0.1102
    4SAPS  H11Y  510   5.793   1.913   9.040  1.7300  0.1407  1.6994
    4SAPS  C312  511   5.741   1.717   8.945 -0.0463  0.5571  0.1644
    4SAPS  H12X  512   5.750   1.779   8.853  1.6453 -0.2773 -0.2897
    4SAPS  H12Y  513   5.637   1.690   8.972 -0.3372  2.9889  1.6897
    4SAPS  C313  514   5.813   1.578   8.928 -0.5044 -0.0260  0.1227
    4SAPS  H13X  515   5.807   1.519   9.022  1.4531  0.7611  0.7869
    4SAPS  H13Y  516   5.923   1.591   8.918  0.2203 -3.3040  2.2992
    4SAPS  C314  517   5.765   1.488   8.809  0.1051  0.1841 -0.4948
    4SAPS  H14X  518   5.654   1.484   8.814  0.1891 -1.9048  0.6532
    4SAPS  H14Y  519   5.802   1.387   8.834 -1.5854  0.1373  2.1615
    4SAPS  C315  520   5.823   1.534   8.675  0.2917 -0.7624  0.0029
    4SAPS  H15X  521   5.934   1.542   8.679  0.3086  0.2266 -1.4265
    4SAPS  H15Y  522   5.782   1.636   8.662  1.4800 -0.3084 -0.3039
    4SAPS  C316  523   5.768   1.455   8.562  0.8342  0.5667  0.6027
    4SAPS  H16X  524   5.660   1.475   8.541  0.0524 -1.8299  1.9492
    4SAPS  H16Y  525   5.772   1.347   8.590 -1.7123 -0.4958 -2.5184
    4SAPS  C317  526   5.854   1.473   8.432 -0.0822  0.2446  0.2456
    4SAPS  H17X  527   5.820   1.397   8.359 -1.3781  1.2151 -0.1983
    4SAPS  H17Y  528   5.963   1.456   8.448 -0.5952 -2.1518  1.7028
    4SAPS  C318  529   5.830   1.614   8.373 -0.4236  0.3504  0.3012
    4SAPS  H18X  530   5.880   1.682   8.446  0.1010 -1.2946  1.5315
    4SAPS  H18Y  531   5.727   1.644   8.344 -0.0945 -0.6097 -2.0707
    4SAPS  H18Z  532   5.879   1.636   8.277 -0.8399 -0.7806 -0.1853
    5SAPS     N  533   1.520   0.390  11.359  0.1987  0.2834  1.1915
    5SAPS   HN1  534   1.480   0.482  11.331  1.5036  0.1216 -1.4580
    5SAPS   HN2  535   1.449   0.315  11.348  1.5003 -1.3899  3.3046
    5SAPS   HN3  536   1.526   0.401  11.463 -2.2249  2.5510  1.2018
    5SAPS   C12  537   1.651   0.366  11.282 -0.7066  0.0395 -0.1928
    5SAPS  H12A  538   1.725   0.398  11.355  0.1008 -2.4417  0.1763
    5SAPS   C13  539   1.672   0.215  11.263 -0.9553 -0.3238 -0.7310
    5SAPS  O13A  540   1.599   0.127  11.324 -0.1047 -0.0855 -0.2720
    5SAPS  O13B  541   1.777   0.185  11.209 -0.4126 -0.2591 -0.2189
    5SAPS   C11  542   1.647   0.441  11.149  0.6124  0.0573 -0.2399
    5SAPS  H11A  543   1.565   0.396  11.088 -1.1018  0.8002  1.4290
    5SAPS  H11B  544   1.748   0.435  11.102  0.7385 -0.0958  0.0464
    5SAPS     P  545   1.649   0.680  11.032 -0.4715  0.5598 -0.4990
    5SAPS   O13  546   1.523   0.760  11.023  0.0078 -0.1464  0.3532
    5SAPS   O14  547   1.772   0.757  11.055 -0.3089 -0.4716 -0.7160
    5SAPS   O12  548   1.628   0.583  11.156  0.2499 -0.0651  0.2345
    5SAPS   O11  549   1.669   0.575  10.909 -0.3137 -0.0154 -0.1311
    5SAPS    C1  550   1.791   0.587  10.829  0.0885 -0.4053  0.9168
    5SAPS    HA  551   1.882   0.615  10.886 -0.6561  0.5070  1.7142
    5SAPS    HB  552   1.806   0.485  10.788  0.5126 -0.6942  1.7766
    5SAPS    C2  553   1.775   0.682  10.709 -0.1550  0.3303 -0.3511
    5SAPS    HS  554   1.867   0.667  10.648  0.2231 -2.2891  0.6992
    5SAPS   O21  555   1.758   0.816  10.754 -0.0574  0.0774 -0.4392
    5SAPS   C21  556   1.858   0.875  10.808 -0.6197  0.0282  0.0585
    5SAPS   O22  557   1.974   0.836  10.816  0.6509  0.0864  0.3861
    5SAPS   C22  558   1.820   1.001  10.876 -0.3448 -0.2671 -0.0865
    5SAPS   H2R  559   1.711   1.012  10.896 -0.2840  1.7254 -0.5979
    5SAPS   H2S  560   1.887   1.001  10.965  1.2012  2.4453 -1.1159
    5SAPS    C3  561   1.659   0.650  10.617  1.1201  0.8937  0.6986
    5SAPS    HX  562   1.572   0.630  10.684  1.1323  1.1361  0.7856
    5SAPS    HY  563   1.679   0.547  10.580  1.8612  0.3721  2.4397
    5SAPS   O31  564   1.639   0.740  10.505  0.4827 -0.1014 -0.3397
    5SAPS   C31  565   1.550   0.837  10.523  0.3692 -0.5146  0.3290
    5SAPS   O32  566   1.476   0.854  10.616 -0.2593  0.4675  0.0054
    5SAPS   C32  567   1.550   0.939  10.407 -0.7060 -0.5478  0.5319
    5SAPS   H2X  568   1.640   1.001  10.425 -0.8514 -0.2718  0.3204
    5SAPS   H2Y  569   1.463   1.007  10.418 -1.9829 -1.7425 -1.5437
    5SAPS   C23  570   1.851   1.125  10.786 -0.1099 -0.1862  0.0096
    5SAPS   H3R  571   1.957   1.109  10.755 -1.1232 -2.9167 -2.5010
    5SAPS   H3S  572   1.832   1.210  10.854 -3.0957 -0.8484  0.1320
    5SAPS   C24  573   1.751   1.135  10.669 -0.5463  0.0747  0.0541
    5SAPS   H4R  574   1.653   1.110  10.715  0.0800 -1.0578  0.8286
    5SAPS   H4S  575   1.782   1.065  10.589  5.5952  0.2910  1.7215
    5SAPS   C25  576   1.742   1.276  10.626  0.2186 -0.6234 -0.1373
    5SAPS   H5R  577   1.691   1.347  10.694 -0.7052 -0.2777 -1.1606
    5SAPS   C26  578   1.794   1.327  10.508  0.2052  0.3308  0.1604
    5SAPS   H6R  579   1.775   1.434  10.492 -2.7989  0.0450  1.1459
    5SAPS   C27  580   1.877   1.250  10.408  0.1498  0.1892 -0.7552
    5SAPS   H7R  581   1.827   1.260  10.309 -3.1449  1.1566  0.8440
    5SAPS   H7S  582   1.889   1.141  10.423 -1.6317  0.2533  1.8463
    5SAPS   C28  583   2.014   1.321  10.397 -0.0702  0.2873  0.4240
    5SAPS   H8R  584   2.079   1.315  10.486 -0.9588 -2.8435  0.9898
    5SAPS   C29  585   2.064   1.396  10.289 -0.3864 -0.0092  0.4396
    5SAPS   H9R  586   2.167   1.434  10.295 -0.0504 -0.9742  1.0128
    5SAPS  C210  587   2.002   1.407  10.151 -0.9669 -0.1765 -0.2021
    5SAPS  H10R  588   1.900   1.364  10.144 -1.8911  1.6554  1.0785
    5SAPS  H10S  589   2.063   1.363  10.069  0.3526  2.3918 -0.7326
    5SAPS  C211  590   1.989   1.550  10.112 -0.5225  0.3512  0.5808
    5SAPS  H11R  591   2.016   1.629  10.184  0.7273 -2.2245  3.1565
    5SAPS  C212  592   1.941   1.594   9.994  0.2745 -0.1341  0.2276
    5SAPS  H12R  593   1.948   1.702   9.973 -0.4329  0.1911  1.5573
    5SAPS  C213  594   1.891   1.513   9.875  0.0506  0.2459 -0.7800
    5SAPS  H13R  595   1.780   1.515   9.870  0.1087  1.4999 -2.4805
    5SAPS  H13S  596   1.924   1.407   9.875  1.7251  0.6408  2.4233
    5SAPS  C214  597   1.951   1.576   9.750  0.0308 -0.5930  0.3488
    5SAPS  H14R  598   2.035   1.646   9.760  0.5411 -1.1569  0.0947
    5SAPS  C215  599   1.912   1.544   9.625 -0.2660 -0.1214  0.2678
    5SAPS  H15R  600   1.958   1.589   9.535 -0.7518 -0.5147 -0.1770
    5SAPS  C216  601   1.809   1.439   9.592  0.2475  0.4280 -0.7294
    5SAPS  H16R  602   1.715   1.493   9.566  0.4254  2.1045  1.7221
    5SAPS  H16S  603   1.772   1.390   9.685 -0.6454 -1.9234 -2.2373
    5SAPS  C217  604   1.859   1.327   9.508 -0.4490  0.1139  0.6409
    5SAPS  H17R  605   1.909   1.376   9.421  1.0684  0.3471  1.6015
    5SAPS  H17S  606   1.776   1.265   9.471 -2.8556  4.1264 -1.4432
    5SAPS  C218  607   1.958   1.227   9.580 -0.1489  0.1540  0.0499
    5SAPS  H18R  608   2.048   1.287   9.606 -0.5983  0.4163  1.0337
    5SAPS  H18S  609   1.919   1.199   9.680 -2.4705  1.3328 -0.4567
    5SAPS  C219  610   1.982   1.103   9.494 -0.2397  0.2416 -0.2349
    5SAPS  H19R  611   2.000   1.127   9.387  0.0308 -0.8354 -0.4419
    5SAPS  H19S  612   1.902   1.030   9.514  1.2870 -1.1486  1.1048
    5SAPS  C220  613   2.114   1.032   9.525  0.3011 -0.1906  0.1949
    5SAPS  H20R  614   2.192   1.111   9.525 -0.0715  0.1790  0.3328
    5SAPS  H20S  615   2.140   0.954   9.451  0.4907 -1.6326  1.7069
    5SAPS  H20T  616   2.110   0.988   9.627 -2.5971  1.1655  0.7807
    5SAPS   C33  617   1.546   0.876  10.263 -0.0595  0.1235 -0.4407
    5SAPS   H3X  618   1.441   0.849  10.243 -0.4558  1.5546 -0.4003
    5SAPS   H3Y  619   1.600   0.779  10.261 -0.0235  0.1398 -0.1984
    5SAPS   C34  620   1.613   0.965  10.149 -0.1509  0.4537  0.4109
    5SAPS   H4X  621   1.723   0.963  10.138 -0.3465 -0.1625 -2.0652
    5SAPS   H4Y  622   1.598   1.073  10.165  0.7161  0.8256 -1.0336
    5SAPS   C35  623   1.549   0.935  10.011  0.0964  0.4636  0.0201
    5SAPS   H5X  624   1.441   0.959  10.015 -0.1209 -0.4873  0.3623
    5SAPS   H5Y  625   1.552   0.825   9.996 -0.7805  0.1562  1.8113
    5SAPS   C36  626   1.608   1.012   9.896  0.6969  0.3095  0.0357
    5SAPS   H6X  627   1.716   0.989   9.895  0.2994 -1.8430 -0.6703
    5SAPS   H6Y  628   1.593   1.121   9.912 -0.9826  0.3062 -1.1856
    5SAPS   C37  629   1.537   0.956   9.763 -0.8003 -0.3823 -0.4242
    5SAPS   H7X  630   1.431   0.988   9.760 -0.9072 -0.7690 -0.7486
    5SAPS   H7Y  631   1.547   0.846   9.770 -1.0945 -0.4060 -0.3615
    5SAPS   C38  632   1.592   1.011   9.628  0.4842  0.0087  0.3281
    5SAPS   H8X  633   1.701   0.990   9.625  0.6652  0.8222  1.0956
    5SAPS   H8Y  634   1.571   1.119   9.618 -0.4866  0.0012  2.0685
    5SAPS   C39  635   1.532   0.945   9.504 -0.1892 -0.0659 -0.1956
    5SAPS   H9X  636   1.424   0.972   9.497 -0.0471  0.0776 -3.0174
    5SAPS   H9Y  637   1.534   0.836   9.520  0.8638  0.3019  2.8441
    5SAPS  C310  638   1.591   0.987   9.368 -0.4169  0.6662 -0.2235
    5SAPS  H10X  639   1.702   0.984   9.373 -0.4725 -0.4181  0.5145
    5SAPS  H10Y  640   1.555   1.089   9.338 -1.0809  0.6068  0.3412
    5SAPS  C311  641   1.554   0.890   9.259  0.0394 -0.3005  0.0586
    5SAPS  H11X  642   1.443   0.884   9.256 -0.1027  2.0222 -0.6138
    5SAPS  H11Y  643   1.599   0.790   9.278  0.8707 -0.1007 -0.8294
    5SAPS  C312  644   1.606   0.936   9.124  1.2147  0.6816  0.2627
    5SAPS  H12X  645   1.716   0.947   9.114  1.0496  1.3922 -1.0057
    5SAPS  H12Y  646   1.570   1.040   9.110 -1.3069  0.3112  2.9555
    5SAPS  C313  647   1.559   0.847   9.005 -0.3524  0.2356 -0.2926
    5SAPS  H13X  648   1.450   0.827   9.019 -0.1383 -1.6773 -1.1123
    5SAPS  H13Y  649   1.607   0.747   9.009 -0.6730 -0.0380 -2.1500
    5SAPS  C314  650   1.596   0.893   8.864  0.3129  0.3010 -0.1240
    5SAPS  H14X  651   1.646   0.992   8.869  1.5836 -0.2704 -1.0174
    5SAPS  H14Y  652   1.508   0.920   8.803  1.1874  1.2484 -1.0108
    5SAPS  C315  653   1.692   0.788   8.796 -0.7149  0.3054  0.5972
    5SAPS  H15X  654   1.634   0.704   8.752 -0.4563  2.2275 -3.9646
    5SAPS  H15Y  655   1.774   0.759   8.865 -0.4067 -2.0668 -0.6726
    5SAPS  C316  656   1.768   0.860   8.677 -0.2537 -0.2716  0.0478
    5SAPS  H16X  657   1.823   0.942   8.729  0.8234 -0.4447 -0.7637
    5SAPS  H16Y  658   1.703   0.912   8.604  0.0791 -1.6291 -1.2791
    5SAPS  C317  659   1.867   0.784   8.590 -0.0212  0.7135  0.4623
    5SAPS  H17X  660   1.806   0.698   8.556 -0.9513  0.0551  3.4448
    5SAPS  H17Y  661   1.953   0.748   8.651 -0.7742 -2.5509 -0.2459
    5SAPS  C318  662   1.928   0.866   8.477 -0.4409 -0.2075 -0.2659
    5SAPS  H18X  663   1.844   0.895   8.410  0.8196  0.7179 -1.5047
    5SAPS  H18Y  664   1.998   0.814   8.408 -0.8123 -0.5983 -0.3546
    5SAPS  H18Z  665   1.963   0.965   8.514  0.2156 -0.3865 -0.3996
    6SAPS     N  666   0.761   0.341  10.927  0.0244  0.1415 -0.6946
    6SAPS   HN1  667   0.673   0.353  10.874  0.0156  0.0357 -0.7055
    6SAPS   HN2  668   0.824   0.282  10.870  1.1539 -0.6978  1.3197
    6SAPS   HN3  669   0.730   0.296  11.015 -0.2105  1.5134 -0.0476
    6SAPS   C12  670   0.819   0.478  10.961 -0.4656  0.0219 -0.4026
    6SAPS  H12A  671   0.799   0.534  10.871 -4.6090  1.1606  1.0119
    6SAPS   C13  672   0.752   0.546  11.075 -0.3656  0.3477  0.0175
    6SAPS  O13A  673   0.662   0.490  11.140 -0.8079 -0.2149  0.4513
    6SAPS  O13B  674   0.810   0.645  11.120 -0.0152  0.2206  0.1080
    6SAPS   C11  675   0.973   0.455  10.992 -0.2017  0.5021 -0.0781
    6SAPS  H11A  676   0.975   0.381  11.075  1.4340  2.6279  1.9274
    6SAPS  H11B  677   1.026   0.549  11.021  0.6054  0.0182  0.0592
    6SAPS     P  678   1.103   0.471  10.760 -0.1646 -0.1224  0.8747
    6SAPS   O13  679   1.155   0.599  10.808 -0.2877 -0.5793 -0.1105
    6SAPS   O14  680   1.195   0.379  10.674  0.1090 -0.0942 -0.1345
    6SAPS   O12  681   1.039   0.391  10.877  0.1606 -0.2690  0.5600
    6SAPS   O11  682   0.978   0.510  10.666  0.1624  0.1376  0.0933
    6SAPS    C1  683   0.930   0.414  10.565 -0.0747 -0.5221  0.0323
    6SAPS    HA  684   0.942   0.305  10.586 -0.0277 -0.2880  1.2690
    6SAPS    HB  685   0.820   0.424  10.553 -0.4524 -2.5660  1.2782
    6SAPS    C2  686   0.999   0.439  10.426 -0.4127  0.7420  0.2098
    6SAPS    HS  687   1.102   0.399  10.420 -0.5586 -0.0919  2.3968
    6SAPS   O21  688   0.978   0.575  10.384  0.7778  0.1601 -0.3355
    6SAPS   C21  689   1.088   0.650  10.394 -0.8180  0.0743  0.0315
    6SAPS   O22  690   1.201   0.603  10.404 -0.1968 -0.1373 -0.3606
    6SAPS   C22  691   1.049   0.798  10.372 -0.7514  0.2354  0.1294
    6SAPS   H2R  692   0.984   0.801  10.282  0.7005 -1.0506 -1.0254
    6SAPS   H2S  693   0.991   0.835  10.460  0.4097 -1.2138  1.5808
    6SAPS    C3  694   0.928   0.352  10.320 -0.1078  0.3586 -0.4301
    6SAPS    HX  695   0.818   0.362  10.330 -0.2318 -0.7199 -0.5965
    6SAPS    HY  696   0.944   0.243  10.331  1.3107  0.4651 -1.1774
    6SAPS   O31  697   0.972   0.383  10.182  0.2565  0.0000 -0.3656
    6SAPS   C31  698   0.889   0.371  10.080  0.3046 -0.0820  0.1610
    6SAPS   O32  699   0.770   0.343  10.088  0.3032  0.3238  0.1706
    6SAPS   C32  700   0.969   0.392   9.950 -0.1349 -0.1358 -0.1202
    6SAPS   H2X  701   1.066   0.339   9.958  0.2820  0.6723  0.2111
    6SAPS   H2Y  702   0.991   0.500   9.953  0.0364 -0.1910  1.3594
    6SAPS   C23  703   1.174   0.894  10.348 -0.0192  0.1545 -1.0847
    6SAPS   H3R  704   1.272   0.847  10.372  0.0038  0.0107 -1.4545
    6SAPS   H3S  705   1.163   0.979  10.418  0.7907  1.0745 -2.0445
    6SAPS   C24  706   1.167   0.963  10.209 -0.1609 -0.8626 -0.2362
    6SAPS   H4R  707   1.245   1.041  10.217 -1.2222  0.4167 -1.5933
    6SAPS   H4S  708   1.069   1.014  10.193 -0.1716 -0.9863 -0.5708
    6SAPS   C25  709   1.199   0.865  10.093  0.1090  0.5807  0.4201
    6SAPS   H5R  710   1.291   0.805  10.088 -0.2965 -0.0874  0.8365
    6SAPS   C26  711   1.115   0.827   9.999  0.5642 -1.0186  0.1011
    6SAPS   H6R  712   1.146   0.765   9.914 -1.5060 -2.5054  0.3472
    6SAPS   C27  713   0.975   0.888   9.979  0.3092  1.0874 -0.3453
    6SAPS   H7R  714   0.979   0.974   9.909 -1.3305 -0.7329 -2.8415
    6SAPS   H7S  715   0.935   0.925  10.076 -0.7511  0.7949 -0.6534
    6SAPS   C28  716   0.874   0.790   9.920  0.4237 -0.6189  0.3068
    6SAPS   H8R  717   0.798   0.754   9.991 -0.8703 -0.7540 -1.0999
    6SAPS   C29  718   0.861   0.766   9.786 -0.2275  0.1338 -0.3091
    6SAPS   H9R  719   0.780   0.698   9.757  0.0619 -0.1620 -0.4238
    6SAPS  C210  720   0.941   0.819   9.678 -0.5587 -0.5352 -0.1127
    6SAPS  H10R  721   1.002   0.903   9.717  1.2560 -0.8079 -2.2074
    6SAPS  H10S  722   0.868   0.865   9.608 -0.6753  1.2981  1.1353
    6SAPS  C211  723   1.035   0.725   9.618 -0.2641  0.2740  0.0834
    6SAPS  H11R  724   1.132   0.710   9.669 -0.9220 -1.9191  0.7928
    6SAPS  C212  725   1.026   0.666   9.500 -0.7900  0.2237  0.0354
    6SAPS  H12R  726   1.104   0.595   9.470 -2.0383  0.3777 -4.1126
    6SAPS  C213  727   0.913   0.681   9.401  0.7763 -0.3806 -0.2973
    6SAPS  H13R  728   0.916   0.784   9.361  0.1740 -0.7279 -1.2676
    6SAPS  H13S  729   0.813   0.669   9.450  1.4760  1.6145  1.8214
    6SAPS  C214  730   0.930   0.590   9.290 -0.2953 -0.1013 -0.5894
    6SAPS  H14R  731   0.881   0.494   9.314 -2.6966  0.7575 -1.7006
    6SAPS  C215  732   0.976   0.619   9.163  0.5319  0.2148  0.2945
    6SAPS  H15R  733   0.992   0.531   9.100  0.5689 -0.5854  1.3834
    6SAPS  C216  734   1.025   0.754   9.115  1.0145  0.2798  0.0929
    6SAPS  H16R  735   1.134   0.742   9.131  0.7569 -1.8842  0.5293
    6SAPS  H16S  736   0.994   0.839   9.179  0.2645  0.2163 -0.1662
    6SAPS  C217  737   0.992   0.800   8.974 -0.0260  0.3035 -0.8602
    6SAPS  H17R  738   0.900   0.862   8.980  0.3173  0.7461 -0.0394
    6SAPS  H17S  739   0.967   0.707   8.917 -0.8158 -0.7451  1.0972
    6SAPS  C218  740   1.108   0.867   8.900 -0.2280 -0.1831  0.3535
    6SAPS  H18R  741   1.098   0.875   8.790 -0.1321  0.6995  0.3962
    6SAPS  H18S  742   1.190   0.794   8.914  0.4602  0.6385  0.7536
    6SAPS  C219  743   1.156   0.994   8.967  0.0481 -0.2177  0.5053
    6SAPS  H19R  744   1.211   0.957   9.055 -0.3774 -1.8985  0.0986
    6SAPS  H19S  745   1.061   1.039   9.003 -0.5432 -0.1639 -1.0361
    6SAPS  C220  746   1.234   1.097   8.882  0.3564  0.1099 -0.2443
    6SAPS  H20R  747   1.338   1.058   8.882  0.3262  0.0217 -0.7144
    6SAPS  H20S  748   1.223   1.186   8.948 -0.9242 -0.9782  1.0643
    6SAPS  H20T  749   1.187   1.107   8.782  2.9198 -0.7846 -1.6398
    6SAPS   C33  750   0.889   0.370   9.824  0.4623  0.1602  0.4174
    6SAPS   H3X  751   0.930   0.441   9.748  0.6378  0.9905  1.2712
    6SAPS   H3Y  752   0.786   0.406   9.840  1.8488  3.4417  3.0933
    6SAPS   C34  753   0.895   0.229   9.777  0.2500  0.6478  0.1904
    6SAPS   H4X  754   0.883   0.169   9.870 -0.4718  3.0507  1.7377
    6SAPS   H4Y  755   0.988   0.217   9.718 -0.1765 -1.0593 -0.2172
    6SAPS   C35  756   0.783   0.186   9.677 -0.8213 -0.0623 -0.5408
    6SAPS   H5X  757   0.683   0.211   9.719 -0.9824  1.4916 -1.7801
    6SAPS   H5Y  758   0.779   0.076   9.663 -1.4241 -0.1568  0.3011
    6SAPS   C36  759   0.789   0.250   9.538 -0.3575  0.1916  0.0310
    6SAPS   H6X  760   0.880   0.213   9.485 -1.0502 -1.8467  0.1857
    6SAPS   H6Y  761   0.796   0.361   9.548 -1.6183  0.3188 -0.3050
    6SAPS   C37  762   0.669   0.222   9.453 -0.6403 -0.1972  0.8635
    6SAPS   H7X  763   0.579   0.249   9.512  0.0683 -0.1145  1.9393
    6SAPS   H7Y  764   0.669   0.111   9.446  0.5451 -0.1534 -0.1137
    6SAPS   C38  765   0.684   0.279   9.309 -0.3026  0.1602  0.3550
    6SAPS   H8X  766   0.794   0.276   9.289 -0.0497  0.1954  1.6482
    6SAPS   H8Y  767   0.652   0.385   9.317 -1.2648 -0.1957  1.4684
    6SAPS   C39  768   0.606   0.197   9.214  0.2865 -0.8472  0.2474
    6SAPS   H9X  769   0.606   0.245   9.114  1.1614 -0.2456  0.5273
    6SAPS   H9Y  770   0.500   0.195   9.248  0.5539  2.5901  1.6315
    6SAPS  C310  771   0.665   0.063   9.176 -0.4238  1.4147 -0.4352
    6SAPS  H10X  772   0.582  -0.001   9.137 -2.1633  3.1935  0.1733
    6SAPS  H10Y  773   0.720   0.011   9.257  0.5234 -1.7889 -2.9198
    6SAPS  C311  774   0.766   0.062   9.055  0.8302  0.4548 -0.4916
    6SAPS  H11X  775   0.711   0.077   8.959  0.3620 -2.5493 -0.8016
    6SAPS  H11Y  776   0.815  -0.038   9.055  2.5915  1.2804  0.6464
    6SAPS  C312  777   0.875   0.173   9.057  0.1702 -0.1673  0.6537
    6SAPS  H12X  778   0.929   0.170   9.154  0.3693  0.7274  0.5755
    6SAPS  H12Y  779   0.818   0.267   9.045  0.4393 -0.2044 -1.2980
    6SAPS  C313  780   0.973   0.162   8.942  0.0752 -0.1138 -0.3215
    6SAPS  H13X  781   0.923   0.168   8.843  1.1270 -2.1224 -1.0408
    6SAPS  H13Y  782   1.030   0.067   8.958 -0.9538 -0.3957  1.9646
    6SAPS  C314  783   1.086   0.273   8.943 -0.1079  0.4974 -0.1989
    6SAPS  H14X  784   1.160   0.254   9.023  1.3251  0.7536 -1.4340
    6SAPS  H14Y  785   1.039   0.374   8.954 -1.0657  0.1708 -1.0940
    6SAPS  C315  786   1.168   0.266   8.819 -0.2663 -0.1973  0.2608
    6SAPS  H15X  787   1.123   0.183   8.761 -1.2808  0.0011  0.7484
    6SAPS  H15Y  788   1.269   0.238   8.856 -0.4772  0.7088  1.5883
    6SAPS  C316  789   1.190   0.398   8.738  0.6223  0.3802  0.3974
    6SAPS  H16X  790   1.278   0.384   8.672  0.0986 -1.3279  0.0046
    6SAPS  H16Y  791   1.202   0.480   8.812 -1.0310  2.0857 -1.1182
    6SAPS  C317  792   1.060   0.434   8.657  0.1923  0.6278  0.3188
    6SAPS  H17X  793   0.964   0.422   8.712 -0.4049  2.9697 -0.0794
    6SAPS  H17Y  794   1.070   0.371   8.566  0.7951  3.2806 -1.5919
    6SAPS  C318  795   1.056   0.575   8.600 -0.2609  0.3021 -0.6119
    6SAPS  H18X  796   0.998   0.649   8.658 -0.7251 -1.3769  1.1601
    6SAPS  H18Y  797   1.008   0.571   8.500 -0.4524 -0.7858 -0.4888
    6SAPS  H18Z  798   1.162   0.610   8.591 -0.4224  0.7196 -0.9389
    7SAPS     N  799   4.406   1.971  10.962  0.0741 -0.3095 -0.6025
    7SAPS   HN1  800   4.375   1.940  10.868  0.1034 -0.5731 -0.5255
    7SAPS   HN2  801   4.357   1.914  11.034 -0.4218  1.7745  0.8284
    7SAPS   HN3  802   4.375   2.071  10.963  0.6766 -0.1001 -1.4834
    7SAPS   C12  803   4.553   1.961  10.990  0.3157  0.1983  1.0535
    7SAPS  H12A  804   4.609   2.014  10.915  0.2731  1.5175  1.9243
    7SAPS   C13  805   4.590   2.020  11.125  0.7634  0.2303  0.1103
    7SAPS  O13A  806   4.498   2.027  11.214 -0.1617  0.3437  0.0532
    7SAPS  O13B  807   4.709   2.026  11.161  0.6598  0.1857 -0.8181
    7SAPS   C11  808   4.593   1.815  10.990  0.3389 -0.1528 -0.2035
    7SAPS  H11A  809   4.550   1.777  11.085  1.9019  1.6576  1.3048
    7SAPS  H11B  810   4.702   1.803  11.008  0.5347  0.1925 -1.1036
    7SAPS     P  811   4.617   1.601  10.829 -0.1649 -0.0158  0.0866
    7SAPS   O13  812   4.711   1.549  10.933  0.3098  0.4697  0.1172
    7SAPS   O14  813   4.498   1.522  10.793  0.0066 -0.3410  0.0561
    7SAPS   O12  814   4.564   1.741  10.871  0.1456 -0.1399 -0.0697
    7SAPS   O11  815   4.695   1.629  10.696  0.2362 -0.3021  0.2827
    7SAPS    C1  816   4.781   1.741  10.694  0.5334  0.2639  0.1021
    7SAPS    HA  817   4.728   1.828  10.739  1.5201  0.0458  1.7641
    7SAPS    HB  818   4.871   1.731  10.758  0.6669 -0.3828 -0.1833
    7SAPS    C2  819   4.828   1.772  10.548 -0.5658 -0.5844 -0.5221
    7SAPS    HS  820   4.891   1.863  10.554  2.8348 -2.8112  0.6083
    7SAPS   O21  821   4.714   1.792  10.461  0.9088  0.5092  0.3335
    7SAPS   C21  822   4.658   1.909  10.454  0.3568  0.0975  0.3071
    7SAPS   O22  823   4.694   2.011  10.509  0.0741  0.8734 -0.2035
    7SAPS   C22  824   4.531   1.904  10.368 -0.6135  0.2331  0.0235
    7SAPS   H2R  825   4.463   1.856  10.443  0.8741 -2.4186 -0.1846
    7SAPS   H2S  826   4.500   2.007  10.343 -0.0360  0.3496 -0.2228
    7SAPS    C3  827   4.909   1.653  10.480 -0.3004  0.5036 -0.3214
    7SAPS    HX  828   4.835   1.573  10.462 -1.2299  1.2964 -0.1537
    7SAPS    HY  829   4.998   1.619  10.537 -0.3526 -0.1597 -0.6318
    7SAPS   O31  830   4.957   1.688  10.343  0.0646 -0.3637 -0.1177
    7SAPS   C31  831   5.069   1.760  10.346  0.0069  0.0435  0.2035
    7SAPS   O32  832   5.124   1.806  10.445  0.0062  0.1968 -0.4491
    7SAPS   C32  833   5.121   1.783  10.196  0.4952  0.0828  0.1056
    7SAPS   H2X  834   5.054   1.749  10.114  0.8655  3.2876 -1.7340
    7SAPS   H2Y  835   5.214   1.723  10.187 -0.8705 -1.8289 -2.3129
    7SAPS   C23  836   4.558   1.818  10.238  0.8141 -0.8273  0.8556
    7SAPS   H3R  837   4.461   1.804  10.186  0.6227 -3.0115  1.6532
    7SAPS   H3S  838   4.584   1.712  10.259  0.4801 -1.2485 -0.7831
    7SAPS   C24  839   4.667   1.881  10.142 -0.2169 -0.1054  0.2665
    7SAPS   H4R  840   4.766   1.867  10.192  0.1640 -0.9068 -0.6604
    7SAPS   H4S  841   4.659   1.991  10.142 -1.5622 -0.1836 -0.4992
    7SAPS   C25  842   4.691   1.806  10.016 -0.6611  0.6160  0.6791
    7SAPS   H5R  843   4.684   1.696  10.021  0.8656  0.2661 -2.5982
    7SAPS   C26  844   4.737   1.862   9.901  0.7087 -0.1760  0.1821
    7SAPS   H6R  845   4.746   1.803   9.809  0.0042  1.1663 -0.7858
    7SAPS   C27  846   4.757   2.014   9.896 -0.5165 -0.2672  0.2285
    7SAPS   H7R  847   4.797   2.059   9.990  0.6331  2.0961 -1.3016
    7SAPS   H7S  848   4.658   2.063   9.886  0.4718  1.2737 -3.6632
    7SAPS   C28  849   4.847   2.054   9.779  0.2968  0.3388  0.3047
    7SAPS   H8R  850   4.955   2.059   9.802  0.4513  0.4713 -0.4211
    7SAPS   C29  851   4.817   2.096   9.659 -0.0689  0.5956 -0.1773
    7SAPS   H9R  852   4.889   2.108   9.577  0.3200  0.6678  0.1721
    7SAPS  C210  853   4.673   2.111   9.622  0.2413 -0.0031  0.3703
    7SAPS  H10R  854   4.681   2.207   9.568  1.7615  0.7319  1.8094
    7SAPS  H10S  855   4.600   2.114   9.706  0.4552  0.5372  0.5397
    7SAPS  C211  856   4.633   1.998   9.534 -0.5365 -0.0887  1.0239
    7SAPS  H11R  857   4.616   1.908   9.594 -0.3132 -0.3232  0.7387
    7SAPS  C212  858   4.611   2.000   9.403  0.3669 -0.1042  0.2504
    7SAPS  H12R  859   4.579   1.908   9.352 -0.0926  1.9282 -3.5474
    7SAPS  C213  860   4.617   2.121   9.312 -0.1555 -0.0514 -0.4752
    7SAPS  H13R  861   4.615   2.213   9.374  0.3333 -0.1042 -0.3772
    7SAPS  H13S  862   4.519   2.128   9.259 -0.1599  0.8111 -0.3676
    7SAPS  C214  863   4.741   2.124   9.229  0.5166  0.5573  0.3511
    7SAPS  H14R  864   4.824   2.159   9.292  0.7003  0.2247  0.2952
    7SAPS  C215  865   4.764   2.098   9.097  0.3981  0.4799 -0.6736
    7SAPS  H15R  866   4.865   2.115   9.059 -0.8628  1.7263 -3.7678
    7SAPS  C216  867   4.656   2.053   9.000 -0.1009  0.1750  0.2991
    7SAPS  H16R  868   4.569   2.014   9.058 -0.0198 -1.1895 -0.4711
    7SAPS  H16S  869   4.687   1.968   8.937  1.3813  0.1035  1.0698
    7SAPS  C217  870   4.600   2.163   8.902  0.3945  0.2809 -0.5440
    7SAPS  H17R  871   4.554   2.244   8.963  0.9129  0.4964 -0.4349
    7SAPS  H17S  872   4.529   2.112   8.833  1.4196 -0.5547 -1.0058
    7SAPS  C218  873   4.700   2.229   8.808 -0.9714  0.6667 -0.0248
    7SAPS  H18R  874   4.756   2.150   8.753  1.9836  3.3216 -1.1054
    7SAPS  H18S  875   4.778   2.278   8.872 -0.7867  0.1686  0.1383
    7SAPS  C219  876   4.635   2.317   8.708 -0.3570 -0.3781  0.0744
    7SAPS  H19R  877   4.568   2.393   8.755  1.8194 -0.0142  2.8858
    7SAPS  H19S  878   4.584   2.252   8.634 -0.2829  0.2236 -0.5065
    7SAPS  C220  879   4.739   2.408   8.636 -0.5986 -0.5069  0.1410
    7SAPS  H20R  880   4.813   2.444   8.710 -0.4001  0.6580 -0.5821
    7SAPS  H20S  881   4.692   2.503   8.600  0.8413 -0.1971 -1.0195
    7SAPS  H20T  882   4.792   2.348   8.559  2.3187  0.0592  1.5734
    7SAPS   C33  883   5.146   1.932  10.176 -0.0255  0.2047  0.2083
    7SAPS   H3X  884   5.228   1.972  10.240 -0.8112  1.4253  0.4845
    7SAPS   H3Y  885   5.058   1.993  10.203  0.3267  0.5782  0.5249
    7SAPS   C34  886   5.194   1.960  10.033 -0.8112  0.8665 -0.4539
    7SAPS   H4X  887   5.097   1.955   9.979 -1.2205 -0.7968  0.3888
    7SAPS   H4Y  888   5.262   1.882   9.994  0.3586  0.1534  2.6999
    7SAPS   C35  889   5.249   2.099  10.020 -0.2017  0.0145 -0.0314
    7SAPS   H5X  890   5.349   2.095  10.068 -0.0957  0.9721 -0.1583
    7SAPS   H5Y  891   5.176   2.159  10.080 -0.7357 -0.7467  0.1003
    7SAPS   C36  892   5.254   2.142   9.877  0.1314 -0.3937  0.5074
    7SAPS   H6X  893   5.326   2.226   9.871  2.0071 -1.8413  1.6954
    7SAPS   H6Y  894   5.152   2.180   9.851  0.2465  2.0462  3.0293
    7SAPS   C37  895   5.311   2.042   9.781 -0.3661  0.0356 -0.5247
    7SAPS   H7X  896   5.240   1.956   9.774 -1.4877  1.0258 -1.7915
    7SAPS   H7Y  897   5.413   2.004   9.802 -0.7866 -0.8563 -0.0023
    7SAPS   C38  898   5.317   2.095   9.638  0.0668  0.3306  0.2876
    7SAPS   H8X  899   5.394   2.174   9.651 -0.5914  0.7892  1.7022
    7SAPS   H8Y  900   5.214   2.131   9.619 -0.0608 -0.3520 -0.3541
    7SAPS   C39  901   5.350   1.993   9.523  0.2497  0.4728  0.1964
    7SAPS   H9X  902   5.282   1.906   9.532  0.7945  0.1293  1.1653
    7SAPS   H9Y  903   5.454   1.959   9.541 -0.2419  0.3479  3.3890
    7SAPS  C310  904   5.322   2.049   9.376 -0.6906  0.4363 -0.0465
    7SAPS  H10X  905   5.376   2.146   9.380  1.9479 -0.8300 -2.1853
    7SAPS  H10Y  906   5.219   2.085   9.352 -1.0155  0.0625  0.7292
    7SAPS  C311  907   5.383   1.963   9.266 -0.0618  0.3667  0.2793
    7SAPS  H11X  908   5.312   1.889   9.224  0.0987  1.7160 -2.5485
    7SAPS  H11Y  909   5.472   1.909   9.305  0.2353 -0.2188 -1.1641
    7SAPS  C312  910   5.423   2.029   9.136 -1.0638 -0.2083  0.2371
    7SAPS  H12X  911   5.461   1.950   9.067 -1.7062 -1.6133  1.4278
    7SAPS  H12Y  912   5.499   2.104   9.166 -0.5595 -0.9324  0.8174
    7SAPS  C313  913   5.308   2.102   9.069 -0.3182  0.8697  0.2618
    7SAPS  H13X  914   5.266   2.183   9.132  0.3092  1.0372  0.4705
    7SAPS  H13Y  915   5.230   2.023   9.060  0.7843 -0.3378  0.9461
    7SAPS  C314  916   5.335   2.166   8.933  0.8530  0.2187  0.1505
    7SAPS  H14X  917   5.399   2.085   8.891  2.8481  0.5486  2.3170
    7SAPS  H14Y  918   5.392   2.260   8.947  2.9782 -0.9735 -0.0646
    7SAPS  C315  919   5.205   2.188   8.851  0.1321 -0.4293 -0.3866
    7SAPS  H15X  920   5.130   2.200   8.932 -0.3640 -0.7072 -0.8009
    7SAPS  H15Y  921   5.163   2.101   8.797 -1.2658  0.2976 -0.5220
    7SAPS  C316  922   5.210   2.301   8.747  0.5306 -0.3471  0.4825
    7SAPS  H16X  923   5.315   2.289   8.713  0.6753 -1.0609  1.1541
    7SAPS  H16Y  924   5.186   2.398   8.793 -3.1406 -0.1638 -1.4122
    7SAPS  C317  925   5.099   2.285   8.645 -0.2808 -0.2340  0.3506
    7SAPS  H17X  926   5.008   2.335   8.684 -0.3956 -0.1970  0.0396
    7SAPS  H17Y  927   5.074   2.177   8.641 -0.4871 -0.2347  1.3363
    7SAPS  C318  928   5.142   2.338   8.503  0.4213 -0.3447 -0.4850
    7SAPS  H18X  929   5.165   2.447   8.499  0.7667 -0.2517  2.0902
    7SAPS  H18Y  930   5.060   2.318   8.432 -0.3532  1.1383 -0.0560
    7SAPS  H18Z  931   5.237   2.287   8.475  0.5067 -1.8070  2.1552
    8SAPS     N  932   2.841   2.109  11.255  0.1710  0.5595  0.3273
    8SAPS   HN1  933   2.742   2.084  11.273  0.0992  0.5192 -0.1071
    8SAPS   HN2  934   2.875   2.044  11.181 -1.9111  2.5811 -2.5897
    8SAPS   HN3  935   2.895   2.087  11.341  2.0191 -0.7942 -1.0889
    8SAPS   C12  936   2.867   2.252  11.222 -0.0909 -0.0262  0.2992
    8SAPS  H12A  937   2.803   2.280  11.140  2.9432 -0.9036 -2.5677
    8SAPS   C13  938   2.852   2.344  11.352 -0.0232  0.3126  0.4082
    8SAPS  O13A  939   2.854   2.297  11.471  0.3045 -0.1634  0.3253
    8SAPS  O13B  940   2.838   2.468  11.327 -0.8948 -0.3806 -0.3318
    8SAPS   C11  941   3.011   2.280  11.162  0.4227  0.4260  0.6049
    8SAPS  H11A  942   3.078   2.259  11.248 -1.1301  0.5254  1.8869
    8SAPS  H11B  943   3.018   2.388  11.139  1.7403  0.2960  0.3432
    8SAPS     P  944   3.194   2.182  11.015 -0.2147  0.2564 -0.5203
    8SAPS   O13  945   3.268   2.315  11.027  0.0359  0.2635  0.5771
    8SAPS   O14  946   3.242   2.070  11.105  0.1557  0.1952  0.0374
    8SAPS   O12  947   3.041   2.206  11.046  0.0501  0.5569  0.4346
    8SAPS   O11  948   3.187   2.134  10.861  0.4126 -0.0112 -0.2890
    8SAPS    C1  949   3.109   2.027  10.819 -0.1212 -0.4429 -0.2951
    8SAPS    HA  950   3.113   1.943  10.892  0.3927 -1.1027 -1.0677
    8SAPS    HB  951   3.001   2.053  10.808 -0.1430 -0.8903 -1.2781
    8SAPS    C2  952   3.158   1.963  10.685  0.4276  0.2937  0.3645
    8SAPS    HS  953   3.263   1.927  10.694  0.6638  0.0250 -2.4422
    8SAPS   O21  954   3.140   2.064  10.582  0.2143 -0.1396 -0.2825
    8SAPS   C21  955   3.221   2.044  10.476  0.0037  0.3000 -0.4376
    8SAPS   O22  956   3.302   1.950  10.471  0.2643  0.2012  0.7087
    8SAPS   C22  957   3.185   2.149  10.375  0.5661 -0.2207 -0.6578
    8SAPS   H2R  958   3.122   2.224  10.427  1.2036 -1.0503  1.4309
    8SAPS   H2S  959   3.285   2.196  10.362  1.2180 -0.5629  2.3788
    8SAPS    C3  960   3.075   1.833  10.654  0.3398  0.7981  0.3048
    8SAPS    HX  961   3.072   1.770  10.746 -0.2172  0.0624 -0.2030
    8SAPS    HY  962   3.141   1.774  10.586  0.3505 -0.6742  1.5285
    8SAPS   O31  963   2.940   1.864  10.599  0.3572 -0.5537 -0.3985
    8SAPS   C31  964   2.901   1.784  10.504  0.1885  0.8239 -0.0538
    8SAPS   O32  965   2.954   1.678  10.478 -0.0495  0.4523 -0.2054
    8SAPS   C32  966   2.764   1.835  10.447 -0.1640  0.6642 -0.1406
    8SAPS   H2X  967   2.769   1.946  10.438  0.9619  0.4686 -3.0157
    8SAPS   H2Y  968   2.690   1.806  10.525  0.2996 -1.5538 -0.4487
    8SAPS   C23  969   3.112   2.109  10.245  0.1549  0.1667 -0.3047
    8SAPS   H3R  970   3.095   2.196  10.178 -0.4461  1.7924  1.8780
    8SAPS   H3S  971   3.013   2.064  10.266 -0.1668  0.3432 -1.3617
    8SAPS   C24  972   3.195   2.004  10.170  0.0337 -0.0517 -0.2463
    8SAPS   H4R  973   3.216   1.920  10.240  0.7353 -1.4118 -2.0231
    8SAPS   H4S  974   3.298   2.041  10.150  0.5727 -1.3748 -0.0432
    8SAPS   C25  975   3.134   1.965  10.046  0.0493 -0.1717  0.3842
    8SAPS   H5R  976   3.058   1.886  10.060 -0.2645  0.1548  0.5412
    8SAPS   C26  977   3.145   2.017   9.927  0.0415  0.0383  0.0835
    8SAPS   H6R  978   3.086   1.979   9.842  0.2735 -0.5277  0.1674
    8SAPS   C27  979   3.235   2.127   9.889  0.0016  0.2450 -0.7772
    8SAPS   H7R  980   3.318   2.086   9.828 -1.9177 -1.8303 -2.1824
    8SAPS   H7S  981   3.282   2.158   9.985 -1.1683 -1.6595  0.4924
    8SAPS   C28  982   3.166   2.251   9.837 -0.6530  0.8893 -0.8319
    8SAPS   H8R  983   3.125   2.321   9.911  0.1686  1.3356 -0.7856
    8SAPS   C29  984   3.138   2.276   9.708  0.1991  0.8499  0.5014
    8SAPS   H9R  985   3.092   2.367   9.668  3.6868  2.3897 -0.3680
    8SAPS  C210  986   3.179   2.176   9.608  0.0593  0.7426 -0.2767
    8SAPS  H10R  987   3.102   2.167   9.529  1.5025 -1.9737 -1.5261
    8SAPS  H10S  988   3.177   2.071   9.644  1.0982  0.1305 -1.8960
    8SAPS  C211  989   3.310   2.203   9.545 -0.8091 -0.1476  0.1761
    8SAPS  H11R  990   3.394   2.239   9.607  0.2835  1.5271 -2.1207
    8SAPS  C212  991   3.344   2.192   9.417  0.6305 -0.5050  0.0352
    8SAPS  H12R  992   3.448   2.217   9.391  0.6668 -0.7733 -0.0798
    8SAPS  C213  993   3.249   2.156   9.303 -0.2653  0.4442 -0.5918
    8SAPS  H13R  994   3.162   2.109   9.353 -0.9867  2.4111  0.0976
    8SAPS  H13S  995   3.282   2.077   9.232 -0.7647 -0.2318 -0.0718
    8SAPS  C214  996   3.197   2.274   9.230  0.4694 -0.2477  0.8190
    8SAPS  H14R  997   3.144   2.352   9.285  0.7474  0.0050  0.7294
    8SAPS  C215  998   3.225   2.291   9.097  0.3099  0.0302  0.4504
    8SAPS  H15R  999   3.189   2.381   9.045  1.9103 -0.5265 -1.7685
    8SAPS  C216 1000   3.299   2.203   8.998 -0.8954 -1.2047  0.5491
    8SAPS  H16R 1001   3.273   2.098   9.021 -0.6334 -1.2362  0.7025
    8SAPS  H16S 1002   3.406   2.229   9.014 -1.3460  0.9329  0.4969
    8SAPS  C217 1003   3.262   2.222   8.841  0.1541 -0.3477  0.5733
    8SAPS  H17R 1004   3.302   2.131   8.791 -1.5523  0.5093 -2.6678
    8SAPS  H17S 1005   3.319   2.309   8.801 -0.6228  0.2547  0.7435
    8SAPS  C218 1006   3.118   2.221   8.804  0.1315  0.3214  0.8617
    8SAPS  H18R 1007   3.069   2.310   8.848  0.2179  0.4918  0.6132
    8SAPS  H18S 1008   3.068   2.130   8.843  1.9774 -0.7080  0.9377
    8SAPS  C219 1009   3.075   2.224   8.654  1.3638 -0.4156 -0.3682
    8SAPS  H19R 1010   2.964   2.234   8.652  1.4153  0.1794 -0.3133
    8SAPS  H19S 1011   3.091   2.123   8.611  0.8130 -0.8786  0.4869
    8SAPS  C220 1012   3.132   2.317   8.555 -0.2960 -0.0705 -0.2039
    8SAPS  H20R 1013   3.104   2.420   8.586 -0.0872 -0.8124  2.7924
    8SAPS  H20S 1014   3.089   2.292   8.456 -1.2466  0.8321 -0.0416
    8SAPS  H20T 1015   3.242   2.308   8.549  0.0306  2.7404  0.2441
    8SAPS   C33 1016   2.726   1.781  10.302 -0.6329 -0.5620  0.5100
    8SAPS   H3X 1017   2.618   1.804  10.289 -0.8281 -0.9819  1.3716
    8SAPS   H3Y 1018   2.745   1.672  10.290 -1.5994 -0.5658 -1.6660
    8SAPS   C34 1019   2.812   1.854  10.194  0.4857 -0.3722  0.1779
    8SAPS   H4X 1020   2.916   1.819  10.212  0.3935 -1.3471 -1.0397
    8SAPS   H4Y 1021   2.804   1.963  10.212 -1.0205 -0.2628 -0.9802
    8SAPS   C35 1022   2.772   1.825  10.051 -0.1688  0.1971 -0.0705
    8SAPS   H5X 1023   2.838   1.899  10.002 -0.0118  2.0932  2.7217
    8SAPS   H5Y 1024   2.670   1.856  10.018  0.4839  3.9104  0.9109
    8SAPS   C36 1025   2.802   1.686  10.008  0.0819  0.7039  0.3519
    8SAPS   H6X 1026   2.771   1.606  10.079  0.9477  1.5898  1.7875
    8SAPS   H6Y 1027   2.910   1.680  10.031  0.3621 -0.2703 -1.0940
    8SAPS   C37 1028   2.786   1.667   9.855  0.8458  0.2842 -0.5571
    8SAPS   H7X 1029   2.682   1.692   9.825  0.7796  1.5078  0.5850
    8SAPS   H7Y 1030   2.801   1.562   9.823 -0.6170 -0.8168  2.0582
    8SAPS   C38 1031   2.877   1.758   9.769 -0.7173 -0.0640 -0.3692
    8SAPS   H8X 1032   2.977   1.745   9.814 -1.9000  0.6520  2.6914
    8SAPS   H8Y 1033   2.846   1.864   9.780 -1.6548 -0.4203  0.6170
    8SAPS   C39 1034   2.874   1.720   9.625  0.6008 -0.1612 -0.1008
    8SAPS   H9X 1035   2.770   1.724   9.584  0.2968 -1.4655  0.4611
    8SAPS   H9Y 1036   2.900   1.612   9.617  0.8016 -0.2585  1.5295
    8SAPS  C310 1037   2.970   1.803   9.536  0.3442  0.1075  0.0420
    8SAPS  H10X 1038   3.067   1.798   9.589  1.6800 -0.1526 -2.2734
    8SAPS  H10Y 1039   2.927   1.905   9.542  1.3595  0.4730  3.5168
    8SAPS  C311 1040   2.970   1.736   9.399  0.5254 -0.2966  0.1694
    8SAPS  H11X 1041   2.871   1.746   9.348 -0.3432 -1.5203  1.5179
    8SAPS  H11Y 1042   2.987   1.628   9.416  0.0990 -0.3451  0.3110
    8SAPS  C312 1043   3.076   1.790   9.311  0.2804 -0.3909 -0.0375
    8SAPS  H12X 1044   3.168   1.793   9.373  0.2350 -3.1549  0.3176
    8SAPS  H12Y 1045   3.048   1.890   9.273  1.2240 -0.1337 -0.0865
    8SAPS  C313 1046   3.103   1.692   9.189 -0.1623 -0.0840  0.1493
    8SAPS  H13X 1047   3.031   1.608   9.181 -0.1780 -0.2491  1.6620
    8SAPS  H13Y 1048   3.207   1.653   9.188  0.0582  0.4108 -2.4052
    8SAPS  C314 1049   3.077   1.772   9.053 -0.1804  0.2136  0.3775
    8SAPS  H14X 1050   3.140   1.863   9.052 -1.1403  0.9565  2.3158
    8SAPS  H14Y 1051   2.972   1.809   9.057 -0.5301 -0.6933 -0.1734
    8SAPS  C315 1052   3.081   1.685   8.929 -0.4406 -0.4163  0.1224
    8SAPS  H15X 1053   3.015   1.597   8.937 -1.0784  0.0667  0.2669
    8SAPS  H15Y 1054   3.186   1.653   8.916 -0.8476 -1.8000  0.0844
    8SAPS  C316 1055   3.045   1.771   8.805 -0.5291 -0.2986  0.2982
    8SAPS  H16X 1056   3.085   1.720   8.715  1.4746 -0.1611  1.0456
    8SAPS  H16Y 1057   3.087   1.873   8.816 -3.7158  1.1607 -0.0480
    8SAPS  C317 1058   2.895   1.801   8.794 -0.5271 -0.2072  0.1411
    8SAPS  H17X 1059   2.891   1.866   8.704 -0.1536  1.4137  1.2421
    8SAPS  H17Y 1060   2.855   1.862   8.879 -0.3100  0.7969 -0.4587
    8SAPS  C318 1061   2.806   1.684   8.774  0.1622  0.3053 -0.3197
    8SAPS  H18X 1062   2.765   1.635   8.865  1.7264 -0.2004  0.1359
    8SAPS  H18Y 1063   2.858   1.605   8.717  0.1424 -1.0184  1.4064
    8SAPS  H18Z 1064   2.713   1.711   8.720 -0.3202 -0.3625  0.1563
    9SAPS     N 1065   4.272   2.293   6.150  0.4772  0.2398 -0.4977
    9SAPS   HN1 1066   4.180   2.314   6.192 -0.5417 -1.3070 -1.8521
    9SAPS   HN2 1067   4.282   2.350   6.063 -0.7133  0.0625 -0.7604
    9SAPS   HN3 1068   4.287   2.193   6.125  2.7964  0.6822 -1.1850
    9SAPS   C12 1069   4.380   2.322   6.250  0.6268  0.8094  0.4146
    9SAPS  H12A 1070   4.365   2.261   6.338 -0.5433 -2.2810 -1.7799
    9SAPS   C13 1071   4.523   2.287   6.193  0.5801  0.2380  0.0430
    9SAPS  O13A 1072   4.521   2.220   6.084 -0.5071 -0.3007  0.1878
    9SAPS  O13B 1073   4.625   2.329   6.247 -0.7274  0.3560  0.1613
    9SAPS   C11 1074   4.377   2.470   6.279 -0.3223 -0.5328  0.1700
    9SAPS  H11A 1075   4.408   2.518   6.184 -2.7785 -0.0106 -0.4251
    9SAPS  H11B 1076   4.448   2.489   6.362  0.3208  0.7524 -0.6384
    9SAPS     P 1077   4.219   2.625   6.418  0.2115  0.1784 -0.3706
    9SAPS   O13 1078   4.317   2.731   6.391  0.7057 -0.0099  0.2369
    9SAPS   O14 1079   4.073   2.657   6.429 -0.3597  0.2735 -0.6102
    9SAPS   O12 1080   4.246   2.513   6.313 -0.5785  0.6916  0.0311
    9SAPS   O11 1081   4.254   2.547   6.555 -0.3642  0.0043  0.0154
    9SAPS    C1 1082   4.189   2.423   6.581  0.6006  0.0581 -0.5489
    9SAPS    HA 1083   4.079   2.433   6.585  0.7024  0.8155  0.9341
    9SAPS    HB 1084   4.220   2.355   6.498  1.3711  0.0950 -0.3018
    9SAPS    C2 1085   4.236   2.352   6.711  0.5052  0.2067 -0.2845
    9SAPS    HS 1086   4.188   2.252   6.714 -0.8617  0.8176 -1.0421
    9SAPS   O21 1087   4.204   2.426   6.834  0.4980 -0.1356  0.3797
    9SAPS   C21 1088   4.073   2.458   6.848  0.1908 -0.2287  0.8718
    9SAPS   O22 1089   3.979   2.396   6.791 -0.0478  0.1177 -0.2761
    9SAPS   C22 1090   4.055   2.566   6.943  0.7563 -0.8320 -0.8589
    9SAPS   H2R 1091   4.152   2.602   6.985 -1.6744  1.0206  3.9502
    9SAPS   H2S 1092   3.995   2.647   6.896 -1.0312 -1.3365  0.4317
    9SAPS    C3 1093   4.390   2.334   6.710 -0.2275  0.2362 -0.1660
    9SAPS    HX 1094   4.432   2.436   6.710  1.2297 -0.2933  1.8003
    9SAPS    HY 1095   4.415   2.283   6.615 -1.6912 -1.5440  0.3270
    9SAPS   O31 1096   4.443   2.274   6.827 -0.2981 -0.2038 -0.4963
    9SAPS   C31 1097   4.416   2.150   6.837 -0.0861  0.4628 -0.6084
    9SAPS   O32 1098   4.357   2.077   6.759 -0.3908  0.6094  0.5452
    9SAPS   C32 1099   4.464   2.091   6.969 -0.0405 -0.3838 -0.0138
    9SAPS   H2X 1100   4.567   2.122   6.995  0.3956 -0.9509 -1.0051
    9SAPS   H2Y 1101   4.465   1.981   6.955  0.5050 -0.9796  3.7465
    9SAPS   C23 1102   3.979   2.528   7.072 -0.1456 -0.4326 -0.0535
    9SAPS   H3R 1103   4.036   2.449   7.127  0.0315  1.4887  2.7205
    9SAPS   H3S 1104   3.881   2.480   7.050 -0.3759 -0.8595  1.7306
    9SAPS   C24 1105   3.958   2.658   7.144  0.6580  0.3424 -0.3368
    9SAPS   H4R 1106   3.862   2.635   7.195  0.3476  1.1019 -0.5725
    9SAPS   H4S 1107   3.934   2.738   7.071 -0.3811 -0.4943 -0.9557
    9SAPS   C25 1108   4.065   2.693   7.240 -1.1049  0.0709 -0.4972
    9SAPS   H5R 1109   4.146   2.758   7.204 -0.5197  0.8369  1.9680
    9SAPS   C26 1110   4.078   2.658   7.369  1.3632  0.0147 -0.1396
    9SAPS   H6R 1111   4.164   2.673   7.435 -0.5894 -3.0531  3.4991
    9SAPS   C27 1112   3.970   2.575   7.441  0.1698 -0.5324 -0.4672
    9SAPS   H7R 1113   3.897   2.526   7.373 -1.8943 -0.5061  1.5917
    9SAPS   H7S 1114   3.909   2.653   7.491  3.0482  1.1058  0.7577
    9SAPS   C28 1115   4.029   2.479   7.537 -0.1063  0.8609  0.2772
    9SAPS   H8R 1116   4.070   2.388   7.490 -1.7770  1.0231 -1.6354
    9SAPS   C29 1117   4.017   2.482   7.671  0.1822 -0.2518  0.0096
    9SAPS   H9R 1118   4.076   2.407   7.726  2.6242 -0.9772 -3.2734
    9SAPS  C210 1119   3.950   2.581   7.763  0.2431 -0.0006  0.4852
    9SAPS  H10R 1120   3.882   2.522   7.828  1.4895  0.7959  2.6378
    9SAPS  H10S 1121   3.888   2.659   7.713  2.5922  2.8324  1.6396
    9SAPS  C211 1122   4.073   2.645   7.836  0.4707  0.2346  0.1465
    9SAPS  H11R 1123   4.122   2.724   7.776  2.7894 -1.1016  0.1496
    9SAPS  C212 1124   4.127   2.613   7.957 -0.2635  1.1886 -0.7856
    9SAPS  H12R 1125   4.221   2.662   7.987  0.3967 -0.5522  0.1066
    9SAPS  C213 1126   4.080   2.501   8.049 -0.8221  0.3300  0.0243
    9SAPS  H13R 1127   4.158   2.423   8.062 -1.3566 -0.1284  0.5378
    9SAPS  H13S 1128   3.993   2.442   8.013 -1.2970  1.4486 -0.6893
    9SAPS  C214 1129   4.043   2.554   8.183 -0.2017  0.2739  0.8043
    9SAPS  H14R 1130   4.028   2.663   8.176  3.0176  0.7860  0.1068
    9SAPS  C215 1131   4.035   2.479   8.296  0.2820 -0.8853  0.3744
    9SAPS  H15R 1132   4.014   2.537   8.386 -3.7759 -0.2774 -0.7648
    9SAPS  C216 1133   4.059   2.337   8.320 -0.2731  0.0791  0.3396
    9SAPS  H16R 1134   4.096   2.288   8.227  1.2053  1.4060  0.1718
    9SAPS  H16S 1135   3.964   2.287   8.348 -1.2831  2.3172  1.1648
    9SAPS  C217 1136   4.170   2.305   8.425 -0.9090  0.5137  0.0132
    9SAPS  H17R 1137   4.149   2.360   8.520 -3.5003  2.8741 -1.7596
    9SAPS  H17S 1138   4.267   2.345   8.388 -0.2762  1.1440  2.1871
    9SAPS  C218 1139   4.183   2.154   8.457 -0.2971  0.1755  0.6535
    9SAPS  H18R 1140   4.187   2.091   8.366 -2.2163  1.6462 -0.5223
    9SAPS  H18S 1141   4.092   2.124   8.514  0.3101 -1.4977  0.8091
    9SAPS  C219 1142   4.300   2.114   8.544 -0.0560  0.0202 -0.7787
    9SAPS  H19R 1143   4.299   2.158   8.646 -2.4685 -0.2135 -0.6312
    9SAPS  H19S 1144   4.383   2.162   8.488  1.9060 -1.2482  0.9258
    9SAPS  C220 1145   4.341   1.963   8.567  0.7464  0.4311 -0.0078
    9SAPS  H20R 1146   4.364   1.912   8.471  0.4775 -1.4761  0.8964
    9SAPS  H20S 1147   4.253   1.908   8.605  1.2426 -0.8177 -0.6108
    9SAPS  H20T 1148   4.415   1.939   8.646 -0.0137 -1.1207  0.2751
    9SAPS   C33 1149   4.379   2.113   7.097 -0.8734 -0.4282  0.6081
    9SAPS   H3X 1150   4.280   2.064   7.082 -0.1866 -1.3619 -1.1222
    9SAPS   H3Y 1151   4.381   2.222   7.120  0.2513 -0.6557  1.6723
    9SAPS   C34 1152   4.444   2.050   7.226  0.4384 -0.1372  0.1793
    9SAPS   H4X 1153   4.527   2.112   7.268 -0.3247  1.0275  0.0242
    9SAPS   H4Y 1154   4.486   1.953   7.193  2.6241  0.7020  0.3228
    9SAPS   C35 1155   4.352   2.014   7.340 -0.0367 -0.0176  0.0547
    9SAPS   H5X 1156   4.412   1.981   7.428  1.5072 -1.4955 -1.4925
    9SAPS   H5Y 1157   4.287   1.925   7.325 -0.1347  0.2967 -1.5546
    9SAPS   C36 1158   4.267   2.137   7.381 -0.4370  0.0192 -0.3522
    9SAPS   H6X 1159   4.190   2.150   7.303 -0.7496 -1.4198 -0.3029
    9SAPS   H6Y 1160   4.328   2.230   7.389 -3.3604  2.1747 -1.3470
    9SAPS   C37 1161   4.201   2.116   7.523  0.5156 -0.1727  0.4136
    9SAPS   H7X 1162   4.170   2.010   7.539 -2.2621  0.2803 -1.3497
    9SAPS   H7Y 1163   4.109   2.177   7.526  0.5237 -0.1521  0.2620
    9SAPS   C38 1164   4.298   2.170   7.634 -0.9519 -0.1647  0.9091
    9SAPS   H8X 1165   4.308   2.280   7.619 -0.3787 -0.2628  0.5240
    9SAPS   H8Y 1166   4.396   2.119   7.620 -1.3151 -1.2817  2.2359
    9SAPS   C39 1167   4.257   2.145   7.782 -0.1705 -0.3468 -0.0081
    9SAPS   H9X 1168   4.209   2.046   7.797  2.2124 -1.7444 -1.0122
    9SAPS   H9Y 1169   4.183   2.222   7.814  1.5279  2.0668 -1.5431
    9SAPS  C310 1170   4.377   2.151   7.877 -0.3946  0.0820  0.4329
    9SAPS  H10X 1171   4.470   2.102   7.841  0.1326  0.9786  0.5544
    9SAPS  H10Y 1172   4.354   2.114   7.979  2.8848  0.3499  1.3693
    9SAPS  C311 1173   4.422   2.299   7.898 -0.1801 -0.4522  0.1723
    9SAPS  H11X 1174   4.341   2.369   7.927 -1.2531 -2.0928  1.3098
    9SAPS  H11Y 1175   4.467   2.335   7.803 -1.4193  0.4100 -0.1218
    9SAPS  C312 1176   4.533   2.316   7.996 -0.9024 -0.2220  0.1006
    9SAPS  H12X 1177   4.587   2.409   7.969 -2.8479  1.2187  0.9666
    9SAPS  H12Y 1178   4.603   2.230   7.985 -0.2247  0.3968 -0.4803
    9SAPS  C313 1179   4.493   2.326   8.142 -0.1635  0.5601  0.0767
    9SAPS  H13X 1180   4.428   2.239   8.168 -2.0474  2.1331  0.8670
    9SAPS  H13Y 1181   4.418   2.407   8.156 -0.6234  0.2613 -0.5817
    9SAPS  C314 1182   4.603   2.368   8.247 -0.0248  0.1177 -0.4915
    9SAPS  H14X 1183   4.685   2.294   8.233  1.3815  1.6901 -0.9191
    9SAPS  H14Y 1184   4.577   2.353   8.353  1.3466 -0.8477 -0.2618
    9SAPS  C315 1185   4.648   2.519   8.230 -0.9781 -0.2484 -0.5810
    9SAPS  H15X 1186   4.667   2.537   8.122 -0.4679 -0.0647 -0.4635
    9SAPS  H15Y 1187   4.741   2.531   8.289 -2.1684 -0.3750  1.4125
    9SAPS  C316 1188   4.548   2.619   8.284  0.1411  0.0146 -0.7078
    9SAPS  H16X 1189   4.526   2.601   8.391  0.3303  0.7519 -0.5373
    9SAPS  H16Y 1190   4.450   2.611   8.232 -0.6507 -0.0158  0.7458
    9SAPS  C317 1191   4.609   2.766   8.271  0.5435 -0.0131  0.7100
    9SAPS  H17X 1192   4.708   2.756   8.320  0.9728 -2.7829 -0.5359
    9SAPS  H17Y 1193   4.536   2.830   8.324  1.0865 -0.5377  2.1249
    9SAPS  C318 1194   4.623   2.816   8.128 -0.9545 -0.2724  0.3600
    9SAPS  H18X 1195   4.520   2.843   8.094 -0.6283  1.1072  0.4170
    9SAPS  H18Y 1196   4.660   2.749   8.048  0.1716  3.3610 -2.4303
    9SAPS  H18Z 1197   4.677   2.913   8.128 -2.8332  0.8445 -0.4595
   10SAPS     N 1198   4.534   6.787   6.142 -0.5024  0.3414  0.6489
   10SAPS   HN1 1199   4.607   6.857   6.115  0.1384 -0.6733 -0.3087
   10SAPS   HN2 1200   4.438   6.827   6.146 -0.4013  0.6026  0.5196
   10SAPS   HN3 1201   4.550   6.750   6.238 -2.1340 -1.7717  0.1657
   10SAPS   C12 1202   4.535   6.664   6.060 -0.5500 -0.1967  0.3897
   10SAPS  H12A 1203   4.453   6.600   6.089 -0.2242  0.1835  2.2650
   10SAPS   C13 1204   4.519   6.691   5.902  0.1172  0.2838 -0.4333
   10SAPS  O13A 1205   4.513   6.809   5.869 -0.0731 -0.0640  0.7726
   10SAPS  O13B 1206   4.485   6.600   5.830 -0.0655 -0.4176  0.8927
   10SAPS   C11 1207   4.671   6.607   6.079 -0.2422  0.2848 -0.0137
   10SAPS  H11A 1208   4.753   6.680   6.067 -0.1504  0.6918  2.4614
   10SAPS  H11B 1209   4.681   6.514   6.019  1.9276 -0.6632  1.6750
   10SAPS     P 1210   4.814   6.505   6.271  0.8764 -0.0612 -0.3359
   10SAPS   O13 1211   4.881   6.427   6.168 -0.2785 -0.4215 -0.4609
   10SAPS   O14 1212   4.886   6.619   6.319 -0.3880 -0.2279  0.1096
   10SAPS   O12 1213   4.676   6.562   6.214  0.0735 -0.0175 -0.3988
   10SAPS   O11 1214   4.776   6.409   6.387  0.1729 -0.0221 -0.0510
   10SAPS    C1 1215   4.649   6.392   6.448  0.4229 -0.3394 -0.7910
   10SAPS    HA 1216   4.575   6.462   6.403 -0.1913 -0.5637 -0.1598
   10SAPS    HB 1217   4.616   6.286   6.437  2.0263 -0.7392 -2.1532
   10SAPS    C2 1218   4.648   6.413   6.605 -0.2197 -0.4511 -0.6145
   10SAPS    HS 1219   4.710   6.500   6.636  0.6416 -0.5294 -2.0400
   10SAPS   O21 1220   4.693   6.288   6.660  0.1717  0.2574 -0.5377
   10SAPS   C21 1221   4.822   6.276   6.661  0.4512 -0.0632  0.2310
   10SAPS   O22 1222   4.908   6.362   6.643  0.2679 -0.0045  0.3732
   10SAPS   C22 1223   4.856   6.129   6.691  0.8866 -0.8985 -0.9171
   10SAPS   H2R 1224   4.782   6.064   6.639  0.2069  0.4052 -1.6036
   10SAPS   H2S 1225   4.964   6.122   6.663  2.0382  0.5769  2.5777
   10SAPS    C3 1226   4.502   6.444   6.651  0.7934 -0.9270  0.0674
   10SAPS    HX 1227   4.428   6.388   6.590 -0.6320  1.9571 -1.0070
   10SAPS    HY 1228   4.469   6.547   6.627 -0.6180 -1.2243  0.6580
   10SAPS   O31 1229   4.489   6.422   6.792  0.1372 -0.3729  0.5996
   10SAPS   C31 1230   4.448   6.297   6.830 -0.7798  0.0012  0.0182
   10SAPS   O32 1231   4.448   6.207   6.753  0.3536 -0.2299  0.4647
   10SAPS   C32 1232   4.415   6.293   6.979 -0.2079  0.1548  0.0358
   10SAPS   H2X 1233   4.328   6.356   7.007 -1.3944 -1.8996  1.2585
   10SAPS   H2Y 1234   4.505   6.342   7.020  0.5167 -1.6945  0.7793
   10SAPS   C23 1235   4.836   6.099   6.850 -0.2145 -0.1694  0.1989
   10SAPS   H3R 1236   4.853   5.991   6.867  0.1096 -0.3509 -1.1152
   10SAPS   H3S 1237   4.729   6.120   6.872 -1.0192 -3.1430 -0.4133
   10SAPS   C24 1238   4.925   6.178   6.952  0.7556 -0.4760 -0.0797
   10SAPS   H4R 1239   4.865   6.173   7.046  0.3742  1.6790 -0.1551
   10SAPS   H4S 1240   4.923   6.287   6.929  1.2416 -0.0937  1.5735
   10SAPS   C25 1241   5.063   6.127   6.958 -0.0929  0.4342 -0.5330
   10SAPS   H5R 1242   5.114   6.140   6.861 -1.2866 -0.3005 -1.2929
   10SAPS   C26 1243   5.123   6.072   7.068 -0.5521  0.0589 -0.0519
   10SAPS   H6R 1244   5.229   6.041   7.066 -1.0621 -1.8867  0.5065
   10SAPS   C27 1245   5.045   6.051   7.198 -0.9562  0.2671 -0.0432
   10SAPS   H7R 1246   4.945   6.007   7.177 -1.2502  1.0543 -0.3371
   10SAPS   H7S 1247   5.024   6.145   7.254 -0.6581  0.4580 -0.2490
   10SAPS   C28 1248   5.113   5.950   7.290 -0.5103  0.0916  0.1250
   10SAPS   H8R 1249   5.094   5.845   7.263  1.7429  0.0542 -1.5892
   10SAPS   C29 1250   5.178   5.979   7.408 -0.4789  0.1363 -0.6650
   10SAPS   H9R 1251   5.231   5.901   7.464 -0.8988  1.9584  2.5151
   10SAPS  C210 1252   5.191   6.117   7.476  0.2587 -0.1905 -0.4913
   10SAPS  H10R 1253   5.195   6.192   7.394 -1.4304 -1.8752 -2.2486
   10SAPS  H10S 1254   5.285   6.123   7.535 -1.5071  2.6546  2.3579
   10SAPS  C211 1255   5.078   6.154   7.568 -0.1626  0.0484 -0.6243
   10SAPS  H11R 1256   4.979   6.131   7.524 -1.2286  1.3849  0.9705
   10SAPS  C212 1257   5.092   6.191   7.690 -0.4540  0.0641  0.5715
   10SAPS  H12R 1258   5.004   6.226   7.747 -2.1413 -3.4661  0.3726
   10SAPS  C213 1259   5.219   6.216   7.773  0.0457 -0.7138 -0.1196
   10SAPS  H13R 1260   5.312   6.178   7.725  1.1843 -0.0825  1.4892
   10SAPS  H13S 1261   5.208   6.171   7.873  0.8367 -2.4613 -0.7841
   10SAPS  C214 1262   5.248   6.357   7.811 -0.5624 -1.2709 -0.5298
   10SAPS  H14R 1263   5.182   6.437   7.775 -0.4841 -0.4866  0.9878
   10SAPS  C215 1264   5.343   6.393   7.905 -0.4422  0.3425  0.4541
   10SAPS  H15R 1265   5.378   6.497   7.898 -1.6658  0.6906 -1.1221
   10SAPS  C216 1266   5.437   6.294   7.975  0.2658 -0.1183 -0.6646
   10SAPS  H16R 1267   5.535   6.304   7.923 -0.6404 -0.1537 -2.4379
   10SAPS  H16S 1268   5.405   6.189   7.962 -0.2095 -0.2928  1.5221
   10SAPS  C217 1269   5.435   6.322   8.130 -0.0168  0.6229  0.7648
   10SAPS  H17R 1270   5.449   6.432   8.138 -3.0838  1.2013 -0.5045
   10SAPS  H17S 1271   5.528   6.281   8.176  1.8686  1.3423 -2.0616
   10SAPS  C218 1272   5.307   6.274   8.196  0.6176 -0.2887  0.2342
   10SAPS  H18R 1273   5.252   6.202   8.132  0.2952 -1.2495  1.5309
   10SAPS  H18S 1274   5.244   6.361   8.224  0.0568 -1.2793  2.2220
   10SAPS  C219 1275   5.325   6.203   8.324 -0.3396 -0.3841 -0.1087
   10SAPS  H19R 1276   5.414   6.136   8.316  2.5608  3.1804 -0.6093
   10SAPS  H19S 1277   5.227   6.155   8.343 -0.0737 -0.6420  0.6734
   10SAPS  C220 1278   5.350   6.302   8.437 -0.2858  0.0849 -0.4128
   10SAPS  H20R 1279   5.445   6.358   8.421  0.6706 -0.9323  1.4081
   10SAPS  H20S 1280   5.357   6.256   8.538  0.6538 -0.8522 -0.8959
   10SAPS  H20T 1281   5.273   6.382   8.445 -0.6487 -0.0567 -2.1361
   10SAPS   C33 1282   4.401   6.149   7.030 -0.5252 -0.0254  0.3401
   10SAPS   H3X 1283   4.490   6.092   6.997 -1.1653 -1.2290  0.6299
   10SAPS   H3Y 1284   4.316   6.112   6.968  0.4434 -2.4215  0.3495
   10SAPS   C34 1285   4.373   6.140   7.176  0.8895 -0.0387  0.4732
   10SAPS   H4X 1286   4.329   6.041   7.198  2.0131 -0.1619  2.4443
   10SAPS   H4Y 1287   4.289   6.210   7.197  1.3658  0.6648  0.0984
   10SAPS   C35 1288   4.485   6.174   7.271  0.1105  0.0948  0.2881
   10SAPS   H5X 1289   4.432   6.169   7.368  0.1323 -1.2957  0.2450
   10SAPS   H5Y 1290   4.533   6.273   7.257 -0.1956  0.2112  0.0420
   10SAPS   C36 1291   4.587   6.061   7.284 -0.8939 -0.4197 -0.5209
   10SAPS   H6X 1292   4.622   6.037   7.181  0.3141  0.1800 -0.2623
   10SAPS   H6Y 1293   4.545   5.981   7.349  1.6534 -2.1499 -0.8469
   10SAPS   C37 1294   4.709   6.121   7.361  0.7488 -0.4988 -0.0241
   10SAPS   H7X 1295   4.761   6.203   7.306  1.2763  1.4928  3.1674
   10SAPS   H7Y 1296   4.781   6.039   7.378  0.3129 -1.5437 -2.7157
   10SAPS   C38 1297   4.665   6.188   7.498 -1.0825 -0.3579  0.4826
   10SAPS   H8X 1298   4.592   6.271   7.485  3.0759  3.7291  0.4203
   10SAPS   H8Y 1299   4.754   6.240   7.540  0.5536 -3.1024  0.6129
   10SAPS   C39 1300   4.616   6.091   7.602  0.4158  0.3666  0.6087
   10SAPS   H9X 1301   4.525   6.046   7.557 -1.7566  3.8985  1.0907
   10SAPS   H9Y 1302   4.590   6.153   7.690 -0.4921 -0.9535  1.3086
   10SAPS  C310 1303   4.715   5.994   7.648  0.6023 -0.0261  0.0123
   10SAPS  H10X 1304   4.816   6.037   7.632 -0.2451  1.4640 -1.6356
   10SAPS  H10Y 1305   4.713   5.903   7.585  0.4686  1.0257 -1.5450
   10SAPS  C311 1306   4.695   5.952   7.798  0.2203 -0.4862 -0.3334
   10SAPS  H11X 1307   4.637   5.857   7.811  1.0487 -1.0329 -0.5480
   10SAPS  H11Y 1308   4.625   6.024   7.845  1.6714 -0.2703  1.6120
   10SAPS  C312 1309   4.825   5.924   7.881 -0.4637 -0.2818  0.1246
   10SAPS  H12X 1310   4.903   5.998   7.854 -2.1809  0.5581 -2.9195
   10SAPS  H12Y 1311   4.872   5.829   7.848 -2.6561 -1.2053 -0.5124
   10SAPS  C313 1312   4.798   5.915   8.027 -0.4333 -0.0667  0.0454
   10SAPS  H13X 1313   4.701   5.862   8.042 -0.3289 -0.3316 -0.1984
   10SAPS  H13Y 1314   4.784   6.016   8.072  1.0124  0.5014 -0.7250
   10SAPS  C314 1315   4.920   5.867   8.103  0.6234 -0.1901 -0.2481
   10SAPS  H14X 1316   5.008   5.931   8.082  0.1623 -0.4081 -3.2498
   10SAPS  H14Y 1317   4.937   5.763   8.066 -2.6057 -0.2879 -1.8655
   10SAPS  C315 1318   4.912   5.868   8.256 -0.5253 -0.4605 -0.4903
   10SAPS  H15X 1319   4.915   5.976   8.283 -3.4146 -0.2023 -0.8772
   10SAPS  H15Y 1320   5.004   5.830   8.306 -1.0329  0.4242  1.1840
   10SAPS  C316 1321   4.775   5.813   8.316 -0.4011 -0.0745 -0.3728
   10SAPS  H16X 1322   4.746   5.720   8.264 -0.4425 -0.9689  1.1839
   10SAPS  H16Y 1323   4.699   5.889   8.286  0.2324  0.4598 -0.6585
   10SAPS  C317 1324   4.773   5.790   8.468  0.3021 -0.7530 -0.3929
   10SAPS  H17X 1325   4.673   5.769   8.513  0.4761 -1.4379 -0.3120
   10SAPS  H17Y 1326   4.808   5.880   8.523  0.9427 -1.7124  0.8134
   10SAPS  C318 1327   4.862   5.678   8.521  0.3556  0.2014 -0.5890
   10SAPS  H18X 1328   4.835   5.579   8.476 -1.1474 -0.9064  2.4407
   10SAPS  H18Y 1329   4.849   5.683   8.631  2.6677 -1.0041 -0.1969
   10SAPS  H18Z 1330   4.970   5.697   8.503  0.2315  1.0201 -0.5023
   11SAPS     N 1331   6.492   1.618   5.562  0.3380 -0.4801  0.2343
   11SAPS   HN1 1332   6.428   1.593   5.483  0.5035 -1.0112  0.2639
   11SAPS   HN2 1333   6.490   1.718   5.591 -0.4311 -0.1887 -0.7340
   11SAPS   HN3 1334   6.588   1.592   5.532  0.1262 -0.0883 -0.8486
   11SAPS   C12 1335   6.439   1.532   5.677 -0.6260  0.1303 -0.6679
   11SAPS  H12A 1336   6.402   1.598   5.755 -0.1710  0.2678 -0.5652
   11SAPS   C13 1337   6.338   1.427   5.635 -0.2828  0.6833  0.1313
   11SAPS  O13A 1338   6.319   1.399   5.511  0.0624 -0.5040  0.0443
   11SAPS  O13B 1339   6.300   1.343   5.723 -0.3005  0.6088 -0.6479
   11SAPS   C11 1340   6.573   1.467   5.729 -0.0446  0.2617 -0.2771
   11SAPS  H11A 1341   6.621   1.389   5.666  0.7753  0.6336 -0.1325
   11SAPS  H11B 1342   6.540   1.419   5.824  0.9175  1.1912  0.5601
   11SAPS     P 1343   6.765   1.545   5.887 -0.6050 -0.4839 -0.0084
   11SAPS   O13 1344   6.892   1.617   5.876 -0.5880 -0.2308 -0.0195
   11SAPS   O14 1345   6.689   1.566   6.009  0.2257  0.0662 -0.1312
   11SAPS   O12 1346   6.681   1.561   5.759  0.1175  0.1684  0.8184
   11SAPS   O11 1347   6.796   1.388   5.876 -0.0028  0.0752  0.0567
   11SAPS    C1 1348   6.734   1.295   5.966  0.7161  0.0483  0.1838
   11SAPS    HA 1349   6.623   1.303   5.968  0.5561 -0.7778 -2.3419
   11SAPS    HB 1350   6.749   1.193   5.926  2.0715  1.1817 -2.4191
   11SAPS    C2 1351   6.797   1.296   6.112  0.7091 -0.3336  0.9294
   11SAPS    HS 1352   6.766   1.390   6.163  0.4842 -0.4204  0.9530
   11SAPS   O21 1353   6.945   1.300   6.095  0.1317  0.0909 -0.0575
   11SAPS   C21 1354   7.007   1.373   6.190  0.0933  0.1225 -0.2144
   11SAPS   O22 1355   6.949   1.453   6.266 -0.1168  0.3763 -0.0249
   11SAPS   C22 1356   7.158   1.349   6.183 -0.0203 -0.0689  0.5341
   11SAPS   H2R 1357   7.191   1.321   6.081 -0.5111  1.7897 -0.1778
   11SAPS   H2S 1358   7.206   1.445   6.210  4.4461 -1.7632 -0.5166
   11SAPS    C3 1359   6.755   1.175   6.200  0.3448  0.4971  0.5879
   11SAPS    HX 1360   6.816   1.084   6.178 -1.8838 -0.8472 -0.3277
   11SAPS    HY 1361   6.651   1.152   6.169  1.2252 -0.5682 -1.8297
   11SAPS   O31 1362   6.763   1.196   6.345  0.1900  0.2456 -0.2618
   11SAPS   C31 1363   6.661   1.258   6.408  0.3686 -0.2285 -0.4728
   11SAPS   O32 1364   6.556   1.300   6.363 -0.1974 -0.3918  0.1726
   11SAPS   C32 1365   6.703   1.296   6.551  0.0372 -0.6542 -0.8264
   11SAPS   H2X 1366   6.807   1.335   6.559 -0.5228  0.5090  2.4808
   11SAPS   H2Y 1367   6.710   1.201   6.609 -2.0983 -0.9888 -1.0131
   11SAPS   C23 1368   7.221   1.233   6.275 -0.4650 -0.4457 -0.2524
   11SAPS   H3R 1369   7.326   1.232   6.238 -0.5985  1.2291 -0.7483
   11SAPS   H3S 1370   7.182   1.130   6.261 -0.4759 -0.3998 -0.5701
   11SAPS   C24 1371   7.229   1.273   6.420  0.2949  0.1843 -0.0328
   11SAPS   H4R 1372   7.261   1.379   6.434  1.3916 -0.4752  3.3559
   11SAPS   H4S 1373   7.306   1.215   6.476 -1.6842  0.0482  2.7589
   11SAPS   C25 1374   7.098   1.253   6.501  0.5618 -0.1301 -0.2596
   11SAPS   H5R 1375   7.019   1.322   6.466  0.9530  0.6742  0.4084
   11SAPS   C26 1376   7.079   1.164   6.601 -0.2333  0.3256 -1.1111
   11SAPS   H6R 1377   6.983   1.161   6.655  1.2893 -0.9827  1.6980
   11SAPS   C27 1378   7.187   1.074   6.662 -0.5768  0.2234 -0.4138
   11SAPS   H7R 1379   7.143   1.031   6.755  3.1448 -0.6406  1.1479
   11SAPS   H7S 1380   7.273   1.136   6.693 -0.3113 -0.6832  0.7654
   11SAPS   C28 1381   7.235   0.969   6.565  0.3445  0.5994  0.9720
   11SAPS   H8R 1382   7.200   0.970   6.461  1.9732  0.8904  0.4076
   11SAPS   C29 1383   7.307   0.866   6.611 -0.6569 -0.3292 -0.1145
   11SAPS   H9R 1384   7.347   0.790   6.542  0.5436  0.7882 -0.6869
   11SAPS  C210 1385   7.351   0.857   6.760  0.7448  0.5735 -0.2996
   11SAPS  H10R 1386   7.320   0.939   6.828 -0.9942 -0.0479 -0.2748
   11SAPS  H10S 1387   7.462   0.860   6.758  0.7302  3.1015 -2.2668
   11SAPS  C211 1388   7.292   0.730   6.814  0.3792 -0.4724  0.0804
   11SAPS  H11R 1389   7.263   0.656   6.738 -0.2534  0.2912 -0.4527
   11SAPS  C212 1390   7.276   0.706   6.948 -0.4316  0.5773  0.2215
   11SAPS  H12R 1391   7.217   0.618   6.978 -2.1334  1.9073  0.9364
   11SAPS  C213 1392   7.315   0.793   7.060  0.0781  0.1891  0.2920
   11SAPS  H13R 1393   7.249   0.774   7.148 -0.3967  1.7440  0.2906
   11SAPS  H13S 1394   7.293   0.898   7.034 -3.3806 -0.9605 -2.2441
   11SAPS  C214 1395   7.463   0.773   7.089  0.9039  0.9335  0.1962
   11SAPS  H14R 1396   7.534   0.774   7.005  0.3514  1.2127 -0.2774
   11SAPS  C215 1397   7.517   0.753   7.210 -0.1072  0.5910 -0.4731
   11SAPS  H15R 1398   7.627   0.743   7.220 -0.3607 -1.3872  0.9909
   11SAPS  C216 1399   7.444   0.736   7.345 -0.3871  0.9542 -0.0035
   11SAPS  H16R 1400   7.437   0.628   7.371 -0.8219  1.0671  0.3377
   11SAPS  H16S 1401   7.342   0.777   7.330  0.1706  2.2697 -0.2980
   11SAPS  C217 1402   7.510   0.810   7.461 -0.9196  0.3759 -0.2279
   11SAPS  H17R 1403   7.559   0.907   7.437  1.3692 -0.8069 -0.5930
   11SAPS  H17S 1404   7.596   0.750   7.497  0.2432  0.9035 -2.0179
   11SAPS  C218 1405   7.419   0.826   7.573 -0.3542 -0.0491 -0.1796
   11SAPS  H18R 1406   7.357   0.733   7.580  1.9147 -1.6577 -0.2368
   11SAPS  H18S 1407   7.341   0.903   7.557  1.2463  1.3334 -1.7431
   11SAPS  C219 1408   7.499   0.856   7.706  0.1914  0.1022 -0.4632
   11SAPS  H19R 1409   7.584   0.924   7.683  1.0425 -1.5736 -2.5999
   11SAPS  H19S 1410   7.543   0.758   7.734 -1.4331 -0.2361  1.0333
   11SAPS  C220 1411   7.418   0.918   7.820  0.1689  0.3057  0.2822
   11SAPS  H20R 1412   7.500   0.949   7.888  0.6361  0.7508 -0.4658
   11SAPS  H20S 1413   7.352   0.842   7.867  0.3136  1.1773  1.9610
   11SAPS  H20T 1414   7.356   1.003   7.785 -0.9916 -1.2813 -1.7558
   11SAPS   C33 1415   6.618   1.407   6.626 -0.5608 -0.5228 -0.0627
   11SAPS   H3X 1416   6.515   1.365   6.632 -1.0812  0.6012 -0.7297
   11SAPS   H3Y 1417   6.620   1.496   6.561  1.6980 -0.3137  0.2121
   11SAPS   C34 1418   6.683   1.453   6.765  0.4703 -0.0448  0.1962
   11SAPS   H4X 1419   6.616   1.533   6.803  0.3431 -0.1569  0.2064
   11SAPS   H4Y 1420   6.778   1.501   6.734  0.3789  0.0690  0.0899
   11SAPS   C35 1421   6.700   1.347   6.872 -0.4079 -0.1542 -0.1801
   11SAPS   H5X 1422   6.777   1.279   6.829  0.9629  1.6462 -0.6722
   11SAPS   H5Y 1423   6.603   1.295   6.888  0.0266 -1.0301 -0.2796
   11SAPS   C36 1424   6.748   1.394   7.007 -0.7308 -0.2414 -0.0856
   11SAPS   H6X 1425   6.669   1.460   7.047  1.0208 -0.8418  5.1134
   11SAPS   H6Y 1426   6.850   1.437   6.997 -0.5821 -0.7626 -0.9683
   11SAPS   C37 1427   6.771   1.272   7.099 -0.5256 -0.4755 -0.0201
   11SAPS   H7X 1428   6.867   1.224   7.069  0.9144  1.6736  0.9219
   11SAPS   H7Y 1429   6.689   1.197   7.102 -0.9117 -0.0201  1.9969
   11SAPS   C38 1430   6.781   1.314   7.249 -0.2031  0.0139  0.6899
   11SAPS   H8X 1431   6.798   1.212   7.291  0.8225 -0.4750 -0.8424
   11SAPS   H8Y 1432   6.684   1.350   7.290 -0.4877 -1.0536  1.0064
   11SAPS   C39 1433   6.898   1.400   7.278 -0.6095 -0.1414 -0.0811
   11SAPS   H9X 1434   6.871   1.505   7.251  1.9357  0.9502  1.2032
   11SAPS   H9Y 1435   6.987   1.369   7.219  0.1814  0.1147  0.9393
   11SAPS  C310 1436   6.939   1.407   7.432  0.4756 -0.3484 -0.1189
   11SAPS  H10X 1437   7.045   1.442   7.433  0.6851 -0.8190  2.6192
   11SAPS  H10Y 1438   6.938   1.299   7.458 -0.9436 -0.9162 -2.2475
   11SAPS  C311 1439   6.836   1.483   7.517  0.3879  0.4011 -0.1644
   11SAPS  H11X 1440   6.744   1.422   7.527 -0.1622  1.4278  1.3794
   11SAPS  H11Y 1441   6.810   1.578   7.464  0.3983 -0.5853 -2.0031
   11SAPS  C312 1442   6.899   1.502   7.654 -0.4909 -0.0183  0.3359
   11SAPS  H12X 1443   6.837   1.574   7.711 -2.1433 -2.3520  1.6622
   11SAPS  H12Y 1444   7.002   1.542   7.642 -0.3922  0.1247  1.5289
   11SAPS  C313 1445   6.912   1.376   7.743  0.7882  0.4523  1.1437
   11SAPS  H13X 1446   6.995   1.307   7.715  1.1410  0.6043  1.7732
   11SAPS  H13Y 1447   6.823   1.312   7.731  0.6541  0.6449  1.1049
   11SAPS  C314 1448   6.936   1.402   7.886 -0.2244 -0.4004 -0.0595
   11SAPS  H14X 1449   6.845   1.448   7.930 -0.7126 -2.1842  0.8695
   11SAPS  H14Y 1450   7.022   1.472   7.893  0.0309 -0.8332  1.4996
   11SAPS  C315 1451   6.965   1.278   7.967  0.3820 -1.1178 -0.1316
   11SAPS  H15X 1452   7.072   1.248   7.965  1.2525  1.7265 -1.7978
   11SAPS  H15Y 1453   6.900   1.198   7.925  0.1935 -1.0651  0.0569
   11SAPS  C316 1454   6.928   1.300   8.118 -0.3096 -0.1627 -0.4515
   11SAPS  H16X 1455   6.817   1.307   8.119 -0.3935 -1.3652 -0.0481
   11SAPS  H16Y 1456   6.976   1.394   8.152 -1.0806 -0.1659  0.6913
   11SAPS  C317 1457   6.990   1.185   8.204 -0.0015  0.0245 -0.1513
   11SAPS  H17X 1458   7.099   1.182   8.185  0.2007  0.3906  0.8675
   11SAPS  H17Y 1459   6.951   1.095   8.153 -0.3408 -1.5327  2.6142
   11SAPS  C318 1460   6.952   1.183   8.352 -0.7689  0.5195 -0.0530
   11SAPS  H18X 1461   6.969   1.086   8.404 -0.7969  0.5173 -0.0473
   11SAPS  H18Y 1462   6.842   1.199   8.362 -1.2690 -1.2677 -1.9832
   11SAPS  H18Z 1463   7.004   1.264   8.408  1.6101 -0.6196 -0.5117
   12SAPS     N 1464   0.132   0.136   6.206 -0.2935 -0.5593  0.3659
   12SAPS   HN1 1465   0.149   0.231   6.246 -0.7627  0.2470 -1.2696
   12SAPS   HN2 1466   0.189   0.126   6.120 -0.7612 -0.8589  0.0881
   12SAPS   HN3 1467   0.032   0.132   6.177 -0.1637 -2.1700  0.0263
   12SAPS   C12 1468   0.171   0.016   6.289  0.1387 -1.0237  0.0382
   12SAPS  H12A 1469   0.117   0.030   6.382  1.7078  0.2618  0.8115
   12SAPS   C13 1470   0.123  -0.113   6.226  0.0051  0.2948 -1.0153
   12SAPS  O13A 1471   0.021  -0.109   6.148 -1.3026  0.1971  0.2661
   12SAPS  O13B 1472   0.155  -0.225   6.285  0.6033 -0.4308  0.2897
   12SAPS   C11 1473   0.325   0.020   6.322  0.3844 -0.1276  0.4115
   12SAPS  H11A 1474   0.350  -0.071   6.382 -0.8713 -1.0954 -0.4710
   12SAPS  H11B 1475   0.330   0.111   6.385 -0.6971  0.0880  0.2034
   12SAPS     P 1476   0.555   0.099   6.219  0.2638  0.2127 -0.1066
   12SAPS   O13 1477   0.651  -0.002   6.183 -0.1445  0.1466  0.3164
   12SAPS   O14 1478   0.558   0.221   6.140  0.4334 -0.2644 -0.1943
   12SAPS   O12 1479   0.410   0.036   6.208  0.7196  0.6086 -0.0173
   12SAPS   O11 1480   0.580   0.148   6.362 -1.0473 -0.3575  0.3209
   12SAPS    C1 1481   0.627   0.053   6.459 -0.5723 -0.3072  0.8456
   12SAPS    HA 1482   0.593  -0.052   6.449 -1.9658  0.2433 -0.5817
   12SAPS    HB 1483   0.738   0.044   6.451 -0.4865 -0.8799  2.3283
   12SAPS    C2 1484   0.608   0.096   6.610  0.3740 -0.4053  0.3688
   12SAPS    HS 1485   0.704   0.064   6.656 -0.4927 -2.4070  0.9153
   12SAPS   O21 1486   0.486   0.035   6.656 -0.3534  0.4103 -0.2847
   12SAPS   C21 1487   0.506  -0.089   6.704  0.2052 -0.0837  0.0118
   12SAPS   O22 1488   0.613  -0.148   6.699 -0.2918 -0.7532  0.4715
   12SAPS   C22 1489   0.377  -0.153   6.754  0.5317 -0.2750 -0.0063
   12SAPS   H2R 1490   0.300  -0.153   6.673 -0.4396  1.4761  0.8556
   12SAPS   H2S 1491   0.384  -0.263   6.763 -0.7121 -0.2693  1.5770
   12SAPS    C3 1492   0.583   0.251   6.618  0.6508  0.2910  0.3148
   12SAPS    HX 1493   0.488   0.269   6.563  0.7108 -0.9448 -0.2219
   12SAPS    HY 1494   0.663   0.304   6.562  0.5460  0.5330  0.3926
   12SAPS   O31 1495   0.586   0.306   6.755  0.0493 -0.2769 -0.1858
   12SAPS   C31 1496   0.697   0.357   6.807 -0.4186 -0.1345  0.0128
   12SAPS   O32 1497   0.801   0.383   6.743 -0.7805  0.8062  0.2104
   12SAPS   C32 1498   0.674   0.384   6.958  0.5528  0.4432 -0.0606
   12SAPS   H2X 1499   0.578   0.338   6.991  0.7675 -0.6996 -0.9565
   12SAPS   H2Y 1500   0.666   0.495   6.968  1.8747  0.5055  0.5775
   12SAPS   C23 1501   0.318  -0.099   6.890 -0.3149 -0.6183  0.2016
   12SAPS   H3R 1502   0.231  -0.162   6.917  0.2291 -1.2961  0.3990
   12SAPS   H3S 1503   0.272   0.001   6.870  2.7330  0.2154 -3.9650
   12SAPS   C24 1504   0.428  -0.099   7.002  0.0311  0.3702 -0.4698
   12SAPS   H4R 1505   0.523  -0.047   6.979  0.0462  0.2934 -0.5792
   12SAPS   H4S 1506   0.462  -0.205   7.010 -0.4671  0.2788  0.6799
   12SAPS   C25 1507   0.376  -0.053   7.133  0.1203 -0.2276  0.0530
   12SAPS   H5R 1508   0.308   0.031   7.120  0.1679  0.0609  1.5168
   12SAPS   C26 1509   0.405  -0.097   7.256 -0.1433 -0.0399  0.3560
   12SAPS   H6R 1510   0.364  -0.028   7.332 -2.4738  2.2320 -2.6979
   12SAPS   C27 1511   0.503  -0.210   7.305  0.1760 -0.8677  0.4977
   12SAPS   H7R 1512   0.542  -0.258   7.213 -0.8667 -0.1685 -0.3381
   12SAPS   H7S 1513   0.440  -0.286   7.354  0.8202  0.1220  3.0239
   12SAPS   C28 1514   0.614  -0.178   7.396 -0.0137  0.4520  0.0380
   12SAPS   H8R 1515   0.712  -0.153   7.353  0.3747 -0.3757  0.4249
   12SAPS   C29 1516   0.599  -0.167   7.528 -0.0158 -0.0980 -0.1223
   12SAPS   H9R 1517   0.686  -0.141   7.590 -0.5342 -1.5630  1.2821
   12SAPS  C210 1518   0.468  -0.190   7.608  0.0146  0.3078 -0.1739
   12SAPS  H10R 1519   0.460  -0.296   7.642  0.8475  0.7421  1.4985
   12SAPS  H10S 1520   0.379  -0.159   7.550  0.6816  2.4801 -0.1200
   12SAPS  C211 1521   0.490  -0.100   7.732 -0.0412 -1.0407  0.2000
   12SAPS  H11R 1522   0.464   0.004   7.709  0.6510 -0.7824  0.5554
   12SAPS  C212 1523   0.545  -0.122   7.854  0.6710  0.0359  0.0171
   12SAPS  H12R 1524   0.541  -0.037   7.924  0.1836 -0.7362  0.9635
   12SAPS  C213 1525   0.584  -0.252   7.914  0.5462 -0.4766 -0.1439
   12SAPS  H13R 1526   0.565  -0.331   7.839  1.7384 -0.0417 -0.9301
   12SAPS  H13S 1527   0.517  -0.290   7.994  1.2842 -2.8122 -0.5430
   12SAPS  C214 1528   0.730  -0.255   7.958 -0.0837 -0.2849 -0.6931
   12SAPS  H14R 1529   0.807  -0.263   7.880  2.3351 -0.0218  1.5381
   12SAPS  C215 1530   0.779  -0.258   8.088 -0.3326 -0.1725 -0.1100
   12SAPS  H15R 1531   0.887  -0.258   8.106  0.2614 -3.3840 -2.7049
   12SAPS  C216 1532   0.698  -0.236   8.215 -0.0861  0.1869 -0.6198
   12SAPS  H16R 1533   0.709  -0.315   8.293 -3.2984  0.5996  0.3896
   12SAPS  H16S 1534   0.593  -0.246   8.180  0.3887 -1.5173 -1.7392
   12SAPS  C217 1535   0.748  -0.107   8.288 -0.2759 -0.0662 -0.1182
   12SAPS  H17R 1536   0.671  -0.107   8.368 -3.3938  1.5883 -2.8560
   12SAPS  H17S 1537   0.733  -0.018   8.222  0.6427 -0.4631 -0.8834
   12SAPS  C218 1538   0.897  -0.112   8.344  0.2977 -0.2745 -0.1801
   12SAPS  H18R 1539   0.970  -0.119   8.261 -0.2805 -0.6881 -0.6593
   12SAPS  H18S 1540   0.913  -0.204   8.405  0.2541 -0.2695 -0.1610
   12SAPS  C219 1541   0.932   0.012   8.413 -0.2923  0.1710 -0.3864
   12SAPS  H19R 1542   1.042   0.005   8.430 -0.4260 -0.0103  0.4649
   12SAPS  H19S 1543   0.876   0.038   8.506 -0.6230 -0.6093 -0.3643
   12SAPS  C220 1544   0.907   0.143   8.332 -0.4947  0.1272  0.3709
   12SAPS  H20R 1545   0.962   0.146   8.235  0.9456  0.1690  1.1721
   12SAPS  H20S 1546   0.936   0.226   8.399  1.3330  1.7423 -2.2201
   12SAPS  H20T 1547   0.798   0.152   8.312 -1.2499 -1.9527  3.0304
   12SAPS   C33 1548   0.794   0.333   7.038 -0.2357  0.0015  0.1359
   12SAPS   H3X 1549   0.798   0.382   7.137 -1.0630 -1.5270  0.9490
   12SAPS   H3Y 1550   0.887   0.363   6.984 -0.1712  0.9329  0.7326
   12SAPS   C34 1551   0.799   0.181   7.056 -0.3322 -0.0081 -0.9772
   12SAPS   H4X 1552   0.904   0.157   7.083 -0.3947  1.0934  0.3627
   12SAPS   H4Y 1553   0.793   0.132   6.957  0.6254  1.5676 -1.8618
   12SAPS   C35 1554   0.697   0.132   7.162  0.4943  0.0045 -0.6234
   12SAPS   H5X 1555   0.718   0.024   7.179 -1.1810 -0.3026 -0.2383
   12SAPS   H5Y 1556   0.593   0.131   7.123 -0.9948 -0.2782  2.9715
   12SAPS   C36 1557   0.692   0.205   7.299  0.1028 -0.2166  0.3133
   12SAPS   H6X 1558   0.622   0.152   7.366  1.0120 -0.4094  1.1190
   12SAPS   H6Y 1559   0.662   0.312   7.289  0.7800 -0.0627 -0.1705
   12SAPS   C37 1560   0.832   0.189   7.347  0.5148 -0.1872  0.1616
   12SAPS   H7X 1561   0.896   0.247   7.277  0.7060 -1.3153 -0.6268
   12SAPS   H7Y 1562   0.864   0.083   7.346 -1.2735 -0.7631  0.8310
   12SAPS   C38 1563   0.840   0.239   7.495 -0.2436  0.2430  0.1066
   12SAPS   H8X 1564   0.792   0.339   7.493  2.9030  1.8742  0.0624
   12SAPS   H8Y 1565   0.950   0.245   7.511  0.0928  1.0571 -2.2338
   12SAPS   C39 1566   0.766   0.152   7.596 -0.0868 -0.1385  0.7145
   12SAPS   H9X 1567   0.793   0.045   7.582 -2.4020 -0.6415 -0.4215
   12SAPS   H9Y 1568   0.659   0.177   7.578 -0.3729 -0.3864  1.9735
   12SAPS  C310 1569   0.793   0.189   7.743 -0.2737  0.2583  0.4647
   12SAPS  H10X 1570   0.729   0.136   7.817 -0.8111 -0.5062 -0.5245
   12SAPS  H10Y 1571   0.759   0.294   7.747 -0.6514  0.1388  0.4463
   12SAPS  C311 1572   0.941   0.195   7.791 -0.5719  0.5022  0.0091
   12SAPS  H11X 1573   0.951   0.295   7.839 -0.0792 -1.6697  5.1104
   12SAPS  H11Y 1574   1.010   0.198   7.704  1.4773  1.2283  1.5666
   12SAPS  C312 1575   0.976   0.083   7.894 -0.3485  0.2797 -0.8482
   12SAPS  H12X 1576   1.004  -0.007   7.836 -0.4559 -1.4004  1.5821
   12SAPS  H12Y 1577   0.886   0.058   7.954  0.5373 -0.1047  0.3512
   12SAPS  C313 1578   1.088   0.133   7.985 -0.0428 -0.0353 -0.1953
   12SAPS  H13X 1579   1.057   0.211   8.058 -1.7597 -2.8429  2.3375
   12SAPS  H13Y 1580   1.163   0.172   7.913 -0.7301 -0.8384 -1.3738
   12SAPS  C314 1581   1.162   0.034   8.079 -0.1421  0.7693 -1.3205
   12SAPS  H14X 1582   1.089   0.001   8.156  0.0093  0.8698 -1.1326
   12SAPS  H14Y 1583   1.249   0.089   8.120 -0.2595 -1.3027  2.0326
   12SAPS  C315 1584   1.212  -0.094   8.017 -0.4859 -0.8923  0.4553
   12SAPS  H15X 1585   1.132  -0.159   7.974  0.4941 -0.4194 -2.2371
   12SAPS  H15Y 1586   1.270  -0.148   8.095 -0.4283  1.1945  1.9304
   12SAPS  C316 1587   1.306  -0.067   7.903  0.3359 -0.3455 -0.3567
   12SAPS  H16X 1588   1.385   0.003   7.938  0.0667 -0.6766  0.9335
   12SAPS  H16Y 1589   1.256  -0.019   7.816 -1.3977 -0.1687  0.6941
   12SAPS  C317 1590   1.359  -0.203   7.862 -0.6324 -0.0110 -1.0817
   12SAPS  H17X 1591   1.273  -0.251   7.811 -0.7120 -0.9204 -0.1268
   12SAPS  H17Y 1592   1.381  -0.263   7.953 -0.6130 -0.1522 -1.1799
   12SAPS  C318 1593   1.478  -0.205   7.759 -0.0268 -0.0876 -0.6796
   12SAPS  H18X 1594   1.440  -0.189   7.656  0.5872  0.8748 -0.7715
   12SAPS  H18Y 1595   1.530  -0.303   7.756  2.0236  0.9506 -0.8673
   12SAPS  H18Z 1596   1.547  -0.122   7.786  0.4385 -1.0121  1.1244
   13SAPS     N 1597   6.418   2.220   5.839  0.5275  0.0151  0.1585
   13SAPS   HN1 1598   6.364   2.131   5.844 -0.3126  0.4783 -0.4045
   13SAPS   HN2 1599   6.458   2.212   5.743 -0.1592 -1.6835 -0.0290
   13SAPS   HN3 1600   6.492   2.221   5.912 -0.5006  0.2190  1.2191
   13SAPS   C12 1601   6.336   2.345   5.851 -0.0059  0.2047  0.3715
   13SAPS  H12A 1602   6.398   2.425   5.815  1.6718  0.0843  2.7885
   13SAPS   C13 1603   6.202   2.345   5.773  0.0323 -0.1405 -0.6480
   13SAPS  O13A 1604   6.177   2.249   5.693  0.5939 -0.3252  0.2350
   13SAPS  O13B 1605   6.127   2.443   5.788  0.2794 -0.2524 -0.0736
   13SAPS   C11 1606   6.306   2.382   6.004  0.0009 -1.3773 -0.1750
   13SAPS  H11A 1607   6.247   2.299   6.047 -0.3884 -0.3186  1.4025
   13SAPS  H11B 1608   6.249   2.474   6.029  0.2201 -1.2616 -0.0885
   13SAPS     P 1609   6.485   2.286   6.177 -0.6898 -0.0586  0.0081
   13SAPS   O13 1610   6.517   2.167   6.094 -0.2324  0.7628  0.0496
   13SAPS   O14 1611   6.591   2.354   6.257  0.2492 -0.0848  0.0706
   13SAPS   O12 1612   6.430   2.393   6.070 -0.3331  0.5016  0.0191
   13SAPS   O11 1613   6.355   2.263   6.258  0.2779  0.0693  0.0098
   13SAPS    C1 1614   6.332   2.154   6.349 -0.1413  0.1282 -0.3051
   13SAPS    HA 1615   6.228   2.120   6.333  0.1291 -0.2504 -1.4067
   13SAPS    HB 1616   6.398   2.069   6.319 -0.3078 -0.3087  0.5534
   13SAPS    C2 1617   6.375   2.205   6.491 -0.5917  0.1954  0.0285
   13SAPS    HS 1618   6.473   2.256   6.490  0.4682 -1.7664  0.0188
   13SAPS   O21 1619   6.386   2.103   6.585  0.3304  0.2453 -0.2184
   13SAPS   C21 1620   6.499   2.029   6.562  0.1233  0.2115  0.0074
   13SAPS   O22 1621   6.581   2.034   6.470  0.0377  0.2633  0.1136
   13SAPS   C22 1622   6.495   1.922   6.673  0.3184 -0.2737  0.0602
   13SAPS   H2R 1623   6.442   1.967   6.760 -1.4510 -0.5896 -0.8096
   13SAPS   H2S 1624   6.443   1.835   6.627  1.6094 -0.0122 -1.9949
   13SAPS    C3 1625   6.272   2.311   6.554  0.0008  0.3911  0.3482
   13SAPS    HX 1626   6.174   2.261   6.547  0.2680 -0.3463  1.4588
   13SAPS    HY 1627   6.279   2.396   6.482 -0.6240 -1.2674 -1.7494
   13SAPS   O31 1628   6.314   2.348   6.688 -0.1093  0.5077 -0.0746
   13SAPS   C31 1629   6.400   2.450   6.696  0.0774  0.2275 -0.1643
   13SAPS   O32 1630   6.437   2.516   6.600  0.7154 -0.1822 -0.1635
   13SAPS   C32 1631   6.441   2.476   6.841 -0.1140 -0.1780  0.2463
   13SAPS   H2X 1632   6.367   2.448   6.919 -0.4764  0.0735 -0.0027
   13SAPS   H2Y 1633   6.461   2.585   6.846  1.7969 -0.5715  3.3933
   13SAPS   C23 1634   6.631   1.856   6.715 -0.3254  0.3918 -0.6529
   13SAPS   H3R 1635   6.673   1.798   6.630  1.0589  0.2595  0.0890
   13SAPS   H3S 1636   6.613   1.779   6.792 -0.0037  0.6309 -0.3361
   13SAPS   C24 1637   6.747   1.943   6.761  0.0973 -0.0227 -0.0370
   13SAPS   H4R 1638   6.728   1.973   6.866  1.7856  0.2725  0.2196
   13SAPS   H4S 1639   6.753   2.027   6.689  0.8886 -1.0493 -1.2292
   13SAPS   C25 1640   6.878   1.863   6.756  0.1100 -0.4833 -0.8910
   13SAPS   H5R 1641   6.912   1.856   6.652 -0.5195  3.9840 -1.6051
   13SAPS   C26 1642   6.954   1.824   6.858 -0.5162 -0.3532  0.1275
   13SAPS   H6R 1643   7.054   1.779   6.849  0.1100  0.7278  1.3162
   13SAPS   C27 1644   6.934   1.863   7.007 -1.1594  0.3575 -0.0644
   13SAPS   H7R 1645   6.886   1.963   7.008  1.2782  1.5867  0.4686
   13SAPS   H7S 1646   7.035   1.876   7.052 -1.3442  3.4454 -0.3297
   13SAPS   C28 1647   6.853   1.753   7.081 -0.1504  0.5657  0.2393
   13SAPS   H8R 1648   6.862   1.652   7.038 -0.4679  0.3769  0.6209
   13SAPS   C29 1649   6.793   1.771   7.204  0.1168 -0.4029  0.5866
   13SAPS   H9R 1650   6.731   1.691   7.248  0.9965 -1.6589 -0.3864
   13SAPS  C210 1651   6.788   1.901   7.274  0.4575 -0.2298 -0.2913
   13SAPS  H10R 1652   6.876   1.959   7.238 -0.4131  0.2353 -1.7859
   13SAPS  H10S 1653   6.800   1.885   7.383 -1.5405  1.9947  0.3522
   13SAPS  C211 1654   6.653   1.974   7.255 -0.3619 -0.6735 -0.1664
   13SAPS  H11R 1655   6.623   1.968   7.149  1.5006 -1.6870 -0.6971
   13SAPS  C212 1656   6.576   2.039   7.348 -0.4634 -0.1076  0.5346
   13SAPS  H12R 1657   6.478   2.086   7.331  1.6214  3.7505 -2.4008
   13SAPS  C213 1658   6.612   2.033   7.489 -0.0522 -0.6184 -0.6220
   13SAPS  H13R 1659   6.623   1.924   7.510 -0.2403 -1.2614 -3.5081
   13SAPS  H13S 1660   6.518   2.056   7.544 -1.7284  0.6604 -3.7716
   13SAPS  C214 1661   6.727   2.100   7.556  0.5445  0.1688  0.1624
   13SAPS  H14R 1662   6.779   2.174   7.493 -0.4829  1.1586  0.4464
   13SAPS  C215 1663   6.764   2.094   7.683 -0.0002  0.1234 -0.0673
   13SAPS  H15R 1664   6.840   2.163   7.722 -0.0860 -1.0991  2.4288
   13SAPS  C216 1665   6.717   1.997   7.789 -0.1020 -0.2671 -0.1926
   13SAPS  H16R 1666   6.791   1.918   7.812  1.1086  0.8413 -0.1379
   13SAPS  H16S 1667   6.638   1.938   7.738 -0.4463 -2.0251  2.1709
   13SAPS  C217 1668   6.675   2.060   7.921  0.4711  0.1479  0.3800
   13SAPS  H17R 1669   6.623   2.159   7.923 -0.8427 -0.5158  0.1852
   13SAPS  H17S 1670   6.761   2.094   7.982  0.0122 -0.4386  1.3649
   13SAPS  C218 1671   6.578   1.966   7.997 -0.1565  0.0858 -0.0898
   13SAPS  H18R 1672   6.639   1.880   8.031  1.5984  0.0089 -3.0092
   13SAPS  H18S 1673   6.500   1.934   7.925 -0.7073 -2.5264  1.5579
   13SAPS  C219 1674   6.536   2.044   8.118  0.0212 -0.1990  0.5876
   13SAPS  H19R 1675   6.489   2.141   8.091  0.5836  0.9032  3.2373
   13SAPS  H19S 1676   6.627   2.070   8.175  1.7597 -0.7823 -1.7825
   13SAPS  C220 1677   6.431   1.965   8.193  0.1523 -0.2601 -0.1717
   13SAPS  H20R 1678   6.408   2.015   8.289  2.1249  0.7366 -0.1801
   13SAPS  H20S 1679   6.463   1.860   8.212 -0.2849 -0.3531  0.0693
   13SAPS  H20T 1680   6.348   1.959   8.119  0.8429  0.7494 -1.0599
   13SAPS   C33 1681   6.573   2.402   6.877 -0.3065 -0.0902 -0.3900
   13SAPS   H3X 1682   6.661   2.464   6.850 -0.1191  1.9735  3.9569
   13SAPS   H3Y 1683   6.573   2.306   6.821  0.7898  0.7761 -1.9442
   13SAPS   C34 1684   6.583   2.366   7.031 -0.7251  0.3543  0.1256
   13SAPS   H4X 1685   6.678   2.313   7.054  0.2520  2.6070  1.6741
   13SAPS   H4Y 1686   6.496   2.298   7.043 -1.2410  0.6943 -1.4481
   13SAPS   C35 1687   6.582   2.481   7.130 -0.0519  0.0984 -0.2412
   13SAPS   H5X 1688   6.499   2.551   7.104 -0.3995 -0.3397 -0.3257
   13SAPS   H5Y 1689   6.678   2.536   7.122  0.2383  0.1544  2.5181
   13SAPS   C36 1690   6.542   2.440   7.275 -0.2425 -0.7613  0.3445
   13SAPS   H6X 1691   6.606   2.357   7.313  1.3937  1.1244  1.9087
   13SAPS   H6Y 1692   6.435   2.418   7.297 -0.3436  0.6755  1.4379
   13SAPS   C37 1693   6.541   2.563   7.365 -0.2843 -0.0762  0.2418
   13SAPS   H7X 1694   6.495   2.654   7.322 -0.0145 -0.0377  0.0337
   13SAPS   H7Y 1695   6.648   2.590   7.378  0.2088 -1.3835 -0.9253
   13SAPS   C38 1696   6.491   2.527   7.504  0.3430 -0.2476 -0.7409
   13SAPS   H8X 1697   6.390   2.482   7.489  1.1879 -2.0620 -1.3210
   13SAPS   H8Y 1698   6.477   2.625   7.554  1.7982 -0.0897 -0.5946
   13SAPS   C39 1699   6.575   2.443   7.590 -0.5981  0.0834 -0.3171
   13SAPS   H9X 1700   6.675   2.487   7.611 -0.9989  0.6356  0.4403
   13SAPS   H9Y 1701   6.578   2.344   7.538 -0.7715  1.1802 -2.5227
   13SAPS  C310 1702   6.526   2.415   7.738 -0.0659  0.4226  0.0791
   13SAPS  H10X 1703   6.596   2.342   7.785 -1.4224 -2.1481 -1.6296
   13SAPS  H10Y 1704   6.430   2.360   7.727  0.7159 -1.0505  0.3733
   13SAPS  C311 1705   6.520   2.541   7.828 -0.2198  0.2435  0.2032
   13SAPS  H11X 1706   6.433   2.602   7.797 -0.3703  0.6019  1.2918
   13SAPS  H11Y 1707   6.605   2.613   7.832 -0.4010  0.5310 -0.7815
   13SAPS  C312 1708   6.496   2.500   7.970 -0.3070 -0.4636 -0.3105
   13SAPS  H12X 1709   6.590   2.467   8.019 -0.2054  0.6095  0.2529
   13SAPS  H12Y 1710   6.424   2.416   7.971 -1.4719  0.4925 -0.6621
   13SAPS  C313 1711   6.431   2.609   8.071 -0.3640  0.3599 -0.1947
   13SAPS  H13X 1712   6.408   2.550   8.162 -1.6046 -1.3753 -1.5621
   13SAPS  H13Y 1713   6.340   2.652   8.024  0.6176  1.4736 -1.1431
   13SAPS  C314 1714   6.523   2.728   8.104 -0.0172 -0.1839  0.0435
   13SAPS  H14X 1715   6.542   2.792   8.014 -1.3021  1.0292  0.6042
   13SAPS  H14Y 1716   6.617   2.684   8.145  0.2471  0.2912 -0.0461
   13SAPS  C315 1717   6.472   2.824   8.217  0.0551  0.4443 -0.6325
   13SAPS  H15X 1718   6.443   2.766   8.307  0.7764  1.0433 -0.0103
   13SAPS  H15Y 1719   6.385   2.876   8.170  1.4195  1.5731 -2.0577
   13SAPS  C316 1720   6.573   2.934   8.241  0.6274 -0.0233  0.3158
   13SAPS  H16X 1721   6.604   2.985   8.148 -0.9526 -2.4960 -1.6967
   13SAPS  H16Y 1722   6.660   2.885   8.291  0.1367  0.6054  1.8417
   13SAPS  C317 1723   6.530   3.041   8.337  0.0037 -0.4133  0.3019
   13SAPS  H17X 1724   6.499   2.990   8.431  1.2479 -1.4981  0.1517
   13SAPS  H17Y 1725   6.445   3.104   8.302  1.4932  1.0722 -0.8038
   13SAPS  C318 1726   6.644   3.138   8.375  0.1776  0.2107  0.0777
   13SAPS  H18X 1727   6.742   3.091   8.353 -0.4421 -1.5030  0.7420
   13SAPS  H18Y 1728   6.644   3.148   8.486  2.1254  0.5847  0.0739
   13SAPS  H18Z 1729   6.626   3.239   8.333 -1.3055 -1.0399 -2.4641
   14SAPS     N 1730   6.249   4.829   6.111 -0.2616  0.0027 -0.1379
   14SAPS   HN1 1731   6.310   4.817   6.195  1.0550  0.8318 -0.9393
   14SAPS   HN2 1732   6.169   4.892   6.130 -0.0306  0.2563 -0.0035
   14SAPS   HN3 1733   6.209   4.736   6.086 -2.7856  1.4412 -1.8115
   14SAPS   C12 1734   6.331   4.884   5.997 -0.3730  0.2578  0.5193
   14SAPS  H12A 1735   6.384   4.970   6.035 -1.7893  1.8790 -0.9966
   14SAPS   C13 1736   6.441   4.791   5.944 -0.3119  0.7895  0.8856
   14SAPS  O13A 1737   6.429   4.665   5.966 -0.3700  0.4351  0.3563
   14SAPS  O13B 1738   6.513   4.829   5.846 -0.5440  0.1652 -1.1597
   14SAPS   C11 1739   6.229   4.915   5.885 -1.0077  0.3802  0.3359
   14SAPS  H11A 1740   6.141   4.847   5.883  0.3636 -1.5077  1.1865
   14SAPS  H11B 1741   6.279   4.894   5.788  0.4213 -0.6732  1.2614
   14SAPS     P 1742   6.084   5.134   5.952 -0.4419 -0.1562 -0.0025
   14SAPS   O13 1743   6.133   5.264   5.999  1.0552 -0.2537  0.0254
   14SAPS   O14 1744   5.961   5.124   5.865  0.3048  0.0614 -0.4667
   14SAPS   O12 1745   6.202   5.060   5.872 -0.0222 -0.3347  0.4063
   14SAPS   O11 1746   6.066   5.045   6.085  0.2920 -0.1536  0.2006
   14SAPS    C1 1747   5.950   5.047   6.168 -0.1782 -0.6572 -0.2078
   14SAPS    HA 1748   5.851   5.065   6.122 -0.3666 -0.0072  0.4326
   14SAPS    HB 1749   5.945   4.943   6.207  2.7872 -0.3827  1.1869
   14SAPS    C2 1750   5.966   5.132   6.295 -0.2123 -0.5242  0.7930
   14SAPS    HS 1751   5.955   5.238   6.266  3.2086 -0.7967 -2.3125
   14SAPS   O21 1752   6.093   5.102   6.353  0.3394  0.1822 -0.2797
   14SAPS   C21 1753   6.136   5.190   6.439 -0.7117  1.2689 -0.1633
   14SAPS   O22 1754   6.088   5.298   6.462  0.1054  0.7022  0.1870
   14SAPS   C22 1755   6.273   5.149   6.510  0.4610 -0.2170  0.0513
   14SAPS   H2R 1756   6.250   5.049   6.552 -1.1948  1.7230  4.2438
   14SAPS   H2S 1757   6.342   5.142   6.423 -0.5192 -2.5551 -0.6423
   14SAPS    C3 1758   5.854   5.097   6.398  0.0686  0.0143 -0.2692
   14SAPS    HX 1759   5.880   4.998   6.442  1.7219  1.4342  2.1895
   14SAPS    HY 1760   5.758   5.095   6.343 -0.1093 -0.7083  0.0534
   14SAPS   O31 1761   5.844   5.190   6.507 -0.6576 -0.3224 -0.1597
   14SAPS   C31 1762   5.788   5.308   6.466  0.5552 -0.9341  0.2110
   14SAPS   O32 1763   5.740   5.331   6.357  0.8411  0.1415  0.2593
   14SAPS   C32 1764   5.793   5.422   6.569  0.2967 -0.9231 -0.2259
   14SAPS   H2X 1765   5.863   5.498   6.529  0.4440 -0.5115  0.8016
   14SAPS   H2Y 1766   5.828   5.374   6.663  0.6949  0.6426  0.4435
   14SAPS   C23 1767   6.323   5.244   6.627 -0.0781 -0.2776 -0.0975
   14SAPS   H3R 1768   6.308   5.353   6.610 -0.1569 -0.2421  0.1942
   14SAPS   H3S 1769   6.429   5.218   6.648  0.0160 -1.7712 -2.0898
   14SAPS   C24 1770   6.261   5.208   6.760  0.5761 -0.2920 -0.8672
   14SAPS   H4R 1771   6.315   5.250   6.848  1.5291 -0.4425 -1.3598
   14SAPS   H4S 1772   6.272   5.099   6.779 -0.9810 -0.0848  1.5583
   14SAPS   C25 1773   6.112   5.245   6.770 -0.1361  0.5265  0.2569
   14SAPS   H5R 1774   6.033   5.199   6.708  0.4905 -2.3914  1.4631
   14SAPS   C26 1775   6.073   5.338   6.862  0.3461  0.0267 -0.0292
   14SAPS   H6R 1776   5.967   5.367   6.862  0.1478 -0.6228 -1.1347
   14SAPS   C27 1777   6.159   5.422   6.955  0.5216 -0.2308  0.4874
   14SAPS   H7R 1778   6.089   5.501   6.991 -3.7979 -3.2230 -0.5358
   14SAPS   H7S 1779   6.236   5.474   6.894  1.0337 -2.2387 -0.6507
   14SAPS   C28 1780   6.217   5.339   7.057  0.7477  0.1273 -0.6261
   14SAPS   H8R 1781   6.326   5.323   7.048  0.7370 -0.4967  0.1755
   14SAPS   C29 1782   6.157   5.279   7.164  0.2812 -0.2262 -0.4508
   14SAPS   H9R 1783   6.224   5.226   7.234 -3.2564 -1.9832  1.8741
   14SAPS  C210 1784   6.016   5.279   7.218  0.3565  0.5013 -0.3613
   14SAPS  H10R 1785   5.959   5.216   7.146 -4.3966  3.1155  0.6925
   14SAPS  H10S 1786   5.958   5.372   7.196 -0.7608 -1.0010 -5.0730
   14SAPS  C211 1787   5.978   5.219   7.351  0.1168  0.3254 -0.1241
   14SAPS  H11R 1788   5.901   5.140   7.348 -0.0467  0.5187 -1.3703
   14SAPS  C212 1789   6.042   5.246   7.467  0.5550 -0.4372 -0.6023
   14SAPS  H12R 1790   6.009   5.204   7.564  0.3151 -1.0589 -0.9476
   14SAPS  C213 1791   6.162   5.341   7.485 -0.3981 -0.0465  0.0998
   14SAPS  H13R 1792   6.142   5.432   7.547  0.8960  1.1883 -1.2078
   14SAPS  H13S 1793   6.194   5.388   7.390 -1.9519 -1.0834 -0.9766
   14SAPS  C214 1794   6.286   5.272   7.540  0.6032  0.2264  0.8932
   14SAPS  H14R 1795   6.369   5.254   7.471  1.8459  1.4901  1.9836
   14SAPS  C215 1796   6.312   5.238   7.673 -0.1832  0.6703  0.9444
   14SAPS  H15R 1797   6.408   5.191   7.698  0.2030  0.1637 -1.3071
   14SAPS  C216 1798   6.221   5.262   7.790 -0.1489  0.1221 -0.0602
   14SAPS  H16R 1799   6.148   5.179   7.797  0.1355 -0.0123  1.8860
   14SAPS  H16S 1800   6.165   5.357   7.776 -0.2990  0.0956  0.3734
   14SAPS  C217 1801   6.288   5.261   7.933 -0.4931 -0.1280 -0.1700
   14SAPS  H17R 1802   6.202   5.288   7.999 -1.2951  3.1791 -2.3390
   14SAPS  H17S 1803   6.356   5.347   7.948 -0.0802 -0.7123  1.5637
   14SAPS  C218 1804   6.353   5.133   7.998  0.2022 -0.3111  0.6198
   14SAPS  H18R 1805   6.436   5.110   7.928 -2.1350 -0.6844 -2.2478
   14SAPS  H18S 1806   6.274   5.055   7.998 -1.0226  0.8434  2.0754
   14SAPS  C219 1807   6.412   5.166   8.133 -0.0331 -0.3650 -0.3973
   14SAPS  H19R 1808   6.460   5.266   8.132 -1.2645  0.2845  0.7049
   14SAPS  H19S 1809   6.484   5.091   8.172 -1.2883 -2.2883 -1.5834
   14SAPS  C220 1810   6.303   5.188   8.246  0.0157  0.2186 -0.5200
   14SAPS  H20R 1811   6.253   5.092   8.272 -0.0611  0.5250  0.5348
   14SAPS  H20S 1812   6.226   5.260   8.211  0.7534  0.5750 -1.4411
   14SAPS  H20T 1813   6.353   5.225   8.339 -0.8918  0.8448 -0.2619
   14SAPS   C33 1814   5.654   5.492   6.587 -0.4925  0.0373 -0.0881
   14SAPS   H3X 1815   5.574   5.421   6.616 -0.4769  1.0061  2.6637
   14SAPS   H3Y 1816   5.632   5.539   6.489  2.4112  2.1309  0.1365
   14SAPS   C34 1817   5.673   5.599   6.688  0.1142  0.0311  0.9002
   14SAPS   H4X 1818   5.570   5.637   6.705 -1.0902 -2.9427  0.7226
   14SAPS   H4Y 1819   5.734   5.681   6.644 -0.9473  0.3041 -0.1195
   14SAPS   C35 1820   5.739   5.573   6.828 -0.3002  0.6127  0.1906
   14SAPS   H5X 1821   5.847   5.547   6.819 -0.3567  0.4943 -0.1480
   14SAPS   H5Y 1822   5.669   5.500   6.875 -0.3724 -1.3230 -2.6748
   14SAPS   C36 1823   5.752   5.698   6.916 -0.6664 -0.0030 -0.1119
   14SAPS   H6X 1824   5.652   5.747   6.917  0.3111  2.0836 -0.2726
   14SAPS   H6Y 1825   5.825   5.764   6.865  0.9310 -0.5361  1.4170
   14SAPS   C37 1826   5.796   5.664   7.061  0.3086 -0.2787  0.5094
   14SAPS   H7X 1827   5.888   5.601   7.063  2.5782  2.7943  1.2803
   14SAPS   H7Y 1828   5.715   5.598   7.096  0.4161 -0.7955 -0.1932
   14SAPS   C38 1829   5.793   5.793   7.147 -0.1154  0.0440 -0.3781
   14SAPS   H8X 1830   5.685   5.805   7.169 -0.0078  0.6984 -0.1978
   14SAPS   H8Y 1831   5.830   5.881   7.090 -1.7371  0.7788 -0.3499
   14SAPS   C39 1832   5.874   5.770   7.281  0.6747 -0.1722 -0.1819
   14SAPS   H9X 1833   5.842   5.668   7.313  0.9475 -0.4978 -0.9134
   14SAPS   H9Y 1834   5.857   5.838   7.366  1.1414  0.6521 -0.7397
   14SAPS  C310 1835   6.024   5.766   7.256  0.1898  0.1139  1.0012
   14SAPS  H10X 1836   6.060   5.859   7.208  0.5141 -0.3656  0.3009
   14SAPS  H10Y 1837   6.045   5.684   7.184 -0.9197  1.8113 -1.3983
   14SAPS  C311 1838   6.099   5.735   7.391 -0.2081  0.0739 -0.0102
   14SAPS  H11X 1839   6.067   5.643   7.444  1.0571  0.6056  1.7664
   14SAPS  H11Y 1840   6.081   5.825   7.453  3.8015  1.6398 -0.8139
   14SAPS  C312 1841   6.249   5.712   7.361 -0.7503 -0.1693  0.6485
   14SAPS  H12X 1842   6.284   5.803   7.307 -0.0050 -1.6611 -1.5266
   14SAPS  H12Y 1843   6.258   5.622   7.297 -2.1917 -0.4403  0.7859
   14SAPS  C313 1844   6.344   5.686   7.477  0.0331 -0.4728 -0.2671
   14SAPS  H13X 1845   6.449   5.703   7.446  0.4051  1.8584  1.9242
   14SAPS  H13Y 1846   6.328   5.579   7.501 -0.3689 -0.0386  1.5616
   14SAPS  C314 1847   6.311   5.770   7.607  0.1540 -0.1291  0.6480
   14SAPS  H14X 1848   6.205   5.765   7.638  0.6219  2.0126  2.9495
   14SAPS  H14Y 1849   6.339   5.876   7.592 -3.0475  0.5509 -1.2576
   14SAPS  C315 1850   6.386   5.727   7.734  0.7487  0.2790 -0.2419
   14SAPS  H15X 1851   6.496   5.732   7.724  0.7253 -1.0697 -1.5809
   14SAPS  H15Y 1852   6.361   5.619   7.739 -0.1052  0.4972  0.4957
   14SAPS  C316 1853   6.340   5.780   7.870  0.0020 -0.5331 -0.0662
   14SAPS  H16X 1854   6.233   5.752   7.879 -0.5584  0.4093 -2.8832
   14SAPS  H16Y 1855   6.350   5.890   7.872  0.9563 -0.5099  4.3100
   14SAPS  C317 1856   6.425   5.718   7.981 -0.5563  0.0341  0.3809
   14SAPS  H17X 1857   6.525   5.766   7.985 -0.9856  1.1407 -1.1728
   14SAPS  H17Y 1858   6.436   5.610   7.957  2.1152  0.4772 -0.6947
   14SAPS  C318 1859   6.363   5.727   8.125 -0.2108 -0.2150 -0.5526
   14SAPS  H18X 1860   6.258   5.691   8.113 -0.2800 -0.7067  1.1839
   14SAPS  H18Y 1861   6.361   5.834   8.152  1.9098 -0.5126  1.1120
   14SAPS  H18Z 1862   6.424   5.659   8.189 -0.4795  0.2020  0.1604
   15SAPS     N 1863   6.496   1.897   6.061  0.6533  0.1216  0.6235
   15SAPS   HN1 1864   6.394   1.916   6.065  0.4746  0.0800 -1.7834
   15SAPS   HN2 1865   6.506   1.833   6.141  0.7065  0.3980  0.8401
   15SAPS   HN3 1866   6.538   1.990   6.083  0.7453 -0.0750  1.2947
   15SAPS   C12 1867   6.533   1.839   5.931  0.3309  0.1911 -0.0550
   15SAPS  H12A 1868   6.520   1.732   5.935  0.0664  0.2631  1.4585
   15SAPS   C13 1869   6.433   1.893   5.828 -0.0114  0.2269  0.1246
   15SAPS  O13A 1870   6.334   1.964   5.866  0.3048  0.1084 -0.2516
   15SAPS  O13B 1871   6.446   1.858   5.704 -0.2562 -0.4096  0.4203
   15SAPS   C11 1872   6.681   1.886   5.896 -0.9242 -0.2020 -0.0358
   15SAPS  H11A 1873   6.699   1.854   5.791 -4.3822  1.5429 -1.2956
   15SAPS  H11B 1874   6.735   1.831   5.976 -0.4919  0.8673  0.4213
   15SAPS     P 1875   6.846   2.080   5.905 -0.0642  0.4174  0.2116
   15SAPS   O13 1876   6.917   2.036   5.783 -0.0457  0.0334 -0.2821
   15SAPS   O14 1877   6.848   2.223   5.931  0.3664  0.1615 -0.2695
   15SAPS   O12 1878   6.698   2.028   5.900  0.0085  0.0774  0.0623
   15SAPS   O11 1879   6.905   2.006   6.030  0.2584 -0.1179  0.2062
   15SAPS    C1 1880   6.843   2.027   6.162  0.1024 -0.0731  0.5149
   15SAPS    HA 1881   6.803   2.130   6.172 -3.0109 -0.9986 -1.2270
   15SAPS    HB 1882   6.748   1.974   6.181  0.4176 -0.0806  2.2449
   15SAPS    C2 1883   6.954   2.008   6.269 -0.2374 -0.3686  0.0819
   15SAPS    HS 1884   7.026   2.087   6.238 -0.3255 -0.7758 -1.2208
   15SAPS   O21 1885   7.001   1.866   6.259  0.5037  0.3275 -0.1507
   15SAPS   C21 1886   7.133   1.859   6.239  0.0423 -0.0757 -0.1438
   15SAPS   O22 1887   7.199   1.948   6.200  0.1051  0.1097 -0.3890
   15SAPS   C22 1888   7.199   1.725   6.293  0.1436 -0.3357  0.7645
   15SAPS   H2R 1889   7.109   1.665   6.316 -1.5434  2.3834  1.8370
   15SAPS   H2S 1890   7.264   1.686   6.212 -0.6213  0.0826 -0.0667
   15SAPS    C3 1891   6.900   2.045   6.413  0.0777  0.0813 -0.0310
   15SAPS    HX 1892   6.839   1.959   6.446 -0.7144  0.9134  0.7393
   15SAPS    HY 1893   6.827   2.128   6.403 -0.8048 -0.8139 -1.3290
   15SAPS   O31 1894   7.003   2.070   6.510 -0.4346  0.5233 -0.3153
   15SAPS   C31 1895   7.044   2.197   6.515  0.0272  0.1657 -0.3658
   15SAPS   O32 1896   6.996   2.288   6.454 -0.0991 -0.5175 -0.4908
   15SAPS   C32 1897   7.157   2.197   6.616  0.2926 -0.9951  0.2103
   15SAPS   H2X 1898   7.244   2.252   6.575 -0.7189 -0.7429 -1.7533
   15SAPS   H2Y 1899   7.200   2.096   6.632  2.4379  0.0122  1.1257
   15SAPS   C23 1900   7.267   1.742   6.433 -0.5472 -0.3310 -0.0530
   15SAPS   H3R 1901   7.335   1.830   6.435 -0.4271 -0.4357  0.5763
   15SAPS   H3S 1902   7.345   1.666   6.454 -0.0603 -0.2002 -1.2936
   15SAPS   C24 1903   7.175   1.748   6.555 -1.2942  0.1965 -0.6790
   15SAPS   H4R 1904   7.124   1.847   6.552 -1.9628 -0.1079  0.1153
   15SAPS   H4S 1905   7.251   1.764   6.634 -0.5258  0.7407 -1.4978
   15SAPS   C25 1906   7.087   1.633   6.577 -0.1200 -0.4135  0.2337
   15SAPS   H5R 1907   7.009   1.626   6.500  1.4461 -1.0417 -1.3687
   15SAPS   C26 1908   7.103   1.539   6.672 -0.3026  0.2135 -0.0017
   15SAPS   H6R 1909   7.025   1.462   6.663 -2.3462  2.1635 -0.0502
   15SAPS   C27 1910   7.211   1.512   6.768 -0.1413 -0.6850  0.2373
   15SAPS   H7R 1911   7.264   1.608   6.789  0.2281 -1.2611  2.0710
   15SAPS   H7S 1912   7.290   1.457   6.713  0.0807  1.6159 -1.9560
   15SAPS   C28 1913   7.166   1.445   6.899 -0.2244  0.3489  0.3709
   15SAPS   H8R 1914   7.078   1.379   6.891 -1.5614  1.9903  1.0059
   15SAPS   C29 1915   7.196   1.485   7.029 -0.5266 -0.9743  0.3722
   15SAPS   H9R 1916   7.170   1.419   7.112 -1.6448 -1.8489 -0.6339
   15SAPS  C210 1917   7.295   1.599   7.063  0.2989  0.2666  0.9169
   15SAPS  H10R 1918   7.250   1.700   7.052  1.3404  0.8499  1.7512
   15SAPS  H10S 1919   7.380   1.587   6.993 -1.7458  0.3876 -1.7254
   15SAPS  C211 1920   7.355   1.596   7.200  0.2133  0.2514 -0.6434
   15SAPS  H11R 1921   7.459   1.561   7.202  1.2807  3.1016 -1.4459
   15SAPS  C212 1922   7.291   1.640   7.307  0.6991  0.2087 -0.5031
   15SAPS  H12R 1923   7.346   1.646   7.402  0.7068 -1.5443 -0.3730
   15SAPS  C213 1924   7.152   1.704   7.322 -0.6755  0.1778 -0.0505
   15SAPS  H13R 1925   7.086   1.642   7.387 -1.6981  0.5555 -0.7122
   15SAPS  H13S 1926   7.101   1.712   7.223  0.8094  2.7651 -0.7132
   15SAPS  C214 1927   7.168   1.845   7.370  0.5260  0.2730 -0.2575
   15SAPS  H14R 1928   7.177   1.921   7.291  1.0962  0.1116 -0.3529
   15SAPS  C215 1929   7.173   1.884   7.497 -0.3837  0.4443 -0.7442
   15SAPS  H15R 1930   7.184   1.991   7.521  0.3340 -0.6622  5.7127
   15SAPS  C216 1931   7.171   1.804   7.627 -0.9945  0.1318  0.0448
   15SAPS  H16R 1932   7.258   1.832   7.691  0.4818  1.5533 -2.4301
   15SAPS  H16S 1933   7.168   1.695   7.609  1.1449 -0.0484  0.5915
   15SAPS  C217 1934   7.050   1.845   7.710  0.6125 -0.1929 -0.2634
   15SAPS  H17R 1935   6.960   1.791   7.673  1.2378 -2.5202  1.3909
   15SAPS  H17S 1936   7.034   1.955   7.705 -0.5729 -0.3444 -0.1344
   15SAPS  C218 1937   7.057   1.813   7.860  0.2600  0.2800 -0.0328
   15SAPS  H18R 1938   7.097   1.709   7.861 -0.3023 -0.0151 -2.1910
   15SAPS  H18S 1939   6.953   1.827   7.896 -0.0324  0.4849 -0.9257
   15SAPS  C219 1940   7.151   1.911   7.939 -0.2362  0.2367  0.3852
   15SAPS  H19R 1941   7.102   2.008   7.962  1.4035  1.1763  0.0435
   15SAPS  H19S 1942   7.240   1.934   7.876 -1.1905 -1.7055 -1.8362
   15SAPS  C220 1943   7.188   1.847   8.070  0.3128 -0.1635  0.5481
   15SAPS  H20R 1944   7.255   1.759   8.057  1.7967  1.2054 -1.9332
   15SAPS  H20S 1945   7.093   1.810   8.114  1.6442 -1.5121  2.5278
   15SAPS  H20T 1946   7.247   1.913   8.137  2.0835 -1.5164  0.4035
   15SAPS   C33 1947   7.116   2.266   6.750 -0.1352  0.0164  0.0468
   15SAPS   H3X 1948   7.066   2.363   6.727  0.9434  0.9497  1.4665
   15SAPS   H3Y 1949   7.206   2.283   6.813 -0.8464  0.8769  0.8810
   15SAPS   C34 1950   7.018   2.190   6.841  0.3106 -0.2494  0.5693
   15SAPS   H4X 1951   7.067   2.096   6.875 -0.7075 -1.1490 -0.3745
   15SAPS   H4Y 1952   6.931   2.162   6.778  0.5286  3.2191 -1.5708
   15SAPS   C35 1953   6.949   2.264   6.961 -0.5475  0.1601  0.4081
   15SAPS   H5X 1954   6.856   2.210   6.990 -1.0263  0.7361 -0.0446
   15SAPS   H5Y 1955   6.935   2.373   6.942 -0.1743  0.0611 -0.4471
   15SAPS   C36 1956   7.025   2.246   7.099  0.2916  0.5111 -0.4957
   15SAPS   H6X 1957   7.118   2.305   7.085 -0.8547  2.1601 -1.5568
   15SAPS   H6Y 1958   7.039   2.137   7.115 -2.7552  0.1330  0.1782
   15SAPS   C37 1959   6.946   2.291   7.230  0.6505 -0.3488 -0.5448
   15SAPS   H7X 1960   6.851   2.233   7.223  0.6781 -0.1767 -3.9014
   15SAPS   H7Y 1961   6.934   2.401   7.213  2.5210  0.0254  0.3778
   15SAPS   C38 1962   7.018   2.276   7.366  0.2614  0.0529  0.1186
   15SAPS   H8X 1963   7.127   2.296   7.354  0.4323 -0.2031  1.1693
   15SAPS   H8Y 1964   7.003   2.171   7.398  4.0520 -2.1666 -4.1073
   15SAPS   C39 1965   6.959   2.380   7.465 -0.9352  0.3099  0.1072
   15SAPS   H9X 1966   6.851   2.358   7.468 -0.5695 -1.8134 -0.7066
   15SAPS   H9Y 1967   6.980   2.476   7.413  2.1406 -0.5149 -0.3791
   15SAPS  C310 1968   7.030   2.364   7.605  0.8700  0.3027  0.4963
   15SAPS  H10X 1969   7.136   2.397   7.599  0.5510  1.2113 -0.6337
   15SAPS  H10Y 1970   7.015   2.260   7.639  1.5387 -0.0623 -0.2943
   15SAPS  C311 1971   6.961   2.457   7.696 -0.8573 -0.2392  0.1014
   15SAPS  H11X 1972   6.856   2.426   7.713 -1.8109  2.5409 -0.1399
   15SAPS  H11Y 1973   6.965   2.560   7.653 -1.6481 -0.7726 -1.3146
   15SAPS  C312 1974   7.034   2.463   7.831  0.6674  0.3150  0.3477
   15SAPS  H12X 1975   6.996   2.545   7.895 -1.3983 -0.4331  0.1621
   15SAPS  H12Y 1976   7.144   2.474   7.820  0.5167  1.5283 -0.1297
   15SAPS  C313 1977   7.013   2.330   7.906  0.2964 -0.2553 -0.6271
   15SAPS  H13X 1978   7.066   2.251   7.849 -0.6036 -0.1634 -1.6333
   15SAPS  H13Y 1979   6.906   2.300   7.902 -0.1334  0.6389  2.0799
   15SAPS  C314 1980   7.069   2.333   8.051  0.2855  0.8640  0.5746
   15SAPS  H14X 1981   7.168   2.383   8.049  0.4951  0.4254 -0.9088
   15SAPS  H14Y 1982   7.089   2.229   8.084  0.5297  1.0127  0.9021
   15SAPS  C315 1983   6.976   2.404   8.149 -1.0509  0.6266  0.8838
   15SAPS  H15X 1984   6.883   2.344   8.150  0.0991 -1.4432 -2.2413
   15SAPS  H15Y 1985   6.956   2.508   8.116 -3.0880  0.7180  2.2401
   15SAPS  C316 1986   7.024   2.404   8.296  0.0574 -0.1960  0.6598
   15SAPS  H16X 1987   7.044   2.303   8.336  2.3325  0.6720  1.8981
   15SAPS  H16Y 1988   6.948   2.460   8.355  0.3318  1.3427 -0.3870
   15SAPS  C317 1989   7.148   2.491   8.319  0.4250  0.2853  0.1246
   15SAPS  H17X 1990   7.171   2.559   8.233  0.9853  0.1376  0.1523
   15SAPS  H17Y 1991   7.236   2.423   8.317  0.7396  0.7012 -0.6180
   15SAPS  C318 1992   7.153   2.574   8.448 -0.5225  0.4041  0.7845
   15SAPS  H18X 1993   7.245   2.635   8.458 -1.1648  1.5913 -0.2501
   15SAPS  H18Y 1994   7.158   2.497   8.528  0.1647  0.4340  0.7723
   15SAPS  H18Z 1995   7.062   2.637   8.455 -0.3690  0.7758 -0.4803
   16SAPS     N 1996   3.113   4.442   6.483  0.1565  0.3670 -0.1458
   16SAPS   HN1 1997   3.119   4.544   6.465  0.2846  0.5985  1.1104
   16SAPS   HN2 1998   3.022   4.416   6.526  0.2957  0.3587  0.1493
   16SAPS   HN3 1999   3.180   4.419   6.559 -0.7179  1.4800  1.0200
   16SAPS   C12 2000   3.135   4.357   6.364  0.3890 -0.3022 -0.2093
   16SAPS  H12A 2001   3.076   4.396   6.282  0.2401  1.0654  0.5146
   16SAPS   C13 2002   3.280   4.360   6.324 -0.5731 -0.2703 -0.1663
   16SAPS  O13A 2003   3.359   4.446   6.376  0.5134 -0.2707 -0.2225
   16SAPS  O13B 2004   3.323   4.280   6.235 -0.2741 -0.5499  0.2684
   16SAPS   C11 2005   3.098   4.206   6.391 -0.3980 -0.1322 -0.3451
   16SAPS  H11A 2006   3.168   4.168   6.468 -0.5123  0.6310  0.1383
   16SAPS  H11B 2007   3.112   4.151   6.295 -0.6056  1.1064 -1.1217
   16SAPS     P 2008   2.906   4.042   6.453 -0.2731 -0.2259 -0.1973
   16SAPS   O13 2009   2.791   4.009   6.364  0.3445 -0.0917 -0.4541
   16SAPS   O14 2010   3.008   3.944   6.439 -0.0160  0.1965  0.2488
   16SAPS   O12 2011   2.961   4.182   6.434  0.1109  0.1709  0.4461
   16SAPS   O11 2012   2.852   4.029   6.603  0.4107  0.3694  1.0854
   16SAPS    C1 2013   2.928   4.041   6.724  0.2666  0.0977 -0.0122
   16SAPS    HA 2014   3.004   3.960   6.722 -0.3072 -0.4731  0.6870
   16SAPS    HB 2015   2.969   4.143   6.734 -0.5828  0.4996 -0.5497
   16SAPS    C2 2016   2.848   4.009   6.861 -0.4234 -0.2404  0.6354
   16SAPS    HS 2017   2.920   4.001   6.945 -1.7946  0.2413  1.9096
   16SAPS   O21 2018   2.773   3.894   6.843  0.6111  0.0247  0.6228
   16SAPS   C21 2019   2.840   3.790   6.837  0.4459  0.3063  0.3992
   16SAPS   O22 2020   2.957   3.770   6.863 -0.3971  0.0975  0.1506
   16SAPS   C22 2021   2.749   3.686   6.775 -0.1642  0.0933  0.6366
   16SAPS   H2R 2022   2.648   3.694   6.820 -0.0307 -3.0198  1.7602
   16SAPS   H2S 2023   2.744   3.711   6.667 -1.7053  0.7210  0.8367
   16SAPS    C3 2024   2.757   4.122   6.911 -0.2983  0.4160  0.1429
   16SAPS    HX 2025   2.670   4.119   6.841 -0.8327 -0.6420  0.8109
   16SAPS    HY 2026   2.804   4.221   6.898 -0.8111  0.9104  1.7482
   16SAPS   O31 2027   2.707   4.098   7.046  0.4498  0.2568 -0.1574
   16SAPS   C31 2028   2.783   4.140   7.142  0.5552 -0.4303  0.4049
   16SAPS   O32 2029   2.903   4.163   7.134  0.4139 -0.4134  0.5684
   16SAPS   C32 2030   2.702   4.133   7.271  0.4104 -0.5746 -0.4153
   16SAPS   H2X 2031   2.642   4.040   7.286 -0.6202  0.4428  2.6632
   16SAPS   H2Y 2032   2.639   4.224   7.263 -0.3324 -1.1955 -2.0767
   16SAPS   C23 2033   2.807   3.544   6.792 -0.1909 -0.0272 -1.1810
   16SAPS   H3R 2034   2.914   3.548   6.763  0.1517 -1.3249 -0.2022
   16SAPS   H3S 2035   2.753   3.474   6.724 -0.9708  1.1231 -1.7843
   16SAPS   C24 2036   2.793   3.479   6.940 -0.5862 -0.0808  0.2079
   16SAPS   H4R 2037   2.691   3.435   6.938 -1.5336  1.9988 -0.9042
   16SAPS   H4S 2038   2.791   3.571   7.002 -1.1140  1.7164 -2.3183
   16SAPS   C25 2039   2.885   3.374   6.997 -0.3629 -0.1869 -0.1529
   16SAPS   H5R 2040   2.924   3.303   6.923 -3.0994 -1.5997 -0.3653
   16SAPS   C26 2041   2.921   3.360   7.132 -0.1607  0.2580  0.1630
   16SAPS   H6R 2042   3.003   3.289   7.152  1.1701  1.9671  1.0989
   16SAPS   C27 2043   2.887   3.440   7.256  0.5011  0.3281  0.1596
   16SAPS   H7R 2044   2.801   3.406   7.318  0.6149  0.1380  0.2145
   16SAPS   H7S 2045   2.870   3.543   7.217  1.1987  0.8277  1.1253
   16SAPS   C28 2046   3.011   3.444   7.335 -0.3612  0.0990 -0.7611
   16SAPS   H8R 2047   3.103   3.418   7.281  0.0605  2.2467 -1.1431
   16SAPS   C29 2048   3.018   3.465   7.472  0.0270  0.6336  0.4129
   16SAPS   H9R 2049   3.116   3.457   7.519  1.1279  1.5504 -1.5999
   16SAPS  C210 2050   2.903   3.512   7.551  0.0985  0.3002 -0.8822
   16SAPS  H10R 2051   2.828   3.567   7.491 -2.3540 -0.3482  1.3896
   16SAPS  H10S 2052   2.933   3.585   7.629 -0.9529 -0.0758 -0.0949
   16SAPS  C211 2053   2.835   3.391   7.613 -0.8433 -0.1758  0.5877
   16SAPS  H11R 2054   2.850   3.301   7.552  2.6462  0.7446 -0.1298
   16SAPS  C212 2055   2.770   3.384   7.727  0.8126 -0.8247 -0.9911
   16SAPS  H12R 2056   2.718   3.293   7.761 -1.3301  0.3804 -0.8453
   16SAPS  C213 2057   2.754   3.491   7.823  0.3449 -0.1477 -0.5775
   16SAPS  H13R 2058   2.651   3.488   7.866 -0.8148 -0.1359 -3.1926
   16SAPS  H13S 2059   2.766   3.589   7.773 -1.3562  0.9770  1.0597
   16SAPS  C214 2060   2.864   3.481   7.928  0.5809  0.2936  1.2132
   16SAPS  H14R 2061   2.942   3.553   7.899  0.1588  0.2277 -0.1300
   16SAPS  C215 2062   2.868   3.397   8.028 -0.1973 -0.0615  0.5043
   16SAPS  H15R 2063   2.953   3.396   8.098 -1.0530 -0.6347  1.5501
   16SAPS  C216 2064   2.751   3.305   8.064  0.3651  1.2411 -0.5629
   16SAPS  H16R 2065   2.776   3.200   8.036 -0.3592  1.1010 -0.7002
   16SAPS  H16S 2066   2.661   3.330   8.003  0.7974 -1.2062 -2.3720
   16SAPS  C217 2067   2.732   3.300   8.218  0.5514 -0.4553 -0.1853
   16SAPS  H17R 2068   2.667   3.212   8.236 -0.4559  0.5230  1.0642
   16SAPS  H17S 2069   2.692   3.394   8.262 -0.2517 -1.8572  2.2427
   16SAPS  C218 2070   2.862   3.263   8.297  0.3432  0.0752 -0.9232
   16SAPS  H18R 2071   2.940   3.341   8.295  1.7174 -1.2130  0.1351
   16SAPS  H18S 2072   2.913   3.171   8.260  0.2863 -1.1589  1.8397
   16SAPS  C219 2073   2.823   3.237   8.445 -0.0306  0.0010 -0.0127
   16SAPS  H19R 2074   2.752   3.151   8.449  0.2042 -0.1986 -0.0839
   16SAPS  H19S 2075   2.776   3.328   8.486 -2.3181 -1.1884  0.1508
   16SAPS  C220 2076   2.942   3.213   8.537 -0.4679  0.0254 -0.1428
   16SAPS  H20R 2077   2.896   3.181   8.633  0.7198  1.4433  0.9315
   16SAPS  H20S 2078   3.000   3.305   8.555  0.0226 -0.7504  2.7466
   16SAPS  H20T 2079   3.012   3.131   8.509 -1.0319 -1.6802  2.9575
   16SAPS   C33 2080   2.784   4.150   7.406 -0.0032  1.2022  0.6687
   16SAPS   H3X 2081   2.717   4.149   7.494  0.6413  1.9050  1.1773
   16SAPS   H3Y 2082   2.832   4.250   7.405  0.9632  0.7505  0.7522
   16SAPS   C34 2083   2.868   4.022   7.432 -0.5321  0.4062 -0.4132
   16SAPS   H4X 2084   2.934   3.998   7.346  0.4457  1.2968  0.0623
   16SAPS   H4Y 2085   2.806   3.931   7.442 -0.7250  0.5375 -0.4095
   16SAPS   C35 2086   2.958   4.031   7.559 -0.9144 -0.4046  0.1319
   16SAPS   H5X 2087   3.031   3.947   7.558  3.0788  2.6271  2.2012
   16SAPS   H5Y 2088   2.889   4.023   7.645 -0.9130  0.2924  0.2050
   16SAPS   C36 2089   3.039   4.156   7.573 -0.6298  0.0625 -0.1049
   16SAPS   H6X 2090   2.969   4.236   7.607 -2.7067 -1.8587  0.3765
   16SAPS   H6Y 2091   3.080   4.187   7.475 -0.7353 -0.6029 -0.3655
   16SAPS   C37 2092   3.162   4.135   7.672  0.4515 -0.4234  0.4514
   16SAPS   H7X 2093   3.221   4.224   7.642 -0.4132  0.1840  0.5333
   16SAPS   H7Y 2094   3.218   4.041   7.652  1.0001 -0.4802  2.0857
   16SAPS   C38 2095   3.125   4.141   7.817 -0.0497 -0.0460  0.3389
   16SAPS   H8X 2096   3.077   4.049   7.858  0.7655  0.5907  2.8780
   16SAPS   H8Y 2097   3.058   4.227   7.837  0.2976 -0.5920  4.8313
   16SAPS   C39 2098   3.257   4.163   7.894 -0.1434  0.2726 -0.1863
   16SAPS   H9X 2099   3.304   4.249   7.841  0.0277 -0.9216 -2.0609
   16SAPS   H9Y 2100   3.323   4.075   7.876  1.2904  1.4743 -1.0160
   16SAPS  C310 2101   3.236   4.172   8.040  0.0819  0.3112 -0.0111
   16SAPS  H10X 2102   3.178   4.080   8.059 -0.5563  0.7234  0.0563
   16SAPS  H10Y 2103   3.179   4.261   8.073  0.8012  0.7438  0.0958
   16SAPS  C311 2104   3.368   4.171   8.119  0.0075  0.8585  0.4302
   16SAPS  H11X 2105   3.434   4.092   8.077  0.4134  0.5627  1.5903
   16SAPS  H11Y 2106   3.325   4.136   8.215  0.0431 -0.7433 -0.1111
   16SAPS  C312 2107   3.425   4.310   8.147 -0.6458 -0.5270 -0.0592
   16SAPS  H12X 2108   3.349   4.377   8.193  0.2756  0.3174  0.2740
   16SAPS  H12Y 2109   3.460   4.360   8.054  1.9843 -2.0881 -0.0033
   16SAPS  C313 2110   3.549   4.314   8.234  0.0429  0.1673  0.0503
   16SAPS  H13X 2111   3.592   4.415   8.218  0.0078 -0.0829 -1.8891
   16SAPS  H13Y 2112   3.626   4.241   8.201 -2.0473 -2.1463  0.0265
   16SAPS  C314 2113   3.522   4.305   8.387 -0.6167  0.0868 -0.2516
   16SAPS  H14X 2114   3.473   4.206   8.396  0.0235 -0.1849  0.3902
   16SAPS  H14Y 2115   3.450   4.385   8.414  0.1642  0.7824 -0.1923
   16SAPS  C315 2116   3.655   4.310   8.458 -0.2616  0.1981 -1.0537
   16SAPS  H15X 2117   3.698   4.412   8.451  0.7134 -0.1743 -0.6937
   16SAPS  H15Y 2118   3.735   4.247   8.414  1.8541  1.3505  0.9386
   16SAPS  C316 2119   3.636   4.273   8.607  0.9865  0.3277 -0.2178
   16SAPS  H16X 2120   3.599   4.169   8.620 -2.0090  1.3598  0.1049
   16SAPS  H16Y 2121   3.563   4.340   8.656 -1.6396 -2.4997  0.0485
   16SAPS  C317 2122   3.770   4.288   8.681  0.5020  0.4799  0.3491
   16SAPS  H17X 2123   3.841   4.211   8.644 -0.1030 -0.4746  1.1203
   16SAPS  H17Y 2124   3.754   4.260   8.787  1.1663  0.4406  0.4437
   16SAPS  C318 2125   3.834   4.426   8.674 -0.3467  0.4690  0.0425
   16SAPS  H18X 2126   3.931   4.414   8.727 -1.3205 -2.4187  1.3149
   16SAPS  H18Y 2127   3.776   4.501   8.732 -1.1789 -0.8184  0.9123
   16SAPS  H18Z 2128   3.869   4.463   8.575 -1.3248  0.0143 -0.4778
   17SAPC     N 2129   5.383   1.290  10.431 -0.7234 -0.4379  0.4005
   17SAPC   C12 2130   5.292   1.332  10.314  0.7913  0.2646 -0.3115
   17SAPC  H12A 2131   5.248   1.245  10.268 -2.0545  1.3142  0.1797
   17SAPC  H12B 2132   5.357   1.378  10.241  2.5926  1.7411  2.0448
   17SAPC   C13 2133   5.460   1.410  10.472 -0.2178  0.0324 -1.1431
   17SAPC  H13A 2134   5.542   1.383  10.537  1.4881 -1.6834 -3.7700
   17SAPC  H13B 2135   5.494   1.467  10.386 -0.3619  0.6206 -0.8123
   17SAPC  H13C 2136   5.389   1.476  10.518  0.9929 -0.5484  1.7291
   17SAPC   C14 2137   5.319   1.231  10.547 -0.6215  0.7967 -0.1552
   17SAPC  H14A 2138   5.242   1.295  10.588 -0.3015  1.9031 -1.2368
   17SAPC  H14B 2139   5.280   1.133  10.523  2.6754 -0.5279 -0.6896
   17SAPC  H14C 2140   5.391   1.206  10.623 -0.7597  0.7172 -0.0489
   17SAPC   C15 2141   5.482   1.189  10.371 -0.7876  0.0944 -0.1562
   17SAPC  H15A 2142   5.543   1.226  10.290 -0.4595  1.3813  0.6453
   17SAPC  H15B 2143   5.553   1.161  10.448 -0.6815  0.5419 -0.0885
   17SAPC  H15C 2144   5.434   1.099  10.336 -1.7066 -0.4300  2.2704
   17SAPC   C11 2145   5.186   1.440  10.342  0.7588 -0.1080 -0.0959
   17SAPC  H11A 2146   5.130   1.468  10.250 -1.5350 -0.5306  1.1134
   17SAPC  H11B 2147   5.246   1.528  10.374 -0.5266  0.5370  0.6107
   17SAPC     P 2148   4.990   1.273  10.376 -0.2476  0.1726 -0.3011
   17SAPC   O13 2149   5.062   1.200  10.269 -0.3985 -0.2854 -0.5224
   17SAPC   O14 2150   4.943   1.181  10.486 -0.1039 -0.6108  0.3891
   17SAPC   O12 2151   5.087   1.387  10.432 -0.6023 -0.1053 -0.2767
   17SAPC   O11 2152   4.873   1.355  10.317  0.6631 -0.1801 -0.3391
   17SAPC    C1 2153   4.733   1.323  10.340  0.8764  0.4712  0.7583
   17SAPC    HA 2154   4.711   1.308  10.448 -0.8377 -1.6715  0.1822
   17SAPC    HB 2155   4.666   1.407  10.312  0.0813  0.4175  2.3952
   17SAPC    C2 2156   4.689   1.199  10.255  0.8800  0.7926  0.3380
   17SAPC    HS 2157   4.756   1.120  10.296 -0.3363 -0.3240  0.2392
   17SAPC   O21 2158   4.713   1.222  10.123 -0.0089 -0.0794 -0.0089
   17SAPC   C21 2159   4.739   1.116  10.052 -0.1252 -0.3016  0.0148
   17SAPC   O22 2160   4.750   0.999  10.088 -0.5206  0.2634  0.0968
   17SAPC   C22 2161   4.765   1.160   9.911 -0.2236 -0.4819 -0.0548
   17SAPC   H2R 2162   4.750   1.270   9.909  0.3554 -0.3771  1.1044
   17SAPC   H2S 2163   4.875   1.144   9.909 -0.2357 -0.7066  0.7665
   17SAPC    C3 2164   4.536   1.153  10.276 -0.2800 -0.4286 -0.0056
   17SAPC    HX 2165   4.529   1.130  10.385  0.3277 -1.1145 -0.0985
   17SAPC    HY 2166   4.527   1.063  10.212 -1.5338 -0.6661  0.4960
   17SAPC   O31 2167   4.438   1.249  10.236  0.1433 -0.6009  0.4757
   17SAPC   C31 2168   4.318   1.198  10.209  0.0556 -0.1530  0.5224
   17SAPC   O32 2169   4.288   1.081  10.198 -0.2561  0.3583  0.3221
   17SAPC   C32 2170   4.235   1.323  10.164  0.4207 -0.6815  0.8116
   17SAPC   H2X 2171   4.310   1.390  10.116  0.6961 -1.5293  0.0367
   17SAPC   H2Y 2172   4.185   1.372  10.251  2.8628  1.3332  1.1818
   17SAPC   C23 2173   4.679   1.079   9.808  0.1241  0.2068  0.5707
   17SAPC   H3R 2174   4.676   0.978   9.854  3.2993 -0.5035 -0.5734
   17SAPC   H3S 2175   4.740   1.084   9.715  1.4184  1.1801  1.4402
   17SAPC   C24 2176   4.548   1.159   9.772 -0.2286  0.1480 -0.3280
   17SAPC   H4R 2177   4.580   1.255   9.726 -0.7670  0.0859 -0.8461
   17SAPC   H4S 2178   4.486   1.190   9.859  0.0385  0.3328 -0.2020
   17SAPC   C25 2179   4.457   1.072   9.695 -1.1680  0.3305 -0.2532
   17SAPC   H5R 2180   4.417   0.986   9.750  0.6380 -0.5809 -0.2811
   17SAPC   C26 2181   4.410   1.101   9.569  0.6201  0.2869 -0.0518
   17SAPC   H6R 2182   4.332   1.032   9.533 -0.1075  1.3641 -0.5919
   17SAPC   C27 2183   4.424   1.235   9.499  0.2550  0.6356  0.7176
   17SAPC   H7R 2184   4.439   1.315   9.574  1.2814  1.1533 -0.0058
   17SAPC   H7S 2185   4.318   1.255   9.473 -0.7201 -0.2713  3.6195
   17SAPC   C28 2186   4.520   1.264   9.383 -0.0000  0.4224  0.3947
   17SAPC   H8R 2187   4.622   1.289   9.417  0.5399  0.3299 -1.1068
   17SAPC   C29 2188   4.486   1.254   9.250 -0.6328 -0.6070  0.7247
   17SAPC   H9R 2189   4.560   1.281   9.174 -1.0700 -0.9097  0.1792
   17SAPC  C210 2190   4.355   1.198   9.201 -0.2092 -0.3548 -0.3332
   17SAPC  H10R 2191   4.306   1.134   9.278  0.1264  0.0511  0.2212
   17SAPC  H10S 2192   4.379   1.120   9.126  0.4116  2.0174 -2.7637
   17SAPC  C211 2193   4.264   1.296   9.130 -0.3835 -0.0720 -0.8663
   17SAPC  H11R 2194   4.174   1.323   9.187 -0.0530  0.6625 -0.6783
   17SAPC  C212 2195   4.280   1.356   9.010 -0.1811  0.2550 -0.2715
   17SAPC  H12R 2196   4.198   1.419   8.973  0.2486 -0.5665 -2.7761
   17SAPC  C213 2197   4.390   1.333   8.914 -1.5212 -0.1552 -0.1307
   17SAPC  H13R 2198   4.336   1.270   8.840 -3.2804 -0.0723  1.0332
   17SAPC  H13S 2199   4.478   1.275   8.948  0.3500  1.7594 -1.4448
   17SAPC  C214 2200   4.440   1.462   8.853 -0.0313  0.2581 -0.6109
   17SAPC  H14R 2201   4.508   1.520   8.918 -0.1690 -1.2223  0.9101
   17SAPC  C215 2202   4.382   1.526   8.748 -0.4186  0.4898 -0.1122
   17SAPC  H15R 2203   4.436   1.616   8.716  2.7333 -0.5126  1.8879
   17SAPC  C216 2204   4.264   1.474   8.663  0.0585  0.3438 -0.3976
   17SAPC  H16R 2205   4.255   1.364   8.676  1.8896  0.3086  0.9829
   17SAPC  H16S 2206   4.276   1.488   8.554  0.8762 -1.4322 -0.5782
   17SAPC  C217 2207   4.132   1.537   8.702 -0.0777 -0.0072 -0.4577
   17SAPC  H17R 2208   4.117   1.518   8.811 -0.3693 -1.3775 -0.7253
   17SAPC  H17S 2209   4.044   1.492   8.652  0.2631 -0.0394 -1.0355
   17SAPC  C218 2210   4.122   1.688   8.676  0.1941  0.6178  0.4792
   17SAPC  H18R 2211   4.161   1.707   8.574  1.1900  0.0551  0.7464
   17SAPC  H18S 2212   4.175   1.746   8.755  1.6258 -0.0990  0.0781
   17SAPC  C219 2213   3.972   1.745   8.704  0.3676  0.3832  0.7297
   17SAPC  H19R 2214   3.951   1.713   8.808 -1.1043  0.2729  0.4167
   17SAPC  H19S 2215   3.905   1.686   8.637 -0.8673  3.5567 -1.0139
   17SAPC  C220 2216   3.957   1.893   8.685 -0.4335 -0.2801 -0.5375
   17SAPC  H20R 2217   4.034   1.937   8.618  2.4391 -1.4018  1.8102
   17SAPC  H20S 2218   3.964   1.943   8.783 -0.1899 -1.3366  0.0014
   17SAPC  H20T 2219   3.855   1.902   8.642 -1.3669  0.5966  1.7604
   17SAPC   C33 2220   4.126   1.290  10.066 -0.6865 -0.0373  0.3356
   17SAPC   H3X 2221   4.065   1.383  10.058 -2.0691 -0.3874  4.2989
   17SAPC   H3Y 2222   4.054   1.214  10.103  0.0681 -2.3433 -2.5693
   17SAPC   C34 2223   4.189   1.255   9.932 -0.4829  0.1633 -0.4243
   17SAPC   H4X 2224   4.259   1.169   9.940 -0.4234  0.1680 -0.8988
   17SAPC   H4Y 2225   4.241   1.346   9.895 -0.6440  0.4235 -0.0229
   17SAPC   C35 2226   4.070   1.225   9.840  0.3269 -0.2450 -0.6396
   17SAPC   H5X 2227   3.990   1.290   9.879  0.2015 -1.3662  1.0589
   17SAPC   H5Y 2228   4.032   1.123   9.862  0.5813 -0.6771 -2.0536
   17SAPC   C36 2229   4.091   1.240   9.695  0.1884 -0.4642 -0.2518
   17SAPC   H6X 2230   4.186   1.183   9.679  1.4548  1.1390  1.1563
   17SAPC   H6Y 2231   4.124   1.346   9.684  0.4313 -0.5743 -0.6089
   17SAPC   C37 2232   3.967   1.201   9.604 -1.0370 -0.7579 -0.1691
   17SAPC   H7X 2233   3.883   1.256   9.652  0.7045  0.5264  1.5080
   17SAPC   H7Y 2234   3.955   1.091   9.618 -1.1383 -1.0677 -2.3076
   17SAPC   C38 2235   3.991   1.220   9.449 -0.3434  0.5331 -0.2073
   17SAPC   H8X 2236   4.047   1.127   9.423 -0.1679  0.2754  1.0409
   17SAPC   H8Y 2237   4.042   1.316   9.429 -1.9363  1.5712  0.4768
   17SAPC   C39 2238   3.854   1.232   9.374  0.6785 -0.2911  0.2182
   17SAPC   H9X 2239   3.791   1.279   9.452 -1.3311 -2.0151 -0.2845
   17SAPC   H9Y 2240   3.814   1.130   9.358  0.0845  0.1376 -1.1744
   17SAPC  C310 2241   3.867   1.321   9.253  0.0165 -0.7454 -0.0723
   17SAPC  H10X 2242   3.938   1.287   9.176 -1.4405  0.8490 -2.2449
   17SAPC  H10Y 2243   3.891   1.427   9.279  0.1014 -0.3141 -1.8135
   17SAPC  C311 2244   3.730   1.326   9.191 -0.0843  0.1834 -0.2121
   17SAPC  H11X 2245   3.654   1.379   9.252 -1.1747  1.1604 -2.2980
   17SAPC  H11Y 2246   3.700   1.219   9.182  0.5119  0.1683 -3.1473
   17SAPC  C312 2247   3.731   1.395   9.057  0.0554  0.1804 -0.5438
   17SAPC  H12X 2248   3.768   1.500   9.061 -1.1666  0.6034  0.1680
   17SAPC  H12Y 2249   3.625   1.390   9.025  0.9005 -2.2600 -3.3927
   17SAPC  C313 2250   3.809   1.324   8.943  0.1836  0.0025  0.1130
   17SAPC  H13X 2251   3.781   1.217   8.949 -0.6019  0.2590  1.3213
   17SAPC  H13Y 2252   3.919   1.342   8.947 -0.0665  1.4958  3.0789
   17SAPC  C314 2253   3.763   1.384   8.816 -0.5000 -0.3831 -0.3674
   17SAPC  H14X 2254   3.820   1.479   8.809  2.3095 -1.6020  2.9103
   17SAPC  H14Y 2255   3.654   1.403   8.813 -0.1997  1.6396  0.0603
   17SAPC  C315 2256   3.801   1.298   8.690  0.1155  0.4155 -0.3459
   17SAPC  H15X 2257   3.768   1.196   8.719  0.6867  0.3953  0.2467
   17SAPC  H15Y 2258   3.912   1.302   8.684  0.3118 -1.7130  0.7980
   17SAPC  C316 2259   3.746   1.347   8.555  0.7906  0.1303  0.3290
   17SAPC  H16X 2260   3.784   1.449   8.533  2.1815  0.3232  3.2356
   17SAPC  H16Y 2261   3.636   1.361   8.565  0.4059 -1.4003 -1.1856
   17SAPC  C317 2262   3.788   1.262   8.436  0.6138 -0.7313 -0.2046
   17SAPC  H17X 2263   3.895   1.286   8.418  0.3499 -0.2776 -1.2463
   17SAPC  H17Y 2264   3.728   1.305   8.353  1.6131  2.3776  0.5436
   17SAPC  C318 2265   3.759   1.114   8.449 -0.4057  0.4029 -0.2153
   17SAPC  H18X 2266   3.653   1.092   8.422 -0.8476  1.1681  0.7956
   17SAPC  H18Y 2267   3.812   1.049   8.377 -0.0677 -0.4992  0.8100
   17SAPC  H18Z 2268   3.803   1.066   8.539  0.9505 -0.3255 -1.2349
   18SAPC     N 2269   6.290   3.655  10.593 -0.0823 -0.0761 -0.1831
   18SAPC   C12 2270   6.427   3.716  10.627  0.1415 -1.2087  0.5091
   18SAPC  H12A 2271   6.491   3.641  10.671 -1.3353 -1.0374  3.1310
   18SAPC  H12B 2272   6.417   3.799  10.696  1.1435  1.0812 -1.9102
   18SAPC   C13 2273   6.315   3.537  10.508  0.6702  0.2603 -0.2224
   18SAPC  H13A 2274   6.372   3.457  10.551 -2.9627 -2.8887 -0.6454
   18SAPC  H13B 2275   6.223   3.486  10.485  0.6792 -0.2993  0.9316
   18SAPC  H13C 2276   6.374   3.581  10.429  0.3467  1.4962  0.2006
   18SAPC   C14 2277   6.229   3.610  10.727  0.4046  0.0353  0.5181
   18SAPC  H14A 2278   6.128   3.572  10.714  0.7437 -0.3553 -1.2003
   18SAPC  H14B 2279   6.293   3.531  10.762 -1.8485 -2.3310 -0.4066
   18SAPC  H14C 2280   6.216   3.703  10.780  0.5746  0.7097 -0.6013
   18SAPC   C15 2281   6.195   3.740  10.517  0.6869 -0.7059  0.0961
   18SAPC  H15A 2282   6.118   3.671  10.485 -1.3149  1.5239 -0.1942
   18SAPC  H15B 2283   6.149   3.819  10.575  0.3511 -0.6968 -0.1747
   18SAPC  H15C 2284   6.229   3.793  10.429 -0.3978  2.9673  1.6758
   18SAPC   C11 2285   6.508   3.777  10.511 -0.0234  0.5895  0.3085
   18SAPC  H11A 2286   6.453   3.862  10.466 -2.8964 -0.9141  0.7494
   18SAPC  H11B 2287   6.523   3.711  10.422  2.2494  0.0318  1.0270
   18SAPC     P 2288   6.744   3.722  10.585  0.1568  0.2669  0.1170
   18SAPC   O13 2289   6.858   3.793  10.637  0.0756 -0.3401  0.0407
   18SAPC   O14 2290   6.691   3.607  10.663  0.5460 -0.2201  0.0216
   18SAPC   O12 2291   6.630   3.823  10.572 -0.6518  0.5270  0.4663
   18SAPC   O11 2292   6.774   3.656  10.446 -0.2818 -0.0354 -0.1191
   18SAPC    C1 2293   6.902   3.603  10.410 -0.5083  0.3611 -0.4706
   18SAPC    HA 2294   6.978   3.633  10.485 -0.6299  0.1504 -0.2601
   18SAPC    HB 2295   6.897   3.493  10.420  2.7826  0.1915  0.4929
   18SAPC    C2 2296   6.926   3.649  10.271 -0.2190  0.4855  1.1233
   18SAPC    HS 2297   6.903   3.756  10.253  0.2454  0.0642 -2.9103
   18SAPC   O21 2298   6.845   3.567  10.182  0.4045  0.4401  0.3462
   18SAPC   C21 2299   6.780   3.624  10.082  0.1843 -0.5389  0.1078
   18SAPC   O22 2300   6.764   3.745  10.069 -0.4722  0.2266 -0.6994
   18SAPC   C22 2301   6.717   3.522   9.984  0.2059  0.3513 -0.3218
   18SAPC   H2R 2302   6.792   3.442   9.964  3.0002  2.6971  0.1626
   18SAPC   H2S 2303   6.631   3.487  10.044  0.9686 -0.1101  0.5223
   18SAPC    C3 2304   7.075   3.618  10.226  0.1811  0.1973 -0.0570
   18SAPC    HX 2305   7.100   3.510  10.233 -1.6310 -0.5138 -2.9286
   18SAPC    HY 2306   7.142   3.680  10.290  0.3606  1.8046 -1.7277
   18SAPC   O31 2307   7.093   3.651  10.085  0.2814  0.1121  0.0659
   18SAPC   C31 2308   7.225   3.659  10.058 -0.2171  0.4446  0.1919
   18SAPC   O32 2309   7.307   3.642  10.144  0.3922 -0.1008 -0.0500
   18SAPC   C32 2310   7.248   3.729   9.920 -0.8499 -0.8048  0.6933
   18SAPC   H2X 2311   7.228   3.836   9.939  0.0381 -0.4103 -0.4604
   18SAPC   H2Y 2312   7.188   3.680   9.840 -0.6331 -1.9096  1.1912
   18SAPC   C23 2313   6.665   3.582   9.847 -0.8811 -0.0984 -0.0373
   18SAPC   H3R 2314   6.678   3.502   9.771  0.2773  0.2246 -0.1937
   18SAPC   H3S 2315   6.725   3.671   9.819  0.3965 -0.1301  2.3003
   18SAPC   C24 2316   6.506   3.598   9.844 -0.3801  0.3429 -0.6539
   18SAPC   H4R 2317   6.486   3.662   9.755 -2.6339  0.5402 -0.0778
   18SAPC   H4S 2318   6.488   3.657   9.936 -0.0519 -1.3362  0.5393
   18SAPC   C25 2319   6.424   3.473   9.846 -0.0334 -0.2904 -0.8785
   18SAPC   H5R 2320   6.391   3.438   9.946  0.2029 -1.2510 -1.1216
   18SAPC   C26 2321   6.394   3.405   9.739 -0.1753 -0.4070 -0.5710
   18SAPC   H6R 2322   6.323   3.321   9.735  0.6725 -1.1100 -3.0935
   18SAPC   C27 2323   6.435   3.424   9.590 -0.0422 -0.2612 -0.1997
   18SAPC   H7R 2324   6.440   3.531   9.559  3.2620 -0.2242  0.0738
   18SAPC   H7S 2325   6.346   3.390   9.534 -0.0629  0.3708 -0.5598
   18SAPC   C28 2326   6.546   3.338   9.537  0.0694  0.1384  0.0353
   18SAPC   H8R 2327   6.628   3.332   9.610 -0.0936  2.0571  0.4519
   18SAPC   C29 2328   6.548   3.265   9.425  0.4479 -0.6985 -0.2740
   18SAPC   H9R 2329   6.641   3.212   9.399  0.6550 -1.9693  2.5959
   18SAPC  C210 2330   6.440   3.252   9.319  0.3289  0.3971 -0.4139
   18SAPC  H10R 2331   6.339   3.259   9.366  0.7135 -0.4657  0.5743
   18SAPC  H10S 2332   6.446   3.145   9.291 -2.0249 -0.0061  0.3595
   18SAPC  C211 2333   6.462   3.347   9.204  0.7632 -0.0830 -0.0404
   18SAPC  H11R 2334   6.439   3.453   9.224 -3.4694 -0.3908 -2.2298
   18SAPC  C212 2335   6.497   3.302   9.083 -0.4909 -0.1655 -0.0426
   18SAPC  H12R 2336   6.511   3.375   9.001  2.1553 -0.3683  0.1305
   18SAPC  C213 2337   6.531   3.163   9.037 -0.0046  0.0012  0.0570
   18SAPC  H13R 2338   6.566   3.101   9.122  2.0978  1.0172 -0.0245
   18SAPC  H13S 2339   6.612   3.175   8.963  0.4376 -0.3864  0.4737
   18SAPC  C214 2340   6.412   3.103   8.971 -0.3093 -1.0185 -0.4465
   18SAPC  H14R 2341   6.317   3.159   8.974 -0.0081 -0.4801 -0.7989
   18SAPC  C215 2342   6.421   2.984   8.914 -0.1589  0.2803 -0.4309
   18SAPC  H15R 2343   6.322   2.942   8.893 -2.7164  3.1407  4.2122
   18SAPC  C216 2344   6.538   2.891   8.906 -0.1131 -0.0784  0.0363
   18SAPC  H16R 2345   6.511   2.787   8.933  0.9311  0.0270  1.6664
   18SAPC  H16S 2346   6.620   2.925   8.973 -0.2977 -2.4050  1.5588
   18SAPC  C217 2347   6.589   2.902   8.762 -0.4264 -0.0291  0.3369
   18SAPC  H17R 2348   6.645   2.998   8.752  1.2363 -0.8047  1.7409
   18SAPC  H17S 2349   6.503   2.903   8.691  1.1929  0.6314 -1.7411
   18SAPC  C218 2350   6.678   2.783   8.711  0.4283 -0.1605 -0.3410
   18SAPC  H18R 2351   6.633   2.691   8.753 -1.5277  0.6636 -0.5139
   18SAPC  H18S 2352   6.778   2.776   8.759 -0.6114 -1.4147  1.8176
   18SAPC  C219 2353   6.698   2.789   8.557  0.1927 -0.4234 -0.3442
   18SAPC  H19R 2354   6.741   2.890   8.544 -0.4525  0.0460  0.9854
   18SAPC  H19S 2355   6.604   2.804   8.500  0.2811  2.3762  0.1039
   18SAPC  C220 2356   6.787   2.685   8.496  0.0093  0.3630  0.2093
   18SAPC  H20R 2357   6.878   2.662   8.557  0.0321  0.5526  0.2450
   18SAPC  H20S 2358   6.803   2.712   8.390  1.1521 -0.9695  0.0099
   18SAPC  H20T 2359   6.734   2.587   8.493 -0.7682  0.8113 -1.9081
   18SAPC   C33 2360   7.398   3.721   9.876 -0.0827  0.1791  0.4370
   18SAPC   H3X 2361   7.456   3.764   9.960 -1.8583  1.6162  0.9949
   18SAPC   H3Y 2362   7.412   3.784   9.785  0.5506 -0.5246  0.0310
   18SAPC   C34 2363   7.434   3.582   9.816 -0.0758 -0.0173 -0.0998
   18SAPC   H4X 2364   7.411   3.503   9.891 -0.0032 -1.2188 -1.3024
   18SAPC   H4Y 2365   7.544   3.572   9.800  0.2988  0.8959  1.6176
   18SAPC   C35 2366   7.370   3.549   9.683  0.2459  0.3157 -0.0409
   18SAPC   H5X 2367   7.391   3.626   9.606 -0.6388 -0.7520 -1.4009
   18SAPC   H5Y 2368   7.260   3.533   9.685  0.3585 -0.4646  1.4114
   18SAPC   C36 2369   7.426   3.420   9.622 -0.7233  1.1183 -0.2299
   18SAPC   H6X 2370   7.413   3.340   9.698  1.1998 -0.0888 -1.0960
   18SAPC   H6Y 2371   7.537   3.431   9.626 -0.8612  2.3945  1.1885
   18SAPC   C37 2372   7.365   3.379   9.490 -0.1306 -0.0777 -0.0995
   18SAPC   H7X 2373   7.257   3.401   9.496  0.0207  2.0232 -2.9250
   18SAPC   H7Y 2374   7.377   3.270   9.477 -1.5358 -0.2414 -0.0807
   18SAPC   C38 2375   7.412   3.462   9.365 -0.6200  0.3845  0.5712
   18SAPC   H8X 2376   7.485   3.401   9.308 -1.0011 -0.1442  0.6405
   18SAPC   H8Y 2377   7.470   3.553   9.391 -0.7763  1.2612 -1.9400
   18SAPC   C39 2378   7.292   3.507   9.273 -0.7497  0.3693 -0.0329
   18SAPC   H9X 2379   7.319   3.586   9.201 -0.8314 -0.1908 -0.6879
   18SAPC   H9Y 2380   7.208   3.543   9.336 -0.8645 -2.2777  1.4948
   18SAPC  C310 2381   7.228   3.386   9.191 -0.1994  0.4709  0.2959
   18SAPC  H10X 2382   7.187   3.307   9.259 -2.7587  0.0850 -1.5587
   18SAPC  H10Y 2383   7.305   3.332   9.132 -1.7556 -1.2200 -0.3127
   18SAPC  C311 2384   7.100   3.424   9.119 -0.2143 -0.6243  0.0178
   18SAPC  H11X 2385   7.020   3.441   9.194 -0.5620 -0.0843 -0.4534
   18SAPC  H11Y 2386   7.084   3.326   9.069  2.5728 -1.8982  1.4237
   18SAPC  C312 2387   7.109   3.545   9.027  0.1132 -0.3221 -0.1218
   18SAPC  H12X 2388   7.185   3.526   8.949  1.0401 -1.6156  1.0629
   18SAPC  H12Y 2389   7.150   3.631   9.084 -0.8705 -1.4346  2.3997
   18SAPC  C313 2390   6.968   3.589   8.965  0.1757 -0.0983 -0.1310
   18SAPC  H13X 2391   6.993   3.682   8.909  1.5176 -0.1171  0.3989
   18SAPC  H13Y 2392   6.894   3.617   9.043  0.7118  0.6895  0.1087
   18SAPC  C314 2393   6.906   3.496   8.864  0.4670 -0.5365  0.1656
   18SAPC  H14X 2394   6.882   3.398   8.911  0.1357 -0.4312  0.2218
   18SAPC  H14Y 2395   6.983   3.487   8.785 -0.1985  1.6541 -0.8003
   18SAPC  C315 2396   6.766   3.556   8.816  0.5261  0.5753  0.4266
   18SAPC  H15X 2397   6.775   3.647   8.752 -0.4122  0.5431  0.2426
   18SAPC  H15Y 2398   6.715   3.584   8.911 -1.6062  0.5152 -0.6467
   18SAPC  C316 2399   6.675   3.453   8.748 -0.4788 -0.8429 -0.2394
   18SAPC  H16X 2400   6.678   3.364   8.814 -0.7808 -0.3436  0.4507
   18SAPC  H16Y 2401   6.724   3.437   8.649 -0.6257 -0.7183 -0.3319
   18SAPC  C317 2402   6.542   3.517   8.731 -0.3063 -0.2851 -0.4710
   18SAPC  H17X 2403   6.558   3.610   8.673 -0.1379 -1.0511 -1.6930
   18SAPC  H17Y 2404   6.504   3.541   8.833 -1.1646 -0.4744 -0.7384
   18SAPC  C318 2405   6.449   3.428   8.662  0.7660  0.9696 -0.4154
   18SAPC  H18X 2406   6.440   3.326   8.705 -2.2695  1.0492 -0.5946
   18SAPC  H18Y 2407   6.479   3.417   8.556 -1.4945 -0.0808 -1.0216
   18SAPC  H18Z 2408   6.344   3.465   8.661  1.2507  2.4030 -1.3686
   19SAPC     N 2409   0.358   2.785  10.945 -0.0263 -0.2712 -0.2903
   19SAPC   C12 2410   0.311   2.695  10.829  0.0286 -0.5385 -0.7312
   19SAPC  H12A 2411   0.387   2.700  10.752  1.9953 -0.9422  1.0803
   19SAPC  H12B 2412   0.225   2.740  10.781 -2.2070 -3.0387  0.7168
   19SAPC   C13 2413   0.372   2.929  10.898  0.8181  0.1543  0.7259
   19SAPC  H13A 2414   0.448   2.930  10.821 -1.8004 -0.8761 -2.1079
   19SAPC  H13B 2415   0.293   2.971  10.837  4.8374  2.5165 -3.5359
   19SAPC  H13C 2416   0.402   3.000  10.974  0.6139  1.6537 -0.5217
   19SAPC   C14 2417   0.254   2.798  11.059  0.6247  0.1882 -0.1943
   19SAPC  H14A 2418   0.160   2.844  11.029  0.4099  0.8386  1.3545
   19SAPC  H14B 2419   0.218   2.706  11.103 -0.0570  1.2006  1.4540
   19SAPC  H14C 2420   0.303   2.853  11.138  3.0169 -0.6478 -1.0040
   19SAPC   C15 2421   0.489   2.737  11.001  0.2071  0.1995  1.0465
   19SAPC  H15A 2422   0.466   2.638  11.038  0.6308 -0.1752  0.3514
   19SAPC  H15B 2423   0.557   2.714  10.919  0.1847  1.5754  0.6140
   19SAPC  H15C 2424   0.530   2.801  11.078 -0.6069  1.8396  0.1695
   19SAPC   C11 2425   0.290   2.549  10.857 -0.8672  0.5078 -0.2702
   19SAPC  H11A 2426   0.225   2.499  10.782  0.5310 -3.2324  0.7956
   19SAPC  H11B 2427   0.238   2.542  10.955 -1.9395  1.3583 -0.7505
   19SAPC     P 2428   0.504   2.433  10.749 -0.4936 -0.0610 -0.4789
   19SAPC   O13 2429   0.570   2.551  10.699 -0.4889 -0.1436  0.2867
   19SAPC   O14 2430   0.590   2.320  10.786  0.1340 -0.0008 -0.5955
   19SAPC   O12 2431   0.419   2.477  10.879  0.4412  0.3306  0.5147
   19SAPC   O11 2432   0.392   2.390  10.643 -0.5921  0.3267  0.2517
   19SAPC    C1 2433   0.339   2.256  10.661  0.5839 -1.0390  0.4114
   19SAPC    HA 2434   0.420   2.180  10.654  0.5860 -0.9237 -1.5382
   19SAPC    HB 2435   0.276   2.255  10.752  0.4095  2.4139  0.4585
   19SAPC    C2 2436   0.245   2.204  10.546  0.2975 -0.3178 -0.0520
   19SAPC    HS 2437   0.213   2.098  10.560  1.3529 -1.1771 -3.3087
   19SAPC   O21 2438   0.300   2.220  10.419 -0.0673 -0.5995 -0.2378
   19SAPC   C21 2439   0.355   2.116  10.361 -0.8765  0.1922 -0.5639
   19SAPC   O22 2440   0.382   2.007  10.414 -0.3947 -0.0314  0.2025
   19SAPC   C22 2441   0.387   2.141  10.207 -0.4688  0.5520 -0.9850
   19SAPC   H2R 2442   0.338   2.236  10.178 -2.0982 -0.2997 -1.1578
   19SAPC   H2S 2443   0.497   2.147  10.196 -0.2010  0.6259  1.3252
   19SAPC    C3 2444   0.109   2.289  10.553 -0.0811 -0.2319  0.2397
   19SAPC    HX 2445   0.128   2.397  10.535 -4.1590  0.3532 -1.8911
   19SAPC    HY 2446   0.067   2.267  10.653  0.9031 -4.2313 -0.0634
   19SAPC   O31 2447   0.028   2.251  10.439 -0.0623  0.6193  0.1294
   19SAPC   C31 2448  -0.099   2.258  10.453 -0.3367  0.4033 -0.3112
   19SAPC   O32 2449  -0.167   2.313  10.540 -0.0680  0.3376 -0.0310
   19SAPC   C32 2450  -0.166   2.190  10.333  0.8004 -0.8744  0.2262
   19SAPC   H2X 2451  -0.247   2.258  10.299  1.3736  1.4363  3.1322
   19SAPC   H2Y 2452  -0.217   2.095  10.360 -0.6594  0.5690  2.9635
   19SAPC   C23 2453   0.345   2.031  10.113  0.3231 -0.5041  0.6439
   19SAPC   H3R 2454   0.234   2.029  10.126  0.2924  0.3355  0.5569
   19SAPC   H3S 2455   0.378   1.926  10.129  0.3848 -0.3273  1.7135
   19SAPC   C24 2456   0.381   2.064   9.962  0.3386  0.0919  0.1333
   19SAPC   H4R 2457   0.487   2.096   9.956  1.0046 -2.1302 -0.6117
   19SAPC   H4S 2458   0.317   2.148   9.929  0.0445 -0.0710  0.2886
   19SAPC   C25 2459   0.351   1.951   9.868  0.1662 -0.0108 -0.3955
   19SAPC   H5R 2460   0.324   1.859   9.922  1.7282 -1.3501 -1.7965
   19SAPC   C26 2461   0.352   1.961   9.730 -0.1173  0.0346 -0.3975
   19SAPC   H6R 2462   0.314   1.878   9.668 -1.3954  0.4807 -0.2338
   19SAPC   C27 2463   0.392   2.086   9.653 -0.5709 -0.4243 -0.0047
   19SAPC   H7R 2464   0.427   2.167   9.719 -0.0993 -0.8347  0.2561
   19SAPC   H7S 2465   0.307   2.128   9.595  1.6447  3.3859 -0.8182
   19SAPC   C28 2466   0.510   2.058   9.567  0.9944  0.2211  0.3174
   19SAPC   H8R 2467   0.597   2.029   9.628 -0.6798 -4.0012  1.0358
   19SAPC   C29 2468   0.522   2.052   9.431 -0.2155 -0.6112  1.1271
   19SAPC   H9R 2469   0.620   2.028   9.388 -0.2882 -0.4078  0.8488
   19SAPC  C210 2470   0.407   2.064   9.329 -0.3633  0.0139  0.1660
   19SAPC  H10R 2471   0.309   2.094   9.371  1.2063  2.1943  2.5386
   19SAPC  H10S 2472   0.390   1.967   9.277  0.9548  2.0608 -4.5764
   19SAPC  C211 2473   0.458   2.164   9.226 -0.1675 -0.0873 -0.2047
   19SAPC  H11R 2474   0.465   2.264   9.271  2.1033 -0.1987 -0.1683
   19SAPC  C212 2475   0.489   2.142   9.097  0.0955  0.3325 -0.0231
   19SAPC  H12R 2476   0.540   2.219   9.036  3.3954 -2.0264 -0.5572
   19SAPC  C213 2477   0.478   2.010   9.027 -0.7252 -0.3864  0.2742
   19SAPC  H13R 2478   0.393   2.010   8.955  1.2632  0.2942 -2.1815
   19SAPC  H13S 2479   0.454   1.926   9.096  0.9453 -0.7932  0.4042
   19SAPC  C214 2480   0.607   1.975   8.960  0.0133 -0.5419 -0.6407
   19SAPC  H14R 2481   0.695   2.025   9.004 -2.5828  3.1894  0.7768
   19SAPC  C215 2482   0.629   1.907   8.852  0.5046 -0.2293 -0.0787
   19SAPC  H15R 2483   0.735   1.890   8.827  1.0199  0.2154  1.6813
   19SAPC  C216 2484   0.530   1.832   8.767 -0.0706 -0.4914  0.4567
   19SAPC  H16R 2485   0.462   1.901   8.712  0.0965 -0.2960  0.4951
   19SAPC  H16S 2486   0.461   1.782   8.839  0.3595 -1.0741  0.4719
   19SAPC  C217 2487   0.602   1.732   8.673 -0.0896  0.3166  0.2719
   19SAPC  H17R 2488   0.668   1.667   8.735 -0.0625 -1.6083 -1.6253
   19SAPC  H17S 2489   0.667   1.794   8.608  0.5865  1.4772  1.9849
   19SAPC  C218 2490   0.505   1.643   8.591  1.1138 -1.3049 -0.5472
   19SAPC  H18R 2491   0.425   1.702   8.542  0.7512  0.2218  1.7464
   19SAPC  H18S 2492   0.457   1.563   8.651  0.7607 -1.8023 -1.4734
   19SAPC  C219 2493   0.583   1.567   8.481 -0.2179  0.0760  0.5241
   19SAPC  H19R 2494   0.664   1.512   8.536 -0.7049 -1.6049 -0.3609
   19SAPC  H19S 2495   0.631   1.632   8.405  0.2642 -0.3948  0.4134
   19SAPC  C220 2496   0.500   1.456   8.411 -0.3494 -0.2574 -0.0645
   19SAPC  H20R 2497   0.414   1.504   8.359  1.3101  1.3078 -1.5215
   19SAPC  H20S 2498   0.459   1.378   8.478 -0.3983  1.5084  2.0781
   19SAPC  H20T 2499   0.551   1.395   8.334 -1.2718 -1.7413  0.4617
   19SAPC   C33 2500  -0.073   2.168  10.209 -0.7512 -0.2395 -0.4263
   19SAPC   H3X 2501  -0.003   2.084  10.231 -0.4755  0.6304  2.4022
   19SAPC   H3Y 2502  -0.022   2.259  10.173 -0.7288 -0.3690 -0.7214
   19SAPC   C34 2503  -0.164   2.124  10.092  1.0786 -0.2149 -0.4181
   19SAPC   H4X 2504  -0.234   2.210  10.083 -0.6957 -1.5247  0.2879
   19SAPC   H4Y 2505  -0.217   2.029  10.112  2.9320 -1.3848 -0.8621
   19SAPC   C35 2506  -0.077   2.098   9.966 -0.2032 -0.5600  0.7847
   19SAPC   H5X 2507  -0.012   2.012   9.994  1.0231  0.1795  0.2675
   19SAPC   H5Y 2508  -0.023   2.193   9.948 -1.3493  0.4059  2.2496
   19SAPC   C36 2509  -0.146   2.065   9.831  0.5480  0.4736 -0.1122
   19SAPC   H6X 2510  -0.209   2.154   9.810  0.6297  1.1439  2.2173
   19SAPC   H6Y 2511  -0.217   1.979   9.829 -0.2604  1.1409 -1.0000
   19SAPC   C37 2512  -0.045   2.022   9.722 -0.5167 -0.0483 -0.1605
   19SAPC   H7X 2513   0.003   1.929   9.759  0.0481  0.8223  1.4071
   19SAPC   H7Y 2514   0.031   2.103   9.730  0.8559 -1.2544 -0.5809
   19SAPC   C38 2515  -0.108   2.020   9.578  0.0514 -0.2761 -0.5878
   19SAPC   H8X 2516  -0.119   2.129   9.560  2.7162 -0.0159 -1.1372
   19SAPC   H8Y 2517  -0.208   1.973   9.588 -0.2926  0.2745 -1.3811
   19SAPC   C39 2518  -0.025   1.963   9.470  0.1814  0.2000  0.6279
   19SAPC   H9X 2519  -0.002   1.856   9.492 -0.6467 -0.0811  0.1963
   19SAPC   H9Y 2520   0.070   2.019   9.460  2.0818 -2.9044  0.0517
   19SAPC  C310 2521  -0.097   1.957   9.335 -0.5453 -0.6197  0.4983
   19SAPC  H10X 2522  -0.132   2.061   9.320 -2.0537 -0.8476  2.1407
   19SAPC  H10Y 2523  -0.190   1.897   9.342 -1.1323  0.4026  1.8671
   19SAPC  C311 2524   0.005   1.913   9.231 -0.0893 -0.1363 -0.0113
   19SAPC  H11X 2525   0.052   1.813   9.246 -0.2789 -0.1288  0.6486
   19SAPC  H11Y 2526   0.088   1.986   9.234  0.2180 -0.4542 -0.5470
   19SAPC  C312 2527  -0.059   1.918   9.092 -0.7686  0.0479  0.1737
   19SAPC  H12X 2528  -0.103   2.019   9.081 -0.6178  0.2924  1.7020
   19SAPC  H12Y 2529  -0.143   1.848   9.075 -0.1177 -0.6257 -0.3716
   19SAPC  C313 2530   0.047   1.892   8.983  0.4197 -0.1781  0.0194
   19SAPC  H13X 2531   0.079   1.786   8.993  0.1006 -0.2457  0.3255
   19SAPC  H13Y 2532   0.141   1.946   9.007  0.0995  0.1480  0.5348
   19SAPC  C314 2533  -0.010   1.924   8.844 -0.0153 -0.1783 -0.4282
   19SAPC  H14X 2534  -0.027   2.034   8.844 -3.0646 -0.5409  0.9999
   19SAPC  H14Y 2535  -0.108   1.872   8.838 -0.6507  0.4208  2.8577
   19SAPC  C315 2536   0.086   1.902   8.731  0.0528  0.1187 -0.0703
   19SAPC  H15X 2537   0.124   1.798   8.726  0.8432  0.4452 -1.1329
   19SAPC  H15Y 2538   0.177   1.961   8.754 -2.7042  3.4317  3.7025
   19SAPC  C316 2539   0.021   1.950   8.599  0.5112  0.1049 -0.6651
   19SAPC  H16X 2540  -0.019   2.051   8.622 -0.1325 -0.3866  0.5137
   19SAPC  H16Y 2541  -0.074   1.893   8.590 -0.6112  1.8188 -0.1499
   19SAPC  C317 2542   0.114   1.972   8.484 -0.2841 -0.1716  0.1201
   19SAPC  H17X 2543   0.177   1.882   8.472 -0.6836 -0.9278  3.0614
   19SAPC  H17Y 2544   0.184   2.057   8.503 -1.3647  0.3199  2.1439
   19SAPC  C318 2545   0.054   2.007   8.348  0.0887  0.2175  0.2987
   19SAPC  H18X 2546   0.002   2.104   8.365 -1.5551 -0.6125  0.1729
   19SAPC  H18Y 2547  -0.023   1.931   8.321  1.1524 -1.5667  2.0643
   19SAPC  H18Z 2548   0.132   2.014   8.268  0.3781 -1.4439  0.4072
   20SAPC     N 2549   5.285   4.332  11.034  0.4813 -0.1184  0.6940
   20SAPC   C12 2550   5.395   4.325  10.922  0.1634  0.3457 -0.4719
   20SAPC  H12A 2551   5.342   4.341  10.830 -1.9255  0.4601  0.6811
   20SAPC  H12B 2552   5.437   4.226  10.913  3.5831  1.5602  0.5195
   20SAPC   C13 2553   5.205   4.453  11.028  0.4879  0.1901 -0.1303
   20SAPC  H13A 2554   5.146   4.453  10.938 -0.5096 -1.0307  0.4998
   20SAPC  H13B 2555   5.138   4.464  11.113  2.0360  0.5485  1.0894
   20SAPC  H13C 2556   5.266   4.542  11.031  0.8752 -0.0819  0.0567
   20SAPC   C14 2557   5.190   4.213  11.015  0.2158 -0.3482 -0.7432
   20SAPC  H14A 2558   5.246   4.121  11.014  1.8446  0.5432  0.8398
   20SAPC  H14B 2559   5.112   4.211  11.089  0.6837  0.8593 -0.1760
   20SAPC  H14C 2560   5.153   4.229  10.915 -1.0699  0.1479 -0.2067
   20SAPC   C15 2561   5.347   4.326  11.171 -0.4948 -0.0283  0.1875
   20SAPC  H15A 2562   5.411   4.413  11.177 -0.0901 -0.3618  0.7582
   20SAPC  H15B 2563   5.261   4.323  11.237 -1.1409  0.4381 -0.6065
   20SAPC  H15C 2564   5.403   4.234  11.178 -0.5943 -0.1447 -0.4256
   20SAPC   C11 2565   5.512   4.425  10.936  0.5998  0.6255 -0.4069
   20SAPC  H11A 2566   5.573   4.403  11.027 -2.3122  2.0185  2.0524
   20SAPC  H11B 2567   5.467   4.525  10.951 -0.9434  0.2443 -2.1625
   20SAPC     P 2568   5.673   4.533  10.771  0.3605  0.0523 -0.3836
   20SAPC   O13 2569   5.585   4.622  10.693  0.5673 -0.2555 -0.5103
   20SAPC   O14 2570   5.743   4.585  10.894  0.7005  0.8630  0.1429
   20SAPC   O12 2571   5.587   4.401  10.819 -0.1657  0.6511 -0.5524
   20SAPC   O11 2572   5.776   4.452  10.678  0.1738 -0.0461  0.0273
   20SAPC    C1 2573   5.878   4.521  10.606 -0.6820  0.1592 -0.1146
   20SAPC    HA 2574   5.921   4.603  10.668  0.6519 -0.6734  0.1125
   20SAPC    HB 2575   5.952   4.446  10.571 -1.0335 -0.4533  0.4348
   20SAPC    C2 2576   5.831   4.574  10.472  0.3248  0.4463  0.4605
   20SAPC    HS 2577   5.756   4.653  10.495 -0.5266 -0.3544  0.4770
   20SAPC   O21 2578   5.756   4.467  10.406  0.1188 -0.2711  0.1383
   20SAPC   C21 2579   5.660   4.510  10.319 -1.0560 -0.5590 -0.1564
   20SAPC   O22 2580   5.624   4.625  10.304  0.5521  1.0987  0.1339
   20SAPC   C22 2581   5.602   4.385  10.254 -0.3030 -0.2932  0.8761
   20SAPC   H2R 2582   5.675   4.301  10.251  0.0634  0.0342 -2.2695
   20SAPC   H2S 2583   5.518   4.346  10.314 -1.7379  1.8774  0.4129
   20SAPC    C3 2584   5.937   4.642  10.382 -0.0131 -0.1291  0.0123
   20SAPC    HX 2585   5.992   4.723  10.435 -0.6878 -1.5557  3.0943
   20SAPC    HY 2586   5.883   4.712  10.314  0.8891  0.4032 -0.1830
   20SAPC   O31 2587   6.022   4.559  10.304 -0.5510  0.0930 -0.5775
   20SAPC   C31 2588   6.142   4.565  10.341 -0.7196 -0.1108  0.8643
   20SAPC   O32 2589   6.192   4.635  10.426 -0.3370  0.3172 -0.6139
   20SAPC   C32 2590   6.214   4.445  10.279 -0.3989  0.0540  0.8567
   20SAPC   H2X 2591   6.141   4.362  10.290  0.2678 -0.4096  1.8671
   20SAPC   H2Y 2592   6.312   4.429  10.329  0.3807 -1.4486 -1.0528
   20SAPC   C23 2593   5.568   4.408  10.106  0.6975  0.3488  0.0885
   20SAPC   H3R 2594   5.494   4.489  10.088 -0.7733 -0.8359  0.6252
   20SAPC   H3S 2595   5.511   4.329  10.054  0.2542  0.6206  0.1560
   20SAPC   C24 2596   5.684   4.433  10.010  0.2127 -0.4539  0.1026
   20SAPC   H4R 2597   5.739   4.523  10.043 -1.0323 -0.0076  1.0485
   20SAPC   H4S 2598   5.649   4.460   9.908 -1.1811  1.0862  0.9520
   20SAPC   C25 2599   5.789   4.322  10.003  0.4411  0.0222  0.0559
   20SAPC   H5R 2600   5.817   4.283  10.103 -2.5961  1.1889  1.4730
   20SAPC   C26 2601   5.847   4.285   9.882 -0.9283  0.3120  0.9869
   20SAPC   H6R 2602   5.930   4.213   9.880 -1.2179 -0.0011 -0.8080
   20SAPC   C27 2603   5.821   4.343   9.743  0.4901  0.2250  0.7328
   20SAPC   H7R 2604   5.779   4.446   9.749  0.1099  0.1542 -0.4899
   20SAPC   H7S 2605   5.737   4.285   9.699  0.4861  0.5936  0.2483
   20SAPC   C28 2606   5.935   4.360   9.646 -0.2599 -0.2796 -0.0537
   20SAPC   H8R 2607   6.008   4.439   9.671 -1.6906  0.7118  1.2012
   20SAPC   C29 2608   5.953   4.295   9.531 -0.0774 -0.3693  0.6363
   20SAPC   H9R 2609   6.025   4.334   9.457 -2.4498  2.3676 -0.4420
   20SAPC  C210 2610   5.867   4.184   9.481 -0.2214  0.2040  0.3875
   20SAPC  H10R 2611   5.783   4.229   9.423 -0.0413 -0.1850 -0.1836
   20SAPC  H10S 2612   5.831   4.132   9.572  2.5869 -0.5567  1.1556
   20SAPC  C211 2613   5.959   4.091   9.397  0.2749 -0.5987  0.2641
   20SAPC  H11R 2614   6.064   4.080   9.425  0.2565 -2.2681 -0.2016
   20SAPC  C212 2615   5.911   4.008   9.304 -0.1602  0.2110 -0.4520
   20SAPC  H12R 2616   5.979   3.930   9.266  1.3356  0.6523  1.2410
   20SAPC  C213 2617   5.765   3.994   9.264 -0.0870  0.3751  0.0349
   20SAPC  H13R 2618   5.747   4.023   9.158 -0.2766 -0.4365 -0.1578
   20SAPC  H13S 2619   5.693   4.058   9.320 -0.2614  1.2740 -1.1745
   20SAPC  C214 2620   5.719   3.850   9.300 -0.1651 -0.0012  0.4186
   20SAPC  H14R 2621   5.694   3.823   9.404  1.6732 -2.8248  0.2618
   20SAPC  C215 2622   5.698   3.749   9.217 -0.8928  0.0634  0.0627
   20SAPC  H15R 2623   5.669   3.658   9.271  0.3789  0.8511  2.2226
   20SAPC  C216 2624   5.702   3.757   9.058  0.8274 -0.9263  1.2258
   20SAPC  H16R 2625   5.786   3.693   9.023  0.6452 -0.2770 -0.4542
   20SAPC  H16S 2626   5.720   3.858   9.017 -0.6220 -1.1303  0.0047
   20SAPC  C217 2627   5.566   3.722   8.986  0.7637  0.1552 -0.4297
   20SAPC  H17R 2628   5.482   3.774   9.037  0.7312  0.6327 -0.9606
   20SAPC  H17S 2629   5.551   3.613   9.001 -2.2395  0.4087 -0.9956
   20SAPC  C218 2630   5.568   3.762   8.831 -0.4300 -0.6382 -0.4460
   20SAPC  H18R 2631   5.500   3.693   8.777 -0.7686 -1.4374  0.9601
   20SAPC  H18S 2632   5.671   3.728   8.805 -0.0785  0.6632 -0.8163
   20SAPC  C219 2633   5.548   3.909   8.803  0.5517  0.2899  0.1877
   20SAPC  H19R 2634   5.622   3.962   8.866  0.7655  0.1440  0.0598
   20SAPC  H19S 2635   5.456   3.950   8.849  0.3288 -0.9421  0.8957
   20SAPC  C220 2636   5.559   3.949   8.658 -0.0277  0.0817 -0.3937
   20SAPC  H20R 2637   5.479   3.907   8.593 -0.4931  1.8042 -1.0015
   20SAPC  H20S 2638   5.652   3.909   8.612  1.2690  0.9921  1.3233
   20SAPC  H20T 2639   5.561   4.060   8.650 -2.3172  0.4480  2.4129
   20SAPC   C33 2640   6.231   4.467  10.124  0.4121 -0.3803 -0.0004
   20SAPC   H3X 2641   6.304   4.549  10.105 -0.1765  0.1653  0.0527
   20SAPC   H3Y 2642   6.133   4.487  10.076  1.4134 -1.2892 -2.5698
   20SAPC   C34 2643   6.282   4.343  10.051  0.6668  0.7281 -0.0893
   20SAPC   H4X 2644   6.232   4.258  10.101 -1.6525  1.0966 -1.6197
   20SAPC   H4Y 2645   6.393   4.331  10.053  0.7231  1.1401 -0.3802
   20SAPC   C35 2646   6.255   4.347   9.902 -0.1067  0.2768 -0.6135
   20SAPC   H5X 2647   6.165   4.402   9.869  1.0885  1.1983 -2.4873
   20SAPC   H5Y 2648   6.245   4.242   9.868 -0.7166 -0.8085  2.5947
   20SAPC   C36 2649   6.375   4.419   9.827 -0.3850 -0.4885 -0.0351
   20SAPC   H6X 2650   6.466   4.360   9.850 -1.6566 -1.5167  2.7860
   20SAPC   H6Y 2651   6.393   4.520   9.871  0.1823 -0.5184 -0.1907
   20SAPC   C37 2652   6.347   4.419   9.676 -0.3532 -0.4830  0.0387
   20SAPC   H7X 2653   6.302   4.514   9.639 -1.3716  0.2251  2.8521
   20SAPC   H7Y 2654   6.282   4.336   9.641  1.7352 -1.0689 -2.8384
   20SAPC   C38 2655   6.473   4.381   9.595 -0.1700 -0.0875  0.8567
   20SAPC   H8X 2656   6.496   4.275   9.622 -1.1934 -0.8156 -0.9627
   20SAPC   H8Y 2657   6.552   4.445   9.639  0.9715  0.6969 -2.1430
   20SAPC   C39 2658   6.462   4.414   9.441  0.4368  0.5843  0.4513
   20SAPC   H9X 2659   6.567   4.424   9.405  0.0868  1.6977 -0.3168
   20SAPC   H9Y 2660   6.413   4.513   9.430 -0.0067  0.2100 -1.2181
   20SAPC  C310 2661   6.400   4.302   9.350  0.5042  0.4845 -0.4189
   20SAPC  H10X 2662   6.292   4.288   9.373  0.5786 -1.5251 -1.1570
   20SAPC  H10Y 2663   6.447   4.203   9.365 -2.0693 -0.5690  1.4314
   20SAPC  C311 2664   6.408   4.334   9.196 -0.0538  0.0326 -0.7436
   20SAPC  H11X 2665   6.514   4.328   9.162  0.3730 -0.5302  0.6532
   20SAPC  H11Y 2666   6.367   4.436   9.174 -0.6287  0.1443  0.7766
   20SAPC  C312 2667   6.330   4.228   9.120 -0.2390 -0.4160  0.1850
   20SAPC  H12X 2668   6.368   4.131   9.159 -0.0212 -1.0149 -1.4437
   20SAPC  H12Y 2669   6.372   4.237   9.017 -0.5535  0.8270  0.1492
   20SAPC  C313 2670   6.181   4.240   9.121 -0.4154 -0.5439  0.0374
   20SAPC  H13X 2671   6.149   4.341   9.089 -0.5407 -1.2151 -2.1482
   20SAPC  H13Y 2672   6.150   4.222   9.226  0.6825 -0.5333  0.3840
   20SAPC  C314 2673   6.128   4.117   9.040 -0.2056  0.1325  0.0162
   20SAPC  H14X 2674   6.020   4.110   9.067 -0.3970  0.3405 -0.6602
   20SAPC  H14Y 2675   6.184   4.027   9.071 -0.2940  0.5068  1.3107
   20SAPC  C315 2676   6.152   4.124   8.896 -0.0756  0.6043 -0.0169
   20SAPC  H15X 2677   6.239   4.073   8.850 -0.2559  1.0404 -0.8758
   20SAPC  H15Y 2678   6.184   4.225   8.862  0.4688 -0.0440 -1.5432
   20SAPC  C316 2679   6.020   4.098   8.813 -0.1552  0.1489 -0.1635
   20SAPC  H16X 2680   5.925   4.144   8.846  0.7095  0.9977  1.3143
   20SAPC  H16Y 2681   5.998   3.990   8.822 -2.4181  0.6587  1.2149
   20SAPC  C317 2682   6.032   4.141   8.660  0.7439  0.1747 -0.6333
   20SAPC  H17X 2683   6.130   4.104   8.624  0.8394  1.2713 -1.5524
   20SAPC  H17Y 2684   6.034   4.252   8.669 -2.7259  0.3276 -0.4754
   20SAPC  C318 2685   5.922   4.082   8.574  0.0734 -0.0182  0.4617
   20SAPC  H18X 2686   5.826   4.117   8.618  0.2756  0.2208  0.7155
   20SAPC  H18Y 2687   5.906   3.973   8.562 -0.0114 -0.0547  0.8781
   20SAPC  H18Z 2688   5.927   4.109   8.466 -0.0369 -1.4371  0.0832
   21SAPC     N 2689   5.166   4.950  10.701 -0.2835 -0.4182 -0.0503
   21SAPC   C12 2690   5.147   4.795  10.693  0.1115  0.3725  0.1107
   21SAPC  H12A 2691   5.240   4.763  10.647  0.2493 -0.6176  1.0496
   21SAPC  H12B 2692   5.068   4.775  10.623  1.1064 -4.0859 -0.0437
   21SAPC   C13 2693   5.273   4.979  10.801  0.1148 -0.3212  0.5417
   21SAPC  H13A 2694   5.289   5.085  10.805 -1.2972 -0.1312  2.0166
   21SAPC  H13B 2695   5.254   4.948  10.902  2.8736  0.1434  1.2838
   21SAPC  H13C 2696   5.365   4.932  10.769 -1.4198 -2.6692 -0.7233
   21SAPC   C14 2697   5.223   4.982  10.562 -0.0516 -0.3822 -0.0245
   21SAPC  H14A 2698   5.217   5.089  10.547 -0.1364 -0.5613 -1.4026
   21SAPC  H14B 2699   5.323   4.943  10.546  0.4906 -0.3312  2.6944
   21SAPC  H14C 2700   5.157   4.950  10.483  1.6538 -2.2878 -0.7720
   21SAPC   C15 2701   5.045   5.032  10.731 -0.2080  0.1246  0.4020
   21SAPC  H15A 2702   5.070   5.136  10.745  0.3166 -0.0304  0.6464
   21SAPC  H15B 2703   4.979   5.016  10.647  1.3432 -1.1597 -0.6387
   21SAPC  H15C 2704   4.999   4.996  10.822  0.5265  1.0389  1.1531
   21SAPC   C11 2705   5.114   4.715  10.820  0.3144 -0.3896 -0.0727
   21SAPC  H11A 2706   5.189   4.730  10.901  0.0613  1.7259 -0.1694
   21SAPC  H11B 2707   5.134   4.611  10.787  0.2390 -0.6006  0.5423
   21SAPC     P 2708   4.844   4.745  10.807  0.3595  0.1119 -0.4721
   21SAPC   O13 2709   4.769   4.626  10.851 -0.1644 -0.5845  0.1003
   21SAPC   O14 2710   4.779   4.878  10.819  0.4697  0.4586  0.1734
   21SAPC   O12 2711   4.984   4.741  10.878 -0.3978  0.0756  0.0921
   21SAPC   O11 2712   4.883   4.724  10.661 -0.0602 -0.2328  0.4567
   21SAPC    C1 2713   4.808   4.638  10.573  1.2111 -0.3739 -0.5758
   21SAPC    HA 2714   4.831   4.533  10.601  2.9263  0.5553  1.8597
   21SAPC    HB 2715   4.698   4.655  10.585  1.3450  0.0192  0.1656
   21SAPC    C2 2716   4.838   4.683  10.428 -0.3913  0.6679  0.0151
   21SAPC    HS 2717   4.770   4.637  10.353  1.5469  1.6987 -2.5370
   21SAPC   O21 2718   4.967   4.635  10.393 -0.3406 -0.1857 -0.3731
   21SAPC   C21 2719   4.988   4.509  10.373  0.1760 -0.0029 -0.2627
   21SAPC   O22 2720   4.905   4.419  10.366  0.2792  0.0750 -0.1053
   21SAPC   C22 2721   5.132   4.491  10.330 -0.3858 -0.5867  0.4860
   21SAPC   H2R 2722   5.168   4.591  10.295  1.3689 -1.1797  0.4908
   21SAPC   H2S 2723   5.188   4.463  10.422 -3.2193  3.1179  3.6727
   21SAPC    C3 2724   4.823   4.841  10.409  0.0233  0.2162 -0.6526
   21SAPC    HX 2725   4.909   4.884  10.465 -2.0194  4.2434 -0.2559
   21SAPC    HY 2726   4.725   4.871  10.451 -1.3573 -0.4865 -3.1715
   21SAPC   O31 2727   4.836   4.878  10.269  0.0276  0.0530 -0.2782
   21SAPC   C31 2728   4.943   4.942  10.229 -1.3857  0.0487  0.3048
   21SAPC   O32 2729   5.038   4.970  10.301  0.1971  0.0432 -0.0734
   21SAPC   C32 2730   4.949   4.942  10.077  0.1433 -0.1146 -0.0281
   21SAPC   H2X 2731   4.946   5.045  10.035  1.7699 -0.9573 -2.3912
   21SAPC   H2Y 2732   4.870   4.876  10.036  0.6182 -0.4841 -0.3650
   21SAPC   C23 2733   5.162   4.394  10.209  0.0477  0.3384 -0.3959
   21SAPC   H3R 2734   5.131   4.291  10.235  0.1616 -0.1744 -2.1974
   21SAPC   H3S 2735   5.271   4.395  10.193  0.2229 -1.1286  0.4858
   21SAPC   C24 2736   5.090   4.433  10.081  0.3819  0.1892 -0.6701
   21SAPC   H4R 2737   5.132   4.529  10.045  0.1637 -0.2079 -2.0825
   21SAPC   H4S 2738   4.981   4.446  10.093  0.3126  2.2211 -2.7623
   21SAPC   C25 2739   5.110   4.319   9.977  0.0681 -0.0431 -0.0592
   21SAPC   H5R 2740   5.060   4.221   9.989  1.3644 -0.8082 -0.6504
   21SAPC   C26 2741   5.174   4.342   9.861  0.0693  0.4900  0.1829
   21SAPC   H6R 2742   5.184   4.253   9.797  0.6541 -0.5413  1.6573
   21SAPC   C27 2743   5.242   4.469   9.819 -0.4782  0.4304 -0.0257
   21SAPC   H7R 2744   5.350   4.473   9.843 -0.0852  0.8495 -1.7698
   21SAPC   H7S 2745   5.198   4.560   9.866 -0.6778  0.5240 -0.3917
   21SAPC   C28 2746   5.241   4.483   9.665 -0.0790  0.5393 -0.3648
   21SAPC   H8R 2747   5.183   4.564   9.619 -0.7588  0.4217  0.2720
   21SAPC   C29 2748   5.334   4.423   9.581  0.3454  0.2666 -0.7714
   21SAPC   H9R 2749   5.331   4.437   9.472 -1.5566 -2.0633 -1.0932
   21SAPC  C210 2750   5.435   4.328   9.631  0.2402  0.6101  0.9010
   21SAPC  H10R 2751   5.477   4.347   9.733  0.6584 -0.8069  1.0078
   21SAPC  H10S 2752   5.531   4.345   9.577  0.9393 -0.0476  1.8995
   21SAPC  C211 2753   5.399   4.181   9.630 -0.3910  0.0704  0.5357
   21SAPC  H11R 2754   5.379   4.141   9.730 -2.8559  0.0413  0.0858
   21SAPC  C212 2755   5.376   4.108   9.519  0.4348  0.3113 -1.5248
   21SAPC  H12R 2756   5.357   4.001   9.534 -0.3385  0.8791  2.5848
   21SAPC  C213 2757   5.393   4.158   9.378  0.3971  0.8467 -0.0066
   21SAPC  H13R 2758   5.450   4.083   9.319  0.1968  0.5639  0.1550
   21SAPC  H13S 2759   5.447   4.254   9.372 -0.4550  1.3200 -0.2418
   21SAPC  C214 2760   5.260   4.178   9.303  0.1969  0.3905  0.3552
   21SAPC  H14R 2761   5.173   4.132   9.352  1.9549 -1.5098  1.8537
   21SAPC  C215 2762   5.247   4.236   9.183  0.2052  0.1678 -0.3796
   21SAPC  H15R 2763   5.153   4.243   9.126  1.8459  1.6807 -3.0975
   21SAPC  C216 2764   5.362   4.294   9.102  0.8149 -0.0596 -0.3636
   21SAPC  H16R 2765   5.460   4.289   9.153  2.2092 -0.9421 -2.9225
   21SAPC  H16S 2766   5.340   4.403   9.096 -0.2889 -0.2107  0.5395
   21SAPC  C217 2767   5.379   4.245   8.957 -0.4239 -0.6031 -0.1411
   21SAPC  H17R 2768   5.404   4.138   8.948  0.6349 -0.3328 -0.5871
   21SAPC  H17S 2769   5.473   4.288   8.916  0.0559 -1.3972  0.1171
   21SAPC  C218 2770   5.255   4.269   8.871  0.3563 -0.8542 -0.4290
   21SAPC  H18R 2771   5.271   4.375   8.842  2.4269 -0.6951  1.0725
   21SAPC  H18S 2772   5.164   4.269   8.935 -0.4093 -0.7009 -1.5086
   21SAPC  C219 2773   5.237   4.192   8.736  0.1902 -0.2410  0.1784
   21SAPC  H19R 2774   5.337   4.203   8.687  0.8871 -0.9457  1.3872
   21SAPC  H19S 2775   5.162   4.248   8.677  1.0179 -0.0427 -0.7208
   21SAPC  C220 2776   5.193   4.047   8.753 -0.4111 -0.0815  0.0834
   21SAPC  H20R 2777   5.246   4.002   8.840 -2.0413  1.2352  1.8623
   21SAPC  H20S 2778   5.196   3.988   8.659 -1.9915  1.1460 -0.8026
   21SAPC  H20T 2779   5.089   4.031   8.786 -0.0610 -3.3923 -0.1281
   21SAPC   C33 2780   5.086   4.881  10.034 -0.1886  0.2691  0.0864
   21SAPC   H3X 2781   5.098   4.775  10.065 -3.5585  0.0954  1.2175
   21SAPC   H3Y 2782   5.176   4.933  10.074 -0.1569  2.2630 -2.2902
   21SAPC   C34 2783   5.101   4.887   9.882 -0.1630  0.3528  0.6611
   21SAPC   H4X 2784   5.015   4.849   9.822 -0.7541  0.6833  1.2911
   21SAPC   H4Y 2785   5.187   4.821   9.861 -1.0629 -1.2131  1.6713
   21SAPC   C35 2786   5.129   5.023   9.829 -0.2923 -0.7168  0.2940
   21SAPC   H5X 2787   5.219   5.065   9.878  0.2231  0.8912 -1.8866
   21SAPC   H5Y 2788   5.040   5.090   9.831  0.0332 -0.2628  2.4075
   21SAPC   C36 2789   5.174   5.013   9.684 -1.1908 -0.5080  0.2924
   21SAPC   H6X 2790   5.088   4.967   9.632 -1.4629  0.2419  0.0757
   21SAPC   H6Y 2791   5.266   4.950   9.680 -0.1732  0.9774 -0.7745
   21SAPC   C37 2792   5.201   5.148   9.611  0.6518 -0.5608 -0.4030
   21SAPC   H7X 2793   5.294   5.184   9.660  0.3786 -2.0150  1.2754
   21SAPC   H7Y 2794   5.112   5.208   9.638 -1.3257 -3.4264 -0.1387
   21SAPC   C38 2795   5.215   5.134   9.459  0.2056 -0.3780  0.0664
   21SAPC   H8X 2796   5.119   5.086   9.428 -1.0708  0.6247  2.2375
   21SAPC   H8Y 2797   5.300   5.067   9.435  0.1928 -0.9941  1.6242
   21SAPC   C39 2798   5.224   5.268   9.394 -0.4792  0.4082 -0.7347
   21SAPC   H9X 2799   5.322   5.310   9.423 -0.7892  1.3343 -0.9960
   21SAPC   H9Y 2800   5.144   5.325   9.447 -0.9836 -1.2608  0.4058
   21SAPC  C310 2801   5.201   5.268   9.246  0.8398 -0.1446  0.2029
   21SAPC  H10X 2802   5.222   5.371   9.210 -2.0680 -0.0897 -1.6963
   21SAPC  H10Y 2803   5.097   5.237   9.222  1.6632 -1.6480 -1.6243
   21SAPC  C311 2804   5.283   5.163   9.171 -0.5264  0.6195 -0.0105
   21SAPC  H11X 2805   5.279   5.061   9.216 -0.3261 -0.9021 -3.1720
   21SAPC  H11Y 2806   5.390   5.193   9.170  0.0965 -1.1364 -3.6475
   21SAPC  C312 2807   5.246   5.145   9.025 -0.8889  0.9783 -0.0818
   21SAPC  H12X 2808   5.268   5.240   8.973  1.7780  1.2691  1.3992
   21SAPC  H12Y 2809   5.145   5.103   9.008 -0.7971  0.8508 -0.3127
   21SAPC  C313 2810   5.339   5.044   8.958 -0.8148  0.2206  0.0084
   21SAPC  H13X 2811   5.353   4.946   9.010 -0.8937  1.0083  1.5581
   21SAPC  H13Y 2812   5.438   5.094   8.964 -0.2086 -0.7835 -1.0679
   21SAPC  C314 2813   5.300   5.026   8.808  0.0841 -0.1556  0.0945
   21SAPC  H14X 2814   5.276   5.129   8.774  3.4220  0.7702  0.1840
   21SAPC  H14Y 2815   5.214   4.958   8.794  0.5068 -1.0697  1.7334
   21SAPC  C315 2816   5.423   4.980   8.719  0.3693  0.2622  0.4988
   21SAPC  H15X 2817   5.455   4.882   8.762  1.5570  0.6009  0.4368
   21SAPC  H15Y 2818   5.506   5.051   8.742  1.2448 -0.4671 -0.3081
   21SAPC  C316 2819   5.399   4.975   8.567  0.6885  0.7145  0.8480
   21SAPC  H16X 2820   5.489   4.925   8.527  0.1676  0.4295  0.0115
   21SAPC  H16Y 2821   5.387   5.077   8.525 -1.9904 -0.9527 -2.9803
   21SAPC  C317 2822   5.286   4.888   8.522 -0.4695  0.3469 -0.4613
   21SAPC  H17X 2823   5.264   4.922   8.419  3.2313  3.6752 -0.4227
   21SAPC  H17Y 2824   5.190   4.894   8.577 -1.5539  0.2960 -2.3034
   21SAPC  C318 2825   5.326   4.742   8.532  0.3157 -0.2955 -0.4686
   21SAPC  H18X 2826   5.416   4.725   8.471 -1.5580 -1.3219 -3.1358
   21SAPC  H18Y 2827   5.241   4.683   8.492 -1.4844  1.0756  1.0756
   21SAPC  H18Z 2828   5.339   4.710   8.638 -0.0243  0.0790 -0.3112
   22SAPC     N 2829   1.983   0.140  10.863  0.6034 -1.1548  0.1853
   22SAPC   C12 2830   2.029   0.178  10.724  0.0768 -0.7994  0.6315
   22SAPC  H12A 2831   2.079   0.273  10.725  0.9573 -1.2403  0.2462
   22SAPC  H12B 2832   1.942   0.196  10.663  0.6815  0.5774  0.1332
   22SAPC   C13 2833   1.897   0.248  10.911  0.5241 -0.5329 -0.0168
   22SAPC  H13A 2834   1.947   0.343  10.924 -2.1027  0.7580  1.5017
   22SAPC  H13B 2835   1.821   0.263  10.835  0.9175  0.0071 -0.3127
   22SAPC  H13C 2836   1.853   0.226  11.007  1.8491  1.0251  1.0174
   22SAPC   C14 2837   1.909   0.011  10.841 -0.8298  0.3454  0.0941
   22SAPC  H14A 2838   1.864  -0.022  10.934  0.1235 -0.4004  0.3069
   22SAPC  H14B 2839   1.827   0.028  10.773 -2.9305  0.5121  2.5131
   22SAPC  H14C 2840   1.979  -0.068  10.817  0.0894  1.3955 -0.7336
   22SAPC   C15 2841   2.096   0.114  10.952 -0.0403 -0.0709 -0.3949
   22SAPC  H15A 2842   2.167   0.194  10.936 -0.5883  0.6419  0.6370
   22SAPC  H15B 2843   2.069   0.108  11.056  2.4152 -2.0966  0.2490
   22SAPC  H15C 2844   2.140   0.018  10.928 -1.1633 -0.7277  0.1237
   22SAPC   C11 2845   2.125   0.083  10.646 -1.1638  0.0372 -0.5340
   22SAPC  H11A 2846   2.136   0.107  10.539  2.5236  0.4832 -0.1904
   22SAPC  H11B 2847   2.074  -0.016  10.647 -1.2542 -0.0212  3.0537
   22SAPC     P 2848   2.351   0.175  10.701  0.0123  0.3820 -0.1074
   22SAPC   O13 2849   2.282   0.288  10.772 -0.4649 -0.0405  0.9373
   22SAPC   O14 2850   2.484   0.129  10.744 -0.1532  0.4167  0.0062
   22SAPC   O12 2851   2.256   0.052  10.702 -0.2482  0.6404  0.8518
   22SAPC   O11 2852   2.378   0.210  10.546  0.2020  0.0429 -0.4746
   22SAPC    C1 2853   2.460   0.323  10.511 -0.6139 -0.3182 -0.4469
   22SAPC    HA 2854   2.429   0.417  10.561  1.5480  0.4243 -0.3915
   22SAPC    HB 2855   2.563   0.310  10.551 -0.7019 -0.6871 -0.3398
   22SAPC    C2 2856   2.463   0.354  10.360  0.5661  0.4015  0.3533
   22SAPC    HS 2857   2.364   0.390  10.323  1.7114  0.2001 -3.3006
   22SAPC   O21 2858   2.508   0.239  10.289 -0.2470 -0.2247  0.2829
   22SAPC   C21 2859   2.464   0.232  10.160  0.1543  0.0489  0.0891
   22SAPC   O22 2860   2.380   0.300  10.110  0.3296 -0.5422 -0.0944
   22SAPC   C22 2861   2.547   0.119  10.094 -0.4061  0.4854 -0.1081
   22SAPC   H2R 2862   2.538   0.030  10.160 -4.2559  0.9567  0.2152
   22SAPC   H2S 2863   2.490   0.088  10.004  0.6667 -3.3248  0.3643
   22SAPC    C3 2864   2.559   0.474  10.334 -0.2727  0.4985 -0.8570
   22SAPC    HX 2865   2.661   0.445  10.367 -0.8388  0.1625  0.6859
   22SAPC    HY 2866   2.542   0.558  10.404  0.4206  0.3681 -0.5247
   22SAPC   O31 2867   2.570   0.520  10.199  0.4310  0.1167  0.0689
   22SAPC   C31 2868   2.468   0.602  10.152 -0.1735  0.5293  0.0371
   22SAPC   O32 2869   2.382   0.653  10.216 -0.4726  0.7053  0.1743
   22SAPC   C32 2870   2.495   0.631  10.004  0.0627 -0.1479  0.4248
   22SAPC   H2X 2871   2.525   0.535   9.956  0.7648  1.4823 -2.7232
   22SAPC   H2Y 2872   2.557   0.721   9.981 -0.6475  0.1028 -0.5923
   22SAPC   C23 2873   2.692   0.162  10.065 -0.2938 -0.0099  0.0406
   22SAPC   H3R 2874   2.758   0.074  10.045  0.1311  0.3187 -0.0037
   22SAPC   H3S 2875   2.737   0.223  10.145 -0.1225 -0.1563  0.0544
   22SAPC   C24 2876   2.701   0.240   9.931 -0.2025  0.3479 -0.2965
   22SAPC   H4R 2877   2.650   0.339   9.927 -0.3805  0.3114 -5.2238
   22SAPC   H4S 2878   2.647   0.192   9.846 -0.0344  2.3656 -1.6108
   22SAPC   C25 2879   2.845   0.282   9.902 -0.1531  0.7503 -0.4041
   22SAPC   H5R 2880   2.889   0.348   9.977  0.6521 -0.2458  0.0306
   22SAPC   C26 2881   2.915   0.260   9.785  0.4385  0.1512 -0.0837
   22SAPC   H6R 2882   3.013   0.307   9.769  0.2998 -0.0488 -1.7128
   22SAPC   C27 2883   2.872   0.173   9.665  0.3465 -0.1294  0.5019
   22SAPC   H7R 2884   2.799   0.097   9.700 -0.4059  0.3444 -0.0167
   22SAPC   H7S 2885   2.957   0.111   9.629 -0.3477 -2.3337  2.4057
   22SAPC   C28 2886   2.796   0.241   9.556  0.1161 -0.6563 -0.3397
   22SAPC   H8R 2887   2.698   0.279   9.586  1.0349  3.0845 -1.5879
   22SAPC   C29 2888   2.842   0.267   9.437  0.7143  0.0441 -0.3487
   22SAPC   H9R 2889   2.775   0.315   9.364  0.3791  1.9862  1.1397
   22SAPC  C210 2890   2.976   0.223   9.394  0.0801  0.1052 -0.9339
   22SAPC  H10R 2891   2.979   0.112   9.390 -3.0844 -0.0279 -1.7586
   22SAPC  H10S 2892   3.054   0.264   9.463 -1.2186  0.8333  0.1423
   22SAPC  C211 2893   3.006   0.271   9.252  0.0172 -0.6677 -0.6901
   22SAPC  H11R 2894   3.044   0.374   9.251  1.7626 -1.2604  0.2615
   22SAPC  C212 2895   2.987   0.207   9.134 -0.3743  0.2695  0.1506
   22SAPC  H12R 2896   3.010   0.264   9.042  0.8388 -2.7228 -1.5323
   22SAPC  C213 2897   2.917   0.075   9.111 -0.7925 -0.1789 -0.2592
   22SAPC  H13R 2898   2.842   0.056   9.191  0.2225 -1.9120  0.3350
   22SAPC  H13S 2899   2.995  -0.004   9.113  0.0174  0.6072  0.5387
   22SAPC  C214 2900   2.838   0.066   8.982 -0.6128  0.0180  0.1021
   22SAPC  H14R 2901   2.730   0.087   8.987 -0.4724  0.6630  0.4295
   22SAPC  C215 2902   2.896   0.058   8.866 -0.7122 -0.2428  0.6410
   22SAPC  H15R 2903   2.833   0.060   8.776 -0.4809  0.7300  0.4875
   22SAPC  C216 2904   3.049   0.051   8.839 -0.1438 -0.3471  0.1493
   22SAPC  H16R 2905   3.110   0.055   8.932 -0.3516  2.5006  0.2607
   22SAPC  H16S 2906   3.083   0.135   8.775  1.0749 -1.4751 -0.7352
   22SAPC  C217 2907   3.096  -0.071   8.758  0.9119  0.4882  1.0458
   22SAPC  H17R 2908   3.082  -0.167   8.812 -0.4166 -0.1255 -0.3167
   22SAPC  H17S 2909   3.205  -0.052   8.747  0.8531  0.7878  0.9873
   22SAPC  C218 2910   3.037  -0.090   8.614  0.0422  0.1580 -0.1117
   22SAPC  H18R 2911   3.031   0.012   8.571  1.7723  1.1366  1.7798
   22SAPC  H18S 2912   2.936  -0.135   8.616  0.4413 -1.0643 -2.8018
   22SAPC  C219 2913   3.127  -0.180   8.527 -0.6267 -0.0859 -0.1727
   22SAPC  H19R 2914   3.232  -0.168   8.560 -0.3441  2.2080 -1.7366
   22SAPC  H19S 2915   3.133  -0.155   8.419  0.7901  0.9863  0.1364
   22SAPC  C220 2916   3.086  -0.321   8.559  0.3181  0.3821  0.1475
   22SAPC  H20R 2917   3.178  -0.383   8.546  0.8256  1.4370 -1.8686
   22SAPC  H20S 2918   3.006  -0.347   8.487 -1.7491  2.7881  1.4389
   22SAPC  H20T 2919   3.048  -0.339   8.661 -2.8092 -0.6910 -1.0848
   22SAPC   C33 2920   2.359   0.671   9.933 -0.5574  0.5644 -0.6916
   22SAPC   H3X 2921   2.299   0.737   9.999 -0.9666 -2.6509  2.4858
   22SAPC   H3Y 2922   2.300   0.580   9.908  1.8368 -1.3100  0.0873
   22SAPC   C34 2923   2.390   0.733   9.790  0.5423 -0.5973  0.1529
   22SAPC   H4X 2924   2.455   0.823   9.793 -1.6617  1.1473 -1.2971
   22SAPC   H4Y 2925   2.297   0.782   9.756  1.1200  1.4476  1.3251
   22SAPC   C35 2926   2.449   0.631   9.703  1.1951 -0.0570  0.0977
   22SAPC   H5X 2927   2.407   0.529   9.713  1.4747 -0.0893  0.9714
   22SAPC   H5Y 2928   2.554   0.616   9.735  0.8790 -0.4502  0.9667
   22SAPC   C36 2929   2.434   0.671   9.556 -0.5117 -0.5504  0.6161
   22SAPC   H6X 2930   2.481   0.769   9.533  2.1901 -2.1783 -1.3366
   22SAPC   H6Y 2931   2.328   0.689   9.529 -0.6566 -2.0515  0.0578
   22SAPC   C37 2932   2.509   0.576   9.461  0.6912  0.2559  0.0906
   22SAPC   H7X 2933   2.448   0.485   9.442 -2.2946  1.5295  2.6062
   22SAPC   H7Y 2934   2.605   0.546   9.508  0.4929 -0.7236 -0.1002
   22SAPC   C38 2935   2.555   0.648   9.337  0.5423  0.0902 -0.7263
   22SAPC   H8X 2936   2.616   0.737   9.362 -0.5312  0.4372  0.8588
   22SAPC   H8Y 2937   2.465   0.679   9.280  0.1802  0.3724 -0.0138
   22SAPC   C39 2938   2.633   0.544   9.262 -0.4087 -0.3631 -0.3207
   22SAPC   H9X 2939   2.717   0.511   9.327  0.3680  1.8430 -0.1050
   22SAPC   H9Y 2940   2.691   0.595   9.182  0.6264 -0.3465  0.4211
   22SAPC  C310 2941   2.557   0.433   9.186 -0.4608 -0.3733 -0.1486
   22SAPC  H10X 2942   2.523   0.351   9.253  0.5743 -1.9133 -1.4339
   22SAPC  H10Y 2943   2.638   0.394   9.120 -0.6584  1.1794 -1.3540
   22SAPC  C311 2944   2.443   0.484   9.099  1.0718 -0.3724  0.1385
   22SAPC  H11X 2945   2.421   0.592   9.111  0.1401 -0.4454 -0.8009
   22SAPC  H11Y 2946   2.349   0.432   9.131 -0.2738  0.3746 -2.3697
   22SAPC  C312 2947   2.465   0.470   8.949  0.2283  0.5254 -0.1003
   22SAPC  H12X 2948   2.434   0.366   8.924  0.0028  0.4116  0.6155
   22SAPC  H12Y 2949   2.574   0.486   8.931  0.4648 -1.0342 -0.2159
   22SAPC  C313 2950   2.384   0.585   8.873 -0.1609  0.4328 -1.1298
   22SAPC  H13X 2951   2.431   0.598   8.774  2.5725  2.4895  0.2925
   22SAPC  H13Y 2952   2.406   0.683   8.920  2.0510 -1.0047  1.1278
   22SAPC  C314 2953   2.232   0.561   8.886  0.0693 -0.1699  0.0795
   22SAPC  H14X 2954   2.176   0.645   8.841 -1.6243 -0.8638  0.8090
   22SAPC  H14Y 2955   2.196   0.559   8.991 -2.1661  0.2761 -0.6220
   22SAPC  C315 2956   2.157   0.442   8.820  0.3143  0.2111 -0.7470
   22SAPC  H15X 2957   2.052   0.420   8.848  1.1642  0.2861  3.0219
   22SAPC  H15Y 2958   2.214   0.356   8.862 -0.9914  0.1147  0.9321
   22SAPC  C316 2959   2.184   0.433   8.671 -0.4857  0.4921  1.0882
   22SAPC  H16X 2960   2.164   0.332   8.630  1.4458  0.2581  0.5894
   22SAPC  H16Y 2961   2.286   0.471   8.649 -0.2487 -0.2836  0.8138
   22SAPC  C317 2962   2.102   0.535   8.591  0.1106 -0.0641 -0.0235
   22SAPC  H17X 2963   2.142   0.637   8.611  0.5504 -0.5013  1.4734
   22SAPC  H17Y 2964   2.001   0.535   8.638  1.1583  1.7944  2.4790
   22SAPC  C318 2965   2.098   0.495   8.441  0.2438  0.1359 -0.0174
   22SAPC  H18X 2966   2.047   0.568   8.374 -2.5153 -0.5231  1.2380
   22SAPC  H18Y 2967   2.046   0.397   8.428 -0.1167  0.3976 -0.6212
   22SAPC  H18Z 2968   2.201   0.487   8.401 -0.4486  0.0239 -1.8875
   23SAPC     N 2969   1.197   2.205  10.920 -0.7083  0.2960  0.1583
   23SAPC   C12 2970   1.087   2.300  10.962  0.6896  0.2350  0.0564
   23SAPC  H12A 2971   0.997   2.257  11.004  0.8959  0.5155  0.7994
   23SAPC  H12B 2972   1.050   2.341  10.870  1.6680 -1.4608 -1.1691
   23SAPC   C13 2973   1.316   2.283  10.870 -0.2251 -0.0652  0.1359
   23SAPC  H13A 2974   1.306   2.294  10.763  0.8333 -1.5265 -0.1421
   23SAPC  H13B 2975   1.329   2.374  10.928  1.3837 -0.0848 -0.1452
   23SAPC  H13C 2976   1.407   2.226  10.879 -2.0817 -3.3076  0.0729
   23SAPC   C14 2977   1.248   2.131  11.040  0.6581  0.1205 -0.3772
   23SAPC  H14A 2978   1.340   2.078  11.025  1.9737  2.1421  0.0763
   23SAPC  H14B 2979   1.274   2.197  11.121 -0.9229  0.6544 -0.2649
   23SAPC  H14C 2980   1.178   2.064  11.088 -0.3773 -0.0738 -2.0526
   23SAPC   C15 2981   1.156   2.104  10.814  0.2019  0.7360 -0.2437
   23SAPC  H15A 2982   1.115   2.150  10.725  0.3925 -1.6517 -1.6551
   23SAPC  H15B 2983   1.238   2.047  10.773  0.5565  1.3683 -0.4221
   23SAPC  H15C 2984   1.078   2.038  10.851  1.0369 -0.2845 -0.2504
   23SAPC   C11 2985   1.116   2.424  11.050 -0.3634  0.0553  0.4457
   23SAPC  H11A 2986   1.165   2.400  11.147  2.1051  1.6635 -0.2981
   23SAPC  H11B 2987   1.015   2.462  11.077 -1.4322 -0.2052 -2.8130
   23SAPC     P 2988   1.136   2.618  10.882 -0.2589 -0.7645  0.1424
   23SAPC   O13 2989   1.038   2.547  10.795  0.1852 -0.3995  0.0159
   23SAPC   O14 2990   1.082   2.738  10.951  0.6297  0.3582 -0.0319
   23SAPC   O12 2991   1.202   2.527  10.996  0.1757 -0.1366 -0.0359
   23SAPC   O11 2992   1.270   2.666  10.804 -0.5499  0.3369  0.1057
   23SAPC    C1 2993   1.338   2.580  10.699  0.8555  0.2020  0.2683
   23SAPC    HA 2994   1.400   2.503  10.749 -1.8418 -1.8782  0.6584
   23SAPC    HB 2995   1.260   2.517  10.651  1.5815  1.5185 -2.9748
   23SAPC    C2 2996   1.394   2.656  10.580 -0.5429 -0.1687 -0.1855
   23SAPC    HS 2997   1.449   2.581  10.519  0.4898 -1.3560  2.1075
   23SAPC   O21 2998   1.486   2.762  10.622  0.4006 -0.6750  0.4184
   23SAPC   C21 2999   1.601   2.717  10.669 -0.0440 -0.5970 -0.2480
   23SAPC   O22 3000   1.630   2.598  10.680  0.3993  0.0128 -0.2997
   23SAPC   C22 3001   1.687   2.837  10.720 -0.5217  0.2821  0.0891
   23SAPC   H2R 3002   1.633   2.932  10.703 -0.4908  0.2500 -0.2039
   23SAPC   H2S 3003   1.692   2.818  10.829 -1.6620 -0.1973  0.0798
   23SAPC    C3 3004   1.284   2.723  10.490  0.5427 -0.8168  0.8755
   23SAPC    HX 3005   1.213   2.780  10.554  1.2853  3.0353 -1.3999
   23SAPC    HY 3006   1.232   2.649  10.426  0.4120 -0.4977  0.6065
   23SAPC   O31 3007   1.337   2.830  10.399  0.6537  0.7469  0.3787
   23SAPC   C31 3008   1.414   2.782  10.297  0.1872  0.3346 -0.3388
   23SAPC   O32 3009   1.445   2.666  10.278  0.2313  0.5283  0.0248
   23SAPC   C32 3010   1.480   2.892  10.216  0.2458  0.6331  0.1512
   23SAPC   H2X 3011   1.566   2.857  10.156  0.2827 -0.1806  0.6588
   23SAPC   H2Y 3012   1.518   2.960  10.296  2.6609 -1.0667  0.5717
   23SAPC   C23 3013   1.829   2.834  10.667 -0.0376  0.1139  0.4222
   23SAPC   H3R 3014   1.876   2.736  10.692 -0.0566 -0.1994 -0.7355
   23SAPC   H3S 3015   1.886   2.914  10.720 -1.9486  1.4187  0.5980
   23SAPC   C24 3016   1.835   2.872  10.514  0.0866 -0.5024  0.0471
   23SAPC   H4R 3017   1.747   2.933  10.483 -0.2373 -1.8043 -1.7641
   23SAPC   H4S 3018   1.831   2.773  10.465  0.6499 -1.1438  1.2533
   23SAPC   C25 3019   1.964   2.927  10.465  0.0891  1.3126  0.5482
   23SAPC   H5R 3020   2.024   2.966  10.550  0.5583  0.3958  0.6454
   23SAPC   C26 3021   1.996   2.965  10.337 -0.5810  0.7673  0.1971
   23SAPC   H6R 3022   2.095   3.008  10.317  1.2666 -2.8490  0.8280
   23SAPC   C27 3023   1.901   2.940  10.225  0.7334  0.2067  0.5548
   23SAPC   H7R 3024   1.820   3.017  10.219  3.0982  2.7385 -1.2555
   23SAPC   H7S 3025   1.867   2.834  10.224 -0.1860  0.4487 -2.3279
   23SAPC   C28 3026   1.979   2.945  10.095 -0.2427 -0.6787 -0.2478
   23SAPC   H8R 3027   2.088   2.928  10.104 -0.2802 -2.9584 -2.9130
   23SAPC   C29 3028   1.922   2.948   9.971 -0.5639  0.1325 -0.7610
   23SAPC   H9R 3029   1.980   2.945   9.877 -3.0235  2.3406 -2.5076
   23SAPC  C210 3030   1.774   2.932   9.942  0.2308  0.5411 -0.4141
   23SAPC  H10R 3031   1.748   2.999   9.857  0.0085 -1.0140 -1.6112
   23SAPC  H10S 3032   1.718   2.964  10.033  1.7172  0.3231  0.6050
   23SAPC  C211 3033   1.731   2.790   9.905 -0.7026 -0.2830  0.2690
   23SAPC  H11R 3034   1.722   2.721   9.991  1.9965 -1.0658  0.0405
   23SAPC  C212 3035   1.719   2.735   9.782  0.2201 -0.4717  0.1793
   23SAPC  H12R 3036   1.686   2.630   9.779 -1.2242 -0.0155 -0.7716
   23SAPC  C213 3037   1.732   2.795   9.642  0.1460 -0.2994  0.5527
   23SAPC  H13R 3038   1.807   2.742   9.579  0.2828 -1.5045  1.6945
   23SAPC  H13S 3039   1.768   2.900   9.646 -0.8073  0.0945 -0.4413
   23SAPC  C214 3040   1.595   2.812   9.566  0.1490  0.0170  0.2160
   23SAPC  H14R 3041   1.502   2.819   9.624  0.6909  2.8180  0.8768
   23SAPC  C215 3042   1.584   2.823   9.436 -0.2038 -0.2017 -0.3024
   23SAPC  H15R 3043   1.486   2.828   9.388 -0.9393 -0.3638  1.1343
   23SAPC  C216 3044   1.699   2.828   9.331  0.2156  0.5230  0.3094
   23SAPC  H16R 3045   1.798   2.834   9.382  1.0206  0.0220 -1.1365
   23SAPC  H16S 3046   1.697   2.921   9.272 -0.8926 -0.8776 -1.9940
   23SAPC  C217 3047   1.683   2.703   9.241  0.0980  0.2682  0.0907
   23SAPC  H17R 3048   1.680   2.602   9.288  0.7863 -0.4818 -1.4138
   23SAPC  H17S 3049   1.766   2.705   9.167 -0.7886 -0.0383 -0.9379
   23SAPC  C218 3050   1.552   2.713   9.155  0.2817  0.5539  0.2210
   23SAPC  H18R 3051   1.530   2.813   9.114 -1.7567 -0.1487 -0.5294
   23SAPC  H18S 3052   1.460   2.682   9.210  0.8350 -1.0332  0.2966
   23SAPC  C219 3053   1.557   2.634   9.028  0.4044  0.4436  0.1018
   23SAPC  H19R 3054   1.572   2.526   9.052 -0.4232  0.1412 -0.6798
   23SAPC  H19S 3055   1.647   2.663   8.970  0.5872 -0.6497 -0.1860
   23SAPC  C220 3056   1.421   2.649   8.958  0.0172 -0.4688 -0.2541
   23SAPC  H20R 3057   1.385   2.754   8.957 -3.4067 -1.5189 -0.3998
   23SAPC  H20S 3058   1.343   2.594   9.016  0.8179  1.4281  2.8352
   23SAPC  H20T 3059   1.440   2.621   8.852  1.2125 -1.9940  0.3205
   23SAPC   C33 3060   1.380   2.969  10.130 -0.0971 -0.9540  0.4439
   23SAPC   H3X 3061   1.432   3.051  10.075  0.4768 -2.0587 -0.7095
   23SAPC   H3Y 3062   1.302   3.008  10.199 -1.1060  1.4400 -1.8444
   23SAPC   C34 3063   1.311   2.886  10.026  0.4269  0.0143  0.0627
   23SAPC   H4X 3064   1.255   2.800  10.068  0.4212 -0.1665 -0.3129
   23SAPC   H4Y 3065   1.389   2.847   9.958 -0.5725 -0.5317 -0.8009
   23SAPC   C35 3066   1.209   2.981   9.944  0.1213  0.5994  0.2586
   23SAPC   H5X 3067   1.266   3.048   9.876 -2.9529  0.6106 -2.5481
   23SAPC   H5Y 3068   1.154   3.050  10.011 -2.9161  1.2300 -2.6057
   23SAPC   C36 3069   1.109   2.905   9.859  0.4315 -0.1831 -0.2869
   23SAPC   H6X 3070   1.046   2.978   9.805  1.2062  0.3746 -0.4518
   23SAPC   H6Y 3071   1.041   2.839   9.916  0.1155  0.2510 -0.1580
   23SAPC   C37 3072   1.167   2.826   9.745 -0.7260  0.2844 -0.1666
   23SAPC   H7X 3073   1.195   2.726   9.785  0.0473  0.8501  0.7699
   23SAPC   H7Y 3074   1.262   2.880   9.721  0.2476 -0.6315  1.4198
   23SAPC   C38 3075   1.072   2.818   9.627 -0.4625 -0.0476 -0.0228
   23SAPC   H8X 3076   1.048   2.925   9.609  1.5078  0.2681 -0.9770
   23SAPC   H8Y 3077   0.981   2.763   9.661 -2.6408  1.8715 -2.3658
   23SAPC   C39 3078   1.130   2.751   9.500  0.1120  0.3972  1.1861
   23SAPC   H9X 3079   1.135   2.642   9.518 -2.1129 -0.2113 -1.2713
   23SAPC   H9Y 3080   1.223   2.803   9.468 -0.4536  1.1121  0.6562
   23SAPC  C310 3081   1.033   2.757   9.380 -0.5153 -0.1609 -0.8606
   23SAPC  H10X 3082   1.013   2.862   9.349 -2.2308 -0.1540  0.1685
   23SAPC  H10Y 3083   0.942   2.709   9.421 -1.6948  2.5917 -0.0502
   23SAPC  C311 3084   1.079   2.684   9.249 -0.6454 -0.4075 -0.4236
   23SAPC  H11X 3085   1.058   2.575   9.259  0.3156 -0.3823  3.2947
   23SAPC  H11Y 3086   1.189   2.700   9.244 -0.0820 -3.5106 -0.1008
   23SAPC  C312 3087   1.010   2.725   9.116  0.2269  0.1490  0.7783
   23SAPC  H12X 3088   1.040   2.829   9.090 -3.0980  0.7990 -1.0789
   23SAPC  H12Y 3089   0.901   2.726   9.140 -0.0152  2.9820 -0.0112
   23SAPC  C313 3090   1.038   2.638   8.995  0.3523 -0.5494 -0.2319
   23SAPC  H13X 3091   1.147   2.624   8.980  0.5393  2.0639 -2.2043
   23SAPC  H13Y 3092   1.006   2.694   8.904  2.3263  0.6815 -0.2272
   23SAPC  C314 3093   0.957   2.508   9.011  0.0969 -0.1907  0.3626
   23SAPC  H14X 3094   0.855   2.538   9.041  1.0941  3.1040  0.9428
   23SAPC  H14Y 3095   1.004   2.456   9.097  1.8087 -2.3335 -1.7220
   23SAPC  C315 3096   0.975   2.432   8.879 -0.1973  0.3100  0.4216
   23SAPC  H15X 3097   1.082   2.406   8.865 -0.7084 -1.4008 -0.6833
   23SAPC  H15Y 3098   0.948   2.500   8.795  2.6494 -0.4003 -1.1819
   23SAPC  C316 3099   0.892   2.303   8.867  0.2899 -0.0928 -0.1531
   23SAPC  H16X 3100   0.785   2.328   8.884  0.8548  1.5637  1.3297
   23SAPC  H16Y 3101   0.927   2.234   8.947 -1.3978 -3.1867 -1.9083
   23SAPC  C317 3102   0.911   2.225   8.729 -0.0004 -0.1049 -0.1219
   23SAPC  H17X 3103   0.884   2.118   8.742  1.1271 -0.3109  0.6895
   23SAPC  H17Y 3104   1.022   2.224   8.717  0.2886  0.7615  2.0061
   23SAPC  C318 3105   0.849   2.293   8.611  0.0626  0.2191  0.4451
   23SAPC  H18X 3106   0.739   2.279   8.616  0.1876 -0.7507  0.7403
   23SAPC  H18Y 3107   0.893   2.263   8.513  1.4652  1.5378  0.6470
   23SAPC  H18Z 3108   0.856   2.404   8.610  1.5611  0.1671  1.5594
   24SAPC     N 3109   3.618   3.945  11.445  0.0494 -0.2273  0.4358
   24SAPC   C12 3110   3.681   4.006  11.321 -0.6098 -0.2517 -0.8864
   24SAPC  H12A 3111   3.696   4.112  11.336  1.5214 -0.4576 -1.2859
   24SAPC  H12B 3112   3.618   3.994  11.235 -2.3602 -0.4292  0.3636
   24SAPC   C13 3113   3.493   4.018  11.479 -0.3403 -0.4822 -0.1694
   24SAPC  H13A 3114   3.430   4.027  11.392 -1.5870 -0.3742  0.7238
   24SAPC  H13B 3115   3.449   3.973  11.567  0.1307 -1.7666 -0.5671
   24SAPC  H13C 3116   3.516   4.118  11.514 -0.2951  0.3312 -2.3701
   24SAPC   C14 3117   3.583   3.807  11.406  0.2339  0.3035 -0.4211
   24SAPC  H14A 3118   3.669   3.755  11.366 -0.7264 -1.1514 -0.6901
   24SAPC  H14B 3119   3.524   3.748  11.476  1.9436  1.8094  2.4749
   24SAPC  H14C 3120   3.516   3.820  11.322 -0.7151  1.4504  0.4762
   24SAPC   C15 3121   3.707   3.941  11.565  0.3429  0.3285 -0.6969
   24SAPC  H15A 3122   3.792   3.877  11.545  2.8871  2.9594  0.9559
   24SAPC  H15B 3123   3.753   4.035  11.591  0.5569  0.4926 -1.6101
   24SAPC  H15C 3124   3.659   3.910  11.656  2.2915 -0.3960  0.1392
   24SAPC   C11 3125   3.823   3.963  11.291  0.0996 -0.2351 -0.3432
   24SAPC  H11A 3126   3.880   3.942  11.383  1.3143 -3.4033 -1.6776
   24SAPC  H11B 3127   3.866   4.051  11.238  1.3253 -0.6547 -0.0631
   24SAPC     P 3128   3.775   3.829  11.072  0.2376 -0.2565 -0.1544
   24SAPC   O13 3129   3.739   3.692  11.044  0.0649 -0.1484 -0.4568
   24SAPC   O14 3130   3.677   3.936  11.043 -0.3517  0.1216  0.4787
   24SAPC   O12 3131   3.818   3.840  11.222  0.1208 -0.1401 -0.3763
   24SAPC   O11 3132   3.909   3.864  11.011  0.3921 -0.1256  0.5725
   24SAPC    C1 3133   3.946   3.995  10.973  0.6638  0.6257  0.8827
   24SAPC    HA 3134   3.905   4.081  11.031 -1.1104  1.0511 -0.9124
   24SAPC    HB 3135   4.057   3.994  10.973  0.6634  0.4711  0.8018
   24SAPC    C2 3136   3.898   4.032  10.831 -0.0728  0.7761  0.4132
   24SAPC    HS 3137   3.794   4.071  10.827  0.0196  0.9306 -0.6416
   24SAPC   O21 3138   3.905   3.914  10.747 -0.0147  0.2067 -1.0867
   24SAPC   C21 3139   3.823   3.905  10.643 -0.9191  0.0724 -0.4741
   24SAPC   O22 3140   3.744   3.985  10.599  0.2498  0.8315 -0.5696
   24SAPC   C22 3141   3.847   3.765  10.576 -0.0017 -0.2392 -0.4990
   24SAPC   H2R 3142   3.955   3.740  10.578 -0.0629 -0.5772 -1.2255
   24SAPC   H2S 3143   3.794   3.691  10.640 -0.8655  0.8767  0.1212
   24SAPC    C3 3144   3.988   4.147  10.774 -0.3994 -0.4077 -0.5501
   24SAPC    HX 3145   4.092   4.110  10.788 -0.6292 -1.3623 -1.2681
   24SAPC    HY 3146   3.979   4.238  10.837  3.1174 -0.8457  0.8433
   24SAPC   O31 3147   3.955   4.177  10.637 -0.1079 -0.2490 -0.6148
   24SAPC   C31 3148   4.052   4.221  10.553  0.3047 -0.4198 -0.3550
   24SAPC   O32 3149   4.169   4.216  10.579  0.4305 -0.0655 -0.0630
   24SAPC   C32 3150   3.995   4.299  10.434 -0.7187 -0.3865 -0.6381
   24SAPC   H2X 3151   4.043   4.399  10.439 -4.0759  1.4289 -1.6055
   24SAPC   H2Y 3152   3.885   4.304  10.448 -0.4019 -0.1336  2.4261
   24SAPC   C23 3153   3.822   3.764  10.428  0.2708  0.3261 -0.0976
   24SAPC   H3R 3154   3.863   3.853  10.377 -0.5354  1.8412  1.7778
   24SAPC   H3S 3155   3.712   3.767  10.415  0.5269  0.2601 -2.7803
   24SAPC   C24 3156   3.877   3.646  10.350  0.1270  0.1860 -0.3970
   24SAPC   H4R 3157   3.979   3.629  10.390  0.2311  0.1325 -0.6792
   24SAPC   H4S 3158   3.901   3.687  10.249  2.5832  2.1132  0.8552
   24SAPC   C25 3159   3.795   3.524  10.360  0.1156 -0.7646  0.3413
   24SAPC   H5R 3160   3.797   3.477  10.460 -0.9808 -0.9139  0.3065
   24SAPC   C26 3161   3.723   3.465  10.267  0.2131  0.0272  1.1758
   24SAPC   H6R 3162   3.672   3.370  10.286  0.6214 -0.2851  0.7292
   24SAPC   C27 3163   3.704   3.512  10.122 -0.4437  0.1141  0.7208
   24SAPC   H7R 3164   3.657   3.431  10.062  1.4290 -0.4883 -0.0300
   24SAPC   H7S 3165   3.804   3.515  10.074 -0.5092 -0.1185  0.5636
   24SAPC   C28 3166   3.635   3.641  10.095  0.7987 -0.5552 -0.3936
   24SAPC   H8R 3167   3.623   3.703  10.184 -0.1324  0.1389 -0.9932
   24SAPC   C29 3168   3.597   3.679   9.973 -0.1710 -0.0295  0.2418
   24SAPC   H9R 3169   3.559   3.782   9.960 -0.1795  0.0851  1.1028
   24SAPC  C210 3170   3.603   3.587   9.852  0.8647  0.7790  0.2062
   24SAPC  H10R 3171   3.527   3.628   9.783  0.1359 -1.2989 -0.2787
   24SAPC  H10S 3172   3.563   3.485   9.871 -1.4373  1.1792 -1.9837
   24SAPC  C211 3173   3.735   3.576   9.781  0.3964  0.1476 -0.1227
   24SAPC  H11R 3174   3.820   3.570   9.851 -0.5623  1.9809  1.3085
   24SAPC  C212 3175   3.767   3.582   9.655 -0.2608  0.8335 -0.0858
   24SAPC  H12R 3176   3.873   3.582   9.625 -0.2037 -3.8683 -0.6232
   24SAPC  C213 3177   3.674   3.611   9.541 -0.8600  0.3296  0.4635
   24SAPC  H13R 3178   3.730   3.660   9.458  2.0598  0.2739  2.2326
   24SAPC  H13S 3179   3.601   3.691   9.566  0.3132  2.5878 -2.6194
   24SAPC  C214 3180   3.587   3.489   9.499 -0.1191 -0.4684  0.2344
   24SAPC  H14R 3181   3.593   3.399   9.562  2.5818 -1.7766 -1.6763
   24SAPC  C215 3182   3.501   3.481   9.400 -0.1316 -0.3716 -0.2107
   24SAPC  H15R 3183   3.445   3.388   9.379 -0.2656 -0.1286 -0.9893
   24SAPC  C216 3184   3.476   3.597   9.304 -0.6440  0.1518 -0.1674
   24SAPC  H16R 3185   3.541   3.591   9.214 -0.4667  2.5964 -0.2616
   24SAPC  H16S 3186   3.486   3.697   9.352 -1.5067 -0.0096  0.3720
   24SAPC  C217 3187   3.327   3.597   9.267 -0.5283  0.0834  0.8038
   24SAPC  H17R 3188   3.307   3.502   9.215 -0.3546 -0.0143  0.9153
   24SAPC  H17S 3189   3.301   3.678   9.195  1.1360 -0.9135 -1.0050
   24SAPC  C218 3190   3.232   3.614   9.390 -0.3288  0.2446 -0.1238
   24SAPC  H18R 3191   3.251   3.709   9.445 -0.9324 -0.2581  0.9642
   24SAPC  H18S 3192   3.258   3.538   9.466 -0.1884  0.8328  0.4199
   24SAPC  C219 3193   3.090   3.605   9.339 -0.4722  0.0594 -0.8210
   24SAPC  H19R 3194   3.077   3.654   9.241  0.1675 -1.3770 -1.6587
   24SAPC  H19S 3195   3.022   3.657   9.410  2.1607 -0.5352  2.3874
   24SAPC  C220 3196   3.048   3.459   9.329  0.6077 -0.7438  0.2020
   24SAPC  H20R 3197   3.015   3.438   9.433  0.0702  2.2333  0.7075
   24SAPC  H20S 3198   3.131   3.390   9.303  0.5336 -0.5186 -0.6530
   24SAPC  H20T 3199   2.955   3.442   9.270 -0.1870 -0.2837  1.2806
   24SAPC   C33 3200   4.044   4.227  10.305  0.7383  0.1142 -0.3683
   24SAPC   H3X 3201   4.154   4.217  10.298  0.6014 -1.0029 -1.0901
   24SAPC   H3Y 3202   4.002   4.294  10.226  0.2142  0.9605  0.5956
   24SAPC   C34 3203   3.971   4.094  10.273 -0.6999  0.3831  0.4439
   24SAPC   H4X 3204   3.861   4.098  10.287 -0.7106  0.4716  0.3395
   24SAPC   H4Y 3205   4.003   4.011  10.340 -1.7133 -2.5861 -2.4607
   24SAPC   C35 3206   4.014   4.044  10.136 -0.3103 -0.3020 -0.5149
   24SAPC   H5X 3207   4.124   4.055  10.122  0.0908  1.4467  3.0291
   24SAPC   H5Y 3208   3.972   4.085  10.041  2.1049  1.3885 -0.9523
   24SAPC   C36 3209   3.995   3.888  10.135 -0.2564  0.6383 -0.6017
   24SAPC   H6X 3210   3.889   3.854  10.136 -0.0625 -0.1436 -2.5784
   24SAPC   H6Y 3211   4.056   3.841  10.215  1.0371 -0.3548 -2.1070
   24SAPC   C37 3212   4.072   3.829  10.016  0.6826 -0.5036 -0.2386
   24SAPC   H7X 3213   4.064   3.720  10.037 -2.1198 -0.3610 -0.1221
   24SAPC   H7Y 3214   4.180   3.847  10.030  0.5018 -0.4039  1.1564
   24SAPC   C38 3215   4.007   3.858   9.887 -0.0938  0.2968 -0.0620
   24SAPC   H8X 3216   3.984   3.966   9.873 -1.4184  0.0210 -0.1922
   24SAPC   H8Y 3217   3.908   3.808   9.873 -0.4126  0.9112 -0.0369
   24SAPC   C39 3218   4.092   3.804   9.770  0.4982  0.5085  0.0247
   24SAPC   H9X 3219   4.110   3.697   9.794  1.2593 -0.6244 -4.6053
   24SAPC   H9Y 3220   4.190   3.857   9.773  0.7583  0.0408 -0.0922
   24SAPC  C310 3221   4.023   3.817   9.627 -0.1108 -0.1044 -0.6157
   24SAPC  H10X 3222   4.009   3.924   9.601 -1.4324 -0.3582 -1.0146
   24SAPC  H10Y 3223   3.918   3.782   9.632 -0.5281  1.0464 -1.0431
   24SAPC  C311 3224   4.100   3.760   9.512 -0.5514  0.3686  0.1008
   24SAPC  H11X 3225   4.089   3.649   9.522 -1.9924  0.3859 -0.9766
   24SAPC  H11Y 3226   4.208   3.784   9.524 -0.3492 -0.3495 -0.1713
   24SAPC  C312 3227   4.048   3.807   9.381  0.6363 -0.4813  0.6200
   24SAPC  H12X 3228   4.040   3.918   9.370 -0.1307 -0.6472 -0.7360
   24SAPC  H12Y 3229   3.943   3.772   9.373 -0.2179  1.6299  1.7036
   24SAPC  C313 3230   4.133   3.755   9.260 -0.2944 -0.4464  0.5221
   24SAPC  H13X 3231   4.120   3.645   9.249 -0.1714 -0.2412 -2.6380
   24SAPC  H13Y 3232   4.244   3.761   9.265 -0.2087  1.1423 -1.7305
   24SAPC  C314 3233   4.081   3.832   9.129 -0.1822  0.1099 -1.0137
   24SAPC  H14X 3234   4.127   3.932   9.116  0.1193  0.0982 -0.1208
   24SAPC  H14Y 3235   3.971   3.848   9.131 -0.2765 -0.5382 -0.3741
   24SAPC  C315 3236   4.134   3.735   9.020  0.6945 -1.2114  0.7596
   24SAPC  H15X 3237   4.114   3.627   9.035  0.9332 -1.4572 -0.5245
   24SAPC  H15Y 3238   4.244   3.752   9.011  0.4852  2.0257  2.7243
   24SAPC  C316 3239   4.058   3.773   8.895 -0.5372  0.2672  0.5940
   24SAPC  H16X 3240   3.950   3.753   8.910 -0.5407 -0.5072 -0.3572
   24SAPC  H16Y 3241   4.097   3.717   8.807 -1.2343  2.1012 -0.9475
   24SAPC  C317 3242   4.094   3.915   8.838  0.4850 -0.1053  0.0643
   24SAPC  H17X 3243   4.203   3.932   8.820  0.3261  0.4013 -0.4179
   24SAPC  H17Y 3244   4.043   3.994   8.898 -3.3739 -1.7874 -0.7127
   24SAPC  C318 3245   4.029   3.930   8.698 -0.1653  0.0773  0.3319
   24SAPC  H18X 3246   4.043   4.031   8.653 -0.3039 -0.3537 -0.7137
   24SAPC  H18Y 3247   3.919   3.913   8.703 -0.2400  0.2021 -0.7228
   24SAPC  H18Z 3248   4.074   3.852   8.632 -1.3937 -0.9905  0.7005
   25SAPC     N 3249   5.390   3.550   5.947  0.1800  0.2063  0.3827
   25SAPC   C12 3250   5.301   3.634   6.042  0.3587  0.6392 -0.6137
   25SAPC  H12A 3251   5.380   3.689   6.091 -0.6646  2.8129 -1.2542
   25SAPC  H12B 3252   5.257   3.557   6.104  2.5567 -1.2123 -1.2413
   25SAPC   C13 3253   5.491   3.475   6.030  0.2135  0.2852 -0.0138
   25SAPC  H13A 3254   5.438   3.443   6.119 -0.4999 -0.6959 -0.7632
   25SAPC  H13B 3255   5.529   3.385   5.984 -0.1908  1.1663 -2.1761
   25SAPC  H13C 3256   5.571   3.543   6.054  2.0411 -1.4346 -0.9644
   25SAPC   C14 3257   5.300   3.452   5.879  0.0381  0.7125  0.2586
   25SAPC  H14A 3258   5.248   3.396   5.955  1.0742 -0.2805  0.2780
   25SAPC  H14B 3259   5.230   3.499   5.813  1.2836 -1.3434 -2.7771
   25SAPC  H14C 3260   5.365   3.389   5.819  1.2781  1.1442  1.1076
   25SAPC   C15 3261   5.461   3.634   5.845  0.3242 -0.4109  0.1338
   25SAPC  H15A 3262   5.535   3.583   5.785  1.8603  0.6135  1.0987
   25SAPC  H15B 3263   5.386   3.690   5.790  1.5536  2.3205  1.1274
   25SAPC  H15C 3264   5.523   3.707   5.893  1.5601 -2.1045  1.2196
   25SAPC   C11 3265   5.198   3.742   6.001 -0.3295 -0.4815  0.3160
   25SAPC  H11A 3266   5.167   3.784   6.099 -2.1476  0.2124 -0.5225
   25SAPC  H11B 3267   5.100   3.710   5.960 -0.0459  1.3165 -1.9786
   25SAPC     P 3268   5.211   3.994   5.926  0.3745 -0.2791 -0.0677
   25SAPC   O13 3269   5.311   4.087   5.860  0.2966  0.2384  0.0781
   25SAPC   O14 3270   5.080   4.005   5.862 -0.1548  0.1188  1.3191
   25SAPC   O12 3271   5.255   3.841   5.909 -0.1469 -0.5833  0.0074
   25SAPC   O11 3272   5.194   4.014   6.079 -0.0027 -1.0026 -0.4521
   25SAPC    C1 3273   5.105   4.102   6.143  0.0405 -0.9456 -0.3035
   25SAPC    HA 3274   5.018   4.124   6.077  0.0577 -1.0138 -0.3491
   25SAPC    HB 3275   5.064   4.054   6.234 -0.3974 -0.2055 -0.0969
   25SAPC    C2 3276   5.168   4.242   6.170 -0.0399  0.1881  0.5225
   25SAPC    HS 3277   5.188   4.290   6.072 -0.1988  1.5109  1.1235
   25SAPC   O21 3278   5.287   4.228   6.256 -0.1986  0.6043 -0.1475
   25SAPC   C21 3279   5.363   4.335   6.263  0.6390 -0.0105  0.2384
   25SAPC   O22 3280   5.344   4.432   6.192  0.2703 -0.2183  0.0755
   25SAPC   C22 3281   5.475   4.315   6.362  0.0972 -0.2870 -0.3272
   25SAPC   H2R 3282   5.462   4.223   6.422  0.2708 -0.3813 -0.4311
   25SAPC   H2S 3283   5.572   4.314   6.307 -0.4695  1.0606 -1.4183
   25SAPC    C3 3284   5.054   4.337   6.245  0.8026  0.0111 -0.3610
   25SAPC    HX 3285   4.975   4.333   6.167  1.2625  0.6821 -0.8792
   25SAPC    HY 3286   5.090   4.442   6.256 -2.7659  1.4872 -1.1781
   25SAPC   O31 3287   5.011   4.270   6.365  0.2889 -0.8657 -0.1682
   25SAPC   C31 3288   5.068   4.289   6.479 -0.6793 -0.5092 -0.7743
   25SAPC   O32 3289   5.154   4.372   6.500  0.2789 -0.4093  0.4160
   25SAPC   C32 3290   5.008   4.191   6.577 -0.4993  0.5752 -0.3236
   25SAPC   H2X 3291   5.033   4.088   6.545  1.5018  0.6944  0.6804
   25SAPC   H2Y 3292   4.900   4.211   6.559  0.4542  3.7417 -3.6206
   25SAPC   C23 3293   5.509   4.435   6.450  0.0491  0.0799  0.7422
   25SAPC   H3R 3294   5.421   4.449   6.516 -1.5686  1.9396 -1.6289
   25SAPC   H3S 3295   5.516   4.530   6.392 -1.9835 -1.2005 -1.8469
   25SAPC   C24 3296   5.641   4.418   6.534  0.5594  0.3120  0.3236
   25SAPC   H4R 3297   5.634   4.328   6.598 -0.0210  1.0676  1.3524
   25SAPC   H4S 3298   5.637   4.509   6.597 -1.1450  0.4247  0.0878
   25SAPC   C25 3299   5.771   4.402   6.459 -0.3487 -0.2921 -0.2888
   25SAPC   H5R 3300   5.797   4.305   6.415  0.3442  0.2873 -1.2088
   25SAPC   C26 3301   5.853   4.502   6.438 -0.4962 -0.6194  0.1779
   25SAPC   H6R 3302   5.949   4.483   6.388  0.3725 -1.6285  2.1409
   25SAPC   C27 3303   5.837   4.638   6.503  0.0740  1.1453  0.2579
   25SAPC   H7R 3304   5.837   4.618   6.612 -1.5998 -0.7189 -0.0272
   25SAPC   H7S 3305   5.736   4.672   6.470  0.6434 -0.3165 -3.4456
   25SAPC   C28 3306   5.950   4.731   6.456  0.5616  0.1562 -0.2330
   25SAPC   H8R 3307   5.948   4.730   6.346 -2.4796 -1.0650 -0.2441
   25SAPC   C29 3308   6.047   4.791   6.528  0.3016 -0.0272 -0.7432
   25SAPC   H9R 3309   6.102   4.869   6.474 -0.2793  1.8910  1.2473
   25SAPC  C210 3310   6.068   4.783   6.680  0.5148 -0.2586 -0.1921
   25SAPC  H10R 3311   6.024   4.688   6.717 -1.0261  0.7293  0.6315
   25SAPC  H10S 3312   6.018   4.871   6.727  1.5092  0.4102 -0.3682
   25SAPC  C211 3313   6.211   4.788   6.731  0.1121  0.4010 -0.4998
   25SAPC  H11R 3314   6.291   4.746   6.669  1.7352  1.1659  1.0012
   25SAPC  C212 3315   6.249   4.841   6.849 -0.1068 -0.3598 -0.0854
   25SAPC  H12R 3316   6.356   4.849   6.871  0.2928  2.4331 -2.3944
   25SAPC  C213 3317   6.167   4.923   6.946 -0.2807  0.2551  0.3662
   25SAPC  H13R 3318   6.082   4.972   6.893 -0.7026 -1.0199 -0.1868
   25SAPC  H13S 3319   6.229   5.004   6.989  2.4610 -0.8544 -1.2610
   25SAPC  C214 3320   6.122   4.821   7.045 -0.2483  0.4451  0.2955
   25SAPC  H14R 3321   6.049   4.745   7.013  1.0313 -1.1471  1.0012
   25SAPC  C215 3322   6.160   4.809   7.176 -0.5689 -0.0236  0.1084
   25SAPC  H15R 3323   6.106   4.732   7.235 -1.9349  1.5963  1.0538
   25SAPC  C216 3324   6.264   4.899   7.244  0.3433 -0.3157 -0.1870
   25SAPC  H16R 3325   6.232   4.997   7.286  1.4552 -0.4583  1.0878
   25SAPC  H16S 3326   6.341   4.931   7.171  2.0842 -0.8709  1.3064
   25SAPC  C217 3327   6.320   4.838   7.374  0.3915  0.6294  0.5583
   25SAPC  H17R 3328   6.425   4.868   7.394  1.1757 -0.3671 -1.7125
   25SAPC  H17S 3329   6.325   4.728   7.358  1.9817  0.8080 -0.3976
   25SAPC  C218 3330   6.218   4.867   7.485  0.2083 -0.1390 -0.2945
   25SAPC  H18R 3331   6.120   4.841   7.438  0.4596 -1.8239  0.0681
   25SAPC  H18S 3332   6.224   4.971   7.523  0.1020  0.0264 -0.7199
   25SAPC  C219 3333   6.231   4.772   7.606  0.3165 -0.4447 -0.5104
   25SAPC  H19R 3334   6.206   4.671   7.567  2.1638 -1.1476  0.0733
   25SAPC  H19S 3335   6.147   4.792   7.676  0.9940 -1.4482  0.6281
   25SAPC  C220 3336   6.358   4.771   7.683  0.2492 -0.1559  0.5228
   25SAPC  H20R 3337   6.369   4.860   7.749  0.8511 -0.8062  1.3066
   25SAPC  H20S 3338   6.444   4.756   7.614 -0.1380  2.3079 -0.6175
   25SAPC  H20T 3339   6.348   4.685   7.752 -3.7058 -0.4018 -0.1329
   25SAPC   C33 3340   5.032   4.229   6.723 -0.2839  0.6951 -0.2808
   25SAPC   H3X 3341   5.003   4.333   6.751  2.1072  1.1822  0.7054
   25SAPC   H3Y 3342   5.141   4.219   6.744 -0.1263  1.2763 -0.7886
   25SAPC   C34 3343   4.972   4.134   6.827  0.3286 -0.2658  0.3110
   25SAPC   H4X 3344   5.016   4.032   6.814 -0.7166 -0.6593 -0.2693
   25SAPC   H4Y 3345   4.863   4.122   6.809  0.6123 -0.1878 -1.7732
   25SAPC   C35 3346   5.007   4.182   6.976 -0.6571  0.2702 -0.8168
   25SAPC   H5X 3347   4.948   4.273   6.999  0.0312  0.3451  0.8038
   25SAPC   H5Y 3348   5.116   4.203   6.984 -0.4669 -1.2300  1.5344
   25SAPC   C36 3349   4.987   4.062   7.077 -0.5853 -0.3515 -0.7598
   25SAPC   H6X 3350   5.023   3.963   7.043 -0.4498 -0.8242  0.6641
   25SAPC   H6Y 3351   4.879   4.040   7.095 -0.1982 -0.3139  2.1913
   25SAPC   C37 3352   5.049   4.100   7.214  0.2022 -0.1151 -0.2713
   25SAPC   H7X 3353   4.999   4.185   7.264  2.3946  1.9050 -1.3325
   25SAPC   H7Y 3354   5.157   4.124   7.203  0.7961 -1.8419  1.2350
   25SAPC   C38 3355   5.042   3.979   7.306 -0.2065 -0.3228  0.0544
   25SAPC   H8X 3356   5.099   3.890   7.273 -0.1434 -0.2882  0.0718
   25SAPC   H8Y 3357   4.934   3.950   7.307 -0.1881 -0.4453  2.4598
   25SAPC   C39 3358   5.075   4.009   7.451  0.4335 -0.8344  0.6804
   25SAPC   H9X 3359   5.043   4.113   7.474 -0.9301 -1.1756  0.4195
   25SAPC   H9Y 3360   5.184   4.023   7.467  0.7208  0.2178 -1.7542
   25SAPC  C310 3361   5.016   3.893   7.540  0.5344  0.5085  0.0808
   25SAPC  H10X 3362   5.075   3.800   7.530  1.1355  1.0460 -1.7519
   25SAPC  H10Y 3363   4.910   3.865   7.523  0.6880  0.2519 -0.4535
   25SAPC  C311 3364   5.038   3.940   7.686 -0.3569  0.6454  0.5249
   25SAPC  H11X 3365   4.984   4.036   7.701 -1.1290 -0.2749  5.5128
   25SAPC  H11Y 3366   5.144   3.960   7.712  0.0217  0.1842 -0.6088
   25SAPC  C312 3367   4.961   3.854   7.793 -0.0998 -0.5342  0.4929
   25SAPC  H12X 3368   5.015   3.759   7.811  2.2281  0.1430 -2.2897
   25SAPC  H12Y 3369   4.860   3.827   7.754 -0.1711 -0.7831  0.8390
   25SAPC  C313 3370   4.929   3.925   7.927 -0.0782 -0.2277  0.1905
   25SAPC  H13X 3371   4.840   3.986   7.901 -1.2039 -2.3533 -1.2140
   25SAPC  H13Y 3372   5.020   3.982   7.956  1.0147 -2.1009  0.7032
   25SAPC  C314 3373   4.907   3.825   8.046 -0.1971  0.5156  0.4661
   25SAPC  H14X 3374   5.001   3.768   8.064  0.4552  0.5827 -2.2712
   25SAPC  H14Y 3375   4.828   3.759   8.005 -1.4006  2.0664  0.2006
   25SAPC  C315 3376   4.857   3.891   8.174  0.1754  0.3963 -0.1174
   25SAPC  H15X 3377   4.805   3.814   8.234 -1.1840  0.6897 -0.8661
   25SAPC  H15Y 3378   4.773   3.962   8.159 -1.0057 -0.7037  1.0688
   25SAPC  C316 3379   4.964   3.963   8.242 -0.0665  0.7260  0.0562
   25SAPC  H16X 3380   4.953   4.072   8.221  0.1224  0.5447 -1.0316
   25SAPC  H16Y 3381   5.063   3.947   8.194  0.1738 -1.2666  1.1120
   25SAPC  C317 3382   4.966   3.933   8.387 -0.2579  0.6526  0.1533
   25SAPC  H17X 3383   5.048   3.993   8.432 -0.1514 -0.1532  1.0854
   25SAPC  H17Y 3384   4.987   3.824   8.400 -2.5185  0.3886  2.2631
   25SAPC  C318 3385   4.842   3.959   8.473 -0.2700  0.2378  0.1056
   25SAPC  H18X 3386   4.878   3.953   8.578 -0.6067  0.9849  0.2688
   25SAPC  H18Y 3387   4.759   3.888   8.453  1.2491 -2.2059  1.8571
   25SAPC  H18Z 3388   4.810   4.065   8.462 -1.0557  0.3217  2.6190
   26SAPC     N 3389   5.161   0.412   5.867  0.3613 -0.2812  0.3466
   26SAPC   C12 3390   5.184   0.363   6.015 -0.9802  0.0343 -0.2047
   26SAPC  H12A 3391   5.267   0.294   6.016  0.6490  1.9114 -0.6281
   26SAPC  H12B 3392   5.098   0.306   6.050 -1.4914  1.7026  1.3936
   26SAPC   C13 3393   5.146   0.291   5.778  0.0176  0.1445  0.3267
   26SAPC  H13A 3394   5.104   0.323   5.683 -0.2107  0.8309  0.6555
   26SAPC  H13B 3395   5.237   0.241   5.749 -0.6065  0.3475 -2.2424
   26SAPC  H13C 3396   5.075   0.221   5.818 -0.8570  0.1735 -1.0927
   26SAPC   C14 3397   5.027   0.489   5.851  0.2691  0.2450  0.4009
   26SAPC  H14A 3398   5.010   0.568   5.923 -0.4680  1.7389 -1.3441
   26SAPC  H14B 3399   5.027   0.545   5.759  0.5135  0.2995  0.4334
   26SAPC  H14C 3400   4.946   0.418   5.857  1.0212 -0.6307  0.4035
   26SAPC   C15 3401   5.269   0.502   5.821  0.4946  0.4743 -0.0118
   26SAPC  H15A 3402   5.277   0.507   5.713 -2.0030 -0.9947 -0.3570
   26SAPC  H15B 3403   5.273   0.600   5.867  1.8188  0.2874  0.2989
   26SAPC  H15C 3404   5.357   0.451   5.857  0.0843 -1.2419 -1.2778
   26SAPC   C11 3405   5.209   0.470   6.115 -0.9173  0.0164  0.3907
   26SAPC  H11A 3406   5.195   0.423   6.214 -1.9981 -0.1875  0.1567
   26SAPC  H11B 3407   5.142   0.558   6.103  1.3430  2.2811  2.9014
   26SAPC     P 3408   5.384   0.660   6.147 -0.3513  0.4022  0.0344
   26SAPC   O13 3409   5.522   0.679   6.189 -0.6152  0.1144  0.4742
   26SAPC   O14 3410   5.330   0.747   6.036  0.6223  0.3809  0.5252
   26SAPC   O12 3411   5.348   0.511   6.108 -0.3789 -0.0232 -0.0771
   26SAPC   O11 3412   5.295   0.672   6.275  0.5649  0.2253  0.3050
   26SAPC    C1 3413   5.241   0.802   6.302  0.1334 -0.2521 -1.0541
   26SAPC    HA 3414   5.306   0.892   6.291 -0.8466  0.3159 -2.6344
   26SAPC    HB 3415   5.150   0.815   6.239 -0.5197 -0.0754 -0.0916
   26SAPC    C2 3416   5.187   0.815   6.443  0.0572  0.0846 -0.2711
   26SAPC    HS 3417   5.150   0.919   6.454 -1.0585 -0.3902  0.6118
   26SAPC   O21 3418   5.293   0.800   6.537 -0.5176 -0.1950 -0.2028
   26SAPC   C21 3419   5.286   0.857   6.651  0.1124  0.6402  0.4442
   26SAPC   O22 3420   5.191   0.926   6.688  0.3457  0.6343 -0.4039
   26SAPC   C22 3421   5.408   0.809   6.737  0.1602  1.0254 -0.2448
   26SAPC   H2R 3422   5.408   0.698   6.745  2.7990  0.9231 -0.7816
   26SAPC   H2S 3423   5.506   0.840   6.693  1.9078 -0.9182  1.9868
   26SAPC    C3 3424   5.077   0.699   6.459  0.2939  0.5635  0.2353
   26SAPC    HX 3425   5.136   0.607   6.438 -0.0018  0.4736 -0.2167
   26SAPC    HY 3426   5.006   0.696   6.373  1.0118 -1.1854 -0.3422
   26SAPC   O31 3427   5.021   0.691   6.587 -0.6722  0.0347  0.1062
   26SAPC   C31 3428   4.918   0.773   6.610 -0.1853 -0.5375  0.2432
   26SAPC   O32 3429   4.869   0.842   6.523  0.3832  0.1271  0.3203
   26SAPC   C32 3430   4.890   0.777   6.759  0.4334  0.8447 -0.0220
   26SAPC   H2X 3431   4.971   0.823   6.820  2.4962 -2.3682 -0.0840
   26SAPC   H2Y 3432   4.893   0.673   6.798 -1.7652  1.3737  1.8160
   26SAPC   C23 3433   5.388   0.866   6.876  0.6225  0.5461 -0.2224
   26SAPC   H3R 3434   5.310   0.812   6.933 -0.3054  1.7045 -0.3564
   26SAPC   H3S 3435   5.346   0.969   6.877 -1.0207 -0.0567 -2.2134
   26SAPC   C24 3436   5.513   0.844   6.967 -0.4821 -0.6971 -0.2153
   26SAPC   H4R 3437   5.492   0.915   7.050 -1.0629 -0.8828 -0.2006
   26SAPC   H4S 3438   5.595   0.894   6.912 -0.0298  0.4024  1.3891
   26SAPC   C25 3439   5.549   0.701   7.001 -0.0542 -0.0298 -0.5487
   26SAPC   H5R 3440   5.531   0.624   6.924 -2.5970  0.6632 -0.7183
   26SAPC   C26 3441   5.587   0.662   7.126 -0.1725  0.7263 -0.3447
   26SAPC   H6R 3442   5.615   0.556   7.137 -1.5330  0.3751 -0.1939
   26SAPC   C27 3443   5.613   0.758   7.237 -0.8371 -0.8460 -0.9064
   26SAPC   H7R 3444   5.515   0.781   7.283 -1.6585 -0.1077 -2.9043
   26SAPC   H7S 3445   5.640   0.861   7.206 -2.6527  0.0308  0.3087
   26SAPC   C28 3446   5.703   0.688   7.333 -0.0807 -0.6796 -0.2400
   26SAPC   H8R 3447   5.659   0.591   7.359 -1.8815 -0.3236 -1.7568
   26SAPC   C29 3448   5.812   0.725   7.391 -0.2573 -0.2754 -0.4598
   26SAPC   H9R 3449   5.850   0.652   7.465 -0.3999  0.2753  0.1688
   26SAPC  C210 3450   5.871   0.864   7.362 -0.2569  0.0714  0.0150
   26SAPC  H10R 3451   5.843   0.924   7.451  1.4467 -1.4718  1.6915
   26SAPC  H10S 3452   5.822   0.912   7.275  2.8406 -1.3265 -2.6930
   26SAPC  C211 3453   6.018   0.867   7.350 -1.0697  0.0037  0.1226
   26SAPC  H11R 3454   6.068   0.778   7.307  1.6183  1.5850 -0.2856
   26SAPC  C212 3455   6.103   0.965   7.393 -0.4971  0.6959  0.0946
   26SAPC  H12R 3456   6.207   0.951   7.361 -0.7327 -1.0613  0.0081
   26SAPC  C213 3457   6.076   1.085   7.477  0.3277 -0.1188 -0.1289
   26SAPC  H13R 3458   6.170   1.130   7.516  0.1804 -1.1030  1.4768
   26SAPC  H13S 3459   6.043   1.053   7.578  3.1824 -0.4563  0.7973
   26SAPC  C214 3460   5.985   1.185   7.415  0.1744 -0.5901 -0.2031
   26SAPC  H14R 3461   6.017   1.215   7.314 -0.3489 -2.3054 -0.9151
   26SAPC  C215 3462   5.877   1.247   7.462 -0.0043 -0.5485  0.1595
   26SAPC  H15R 3463   5.831   1.329   7.404 -1.5569 -0.9290  0.8239
   26SAPC  C216 3464   5.811   1.219   7.587  0.1478  0.2010 -0.0424
   26SAPC  H16R 3465   5.851   1.296   7.656 -2.7655  3.2191 -1.4216
   26SAPC  H16S 3466   5.847   1.125   7.634 -0.8974 -0.2201 -0.0681
   26SAPC  C217 3467   5.656   1.241   7.583 -0.4945  0.0330  0.7145
   26SAPC  H17R 3468   5.623   1.167   7.507 -1.9694  0.0110  1.3481
   26SAPC  H17S 3469   5.635   1.347   7.560 -1.3361 -0.7365 -2.6310
   26SAPC  C218 3470   5.593   1.213   7.722  0.5656 -0.2312  0.1111
   26SAPC  H18R 3471   5.643   1.270   7.803 -0.6171 -0.0747  0.7499
   26SAPC  H18S 3472   5.596   1.109   7.761 -0.8856  0.2905  1.7304
   26SAPC  C219 3473   5.440   1.249   7.742 -1.0044  0.0050  0.0949
   26SAPC  H19R 3474   5.398   1.226   7.843  0.6886  0.6127  0.9830
   26SAPC  H19S 3475   5.380   1.197   7.665  0.6839 -0.5089 -0.9239
   26SAPC  C220 3476   5.428   1.400   7.719  0.3716  0.4907 -0.0056
   26SAPC  H20R 3477   5.437   1.426   7.611  0.2941 -3.0125 -0.9706
   26SAPC  H20S 3478   5.509   1.446   7.779  1.0498  0.6017 -0.9940
   26SAPC  H20T 3479   5.331   1.427   7.767  1.0153 -0.4750  1.9334
   26SAPC   C33 3480   4.746   0.830   6.786 -0.5973  0.1479 -0.1705
   26SAPC   H3X 3481   4.669   0.759   6.749  1.6458 -0.1414 -5.1172
   26SAPC   H3Y 3482   4.731   0.918   6.720  0.1604  1.4242  1.2668
   26SAPC   C34 3483   4.721   0.869   6.925  0.2591  0.6980  0.1928
   26SAPC   H4X 3484   4.612   0.879   6.941 -0.0508 -1.8749  0.0704
   26SAPC   H4Y 3485   4.766   0.967   6.950 -0.9150  0.6271  2.9067
   26SAPC   C35 3486   4.768   0.769   7.033 -0.4582 -0.9182 -0.3661
   26SAPC   H5X 3487   4.869   0.809   7.055 -0.4074 -1.1418 -0.1884
   26SAPC   H5Y 3488   4.778   0.662   7.004 -0.0624 -0.8744 -0.3879
   26SAPC   C36 3489   4.710   0.775   7.181  0.0477 -0.4134  0.4182
   26SAPC   H6X 3490   4.778   0.718   7.248  1.5331  2.4650  1.5401
   26SAPC   H6Y 3491   4.613   0.722   7.175 -0.5316  0.7001 -0.8020
   26SAPC   C37 3492   4.688   0.913   7.240  0.1554  0.4998 -0.1778
   26SAPC   H7X 3493   4.607   0.970   7.190 -0.1777  0.7610  0.6463
   26SAPC   H7Y 3494   4.789   0.960   7.241  0.5774 -0.3491  1.1955
   26SAPC   C38 3495   4.657   0.911   7.389  0.2408 -0.8140  0.1502
   26SAPC   H8X 3496   4.747   0.872   7.440  0.0851  2.7798  3.6520
   26SAPC   H8Y 3497   4.568   0.851   7.418  1.0448 -2.4935 -0.6882
   26SAPC   C39 3498   4.653   1.056   7.437  0.3795  0.0539 -0.2022
   26SAPC   H9X 3499   4.588   1.116   7.368 -0.3000  0.3069  0.6375
   26SAPC   H9Y 3500   4.752   1.104   7.421  0.2558  0.7541  1.0062
   26SAPC  C310 3501   4.587   1.065   7.576  0.2688  0.1720  0.0892
   26SAPC  H10X 3502   4.656   1.011   7.644  0.2035 -1.2442 -0.9139
   26SAPC  H10Y 3503   4.489   1.012   7.576  0.2904  0.1221  0.7083
   26SAPC  C311 3504   4.545   1.209   7.619 -0.3645 -0.1566 -1.0750
   26SAPC  H11X 3505   4.466   1.237   7.545  1.2653  1.8339 -2.1698
   26SAPC  H11Y 3506   4.634   1.270   7.593 -0.4113  0.2215 -0.3702
   26SAPC  C312 3507   4.507   1.221   7.763 -0.2108 -0.5036 -0.5096
   26SAPC  H12X 3508   4.434   1.138   7.776 -0.4631 -0.0413  1.3696
   26SAPC  H12Y 3509   4.446   1.310   7.789  0.6383 -0.3058  0.9339
   26SAPC  C313 3510   4.635   1.210   7.846  1.0796  0.6654  0.5312
   26SAPC  H13X 3511   4.688   1.307   7.846  1.6876  0.3507 -0.5811
   26SAPC  H13Y 3512   4.694   1.128   7.800  0.8465 -1.9830  4.4431
   26SAPC  C314 3513   4.610   1.144   7.984 -0.1218  0.4789 -0.2019
   26SAPC  H14X 3514   4.587   1.037   7.967 -0.7419  0.0445  2.8220
   26SAPC  H14Y 3515   4.523   1.193   8.034 -0.4961  1.1778 -1.5030
   26SAPC  C315 3516   4.737   1.153   8.073  0.1005  0.2446  0.2509
   26SAPC  H15X 3517   4.728   1.235   8.148  0.2885  0.9840 -0.5155
   26SAPC  H15Y 3518   4.821   1.190   8.010  0.7473 -0.8968  0.4194
   26SAPC  C316 3519   4.766   1.015   8.139 -0.5982  0.0236 -0.3643
   26SAPC  H16X 3520   4.769   0.938   8.059 -2.0925  1.0202 -1.4440
   26SAPC  H16Y 3521   4.670   0.988   8.189  1.1244 -0.1740  3.0928
   26SAPC  C317 3522   4.899   1.001   8.223 -0.1388  0.1452  0.2929
   26SAPC  H17X 3523   4.909   0.891   8.234  0.2736 -0.0233 -1.4342
   26SAPC  H17Y 3524   4.885   1.055   8.319 -1.8498  1.7687 -0.7817
   26SAPC  C318 3525   5.022   1.060   8.160 -0.2742 -0.2218  0.5179
   26SAPC  H18X 3526   5.001   1.167   8.142 -1.5839 -0.3020  1.3741
   26SAPC  H18Y 3527   5.047   1.013   8.062 -0.1912  0.1922  0.3366
   26SAPC  H18Z 3528   5.113   1.055   8.222 -0.6551 -0.9456  1.0416
   27SAPC     N 3529   3.704   4.287   6.584  0.5090 -0.2108 -0.2028
   27SAPC   C12 3530   3.745   4.175   6.683 -0.6877 -1.2345 -0.1172
   27SAPC  H12A 3531   3.852   4.182   6.696 -0.8817  0.2139  1.0164
   27SAPC  H12B 3532   3.729   4.079   6.637 -0.7389 -0.3646 -1.9819
   27SAPC   C13 3533   3.789   4.278   6.461  0.7287  0.0503  0.1010
   27SAPC  H13A 3534   3.811   4.175   6.435  2.5000 -0.5019  3.2835
   27SAPC  H13B 3535   3.739   4.325   6.378 -1.2442  0.8516  1.6751
   27SAPC  H13C 3536   3.885   4.325   6.479  1.2980 -1.0178 -0.0517
   27SAPC   C14 3537   3.556   4.271   6.549  0.3308 -0.4846  0.1816
   27SAPC  H14A 3538   3.478   4.262   6.622 -0.7775 -0.8838 -1.0276
   27SAPC  H14B 3539   3.519   4.353   6.489 -0.5882 -0.8367  0.2543
   27SAPC  H14C 3540   3.552   4.177   6.496 -1.4304  0.0787 -0.7506
   27SAPC   C15 3541   3.734   4.424   6.633  0.1900  0.0261 -0.0023
   27SAPC  H15A 3542   3.835   4.424   6.673 -0.0149  0.4794  0.5228
   27SAPC  H15B 3543   3.728   4.488   6.547 -0.9807  0.1303  0.1526
   27SAPC  H15C 3544   3.672   4.454   6.716 -0.3015 -0.3344 -0.2322
   27SAPC   C11 3545   3.669   4.175   6.816 -0.0370 -0.9686 -0.5269
   27SAPC  H11A 3546   3.686   4.275   6.863  1.1615 -1.5972  0.4118
   27SAPC  H11B 3547   3.723   4.113   6.890  1.7356  2.2527  1.1200
   27SAPC     P 3548   3.482   3.996   6.786  0.2388 -0.2774 -0.3725
   27SAPC   O13 3549   3.347   3.999   6.734  0.4850 -0.0112 -0.4257
   27SAPC   O14 3550   3.591   3.924   6.719  0.3188 -0.2332 -0.0927
   27SAPC   O12 3551   3.528   4.149   6.802  0.1113  0.3275 -0.4043
   27SAPC   O11 3552   3.469   3.955   6.935  0.6505  0.4289 -0.8385
   27SAPC    C1 3553   3.418   4.037   7.046 -0.1939 -0.0113  0.8022
   27SAPC    HA 3554   3.355   4.126   7.024  0.2607 -0.0439 -0.7328
   27SAPC    HB 3555   3.357   3.966   7.107 -1.2252  1.8168  1.9956
   27SAPC    C2 3556   3.519   4.079   7.161  0.2425 -0.7522  0.8655
   27SAPC    HS 3557   3.582   4.161   7.120 -0.7146 -0.3263  0.1994
   27SAPC   O21 3558   3.601   3.965   7.197 -0.0372 -0.8435  0.2489
   27SAPC   C21 3559   3.716   3.987   7.257 -0.0742  0.2987  0.3282
   27SAPC   O22 3560   3.764   4.096   7.266 -0.0157  0.2312  0.2736
   27SAPC   C22 3561   3.756   3.852   7.329 -0.0992  0.3567 -0.7034
   27SAPC   H2R 3562   3.665   3.799   7.364  0.4783 -0.5102 -0.4817
   27SAPC   H2S 3563   3.792   3.780   7.252 -0.9585  0.1093 -0.8893
   27SAPC    C3 3564   3.437   4.144   7.279 -0.5485 -0.1588  0.0229
   27SAPC    HX 3565   3.361   4.072   7.317  0.1381 -0.3300  1.1150
   27SAPC    HY 3566   3.385   4.229   7.231  0.0072  0.5373  0.6207
   27SAPC   O31 3567   3.518   4.186   7.384  0.1372 -0.3763 -0.5804
   27SAPC   C31 3568   3.532   4.315   7.400  0.1131 -0.1418  0.0630
   27SAPC   O32 3569   3.468   4.402   7.347  0.5011  0.2242 -0.1175
   27SAPC   C32 3570   3.643   4.331   7.505 -0.6750  0.0798 -0.1786
   27SAPC   H2X 3571   3.724   4.257   7.487  0.5867  0.9954  1.4573
   27SAPC   H2Y 3572   3.608   4.300   7.606  0.5223  1.5119  0.7268
   27SAPC   C23 3573   3.864   3.863   7.444  0.3449 -0.1394 -0.3358
   27SAPC   H3R 3574   3.857   3.765   7.494 -1.6795 -0.4481 -1.0994
   27SAPC   H3S 3575   3.836   3.943   7.516 -0.2779  0.2949 -1.0418
   27SAPC   C24 3576   4.006   3.876   7.395 -0.4709  0.1674 -0.7741
   27SAPC   H4R 3577   4.073   3.877   7.483  0.3772 -0.4170 -1.3974
   27SAPC   H4S 3578   4.017   3.966   7.332 -0.3163 -0.6771 -1.9902
   27SAPC   C25 3579   4.033   3.767   7.303 -0.0647  1.4653  0.4860
   27SAPC   H5R 3580   3.994   3.779   7.200 -0.6848 -0.2420  0.4906
   27SAPC   C26 3581   4.103   3.650   7.324  0.7341 -0.5750  0.3017
   27SAPC   H6R 3582   4.112   3.583   7.236 -1.2996 -0.9392  0.3271
   27SAPC   C27 3583   4.167   3.614   7.451 -0.5645  0.2613 -0.1299
   27SAPC   H7R 3584   4.099   3.543   7.503 -0.2892 -0.5930 -0.9152
   27SAPC   H7S 3585   4.183   3.705   7.513  1.9899 -0.9329  1.1114
   27SAPC   C28 3586   4.303   3.557   7.429 -1.0442  0.9501 -0.2946
   27SAPC   H8R 3587   4.344   3.567   7.327 -0.8650 -0.0706 -0.3295
   27SAPC   C29 3588   4.368   3.470   7.513 -0.2169 -0.9554 -0.2100
   27SAPC   H9R 3589   4.465   3.435   7.474 -0.7923 -0.4598 -2.1440
   27SAPC  C210 3590   4.320   3.416   7.647 -0.2094 -0.5112  0.7125
   27SAPC  H10R 3591   4.251   3.482   7.704 -0.2255 -1.3607  1.7080
   27SAPC  H10S 3592   4.413   3.418   7.707  0.9992  0.6769 -1.1058
   27SAPC  C211 3593   4.261   3.283   7.648  0.7215  0.0404 -0.1239
   27SAPC  H11R 3594   4.208   3.251   7.557  0.9635 -1.6286  0.2883
   27SAPC  C212 3595   4.266   3.198   7.745 -0.5954 -0.0657 -0.4965
   27SAPC  H12R 3596   4.208   3.104   7.744  0.1469 -0.5538  0.5985
   27SAPC  C213 3597   4.334   3.214   7.874 -0.5450  0.2464  0.2714
   27SAPC  H13R 3598   4.281   3.293   7.932  2.8351  1.9135  1.4086
   27SAPC  H13S 3599   4.431   3.267   7.867  0.8731 -1.8545  2.2434
   27SAPC  C214 3600   4.368   3.077   7.940  0.1431  0.0325 -0.3924
   27SAPC  H14R 3601   4.433   3.006   7.887  0.5066  0.8719 -1.0994
   27SAPC  C215 3602   4.311   3.037   8.055 -0.1558  0.5005  0.4761
   27SAPC  H15R 3603   4.330   2.936   8.095 -0.5035 -0.2734 -1.2455
   27SAPC  C216 3604   4.222   3.123   8.145 -0.0294  0.4663 -0.5455
   27SAPC  H16R 3605   4.114   3.108   8.122 -0.5363  0.0283  1.8090
   27SAPC  H16S 3606   4.245   3.231   8.137  1.7554  0.1446 -0.0955
   27SAPC  C217 3607   4.251   3.080   8.293 -0.7482 -0.2390 -0.0467
   27SAPC  H17R 3608   4.276   2.972   8.306  3.6038  0.1745 -2.7089
   27SAPC  H17S 3609   4.165   3.114   8.354 -1.0918 -1.3021  0.0823
   27SAPC  C218 3610   4.380   3.145   8.362  0.2060 -0.6741 -0.2759
   27SAPC  H18R 3611   4.371   3.255   8.355  0.8152 -0.6325 -0.4672
   27SAPC  H18S 3612   4.463   3.126   8.291 -1.6512  0.2329 -2.8062
   27SAPC  C219 3613   4.400   3.093   8.498 -0.8209 -0.3962 -0.6553
   27SAPC  H19R 3614   4.422   2.984   8.490  2.5907  0.2551 -1.6851
   27SAPC  H19S 3615   4.307   3.103   8.558 -1.3646 -1.3685 -1.2945
   27SAPC  C220 3616   4.526   3.153   8.568  0.8224 -0.1967 -0.0481
   27SAPC  H20R 3617   4.605   3.144   8.491 -0.0044  0.4547 -0.9936
   27SAPC  H20S 3618   4.544   3.091   8.659 -0.1228 -0.1699  0.1645
   27SAPC  H20T 3619   4.516   3.256   8.609  0.9927 -1.4197  3.4501
   27SAPC   C33 3620   3.705   4.467   7.509  0.3771  0.4653  0.1055
   27SAPC   H3X 3621   3.626   4.542   7.530 -0.6542 -1.1806  2.6079
   27SAPC   H3Y 3622   3.754   4.485   7.411 -1.9648  0.7399 -1.0649
   27SAPC   C34 3623   3.812   4.489   7.622 -0.1743  0.4737 -0.2003
   27SAPC   H4X 3624   3.862   4.588   7.618  1.3618 -0.3126 -2.1275
   27SAPC   H4Y 3625   3.894   4.416   7.607 -1.4286 -1.1986  0.7084
   27SAPC   C35 3626   3.758   4.475   7.766 -0.2566  0.0067 -0.4967
   27SAPC   H5X 3627   3.728   4.371   7.793 -2.4039  0.4746 -0.8891
   27SAPC   H5Y 3628   3.659   4.525   7.776  0.2842  0.7918  1.7107
   27SAPC   C36 3629   3.853   4.526   7.882  0.6280  0.4345 -0.2047
   27SAPC   H6X 3630   3.848   4.637   7.884 -2.8806  0.3861 -0.9649
   27SAPC   H6Y 3631   3.956   4.488   7.866  0.4599 -0.0789 -0.0824
   27SAPC   C37 3632   3.808   4.474   8.016  0.5597  0.0161 -0.6335
   27SAPC   H7X 3633   3.818   4.364   8.028 -1.8033 -0.1467  0.4176
   27SAPC   H7Y 3634   3.700   4.501   8.014  0.1208 -1.4968  0.5458
   27SAPC   C38 3635   3.871   4.546   8.135  0.5329  0.8816 -0.3615
   27SAPC   H8X 3636   3.792   4.565   8.211  0.0414  1.3468 -0.9818
   27SAPC   H8Y 3637   3.891   4.650   8.101 -1.8359  1.6504  0.4278
   27SAPC   C39 3638   3.992   4.471   8.202 -0.1795 -0.2381 -0.3722
   27SAPC   H9X 3639   4.070   4.441   8.128  0.2071  1.1593 -0.5553
   27SAPC   H9Y 3640   3.956   4.373   8.241 -0.9986  0.6438  1.1756
   27SAPC  C310 3641   4.044   4.555   8.326 -0.2771 -0.2494 -0.0090
   27SAPC  H10X 3642   4.118   4.495   8.383 -0.8163  1.1894  2.3369
   27SAPC  H10Y 3643   3.964   4.564   8.402 -0.1107  0.3016  0.1076
   27SAPC  C311 3644   4.102   4.691   8.269 -0.9984  0.8650 -0.4314
   27SAPC  H11X 3645   4.015   4.754   8.241 -0.2725  2.4350  0.7250
   27SAPC  H11Y 3646   4.171   4.678   8.183 -1.1746  1.7668 -0.7133
   27SAPC  C312 3647   4.182   4.769   8.378 -0.1072  0.4033 -0.5116
   27SAPC  H12X 3648   4.110   4.796   8.459 -1.9419  3.0646 -2.7967
   27SAPC  H12Y 3649   4.223   4.857   8.323 -0.4460 -0.6403 -2.5458
   27SAPC  C313 3650   4.292   4.698   8.457 -0.7049 -0.7529 -0.8165
   27SAPC  H13X 3651   4.380   4.703   8.389  0.0030  0.6653  0.1735
   27SAPC  H13Y 3652   4.274   4.589   8.471 -2.9429 -0.6296 -2.2154
   27SAPC  C314 3653   4.329   4.768   8.591 -0.0767  0.2168 -0.3390
   27SAPC  H14X 3654   4.243   4.756   8.661 -1.7240  0.9537 -2.1434
   27SAPC  H14Y 3655   4.331   4.877   8.571 -0.5279  0.5732  1.3974
   27SAPC  C315 3656   4.456   4.706   8.650  0.9021 -0.2500  0.7312
   27SAPC  H15X 3657   4.546   4.724   8.588 -0.9267  1.9271 -1.4912
   27SAPC  H15Y 3658   4.443   4.596   8.657 -1.1445 -0.0307  1.0856
   27SAPC  C316 3659   4.490   4.768   8.786 -0.3205 -0.3184  0.5280
   27SAPC  H16X 3660   4.398   4.782   8.848 -0.7211  1.2035 -0.3400
   27SAPC  H16Y 3661   4.531   4.867   8.756  2.1340 -1.8180 -1.3986
   27SAPC  C317 3662   4.608   4.698   8.853  0.1768 -0.2868  0.0607
   27SAPC  H17X 3663   4.690   4.689   8.779 -0.3357  2.8007 -1.0408
   27SAPC  H17Y 3664   4.578   4.595   8.883 -1.4354  0.3587  0.7976
   27SAPC  C318 3665   4.658   4.760   8.975 -0.5462 -0.3194 -0.7991
   27SAPC  H18X 3666   4.757   4.722   9.008 -1.3833 -2.2237 -0.3197
   27SAPC  H18Y 3667   4.586   4.748   9.059  0.9209 -0.3646  0.4964
   27SAPC  H18Z 3668   4.675   4.870   8.969 -0.5555 -0.1094  1.7516
   28SAPC     N 3669   0.895   4.597   5.845  0.1724 -0.3735  0.0696
   28SAPC   C12 3670   0.844   4.701   5.944 -0.0886  0.3164  0.2824
   28SAPC  H12A 3671   0.753   4.744   5.905 -0.0208  0.3846  0.1992
   28SAPC  H12B 3672   0.919   4.779   5.943 -1.3600  1.5772  0.4733
   28SAPC   C13 3673   0.783   4.517   5.787 -0.7262  0.6606 -0.2309
   28SAPC  H13A 3674   0.743   4.443   5.856 -0.1135 -2.8684 -3.3347
   28SAPC  H13B 3675   0.698   4.574   5.752 -2.8065 -1.1573  1.5278
   28SAPC  H13C 3676   0.817   4.462   5.701  0.5169  0.3670  0.4190
   28SAPC   C14 3677   0.963   4.665   5.722  0.4497  0.7432 -0.0599
   28SAPC  H14A 3678   0.993   4.592   5.647 -2.4573  1.4128 -2.0463
   28SAPC  H14B 3679   0.894   4.733   5.674  0.6308  1.2231  0.3498
   28SAPC  H14C 3680   1.054   4.719   5.743  0.8074 -0.1268  0.7069
   28SAPC   C15 3681   0.991   4.499   5.904 -0.1531  0.7575  0.1678
   28SAPC  H15A 3682   0.951   4.430   5.976  2.1367 -1.2227 -0.3103
   28SAPC  H15B 3683   1.029   4.445   5.818 -0.2844  2.6221 -1.1317
   28SAPC  H15C 3684   1.073   4.543   5.959 -0.9435 -0.2722  2.2739
   28SAPC   C11 3685   0.811   4.670   6.092 -0.0430  0.3833 -0.3126
   28SAPC  H11A 3686   0.785   4.763   6.148  2.0657  1.9650 -1.8005
   28SAPC  H11B 3687   0.908   4.634   6.134 -0.0875 -0.6991 -1.1054
   28SAPC     P 3688   0.551   4.630   6.089  0.0854  0.0698 -0.4738
   28SAPC   O13 3689   0.549   4.744   5.995  0.0627  0.2526  0.2648
   28SAPC   O14 3690   0.462   4.513   6.074  0.0520 -0.3751  0.2271
   28SAPC   O12 3691   0.699   4.578   6.101 -0.7384  0.0939 -0.2793
   28SAPC   O11 3692   0.516   4.687   6.235 -0.8625 -0.4502  0.0110
   28SAPC    C1 3693   0.578   4.633   6.351 -0.3773  0.6517  0.2354
   28SAPC    HA 3694   0.637   4.541   6.330 -0.9848  0.5304 -1.0370
   28SAPC    HB 3695   0.660   4.699   6.386 -1.1478  1.7017  0.1252
   28SAPC    C2 3696   0.471   4.613   6.466 -0.1800  0.1649  0.2612
   28SAPC    HS 3697   0.450   4.711   6.515  0.8985 -0.1544  1.4289
   28SAPC   O21 3698   0.512   4.504   6.553  0.2742  0.7673  0.0510
   28SAPC   C21 3699   0.602   4.536   6.645 -0.2013 -0.7956 -0.1309
   28SAPC   O22 3700   0.649   4.651   6.651  0.2434  0.2681 -0.5336
   28SAPC   C22 3701   0.635   4.414   6.736  0.3728  0.3442  1.3326
   28SAPC   H2R 3702   0.549   4.344   6.728  1.3559 -0.6844 -1.8892
   28SAPC   H2S 3703   0.726   4.371   6.689  0.5741  2.2359 -0.1297
   28SAPC    C3 3704   0.334   4.584   6.402 -0.0619  0.3157  0.1770
   28SAPC    HX 3705   0.343   4.519   6.312  0.0529 -0.3593  0.6661
   28SAPC    HY 3706   0.280   4.673   6.363 -2.0203 -1.5527 -1.7109
   28SAPC   O31 3707   0.241   4.529   6.494  0.0118  0.3314  0.3753
   28SAPC   C31 3708   0.235   4.403   6.499 -0.1579  0.1802  0.3646
   28SAPC   O32 3709   0.281   4.319   6.421 -0.2905 -0.1816 -0.1784
   28SAPC   C32 3710   0.134   4.365   6.610 -0.2643  0.3484  0.1341
   28SAPC   H2X 3711   0.078   4.280   6.565  0.8518 -0.1741 -0.2810
   28SAPC   H2Y 3712   0.076   4.455   6.640  0.5955  0.0893  2.8907
   28SAPC   C23 3713   0.671   4.465   6.876 -0.1640 -0.6433 -0.3186
   28SAPC   H3R 3714   0.584   4.524   6.912  0.3635  1.0115 -1.6079
   28SAPC   H3S 3715   0.755   4.536   6.870  0.7379 -1.6198  0.4311
   28SAPC   C24 3716   0.705   4.355   6.976 -0.4546 -1.4234 -0.3587
   28SAPC   H4R 3717   0.787   4.296   6.930  0.3964 -2.2641  2.0954
   28SAPC   H4S 3718   0.742   4.393   7.073 -1.7334 -0.2728 -0.2884
   28SAPC   C25 3719   0.589   4.263   6.989  0.3378 -0.5954 -0.3300
   28SAPC   H5R 3720   0.556   4.226   6.891 -1.0553 -0.6573  0.1325
   28SAPC   C26 3721   0.526   4.230   7.103  0.4506 -0.3343 -0.3622
   28SAPC   H6R 3722   0.436   4.167   7.102 -0.5717  0.8267  3.5637
   28SAPC   C27 3723   0.564   4.279   7.239  0.1718 -0.1238  0.7224
   28SAPC   H7R 3724   0.507   4.368   7.272 -0.7619 -0.5569  0.3123
   28SAPC   H7S 3725   0.672   4.305   7.234  0.4028 -0.9419  1.3154
   28SAPC   C28 3726   0.539   4.170   7.345 -0.3438 -0.4162  0.3764
   28SAPC   H8R 3727   0.458   4.096   7.329 -1.4857  1.1728 -1.6246
   28SAPC   C29 3728   0.602   4.162   7.462  0.5173 -0.1533 -0.0024
   28SAPC   H9R 3729   0.581   4.079   7.532  1.6692  0.6713  1.3869
   28SAPC  C210 3730   0.711   4.255   7.507  0.1432 -0.8330 -0.2304
   28SAPC  H10R 3731   0.786   4.282   7.429  0.7319 -0.2360  0.5289
   28SAPC  H10S 3732   0.782   4.196   7.568  0.7108 -2.3719 -2.2745
   28SAPC  C211 3733   0.662   4.378   7.580  0.1430  0.8277  0.1286
   28SAPC  H11R 3734   0.625   4.456   7.512 -2.4283  1.0940  1.6856
   28SAPC  C212 3735   0.661   4.398   7.712  0.1528  0.6446 -0.1035
   28SAPC  H12R 3736   0.615   4.492   7.746 -0.3015  0.2030  0.5400
   28SAPC  C213 3737   0.697   4.297   7.820  0.4253  0.1044  0.0680
   28SAPC  H13R 3738   0.655   4.195   7.803  0.2487  0.1804  0.0481
   28SAPC  H13S 3739   0.636   4.326   7.908 -0.0274 -1.8054  0.4375
   28SAPC  C214 3740   0.846   4.292   7.847  0.5922 -0.8339  0.2191
   28SAPC  H14R 3741   0.909   4.309   7.758  3.8796  0.9678  2.6753
   28SAPC  C215 3742   0.897   4.274   7.969 -0.3305  1.2787 -0.5890
   28SAPC  H15R 3743   1.005   4.262   7.985 -1.0846 -3.6226  2.9313
   28SAPC  C216 3744   0.831   4.243   8.102 -0.8523 -0.2762 -0.3307
   28SAPC  H16R 3745   0.835   4.136   8.132 -0.0546 -1.0606 -2.9535
   28SAPC  H16S 3746   0.727   4.281   8.115 -0.3088  1.0336  0.3601
   28SAPC  C217 3747   0.904   4.321   8.213  0.3381 -0.1200 -0.5004
   28SAPC  H17R 3748   0.833   4.304   8.297 -1.4187  0.6257 -1.7573
   28SAPC  H17S 3749   0.914   4.429   8.190 -2.8286  0.6352  1.0676
   28SAPC  C218 3750   1.046   4.280   8.260 -0.2147  0.3422  0.7610
   28SAPC  H18R 3751   1.120   4.329   8.193 -1.5232  0.0902 -0.9671
   28SAPC  H18S 3752   1.063   4.170   8.253  0.1033  0.4008  0.6079
   28SAPC  C219 3753   1.074   4.330   8.403 -0.7130 -0.1122 -0.1351
   28SAPC  H19R 3754   1.003   4.274   8.467 -1.8726 -0.5610 -1.7454
   28SAPC  H19S 3755   1.064   4.440   8.419  0.1413 -0.0260 -0.1681
   28SAPC  C220 3756   1.212   4.286   8.452  0.2182 -0.2495  0.3482
   28SAPC  H20R 3757   1.219   4.301   8.562 -1.5993  0.8773  0.3488
   28SAPC  H20S 3758   1.287   4.342   8.393 -1.6276  0.5418 -1.3251
   28SAPC  H20T 3759   1.227   4.178   8.429  0.8098  0.3672 -2.5344
   28SAPC   C33 3760   0.197   4.332   6.744 -1.1633  0.3194  0.2687
   28SAPC   H3X 3761   0.248   4.430   6.754 -2.3489  2.0500 -6.2750
   28SAPC   H3Y 3762   0.282   4.260   6.742 -1.4255  0.0305 -0.8657
   28SAPC   C34 3763   0.094   4.306   6.855  0.4280  0.1331  0.0318
   28SAPC   H4X 3764   0.017   4.229   6.831  0.9941 -0.2235 -0.6428
   28SAPC   H4Y 3765   0.034   4.397   6.875  1.6256  0.8803  0.3009
   28SAPC   C35 3766   0.171   4.250   6.976  0.1297 -0.3374  0.4606
   28SAPC   H5X 3767   0.243   4.329   7.006  0.9972 -0.2889 -1.6364
   28SAPC   H5Y 3768   0.229   4.158   6.954  1.5909  0.1164  2.2236
   28SAPC   C36 3769   0.081   4.223   7.101 -0.5315  0.7771  0.8369
   28SAPC   H6X 3770   0.041   4.119   7.102  1.4381 -0.0449  1.4351
   28SAPC   H6Y 3771  -0.001   4.297   7.095 -1.9498 -0.8088 -0.1967
   28SAPC   C37 3772   0.164   4.223   7.236 -0.0345 -0.2272  0.3365
   28SAPC   H7X 3773   0.215   4.321   7.249  2.4480 -1.6852  2.8333
   28SAPC   H7Y 3774   0.243   4.147   7.222  0.2158  0.3788 -1.8896
   28SAPC   C38 3775   0.083   4.176   7.359 -0.2359  0.0459  0.1401
   28SAPC   H8X 3776   0.042   4.074   7.340 -0.2672  0.0079  0.4063
   28SAPC   H8Y 3777  -0.007   4.241   7.366 -0.8287 -0.6400 -0.7994
   28SAPC   C39 3778   0.159   4.157   7.497  0.2383 -0.2673 -0.2658
   28SAPC   H9X 3779   0.240   4.087   7.466  0.4466  0.6292 -1.8549
   28SAPC   H9Y 3780   0.095   4.091   7.560  1.6544 -1.3099  0.1298
   28SAPC  C310 3781   0.195   4.299   7.557 -0.4579 -0.0456  0.4888
   28SAPC  H10X 3782   0.096   4.349   7.562 -0.0508  0.8300 -0.0967
   28SAPC  H10Y 3783   0.259   4.351   7.483 -1.1116  1.2546  0.8008
   28SAPC  C311 3784   0.264   4.307   7.694  0.0761 -0.2943 -0.3914
   28SAPC  H11X 3785   0.272   4.414   7.721  1.0551 -0.4609  0.0356
   28SAPC  H11Y 3786   0.362   4.254   7.703 -0.2900 -0.7997  1.0273
   28SAPC  C312 3787   0.183   4.225   7.796  0.1088  0.2167  0.1395
   28SAPC  H12X 3788   0.192   4.117   7.772 -0.5424  0.4012 -0.9985
   28SAPC  H12Y 3789   0.077   4.256   7.786  0.2624  0.9022  0.5981
   28SAPC  C313 3790   0.233   4.252   7.941  0.2055 -0.0204 -0.6202
   28SAPC  H13X 3791   0.223   4.362   7.956  1.5189  0.1024 -0.5439
   28SAPC  H13Y 3792   0.340   4.229   7.961 -0.5122 -0.4433  3.4710
   28SAPC  C314 3793   0.147   4.164   8.031  0.6303  0.4969 -0.4344
   28SAPC  H14X 3794   0.169   4.057   8.013 -1.2588  0.1975 -1.1701
   28SAPC  H14Y 3795   0.039   4.181   8.011  0.5747  0.0624 -0.5153
   28SAPC  C315 3796   0.174   4.198   8.178 -0.1032  0.0912 -0.5302
   28SAPC  H15X 3797   0.114   4.136   8.248 -0.5631  1.7338  0.5967
   28SAPC  H15Y 3798   0.134   4.299   8.202  0.9957  0.6508 -0.9738
   28SAPC  C316 3799   0.324   4.198   8.210 -0.0367 -0.1461 -0.2670
   28SAPC  H16X 3800   0.372   4.292   8.176  0.3624  0.2210  1.2287
   28SAPC  H16Y 3801   0.376   4.118   8.153  1.7101 -0.5555  1.7830
   28SAPC  C317 3802   0.349   4.165   8.358  0.1821  0.1261 -0.4112
   28SAPC  H17X 3803   0.331   4.055   8.363 -1.3369  0.2244 -2.4945
   28SAPC  H17Y 3804   0.270   4.216   8.416  0.2585 -0.4933  0.2575
   28SAPC  C318 3805   0.486   4.209   8.422 -0.7195  0.3438  0.2444
   28SAPC  H18X 3806   0.572   4.181   8.357 -0.8632 -0.2709  0.3157
   28SAPC  H18Y 3807   0.497   4.156   8.519  2.4723 -1.5437 -0.9773
   28SAPC  H18Z 3808   0.478   4.320   8.429 -0.7501  0.3702 -0.1599
   29SAPC     N 3809   4.447   1.696   5.803  0.3979  0.0647 -0.5327
   29SAPC   C12 3810   4.395   1.702   5.946 -0.1091  0.3049 -0.1375
   29SAPC  H12A 3811   4.416   1.606   5.991 -1.4767 -0.0676 -0.2511
   29SAPC  H12B 3812   4.288   1.713   5.936 -0.1596 -0.9211 -1.2648
   29SAPC   C13 3813   4.592   1.657   5.802 -0.5086 -0.2223  0.5056
   29SAPC  H13A 3814   4.640   1.730   5.864  2.0472 -1.2125 -0.1753
   29SAPC  H13B 3815   4.607   1.568   5.861 -0.5087  0.2971  1.3029
   29SAPC  H13C 3816   4.643   1.661   5.707  0.5265 -0.8356  1.0104
   29SAPC   C14 3817   4.372   1.589   5.721 -0.1139  0.1108  0.0047
   29SAPC  H14A 3818   4.264   1.594   5.724 -0.1389 -0.4195  2.7826
   29SAPC  H14B 3819   4.394   1.601   5.616  1.0790 -2.3596 -0.1111
   29SAPC  H14C 3820   4.405   1.490   5.748 -0.3545  0.2197  0.7215
   29SAPC   C15 3821   4.432   1.829   5.736  0.3661  0.1677  0.5620
   29SAPC  H15A 3822   4.328   1.852   5.714 -0.0862 -0.9558  1.4420
   29SAPC  H15B 3823   4.469   1.910   5.796  1.0356  0.7459 -0.5919
   29SAPC  H15C 3824   4.481   1.820   5.640 -0.5869 -0.7141  0.1361
   29SAPC   C11 3825   4.445   1.822   6.039  0.1730  0.7096  0.2758
   29SAPC  H11A 3826   4.378   1.819   6.128 -1.5367  0.8580 -0.9618
   29SAPC  H11B 3827   4.419   1.919   5.992  0.6082 -0.1903 -1.9414
   29SAPC     P 3828   4.636   1.733   6.198 -0.5327 -0.1633 -0.0934
   29SAPC   O13 3829   4.606   1.589   6.189  0.0990 -0.1650 -0.4996
   29SAPC   O14 3830   4.779   1.762   6.201 -0.2178 -0.3682 -0.3868
   29SAPC   O12 3831   4.582   1.805   6.073  0.0145  0.3072  0.0204
   29SAPC   O11 3832   4.565   1.801   6.324 -0.1639  0.0900 -0.3414
   29SAPC    C1 3833   4.574   1.937   6.358  0.7051 -0.1607 -0.2500
   29SAPC    HA 3834   4.601   2.003   6.272  0.5625  0.0234 -0.1535
   29SAPC    HB 3835   4.476   1.973   6.396 -1.0534 -0.4133 -4.0760
   29SAPC    C2 3836   4.690   1.964   6.459  0.5038  0.2949  0.0887
   29SAPC    HS 3837   4.778   1.929   6.400  0.0707  1.2777 -1.1729
   29SAPC   O21 3838   4.673   1.886   6.582 -0.4353 -0.3546 -0.2770
   29SAPC   C21 3839   4.786   1.834   6.627  0.6862 -0.4117  0.2811
   29SAPC   O22 3840   4.891   1.831   6.563 -0.1958  0.2400 -0.4930
   29SAPC   C22 3841   4.765   1.781   6.770 -0.6504 -1.0750 -0.0571
   29SAPC   H2R 3842   4.736   1.866   6.837  0.4021 -0.2950 -0.5585
   29SAPC   H2S 3843   4.683   1.706   6.777 -0.5407 -1.1501  0.5382
   29SAPC    C3 3844   4.689   2.111   6.499 -0.4056  0.1559 -0.4170
   29SAPC    HX 3845   4.590   2.118   6.550  0.8821 -0.1266  2.2722
   29SAPC    HY 3846   4.679   2.183   6.415 -0.4020 -0.1291 -0.6643
   29SAPC   O31 3847   4.785   2.150   6.611  0.1302  0.7319 -0.1371
   29SAPC   C31 3848   4.907   2.184   6.560  0.0695 -0.3378 -0.3581
   29SAPC   O32 3849   4.938   2.187   6.444  0.4135  0.0579 -0.0027
   29SAPC   C32 3850   5.008   2.220   6.671 -0.1318  0.4516  0.1584
   29SAPC   H2X 3851   5.106   2.241   6.622  0.5857  3.4271  2.5682
   29SAPC   H2Y 3852   5.033   2.130   6.731  2.2219  1.7366  1.2483
   29SAPC   C23 3853   4.891   1.717   6.836 -0.5249 -0.1342 -0.0452
   29SAPC   H3R 3854   4.938   1.639   6.774  1.8118  0.4073  0.9302
   29SAPC   H3S 3855   4.859   1.663   6.928  0.9161 -0.2753  0.3947
   29SAPC   C24 3856   4.996   1.818   6.879 -0.3811  0.3804  0.5134
   29SAPC   H4R 3857   5.041   1.876   6.795  1.0769  0.9051  1.6214
   29SAPC   H4S 3858   5.082   1.757   6.914  0.2595  0.6268 -0.5571
   29SAPC   C25 3859   4.947   1.913   6.990  0.2218 -0.1325  0.1356
   29SAPC   H5R 3860   4.882   1.995   6.955 -1.3871 -1.7882 -0.8850
   29SAPC   C26 3861   4.969   1.900   7.124 -0.4319  0.6164 -0.4771
   29SAPC   H6R 3862   4.922   1.965   7.199 -2.0210 -1.5449  0.5184
   29SAPC   C27 3863   5.057   1.804   7.204  0.3579 -0.9612 -0.3563
   29SAPC   H7R 3864   5.015   1.701   7.200  0.1647 -0.8559 -2.2472
   29SAPC   H7S 3865   5.036   1.825   7.311 -0.8830 -0.7463 -0.6337
   29SAPC   C28 3866   5.207   1.821   7.172  0.3306 -0.3426 -0.7096
   29SAPC   H8R 3867   5.246   1.751   7.096 -0.8681 -3.6126  1.4602
   29SAPC   C29 3868   5.289   1.921   7.212  0.2711  0.6771  0.5542
   29SAPC   H9R 3869   5.393   1.906   7.178 -0.4695  1.1237 -2.1750
   29SAPC  C210 3870   5.257   2.033   7.309 -0.2348 -0.4349 -0.7552
   29SAPC  H10R 3871   5.164   2.004   7.362 -0.3742 -1.2725 -1.4312
   29SAPC  H10S 3872   5.228   2.126   7.256 -1.3433  0.0096  0.5593
   29SAPC  C211 3873   5.364   2.065   7.407  0.2907  0.0240 -0.3473
   29SAPC  H11R 3874   5.447   2.121   7.361  0.0636 -0.5147 -1.4357
   29SAPC  C212 3875   5.371   2.033   7.541 -0.0117 -0.2626  0.5239
   29SAPC  H12R 3876   5.451   2.083   7.597 -0.0383  0.5217 -0.1272
   29SAPC  C213 3877   5.277   1.952   7.631  0.3067 -0.4030 -0.2340
   29SAPC  H13R 3878   5.176   1.933   7.590  0.2443  0.5720 -0.5555
   29SAPC  H13S 3879   5.254   2.011   7.722 -2.8828  2.0979 -2.4420
   29SAPC  C214 3880   5.329   1.814   7.653  0.1370 -0.2997 -0.2385
   29SAPC  H14R 3881   5.350   1.764   7.557  0.3240 -0.0134 -0.3518
   29SAPC  C215 3882   5.330   1.747   7.770 -0.6187 -0.3296 -0.0216
   29SAPC  H15R 3883   5.379   1.648   7.768  1.5013  0.6847 -1.0247
   29SAPC  C216 3884   5.289   1.795   7.907 -0.1352 -0.0819  0.3096
   29SAPC  H16R 3885   5.263   1.903   7.900 -0.5605 -0.2396 -0.7308
   29SAPC  H16S 3886   5.375   1.783   7.976  0.5674 -1.1111 -0.7099
   29SAPC  C217 3887   5.167   1.717   7.971 -0.2375  0.5354 -0.0635
   29SAPC  H17R 3888   5.070   1.718   7.916  0.3960  0.9033 -1.2104
   29SAPC  H17S 3889   5.138   1.766   8.066 -0.4778 -1.1787  0.7825
   29SAPC  C218 3890   5.213   1.583   8.025 -0.3398  0.5543  0.1548
   29SAPC  H18R 3891   5.311   1.609   8.070  0.2860 -0.1775 -0.7412
   29SAPC  H18S 3892   5.239   1.513   7.942  2.5538  2.5117 -0.7210
   29SAPC  C219 3893   5.113   1.507   8.123  0.0367 -0.6483  0.2134
   29SAPC  H19R 3894   5.088   1.584   8.199 -0.2948  0.0471 -0.5806
   29SAPC  H19S 3895   5.143   1.414   8.176 -1.5609 -1.2848  0.0749
   29SAPC  C220 3896   4.984   1.477   8.052  0.4452  0.6800  0.0293
   29SAPC  H20R 3897   4.953   1.557   7.982 -2.7479  0.5805  1.1769
   29SAPC  H20S 3898   4.907   1.451   8.127 -2.1458  0.2569 -2.6012
   29SAPC  H20T 3899   4.992   1.387   7.987 -0.0351  1.5438 -1.2634
   29SAPC   C33 3900   4.966   2.341   6.761 -0.5611  0.7360 -0.2630
   29SAPC   H3X 3901   4.888   2.401   6.709 -0.6786  0.5285 -0.3270
   29SAPC   H3Y 3902   5.062   2.393   6.780 -1.1545  2.8464 -2.4087
   29SAPC   C34 3903   4.918   2.290   6.899  0.0670  1.2098 -0.3271
   29SAPC   H4X 3904   5.001   2.224   6.932 -0.4803  0.0283 -1.2522
   29SAPC   H4Y 3905   4.823   2.240   6.871  0.5597  1.2898 -2.2503
   29SAPC   C35 3906   4.882   2.398   6.999 -0.2990 -0.1249  0.0650
   29SAPC   H5X 3907   4.793   2.447   6.954 -0.4916 -0.2059  0.3538
   29SAPC   H5Y 3908   4.957   2.480   6.994  1.3158 -1.6160 -2.1444
   29SAPC   C36 3909   4.855   2.375   7.148  0.0866  0.3471  0.4999
   29SAPC   H6X 3910   4.762   2.429   7.178 -0.9501 -1.2992  0.3634
   29SAPC   H6Y 3911   4.938   2.421   7.205  2.1031  0.0441 -1.9954
   29SAPC   C37 3912   4.844   2.225   7.185 -0.0407  0.0919 -0.2616
   29SAPC   H7X 3913   4.942   2.175   7.172 -0.5318 -1.1721  0.6776
   29SAPC   H7Y 3914   4.769   2.178   7.117 -1.1869 -0.4272  1.3022
   29SAPC   C38 3915   4.814   2.211   7.332  0.2831  0.7150  0.1404
   29SAPC   H8X 3916   4.838   2.103   7.350  1.2117  1.1833  1.9688
   29SAPC   H8Y 3917   4.705   2.223   7.350  0.1047  0.2121 -0.5549
   29SAPC   C39 3918   4.911   2.287   7.426  0.5473 -0.1881 -0.0606
   29SAPC   H9X 3919   4.854   2.382   7.434 -0.9540 -0.5339 -4.1382
   29SAPC   H9Y 3920   5.002   2.318   7.370 -0.2870 -0.4395 -1.6331
   29SAPC  C310 3921   4.927   2.210   7.551 -0.7641 -0.1015 -0.5532
   29SAPC  H10X 3922   4.991   2.119   7.546 -1.0596 -0.2433 -3.5603
   29SAPC  H10Y 3923   4.827   2.183   7.589  0.3914 -1.9105  1.4101
   29SAPC  C311 3924   4.991   2.297   7.664  0.0901 -0.1582 -0.1671
   29SAPC  H11X 3925   4.914   2.375   7.682 -0.9033 -1.0550 -0.4270
   29SAPC  H11Y 3926   5.090   2.335   7.630 -0.2891 -0.2312 -1.3710
   29SAPC  C312 3927   5.014   2.219   7.795 -0.9439 -0.1784  0.3511
   29SAPC  H12X 3928   5.090   2.277   7.853  0.8638  0.6524 -2.6118
   29SAPC  H12Y 3929   5.044   2.112   7.794  1.3340  0.4062 -0.7661
   29SAPC  C313 3930   4.896   2.240   7.894  0.3506 -0.1433 -0.2247
   29SAPC  H13X 3931   4.803   2.203   7.846  1.4148 -1.1178 -1.6282
   29SAPC  H13Y 3932   4.879   2.347   7.918 -1.3806 -0.0091 -1.8210
   29SAPC  C314 3933   4.907   2.163   8.025 -0.2644  0.1248  0.4339
   29SAPC  H14X 3934   4.879   2.059   8.000 -0.1138 -0.3966  2.3079
   29SAPC  H14Y 3935   4.835   2.201   8.100  2.6445 -0.1480  3.6403
   29SAPC  C315 3936   5.053   2.163   8.085 -0.9731 -0.6414 -0.0819
   29SAPC  H15X 3937   5.087   2.266   8.111  2.6898 -1.7241 -0.0644
   29SAPC  H15Y 3938   5.118   2.122   8.006 -0.1148  1.0795 -0.3123
   29SAPC  C316 3939   5.051   2.071   8.213  0.7503  0.4743  0.5283
   29SAPC  H16X 3940   5.009   1.977   8.170  1.8622  1.2183 -2.4689
   29SAPC  H16Y 3941   4.979   2.100   8.292 -0.1447 -2.2036  0.8112
   29SAPC  C317 3942   5.189   2.052   8.275  0.1757  0.7893  0.2623
   29SAPC  H17X 3943   5.240   2.146   8.306 -0.2621  1.1253 -0.0365
   29SAPC  H17Y 3944   5.258   2.016   8.196  0.1575 -2.0461  1.4126
   29SAPC  C318 3945   5.195   1.946   8.388 -0.8133 -0.4006  1.0280
   29SAPC  H18X 3946   5.238   1.854   8.343 -3.9065 -1.4109 -0.1251
   29SAPC  H18Y 3947   5.103   1.931   8.448 -1.1259 -0.8152  0.4467
   29SAPC  H18Z 3948   5.264   1.983   8.466 -1.2136  1.0772  0.7212
   30SAPC     N 3949   2.038   0.179   5.729  0.3138  0.9471 -0.0670
   30SAPC   C12 3950   1.897   0.235   5.720 -0.0337 -0.0113 -0.0081
   30SAPC  H12A 3951   1.851   0.207   5.626  0.2591 -1.7314  0.3334
   30SAPC  H12B 3952   1.899   0.343   5.718  2.6912 -0.0154 -0.6836
   30SAPC   C13 3953   2.118   0.215   5.604  0.3870  0.7794  0.1595
   30SAPC  H13A 3954   2.082   0.199   5.504  3.0023  3.3602 -1.3536
   30SAPC  H13B 3955   2.153   0.317   5.598  2.1909  0.1623 -0.6130
   30SAPC  H13C 3956   2.206   0.153   5.601 -0.1024  0.1121 -0.6762
   30SAPC   C14 3957   2.115   0.253   5.840  0.5043  0.1985 -0.6398
   30SAPC  H14A 3958   2.070   0.219   5.932  0.6648 -1.8850 -1.2833
   30SAPC  H14B 3959   2.220   0.228   5.843  0.3084 -0.5680  0.1131
   30SAPC  H14C 3960   2.090   0.358   5.832  0.7228  0.3892  0.9086
   30SAPC   C15 3961   2.045   0.031   5.752 -0.5637  0.2480  0.0633
   30SAPC  H15A 3962   2.147   0.000   5.772 -0.0394  2.5227  1.2362
   30SAPC  H15B 3963   1.994   0.011   5.844 -0.1119  2.7729  0.9297
   30SAPC  H15C 3964   1.993  -0.031   5.680  0.3133 -0.5068  0.0552
   30SAPC   C11 3965   1.799   0.193   5.832  0.2203  0.0854  0.1816
   30SAPC  H11A 3966   1.776   0.084   5.829 -1.7956  0.4602  0.3369
   30SAPC  H11B 3967   1.702   0.242   5.809  1.3991  1.4577 -2.4153
   30SAPC     P 3968   1.832   0.384   6.013 -0.1603  0.0285 -0.2858
   30SAPC   O13 3969   1.950   0.428   6.082  0.3368  0.6975  0.5323
   30SAPC   O14 3970   1.791   0.474   5.900 -0.2914 -0.1411  0.2048
   30SAPC   O12 3971   1.844   0.236   5.962  0.2303  0.2848 -0.0838
   30SAPC   O11 3972   1.718   0.386   6.125 -0.2387  0.7180  0.5799
   30SAPC    C1 3973   1.659   0.257   6.170  0.5894  0.2306  0.6831
   30SAPC    HA 3974   1.576   0.231   6.101  1.3748 -0.0396 -0.1791
   30SAPC    HB 3975   1.732   0.173   6.175 -0.8855 -1.1413  0.0893
   30SAPC    C2 3976   1.621   0.278   6.315  0.3363  0.6422 -0.0420
   30SAPC    HS 3977   1.599   0.175   6.350 -2.6876  0.4145 -2.1319
   30SAPC   O21 3978   1.504   0.361   6.323  0.7944 -0.1682 -0.3974
   30SAPC   C21 3979   1.449   0.347   6.442  0.0634  0.1091  0.0705
   30SAPC   O22 3980   1.470   0.259   6.524 -0.0503  0.5847 -0.3671
   30SAPC   C22 3981   1.340   0.457   6.467 -0.9354  0.4182  0.2892
   30SAPC   H2R 3982   1.378   0.554   6.427 -3.3504  1.3271 -0.0113
   30SAPC   H2S 3983   1.248   0.429   6.411 -0.0708 -1.2178 -0.3813
   30SAPC    C3 3984   1.747   0.333   6.390  0.6856  0.5136  0.0315
   30SAPC    HX 3985   1.759   0.436   6.350 -1.3831  0.6307 -0.3961
   30SAPC    HY 3986   1.837   0.272   6.370 -0.5668 -1.1729 -0.6679
   30SAPC   O31 3987   1.722   0.331   6.533  0.3707  0.4752  0.3576
   30SAPC   C31 3988   1.768   0.227   6.600  0.6235 -0.4648 -0.3344
   30SAPC   O32 3989   1.812   0.125   6.552  0.6354  0.0825  0.7919
   30SAPC   C32 3990   1.738   0.262   6.753 -0.5178  0.0874 -0.3925
   30SAPC   H2X 3991   1.629   0.283   6.753 -0.5000  0.2888  1.3270
   30SAPC   H2Y 3992   1.793   0.357   6.768  1.0348 -0.5168 -1.8568
   30SAPC   C23 3993   1.287   0.488   6.617 -0.2511 -0.3642  0.2169
   30SAPC   H3R 3994   1.321   0.407   6.684  0.3114  0.0760  0.4725
   30SAPC   H3S 3995   1.177   0.496   6.611 -0.2595  1.0189  1.5896
   30SAPC   C24 3996   1.335   0.626   6.671 -0.2465 -0.7004  0.0415
   30SAPC   H4R 3997   1.276   0.636   6.765  0.8627 -1.6602  0.8688
   30SAPC   H4S 3998   1.312   0.701   6.593  0.3371  1.2735  1.6907
   30SAPC   C25 3999   1.490   0.628   6.689  0.1913 -0.0499  0.1852
   30SAPC   H5R 4000   1.548   0.671   6.606  2.0734 -1.9146  0.4802
   30SAPC   C26 4001   1.549   0.588   6.805  0.7494 -0.2745 -0.2337
   30SAPC   H6R 4002   1.656   0.610   6.817  0.4766  0.7433  0.4695
   30SAPC   C27 4003   1.485   0.540   6.933  0.7549 -0.1585 -0.1078
   30SAPC   H7R 4004   1.531   0.454   6.987  1.2297  0.0215 -0.2178
   30SAPC   H7S 4005   1.383   0.503   6.911  0.5590 -1.7634  2.9204
   30SAPC   C28 4006   1.473   0.654   7.034 -0.0462 -0.1491  0.1976
   30SAPC   H8R 4007   1.458   0.755   6.994  2.8495  0.2934  0.0434
   30SAPC   C29 4008   1.471   0.640   7.169 -0.4663 -0.1053  0.3437
   30SAPC   H9R 4009   1.477   0.732   7.229  2.0619  0.0563 -0.0518
   30SAPC  C210 4010   1.496   0.512   7.239  0.5679 -0.2210  0.2180
   30SAPC  H10R 4011   1.607   0.504   7.239  0.6879  1.2098 -0.0844
   30SAPC  H10S 4012   1.452   0.428   7.181  1.6352 -0.4882 -0.2295
   30SAPC  C211 4013   1.460   0.507   7.386 -0.3639  0.0945  0.3526
   30SAPC  H11R 4014   1.412   0.595   7.431 -1.4600 -1.0554  1.5057
   30SAPC  C212 4015   1.480   0.401   7.463  0.0784  0.1392 -0.1600
   30SAPC  H12R 4016   1.439   0.410   7.565 -1.2816 -0.9102 -0.5842
   30SAPC  C213 4017   1.547   0.268   7.426 -0.2211 -0.1636 -0.2403
   30SAPC  H13R 4018   1.519   0.241   7.322  1.8350  2.0221 -1.4616
   30SAPC  H13S 4019   1.509   0.187   7.492  0.4546 -0.5402 -0.3118
   30SAPC  C214 4020   1.700   0.278   7.432  0.4773  0.6193  0.6930
   30SAPC  H14R 4021   1.742   0.299   7.332  1.2872 -1.3714  0.5732
   30SAPC  C215 4022   1.782   0.276   7.541 -0.2052 -0.2790  0.0749
   30SAPC  H15R 4023   1.891   0.284   7.537  0.0459 -2.7531  0.6948
   30SAPC  C216 4024   1.731   0.271   7.680  0.2631  0.4874  0.5595
   30SAPC  H16R 4025   1.621   0.261   7.672  0.3225 -0.2513  0.5720
   30SAPC  H16S 4026   1.746   0.368   7.732 -1.5664  0.7730  0.6297
   30SAPC  C217 4027   1.783   0.149   7.758  0.1928  0.5130 -0.4157
   30SAPC  H17R 4028   1.881   0.176   7.804  0.0109  0.2910  0.1088
   30SAPC  H17S 4029   1.797   0.065   7.687 -0.1992  0.1578 -0.0763
   30SAPC  C218 4030   1.690   0.095   7.875 -0.3127  0.3237 -0.4415
   30SAPC  H18R 4031   1.584   0.084   7.844  0.3153  0.0000 -2.6590
   30SAPC  H18S 4032   1.692   0.174   7.952 -0.4645 -0.6443  0.5763
   30SAPC  C219 4033   1.743  -0.033   7.943 -1.2587  0.1105 -0.0493
   30SAPC  H19R 4034   1.847  -0.010   7.973 -0.9941  1.0385 -1.5445
   30SAPC  H19S 4035   1.744  -0.113   7.867 -0.6981  0.1127 -0.0425
   30SAPC  C220 4036   1.659  -0.102   8.050 -0.6195 -0.4114 -0.0566
   30SAPC  H20R 4037   1.553  -0.105   8.017 -0.1973 -0.0595 -1.4997
   30SAPC  H20S 4038   1.670  -0.044   8.144  0.8683 -1.5827  0.5269
   30SAPC  H20T 4039   1.691  -0.207   8.064 -0.4185 -0.0189  3.3595
   30SAPC   C33 4040   1.782   0.153   6.853  0.2495 -0.5066  0.4860
   30SAPC   H3X 4041   1.735   0.054   6.833 -0.1115 -0.1466 -0.5317
   30SAPC   H3Y 4042   1.745   0.183   6.953  0.5052 -4.0084  1.7990
   30SAPC   C34 4043   1.933   0.136   6.854  0.0632 -0.0280 -0.9248
   30SAPC   H4X 4044   1.980   0.233   6.881  1.3754 -0.1646 -2.5014
   30SAPC   H4Y 4045   1.980   0.101   6.759  1.2102 -0.5613 -0.1739
   30SAPC   C35 4046   1.993   0.047   6.971  0.4506 -0.0842 -0.1542
   30SAPC   H5X 4047   2.103   0.035   6.961  0.7955 -0.3557  3.0535
   30SAPC   H5Y 4048   1.945  -0.053   6.973  2.6030 -1.1546  0.3246
   30SAPC   C36 4049   1.971   0.101   7.114 -0.4455 -0.0253 -0.2931
   30SAPC   H6X 4050   1.861   0.095   7.132 -0.4315 -0.5673 -0.3733
   30SAPC   H6Y 4051   2.004   0.207   7.116  3.4501 -1.0825 -1.1055
   30SAPC   C37 4052   2.064   0.029   7.218  0.4583  0.5282  0.3461
   30SAPC   H7X 4053   2.170   0.047   7.189 -0.0404  1.2031 -1.2190
   30SAPC   H7Y 4054   2.047  -0.080   7.217  0.3731  0.3972  3.8913
   30SAPC   C38 4055   2.043   0.087   7.363  0.1151  0.3489 -0.4659
   30SAPC   H8X 4056   1.952   0.031   7.392  0.0676 -0.3365 -1.8943
   30SAPC   H8Y 4057   2.021   0.196   7.354 -1.6648  0.0062 -0.7612
   30SAPC   C39 4058   2.170   0.057   7.449 -0.9168 -0.6397 -0.4896
   30SAPC   H9X 4059   2.245   0.127   7.408 -0.7534 -1.0521 -0.9087
   30SAPC   H9Y 4060   2.201  -0.049   7.444 -0.0716 -0.6110  2.4974
   30SAPC  C310 4061   2.149   0.099   7.591 -0.4736 -0.2758 -0.3029
   30SAPC  H10X 4062   2.069   0.038   7.638  0.8483 -1.7664  0.0971
   30SAPC  H10Y 4063   2.128   0.208   7.605  1.5261  0.3574 -1.6910
   30SAPC  C311 4064   2.277   0.083   7.676  0.4955 -0.0186 -0.8908
   30SAPC  H11X 4065   2.354   0.160   7.657  1.8826 -1.2328 -0.3286
   30SAPC  H11Y 4066   2.324  -0.014   7.649  1.7250 -1.4773  5.1166
   30SAPC  C312 4067   2.234   0.048   7.816 -0.3979  0.5931  0.3190
   30SAPC  H12X 4068   2.175  -0.046   7.806 -0.8702  0.9058  0.1367
   30SAPC  H12Y 4069   2.167   0.124   7.861 -2.9821  0.5470 -3.0260
   30SAPC  C313 4070   2.345   0.003   7.912 -0.5357 -0.3487 -0.4160
   30SAPC  H13X 4071   2.424   0.081   7.901  0.2733 -0.9202  1.0455
   30SAPC  H13Y 4072   2.381  -0.096   7.876  1.9267 -1.0960  3.5460
   30SAPC  C314 4073   2.292  -0.021   8.050  0.7950 -0.2023 -0.2649
   30SAPC  H14X 4074   2.367  -0.086   8.100 -1.2961 -2.3362  0.2711
   30SAPC  H14Y 4075   2.203  -0.085   8.032  1.5869 -1.3267 -0.3204
   30SAPC  C315 4076   2.267   0.109   8.130  0.5931 -0.3338  0.2787
   30SAPC  H15X 4077   2.209   0.178   8.065  1.4092  0.4374  0.3665
   30SAPC  H15Y 4078   2.367   0.154   8.149 -0.1229  1.5808 -0.2794
   30SAPC  C316 4079   2.200   0.084   8.266 -0.9215 -0.0469 -0.2272
   30SAPC  H16X 4080   2.209   0.180   8.322 -0.5978  0.0520 -0.4474
   30SAPC  H16Y 4081   2.263   0.015   8.326 -0.4768  0.0032 -0.6397
   30SAPC  C317 4082   2.055   0.038   8.266  0.2517 -0.1574  0.1939
   30SAPC  H17X 4083   2.054  -0.055   8.206  1.7967 -0.4180  0.5360
   30SAPC  H17Y 4084   2.001   0.120   8.214  0.6575 -1.3138 -2.2141
   30SAPC  C318 4085   2.008   0.018   8.415  0.3395  0.4274 -0.2363
   30SAPC  H18X 4086   2.056   0.097   8.478 -1.4253  1.7411 -0.4593
   30SAPC  H18Y 4087   2.014  -0.087   8.451  0.1165 -0.2836 -2.1865
   30SAPC  H18Z 4088   1.898   0.034   8.416 -0.1031 -2.1297  1.7261
   31SAPC     N 4089   5.579   2.379   5.949  0.2122 -0.5889  0.5578
   31SAPC   C12 4090   5.650   2.396   6.082 -0.9874  0.2730 -0.4812
   31SAPC  H12A 4091   5.751   2.424   6.054  0.3029 -0.4729  2.9560
   31SAPC  H12B 4092   5.651   2.304   6.138 -2.8365  1.3074  1.3730
   31SAPC   C13 4093   5.442   2.317   5.973  0.3043 -0.4070 -0.6736
   31SAPC  H13A 4094   5.384   2.382   6.038  3.2256  0.2811  1.4456
   31SAPC  H13B 4095   5.400   2.294   5.876 -1.6274 -2.5662  0.5687
   31SAPC  H13C 4096   5.448   2.214   6.005 -1.2061 -1.0310 -2.2004
   31SAPC   C14 4097   5.556   2.509   5.877  0.3161  0.3712  0.0856
   31SAPC  H14A 4098   5.651   2.545   5.842  1.1146 -2.1387 -0.4940
   31SAPC  H14B 4099   5.483   2.488   5.800  1.9397 -4.3983 -0.4740
   31SAPC  H14C 4100   5.510   2.580   5.945  1.4750 -0.6310  1.9893
   31SAPC   C15 4101   5.664   2.285   5.864  0.5685 -0.4290  0.0810
   31SAPC  H15A 4102   5.765   2.317   5.840  0.5418  0.7815  1.4791
   31SAPC  H15B 4103   5.661   2.193   5.920  3.1245 -1.3698 -1.1551
   31SAPC  H15C 4104   5.616   2.268   5.769  2.6373  0.1271 -1.1447
   31SAPC   C11 4105   5.610   2.510   6.181  0.1311 -0.0060 -0.4166
   31SAPC  H11A 4106   5.675   2.507   6.271  1.1705 -0.6495 -1.1836
   31SAPC  H11B 4107   5.506   2.495   6.218 -0.6972  0.9746 -2.2213
   31SAPC     P 4108   5.554   2.769   6.146 -0.2835  0.2553  0.3905
   31SAPC   O13 4109   5.635   2.888   6.104  0.3501  0.0010  0.0099
   31SAPC   O14 4110   5.418   2.758   6.085 -0.5928  0.3275 -0.3805
   31SAPC   O12 4111   5.632   2.634   6.122 -0.4497 -0.2451 -0.0010
   31SAPC   O11 4112   5.542   2.779   6.301 -0.2131 -0.2104 -0.2066
   31SAPC    C1 4113   5.662   2.808   6.379 -0.2276 -0.0116 -0.1870
   31SAPC    HA 4114   5.735   2.727   6.361  0.1019  0.3924 -0.7047
   31SAPC    HB 4115   5.714   2.901   6.345  0.8691 -0.2869  0.6990
   31SAPC    C2 4116   5.627   2.804   6.530 -0.3243  0.4264  0.2567
   31SAPC    HS 4117   5.541   2.868   6.560 -0.8721 -0.2430  0.1466
   31SAPC   O21 4118   5.740   2.824   6.607 -0.1303 -0.3608 -0.5090
   31SAPC   C21 4119   5.768   2.954   6.639 -0.6580 -0.2602  0.1870
   31SAPC   O22 4120   5.705   3.042   6.587 -0.1719 -0.3659 -0.2570
   31SAPC   C22 4121   5.890   2.972   6.728  0.2315  0.3970  0.1656
   31SAPC   H2R 4122   5.905   2.875   6.780  0.5390  0.8678  0.9670
   31SAPC   H2S 4123   5.978   2.992   6.664 -0.3837  1.1057 -0.4784
   31SAPC    C3 4124   5.562   2.661   6.552 -0.4548 -0.1058  0.3915
   31SAPC    HX 4125   5.639   2.581   6.545  0.1472  0.6035 -2.4452
   31SAPC    HY 4126   5.483   2.640   6.477 -0.5403 -0.0614  0.4699
   31SAPC   O31 4127   5.508   2.663   6.689 -0.4674  0.0655  0.0854
   31SAPC   C31 4128   5.450   2.547   6.727 -0.0743  0.1262  0.0093
   31SAPC   O32 4129   5.463   2.446   6.661 -0.6418 -0.1000  0.0017
   31SAPC   C32 4130   5.366   2.569   6.853  0.4527  0.4219  0.4576
   31SAPC   H2X 4131   5.262   2.554   6.816 -0.2041  2.5081  1.2746
   31SAPC   H2Y 4132   5.380   2.675   6.884  1.0605  0.7595 -0.8926
   31SAPC   C23 4133   5.874   3.072   6.848  0.5779  0.4059  0.5344
   31SAPC   H3R 4134   5.889   3.173   6.804 -1.6813  0.7707  0.5100
   31SAPC   H3S 4135   5.951   3.051   6.925  0.7931  2.0984  0.8382
   31SAPC   C24 4136   5.741   3.070   6.923 -0.3780  0.5171  0.0824
   31SAPC   H4R 4137   5.675   3.116   6.845 -0.5222 -0.2517 -0.2582
   31SAPC   H4S 4138   5.750   3.147   7.003  1.3192  1.5776 -1.0474
   31SAPC   C25 4139   5.696   2.937   6.962  0.7518 -0.1765 -0.7760
   31SAPC   H5R 4140   5.732   2.851   6.905  1.7026  1.1762 -2.2907
   31SAPC   C26 4141   5.620   2.913   7.071 -0.5777 -0.3849 -0.6000
   31SAPC   H6R 4142   5.581   2.811   7.085  1.1700 -0.9985  0.0728
   31SAPC   C27 4143   5.577   3.020   7.172 -0.4957 -0.8301  0.2194
   31SAPC   H7R 4144   5.615   3.121   7.143  0.2886 -1.3578 -0.6311
   31SAPC   H7S 4145   5.624   3.001   7.271 -0.3879 -0.0834  0.3178
   31SAPC   C28 4146   5.424   3.015   7.185 -0.6864  0.5474  0.3945
   31SAPC   H8R 4147   5.366   3.043   7.096 -0.2867  3.3829  0.9187
   31SAPC   C29 4148   5.355   2.973   7.293  0.1559 -0.0509  0.3311
   31SAPC   H9R 4149   5.246   2.963   7.282 -0.3750  1.1892  3.2847
   31SAPC  C210 4150   5.411   2.941   7.428 -0.3573  0.4055  0.2039
   31SAPC  H10R 4151   5.486   2.859   7.415  2.4679  3.0311 -1.2969
   31SAPC  H10S 4152   5.336   2.882   7.486 -1.6701 -0.6621 -2.3921
   31SAPC  C211 4153   5.466   3.047   7.511 -0.4286 -0.6051 -1.9250
   31SAPC  H11R 4154   5.463   3.149   7.471 -1.8528  0.2058  0.0480
   31SAPC  C212 4155   5.514   3.035   7.634  0.7527 -0.4357  0.1071
   31SAPC  H12R 4156   5.523   3.125   7.697 -0.1491 -3.3033  4.7915
   31SAPC  C213 4157   5.523   2.902   7.710  0.0449  0.2949  0.1527
   31SAPC  H13R 4158   5.558   2.819   7.644  0.9262 -0.8183  1.9465
   31SAPC  H13S 4159   5.422   2.876   7.749  1.1858 -0.5186  2.7935
   31SAPC  C214 4160   5.623   2.906   7.825 -0.6746  0.0619 -0.2559
   31SAPC  H14R 4161   5.702   2.829   7.822 -1.8924 -1.2036 -0.4924
   31SAPC  C215 4162   5.621   2.971   7.942 -0.4188  0.1683 -0.3451
   31SAPC  H15R 4163   5.700   2.960   8.017 -1.3633  0.8012  0.7845
   31SAPC  C216 4164   5.506   3.062   7.982  0.2001  0.3174 -0.8917
   31SAPC  H16R 4165   5.423   3.056   7.909 -0.8313 -0.5022  0.3139
   31SAPC  H16S 4166   5.550   3.164   7.981 -0.5714  0.6589 -0.3660
   31SAPC  C217 4167   5.454   3.039   8.128 -0.5666  0.6715 -0.2321
   31SAPC  H17R 4168   5.400   2.944   8.147 -2.5462  1.6958 -0.5406
   31SAPC  H17S 4169   5.381   3.120   8.150 -1.0290 -0.2695  1.9688
   31SAPC  C218 4170   5.571   3.062   8.229 -0.5077  0.0239 -0.8467
   31SAPC  H18R 4171   5.629   3.155   8.215  1.7984 -0.6512  2.8116
   31SAPC  H18S 4172   5.643   2.978   8.221 -2.0812 -1.5080  0.2344
   31SAPC  C219 4173   5.524   3.078   8.379  0.3696 -0.9403  0.6143
   31SAPC  H19R 4174   5.452   2.996   8.398 -1.9444  0.7398 -0.4850
   31SAPC  H19S 4175   5.458   3.167   8.378 -2.5712 -2.9727  0.5470
   31SAPC  C220 4176   5.640   3.090   8.478 -0.6826 -0.2907 -0.4803
   31SAPC  H20R 4177   5.613   3.077   8.584  0.4617 -0.9926 -0.2585
   31SAPC  H20S 4178   5.676   3.195   8.464 -2.5258  0.2587 -1.4124
   31SAPC  H20T 4179   5.725   3.021   8.462 -0.2500  0.4152 -1.3865
   31SAPC   C33 4180   5.414   2.474   6.961  0.1971 -0.1269  0.1931
   31SAPC   H3X 4181   5.520   2.481   6.992  0.6861  3.1220 -1.7603
   31SAPC   H3Y 4182   5.383   2.373   6.926 -2.6086  0.6721  0.0881
   31SAPC   C34 4183   5.339   2.492   7.092  0.4306  0.1498  0.3000
   31SAPC   H4X 4184   5.232   2.481   7.067  0.2310 -1.5212  1.6779
   31SAPC   H4Y 4185   5.350   2.595   7.133  0.1120 -0.3557  1.7274
   31SAPC   C35 4186   5.389   2.392   7.204 -0.4021  0.2147  0.4216
   31SAPC   H5X 4187   5.494   2.416   7.229 -0.7467  2.8741 -0.4423
   31SAPC   H5Y 4188   5.383   2.291   7.158  2.6722 -0.6966  1.7860
   31SAPC   C36 4189   5.309   2.415   7.330  0.5632  0.0994  0.3333
   31SAPC   H6X 4190   5.338   2.334   7.400  1.8962 -0.5227 -0.8846
   31SAPC   H6Y 4191   5.202   2.408   7.303 -0.1722  0.5388  2.8725
   31SAPC   C37 4192   5.328   2.552   7.397 -0.0497  0.3691  0.1143
   31SAPC   H7X 4193   5.235   2.610   7.383 -0.9777 -1.3259 -1.2188
   31SAPC   H7Y 4194   5.415   2.598   7.346  1.0584 -4.1645 -2.7470
   31SAPC   C38 4195   5.336   2.551   7.546 -0.7604 -0.4339 -0.5602
   31SAPC   H8X 4196   5.239   2.512   7.584 -0.5685 -0.6386 -0.2805
   31SAPC   H8Y 4197   5.359   2.655   7.577  0.4785 -1.3075  1.6839
   31SAPC   C39 4198   5.446   2.476   7.617 -0.8019 -0.1321  0.3036
   31SAPC   H9X 4199   5.539   2.493   7.558 -0.9499 -1.6596 -0.4178
   31SAPC   H9Y 4200   5.426   2.368   7.602  1.8671 -0.8377  1.1886
   31SAPC  C310 4201   5.457   2.501   7.766  0.4511  0.4067 -0.3257
   31SAPC  H10X 4202   5.372   2.446   7.812 -0.4424  2.8243  1.0880
   31SAPC  H10Y 4203   5.455   2.609   7.790  0.6801  0.5084 -0.7537
   31SAPC  C311 4204   5.589   2.450   7.829 -0.2344  0.6477  0.2061
   31SAPC  H11X 4205   5.670   2.451   7.753 -0.7723  1.6347 -0.3910
   31SAPC  H11Y 4206   5.566   2.346   7.861 -0.1704 -0.0050 -1.7462
   31SAPC  C312 4207   5.649   2.540   7.948  0.1923  0.3941  0.0682
   31SAPC  H12X 4208   5.682   2.633   7.897 -0.0474  0.4173 -0.0459
   31SAPC  H12Y 4209   5.736   2.494   8.001 -0.4923  0.0572  0.9280
   31SAPC  C313 4210   5.550   2.579   8.052  0.0504 -0.1714 -0.4473
   31SAPC  H13X 4211   5.487   2.491   8.078 -0.6560  0.5869  0.4867
   31SAPC  H13Y 4212   5.478   2.648   8.003 -1.8107 -1.8707 -0.2732
   31SAPC  C314 4213   5.624   2.621   8.181 -0.4233 -0.2903  0.5306
   31SAPC  H14X 4214   5.673   2.716   8.152 -2.0349  0.3028 -0.3872
   31SAPC  H14Y 4215   5.706   2.548   8.199  1.0791  1.8038  2.9598
   31SAPC  C315 4216   5.536   2.640   8.305 -0.1004  0.1354 -0.0975
   31SAPC  H15X 4217   5.477   2.552   8.338  0.7550 -0.3150  0.2827
   31SAPC  H15Y 4218   5.477   2.732   8.285 -0.8751 -0.1154  0.9529
   31SAPC  C316 4219   5.633   2.686   8.416  0.5682 -0.1250 -0.6683
   31SAPC  H16X 4220   5.681   2.780   8.383  0.0227 -0.0406 -1.2466
   31SAPC  H16Y 4221   5.703   2.606   8.448  0.7262  0.7487  1.2928
   31SAPC  C317 4222   5.557   2.713   8.550 -0.2770 -0.1292 -0.8954
   31SAPC  H17X 4223   5.505   2.619   8.578 -1.7583  0.9633  0.1631
   31SAPC  H17Y 4224   5.473   2.785   8.551 -2.3064 -2.3477  0.5759
   31SAPC  C318 4225   5.649   2.742   8.664  0.1090  0.4894  0.2380
   31SAPC  H18X 4226   5.593   2.758   8.758 -0.8171  0.5707 -0.3088
   31SAPC  H18Y 4227   5.698   2.840   8.649  1.2006  0.0228  0.6627
   31SAPC  H18Z 4228   5.726   2.662   8.661  0.1297  0.5249 -2.3526
   32SAPC     N 4229   0.222   3.667   6.301 -0.0243 -0.2226  0.1354
   32SAPC   C12 4230   0.300   3.575   6.390  0.0145 -0.0292 -0.5393
   32SAPC  H12A 4231   0.369   3.510   6.338  0.5883  0.4545 -0.3991
   32SAPC  H12B 4232   0.237   3.498   6.431  3.4335 -2.7230  0.2004
   32SAPC   C13 4233   0.176   3.588   6.179  0.0267 -0.0978 -0.2969
   32SAPC  H13A 4234   0.113   3.653   6.120 -0.4775 -0.4040 -0.1058
   32SAPC  H13B 4235   0.261   3.547   6.126  0.6269  0.4763  0.2037
   32SAPC  H13C 4236   0.113   3.506   6.211 -0.9188  1.1368  1.1846
   32SAPC   C14 4237   0.103   3.716   6.382  0.4019 -0.3197 -0.9425
   32SAPC  H14A 4238   0.130   3.784   6.462 -0.5572  2.1810 -2.6146
   32SAPC  H14B 4239   0.034   3.781   6.330  0.5265 -0.3687 -1.1684
   32SAPC  H14C 4240   0.044   3.636   6.424  0.6635  0.1824  0.4192
   32SAPC   C15 4241   0.287   3.792   6.259  0.3820  0.4153  1.2330
   32SAPC  H15A 4242   0.304   3.852   6.348 -0.8077  1.8191  0.5548
   32SAPC  H15B 4243   0.377   3.790   6.199 -0.8805  2.0353 -0.8370
   32SAPC  H15C 4244   0.213   3.851   6.207 -1.8776 -3.5525 -0.4739
   32SAPC   C11 4245   0.363   3.630   6.514  0.0781 -0.6776 -0.5595
   32SAPC  H11A 4246   0.383   3.546   6.584 -2.5485 -0.9644 -0.0549
   32SAPC  H11B 4247   0.294   3.695   6.572  1.4753 -0.9842  1.5538
   32SAPC     P 4248   0.610   3.650   6.421  0.1174 -0.0087  0.9835
   32SAPC   O13 4249   0.578   3.514   6.363 -0.6859 -0.4996 -0.3811
   32SAPC   O14 4250   0.663   3.750   6.318  0.7212 -1.0540  0.5024
   32SAPC   O12 4251   0.489   3.710   6.490 -0.0316  0.1485  0.0875
   32SAPC   O11 4252   0.711   3.641   6.540  0.3031  0.0202 -0.3620
   32SAPC    C1 4253   0.691   3.673   6.674  0.3042 -0.4472 -0.6317
   32SAPC    HA 4254   0.597   3.629   6.711 -0.9918  1.9891 -0.8264
   32SAPC    HB 4255   0.774   3.632   6.735  0.3133  0.8122  0.2418
   32SAPC    C2 4256   0.698   3.828   6.696  0.9443  0.0092 -0.2744
   32SAPC    HS 4257   0.621   3.871   6.627  0.4100  2.5374  1.7300
   32SAPC   O21 4258   0.830   3.859   6.652 -0.1762  0.4624 -0.5435
   32SAPC   C21 4259   0.839   3.987   6.626 -0.1445  1.2841 -0.3304
   32SAPC   O22 4260   0.754   4.071   6.646 -0.0794  0.4745 -0.6894
   32SAPC   C22 4261   0.983   4.024   6.574 -0.1651  0.6592  0.4834
   32SAPC   H2R 4262   1.048   3.936   6.595 -1.2180 -0.0119  1.0585
   32SAPC   H2S 4263   0.966   4.046   6.467 -0.5907  1.8849  0.7902
   32SAPC    C3 4264   0.648   3.877   6.840  0.3764  0.0016 -0.0082
   32SAPC    HX 4265   0.653   3.986   6.860 -1.4938  0.1514 -0.2359
   32SAPC    HY 4266   0.717   3.832   6.915  2.3097  0.8192 -1.2153
   32SAPC   O31 4267   0.517   3.823   6.868 -0.5240  0.0554  0.5341
   32SAPC   C31 4268   0.413   3.891   6.820  0.2140  0.1023  0.1901
   32SAPC   O32 4269   0.422   3.993   6.750  0.0574 -0.2264  0.3770
   32SAPC   C32 4270   0.281   3.840   6.885  0.0724 -0.0483 -0.4965
   32SAPC   H2X 4271   0.278   3.729   6.886 -2.1778 -0.0652  2.3303
   32SAPC   H2Y 4272   0.204   3.878   6.814 -0.7741 -1.3152 -0.2899
   32SAPC   C23 4273   1.043   4.145   6.647  0.1302 -0.2230 -1.0496
   32SAPC   H3R 4274   1.057   4.116   6.754  1.5898 -0.6120 -1.3256
   32SAPC   H3S 4275   0.970   4.230   6.647 -0.0520 -0.3039  1.1354
   32SAPC   C24 4276   1.177   4.201   6.581  0.5312 -0.8060  0.3744
   32SAPC   H4R 4277   1.216   4.291   6.633 -0.5080 -0.9837  1.5387
   32SAPC   H4S 4278   1.147   4.238   6.480 -1.9748  1.1224  1.6923
   32SAPC   C25 4279   1.284   4.099   6.572 -0.5744  0.1235  0.1206
   32SAPC   H5R 4280   1.299   4.077   6.465 -3.3661  3.2807 -1.1209
   32SAPC   C26 4281   1.337   4.015   6.661  0.0969 -0.4429 -0.2223
   32SAPC   H6R 4282   1.425   3.957   6.628  1.1718  0.8478  0.2993
   32SAPC   C27 4283   1.323   3.991   6.805  0.0631 -0.0937 -0.2438
   32SAPC   H7R 4284   1.404   3.923   6.838 -0.6408 -1.1630 -0.6337
   32SAPC   H7S 4285   1.239   3.920   6.819  0.7359 -0.4471  2.7771
   32SAPC   C28 4286   1.321   4.118   6.887  0.1702  0.7338  0.0105
   32SAPC   H8R 4287   1.316   4.211   6.829 -0.1618 -0.6254 -2.2793
   32SAPC   C29 4288   1.293   4.115   7.019  0.5829 -0.4350 -0.5346
   32SAPC   H9R 4289   1.300   4.215   7.063 -0.9079  0.0928 -1.4205
   32SAPC  C210 4290   1.265   4.001   7.106  0.8995  0.0707  0.1664
   32SAPC  H10R 4291   1.353   3.935   7.117  0.5982 -0.5373 -0.9327
   32SAPC  H10S 4292   1.194   3.938   7.048 -0.0714  0.9942  0.3211
   32SAPC  C211 4293   1.214   4.051   7.239 -0.2397 -0.0761 -0.3302
   32SAPC  H11R 4294   1.292   4.053   7.317 -1.8020 -0.0698  1.2849
   32SAPC  C212 4295   1.093   4.083   7.293  0.2704 -0.4230  0.3182
   32SAPC  H12R 4296   1.094   4.133   7.391  2.9143 -0.3810  0.3535
   32SAPC  C213 4297   0.961   4.072   7.222 -0.1144 -0.3343 -0.1205
   32SAPC  H13R 4298   0.975   4.049   7.114  0.8467  1.3534 -0.3980
   32SAPC  H13S 4299   0.913   4.171   7.207  3.0765  1.1642 -1.4715
   32SAPC  C214 4300   0.875   3.970   7.284 -0.1931 -0.1001  0.1402
   32SAPC  H14R 4301   0.837   3.999   7.384  0.0351  0.6781  0.0073
   32SAPC  C215 4302   0.840   3.849   7.241 -0.1827 -0.1339  0.0104
   32SAPC  H15R 4303   0.782   3.790   7.313  0.6431 -1.0275 -0.0245
   32SAPC  C216 4304   0.876   3.775   7.114  0.1005 -0.2378 -0.3271
   32SAPC  H16R 4305   0.924   3.839   7.037  3.7192  0.0566  1.9213
   32SAPC  H16S 4306   0.781   3.736   7.073 -1.2499  1.9173  0.5322
   32SAPC  C217 4307   0.976   3.665   7.132  0.3566 -0.0738  0.5758
   32SAPC  H17R 4308   0.952   3.588   7.208 -1.3370 -1.7265 -1.5310
   32SAPC  H17S 4309   1.072   3.715   7.160  0.5115  0.4178 -0.7936
   32SAPC  C218 4310   1.007   3.590   6.999  0.4905  0.1573  0.5620
   32SAPC  H18R 4311   0.915   3.534   6.971  0.7971 -0.2280  0.3155
   32SAPC  H18S 4312   1.100   3.530   7.007 -0.0626 -0.7301  0.4520
   32SAPC  C219 4313   1.047   3.687   6.873  0.5160  0.5481 -0.2315
   32SAPC  H19R 4314   1.124   3.758   6.912  2.1071  0.5070 -3.0542
   32SAPC  H19S 4315   0.964   3.754   6.841 -1.2805 -0.6947  1.5965
   32SAPC  C220 4316   1.104   3.616   6.751 -0.3214  0.3040 -0.3548
   32SAPC  H20R 4317   1.109   3.684   6.664 -0.6059  0.7094 -0.0578
   32SAPC  H20S 4318   1.052   3.520   6.727  2.0943 -1.0154 -0.6793
   32SAPC  H20T 4319   1.206   3.578   6.774 -0.1040  0.1803 -1.4668
   32SAPC   C33 4320   0.258   3.869   7.034 -0.1548 -1.0254  0.7134
   32SAPC   H3X 4321   0.162   3.819   7.061 -0.3561 -1.8505 -1.3323
   32SAPC   H3Y 4322   0.231   3.974   7.059  0.3839 -1.2575  2.3252
   32SAPC   C34 4323   0.366   3.805   7.134 -0.4241  0.2748  0.1627
   32SAPC   H4X 4324   0.458   3.864   7.115 -0.2788 -0.4732 -1.6681
   32SAPC   H4Y 4325   0.387   3.700   7.105  0.5047  0.6662 -0.6638
   32SAPC   C35 4326   0.326   3.796   7.285 -0.8450  0.2889  1.3462
   32SAPC   H5X 4327   0.289   3.695   7.310  2.4834 -1.3950  0.0514
   32SAPC   H5Y 4328   0.255   3.878   7.309  1.1146  2.7665 -0.7232
   32SAPC   C36 4329   0.446   3.811   7.375  0.0909 -0.4380 -0.3890
   32SAPC   H6X 4330   0.501   3.908   7.371  0.6167 -0.6226  1.4030
   32SAPC   H6Y 4331   0.513   3.735   7.328 -0.3584  0.7290 -3.1450
   32SAPC   C37 4332   0.421   3.766   7.521 -0.6517 -0.3528 -0.3957
   32SAPC   H7X 4333   0.390   3.660   7.516  0.8898 -0.7936 -4.6903
   32SAPC   H7Y 4334   0.346   3.832   7.570 -0.3997 -0.8655  0.7165
   32SAPC   C38 4335   0.554   3.779   7.609  0.7439  1.1970  0.6886
   32SAPC   H8X 4336   0.615   3.867   7.578 -0.4221  1.4398 -1.0440
   32SAPC   H8Y 4337   0.619   3.691   7.588  0.1154  0.9797 -0.4636
   32SAPC   C39 4338   0.514   3.779   7.758  0.4454  0.3227  0.4710
   32SAPC   H9X 4339   0.467   3.879   7.770 -1.8519 -0.5096 -0.8519
   32SAPC   H9Y 4340   0.609   3.773   7.814  0.3225  0.1463  0.6607
   32SAPC  C310 4341   0.405   3.686   7.806 -0.6701 -0.3283  1.4532
   32SAPC  H10X 4342   0.443   3.582   7.796 -0.1041  0.0971 -1.8166
   32SAPC  H10Y 4343   0.322   3.685   7.732  1.8992 -0.9462 -1.6230
   32SAPC  C311 4344   0.347   3.717   7.943 -1.0186  0.3134 -0.5016
   32SAPC  H11X 4345   0.241   3.683   7.938 -0.8391 -0.3979  0.2687
   32SAPC  H11Y 4346   0.330   3.827   7.944 -0.2013  0.4936 -2.3178
   32SAPC  C312 4347   0.437   3.672   8.060 -0.1120  0.8087 -0.1255
   32SAPC  H12X 4348   0.540   3.708   8.041 -0.4895  1.5153 -0.8951
   32SAPC  H12Y 4349   0.453   3.562   8.055  3.3666  1.1224  1.4568
   32SAPC  C313 4350   0.384   3.710   8.190 -1.0606  0.4391 -0.9993
   32SAPC  H13X 4351   0.290   3.656   8.216 -0.0471 -1.3563 -0.9271
   32SAPC  H13Y 4352   0.369   3.819   8.174  0.3605  0.4364 -2.6903
   32SAPC  C314 4353   0.482   3.679   8.311  0.0347  0.1433 -0.3396
   32SAPC  H14X 4354   0.590   3.681   8.284 -0.0700  0.6361 -0.7236
   32SAPC  H14Y 4355   0.468   3.580   8.360  0.4165  0.4504  0.4214
   32SAPC  C315 4356   0.466   3.772   8.428 -0.4234 -0.4224 -0.5983
   32SAPC  H15X 4357   0.502   3.873   8.399 -1.3189 -0.0466 -0.4321
   32SAPC  H15Y 4358   0.542   3.730   8.497 -1.5890 -1.0240  0.3691
   32SAPC  C316 4359   0.324   3.781   8.480 -0.2968  0.0588 -1.0944
   32SAPC  H16X 4360   0.270   3.684   8.475  0.3517 -0.5186  1.5418
   32SAPC  H16Y 4361   0.257   3.840   8.415  0.7287  0.6680 -1.6201
   32SAPC  C317 4362   0.309   3.824   8.625  0.3942  0.5353 -0.3967
   32SAPC  H17X 4363   0.324   3.934   8.632 -3.5192  1.0995  1.7977
   32SAPC  H17Y 4364   0.379   3.774   8.696  2.3506  0.5292 -2.2266
   32SAPC  C318 4365   0.167   3.803   8.671 -0.7036 -0.5158  0.0007
   32SAPC  H18X 4366   0.140   3.855   8.765 -0.4291 -0.6303  0.1448
   32SAPC  H18Y 4367   0.155   3.694   8.689 -1.4412 -0.1061  2.1847
   32SAPC  H18Z 4368   0.096   3.841   8.595  0.0483 -1.2384 -1.1009
   33POPC     N 4369   4.216   0.364  10.837  0.4530  0.0764  0.0389
   33POPC   C12 4370   4.341   0.337  10.757 -0.5704  0.5240  0.4083
   33POPC  H12A 4371   4.387   0.253  10.807 -2.1375 -0.3920  0.3720
   33POPC  H12B 4372   4.406   0.422  10.769 -1.0244  0.8601  0.4755
   33POPC   C13 4373   4.262   0.425  10.967  0.2612 -0.0851 -0.3989
   33POPC  H13A 4374   4.319   0.353  11.024  0.2562 -0.8677 -1.3589
   33POPC  H13B 4375   4.324   0.511  10.945 -1.1660  0.6657 -1.6849
   33POPC  H13C 4376   4.183   0.466  11.027  1.9622  1.2827  1.0217
   33POPC   C14 4377   4.136   0.469  10.766 -0.2778  0.0841  0.0907
   33POPC  H14A 4378   4.198   0.551  10.732 -0.1769  0.0273  0.1357
   33POPC  H14B 4379   4.097   0.426  10.675 -1.6730 -0.8793  1.1062
   33POPC  H14C 4380   4.052   0.504  10.824 -0.8703 -0.0812 -0.6603
   33POPC   C15 4381   4.138   0.243  10.870  0.7769 -0.4572 -0.3916
   33POPC  H15A 4382   4.113   0.178  10.787 -0.3246 -1.2973  0.5576
   33POPC  H15B 4383   4.067   0.269  10.947  0.2132  0.1986 -1.1068
   33POPC  H15C 4384   4.193   0.162  10.914 -0.4090 -1.1264 -0.0895
   33POPC   C11 4385   4.328   0.298  10.613 -0.3630 -0.0285  0.0609
   33POPC  H11A 4386   4.429   0.269  10.578 -0.9067 -0.4554 -1.2356
   33POPC  H11B 4387   4.292   0.385  10.553 -0.8470 -0.2416  0.0323
   33POPC     P 4388   4.288   0.039  10.591  0.2352 -0.1575 -0.4505
   33POPC   O13 4389   4.170  -0.053  10.600 -0.3887 -0.0992 -0.1932
   33POPC   O14 4390   4.392   0.020  10.697  1.0944 -0.3190  0.2317
   33POPC   O12 4391   4.234   0.187  10.600  0.3614 -0.1546  0.1793
   33POPC   O11 4392   4.342   0.022  10.448 -0.2216  1.0764  0.0885
   33POPC    C1 4393   4.276   0.077  10.332 -0.1990 -0.1918  0.1238
   33POPC    HA 4394   4.226   0.173  10.355 -0.1866 -0.0830 -0.2928
   33POPC    HB 4395   4.362   0.104  10.267  1.0480  1.6079  2.3856
   33POPC    C2 4396   4.162  -0.012  10.286 -0.0140 -0.6336  0.0772
   33POPC    HS 4397   4.081  -0.017  10.361 -0.7175  1.0373 -0.5196
   33POPC   O21 4398   4.230  -0.144  10.277  0.1035 -0.2325  0.4624
   33POPC   C21 4399   4.154  -0.255  10.278 -0.5185  0.2487  0.4243
   33POPC   O22 4400   4.033  -0.262  10.296  0.2400  0.7235 -0.5279
   33POPC   C22 4401   4.243  -0.367  10.217 -0.2472  0.2833 -0.2266
   33POPC   H2R 4402   4.276  -0.433  10.300 -1.9125 -0.5782 -0.1966
   33POPC   H2S 4403   4.332  -0.319  10.173  1.4641 -1.7258  0.8663
   33POPC    C3 4404   4.083   0.029  10.160  0.0121  0.3416  0.4612
   33POPC    HX 4405   4.029   0.124  10.173  0.8253  0.9099 -0.2008
   33POPC    HY 4406   4.009  -0.049  10.132  1.7116 -0.9895 -0.5780
   33POPC   O31 4407   4.163   0.050  10.035  0.8160 -0.4719 -0.0185
   33POPC   C31 4408   4.221   0.166  10.023  0.3497 -0.2028 -0.2739
   33POPC   O32 4409   4.219   0.260  10.098  0.6744  0.0351 -0.1801
   33POPC   C32 4410   4.306   0.173   9.893 -0.4200 -0.5979 -0.0534
   33POPC   H2X 4411   4.315   0.075   9.841 -1.1433  0.4031 -2.1740
   33POPC   H2Y 4412   4.408   0.208   9.921 -0.3932 -0.7477  0.0360
   33POPC   C23 4413   4.167  -0.465  10.116 -0.5743 -0.1136  0.0733
   33POPC   H3R 4414   4.080  -0.513  10.165  0.8684 -3.4388 -0.3370
   33POPC   H3S 4415   4.237  -0.545  10.085  2.8715  1.5532  2.8412
   33POPC   C24 4416   4.112  -0.376   9.995  0.0946  0.1448  0.5972
   33POPC   H4R 4417   4.203  -0.324   9.957 -1.1411  1.8782 -0.1056
   33POPC   H4S 4418   4.042  -0.299  10.033  0.3984  1.8728 -2.0677
   33POPC   C25 4419   4.041  -0.462   9.888 -0.8595 -0.2040  0.8807
   33POPC   H5R 4420   3.941  -0.500   9.920 -1.1035  0.2135  0.6183
   33POPC   H5S 4421   4.110  -0.548   9.873  0.4480  0.8817  0.5724
   33POPC   C26 4422   4.016  -0.384   9.755  0.2956  0.5011 -0.2048
   33POPC   H6R 4423   4.113  -0.345   9.718  0.5170 -0.3725 -0.5512
   33POPC   H6S 4424   3.952  -0.298   9.786 -0.3058 -0.2246  0.6151
   33POPC   C27 4425   3.938  -0.455   9.641  0.0880 -0.6070  0.3561
   33POPC   H7R 4426   3.834  -0.460   9.679 -1.0775  0.2754 -2.4724
   33POPC   H7S 4427   3.979  -0.558   9.640  0.5372 -0.4721 -1.9848
   33POPC   C28 4428   3.934  -0.382   9.510  0.4138  0.8615 -0.6405
   33POPC   H8R 4429   3.867  -0.439   9.441  0.5190 -0.1639  0.0816
   33POPC   H8S 4430   4.037  -0.388   9.470  0.1421 -0.4525 -1.2094
   33POPC   C29 4431   3.895  -0.239   9.534 -0.0810 -0.2905  0.4785
   33POPC   H91 4432   3.793  -0.224   9.572  0.0166  2.7590 -0.2458
   33POPC  C210 4433   3.970  -0.124   9.511 -0.6936  0.8726 -0.0764
   33POPC  H101 4434   3.936  -0.020   9.527  0.6942  1.2316  0.7452
   33POPC  C211 4435   4.113  -0.120   9.472 -0.1568  0.4917  1.2034
   33POPC  H11R 4436   4.164  -0.213   9.505  0.1004  0.1138 -0.2158
   33POPC  H11S 4437   4.163  -0.031   9.517  1.6040  0.1377  0.0072
   33POPC  C212 4438   4.132  -0.107   9.318  0.4323  0.1009  1.0313
   33POPC  H12R 4439   4.058  -0.166   9.260  3.1819 -2.6846  0.0394
   33POPC  H12S 4440   4.228  -0.161   9.304  0.1789 -0.5189  1.6043
   33POPC  C213 4441   4.131   0.038   9.270 -0.2514  0.3237  0.4001
   33POPC  H13R 4442   4.215   0.094   9.317 -1.1967  2.3684 -0.2383
   33POPC  H13S 4443   4.039   0.094   9.298 -1.1579 -1.8977  2.2138
   33POPC  C214 4444   4.154   0.047   9.115  0.5420  0.3144 -0.3385
   33POPC  H14R 4445   4.221  -0.033   9.078 -1.6878 -1.5647 -0.5495
   33POPC  H14S 4446   4.205   0.141   9.085  1.0317  0.2090  0.1639
   33POPC  C215 4447   4.026   0.023   9.047  0.5373 -0.0362  0.6244
   33POPC  H15R 4448   3.954   0.102   9.075  1.6542  1.7523 -1.2723
   33POPC  H15S 4449   3.990  -0.073   9.091  1.8754 -0.0085  1.8534
   33POPC  C216 4450   4.014  -0.014   8.892 -0.7286 -0.8398 -0.4417
   33POPC  H16R 4451   4.048   0.073   8.831 -1.3913 -0.4871 -0.3154
   33POPC  H16S 4452   3.907  -0.023   8.862 -0.7223 -0.5279 -0.5705
   33POPC  C217 4453   4.096  -0.136   8.846  0.1594  1.1220 -0.7727
   33POPC  H17R 4454   4.073  -0.221   8.914  3.0465  1.8202  1.2549
   33POPC  H17S 4455   4.206  -0.134   8.863  0.4371 -2.2888 -1.4077
   33POPC  C218 4456   4.076  -0.164   8.697 -0.5790  0.1496 -0.1611
   33POPC  H18R 4457   4.145  -0.249   8.676  0.8780  1.5459 -1.3520
   33POPC  H18S 4458   4.104  -0.088   8.621  2.7610 -2.8191 -2.1940
   33POPC  H18T 4459   3.971  -0.199   8.689 -0.0774 -1.3787 -0.2318
   33POPC   C33 4460   4.240   0.281   9.793  0.4353 -0.0831  0.2504
   33POPC   H3X 4461   4.202   0.373   9.841 -2.2447 -0.2140 -1.4275
   33POPC   H3Y 4462   4.158   0.223   9.746  0.6782 -1.3688  1.3280
   33POPC   C34 4463   4.333   0.311   9.675 -0.3577  0.0071  0.6002
   33POPC   H4X 4464   4.408   0.229   9.664 -1.0237 -0.4504 -0.8862
   33POPC   H4Y 4465   4.383   0.407   9.700 -2.0742  0.8545  0.8728
   33POPC   C35 4466   4.273   0.321   9.527  0.1785 -0.0860 -0.3295
   33POPC   H5X 4467   4.204   0.408   9.530 -0.8849 -0.9293  0.6907
   33POPC   H5Y 4468   4.202   0.238   9.512 -1.1707  0.9299  0.1916
   33POPC   C36 4469   4.380   0.342   9.419 -0.5719 -0.2137 -0.4196
   33POPC   H6X 4470   4.442   0.250   9.417  0.2835  0.3009  0.9321
   33POPC   H6Y 4471   4.450   0.422   9.449 -0.4934 -0.9681  1.5091
   33POPC   C37 4472   4.329   0.377   9.278  0.8432  0.4069  0.0277
   33POPC   H7X 4473   4.296   0.483   9.288 -0.8033  0.1993 -2.3984
   33POPC   H7Y 4474   4.248   0.305   9.251  2.6920 -1.2030 -1.5387
   33POPC   C38 4475   4.427   0.373   9.166 -0.1335  0.4401 -0.1984
   33POPC   H8X 4476   4.462   0.268   9.157  0.6652  0.7787 -1.3373
   33POPC   H8Y 4477   4.515   0.437   9.190  0.2480  0.7352 -2.2022
   33POPC   C39 4478   4.354   0.425   9.042 -0.1863  0.6622 -0.1285
   33POPC   H9X 4479   4.322   0.532   9.048  2.2574  1.5139 -0.9353
   33POPC   H9Y 4480   4.256   0.376   9.021  0.7453 -0.5764 -1.8373
   33POPC  C310 4481   4.439   0.413   8.915 -0.1447 -0.5653  0.7196
   33POPC  H10X 4482   4.491   0.314   8.921  0.4706 -0.2650  0.4307
   33POPC  H10Y 4483   4.520   0.488   8.915  0.0688 -0.7714  1.9868
   33POPC  C311 4484   4.368   0.440   8.786  0.2025 -0.3139  0.0975
   33POPC  H11X 4485   4.296   0.523   8.802  0.6387 -0.2205  1.6844
   33POPC  H11Y 4486   4.310   0.348   8.760  0.8780  0.0413 -3.0791
   33POPC  C312 4487   4.472   0.469   8.669 -0.9273 -0.5722 -0.1508
   33POPC  H12X 4488   4.531   0.378   8.648  0.6868  0.5704 -0.8027
   33POPC  H12Y 4489   4.541   0.552   8.694  0.6999 -2.2372  1.0945
   33POPC  C313 4490   4.407   0.492   8.543  0.5499  0.8484  0.2830
   33POPC  H13X 4491   4.327   0.568   8.544  0.4916  0.9401  4.1647
   33POPC  H13Y 4492   4.357   0.395   8.521  3.4821 -0.9000  0.8440
   33POPC  C314 4493   4.504   0.528   8.429 -0.3481 -0.7796  1.1001
   33POPC  H14X 4494   4.446   0.538   8.335  0.1199 -3.3470  0.4385
   33POPC  H14Y 4495   4.573   0.444   8.403 -2.1513 -1.2083 -3.2379
   33POPC  C315 4496   4.578   0.665   8.455 -0.1260 -0.7744 -1.1895
   33POPC  H15X 4497   4.639   0.652   8.547  1.4955 -0.5977 -2.1979
   33POPC  H15Y 4498   4.505   0.747   8.471  1.5869  0.1843  3.2195
   33POPC  C316 4499   4.662   0.707   8.341 -0.5965  0.3799 -0.0441
   33POPC  H16X 4500   4.609   0.765   8.263  0.9595  1.6271 -0.2180
   33POPC  H16Y 4501   4.715   0.621   8.293  0.2299  1.3964 -1.0110
   33POPC  H16Z 4502   4.727   0.784   8.385 -0.4963  0.0400  0.4076
   34POPC     N 4503   3.523   4.883  10.792  0.0467 -0.1583 -0.4750
   34POPC   C12 4504   3.580   4.960  10.669 -0.0639  0.5856  0.2209
   34POPC  H12A 4505   3.518   5.049  10.661 -3.6048 -1.7380 -0.1745
   34POPC  H12B 4506   3.560   4.894  10.587 -0.7492 -0.0896  0.9176
   34POPC   C13 4507   3.582   4.749  10.784 -0.1967  0.9895  0.6860
   34POPC  H13A 4508   3.689   4.756  10.796  0.1006 -0.6909 -0.6714
   34POPC  H13B 4509   3.554   4.688  10.869  0.6369 -3.3052 -1.8384
   34POPC  H13C 4510   3.551   4.697  10.695 -1.7448  0.5362  1.4489
   34POPC   C14 4511   3.556   4.950  10.923  0.1624 -0.6303  0.3986
   34POPC  H14A 4512   3.663   4.960  10.923  0.2401  0.7226 -3.8839
   34POPC  H14B 4513   3.514   5.049  10.915  2.8446  0.5074 -0.4200
   34POPC  H14C 4514   3.513   4.898  11.008  0.5703  1.9258  2.2928
   34POPC   C15 4515   3.372   4.869  10.786 -0.0863  0.1116  0.0486
   34POPC  H15A 4516   3.344   4.833  10.688 -0.4188 -0.4519  0.3458
   34POPC  H15B 4517   3.331   4.969  10.789  0.9819  0.5999 -0.8485
   34POPC  H15C 4518   3.321   4.819  10.867 -0.2396  1.2107  0.6490
   34POPC   C11 4519   3.733   5.002  10.670  0.4700  0.4923  0.3634
   34POPC  H11A 4520   3.758   5.030  10.566 -0.4585 -1.2951 -0.3899
   34POPC  H11B 4521   3.795   4.912  10.692 -2.5759 -1.8450  0.0036
   34POPC     P 4522   3.661   5.242  10.748  0.0071 -0.0592  0.2289
   34POPC   O13 4523   3.747   5.351  10.807 -0.6596  0.0101  0.2677
   34POPC   O14 4524   3.518   5.226  10.798 -0.5690 -0.6425 -0.9191
   34POPC   O12 4525   3.751   5.108  10.755 -0.2251 -0.0799  0.1347
   34POPC   O11 4526   3.649   5.275  10.594  0.1265  0.4622 -0.4424
   34POPC    C1 4527   3.733   5.371  10.523 -0.1455  0.6070  0.5024
   34POPC    HA 4528   3.753   5.328  10.423  0.7030 -1.4017  1.4688
   34POPC    HB 4529   3.832   5.382  10.574 -0.5825 -0.1389  1.5464
   34POPC    C2 4530   3.680   5.517  10.509 -0.1088 -0.1848 -0.0695
   34POPC    HS 4531   3.638   5.544  10.609 -0.6652 -2.2375  0.2980
   34POPC   O21 4532   3.586   5.526  10.396  0.4078  0.5316 -0.2543
   34POPC   C21 4533   3.470   5.475  10.406  0.2054 -0.1457  0.3180
   34POPC   O22 4534   3.411   5.428  10.503 -0.1755  0.7934 -0.5861
   34POPC   C22 4535   3.400   5.509  10.274 -0.0790 -0.0714  0.1381
   34POPC   H2R 4536   3.302   5.458  10.286 -0.4271  0.5147 -0.1584
   34POPC   H2S 4537   3.459   5.467  10.190  3.6152  2.6695  1.1362
   34POPC    C3 4538   3.798   5.617  10.487  0.3857  0.4697  0.3922
   34POPC    HX 4539   3.847   5.647  10.582 -0.9311  1.1166  0.8976
   34POPC    HY 4540   3.749   5.703  10.437  0.7735 -0.0686 -0.9375
   34POPC   O31 4541   3.897   5.553  10.406  0.0467 -0.0089  0.0294
   34POPC   C31 4542   3.986   5.636  10.361  0.2353  0.2937  0.4449
   34POPC   O32 4543   3.994   5.754  10.390  0.0130 -0.1043  0.7695
   34POPC   C32 4544   4.071   5.555  10.271  0.2206 -0.0992  0.5072
   34POPC   H2X 4545   4.010   5.505  10.193  1.3953 -2.9302  1.2680
   34POPC   H2Y 4546   4.109   5.468  10.329  0.8664 -0.4392 -0.4083
   34POPC   C23 4547   3.376   5.660  10.246  0.2939  0.2964 -0.1800
   34POPC   H3R 4548   3.476   5.708  10.243 -0.4545  1.8905 -0.3952
   34POPC   H3S 4549   3.314   5.706  10.326  0.6952  1.2681 -0.4247
   34POPC   C24 4550   3.314   5.680  10.110  0.8342  0.1339 -0.2300
   34POPC   H4R 4551   3.209   5.645  10.118 -0.0202  2.6014  0.2559
   34POPC   H4S 4552   3.372   5.619  10.037  0.7209 -1.8562  1.2521
   34POPC   C25 4553   3.312   5.824  10.066 -0.1611  0.3626 -0.2377
   34POPC   H5R 4554   3.395   5.872  10.122 -0.2784  0.4177 -0.1120
   34POPC   H5S 4555   3.217   5.875  10.094 -1.6899 -1.9364 -0.9543
   34POPC   C26 4556   3.341   5.828   9.920 -0.0930 -0.0710  0.3603
   34POPC   H6R 4557   3.294   5.921   9.881  2.6030  1.0973 -0.2947
   34POPC   H6S 4558   3.285   5.747   9.868 -0.5930  1.8097 -2.2242
   34POPC   C27 4559   3.486   5.816   9.880 -0.0432  0.2497 -0.0507
   34POPC   H7R 4560   3.507   5.708   9.873 -0.3004  0.0805  1.4694
   34POPC   H7S 4561   3.544   5.850   9.968 -0.2070 -0.6560  0.4153
   34POPC   C28 4562   3.535   5.902   9.766 -0.3150 -0.1485  0.4846
   34POPC   H8R 4563   3.646   5.911   9.762 -0.4225  0.9599 -0.1318
   34POPC   H8S 4564   3.493   6.002   9.789 -1.5598 -0.0833 -1.7862
   34POPC   C29 4565   3.482   5.874   9.627  0.1118  0.1923 -0.0472
   34POPC   H91 4566   3.416   5.788   9.616 -0.4309  0.6893 -0.7512
   34POPC  C210 4567   3.498   5.951   9.521 -0.3504  0.0964  0.2479
   34POPC  H101 4568   3.444   5.925   9.429 -0.8404  1.5791  0.0909
   34POPC  C211 4569   3.576   6.082   9.511 -0.5536 -0.0446  0.8527
   34POPC  H11R 4570   3.652   6.078   9.430  0.0445 -0.3545  1.4156
   34POPC  H11S 4571   3.641   6.109   9.598 -0.1425  0.7378  0.3149
   34POPC  C212 4572   3.488   6.200   9.485  0.1276  0.0815 -0.0040
   34POPC  H12R 4573   3.534   6.293   9.523  0.4477  0.1495 -0.5552
   34POPC  H12S 4574   3.393   6.189   9.542  0.7900  0.8641  1.2714
   34POPC  C213 4575   3.456   6.212   9.338  0.2979  0.7401  0.0196
   34POPC  H13R 4576   3.440   6.110   9.295  1.2433  1.6520 -2.7041
   34POPC  H13S 4577   3.546   6.253   9.287  1.1021 -1.3721 -0.3733
   34POPC  C214 4578   3.329   6.296   9.307 -0.3505  0.6684  0.2813
   34POPC  H14R 4579   3.329   6.398   9.351  0.3440  1.8987 -2.3911
   34POPC  H14S 4580   3.240   6.250   9.355 -0.1566  1.6000  1.6084
   34POPC  C215 4581   3.319   6.318   9.158 -0.5931  0.6085  0.7859
   34POPC  H15R 4582   3.411   6.365   9.117 -0.7563  0.1797 -0.0867
   34POPC  H15S 4583   3.244   6.400   9.146 -1.9684 -0.6125  0.8033
   34POPC  C216 4584   3.271   6.195   9.079  0.1726 -0.1033 -0.9127
   34POPC  H16R 4585   3.189   6.151   9.140  0.4324 -0.0803 -0.5390
   34POPC  H16S 4586   3.359   6.127   9.076 -0.0216 -0.6018  1.6780
   34POPC  C217 4587   3.215   6.222   8.942 -0.1894 -0.6940 -0.4618
   34POPC  H17R 4588   3.243   6.321   8.901  0.2358 -1.0230 -0.9958
   34POPC  H17S 4589   3.104   6.228   8.940 -0.0994  1.6961 -0.4847
   34POPC  C218 4590   3.273   6.115   8.846  0.8903  0.4651  0.1477
   34POPC  H18R 4591   3.218   6.115   8.750  0.8403  0.6889  0.1767
   34POPC  H18S 4592   3.259   6.019   8.901  0.1955  0.2758 -0.3471
   34POPC  H18T 4593   3.380   6.108   8.818  1.1260 -0.2727  1.1603
   34POPC   C33 4594   4.200   5.616  10.213  0.7080  0.0884 -0.6343
   34POPC   H3X 4595   4.271   5.617  10.299 -1.8718 -1.5491  1.7053
   34POPC   H3Y 4596   4.187   5.721  10.181  0.2529  0.2648  0.1029
   34POPC   C34 4597   4.265   5.540  10.103 -0.2189  0.0135  1.1399
   34POPC   H4X 4598   4.278   5.432  10.127 -0.4727 -0.5034 -0.8270
   34POPC   H4Y 4599   4.372   5.566  10.093  0.2364 -1.8555  0.7519
   34POPC   C35 4600   4.197   5.544   9.962  0.0846  0.0269 -0.6724
   34POPC   H5X 4601   4.221   5.648   9.933  1.9204 -0.5585 -1.3565
   34POPC   H5Y 4602   4.087   5.530   9.967 -0.0301  0.4425 -1.7905
   34POPC   C36 4603   4.258   5.446   9.857 -0.0218  0.2055 -0.0822
   34POPC   H6X 4604   4.250   5.344   9.901 -1.0988  0.6974  0.9109
   34POPC   H6Y 4605   4.368   5.454   9.851  0.0628 -0.0013  1.0671
   34POPC   C37 4606   4.183   5.455   9.727 -0.2676  0.2444 -0.0858
   34POPC   H7X 4607   4.185   5.558   9.685 -1.1438 -0.3632 -1.7021
   34POPC   H7Y 4608   4.075   5.431   9.735 -0.0951  0.1234  2.9994
   34POPC   C38 4609   4.247   5.382   9.609 -0.2925 -0.6898  0.7693
   34POPC   H8X 4610   4.346   5.431   9.603 -1.2690  1.3107 -0.0123
   34POPC   H8Y 4611   4.202   5.419   9.515  1.2206 -0.0874  0.2673
   34POPC   C39 4612   4.242   5.233   9.621  0.2285  0.6398  0.1928
   34POPC   H9X 4613   4.133   5.210   9.627 -0.6876  3.0234 -3.7894
   34POPC   H9Y 4614   4.301   5.190   9.705 -2.3027 -3.4147  0.2053
   34POPC  C310 4615   4.298   5.155   9.494  0.7641  0.0260  0.2924
   34POPC  H10X 4616   4.404   5.180   9.475  0.5370  1.9419  1.3501
   34POPC  H10Y 4617   4.240   5.171   9.401 -2.1282 -2.8140  1.4070
   34POPC  C311 4618   4.294   4.998   9.508  0.1379 -0.2557 -0.0323
   34POPC  H11X 4619   4.191   4.960   9.526  0.9091 -2.0872  0.7705
   34POPC  H11Y 4620   4.347   4.959   9.597 -0.1785 -0.8191 -0.0836
   34POPC  C312 4621   4.346   4.923   9.380 -0.3503 -0.3158 -0.4597
   34POPC  H12X 4622   4.444   4.968   9.353 -0.5152  0.8567  0.8460
   34POPC  H12Y 4623   4.279   4.934   9.291 -0.4217  0.5227 -0.3106
   34POPC  C313 4624   4.364   4.779   9.413  0.3290  0.0757  0.2795
   34POPC  H13X 4625   4.263   4.741   9.440 -0.1379 -0.0196 -1.4923
   34POPC  H13Y 4626   4.430   4.759   9.500 -0.5304  0.7115  1.0985
   34POPC  C314 4627   4.415   4.698   9.296 -0.3077 -0.5813  0.2559
   34POPC  H14X 4628   4.501   4.755   9.255 -0.0559  1.8410  3.7454
   34POPC  H14Y 4629   4.342   4.672   9.216 -0.5903 -2.3233  1.0228
   34POPC  C315 4630   4.479   4.567   9.344 -0.6838 -0.0728 -0.5738
   34POPC  H15X 4631   4.394   4.505   9.377 -2.2176  2.3565  0.2596
   34POPC  H15Y 4632   4.544   4.591   9.431  0.6475  1.0054 -1.7854
   34POPC  C316 4633   4.559   4.496   9.239  0.0512 -0.4284 -0.5179
   34POPC  H16X 4634   4.492   4.488   9.151 -2.1262  1.7110  0.7774
   34POPC  H16Y 4635   4.579   4.391   9.269 -0.8772 -0.9269 -1.5714
   34POPC  H16Z 4636   4.656   4.541   9.209 -0.1819 -0.4998 -1.3839
   35POPC     N 4637   5.120   3.198  10.989  0.2720 -0.4789  0.2309
   35POPC   C12 4638   5.032   3.296  10.921 -0.0908  0.1413  0.3484
   35POPC  H12A 4639   4.950   3.250  10.867  0.7756  1.4060 -2.1917
   35POPC  H12B 4640   5.089   3.345  10.843 -1.8382  1.1273 -0.3656
   35POPC   C13 4641   5.054   3.120  11.097 -0.3051  1.0797 -0.6782
   35POPC  H13A 4642   4.961   3.072  11.073 -1.9991  2.2020  2.9466
   35POPC  H13B 4643   5.122   3.043  11.130  0.7649  1.5747 -1.6312
   35POPC  H13C 4644   5.026   3.185  11.178  0.1130  2.1563 -1.3685
   35POPC   C14 4645   5.161   3.090  10.887  0.1130  0.5322 -0.0684
   35POPC  H14A 4646   5.070   3.038  10.861  0.4182  0.0594 -0.1809
   35POPC  H14B 4647   5.227   3.124  10.809  1.9245 -1.5634  0.4581
   35POPC  H14C 4648   5.217   3.011  10.933 -0.0465  0.8699  0.7224
   35POPC   C15 4649   5.243   3.265  11.044 -0.9407  0.1746 -0.3380
   35POPC  H15A 4650   5.226   3.327  11.131 -1.3878  0.6283 -0.7456
   35POPC  H15B 4651   5.295   3.330  10.976  1.5604  0.3289  1.5648
   35POPC  H15C 4652   5.320   3.193  11.069  0.8197  1.6252 -1.3513
   35POPC   C11 4653   4.965   3.409  11.007  0.0296  0.5012 -0.1312
   35POPC  H11A 4654   4.926   3.484  10.936 -1.2002  1.4146  1.4513
   35POPC  H11B 4655   5.051   3.459  11.056  1.1565 -0.1672 -1.3470
   35POPC     P 4656   4.712   3.347  11.059 -0.3413 -0.2804 -0.0057
   35POPC   O13 4657   4.644   3.480  11.078  0.0278  0.0575 -0.1293
   35POPC   O14 4658   4.660   3.236  11.129  0.6935 -0.1261 -0.3042
   35POPC   O12 4659   4.863   3.370  11.098 -0.1472  0.6606  0.0522
   35POPC   O11 4660   4.715   3.312  10.908 -0.1069 -0.0680 -0.1196
   35POPC    C1 4661   4.609   3.338  10.821 -0.1900  0.1033 -1.3340
   35POPC    HA 4662   4.520   3.392  10.862 -0.0872  0.2430 -1.2923
   35POPC    HB 4663   4.562   3.242  10.792 -0.8920 -0.3451  1.0351
   35POPC    C2 4664   4.640   3.422  10.694  0.2372  0.0535  0.3118
   35POPC    HS 4665   4.549   3.426  10.630  0.7510 -1.3406 -0.5638
   35POPC   O21 4666   4.750   3.366  10.622  0.2997  0.4829 -0.0910
   35POPC   C21 4667   4.731   3.246  10.560  0.3338  0.0704 -0.2014
   35POPC   O22 4668   4.632   3.180  10.556  0.0225 -0.2132 -0.3611
   35POPC   C22 4669   4.865   3.198  10.492  0.4417  0.7656 -0.8529
   35POPC   H2R 4670   4.831   3.120  10.422 -1.7596  3.0938 -2.5604
   35POPC   H2S 4671   4.920   3.157  10.580 -0.7601 -1.8580 -1.2479
   35POPC    C3 4672   4.674   3.568  10.732 -0.4513  0.5061 -0.0473
   35POPC    HX 4673   4.765   3.561  10.796 -0.6969  0.4908  0.3063
   35POPC    HY 4674   4.594   3.603  10.801  0.8913  0.5002  1.5801
   35POPC   O31 4675   4.684   3.650  10.618  0.7163 -0.3320  0.1363
   35POPC   C31 4676   4.797   3.711  10.598  0.3067 -0.8589  0.2339
   35POPC   O32 4677   4.892   3.712  10.675  0.3640  0.0882 -0.3548
   35POPC   C32 4678   4.808   3.777  10.463  0.0750 -0.0108  0.0174
   35POPC   H2X 4679   4.710   3.796  10.415  0.7362  2.8219 -0.4082
   35POPC   H2Y 4680   4.871   3.705  10.406  2.0601  0.4176  1.5521
   35POPC   C23 4681   4.956   3.317  10.441 -0.1222 -0.4300 -0.2908
   35POPC   H3R 4682   5.053   3.271  10.413  0.2097 -0.8718  1.4857
   35POPC   H3S 4683   4.980   3.389  10.522 -0.1989  2.1492 -2.4174
   35POPC   C24 4684   4.907   3.398  10.318 -0.5642 -0.0686  0.0364
   35POPC   H4R 4685   4.992   3.462  10.287 -1.0623 -0.5951 -2.6737
   35POPC   H4S 4686   4.833   3.473  10.353 -2.1510 -0.6134 -1.9094
   35POPC   C25 4687   4.865   3.305  10.205  0.9761 -0.9334 -0.1908
   35POPC   H5R 4688   4.898   3.199  10.215 -0.0782 -1.4183 -1.4998
   35POPC   H5S 4689   4.916   3.355  10.121  0.1436  0.8274  0.3045
   35POPC   C26 4690   4.713   3.301  10.172 -0.7519  0.3358  0.5412
   35POPC   H6R 4691   4.674   3.404  10.156 -1.1690 -0.2408 -2.7053
   35POPC   H6S 4692   4.648   3.266  10.255  0.8979 -1.3439  1.1931
   35POPC   C27 4693   4.689   3.213  10.054  0.1063  0.9480  0.5125
   35POPC   H7R 4694   4.706   3.105  10.077 -0.3089  0.3891 -1.5836
   35POPC   H7S 4695   4.761   3.241   9.975 -1.7134  0.1966 -1.5206
   35POPC   C28 4696   4.541   3.228  10.009  0.2989  0.3878 -0.2680
   35POPC   H8R 4697   4.526   3.336   9.987  0.1450  0.6118  0.8893
   35POPC   H8S 4698   4.466   3.211  10.089  0.6929 -0.2685 -0.0335
   35POPC   C29 4699   4.497   3.138   9.894 -0.2963 -0.4607 -0.3838
   35POPC   H91 4700   4.455   3.040   9.921  1.3939 -1.0153  0.3761
   35POPC  C210 4701   4.504   3.171   9.769 -0.3436 -0.7706  0.1440
   35POPC  H101 4702   4.466   3.109   9.687 -1.3672  0.4902 -0.3790
   35POPC  C211 4703   4.559   3.301   9.712  0.5926  0.0264 -0.5909
   35POPC  H11R 4704   4.632   3.271   9.633  0.8087 -3.3485  0.7270
   35POPC  H11S 4705   4.613   3.366   9.784 -1.0386  1.3517 -0.5170
   35POPC  C212 4706   4.457   3.387   9.643 -0.6282  0.0627  0.6189
   35POPC  H12R 4707   4.511   3.472   9.597  0.1742 -0.8880 -0.2389
   35POPC  H12S 4708   4.386   3.435   9.714 -1.6675  1.2825 -1.1473
   35POPC  C213 4709   4.370   3.315   9.536  0.3434 -0.1951  0.2625
   35POPC  H13R 4710   4.309   3.240   9.590  0.6278 -0.2376  0.5325
   35POPC  H13S 4711   4.447   3.275   9.466 -0.8163 -0.5005 -0.8606
   35POPC  C214 4712   4.275   3.397   9.451 -0.1470 -0.8403 -0.6194
   35POPC  H14R 4713   4.318   3.473   9.382  0.2291 -0.2504  0.2475
   35POPC  H14S 4714   4.210   3.452   9.523  0.5647 -1.3464  0.4422
   35POPC  C215 4715   4.196   3.299   9.361  0.5646  0.5542 -0.0400
   35POPC  H15R 4716   4.132   3.230   9.419 -0.3239  1.4574  0.0867
   35POPC  H15S 4717   4.258   3.234   9.296 -0.7821 -1.2169  0.4002
   35POPC  C216 4718   4.097   3.363   9.258 -0.5898  1.0826 -1.6373
   35POPC  H16R 4719   4.078   3.283   9.184 -0.9846  0.6792 -1.1087
   35POPC  H16S 4720   4.153   3.449   9.215  1.9295  0.4435  0.1063
   35POPC  C217 4721   3.957   3.402   9.308 -0.2207  0.3877  0.4201
   35POPC  H17R 4722   3.973   3.474   9.390 -0.9238 -0.5139  1.3731
   35POPC  H17S 4723   3.914   3.310   9.352  1.1314 -0.2783  0.3921
   35POPC  C218 4724   3.875   3.473   9.197 -0.1447 -0.0112  0.1615
   35POPC  H18R 4725   3.879   3.412   9.103  0.8927  0.7377 -0.2995
   35POPC  H18S 4726   3.907   3.578   9.180  2.0199 -0.8823 -1.6648
   35POPC  H18T 4727   3.767   3.475   9.224 -0.0302 -2.6066  1.1035
   35POPC   C33 4728   4.901   3.901  10.459 -0.3930  0.2807  0.3963
   35POPC   H3X 4729   4.993   3.869  10.513  0.6372  0.6168 -1.0946
   35POPC   H3Y 4730   4.852   3.984  10.514  1.4101 -0.2881  3.0280
   35POPC   C34 4731   4.952   3.961  10.326 -0.2419  0.1076  0.8709
   35POPC   H4X 4732   5.038   3.895  10.300 -0.9534 -2.1469  3.7320
   35POPC   H4Y 4733   4.985   4.065  10.345 -1.1959  0.9009 -1.5061
   35POPC   C35 4734   4.852   3.968  10.213  0.1919  0.0302  0.1659
   35POPC   H5X 4735   4.756   4.012  10.247  0.0699  0.9681 -1.3096
   35POPC   H5Y 4736   4.833   3.861  10.190 -2.8330  1.0959 -3.2681
   35POPC   C36 4737   4.910   4.047  10.090  0.5659  0.2565  0.6206
   35POPC   H6X 4738   5.012   4.015  10.059 -0.8281 -1.5487 -2.7373
   35POPC   H6Y 4739   4.926   4.151  10.124  0.0481  0.9433 -1.0906
   35POPC   C37 4740   4.832   4.012   9.963  0.3224  0.0232  0.2739
   35POPC   H7X 4741   4.723   4.031   9.971 -0.4834 -2.5306 -2.7402
   35POPC   H7Y 4742   4.851   3.903   9.951  1.4104  0.2409 -0.1529
   35POPC   C38 4743   4.898   4.090   9.840  0.1900 -0.1478 -0.9967
   35POPC   H8X 4744   5.006   4.063   9.837  0.0152 -0.8564 -1.0569
   35POPC   H8Y 4745   4.892   4.198   9.867  0.1726 -0.1889 -0.8311
   35POPC   C39 4746   4.830   4.067   9.709 -0.5884  0.1327 -0.9976
   35POPC   H9X 4747   4.730   4.113   9.721 -1.0046 -1.1314  0.8943
   35POPC   H9Y 4748   4.811   3.960   9.684 -1.3272 -1.0198  3.6506
   35POPC  C310 4749   4.899   4.132   9.590  0.5531 -0.2981 -0.6412
   35POPC  H10X 4750   4.999   4.084   9.585  0.2254 -0.9454 -1.1765
   35POPC  H10Y 4751   4.916   4.240   9.613 -0.4626 -0.4561  1.0534
   35POPC  C311 4752   4.825   4.108   9.456  0.8027  0.0421  0.6430
   35POPC  H11X 4753   4.717   4.129   9.473  0.0969 -1.4494 -1.4789
   35POPC  H11Y 4754   4.835   3.998   9.439  1.1083 -0.0539  1.3964
   35POPC  C312 4755   4.870   4.197   9.334  0.2756  0.2866  0.1295
   35POPC  H12X 4756   4.979   4.178   9.321  0.2935  0.3387  0.2031
   35POPC  H12Y 4757   4.852   4.299   9.374 -0.6225 -0.0688  0.6678
   35POPC  C313 4758   4.799   4.164   9.203  0.4271 -0.1834 -0.5717
   35POPC  H13X 4759   4.691   4.177   9.226  0.7303  0.4679  0.5592
   35POPC  H13Y 4760   4.818   4.056   9.186 -0.9775 -0.7371  1.0824
   35POPC  C314 4761   4.835   4.239   9.080 -0.1945 -0.1765  0.7076
   35POPC  H14X 4762   4.946   4.232   9.075 -0.2264 -0.0699 -0.4419
   35POPC  H14Y 4763   4.810   4.346   9.096  2.8483  0.8989 -1.0585
   35POPC  C315 4764   4.769   4.192   8.952  0.1929 -0.1072  0.1279
   35POPC  H15X 4765   4.668   4.233   8.930 -0.9478 -2.5312  0.4168
   35POPC  H15Y 4766   4.754   4.082   8.953 -0.5061 -0.0422  2.3096
   35POPC  C316 4767   4.856   4.223   8.830 -1.2626  0.3231 -0.3280
   35POPC  H16X 4768   4.817   4.169   8.742 -0.3941 -2.8214  1.0903
   35POPC  H16Y 4769   4.964   4.196   8.839 -1.2696  0.2380 -0.5017
   35POPC  H16Z 4770   4.854   4.326   8.788  0.3019 -0.9997 -4.1170
   36POPC     N 4771   4.219   3.611  11.059 -0.1674  0.1580  0.0331
   36POPC   C12 4772   4.170   3.758  11.066  0.8119  0.1100  0.4811
   36POPC  H12A 4773   4.063   3.766  11.074  0.5668  1.1207 -2.6240
   36POPC  H12B 4774   4.170   3.796  10.965 -3.8626 -0.6981 -0.0500
   36POPC   C13 4775   4.362   3.599  11.021  0.1773  0.4617 -0.2065
   36POPC  H13A 4776   4.374   3.631  10.918  0.4339  2.6267  0.4377
   36POPC  H13B 4777   4.433   3.664  11.070  3.1451 -1.4052 -1.7584
   36POPC  H13C 4778   4.400   3.499  11.031 -2.0113 -0.1956  3.0995
   36POPC   C14 4779   4.212   3.552  11.198 -0.4812  0.2684 -0.1509
   36POPC  H14A 4780   4.109   3.567  11.223 -1.5566 -2.9764 -1.9407
   36POPC  H14B 4781   4.233   3.446  11.201 -0.5793  0.2819  2.3145
   36POPC  H14C 4782   4.276   3.603  11.269 -0.5868  1.6368 -1.0073
   36POPC   C15 4783   4.141   3.525  10.969 -0.1302  0.0545  0.5947
   36POPC  H15A 4784   4.034   3.525  10.986 -0.7612  1.3449 -2.6119
   36POPC  H15B 4785   4.155   3.424  11.003 -1.8986 -0.1855  0.7109
   36POPC  H15C 4786   4.174   3.524  10.866 -0.4718 -1.6406  0.4736
   36POPC   C11 4787   4.221   3.864  11.169  0.3965  0.6831  0.0048
   36POPC  H11A 4788   4.183   3.845  11.272  1.1594  0.1161  0.1852
   36POPC  H11B 4789   4.168   3.959  11.145 -3.2575 -0.8772  1.1739
   36POPC     P 4790   4.437   3.968  11.061  0.4691 -0.2287  0.0608
   36POPC   O13 4791   4.572   3.915  11.053  0.0288  0.0636 -0.5719
   36POPC   O14 4792   4.414   4.108  11.108 -0.2880  0.2767  0.6930
   36POPC   O12 4793   4.359   3.872  11.166 -0.4244 -0.5728 -0.1635
   36POPC   O11 4794   4.362   3.943  10.932  0.2164  0.0950  0.4880
   36POPC    C1 4795   4.393   4.016  10.806  0.6657  0.3542  0.2193
   36POPC    HA 4796   4.497   4.053  10.810  0.5549  0.5780  1.6303
   36POPC    HB 4797   4.318   4.098  10.808  0.6034  0.2916  1.4699
   36POPC    C2 4798   4.377   3.919  10.687  0.3592 -0.2230 -0.8692
   36POPC    HS 4799   4.455   3.843  10.707 -1.9043 -2.9790 -1.7440
   36POPC   O21 4800   4.400   3.991  10.560 -0.1514 -0.0763  0.1106
   36POPC   C21 4801   4.528   4.023  10.538 -0.3013 -0.6963  0.1600
   36POPC   O22 4802   4.623   3.999  10.607 -0.3833  0.5907  0.1498
   36POPC   C22 4803   4.539   4.078  10.390  0.3783 -0.2590  0.0373
   36POPC   H2R 4804   4.553   3.992  10.323 -1.1346  1.6419 -2.9441
   36POPC   H2S 4805   4.620   4.154  10.389 -1.0126  1.2981 -0.0798
   36POPC    C3 4806   4.244   3.839  10.690 -0.5220  0.0015 -0.2468
   36POPC    HX 4807   4.169   3.916  10.665  0.1464 -0.1139 -2.8614
   36POPC    HY 4808   4.230   3.799  10.793  3.0737 -1.1523 -0.0462
   36POPC   O31 4809   4.245   3.737  10.583 -0.3718 -0.3585 -0.1039
   36POPC   C31 4810   4.302   3.628  10.611  0.0389  0.0597  1.1928
   36POPC   O32 4811   4.347   3.596  10.721 -0.2499  0.3388 -0.8201
   36POPC   C32 4812   4.278   3.535  10.484  0.1257 -0.0331 -0.5243
   36POPC   H2X 4813   4.176   3.557  10.446  0.6756  1.5524 -1.1627
   36POPC   H2Y 4814   4.282   3.433  10.528  0.6991  0.7978  1.4231
   36POPC   C23 4815   4.415   4.149  10.335 -0.5727 -0.0703  0.0566
   36POPC   H3R 4816   4.367   4.212  10.412  0.5084 -1.0662  1.6141
   36POPC   H3S 4817   4.337   4.076  10.304 -1.8386  1.7752 -1.3331
   36POPC   C24 4818   4.435   4.237  10.208  0.7573  0.0341  0.2572
   36POPC   H4R 4819   4.496   4.326  10.234  0.9622 -0.2792  0.8798
   36POPC   H4S 4820   4.332   4.276  10.189 -0.2328 -2.7566 -0.4752
   36POPC   C25 4821   4.501   4.165  10.090  0.0096  0.3238 -0.4207
   36POPC   H5R 4822   4.524   4.061  10.122 -0.9505  0.0817 -0.5020
   36POPC   H5S 4823   4.594   4.216  10.056  0.8744 -0.6927  0.3419
   36POPC   C26 4824   4.402   4.145   9.967 -0.2798  0.5979 -0.4703
   36POPC   H6R 4825   4.304   4.120  10.011  0.4451 -2.2845 -0.2721
   36POPC   H6S 4826   4.430   4.061   9.900  0.2256  1.9560 -2.0433
   36POPC   C27 4827   4.383   4.273   9.889 -0.2964  0.4720  0.5149
   36POPC   H7R 4828   4.484   4.315   9.871  0.0121  0.8255  2.6880
   36POPC   H7S 4829   4.327   4.352   9.944 -3.1379 -1.0037 -0.1123
   36POPC   C28 4830   4.299   4.273   9.757  0.1678  0.0551 -0.9538
   36POPC   H8R 4831   4.366   4.217   9.687  1.1649  0.5243 -0.3957
   36POPC   H8S 4832   4.284   4.377   9.722 -0.4609 -0.1584 -1.3232
   36POPC   C29 4833   4.168   4.204   9.776  0.6295 -0.5965  0.3917
   36POPC   H91 4834   4.175   4.104   9.820 -2.5057 -1.5510 -1.0183
   36POPC  C210 4835   4.048   4.240   9.734  0.1673  0.1924 -0.3606
   36POPC  H101 4836   3.953   4.189   9.756 -0.3968  1.3942  0.0703
   36POPC  C211 4837   4.015   4.373   9.672  0.1512 -0.2429  0.1826
   36POPC  H11R 4838   4.100   4.440   9.650  0.1067 -0.6319 -1.2789
   36POPC  H11S 4839   3.941   4.422   9.739  0.3703 -0.1850  0.3860
   36POPC  C212 4840   3.957   4.353   9.536 -0.3841  0.1318 -0.2916
   36POPC  H12R 4841   3.866   4.290   9.541 -0.6566  0.6074  2.0637
   36POPC  H12S 4842   4.025   4.292   9.473  2.5402  0.1112  2.5961
   36POPC  C213 4843   3.943   4.482   9.451 -0.0461 -0.1196 -0.1872
   36POPC  H13R 4844   4.040   4.532   9.433  0.0341  1.4028  3.5531
   36POPC  H13S 4845   3.900   4.555   9.523 -0.0305  0.9633 -1.2653
   36POPC  C214 4846   3.861   4.474   9.320 -0.0593  0.5220  0.6054
   36POPC  H14R 4847   3.842   4.574   9.275 -3.0028 -1.0709 -2.1748
   36POPC  H14S 4848   3.763   4.429   9.346  0.2729 -0.0764  0.8270
   36POPC  C215 4849   3.927   4.390   9.212 -0.3941  0.1869 -0.3192
   36POPC  H15R 4850   3.843   4.356   9.147 -1.1963 -0.7519  1.1555
   36POPC  H15S 4851   3.969   4.301   9.262 -0.7964  0.0075 -0.2981
   36POPC  C216 4852   4.044   4.458   9.129  0.6108 -0.4289  0.1145
   36POPC  H16R 4853   4.085   4.382   9.058  1.9042  0.2261  0.1298
   36POPC  H16S 4854   4.133   4.488   9.189  0.6797  0.5662 -0.4507
   36POPC  C217 4855   4.013   4.591   9.050  0.3038  0.0818 -0.7950
   36POPC  H17R 4856   3.977   4.664   9.124  0.0782  1.3416 -2.0987
   36POPC  H17S 4857   3.924   4.583   8.984  0.0846  2.4552 -0.8830
   36POPC  C218 4858   4.128   4.650   8.968 -0.0605 -0.0420  0.7559
   36POPC  H18R 4859   4.082   4.687   8.874  0.5870  0.1479  0.5090
   36POPC  H18S 4860   4.211   4.587   8.930 -0.5551  0.3255 -1.0592
   36POPC  H18T 4861   4.173   4.740   9.015 -2.0204  0.5936  1.5163
   36POPC   C33 4862   4.386   3.546  10.374 -0.6695  0.0210 -0.6151
   36POPC   H3X 4863   4.398   3.468  10.296  1.0349 -0.6235  0.2217
   36POPC   H3Y 4864   4.486   3.546  10.422 -0.2972  0.4422 -1.3728
   36POPC   C34 4865   4.367   3.674  10.295  0.1728  0.3751 -0.9005
   36POPC   H4X 4866   4.350   3.750  10.375  0.1160  0.0845 -0.6337
   36POPC   H4Y 4867   4.279   3.682  10.228 -1.6350  3.4190  1.5478
   36POPC   C35 4868   4.487   3.707  10.203 -0.2549 -0.0630 -0.3760
   36POPC   H5X 4869   4.577   3.667  10.254 -0.1144  0.8942  0.1605
   36POPC   H5Y 4870   4.498   3.818  10.199  0.4653 -0.1534 -1.0801
   36POPC   C36 4871   4.479   3.650  10.057 -0.4601 -0.4737 -0.5510
   36POPC   H6X 4872   4.388   3.698  10.015 -1.8485 -0.8291  1.8268
   36POPC   H6Y 4873   4.455   3.542  10.056 -1.7697 -0.1987 -0.7246
   36POPC   C37 4874   4.605   3.696   9.978  0.2380  0.4687  0.2437
   36POPC   H7X 4875   4.688   3.638  10.023  1.2654  0.3686 -1.6837
   36POPC   H7Y 4876   4.620   3.800  10.014  1.8258 -0.0094  1.0646
   36POPC   C38 4877   4.591   3.701   9.823  0.3974  0.2590  0.5632
   36POPC   H8X 4878   4.544   3.604   9.797 -0.1603  1.0413 -1.5657
   36POPC   H8Y 4879   4.694   3.703   9.782 -0.1110 -0.4889 -0.7999
   36POPC   C39 4880   4.518   3.828   9.770 -0.2736 -0.3287  0.1238
   36POPC   H9X 4881   4.565   3.923   9.803  1.1302 -0.4750 -1.2945
   36POPC   H9Y 4882   4.413   3.824   9.807 -0.8655 -0.4490 -1.5027
   36POPC  C310 4883   4.509   3.847   9.614  0.1315 -0.3849  0.2381
   36POPC  H10X 4884   4.452   3.760   9.575  0.4928 -1.5914  2.2440
   36POPC  H10Y 4885   4.608   3.853   9.563 -0.1204  1.2982 -0.1031
   36POPC  C311 4886   4.441   3.979   9.582 -0.0978  0.3037 -0.2478
   36POPC  H11X 4887   4.506   4.064   9.613 -0.5561  0.0481  1.5323
   36POPC  H11Y 4888   4.341   3.995   9.627  0.6491  2.3629  0.8242
   36POPC  C312 4889   4.417   3.991   9.429  0.0007  0.1426  0.1328
   36POPC  H12X 4890   4.361   3.901   9.397 -1.0708  0.7828  0.1793
   36POPC  H12Y 4891   4.514   3.978   9.375 -0.6208  0.9868 -1.2290
   36POPC  C313 4892   4.347   4.120   9.383  0.9028 -0.7516  0.0167
   36POPC  H13X 4893   4.387   4.202   9.447  0.0966  0.6397 -1.2006
   36POPC  H13Y 4894   4.240   4.112   9.411  0.8418  0.5544  0.1938
   36POPC  C314 4895   4.372   4.125   9.230 -0.1767 -0.2804 -0.9003
   36POPC  H14X 4896   4.333   4.027   9.195  2.4516 -0.9604 -2.2373
   36POPC  H14Y 4897   4.480   4.128   9.203 -0.2345  1.2747 -1.0634
   36POPC  C315 4898   4.292   4.241   9.160  0.3145  0.6827 -0.5197
   36POPC  H15X 4899   4.315   4.337   9.210  0.2882  0.6344 -0.4165
   36POPC  H15Y 4900   4.183   4.220   9.166  0.1064  1.5776 -1.0668
   36POPC  C316 4901   4.326   4.274   9.012  0.3848  0.5963 -0.6673
   36POPC  H16X 4902   4.270   4.358   8.967 -2.3531 -1.9973 -2.4959
   36POPC  H16Y 4903   4.296   4.190   8.946  3.5280 -0.5115 -0.8728
   36POPC  H16Z 4904   4.434   4.282   8.987  0.9778 -2.4804  0.4408
   37POPC     N 4905   3.287   5.003   6.291 -0.2134 -0.5679  0.3161
   37POPC   C12 4906   3.289   5.022   6.441  0.1201 -0.5852 -0.1667
   37POPC  H12A 4907   3.186   5.042   6.469  0.4363  0.6489  0.1571
   37POPC  H12B 4908   3.333   5.120   6.451  1.4066 -1.2774  1.5043
   37POPC   C13 4909   3.274   5.137   6.234 -0.5196  0.4269 -0.1139
   37POPC  H13A 4910   3.352   5.206   6.263 -1.0566  0.3410  1.6475
   37POPC  H13B 4911   3.262   5.144   6.127  1.4361  2.5299 -0.2685
   37POPC  H13C 4912   3.182   5.179   6.271 -0.9068 -1.5954  1.3928
   37POPC   C14 4913   3.418   4.944   6.247  0.9164 -0.8111 -0.5148
   37POPC  H14A 4914   3.424   4.842   6.281  1.2934 -0.4147  0.6461
   37POPC  H14B 4915   3.433   4.943   6.140  2.8434  2.1341 -0.3949
   37POPC  H14C 4916   3.496   4.989   6.307  0.0878 -1.1380  0.8383
   37POPC   C15 4917   3.164   4.928   6.240 -0.0415 -0.2855  0.0676
   37POPC  H15A 4918   3.183   4.924   6.134  2.8886  0.0564  0.4952
   37POPC  H15B 4919   3.075   4.986   6.261 -1.8794 -3.0056  0.3641
   37POPC  H15C 4920   3.151   4.830   6.284  3.5352 -0.6966  0.5013
   37POPC   C11 4921   3.353   4.927   6.542 -0.0117 -0.0992 -0.2836
   37POPC  H11A 4922   3.347   4.968   6.645 -0.9081  1.0073 -0.7505
   37POPC  H11B 4923   3.463   4.924   6.525 -0.3592  0.3210 -2.9368
   37POPC     P 4924   3.134   4.775   6.580  0.0177 -0.3015 -0.1260
   37POPC   O13 4925   3.063   4.715   6.468  0.2328 -0.0259  0.0229
   37POPC   O14 4926   3.077   4.896   6.639  0.1139  0.4321  0.8908
   37POPC   O12 4927   3.287   4.802   6.534 -0.4217 -0.0175  0.1232
   37POPC   O11 4928   3.137   4.660   6.690  0.0463 -0.2339  0.3486
   37POPC    C1 4929   3.235   4.660   6.804  0.0465  0.2412  1.0290
   37POPC    HA 4930   3.302   4.748   6.792 -0.9483  0.9964  0.8873
   37POPC    HB 4931   3.294   4.566   6.810  1.5668  1.0256 -0.5966
   37POPC    C2 4932   3.164   4.684   6.941 -0.5626  0.2284 -0.4975
   37POPC    HS 4933   3.096   4.598   6.956  1.9048 -1.6471  0.6357
   37POPC   O21 4934   3.098   4.813   6.939 -0.0307  0.5328  1.1485
   37POPC   C21 4935   2.979   4.812   6.985 -0.0182  0.2863 -0.4270
   37POPC   O22 4936   2.913   4.716   7.018  0.4624 -0.5976  0.3238
   37POPC   C22 4937   2.931   4.958   7.002 -0.0601 -0.0857 -0.9673
   37POPC   H2R 4938   2.831   4.971   6.953 -1.3504  2.2512  1.9615
   37POPC   H2S 4939   3.010   5.013   6.946  1.7889 -2.1258 -0.4438
   37POPC    C3 4940   3.266   4.669   7.061  0.2008 -0.2277  0.1258
   37POPC    HX 4941   3.334   4.754   7.040 -0.0943 -0.5618 -2.4990
   37POPC    HY 4942   3.330   4.581   7.036 -0.5005 -1.1662  1.4858
   37POPC   O31 4943   3.205   4.665   7.191 -0.2865 -0.2171 -0.0672
   37POPC   C31 4944   3.174   4.546   7.247 -0.1671  0.2045 -0.2440
   37POPC   O32 4945   3.168   4.444   7.185 -0.2251  0.3102  0.1375
   37POPC   C32 4946   3.130   4.557   7.396 -0.2292  0.2099  0.3880
   37POPC   H2X 4947   3.099   4.453   7.420  0.0326  0.5873  2.5511
   37POPC   H2Y 4948   3.041   4.624   7.403  0.5253  1.1404  1.5687
   37POPC   C23 4949   2.922   5.017   7.147 -0.1997  0.2490 -0.2761
   37POPC   H3R 4950   2.909   5.126   7.135 -1.0567  0.1158 -0.6394
   37POPC   H3S 4951   3.018   4.983   7.192 -1.2555 -0.9925  1.1341
   37POPC   C24 4952   2.796   4.977   7.230  0.3249 -0.6349  0.3907
   37POPC   H4R 4953   2.766   4.874   7.203  0.9425 -0.2474 -2.0617
   37POPC   H4S 4954   2.718   5.051   7.204  1.7481  1.2890  1.3318
   37POPC   C25 4955   2.832   5.000   7.376  0.1643 -0.0515  0.1762
   37POPC   H5R 4956   2.748   4.989   7.448 -1.0626  2.1275 -0.8209
   37POPC   H5S 4957   2.870   5.104   7.388  0.2124  0.0269 -0.6251
   37POPC   C26 4958   2.933   4.902   7.427  0.5261 -0.6441 -0.1970
   37POPC   H6R 4959   3.020   4.889   7.358  3.3017  3.4742  2.0589
   37POPC   H6S 4960   2.885   4.803   7.440 -0.5602 -0.1178 -0.0659
   37POPC   C27 4961   2.995   4.939   7.564 -0.0854  0.3527  0.2425
   37POPC   H7R 4962   3.059   4.850   7.582 -0.5602 -0.0202  0.1084
   37POPC   H7S 4963   2.921   4.951   7.645 -0.3683  0.5570 -0.0480
   37POPC   C28 4964   3.089   5.057   7.565 -0.0859  0.0875  0.5566
   37POPC   H8R 4965   3.108   5.102   7.466 -0.4651  0.1698  0.5172
   37POPC   H8S 4966   3.184   5.028   7.615  0.4382 -0.6228 -0.8099
   37POPC   C29 4967   3.032   5.172   7.640 -0.0695 -0.4974  0.6487
   37POPC   H91 4968   3.008   5.255   7.571  0.2579 -1.3885 -0.5602
   37POPC  C210 4969   3.005   5.182   7.777 -0.0212  0.1986 -0.6710
   37POPC  H101 4970   2.952   5.263   7.828  2.6181 -0.1076  2.9339
   37POPC  C211 4971   3.043   5.066   7.865  0.0877 -0.9166  0.3383
   37POPC  H11R 4972   3.093   4.989   7.803 -0.1470  1.9617 -3.7867
   37POPC  H11S 4973   2.948   5.026   7.907 -1.2044  1.3404 -0.2823
   37POPC  C212 4974   3.138   5.111   7.980 -0.4134  0.1832 -0.5298
   37POPC  H12R 4975   3.226   5.161   7.933  1.1279  0.5698  2.5507
   37POPC  H12S 4976   3.179   5.021   8.029  0.9661  2.3795  2.6744
   37POPC  C213 4977   3.080   5.202   8.087 -0.4016  0.3738  0.0189
   37POPC  H13R 4978   2.976   5.173   8.112 -0.9949  0.4778 -2.1395
   37POPC  H13S 4979   3.066   5.299   8.036 -1.4008  0.2207 -0.0280
   37POPC  C214 4980   3.162   5.206   8.215 -0.6329 -0.4185  0.5494
   37POPC  H14R 4981   3.264   5.241   8.189 -1.1813 -0.7557 -2.5401
   37POPC  H14S 4982   3.171   5.103   8.255 -0.8078 -0.4751  0.4448
   37POPC  C215 4983   3.110   5.293   8.326  0.6236 -0.0981 -0.3281
   37POPC  H15R 4984   3.178   5.299   8.413 -0.7972  0.4085  0.7966
   37POPC  H15S 4985   3.019   5.245   8.370 -0.4827  3.5209  1.7448
   37POPC  C216 4986   3.090   5.439   8.282  0.1260 -0.6058 -0.2956
   37POPC  H16R 4987   3.027   5.448   8.191 -1.8049  0.9763  1.1104
   37POPC  H16S 4988   3.192   5.468   8.249 -0.8107  3.5113 -0.0633
   37POPC  C217 4989   3.039   5.542   8.383 -1.2228  0.1440  0.1999
   37POPC  H17R 4990   3.099   5.634   8.364 -1.6151  0.8483  2.0569
   37POPC  H17S 4991   3.072   5.506   8.483 -0.9461  0.0602  0.0781
   37POPC  C218 4992   2.896   5.567   8.408  0.6791  0.3161  0.1553
   37POPC  H18R 4993   2.852   5.616   8.319  0.1725 -1.9317 -0.9007
   37POPC  H18S 4994   2.872   5.627   8.499  3.2719  2.0331 -0.2112
   37POPC  H18T 4995   2.836   5.474   8.413  0.0197  0.4289 -3.5279
   37POPC   C33 4996   3.244   4.603   7.488  0.0026  0.0582 -0.0724
   37POPC   H3X 4997   3.278   4.709   7.481 -0.7629  0.3535  0.5509
   37POPC   H3Y 4998   3.319   4.531   7.448 -0.3320 -0.8524  0.8778
   37POPC   C34 4999   3.216   4.561   7.633 -0.0922  0.3407 -0.1565
   37POPC   H4X 5000   3.188   4.454   7.636  0.1627  0.2788  0.0016
   37POPC   H4Y 5001   3.133   4.626   7.669  0.8692  1.8918 -0.6215
   37POPC   C35 5002   3.324   4.591   7.741  0.4721  0.2679  0.4871
   37POPC   H5X 5003   3.424   4.558   7.708  0.3545 -0.2455  0.6256
   37POPC   H5Y 5004   3.298   4.547   7.840 -0.5032  0.7280  0.4458
   37POPC   C36 5005   3.341   4.736   7.762  0.0172 -0.6439 -0.1276
   37POPC   H6X 5006   3.244   4.788   7.753  0.4935  0.4388  0.6319
   37POPC   H6Y 5007   3.400   4.772   7.676 -1.0617  0.4206 -0.4432
   37POPC   C37 5008   3.401   4.794   7.896  0.6061  0.2289  0.3046
   37POPC   H7X 5009   3.394   4.903   7.877  0.4612  0.9253  3.6470
   37POPC   H7Y 5010   3.507   4.761   7.903  0.4786 -0.2355  0.1128
   37POPC   C38 5011   3.317   4.763   8.013 -0.4729 -0.9113 -0.0247
   37POPC   H8X 5012   3.304   4.653   8.029 -1.5548 -0.6592  1.0056
   37POPC   H8Y 5013   3.222   4.820   8.011  0.5809  0.9266  0.4630
   37POPC   C39 5014   3.396   4.817   8.138  0.3969  0.0814  0.2740
   37POPC   H9X 5015   3.384   4.925   8.157 -0.4654 -0.0982  0.8189
   37POPC   H9Y 5016   3.503   4.804   8.110 -0.2519 -0.2374 -2.3676
   37POPC  C310 5017   3.367   4.735   8.267 -0.4410 -0.3115  0.5285
   37POPC  H10X 5018   3.377   4.627   8.241 -0.3918 -0.3823  0.8361
   37POPC  H10Y 5019   3.261   4.766   8.279  0.4741  3.6247 -0.1919
   37POPC  C311 5020   3.447   4.772   8.391 -0.2209  0.1432  0.1795
   37POPC  H11X 5021   3.412   4.709   8.475  1.9098 -0.0824  0.9422
   37POPC  H11Y 5022   3.424   4.878   8.414 -0.6543  0.4109 -1.3695
   37POPC  C312 5023   3.602   4.749   8.382 -1.2954  0.1343  0.2555
   37POPC  H12X 5024   3.652   4.805   8.299 -1.5089 -0.7784 -0.5088
   37POPC  H12Y 5025   3.615   4.641   8.363 -2.4536  0.2032 -1.1012
   37POPC  C313 5026   3.674   4.769   8.520  0.2393 -0.1719  0.1804
   37POPC  H13X 5027   3.780   4.739   8.506 -0.1034 -1.5438  0.3747
   37POPC  H13Y 5028   3.622   4.698   8.589  0.1648 -0.3554 -0.0617
   37POPC  C314 5029   3.675   4.919   8.569 -0.3393  0.1069  0.2896
   37POPC  H14X 5030   3.571   4.955   8.578 -0.5036  0.1148 -1.3199
   37POPC  H14Y 5031   3.715   4.979   8.484 -0.6390  0.0465  0.1013
   37POPC  C315 5032   3.767   4.935   8.693  0.2081  0.6924 -0.1183
   37POPC  H15X 5033   3.734   4.881   8.784  0.8001  0.9077  0.2251
   37POPC  H15Y 5034   3.771   5.042   8.719 -0.6870  0.7124 -0.0443
   37POPC  C316 5035   3.912   4.896   8.686 -0.0179 -0.0597  0.5423
   37POPC  H16X 5036   3.956   4.923   8.784 -1.1692  0.3148  0.9769
   37POPC  H16Y 5037   3.968   4.940   8.600  1.0379 -0.1000  1.1868
   37POPC  H16Z 5038   3.921   4.786   8.675  1.3505  0.0997 -0.1374
   38POPC     N 5039   3.310   0.598   6.440 -0.3691 -0.5432 -0.0750
   38POPC   C12 5040   3.205   0.486   6.467  0.1832  0.3334  0.6686
   38POPC  H12A 5041   3.225   0.455   6.568  4.2980  1.4992  0.4201
   38POPC  H12B 5042   3.231   0.407   6.399 -1.6055  0.8140 -0.6550
   38POPC   C13 5043   3.282   0.716   6.528  0.0679 -0.0594 -0.0965
   38POPC  H13A 5044   3.285   0.681   6.630 -0.6583 -0.9372 -0.3577
   38POPC  H13B 5045   3.347   0.802   6.524 -0.1457  0.0451 -2.7303
   38POPC  H13C 5046   3.177   0.736   6.511  0.3008 -0.3767 -2.2015
   38POPC   C14 5047   3.442   0.548   6.485 -0.5047 -0.5787  0.0259
   38POPC  H14A 5048   3.521   0.612   6.448 -0.8763 -0.0537  0.1320
   38POPC  H14B 5049   3.442   0.554   6.593 -0.4188  2.5170 -0.0570
   38POPC  H14C 5050   3.461   0.446   6.454 -1.6477  0.1332 -3.3722
   38POPC   C15 5051   3.321   0.637   6.297 -0.0451 -0.4323 -0.3873
   38POPC  H15A 5052   3.401   0.705   6.270 -0.9378  1.6113  1.8431
   38POPC  H15B 5053   3.227   0.684   6.271  1.2594  1.6396 -1.7161
   38POPC  H15C 5054   3.317   0.546   6.238  0.2866  0.0096 -1.1113
   38POPC   C11 5055   3.054   0.531   6.442 -0.2455 -0.4114  0.0360
   38POPC  H11A 5056   2.992   0.446   6.476  0.3914 -0.1521  2.0352
   38POPC  H11B 5057   3.046   0.540   6.332 -0.9950 -0.1355  0.1084
   38POPC     P 5058   2.865   0.698   6.499  0.1014  0.2946 -0.8020
   38POPC   O13 5059   2.830   0.724   6.359  0.4465  0.0771 -0.1621
   38POPC   O14 5060   2.840   0.802   6.602  0.3857 -0.4764 -0.2288
   38POPC   O12 5061   3.014   0.643   6.514 -0.4661 -0.4016  0.2888
   38POPC   O11 5062   2.791   0.561   6.541  0.0685 -0.1236  0.1172
   38POPC    C1 5063   2.682   0.575   6.624  0.0319 -0.1467  0.4387
   38POPC    HA 5064   2.615   0.488   6.609  1.3675 -1.4685  1.7898
   38POPC    HB 5065   2.614   0.661   6.603 -1.1977 -0.8189  1.5512
   38POPC    C2 5066   2.730   0.591   6.772 -0.0428  0.1522  0.0247
   38POPC    HS 5067   2.757   0.697   6.793 -0.9336  0.3093  0.4368
   38POPC   O21 5068   2.846   0.502   6.792 -0.4810 -0.1675 -0.8526
   38POPC   C21 5069   2.946   0.558   6.873 -0.2431  0.6603 -0.1287
   38POPC   O22 5070   2.944   0.674   6.910  0.4737  0.5879  0.0027
   38POPC   C22 5071   3.050   0.456   6.902 -0.2620 -0.6430 -0.2715
   38POPC   H2R 5072   3.118   0.466   6.814  0.8115 -1.4544  0.4439
   38POPC   H2S 5073   3.010   0.352   6.900 -0.5218 -0.5576  0.3650
   38POPC    C3 5074   2.614   0.560   6.875  0.8391 -0.0467 -0.3846
   38POPC    HX 5075   2.583   0.454   6.870 -2.1129  0.6791  0.8188
   38POPC    HY 5076   2.520   0.616   6.859  2.6668  2.4418 -3.7371
   38POPC   O31 5077   2.666   0.582   7.010 -0.8464  0.8233 -0.2132
   38POPC   C31 5078   2.644   0.700   7.057 -0.6416 -0.6027  0.6884
   38POPC   O32 5079   2.601   0.799   6.993  0.5098 -0.2898  0.3224
   38POPC   C32 5080   2.710   0.700   7.196  0.1524  0.0863  0.3948
   38POPC   H2X 5081   2.819   0.705   7.177  0.5100 -1.6676  1.6813
   38POPC   H2Y 5082   2.691   0.597   7.232 -1.0058  0.1880  0.1241
   38POPC   C23 5083   3.131   0.481   7.032  0.2053 -0.0713 -0.7240
   38POPC   H3R 5084   3.167   0.585   7.044 -0.9324  0.2080  0.4792
   38POPC   H3S 5085   3.220   0.414   7.034  0.0650 -0.3080 -1.6710
   38POPC   C24 5086   3.034   0.448   7.147 -0.4583  0.3081 -0.2006
   38POPC   H4R 5087   3.022   0.338   7.145  2.1730 -0.0630  0.3173
   38POPC   H4S 5088   2.943   0.509   7.130 -1.3361 -1.5016 -2.6124
   38POPC   C25 5089   3.095   0.486   7.287 -0.1012 -0.4190  0.8517
   38POPC   H5R 5090   3.134   0.590   7.290 -1.8110  0.3239 -0.2773
   38POPC   H5S 5091   3.176   0.412   7.304  0.6047  0.1025 -0.1090
   38POPC   C26 5092   2.998   0.477   7.405 -0.2388  0.4011  0.3977
   38POPC   H6R 5093   2.969   0.372   7.428  1.4565  0.3336  2.5484
   38POPC   H6S 5094   2.907   0.537   7.383 -0.1967  0.8858  1.4785
   38POPC   C27 5095   3.053   0.540   7.535 -0.0085  0.6898  0.0185
   38POPC   H7R 5096   2.975   0.554   7.612  0.2233 -3.0997  1.1362
   38POPC   H7S 5097   3.091   0.641   7.509 -2.5652  1.0913 -2.6687
   38POPC   C28 5098   3.169   0.454   7.606  0.1983  0.6531  0.1165
   38POPC   H8R 5099   3.256   0.427   7.541 -0.5050  1.2864 -1.1355
   38POPC   H8S 5100   3.120   0.361   7.639 -0.0087  0.1550 -1.4778
   38POPC   C29 5101   3.218   0.526   7.726 -0.5398 -0.2671 -0.4105
   38POPC   H91 5102   3.321   0.560   7.703 -1.5195  1.8719 -1.9888
   38POPC  C210 5103   3.161   0.540   7.850  0.1665  0.6644 -1.0266
   38POPC  H101 5104   3.216   0.601   7.924 -1.8520  1.6884 -0.2862
   38POPC  C211 5105   3.024   0.500   7.892 -0.3449  0.5359  0.7566
   38POPC  H11R 5106   3.039   0.428   7.976  0.6548  0.5640  0.6137
   38POPC  H11S 5107   2.970   0.447   7.810  1.2532 -1.0799  0.6965
   38POPC  C212 5108   2.930   0.618   7.938 -0.1850 -0.4022  0.1970
   38POPC  H12R 5109   2.836   0.573   7.977  0.8649 -0.8447  2.3455
   38POPC  H12S 5110   2.912   0.673   7.843 -1.6072 -1.6431 -0.2877
   38POPC  C213 5111   2.988   0.707   8.049  0.6532 -0.3411  0.5106
   38POPC  H13R 5112   2.930   0.802   8.056 -0.5223 -1.0320  0.5724
   38POPC  H13S 5113   3.089   0.743   8.021  0.7666  0.6057  2.0317
   38POPC  C214 5114   2.988   0.645   8.190  0.6580  0.1640  0.1163
   38POPC  H14R 5115   3.071   0.571   8.190 -0.0495 -0.7532 -2.9418
   38POPC  H14S 5116   2.892   0.589   8.187  0.1696  0.9778 -2.5425
   38POPC  C215 5117   3.010   0.737   8.308 -0.3065  0.3448  0.0655
   38POPC  H15R 5118   3.011   0.674   8.399  1.5464 -0.6548 -0.5893
   38POPC  H15S 5119   2.914   0.792   8.312  0.5229  2.4572 -3.9765
   38POPC  C216 5120   3.135   0.825   8.296 -0.0526 -0.4189 -0.4631
   38POPC  H16R 5121   3.152   0.856   8.190  0.4939  1.1700  0.0514
   38POPC  H16S 5122   3.223   0.762   8.317 -0.5919 -0.9336  0.2658
   38POPC  C217 5123   3.134   0.957   8.381 -0.2262 -0.0176 -0.0269
   38POPC  H17R 5124   3.101   0.933   8.485  3.7062 -1.9062  0.9770
   38POPC  H17S 5125   3.054   1.027   8.349  0.1543  1.5132  2.1445
   38POPC  C218 5126   3.272   1.023   8.376  0.0748 -0.6543 -0.4556
   38POPC  H18R 5127   3.340   0.972   8.447  1.1379 -1.9234 -2.2854
   38POPC  H18S 5128   3.265   1.128   8.410  1.2579 -1.3875  2.3219
   38POPC  H18T 5129   3.326   1.018   8.278  1.0087  1.0311 -0.0553
   38POPC   C33 5130   2.659   0.809   7.285  0.1723  0.5696 -0.4936
   38POPC   H3X 5131   2.550   0.828   7.273  0.3414  2.3587  0.3980
   38POPC   H3Y 5132   2.706   0.908   7.264  1.2351  0.3402  0.6746
   38POPC   C34 5133   2.677   0.766   7.432 -0.2840  0.0938 -0.1850
   38POPC   H4X 5134   2.787   0.759   7.448  0.0775 -2.1255 -2.8424
   38POPC   H4Y 5135   2.639   0.662   7.445  0.9070 -0.2755  0.4712
   38POPC   C35 5136   2.613   0.868   7.536 -0.0267  0.1546  0.5647
   38POPC   H5X 5137   2.506   0.892   7.518 -0.0901 -1.0772 -0.8528
   38POPC   H5Y 5138   2.669   0.964   7.529  1.1334 -0.5751 -0.6075
   38POPC   C36 5139   2.625   0.799   7.676 -0.2648  0.9525 -0.3874
   38POPC   H6X 5140   2.730   0.766   7.695 -0.9149 -0.8836  0.2421
   38POPC   H6Y 5141   2.572   0.702   7.671  1.0950  0.0711  1.1429
   38POPC   C37 5142   2.578   0.880   7.799  0.1657  1.1911 -0.6858
   38POPC   H7X 5143   2.609   0.984   7.778  2.2445  0.6665 -0.4808
   38POPC   H7Y 5144   2.642   0.850   7.886  0.5255 -1.2074 -1.6808
   38POPC   C38 5145   2.427   0.874   7.812  0.5887 -0.2321 -0.5893
   38POPC   H8X 5146   2.389   0.774   7.845 -0.3116  0.5866  0.9929
   38POPC   H8Y 5147   2.375   0.902   7.719 -1.2889  0.4347  0.6031
   38POPC   C39 5148   2.363   0.975   7.911 -0.5064  0.1208 -0.4243
   38POPC   H9X 5149   2.262   1.005   7.877 -0.5495  0.9485  0.3858
   38POPC   H9Y 5150   2.405   1.077   7.903 -0.2881 -0.0045 -0.8866
   38POPC  C310 5151   2.359   0.919   8.056  0.6484 -0.5472  0.2648
   38POPC  H10X 5152   2.458   0.939   8.103  0.1293 -0.8713  1.5480
   38POPC  H10Y 5153   2.334   0.811   8.054 -0.3615 -0.3115 -0.5489
   38POPC  C311 5154   2.251   0.994   8.135  0.3614  0.4010 -0.1362
   38POPC  H11X 5155   2.149   0.981   8.093  1.5460 -0.4495 -2.9285
   38POPC  H11Y 5156   2.272   1.103   8.135 -2.3577  1.0221 -1.3442
   38POPC  C312 5157   2.236   0.944   8.281 -0.4502 -0.3760 -0.2615
   38POPC  H12X 5158   2.274   0.840   8.286  2.2845  0.5135 -1.0654
   38POPC  H12Y 5159   2.126   0.932   8.295 -0.4562 -0.7504 -0.6047
   38POPC  C313 5160   2.318   1.025   8.376 -0.1766 -0.0686  0.2635
   38POPC  H13X 5161   2.297   1.134   8.377 -0.7859 -0.1830  0.2618
   38POPC  H13Y 5162   2.422   1.011   8.340  0.6365  2.1909  1.5199
   38POPC  C314 5163   2.316   0.960   8.516  0.2520  0.1891  0.3244
   38POPC  H14X 5164   2.311   0.849   8.514  0.6500  0.1300  1.5087
   38POPC  H14Y 5165   2.236   0.996   8.585 -0.5246 -0.5103 -0.1919
   38POPC  C315 5166   2.444   0.996   8.600 -0.5233  0.0796 -0.1919
   38POPC  H15X 5167   2.451   1.102   8.631  2.6145 -0.6924  2.3101
   38POPC  H15Y 5168   2.535   0.971   8.542 -0.7914  0.7681 -0.9310
   38POPC  C316 5169   2.453   0.921   8.730 -0.4058 -0.6224 -0.2651
   38POPC  H16X 5170   2.411   0.819   8.724 -0.8537 -0.4754  0.3528
   38POPC  H16Y 5171   2.396   0.979   8.805  2.5394  3.9150 -1.1302
   38POPC  H16Z 5172   2.556   0.921   8.772 -0.3197 -1.1703 -0.4608
   39POPC     N 5173   1.185   3.439   5.667 -0.3964 -0.6702 -0.3153
   39POPC   C12 5174   1.223   3.491   5.809 -0.7113  0.1848  0.5877
   39POPC  H12A 5175   1.294   3.572   5.800  0.2448 -0.8215 -1.9848
   39POPC  H12B 5176   1.285   3.414   5.852 -0.7995  1.3513  2.9285
   39POPC   C13 5177   1.104   3.317   5.675  0.4878  0.7744  0.7395
   39POPC  H13A 5178   1.064   3.291   5.577  1.6452  1.7126 -0.0117
   39POPC  H13B 5179   1.167   3.235   5.706  0.1789 -0.5576 -1.8383
   39POPC  H13C 5180   1.021   3.326   5.743  0.4040 -0.6247  0.8517
   39POPC   C14 5181   1.112   3.545   5.591  0.5047 -0.2763 -0.5917
   39POPC  H14A 5182   1.063   3.502   5.505  1.0472  0.6144 -1.3652
   39POPC  H14B 5183   1.035   3.595   5.649 -1.1063 -1.4107 -1.6690
   39POPC  H14C 5184   1.184   3.618   5.557  0.1779  1.3991  2.0276
   39POPC   C15 5185   1.311   3.414   5.591  0.0819 -0.1208 -0.5296
   39POPC  H15A 5186   1.287   3.394   5.488  0.0863  1.5256 -0.8817
   39POPC  H15B 5187   1.366   3.330   5.631  2.0224  1.6131  0.7001
   39POPC  H15C 5188   1.391   3.487   5.602 -1.2003  1.0109  2.7547
   39POPC   C11 5189   1.113   3.532   5.903  0.3543  0.7274  0.8988
   39POPC  H11A 5190   1.037   3.599   5.858 -1.2068 -1.8105 -0.4569
   39POPC  H11B 5191   1.156   3.595   5.984  1.5452  1.9294 -0.6235
   39POPC     P 5192   1.124   3.312   6.047 -0.1500 -0.2123  0.0294
   39POPC   O13 5193   1.266   3.287   6.000  0.4530 -0.3894  0.1720
   39POPC   O14 5194   1.036   3.196   6.057 -0.0348  0.3264  0.7573
   39POPC   O12 5195   1.051   3.413   5.951 -0.2059 -0.2569  0.0529
   39POPC   O11 5196   1.117   3.381   6.185  0.0986 -0.2795  0.3138
   39POPC    C1 5197   1.007   3.444   6.244  0.1091  0.4677  0.5868
   39POPC    HA 5198   0.912   3.413   6.195  0.3394  0.9258 -0.1664
   39POPC    HB 5199   1.008   3.553   6.222 -0.0804  0.5237  0.8518
   39POPC    C2 5200   0.988   3.422   6.398  0.5083  0.3058  0.3234
   39POPC    HS 5201   0.965   3.521   6.443  0.7034 -0.5038  2.2761
   39POPC   O21 5202   1.112   3.380   6.464 -0.0377  0.4570  0.5474
   39POPC   C21 5203   1.209   3.459   6.467  0.2691 -0.0085 -0.0951
   39POPC   O22 5204   1.203   3.570   6.414  0.3826 -0.3286  0.4380
   39POPC   C22 5205   1.326   3.405   6.536  0.7475  0.0137 -1.0544
   39POPC   H2R 5206   1.348   3.301   6.502  2.4361 -0.9759  2.4608
   39POPC   H2S 5207   1.300   3.400   6.644  1.7788  0.4629 -0.7731
   39POPC    C3 5208   0.880   3.324   6.447 -0.1586 -0.5340 -0.3074
   39POPC    HX 5209   0.922   3.222   6.430  1.7360  0.0887  0.4062
   39POPC    HY 5210   0.795   3.336   6.377  0.4558  0.4684 -0.8988
   39POPC   O31 5211   0.841   3.344   6.589 -0.3608 -0.1495 -0.4519
   39POPC   C31 5212   0.773   3.244   6.642  0.1380 -0.1071  0.0708
   39POPC   O32 5213   0.741   3.143   6.582 -0.0546  0.5782  0.1413
   39POPC   C32 5214   0.754   3.276   6.793 -0.5948 -0.2851  0.2465
   39POPC   H2X 5215   0.748   3.177   6.841  0.1686  0.0714  1.0937
   39POPC   H2Y 5216   0.831   3.342   6.838 -1.7003  0.9937  0.3578
   39POPC   C23 5217   1.461   3.480   6.521 -1.4235  0.1297 -0.0495
   39POPC   H3R 5218   1.463   3.521   6.418 -3.6544 -3.3820 -1.6742
   39POPC   H3S 5219   1.541   3.405   6.535 -3.3370 -1.8538  0.9014
   39POPC   C24 5220   1.479   3.587   6.630  0.5044  0.3513  0.3399
   39POPC   H4R 5221   1.396   3.660   6.634 -1.5517 -1.8742  0.5213
   39POPC   H4S 5222   1.568   3.646   6.600 -0.7151  1.0497 -2.0686
   39POPC   C25 5223   1.507   3.536   6.773  0.0240 -0.1918  0.6253
   39POPC   H5R 5224   1.607   3.487   6.784 -0.6207 -1.4553  1.0324
   39POPC   H5S 5225   1.432   3.455   6.785 -0.4570  0.4725  2.4728
   39POPC   C26 5226   1.489   3.646   6.876  0.6254  0.6826  0.4522
   39POPC   H6R 5227   1.381   3.657   6.897  0.0550 -0.3565 -1.5947
   39POPC   H6S 5228   1.539   3.743   6.853  0.2793  0.9586  0.8714
   39POPC   C27 5229   1.554   3.602   7.017  0.3140  0.1262  0.5207
   39POPC   H7R 5230   1.532   3.679   7.093  0.8672  1.3966 -0.5621
   39POPC   H7S 5231   1.663   3.608   6.997 -0.2191  1.0080 -2.8067
   39POPC   C28 5232   1.500   3.469   7.076  0.0372  0.1913  0.3500
   39POPC   H8R 5233   1.496   3.382   7.008 -2.5054  0.5913 -0.1040
   39POPC   H8S 5234   1.395   3.502   7.093  1.5447  4.9297  2.2945
   39POPC   C29 5235   1.569   3.431   7.206 -0.6535  0.6962 -0.0781
   39POPC   H91 5236   1.678   3.419   7.216 -0.3180  3.3401  0.0792
   39POPC  C210 5237   1.511   3.390   7.319  0.2230  0.6632  0.2566
   39POPC  H101 5238   1.565   3.380   7.414 -0.6726  2.0405  0.9394
   39POPC  C211 5239   1.365   3.383   7.340  0.0026 -0.1699 -0.0020
   39POPC  H11R 5240   1.358   3.303   7.417 -0.7967 -0.3907 -0.2936
   39POPC  H11S 5241   1.291   3.361   7.260 -0.7341  0.0722  0.5949
   39POPC  C212 5242   1.318   3.510   7.423 -0.2961  0.4695 -0.2192
   39POPC  H12R 5243   1.353   3.592   7.357 -1.3140 -1.8171 -3.9438
   39POPC  H12S 5244   1.378   3.510   7.516  1.8404 -1.0522 -1.4952
   39POPC  C213 5245   1.172   3.508   7.454 -0.3319  0.7138  0.3918
   39POPC  H13R 5246   1.153   3.459   7.552  0.8547 -1.3239 -0.3271
   39POPC  H13S 5247   1.119   3.465   7.366  2.2727  2.7554 -2.4099
   39POPC  C214 5248   1.125   3.649   7.466  0.1178 -0.3944  0.1914
   39POPC  H14R 5249   1.014   3.643   7.470  0.1966 -1.3442  1.7947
   39POPC  H14S 5250   1.169   3.712   7.385  0.3034 -2.1692 -1.1471
   39POPC  C215 5251   1.175   3.728   7.591 -0.1563  0.9610  0.4523
   39POPC  H15R 5252   1.152   3.836   7.586 -0.5709  0.9037  1.1159
   39POPC  H15S 5253   1.285   3.713   7.599  0.2478  2.6661 -1.2790
   39POPC  C216 5254   1.089   3.675   7.702  0.0801 -0.1041 -0.6161
   39POPC  H16R 5255   1.127   3.571   7.714  0.6663  0.1715  0.0284
   39POPC  H16S 5256   0.981   3.692   7.682  0.5062  2.4826 -1.0530
   39POPC  C217 5257   1.116   3.764   7.827  0.4405 -0.8463 -0.3655
   39POPC  H17R 5258   1.221   3.798   7.836  0.4391 -1.4657  3.6732
   39POPC  H17S 5259   1.093   3.695   7.911 -0.7294  0.2407  0.2416
   39POPC  C218 5260   1.026   3.887   7.852 -0.2799  0.3793  0.4378
   39POPC  H18R 5261   0.988   3.931   7.757 -1.4297 -0.3063  0.5636
   39POPC  H18S 5262   1.088   3.953   7.917 -0.6699  1.6829 -0.4609
   39POPC  H18T 5263   0.940   3.856   7.915 -1.5733  2.6503 -0.0718
   39POPC   C33 5264   0.611   3.329   6.815 -0.0513  0.1137 -0.1116
   39POPC   H3X 5265   0.535   3.249   6.819  0.1678 -0.1992 -1.5189
   39POPC   H3Y 5266   0.579   3.397   6.733  1.5412 -0.2032 -1.0474
   39POPC   C34 5267   0.615   3.412   6.944 -0.2546  0.3264 -0.0510
   39POPC   H4X 5268   0.520   3.467   6.958 -0.0738  1.1470 -1.7906
   39POPC   H4Y 5269   0.693   3.489   6.925 -0.0269  0.2226  0.4415
   39POPC   C35 5270   0.639   3.332   7.072  0.4080 -0.5554 -0.1570
   39POPC   H5X 5271   0.722   3.261   7.051 -0.7589 -1.4852 -1.8232
   39POPC   H5Y 5272   0.552   3.267   7.096 -0.0629 -0.7265 -2.2035
   39POPC   C36 5273   0.670   3.426   7.185  0.5420  0.7526  0.2830
   39POPC   H6X 5274   0.589   3.501   7.176  0.4784  0.5799 -0.6223
   39POPC   H6Y 5275   0.769   3.472   7.169  1.3363 -1.0887 -0.4430
   39POPC   C37 5276   0.685   3.358   7.319 -0.4380 -0.3543 -0.0323
   39POPC   H7X 5277   0.756   3.273   7.309 -2.2293 -1.8008 -1.0440
   39POPC   H7Y 5278   0.593   3.310   7.360 -0.5746  0.2349  0.3635
   39POPC   C38 5279   0.740   3.461   7.430 -0.0615  0.1213 -0.5583
   39POPC   H8X 5280   0.659   3.536   7.439  0.2327  0.2664  1.2260
   39POPC   H8Y 5281   0.831   3.516   7.399  1.3275 -0.4591  2.1726
   39POPC   C39 5282   0.769   3.398   7.569 -1.0116  0.3051  0.1111
   39POPC   H9X 5283   0.855   3.458   7.605 -0.2740  0.5839 -2.0195
   39POPC   H9Y 5284   0.785   3.289   7.559 -2.7807 -0.0338  0.6416
   39POPC  C310 5285   0.642   3.414   7.666 -0.9247  0.3856 -0.1065
   39POPC  H10X 5286   0.569   3.348   7.615 -3.5109  2.2736  0.9772
   39POPC  H10Y 5287   0.612   3.520   7.682 -1.1879  0.0949  1.4869
   39POPC  C311 5288   0.684   3.350   7.806 -0.1162 -0.2055 -0.7290
   39POPC  H11X 5289   0.763   3.274   7.788  1.4501  0.6217  2.0572
   39POPC  H11Y 5290   0.593   3.306   7.850  0.4373 -0.7367 -0.0997
   39POPC  C312 5291   0.752   3.448   7.894 -0.4892 -0.7590  0.8107
   39POPC  H12X 5292   0.671   3.522   7.908 -1.5859 -0.7364 -3.8147
   39POPC  H12Y 5293   0.844   3.489   7.848 -1.1926 -1.6604 -1.5481
   39POPC  C313 5294   0.790   3.382   8.022 -0.0487  0.2845 -0.0172
   39POPC  H13X 5295   0.843   3.286   8.001 -1.0416 -0.4165  0.5880
   39POPC  H13Y 5296   0.701   3.365   8.087  0.5751 -0.6541  0.6332
   39POPC  C314 5297   0.890   3.458   8.110 -0.9667 -0.2424  0.6241
   39POPC  H14X 5298   0.850   3.561   8.126 -0.2809 -0.0231  0.9523
   39POPC  H14Y 5299   0.981   3.482   8.051 -2.3735  1.4197 -1.0016
   39POPC  C315 5300   0.921   3.399   8.249  0.8819  0.2423  0.1823
   39POPC  H15X 5301   0.938   3.289   8.257 -0.2230  0.1313  1.5597
   39POPC  H15Y 5302   0.834   3.422   8.314  0.8567 -2.3421  1.1933
   39POPC  C316 5303   1.034   3.468   8.320  0.8397 -0.1866 -0.0311
   39POPC  H16X 5304   1.072   3.407   8.404 -0.1126 -1.4988 -0.5196
   39POPC  H16Y 5305   1.000   3.567   8.357 -0.3176 -0.4869 -0.2502
   39POPC  H16Z 5306   1.121   3.485   8.253 -0.8663  0.3135 -2.2437
   40POPC     N 5307   2.510   0.344   6.316 -0.0914  0.0895 -0.5090
   40POPC   C12 5308   2.655   0.384   6.341  0.8424 -0.3731 -0.0905
   40POPC  H12A 5309   2.701   0.312   6.408  0.9742 -0.9272 -0.7620
   40POPC  H12B 5310   2.655   0.469   6.407  0.3544  0.0899 -0.6697
   40POPC   C13 5311   2.443   0.328   6.450  0.3362  0.1218  1.0836
   40POPC  H13A 5312   2.339   0.298   6.441  0.5535 -0.5966  0.9450
   40POPC  H13B 5313   2.501   0.262   6.512 -0.4819 -1.3132  0.3870
   40POPC  H13C 5314   2.435   0.427   6.492 -0.7970  1.5950 -2.2590
   40POPC   C14 5315   2.446   0.455   6.243  0.1864  0.1633 -0.0254
   40POPC  H14A 5316   2.447   0.548   6.298  1.2248  0.6756 -0.8609
   40POPC  H14B 5317   2.500   0.474   6.151  0.9081 -1.3860  0.0462
   40POPC  H14C 5318   2.345   0.431   6.214 -0.1807 -0.2525  1.5419
   40POPC   C15 5319   2.497   0.224   6.233 -0.6228 -0.2927 -0.1846
   40POPC  H15A 5320   2.553   0.229   6.141 -0.0150  1.9320  0.2412
   40POPC  H15B 5321   2.395   0.200   6.206 -0.6604 -0.4819  0.1124
   40POPC  H15C 5322   2.529   0.140   6.293  0.0835  0.7773  0.9958
   40POPC   C11 5323   2.755   0.412   6.216 -0.1023 -0.1826 -0.2733
   40POPC  H11A 5324   2.846   0.459   6.259 -1.1476 -0.5029  2.5081
   40POPC  H11B 5325   2.708   0.498   6.163 -2.0242 -0.6395  0.6115
   40POPC     P 5326   2.863   0.172   6.192 -0.2549 -0.2062  0.1028
   40POPC   O13 5327   2.981   0.163   6.101  0.2138  0.1763  0.1762
   40POPC   O14 5328   2.778   0.053   6.206 -0.0638 -0.0543  0.2001
   40POPC   O12 5329   2.779   0.296   6.136 -0.2396  0.3107 -0.3576
   40POPC   O11 5330   2.913   0.221   6.335 -0.0378 -0.3110  0.0298
   40POPC    C1 5331   2.996   0.148   6.426 -0.4209  0.3430 -0.1273
   40POPC    HA 5332   3.087   0.208   6.446 -1.2371  1.4861  0.2596
   40POPC    HB 5333   3.042   0.056   6.383  0.7727  0.4797  0.8188
   40POPC    C2 5334   2.913   0.110   6.553  0.2240  0.2080  1.3289
   40POPC    HS 5335   2.964   0.039   6.622 -1.6682 -2.8119 -0.2040
   40POPC   O21 5336   2.781   0.054   6.518 -0.0458  0.1869 -0.4081
   40POPC   C21 5337   2.796  -0.074   6.481  0.5314 -0.2352 -0.1621
   40POPC   O22 5338   2.904  -0.132   6.480 -0.2666 -0.7834 -0.1725
   40POPC   C22 5339   2.660  -0.143   6.462 -0.0317  0.1879 -0.4388
   40POPC   H2R 5340   2.682  -0.252   6.458  0.2736  0.2761 -2.2624
   40POPC   H2S 5341   2.627  -0.113   6.360 -0.8594 -0.0761 -0.2504
   40POPC    C3 5342   2.884   0.238   6.632 -0.3698  0.7024  0.1588
   40POPC    HX 5343   2.814   0.304   6.577 -0.1238  1.7405  1.0681
   40POPC    HY 5344   2.984   0.284   6.644  0.4937 -0.8387 -0.7196
   40POPC   O31 5345   2.844   0.203   6.763 -0.0176  0.1087 -0.0292
   40POPC   C31 5346   2.718   0.208   6.799  0.3543 -0.5433 -0.5929
   40POPC   O32 5347   2.626   0.255   6.734  0.2355  0.6962 -0.0600
   40POPC   C32 5348   2.699   0.151   6.941 -0.4697 -0.0812  1.1246
   40POPC   H2X 5349   2.786   0.083   6.953  0.4110  0.8748  0.3407
   40POPC   H2Y 5350   2.603   0.095   6.932 -0.3064 -0.1743 -0.2495
   40POPC   C23 5351   2.553  -0.133   6.583 -0.7678  0.0581  0.4060
   40POPC   H3R 5352   2.460  -0.191   6.565 -0.1148 -0.5279 -1.3792
   40POPC   H3S 5353   2.515  -0.030   6.597  0.3689  0.4818  0.4458
   40POPC   C24 5354   2.607  -0.197   6.711 -0.0997 -0.0421 -0.0881
   40POPC   H4R 5355   2.702  -0.143   6.730  2.3623 -4.1712  0.5005
   40POPC   H4S 5356   2.626  -0.306   6.701 -1.2281 -0.2873  0.3045
   40POPC   C25 5357   2.506  -0.176   6.829 -0.6938 -0.5971 -0.1600
   40POPC   H5R 5358   2.412  -0.233   6.810 -1.0008  0.1949 -1.0503
   40POPC   H5S 5359   2.479  -0.068   6.827  0.8579 -0.1964 -0.1280
   40POPC   C26 5360   2.565  -0.224   6.965  0.4398  0.2035  0.1569
   40POPC   H6R 5361   2.674  -0.203   6.960  0.6057 -0.6742 -0.0564
   40POPC   H6S 5362   2.563  -0.335   6.974  0.0092 -0.3488 -4.3001
   40POPC   C27 5363   2.498  -0.148   7.079  0.0843 -0.2776 -0.2995
   40POPC   H7R 5364   2.389  -0.165   7.071  0.0271 -1.1017  1.6578
   40POPC   H7S 5365   2.522  -0.039   7.078  0.2814 -0.2360  1.9896
   40POPC   C28 5366   2.550  -0.205   7.213 -0.1816  0.4507 -0.1799
   40POPC   H8R 5367   2.660  -0.223   7.203  0.1857  2.1653  0.5145
   40POPC   H8S 5368   2.505  -0.307   7.220 -1.8384  1.1985  0.5208
   40POPC   C29 5369   2.516  -0.126   7.336 -0.1803  0.4229 -0.3075
   40POPC   H91 5370   2.416  -0.081   7.335 -0.2671  0.3051  0.9689
   40POPC  C210 5371   2.591  -0.100   7.443  0.4159  0.8827 -0.0446
   40POPC  H101 5372   2.557  -0.030   7.520 -0.3996 -0.3801  0.7862
   40POPC  C211 5373   2.735  -0.139   7.459  0.6040 -1.2614  0.1773
   40POPC  H11R 5374   2.800  -0.050   7.445 -0.8986 -0.3255 -1.0733
   40POPC  H11S 5375   2.757  -0.220   7.386 -1.5002 -1.6580 -0.0732
   40POPC  C212 5376   2.755  -0.194   7.603  0.0607 -0.5846 -0.3528
   40POPC  H12R 5377   2.862  -0.223   7.606  0.2046 -0.1083  3.2089
   40POPC  H12S 5378   2.696  -0.286   7.624 -1.6136  0.0664 -1.9587
   40POPC  C213 5379   2.738  -0.082   7.705 -0.1080 -0.0113 -0.3801
   40POPC  H13R 5380   2.638  -0.034   7.717  1.0291  2.1148  1.4517
   40POPC  H13S 5381   2.813  -0.005   7.677  0.8635 -0.2674  1.3727
   40POPC  C214 5382   2.765  -0.151   7.840 -0.6742  0.8824  0.4235
   40POPC  H14R 5383   2.774  -0.074   7.919 -2.5209  1.2564  0.3151
   40POPC  H14S 5384   2.862  -0.207   7.838  0.0042  2.0344 -1.4970
   40POPC  C215 5385   2.668  -0.266   7.886 -0.1057 -0.1248 -0.0291
   40POPC  H15R 5386   2.656  -0.338   7.802 -0.3395 -0.7391  0.5245
   40POPC  H15S 5387   2.575  -0.211   7.910 -0.2633  0.5445 -1.9745
   40POPC  C216 5388   2.730  -0.345   8.002 -0.6091 -0.1142  0.3856
   40POPC  H16R 5389   2.822  -0.403   7.978 -1.0417 -1.0961  1.0181
   40POPC  H16S 5390   2.651  -0.422   8.017 -0.2181 -0.5107  0.4602
   40POPC  C217 5391   2.755  -0.264   8.129  0.8763  0.7460  0.3512
   40POPC  H17R 5392   2.664  -0.202   8.143 -0.7500 -1.3463 -0.3857
   40POPC  H17S 5393   2.847  -0.203   8.119  0.6677  0.7247 -2.9588
   40POPC  C218 5394   2.764  -0.356   8.251 -0.0464  0.1476 -0.5828
   40POPC  H18R 5395   2.822  -0.301   8.328 -1.1557 -0.5391  0.7904
   40POPC  H18S 5396   2.808  -0.455   8.226  0.2239  0.2793 -0.6358
   40POPC  H18T 5397   2.673  -0.397   8.299  0.8652 -1.3609 -0.1015
   40POPC   C33 5398   2.701   0.252   7.060  0.2675  0.1331 -0.2544
   40POPC   H3X 5399   2.614   0.319   7.040  1.0620  1.1913 -0.2780
   40POPC   H3Y 5400   2.793   0.314   7.057  0.2464  0.2240  0.6632
   40POPC   C34 5401   2.695   0.188   7.197  0.3959 -0.1774 -0.6329
   40POPC   H4X 5402   2.776   0.112   7.205  0.7552  0.1869 -0.7846
   40POPC   H4Y 5403   2.605   0.126   7.219  0.5967 -0.7706 -1.4797
   40POPC   C35 5404   2.706   0.293   7.307 -0.4030  0.2328  0.0575
   40POPC   H5X 5405   2.621   0.363   7.300 -0.9018  0.1294  3.3876
   40POPC   H5Y 5406   2.799   0.353   7.304 -1.0689  1.3243  0.6018
   40POPC   C36 5407   2.694   0.246   7.451 -0.4501 -0.3324 -0.0829
   40POPC   H6X 5408   2.789   0.197   7.480 -1.2557 -0.8715  1.7508
   40POPC   H6Y 5409   2.614   0.170   7.439  0.1322 -0.7745 -1.4302
   40POPC   C37 5410   2.662   0.365   7.545 -0.6048 -0.2335 -0.2775
   40POPC   H7X 5411   2.572   0.427   7.523 -0.0691  0.8751  0.5353
   40POPC   H7Y 5412   2.745   0.439   7.546  0.4279 -1.3108 -1.9866
   40POPC   C38 5413   2.654   0.307   7.691 -0.1485  0.3170  0.3568
   40POPC   H8X 5414   2.751   0.265   7.725 -0.0885 -0.0142 -0.2074
   40POPC   H8Y 5415   2.585   0.220   7.702 -0.0569  0.4216  1.9001
   40POPC   C39 5416   2.601   0.418   7.783 -0.0780  0.6583 -0.2792
   40POPC   H9X 5417   2.500   0.450   7.749 -0.0010  0.8210 -0.3551
   40POPC   H9Y 5418   2.659   0.513   7.777  0.3788  0.3441 -1.0714
   40POPC  C310 5419   2.607   0.375   7.927 -0.0425  0.4856 -0.0790
   40POPC  H10X 5420   2.716   0.374   7.943 -0.0964  0.2980  0.2856
   40POPC  H10Y 5421   2.568   0.271   7.938 -0.0744  0.4753 -0.2928
   40POPC  C311 5422   2.544   0.478   8.019 -0.4145 -0.0289 -0.0007
   40POPC  H11X 5423   2.436   0.460   8.036 -0.3105  1.1407  2.2564
   40POPC  H11Y 5424   2.556   0.581   7.979 -1.5817  0.3202  0.5216
   40POPC  C312 5425   2.613   0.484   8.159 -0.1057  0.2151 -0.0609
   40POPC  H12X 5426   2.723   0.480   8.143 -0.2349 -0.3702 -0.9304
   40POPC  H12Y 5427   2.592   0.385   8.206 -2.0894 -0.3225 -1.8955
   40POPC  C313 5428   2.565   0.597   8.244 -0.4002 -0.3200  0.2565
   40POPC  H13X 5429   2.454   0.606   8.245 -0.2538  2.6863 -0.7537
   40POPC  H13Y 5430   2.603   0.697   8.214 -2.4791  0.5072  0.1783
   40POPC  C314 5431   2.625   0.569   8.384 -0.0285  1.0029  0.1892
   40POPC  H14X 5432   2.735   0.579   8.371 -0.2087  1.8568 -0.8570
   40POPC  H14Y 5433   2.598   0.466   8.413  0.1795  1.4227  2.0154
   40POPC  C315 5434   2.587   0.672   8.496 -0.3751 -0.9940 -0.0364
   40POPC  H15X 5435   2.481   0.669   8.531  0.3180  0.9187  2.5746
   40POPC  H15Y 5436   2.593   0.777   8.460 -2.2354  0.2959  2.9681
   40POPC  C316 5437   2.696   0.677   8.607 -0.4856 -0.2430  0.2273
   40POPC  H16X 5438   2.801   0.676   8.572  0.2553  0.2065  2.3092
   40POPC  H16Y 5439   2.683   0.595   8.680 -0.0707 -0.4248  0.1015
   40POPC  H16Z 5440   2.683   0.766   8.671  0.3836  0.7218 -0.8824
   41CHL1    C3 5441   5.422   1.538  10.021 -0.1113 -0.5656  0.4955
   41CHL1    H3 5442   5.313   1.524  10.005 -0.4996  0.1558  2.3243
   41CHL1    O3 5443   5.454   1.545  10.159 -0.1329 -0.1934  0.7811
   41CHL1   H3' 5444   5.545   1.575  10.155 -0.5456  0.9507 -0.6611
   41CHL1    C4 5445   5.487   1.418   9.955  0.1193 -0.5901 -0.0294
   41CHL1   H4A 5446   5.597   1.424   9.969  0.5433 -3.6023 -1.2321
   41CHL1   H4B 5447   5.457   1.326  10.010 -1.7550  0.3212  0.5354
   41CHL1    C5 5448   5.469   1.393   9.807 -1.2639  0.1101 -1.1022
   41CHL1    C6 5449   5.428   1.275   9.757  0.2652  0.1467 -0.6383
   41CHL1    H6 5450   5.401   1.198   9.831 -1.5950  0.1675 -1.2620
   41CHL1    C7 5451   5.385   1.253   9.617  0.2773 -0.4994 -0.3653
   41CHL1   H7A 5452   5.407   1.154   9.570 -1.3968 -1.1286  0.0966
   41CHL1   H7B 5453   5.274   1.254   9.608  0.1917  2.1465  0.1988
   41CHL1    C8 5454   5.429   1.366   9.522  0.4718 -1.4067  0.2851
   41CHL1    H8 5455   5.538   1.357   9.500  1.1710  2.1868  1.7023
   41CHL1   C14 5456   5.358   1.358   9.386  0.3810 -0.2692  0.6577
   41CHL1   H14 5457   5.252   1.380   9.407  0.0199 -1.4164  0.1265
   41CHL1   C15 5458   5.357   1.223   9.317  0.3513  0.0502  0.4892
   41CHL1  H15A 5459   5.450   1.164   9.336  0.7516  0.3497 -0.4557
   41CHL1  H15B 5460   5.269   1.167   9.354  1.0425 -1.6192 -0.2537
   41CHL1   C16 5461   5.332   1.252   9.171 -0.1978 -0.3712  0.0333
   41CHL1  H16A 5462   5.416   1.197   9.124 -0.9671 -1.0600 -0.5830
   41CHL1  H16B 5463   5.228   1.220   9.146 -0.1376 -0.3684 -0.2303
   41CHL1   C17 5464   5.328   1.405   9.156  0.2788  0.2208  0.1963
   41CHL1   H17 5465   5.224   1.433   9.181  1.2355  0.0314  5.8551
   41CHL1   C13 5466   5.406   1.457   9.281  0.2859  0.2055  0.8234
   41CHL1   C18 5467   5.559   1.444   9.254  1.2506 -0.4794 -0.1657
   41CHL1  H18A 5468   5.595   1.354   9.200  0.4465  0.2212 -1.9255
   41CHL1  H18B 5469   5.593   1.526   9.187  1.2004 -0.8492 -0.6470
   41CHL1  H18C 5470   5.619   1.457   9.347 -0.1507  1.8672  0.5081
   41CHL1   C12 5471   5.358   1.597   9.345 -0.7382 -0.3557  0.0436
   41CHL1  H12A 5472   5.374   1.689   9.283 -0.6703  1.2052  2.2688
   41CHL1  H12B 5473   5.251   1.593   9.371 -0.7220 -0.7815  0.0516
   41CHL1   C11 5474   5.430   1.625   9.479 -0.9257 -0.2780  0.1218
   41CHL1  H11A 5475   5.538   1.642   9.459 -0.2396  0.3214  3.6480
   41CHL1  H11B 5476   5.391   1.720   9.522 -2.6228 -2.1850  3.1547
   41CHL1    C9 5477   5.407   1.508   9.581 -0.2853 -0.7584 -0.4088
   41CHL1    H9 5478   5.297   1.506   9.601 -0.0662 -2.5257  0.8405
   41CHL1   C10 5479   5.482   1.520   9.723  0.0082  0.2202  0.4982
   41CHL1   C19 5480   5.632   1.549   9.703  0.5481  0.0608 -0.5268
   41CHL1  H19A 5481   5.672   1.462   9.648 -0.4744 -1.5020  1.0997
   41CHL1  H19B 5482   5.648   1.638   9.638  3.2595  1.7514  2.1627
   41CHL1  H19C 5483   5.682   1.566   9.800 -1.6964  1.2837  0.5152
   41CHL1    C1 5484   5.420   1.641   9.790  0.0263 -0.3868  0.5947
   41CHL1   H1A 5485   5.451   1.731   9.735  0.5943 -0.6540  0.4685
   41CHL1   H1B 5486   5.310   1.630   9.795  0.1861 -2.4105  0.6541
   41CHL1    C2 5487   5.460   1.668   9.943 -0.1577 -0.0967 -0.0062
   41CHL1   H2A 5488   5.409   1.751   9.998 -0.3732 -0.5224  0.4420
   41CHL1   H2B 5489   5.569   1.686   9.956  0.0780 -1.0594 -0.6169
   41CHL1   C20 5490   5.358   1.458   9.018  0.6038  0.3276  0.3231
   41CHL1   H20 5491   5.467   1.444   9.002  0.4337  0.8109 -1.5689
   41CHL1   C21 5492   5.338   1.610   9.004  0.1775  0.6476  0.3294
   41CHL1  H21A 5493   5.234   1.646   9.022 -0.2935 -0.8214  0.7875
   41CHL1  H21B 5494   5.370   1.652   8.907  0.5319 -1.6938 -0.6276
   41CHL1  H21C 5495   5.408   1.651   9.080 -0.8460  1.0047  1.1097
   41CHL1   C22 5496   5.292   1.383   8.903  0.2664  0.0381  0.1519
   41CHL1  H22A 5497   5.328   1.278   8.900 -1.8147 -0.7143 -0.1482
   41CHL1  H22B 5498   5.183   1.375   8.925 -0.1046  0.5265 -1.3710
   41CHL1   C23 5499   5.313   1.435   8.763 -1.0699 -0.4118  1.0695
   41CHL1  H23A 5500   5.269   1.535   8.744 -2.6432 -1.3985 -0.9337
   41CHL1  H23B 5501   5.421   1.449   8.741 -1.2850  2.3991  1.4077
   41CHL1   C24 5502   5.244   1.347   8.657  0.0865  0.1076 -0.1401
   41CHL1  H24A 5503   5.272   1.240   8.674 -3.7278 -0.8473  1.0125
   41CHL1  H24B 5504   5.135   1.359   8.672  0.2517  0.5231  0.8230
   41CHL1   C25 5505   5.272   1.388   8.511  0.2135  0.5759 -0.3371
   41CHL1   H25 5506   5.382   1.398   8.503  0.4557 -1.2582  0.2383
   41CHL1   C26 5507   5.227   1.274   8.428  0.5230 -0.3881 -0.1354
   41CHL1  H26A 5508   5.271   1.174   8.452  0.0410 -0.5314  0.1761
   41CHL1  H26B 5509   5.118   1.256   8.438  0.5815 -0.2111  0.9787
   41CHL1  H26C 5510   5.247   1.279   8.319  1.8724 -0.0076  0.1121
   41CHL1   C27 5511   5.208   1.524   8.490 -0.1145  0.1704 -0.0240
   41CHL1  H27A 5512   5.267   1.609   8.532 -0.2540 -0.2670  1.0695
   41CHL1  H27B 5513   5.208   1.538   8.380  1.5838 -1.0297 -0.2275
   41CHL1  H27C 5514   5.100   1.531   8.512 -0.4533 -1.4199 -1.0161
   42CHL1    C3 5515   2.189   6.715   9.912  0.0205 -1.0808 -0.1547
   42CHL1    H3 5516   2.121   6.644   9.861  0.1634 -0.1653 -1.6888
   42CHL1    O3 5517   2.171   6.723  10.051 -0.2858 -0.6814 -0.5814
   42CHL1   H3' 5518   2.245   6.671  10.085  2.4384  2.6145 -0.9625
   42CHL1    C4 5519   2.331   6.674   9.864  1.2693  0.3961  0.0242
   42CHL1   H4A 5520   2.400   6.747   9.911  1.6366 -0.1888  0.4181
   42CHL1   H4B 5521   2.351   6.572   9.905 -0.6553  0.2773  0.7363
   42CHL1    C5 5522   2.356   6.676   9.712 -0.1378  0.5958  0.9916
   42CHL1    C6 5523   2.397   6.564   9.646 -0.2433 -0.1868 -0.1199
   42CHL1    H6 5524   2.418   6.468   9.695  1.4434  0.5238  0.6483
   42CHL1    C7 5525   2.425   6.556   9.502  0.1462 -0.0468 -0.4341
   42CHL1   H7A 5526   2.512   6.491   9.475 -1.1722 -2.0622  0.0099
   42CHL1   H7B 5527   2.338   6.501   9.460  0.0684 -0.6810  0.5433
   42CHL1    C8 5528   2.418   6.691   9.429 -0.2860  0.7130 -0.1579
   42CHL1    H8 5529   2.518   6.739   9.442  0.0039  0.2657 -0.6757
   42CHL1   C14 5530   2.390   6.676   9.277 -0.6434 -0.7075 -0.2819
   42CHL1   H14 5531   2.284   6.644   9.262 -1.1108 -0.5467  2.1678
   42CHL1   C15 5532   2.485   6.579   9.208  0.0474 -0.3247 -0.2286
   42CHL1  H15A 5533   2.576   6.580   9.272  0.0141  1.8969 -0.1180
   42CHL1  H15B 5534   2.456   6.473   9.198  1.0864 -0.5296 -1.3852
   42CHL1   C16 5535   2.499   6.626   9.067 -0.1680  0.0267  0.1642
   42CHL1  H16A 5536   2.603   6.647   9.035 -0.3987 -0.7539 -1.1644
   42CHL1  H16B 5537   2.461   6.550   8.996  0.1632 -0.7665  0.8263
   42CHL1   C17 5538   2.409   6.753   9.062  0.5284 -0.1950  0.1175
   42CHL1   H17 5539   2.308   6.714   9.039  0.6952 -2.3377  2.4679
   42CHL1   C13 5540   2.407   6.809   9.199  0.1748 -0.5761  0.3739
   42CHL1   C18 5541   2.550   6.881   9.230  1.1100 -0.5703  0.1474
   42CHL1  H18A 5542   2.638   6.817   9.207 -0.0512 -1.7020 -1.3121
   42CHL1  H18B 5543   2.560   6.968   9.161  0.3636 -1.3571 -0.9810
   42CHL1  H18C 5544   2.548   6.919   9.334 -0.0456 -0.8320  0.2249
   42CHL1   C12 5545   2.293   6.896   9.243  0.2062  0.3548  0.2601
   42CHL1  H12A 5546   2.295   7.002   9.208 -0.8795  0.2697 -0.1082
   42CHL1  H12B 5547   2.197   6.847   9.216  0.3402  0.3056 -0.1409
   42CHL1   C11 5548   2.281   6.916   9.403  0.3065  0.6730 -0.2253
   42CHL1  H11A 5549   2.352   6.994   9.438 -0.3867  0.1918  2.4489
   42CHL1  H11B 5550   2.182   6.954   9.435 -0.7395 -1.3443 -0.9005
   42CHL1    C9 5551   2.310   6.783   9.493  0.1094 -0.2410 -0.6805
   42CHL1    H9 5552   2.228   6.713   9.466  0.2378 -0.5239 -0.3509
   42CHL1   C10 5553   2.314   6.813   9.645  0.2568 -0.1783 -1.5111
   42CHL1   C19 5554   2.418   6.923   9.679 -0.7697 -1.2206 -0.4172
   42CHL1  H19A 5555   2.416   7.022   9.630 -0.5777 -0.4983  0.9771
   42CHL1  H19B 5556   2.438   6.933   9.788  3.8426  3.2639 -1.2850
   42CHL1  H19C 5557   2.516   6.890   9.638 -0.6721  0.0652 -1.2845
   42CHL1    C1 5558   2.179   6.856   9.699 -0.4346  0.2461  0.1218
   42CHL1   H1A 5559   2.164   6.957   9.655 -0.3975  0.3423  0.3294
   42CHL1   H1B 5560   2.099   6.784   9.671  0.4507 -1.8847  2.5765
   42CHL1    C2 5561   2.169   6.860   9.855  0.5503 -0.1598 -0.3671
   42CHL1   H2A 5562   2.069   6.899   9.883 -0.9034 -1.9603 -2.5797
   42CHL1   H2B 5563   2.247   6.928   9.893  0.7240 -0.1502 -0.7429
   42CHL1   C20 5564   2.424   6.855   8.943 -0.5623 -0.5148  0.0820
   42CHL1   H20 5565   2.506   6.927   8.965 -1.0133  0.2836 -0.7590
   42CHL1   C21 5566   2.296   6.942   8.925  0.5716  0.2287 -0.3912
   42CHL1  H21A 5567   2.293   6.995   8.828  0.3503 -0.3444 -0.6995
   42CHL1  H21B 5568   2.307   7.018   9.006 -1.5467 -1.3697  1.5432
   42CHL1  H21C 5569   2.203   6.884   8.942  1.9974 -2.6393 -1.7070
   42CHL1   C22 5570   2.462   6.790   8.814 -0.2232  0.6300  0.0570
   42CHL1  H22A 5571   2.553   6.728   8.836 -0.1714 -0.1124 -2.0611
   42CHL1  H22B 5572   2.382   6.721   8.779  0.0786 -0.0449  0.6595
   42CHL1   C23 5573   2.504   6.891   8.706 -0.2015  0.5809 -0.0009
   42CHL1  H23A 5574   2.413   6.942   8.667  0.6406  1.6344 -0.6611
   42CHL1  H23B 5575   2.544   6.987   8.745 -0.7092  1.1272 -0.7700
   42CHL1   C24 5576   2.592   6.827   8.603 -0.3772 -0.4222 -0.2099
   42CHL1  H24A 5577   2.681   6.783   8.654  1.3669  1.9711 -0.9768
   42CHL1  H24B 5578   2.538   6.748   8.548 -1.5661 -0.0977  0.4546
   42CHL1   C25 5579   2.644   6.933   8.504  0.4828 -0.6701  0.3454
   42CHL1   H25 5580   2.549   6.979   8.467  1.0081 -1.3471 -1.9736
   42CHL1   C26 5581   2.741   7.046   8.551 -0.4621  0.3386 -0.6473
   42CHL1  H26A 5582   2.710   7.098   8.644  2.3146  2.6261 -0.8674
   42CHL1  H26B 5583   2.836   6.991   8.571 -1.5771 -1.5732 -0.3230
   42CHL1  H26C 5584   2.749   7.119   8.468 -1.0980 -0.5520 -1.5064
   42CHL1   C27 5585   2.715   6.882   8.374  0.3321 -0.1809  0.4016
   42CHL1  H27A 5586   2.706   6.958   8.294  0.5195  0.5727  1.0914
   42CHL1  H27B 5587   2.819   6.848   8.391  0.7139  2.2297  3.7934
   42CHL1  H27C 5588   2.654   6.802   8.325  0.9617 -0.7851  0.5903
   43CHL1    C3 5589   5.068   1.475   9.834 -0.1266 -0.7566  0.4394
   43CHL1    H3 5590   5.174   1.476   9.803  0.4075  3.1604  1.8471
   43CHL1    O3 5591   5.072   1.443   9.971 -0.9493 -0.3195 -0.3846
   43CHL1   H3' 5592   4.996   1.491  10.005 -0.1335 -1.9307  4.5679
   43CHL1    C4 5593   5.010   1.612   9.811  0.7204  0.0020 -0.8938
   43CHL1   H4A 5594   4.910   1.613   9.858  1.4359  2.8353  0.8405
   43CHL1   H4B 5595   5.072   1.680   9.874 -0.0679  0.8012 -0.9633
   43CHL1    C5 5596   5.005   1.647   9.665 -0.6166  0.3896  0.0562
   43CHL1    C6 5597   5.076   1.748   9.600  0.0408 -0.0302 -0.6456
   43CHL1    H6 5598   5.143   1.811   9.658 -0.6699  0.2161 -0.0750
   43CHL1    C7 5599   5.066   1.787   9.458  0.7805 -0.2327 -0.2986
   43CHL1   H7A 5600   5.050   1.896   9.445 -1.5097 -0.5174 -0.2815
   43CHL1   H7B 5601   5.162   1.778   9.403 -0.0151  2.7843 -2.4777
   43CHL1    C8 5602   4.952   1.711   9.387 -0.8225  0.0368  0.4723
   43CHL1    H8 5603   4.853   1.758   9.406 -2.0519 -1.9537 -0.5944
   43CHL1   C14 5604   4.970   1.716   9.240  0.7720 -0.5538 -0.0158
   43CHL1   H14 5605   5.064   1.658   9.223  1.8682  0.6586  1.6072
   43CHL1   C15 5606   4.997   1.845   9.171 -0.0880  0.4745 -0.2679
   43CHL1  H15A 5607   4.926   1.925   9.202  0.1838 -0.5769  3.5574
   43CHL1  H15B 5608   5.101   1.876   9.194  0.6426 -0.9496 -1.5227
   43CHL1   C16 5609   4.985   1.824   9.022  0.5746  0.1646  0.1323
   43CHL1  H16A 5610   4.921   1.906   8.981 -1.5901 -1.6860 -0.3820
   43CHL1  H16B 5611   5.083   1.828   8.970  0.5994 -1.9713 -0.0493
   43CHL1   C17 5612   4.918   1.686   9.011 -0.0048  0.7944  0.1208
   43CHL1   H17 5613   5.006   1.623   8.984 -0.6008  1.0195 -2.7662
   43CHL1   C13 5614   4.865   1.646   9.150  0.3054 -0.5375 -0.9687
   43CHL1   C18 5615   4.725   1.717   9.171  0.0867  0.4618 -0.0656
   43CHL1  H18A 5616   4.691   1.733   9.276 -0.2765  0.7424 -0.2222
   43CHL1  H18B 5617   4.729   1.817   9.124 -1.5385  0.2787 -0.6670
   43CHL1  H18C 5618   4.642   1.662   9.121 -2.1483  1.4118  2.3785
   43CHL1   C12 5619   4.856   1.501   9.194 -0.1275 -0.1333  0.2253
   43CHL1  H12A 5620   4.766   1.450   9.153 -0.0095 -1.4545  1.5306
   43CHL1  H12B 5621   4.944   1.439   9.166 -1.1009 -1.4544 -0.0216
   43CHL1   C11 5622   4.845   1.486   9.350  0.2014 -0.0071  0.0196
   43CHL1  H11A 5623   4.743   1.523   9.374  0.1080 -0.4113  0.2461
   43CHL1  H11B 5624   4.857   1.377   9.365  2.7276  0.2528  0.4872
   43CHL1    C9 5625   4.943   1.566   9.434 -0.7140 -0.4431  0.1402
   43CHL1    H9 5626   5.038   1.518   9.402 -1.8956 -0.3006 -4.3546
   43CHL1   C10 5627   4.922   1.548   9.584 -1.2652 -0.0654 -0.2540
   43CHL1   C19 5628   4.772   1.555   9.622 -0.8887 -0.2720 -0.2648
   43CHL1  H19A 5629   4.711   1.477   9.572 -0.2510  0.1468 -1.7373
   43CHL1  H19B 5630   4.750   1.541   9.730 -0.7216  1.8474  0.0900
   43CHL1  H19C 5631   4.731   1.651   9.583 -2.2466 -1.8066 -2.9264
   43CHL1    C1 5632   4.973   1.403   9.616  0.0316  0.0859 -0.4515
   43CHL1   H1A 5633   4.918   1.321   9.565  0.9915 -0.6333 -0.3574
   43CHL1   H1B 5634   5.078   1.396   9.582  0.1911  1.8894 -0.4269
   43CHL1    C2 5635   4.987   1.367   9.765 -0.1646 -0.1723 -0.0960
   43CHL1   H2A 5636   5.036   1.269   9.777  1.9143  0.9853  1.6644
   43CHL1   H2B 5637   4.884   1.360   9.807 -0.0537 -2.8960 -0.1166
   43CHL1   C20 5638   4.824   1.673   8.889  0.4771  0.1570 -0.2164
   43CHL1   H20 5639   4.738   1.742   8.901 -0.2399 -0.7854  0.1435
   43CHL1   C21 5640   4.776   1.527   8.879 -0.3069 -0.2729  0.3380
   43CHL1  H21A 5641   4.714   1.506   8.969  1.6364  0.4686  1.9121
   43CHL1  H21B 5642   4.859   1.452   8.878 -0.5461 -0.5448 -0.7229
   43CHL1  H21C 5643   4.709   1.529   8.791 -0.2199 -0.1637  0.2748
   43CHL1   C22 5644   4.885   1.717   8.754  0.1753  0.6621  0.3901
   43CHL1  H22A 5645   4.947   1.809   8.769  2.7398 -0.6964 -1.2546
   43CHL1  H22B 5646   4.940   1.624   8.731 -1.1013 -0.4065  1.5033
   43CHL1   C23 5647   4.782   1.750   8.647  0.3118  0.2265 -0.3894
   43CHL1  H23A 5648   4.739   1.654   8.611  1.4245 -0.5210  0.2235
   43CHL1  H23B 5649   4.704   1.810   8.701 -0.2833 -1.2977  0.4962
   43CHL1   C24 5650   4.833   1.835   8.531 -0.2906 -0.5807  0.1640
   43CHL1  H24A 5651   4.865   1.937   8.562  2.2114 -1.1582 -0.3027
   43CHL1  H24B 5652   4.928   1.786   8.500  0.7039  0.2627  1.7594
   43CHL1   C25 5653   4.731   1.823   8.421 -0.1232 -0.0406 -0.1106
   43CHL1   H25 5654   4.629   1.792   8.454 -0.3467  0.4985 -0.2837
   43CHL1   C26 5655   4.710   1.956   8.347  0.2421 -0.6090  0.1294
   43CHL1  H26A 5656   4.800   1.994   8.294  1.3610 -0.7388  1.8519
   43CHL1  H26B 5657   4.616   1.949   8.288 -0.2453 -0.2952  0.8486
   43CHL1  H26C 5658   4.690   2.025   8.433  0.8154  0.1949 -0.3707
   43CHL1   C27 5659   4.775   1.706   8.335 -0.1914 -0.1309  1.0197
   43CHL1  H27A 5660   4.755   1.612   8.392  0.5860 -1.3372 -0.6155
   43CHL1  H27B 5661   4.727   1.700   8.235  0.0294 -1.6686  0.9769
   43CHL1  H27C 5662   4.882   1.719   8.311 -0.7000  2.5434 -0.1527
   44CHL1    C3 5663   5.619   0.557   9.987  0.0768 -0.4472  0.1638
   44CHL1    H3 5664   5.630   0.454   9.945  0.0765 -0.1703 -0.5309
   44CHL1    O3 5665   5.647   0.568  10.127 -0.3650  0.2640 -0.5152
   44CHL1   H3' 5666   5.651   0.659  10.156 -0.5524 -0.0945  0.7084
   44CHL1    C4 5667   5.715   0.650   9.907  0.0130 -0.0391 -0.4545
   44CHL1   H4A 5668   5.703   0.751   9.952  1.0227  0.5117 -1.3610
   44CHL1   H4B 5669   5.815   0.605   9.924  0.2028  0.5877  0.1341
   44CHL1    C5 5670   5.689   0.654   9.756  1.2180  0.2762 -0.0011
   44CHL1    C6 5671   5.778   0.629   9.661  1.1384 -0.0906  0.2109
   44CHL1    H6 5672   5.886   0.618   9.679  2.3574  1.3779 -4.6491
   44CHL1    C7 5673   5.752   0.627   9.509 -0.2789 -0.4292 -0.8280
   44CHL1   H7A 5674   5.825   0.691   9.455  0.7620 -0.2238  0.7681
   44CHL1   H7B 5675   5.747   0.522   9.472  0.4677 -0.2220 -1.5246
   44CHL1    C8 5676   5.614   0.693   9.478 -0.2835  0.1369  0.7360
   44CHL1    H8 5677   5.623   0.803   9.493 -3.9090  0.5419  0.6142
   44CHL1   C14 5678   5.578   0.663   9.331 -0.1752  0.0010  0.0162
   44CHL1   H14 5679   5.570   0.552   9.327  0.7930 -0.0400 -1.4599
   44CHL1   C15 5680   5.684   0.697   9.223  0.9025  0.1771  0.3890
   44CHL1  H15A 5681   5.724   0.799   9.236 -1.6552  1.4557 -1.0255
   44CHL1  H15B 5682   5.762   0.618   9.221  1.6458  0.8506 -2.4116
   44CHL1   C16 5683   5.601   0.700   9.094  0.8951 -0.4441 -0.7436
   44CHL1  H16A 5684   5.622   0.798   9.046 -2.4505  0.3043 -0.9480
   44CHL1  H16B 5685   5.622   0.611   9.030 -0.6171 -1.2786 -0.1533
   44CHL1   C17 5686   5.452   0.700   9.134 -0.0783  0.3241 -0.1002
   44CHL1   H17 5687   5.412   0.596   9.131  0.3872  0.1472 -0.3694
   44CHL1   C13 5688   5.447   0.729   9.288  0.0763 -0.0086  0.2728
   44CHL1   C18 5689   5.456   0.887   9.308 -0.4016 -0.0588 -0.6964
   44CHL1  H18A 5690   5.476   0.928   9.409  1.8947  0.3534 -1.2590
   44CHL1  H18B 5691   5.545   0.933   9.259 -0.4855 -1.0857 -1.8771
   44CHL1  H18C 5692   5.357   0.928   9.277 -0.1514 -0.7640 -2.5265
   44CHL1   C12 5693   5.336   0.659   9.367 -0.1813 -0.2017 -0.2117
   44CHL1  H12A 5694   5.240   0.715   9.359  0.3756  0.5393 -2.2634
   44CHL1  H12B 5695   5.320   0.555   9.332  0.2794 -0.7526  1.1806
   44CHL1   C11 5696   5.362   0.681   9.524 -0.3129 -0.5511 -1.0850
   44CHL1  H11A 5697   5.349   0.789   9.546 -1.8826 -1.1218  1.2219
   44CHL1  H11B 5698   5.284   0.620   9.576  1.2435 -2.1050 -0.4851
   44CHL1    C9 5699   5.509   0.639   9.576  0.9436  0.1606 -0.3545
   44CHL1    H9 5700   5.513   0.529   9.563  0.6797 -0.0870  1.3807
   44CHL1   C10 5701   5.540   0.676   9.726  0.2384  0.6672 -0.5643
   44CHL1   C19 5702   5.514   0.830   9.751  0.8061 -0.3022  0.2187
   44CHL1  H19A 5703   5.576   0.891   9.681  0.3804  0.1122  0.1939
   44CHL1  H19B 5704   5.410   0.866   9.737  1.0938  0.6657  0.5229
   44CHL1  H19C 5705   5.545   0.862   9.852 -2.7746  1.1588  1.0052
   44CHL1    C1 5706   5.442   0.591   9.821 -0.5632 -0.2514  0.0048
   44CHL1   H1A 5707   5.343   0.636   9.798 -0.9373 -0.5894  0.9279
   44CHL1   H1B 5708   5.451   0.485   9.791  0.3872  0.1610 -1.2718
   44CHL1    C2 5709   5.478   0.604   9.968  0.0773 -0.9324  0.1015
   44CHL1   H2A 5710   5.401   0.551  10.027 -0.8339  1.1235  0.8373
   44CHL1   H2B 5711   5.471   0.711   9.997  3.2178 -0.7734  0.6975
   44CHL1   C20 5712   5.357   0.785   9.043 -0.4813  0.1912 -0.3086
   44CHL1   H20 5713   5.370   0.894   9.063 -1.0250  0.1920  0.0769
   44CHL1   C21 5714   5.202   0.760   9.078  0.5698 -1.0629 -0.2914
   44CHL1  H21A 5715   5.137   0.801   8.997  0.9871 -0.5231 -0.3559
   44CHL1  H21B 5716   5.171   0.806   9.174  3.1808  0.5040 -0.1025
   44CHL1  H21C 5717   5.197   0.650   9.093 -0.3193 -0.8575  1.0581
   44CHL1   C22 5718   5.383   0.763   8.897  0.3664 -0.4881 -0.5727
   44CHL1  H22A 5719   5.489   0.736   8.875  0.7375 -1.1106  1.7302
   44CHL1  H22B 5720   5.329   0.668   8.878  0.0935 -0.8636  1.8246
   44CHL1   C23 5721   5.330   0.869   8.798 -0.7857 -0.1837 -0.3923
   44CHL1  H23A 5722   5.224   0.893   8.821 -0.1738  0.9442  1.5439
   44CHL1  H23B 5723   5.403   0.952   8.816  0.0660 -0.5298 -2.0897
   44CHL1   C24 5724   5.341   0.804   8.659 -0.0827  0.1832 -0.4587
   44CHL1  H24A 5725   5.448   0.781   8.638  0.2593  1.7630 -0.5626
   44CHL1  H24B 5726   5.284   0.709   8.663  0.5794 -0.1953  1.3590
   44CHL1   C25 5727   5.292   0.892   8.541 -0.5512  0.3539  0.5462
   44CHL1   H25 5728   5.335   0.994   8.545  2.4324 -0.6603 -1.8116
   44CHL1   C26 5729   5.318   0.825   8.405  0.2052 -0.0789  0.2364
   44CHL1  H26A 5730   5.426   0.806   8.390 -0.1192 -1.6558 -0.3847
   44CHL1  H26B 5731   5.256   0.734   8.386  0.5247 -0.8211  2.3670
   44CHL1  H26C 5732   5.279   0.875   8.314  0.9936 -3.4183 -2.1467
   44CHL1   C27 5733   5.142   0.922   8.541 -0.5410  0.5094  0.3993
   44CHL1  H27A 5734   5.110   0.967   8.444  0.4921  0.3371 -0.0405
   44CHL1  H27B 5735   5.088   0.824   8.534  2.5421 -1.1977 -1.8676
   44CHL1  H27C 5736   5.103   0.971   8.632  1.3459  1.6959  0.6154
   45CHL1    C3 5737   1.637   5.503  10.198 -0.6219  1.1383 -0.4858
   45CHL1    H3 5738   1.693   5.411  10.224  1.0528  1.8240 -1.4848
   45CHL1    O3 5739   1.618   5.572  10.318 -0.2868  0.8003  0.0624
   45CHL1   H3' 5740   1.579   5.655  10.288 -1.3378  0.0074 -0.8925
   45CHL1    C4 5741   1.724   5.587  10.094  0.0642  0.4234  0.2212
   45CHL1   H4A 5742   1.667   5.680  10.073  0.1668  0.5093  0.3206
   45CHL1   H4B 5743   1.826   5.612  10.129  0.5083 -0.1635 -0.5935
   45CHL1    C5 5744   1.737   5.521   9.959 -0.0272  0.0508 -0.5660
   45CHL1    C6 5745   1.849   5.512   9.894 -0.5959 -0.7023 -0.1573
   45CHL1    H6 5746   1.941   5.547   9.943 -1.5156 -1.2726  2.0495
   45CHL1    C7 5747   1.866   5.448   9.759  0.0523 -0.1026  0.2112
   45CHL1   H7A 5748   1.935   5.498   9.688  1.7254 -4.1827 -1.3995
   45CHL1   H7B 5749   1.912   5.347   9.771  0.2235 -0.0760 -0.2240
   45CHL1    C8 5750   1.739   5.423   9.679 -0.7604 -0.2050 -0.0801
   45CHL1    H8 5751   1.759   5.338   9.611  0.5725  1.2153 -1.5380
   45CHL1   C14 5752   1.701   5.538   9.580  0.0321  0.1341  0.4963
   45CHL1   H14 5753   1.709   5.630   9.641  1.3005 -0.1088  0.7391
   45CHL1   C15 5754   1.807   5.545   9.467 -0.0239 -0.3876 -0.5185
   45CHL1  H15A 5755   1.823   5.652   9.441 -0.6227  0.4911  2.3159
   45CHL1  H15B 5756   1.908   5.499   9.474 -0.5039 -1.5840 -1.2243
   45CHL1   C16 5757   1.740   5.484   9.340 -0.0322 -0.0999 -0.0807
   45CHL1  H16A 5758   1.741   5.562   9.260  0.4421  1.7167  1.6178
   45CHL1  H16B 5759   1.797   5.393   9.309  0.1837 -0.4928  1.4234
   45CHL1   C17 5760   1.597   5.446   9.385  0.0759  0.7473  0.1685
   45CHL1   H17 5761   1.598   5.341   9.422  0.7306 -0.1792 -2.3406
   45CHL1   C13 5762   1.567   5.533   9.506 -0.5910  0.5506  0.4517
   45CHL1   C18 5763   1.536   5.669   9.454  0.3193 -1.2999  0.5296
   45CHL1  H18A 5764   1.616   5.706   9.386  1.5903 -0.2888  2.4835
   45CHL1  H18B 5765   1.439   5.678   9.401  0.5200 -0.5282  0.2787
   45CHL1  H18C 5766   1.547   5.743   9.536 -1.2553  0.2248 -0.5618
   45CHL1   C12 5767   1.452   5.465   9.588 -0.2235  0.7486 -0.5060
   45CHL1  H12A 5768   1.396   5.539   9.648 -0.3162 -0.9505  1.6083
   45CHL1  H12B 5769   1.369   5.427   9.525 -1.1347  2.5083 -0.4483
   45CHL1   C11 5770   1.498   5.355   9.688  0.2495  0.5840  0.4029
   45CHL1  H11A 5771   1.411   5.310   9.740  0.2709  0.8150  0.6386
   45CHL1  H11B 5772   1.527   5.266   9.628 -0.0113  2.9538 -3.5227
   45CHL1    C9 5773   1.620   5.384   9.775 -0.0186 -0.2297 -0.5266
   45CHL1    H9 5774   1.635   5.282   9.815 -1.1865 -0.6979 -1.2337
   45CHL1   C10 5775   1.599   5.468   9.902  0.7456 -0.6581  0.0146
   45CHL1   C19 5776   1.517   5.597   9.864 -0.8191 -0.2871 -0.6100
   45CHL1  H19A 5777   1.556   5.654   9.778  0.2463 -0.8183 -0.4938
   45CHL1  H19B 5778   1.416   5.554   9.845  0.2763 -2.7935 -1.2176
   45CHL1  H19C 5779   1.501   5.663   9.952  0.0438 -0.4278 -0.3410
   45CHL1    C1 5780   1.516   5.393  10.008  0.0117 -0.7232 -0.4581
   45CHL1   H1A 5781   1.413   5.370   9.973  0.3756 -1.9082 -0.7716
   45CHL1   H1B 5782   1.560   5.294  10.033 -1.5443 -1.0156  1.3227
   45CHL1    C2 5783   1.494   5.461  10.144  0.3724  0.7854  0.0150
   45CHL1   H2A 5784   1.442   5.400  10.221 -1.4808  1.3823 -0.7097
   45CHL1   H2B 5785   1.422   5.544  10.126 -1.3200 -0.1980  1.9529
   45CHL1   C20 5786   1.492   5.436   9.266  0.3620  0.5785 -0.1140
   45CHL1   H20 5787   1.396   5.476   9.303 -0.3517 -1.1179 -0.0568
   45CHL1   C21 5788   1.483   5.291   9.232 -0.0340 -0.3246  0.1046
   45CHL1  H21A 5789   1.397   5.282   9.162 -1.9039 -1.9983  2.4322
   45CHL1  H21B 5790   1.475   5.217   9.315 -0.5040 -0.6606 -0.2279
   45CHL1  H21C 5791   1.582   5.267   9.189  1.3187  3.4689  0.7606
   45CHL1   C22 5792   1.529   5.511   9.130  0.3087 -1.3180 -0.3630
   45CHL1  H22A 5793   1.565   5.610   9.165  3.6490 -1.7454 -2.2016
   45CHL1  H22B 5794   1.602   5.449   9.074 -0.9220 -1.4420 -1.9165
   45CHL1   C23 5795   1.406   5.547   9.040  0.0368  0.2514 -1.2445
   45CHL1  H23A 5796   1.342   5.457   9.032 -1.4384  1.1818 -0.2784
   45CHL1  H23B 5797   1.334   5.614   9.091 -0.9936 -0.9679 -1.0472
   45CHL1   C24 5798   1.437   5.607   8.906  0.9116 -0.3816 -0.0042
   45CHL1  H24A 5799   1.431   5.718   8.904 -2.0621 -0.4706 -1.5505
   45CHL1  H24B 5800   1.536   5.570   8.871  0.9943  0.3341 -0.5510
   45CHL1   C25 5801   1.332   5.562   8.798  0.1366 -0.1850  0.4412
   45CHL1   H25 5802   1.322   5.453   8.817 -0.4741  0.2561  2.8963
   45CHL1   C26 5803   1.197   5.623   8.818 -0.3979 -0.9785  0.1118
   45CHL1  H26A 5804   1.153   5.619   8.920 -0.0724  2.6688  0.5356
   45CHL1  H26B 5805   1.202   5.732   8.797  0.0778 -0.6810  1.6437
   45CHL1  H26C 5806   1.128   5.575   8.745  1.2874  0.8070 -2.8700
   45CHL1   C27 5807   1.377   5.580   8.652  0.0817  0.2226 -0.4052
   45CHL1  H27A 5808   1.399   5.685   8.625 -2.0239 -0.2724 -5.0174
   45CHL1  H27B 5809   1.471   5.522   8.636 -0.2688 -0.3649 -0.3633
   45CHL1  H27C 5810   1.301   5.537   8.584  1.0868 -0.2798 -1.2483
   46CHL1    C3 5811   0.053   2.654  10.187 -0.0965 -0.4376 -0.2623
   46CHL1    H3 5812  -0.031   2.721  10.158 -0.1751 -1.2003 -1.9485
   46CHL1    O3 5813   0.046   2.631  10.325 -0.0790 -0.3959 -0.3335
   46CHL1   H3' 5814   0.122   2.575  10.343 -0.6069 -2.1375 -2.9924
   46CHL1    C4 5815   0.042   2.527  10.112  0.3863  0.4782 -0.0981
   46CHL1   H4A 5816   0.113   2.456  10.159 -1.3841 -0.0046  2.0080
   46CHL1   H4B 5817  -0.057   2.490  10.147  0.7882 -0.0462  0.5131
   46CHL1    C5 5818   0.073   2.523   9.967  0.2427 -0.0819  0.0040
   46CHL1    C6 5819   0.002   2.459   9.877  0.4104  0.7059  0.2050
   46CHL1    H6 5820  -0.093   2.414   9.910 -0.8969  2.1410 -1.4247
   46CHL1    C7 5821   0.043   2.443   9.735  0.4998  0.3010 -0.2946
   46CHL1   H7A 5822   0.025   2.341   9.696  0.0757  0.4306 -0.4358
   46CHL1   H7B 5823  -0.025   2.509   9.677  1.7359  0.7116 -1.3332
   46CHL1    C8 5824   0.190   2.491   9.695 -0.9551 -0.0628  0.0240
   46CHL1    H8 5825   0.258   2.408   9.723 -1.4056  0.0087  1.3777
   46CHL1   C14 5826   0.189   2.520   9.546 -0.1339 -0.1692 -0.6161
   46CHL1   H14 5827   0.116   2.601   9.524  0.6137  0.8710  0.5594
   46CHL1   C15 5828   0.166   2.395   9.453  0.2842  0.1030 -0.1716
   46CHL1  H15A 5829   0.221   2.307   9.493 -1.9934 -0.7357  1.3490
   46CHL1  H15B 5830   0.057   2.372   9.449  0.8582 -3.1307 -0.1376
   46CHL1   C16 5831   0.221   2.456   9.314  0.1820 -0.1554 -0.1522
   46CHL1  H16A 5832   0.270   2.371   9.262  0.1935 -0.3371  0.1506
   46CHL1  H16B 5833   0.132   2.497   9.261  0.6265  1.8978  0.5791
   46CHL1   C17 5834   0.305   2.587   9.348  0.1872  0.1171  0.4085
   46CHL1   H17 5835   0.238   2.676   9.339  0.9944  0.5794 -1.6553
   46CHL1   C13 5836   0.326   2.575   9.498  0.5995 -0.0368 -0.1407
   46CHL1   C18 5837   0.440   2.474   9.522 -0.1516  0.2117 -0.4008
   46CHL1  H18A 5838   0.440   2.389   9.451 -3.4613 -1.9147  1.8187
   46CHL1  H18B 5839   0.535   2.530   9.507 -0.0212 -0.2198 -1.2412
   46CHL1  H18C 5840   0.433   2.437   9.627  0.8243  1.0932 -0.0087
   46CHL1   C12 5841   0.363   2.705   9.569  0.7178 -0.2125 -0.4681
   46CHL1  H12A 5842   0.467   2.724   9.534  0.3685  1.4510 -0.7019
   46CHL1  H12B 5843   0.286   2.780   9.542  0.5561  0.7078  2.2306
   46CHL1   C11 5844   0.346   2.680   9.722 -0.6443  0.2391 -0.5221
   46CHL1  H11A 5845   0.433   2.615   9.747 -0.7045 -0.1294 -1.2366
   46CHL1  H11B 5846   0.351   2.782   9.765 -5.0038  2.1320 -3.7659
   46CHL1    C9 5847   0.217   2.618   9.774 -0.1067  0.1354 -0.2054
   46CHL1    H9 5848   0.136   2.687   9.744 -0.9186 -0.6305  0.1569
   46CHL1   C10 5849   0.200   2.595   9.923  0.0200  0.4473 -0.3050
   46CHL1   C19 5850   0.312   2.497   9.971 -0.3342 -0.2002  0.2882
   46CHL1  H19A 5851   0.330   2.487  10.080  0.4455 -0.8991  0.1074
   46CHL1  H19B 5852   0.298   2.391   9.941 -0.0053 -0.1489 -0.0503
   46CHL1  H19C 5853   0.411   2.532   9.933  0.0293  0.0326  1.4109
   46CHL1    C1 5854   0.207   2.735   9.993 -0.5300  0.6554 -0.0983
   46CHL1   H1A 5855   0.309   2.778   9.981 -0.7123  1.0716 -0.1790
   46CHL1   H1B 5856   0.137   2.805   9.943  0.5926  0.4994 -2.0100
   46CHL1    C2 5857   0.185   2.724  10.146 -0.2041 -1.0331  0.2090
   46CHL1   H2A 5858   0.181   2.829  10.184  1.8418 -1.3625  1.4686
   46CHL1   H2B 5859   0.269   2.672  10.196  1.5084  1.3898  0.0339
   46CHL1   C20 5860   0.422   2.605   9.246  0.8768 -0.2545  0.0066
   46CHL1   H20 5861   0.487   2.517   9.264 -0.8242 -1.2209  1.7847
   46CHL1   C21 5862   0.502   2.736   9.271 -0.2393 -0.4620 -0.8012
   46CHL1  H21A 5863   0.568   2.713   9.357  0.8116 -0.0393 -1.4833
   46CHL1  H21B 5864   0.437   2.821   9.301  1.3117  0.2067  0.8335
   46CHL1  H21C 5865   0.570   2.753   9.185  1.4840  0.7115  0.7251
   46CHL1   C22 5866   0.371   2.606   9.098  0.6981  0.1374 -0.1336
   46CHL1  H22A 5867   0.298   2.526   9.076  0.7783 -0.4681  1.6807
   46CHL1  H22B 5868   0.312   2.699   9.086  0.0688 -0.2604 -0.1200
   46CHL1   C23 5869   0.479   2.607   8.989  0.3968  0.4080 -0.4128
   46CHL1  H23A 5870   0.577   2.652   9.018 -0.0777  0.9103  0.4444
   46CHL1  H23B 5871   0.486   2.498   8.973 -0.3956  0.4596 -1.1490
   46CHL1   C24 5872   0.427   2.663   8.853  0.6050  0.1450 -0.3775
   46CHL1  H24A 5873   0.327   2.614   8.853  0.1846  0.9904 -0.4469
   46CHL1  H24B 5874   0.416   2.773   8.844 -1.1932  0.0054 -0.2857
   46CHL1   C25 5875   0.514   2.613   8.734 -0.2275 -0.6720 -0.2571
   46CHL1   H25 5876   0.462   2.648   8.642  1.7221  0.6407 -0.9178
   46CHL1   C26 5877   0.647   2.689   8.722  0.9487 -0.4079 -0.2141
   46CHL1  H26A 5878   0.711   2.661   8.809  1.0954 -0.7963 -0.4490
   46CHL1  H26B 5879   0.702   2.661   8.630  1.4640  1.2858 -0.4486
   46CHL1  H26C 5880   0.629   2.798   8.712 -0.7109 -0.6404 -0.1734
   46CHL1   C27 5881   0.527   2.465   8.725 -0.2411 -0.0137  0.3222
   46CHL1  H27A 5882   0.583   2.432   8.815 -2.0066 -1.3308  1.0033
   46CHL1  H27B 5883   0.428   2.417   8.735  0.7223 -1.8348  1.7648
   46CHL1  H27C 5884   0.595   2.439   8.641 -1.5551 -0.4994 -0.6125
   47CHL1    C3 5885   6.576   5.990  10.097  0.7413 -0.5951  0.6859
   47CHL1    H3 5886   6.600   5.882  10.109 -0.9018 -0.9554  1.0466
   47CHL1    O3 5887   6.582   6.046  10.228 -0.2284  0.0736  0.5907
   47CHL1   H3' 5888   6.550   6.136  10.217 -0.7667 -0.3474 -1.9098
   47CHL1    C4 5889   6.664   6.059   9.997 -0.3286  0.3949 -0.7340
   47CHL1   H4A 5890   6.647   6.168  10.007  0.5736  0.7563 -2.7916
   47CHL1   H4B 5891   6.771   6.041  10.021 -0.7590 -0.6528  0.5456
   47CHL1    C5 5892   6.645   6.017   9.855  0.5711  0.2668 -0.1831
   47CHL1    C6 5893   6.747   5.984   9.780  0.4250 -0.0982  0.4439
   47CHL1    H6 5894   6.848   5.977   9.822  1.0216  0.2965 -0.8647
   47CHL1    C7 5895   6.729   5.943   9.643  0.6153  0.2280  0.2627
   47CHL1   H7A 5896   6.810   5.977   9.575  0.7930  1.0514  0.8698
   47CHL1   H7B 5897   6.730   5.832   9.642 -0.2752  0.2149  0.3606
   47CHL1    C8 5898   6.597   5.988   9.571  0.4088  0.2990  0.2235
   47CHL1    H8 5899   6.601   6.098   9.560  1.3723  0.3157  0.6929
   47CHL1   C14 5900   6.575   5.912   9.444  0.5134 -0.0117 -0.2922
   47CHL1   H14 5901   6.566   5.805   9.474 -1.5387 -0.2654 -1.5408
   47CHL1   C15 5902   6.688   5.913   9.342 -0.0967  0.0656 -0.2282
   47CHL1  H15A 5903   6.736   6.013   9.334  0.7244 -0.4020 -1.2938
   47CHL1  H15B 5904   6.760   5.832   9.366 -0.8788 -0.8814 -1.0055
   47CHL1   C16 5905   6.620   5.879   9.207 -0.6619  0.4691 -0.0034
   47CHL1  H16A 5906   6.630   5.970   9.145  0.8540 -0.4402 -1.1592
   47CHL1  H16B 5907   6.663   5.794   9.150  0.1287  0.7202  0.2051
   47CHL1   C17 5908   6.471   5.858   9.244  0.1308  0.2646 -0.4895
   47CHL1   H17 5909   6.455   5.753   9.275 -0.7484  0.9658  1.6112
   47CHL1   C13 5910   6.445   5.944   9.371  0.1674 -0.2484  0.6784
   47CHL1   C18 5911   6.446   6.092   9.325  0.3916  0.0789  0.4730
   47CHL1  H18A 5912   6.352   6.141   9.289  0.2578  1.4950  2.5753
   47CHL1  H18B 5913   6.468   6.167   9.404 -0.7672  0.8613  0.0917
   47CHL1  H18C 5914   6.535   6.112   9.260 -0.0846 -2.1763 -0.9745
   47CHL1   C12 5915   6.328   5.919   9.458  0.5477  0.4144  0.4054
   47CHL1  H12A 5916   6.231   5.959   9.420  0.7692  0.0930 -0.5170
   47CHL1  H12B 5917   6.307   5.812   9.480  0.4200 -0.0523 -1.7596
   47CHL1   C11 5918   6.343   5.988   9.600 -0.5518 -0.0021 -0.3910
   47CHL1  H11A 5919   6.320   6.094   9.579  0.3766 -0.1304 -2.3289
   47CHL1  H11B 5920   6.275   5.934   9.669  0.5964 -0.7943  0.1549
   47CHL1    C9 5921   6.485   5.965   9.667  0.5916  0.5008 -0.3348
   47CHL1    H9 5922   6.490   5.855   9.683  1.4189 -0.5859 -6.0220
   47CHL1   C10 5923   6.499   6.031   9.805 -0.5849  0.2405  0.3602
   47CHL1   C19 5924   6.473   6.182   9.788 -0.4715  0.0240 -0.0851
   47CHL1  H19A 5925   6.553   6.221   9.722 -0.2022  0.5902  0.5651
   47CHL1  H19B 5926   6.376   6.215   9.746 -0.0973  0.1288 -0.8803
   47CHL1  H19C 5927   6.487   6.244   9.879 -0.3851 -0.8431  0.5059
   47CHL1    C1 5928   6.406   5.970   9.910  0.2941  0.8060  0.3755
   47CHL1   H1A 5929   6.300   5.998   9.895  0.3820  0.3952 -1.1783
   47CHL1   H1B 5930   6.392   5.860   9.909 -3.9774  1.1485  2.6686
   47CHL1    C2 5931   6.430   6.002  10.059 -0.1091  0.1504  0.4525
   47CHL1   H2A 5932   6.369   5.941  10.129  3.0266 -1.0881  2.3106
   47CHL1   H2B 5933   6.400   6.109  10.069 -0.8411  0.0455 -0.4633
   47CHL1   C20 5934   6.379   5.866   9.113  0.2125 -0.5408 -0.2434
   47CHL1   H20 5935   6.405   5.962   9.064  1.0712 -0.1062  1.0007
   47CHL1   C21 5936   6.230   5.875   9.163  0.7316  0.4879 -0.3715
   47CHL1  H21A 5937   6.156   5.855   9.083  2.4744 -1.1211 -1.6460
   47CHL1  H21B 5938   6.208   5.977   9.202  2.7763  1.0285 -0.5307
   47CHL1  H21C 5939   6.214   5.795   9.239  0.3552  1.8144  1.0261
   47CHL1   C22 5940   6.403   5.754   9.019  0.2357 -0.0744 -0.1940
   47CHL1  H22A 5941   6.514   5.745   9.019  0.3222  0.4371  1.9496
   47CHL1  H22B 5942   6.355   5.661   9.054 -0.6558  0.4357 -0.0417
   47CHL1   C23 5943   6.356   5.776   8.877 -0.5684 -0.0713 -0.0743
   47CHL1  H23A 5944   6.247   5.796   8.877 -0.7290 -0.5711  2.8031
   47CHL1  H23B 5945   6.395   5.875   8.844  0.6789 -0.4149  0.3093
   47CHL1   C24 5946   6.409   5.665   8.774  0.2442 -0.2578 -0.2163
   47CHL1  H24A 5947   6.519   5.678   8.774  0.2013  0.1482  0.0998
   47CHL1  H24B 5948   6.387   5.563   8.811 -0.4067 -0.4068 -0.9871
   47CHL1   C25 5949   6.353   5.683   8.629 -0.5110 -0.0240 -0.0639
   47CHL1   H25 5950   6.332   5.789   8.601  1.0407  1.1525  2.8341
   47CHL1   C26 5951   6.444   5.621   8.527  0.3547  0.5309  0.0456
   47CHL1  H26A 5952   6.541   5.675   8.527  0.8768 -0.3779  0.5430
   47CHL1  H26B 5953   6.398   5.636   8.427  0.6057  1.4704  0.0702
   47CHL1  H26C 5954   6.461   5.515   8.558 -0.1971  0.2846 -0.4750
   47CHL1   C27 5955   6.212   5.611   8.610  0.0371  0.3493  0.6214
   47CHL1  H27A 5956   6.192   5.575   8.506  2.7027  0.8048 -0.1285
   47CHL1  H27B 5957   6.221   5.516   8.666 -0.3722  0.4919  0.9272
   47CHL1  H27C 5958   6.132   5.676   8.650  0.4271 -0.9750  3.7884
   48CHL1    C3 5959   0.913   1.981  10.249 -0.2491  0.3624 -0.2052
   48CHL1    H3 5960   0.842   2.063  10.225  2.0779  2.2238 -1.0538
   48CHL1    O3 5961   0.920   1.972  10.391 -0.4328  0.5628 -0.0306
   48CHL1   H3' 5962   0.994   1.911  10.392  0.9373  2.0464 -1.9171
   48CHL1    C4 5963   0.863   1.851  10.190  0.6474  0.2975 -0.1043
   48CHL1   H4A 5964   0.919   1.762  10.226  0.1860 -0.4675 -1.2307
   48CHL1   H4B 5965   0.758   1.841  10.225  0.6060  3.0455  0.8096
   48CHL1    C5 5966   0.869   1.859  10.038  1.0194 -0.1403  0.3745
   48CHL1    C6 5967   0.753   1.863   9.964  0.1821  0.3345  0.5238
   48CHL1    H6 5968   0.651   1.845  10.002 -0.6099  0.8316 -1.2531
   48CHL1    C7 5969   0.750   1.862   9.818 -0.6758  0.7131  0.5376
   48CHL1   H7A 5970   0.679   1.793   9.768  2.5479 -1.6292 -1.2338
   48CHL1   H7B 5971   0.713   1.960   9.781 -2.1093 -0.7858 -2.4005
   48CHL1    C8 5972   0.891   1.827   9.759  0.3761 -0.8404 -0.9970
   48CHL1    H8 5973   0.919   1.723   9.787 -2.7567 -2.4058 -3.0164
   48CHL1   C14 5974   0.874   1.831   9.608 -0.1414 -0.6293 -0.1126
   48CHL1   H14 5975   0.852   1.939   9.589  1.1957  0.3751  3.3602
   48CHL1   C15 5976   0.768   1.745   9.534  0.4153 -0.4256  0.5471
   48CHL1  H15A 5977   0.785   1.643   9.575  2.6561  0.6297  2.4550
   48CHL1  H15B 5978   0.662   1.777   9.537  0.7712  0.7707  0.6297
   48CHL1   C16 5979   0.816   1.748   9.384  0.3528 -0.1221  0.0325
   48CHL1  H16A 5980   0.827   1.646   9.342 -1.3379 -0.4994  0.4072
   48CHL1  H16B 5981   0.747   1.805   9.317 -1.6492 -2.3366  0.0720
   48CHL1   C17 5982   0.959   1.806   9.386 -0.3228 -0.2003  0.3110
   48CHL1   H17 5983   0.953   1.916   9.368  1.2627 -0.1784 -0.1807
   48CHL1   C13 5984   1.009   1.801   9.536  0.6462 -0.3333 -0.2008
   48CHL1   C18 5985   1.054   1.654   9.566 -0.1061 -0.1721 -0.3008
   48CHL1  H18A 5986   1.039   1.619   9.671  0.5929 -1.3886 -0.5817
   48CHL1  H18B 5987   0.990   1.584   9.508 -2.5378 -0.3142  2.3287
   48CHL1  H18C 5988   1.162   1.638   9.549  0.3330  1.3561  0.7677
   48CHL1   C12 5989   1.110   1.903   9.582  0.3147  0.0978 -0.3024
   48CHL1  H12A 5990   1.210   1.884   9.539  0.6678  1.4673 -0.1329
   48CHL1  H12B 5991   1.083   2.002   9.539 -0.3646 -1.5015 -3.8970
   48CHL1   C11 5992   1.125   1.905   9.737 -0.4529 -0.0743  0.4795
   48CHL1  H11A 5993   1.182   1.812   9.761 -2.1124 -1.2222  0.1431
   48CHL1  H11B 5994   1.201   1.979   9.769  0.3540 -0.2295 -0.9640
   48CHL1    C9 5995   0.995   1.921   9.819  0.0392 -0.0035  0.6696
   48CHL1    H9 5996   0.968   2.028   9.803 -0.9157 -0.2000  0.8581
   48CHL1   C10 5997   1.002   1.899   9.972  0.0958 -0.4074 -0.3177
   48CHL1   C19 5998   1.100   1.792  10.005  0.4271 -0.4960  0.6695
   48CHL1  H19A 5999   1.087   1.704   9.938  1.4498 -0.0610 -0.1172
   48CHL1  H19B 6000   1.200   1.834   9.980  0.5489 -0.4835  1.1636
   48CHL1  H19C 6001   1.099   1.757  10.111  0.9779 -0.4563  0.6899
   48CHL1    C1 6002   1.046   2.028  10.039 -0.1574  0.2411 -0.1399
   48CHL1   H1A 6003   1.150   2.061  10.017  0.9746 -1.7055  1.8738
   48CHL1   H1B 6004   0.972   2.108  10.017 -1.7505 -0.6530  1.6511
   48CHL1    C2 6005   1.052   2.008  10.195 -0.1735 -0.0714 -0.3093
   48CHL1   H2A 6006   1.099   2.086  10.259 -0.0286 -2.9140  3.4185
   48CHL1   H2B 6007   1.112   1.921  10.228 -0.7659  0.0306  1.1086
   48CHL1   C20 6008   1.057   1.745   9.287  0.6067  0.5530 -0.1291
   48CHL1   H20 6009   1.084   1.640   9.313 -1.3332 -0.0769 -0.4948
   48CHL1   C21 6010   1.198   1.817   9.295  0.1634  0.4880  0.0029
   48CHL1  H21A 6011   1.250   1.771   9.382 -2.0306 -0.7239  0.7568
   48CHL1  H21B 6012   1.186   1.925   9.314  2.0167  0.4506  1.7439
   48CHL1  H21C 6013   1.255   1.793   9.203 -0.2024  0.7132 -0.2860
   48CHL1   C22 6014   1.002   1.749   9.138  0.3461  0.7617  0.8447
   48CHL1  H22A 6015   0.892   1.764   9.138 -0.0963 -1.9245 -0.1092
   48CHL1  H22B 6016   1.026   1.847   9.091  0.6981 -0.4937 -1.7975
   48CHL1   C23 6017   1.041   1.636   9.040 -0.3881  0.2445 -0.1716
   48CHL1  H23A 6018   1.152   1.633   9.048 -0.3848 -0.0545 -0.3142
   48CHL1  H23B 6019   1.007   1.534   9.065 -1.0958  0.8804  1.5416
   48CHL1   C24 6020   1.011   1.649   8.890 -0.3965  0.5365  0.2252
   48CHL1  H24A 6021   0.910   1.696   8.888  0.0958  1.6975 -2.7109
   48CHL1  H24B 6022   1.062   1.723   8.826 -1.1014  0.7537 -0.0984
   48CHL1   C25 6023   1.022   1.513   8.807  0.5147  0.9436  0.6461
   48CHL1   H25 6024   0.937   1.455   8.847 -1.6197  3.0630 -0.5393
   48CHL1   C26 6025   0.988   1.541   8.655 -0.8302 -0.1826  0.0563
   48CHL1  H26A 6026   0.900   1.606   8.638 -0.4024  0.3977 -0.0060
   48CHL1  H26B 6027   1.071   1.593   8.601  0.8788  0.0101  2.6734
   48CHL1  H26C 6028   0.971   1.444   8.605 -0.7401 -0.9624  1.5015
   48CHL1   C27 6029   1.164   1.440   8.825 -0.0413 -0.4521 -0.6814
   48CHL1  H27A 6030   1.178   1.406   8.930 -0.7122  1.3534  0.0345
   48CHL1  H27B 6031   1.169   1.348   8.762 -0.9516 -2.0939  1.5006
   48CHL1  H27C 6032   1.237   1.516   8.791  1.0567 -1.4462 -0.6122
   49CHL1    C3 6033   1.475   2.327  10.158 -0.4957  0.1276  0.4897
   49CHL1    H3 6034   1.512   2.222  10.170 -1.0511  0.0028  1.1397
   49CHL1    O3 6035   1.477   2.374  10.290  0.2859 -0.1004  0.2151
   49CHL1   H3' 6036   1.489   2.468  10.278  1.1642 -0.0908  1.0839
   49CHL1    C4 6037   1.567   2.406  10.067 -0.1818  0.0213  1.0719
   49CHL1   H4A 6038   1.540   2.512  10.083 -1.0517  0.2316 -1.3233
   49CHL1   H4B 6039   1.668   2.397  10.113 -0.7881 -2.5578  2.0920
   49CHL1    C5 6040   1.560   2.365   9.920 -0.2786 -0.2129  0.1501
   49CHL1    C6 6041   1.674   2.341   9.859  0.2139 -0.7996  0.0247
   49CHL1    H6 6042   1.771   2.352   9.909  1.2271  0.7080 -2.1262
   49CHL1    C7 6043   1.682   2.313   9.711 -0.3586 -0.0026  0.4416
   49CHL1   H7A 6044   1.752   2.388   9.669 -0.8535 -0.8034 -1.9376
   49CHL1   H7B 6045   1.731   2.214   9.698  2.9991  1.4415  1.0937
   49CHL1    C8 6046   1.547   2.332   9.639  0.3701 -0.4899 -0.8902
   49CHL1    H8 6047   1.542   2.442   9.624 -0.6884  0.0976  2.8103
   49CHL1   C14 6048   1.548   2.271   9.507 -0.1046  0.8922  0.3242
   49CHL1   H14 6049   1.546   2.160   9.512  0.3738  0.7307 -2.0471
   49CHL1   C15 6050   1.668   2.304   9.420 -0.3035  0.8063 -0.6103
   49CHL1  H15A 6051   1.696   2.412   9.419 -0.6568  0.9382 -2.7816
   49CHL1  H15B 6052   1.761   2.247   9.443 -1.1770 -0.5762 -0.4492
   49CHL1   C16 6053   1.615   2.266   9.276  0.3342  0.2143 -0.2619
   49CHL1  H16A 6054   1.610   2.363   9.222  0.7065  0.0329 -0.6272
   49CHL1  H16B 6055   1.677   2.195   9.218 -0.2049 -0.9492  0.5436
   49CHL1   C17 6056   1.452   2.243   9.285  0.3723 -0.2518  0.1562
   49CHL1   H17 6057   1.453   2.132   9.296 -1.4909 -0.2820  0.3116
   49CHL1   C13 6058   1.425   2.299   9.421  0.1524 -0.8212  0.6204
   49CHL1   C18 6059   1.412   2.449   9.408  0.1761 -0.0681  0.1837
   49CHL1  H18A 6060   1.378   2.502   9.499  0.1425 -0.8019  0.6090
   49CHL1  H18B 6061   1.503   2.495   9.362  1.6405 -1.8419  1.1456
   49CHL1  H18C 6062   1.331   2.485   9.342  3.0556  0.2199 -3.5946
   49CHL1   C12 6063   1.317   2.226   9.500  0.4300 -0.9663 -1.0055
   49CHL1  H12A 6064   1.217   2.232   9.452 -0.1526  1.0580  0.3459
   49CHL1  H12B 6065   1.338   2.117   9.505 -0.3105 -1.1123 -1.0033
   49CHL1   C11 6066   1.294   2.269   9.647 -0.4403  0.8046 -0.6187
   49CHL1  H11A 6067   1.240   2.366   9.641  0.8198  1.4560 -2.0524
   49CHL1  H11B 6068   1.237   2.192   9.703  1.7485 -0.5474 -0.1279
   49CHL1    C9 6069   1.425   2.283   9.725  0.3117  0.1649  0.0887
   49CHL1    H9 6070   1.459   2.180   9.751 -1.3330 -0.3165  0.4088
   49CHL1   C10 6071   1.419   2.350   9.858  0.0532  0.8103  0.2837
   49CHL1   C19 6072   1.368   2.497   9.839  0.8014  0.4411 -0.5845
   49CHL1  H19A 6073   1.262   2.500   9.804  0.8241  1.6725 -0.5921
   49CHL1  H19B 6074   1.362   2.555   9.934 -0.1401 -1.0698  0.3249
   49CHL1  H19C 6075   1.423   2.556   9.763  1.7575 -0.5862 -0.6967
   49CHL1    C1 6076   1.321   2.275   9.959  0.1305  0.1279  0.5264
   49CHL1   H1A 6077   1.214   2.294   9.935 -0.2235 -0.5884  1.5030
   49CHL1   H1B 6078   1.337   2.165   9.959 -3.4727 -0.8286 -5.4301
   49CHL1    C2 6079   1.332   2.321  10.105  0.0112 -0.4671  0.6248
   49CHL1   H2A 6080   1.268   2.264  10.175  0.0162 -0.9223  0.2629
   49CHL1   H2B 6081   1.302   2.428  10.110  0.9664 -0.0689 -1.1667
   49CHL1   C20 6082   1.363   2.261   9.163 -0.6278  0.2984  0.2904
   49CHL1   H20 6083   1.372   2.371   9.153  4.6902 -0.0356 -1.8445
   49CHL1   C21 6084   1.217   2.221   9.180  0.0881 -0.2006  0.6763
   49CHL1  H21A 6085   1.175   2.205   9.078 -0.2583  5.2706 -0.3511
   49CHL1  H21B 6086   1.151   2.295   9.228  0.8109  2.2019 -1.7556
   49CHL1  H21C 6087   1.210   2.123   9.232 -0.0442  0.4791  1.9664
   49CHL1   C22 6088   1.426   2.213   9.028  0.5952 -0.4558 -0.5323
   49CHL1  H22A 6089   1.345   2.251   8.963 -2.1596 -3.0101  1.1036
   49CHL1  H22B 6090   1.521   2.266   9.009  0.5900 -0.3284 -0.2183
   49CHL1   C23 6091   1.443   2.056   9.020 -0.0062  0.2414 -0.1405
   49CHL1  H23A 6092   1.517   2.020   9.094 -1.8250  0.1040  1.6832
   49CHL1  H23B 6093   1.343   2.023   9.056 -2.3536  4.4879 -1.9848
   49CHL1   C24 6094   1.475   2.018   8.875  0.4915 -0.4119 -0.5796
   49CHL1  H24A 6095   1.394   2.064   8.813  1.6670 -0.6903 -2.3999
   49CHL1  H24B 6096   1.575   2.059   8.849  0.9420 -0.1660  1.3772
   49CHL1   C25 6097   1.482   1.867   8.851  0.3612 -0.5672 -0.2506
   49CHL1   H25 6098   1.547   1.819   8.928  0.3484 -1.5303 -0.8254
   49CHL1   C26 6099   1.341   1.804   8.882  0.1618  0.5620 -0.1725
   49CHL1  H26A 6100   1.278   1.847   8.962 -0.0890  0.4061 -0.2853
   49CHL1  H26B 6101   1.277   1.800   8.791  1.0393 -0.8692 -0.7592
   49CHL1  H26C 6102   1.365   1.697   8.902  1.6761  1.1010  1.0233
   49CHL1   C27 6103   1.541   1.823   8.718  0.8061  0.2367  0.1040
   49CHL1  H27A 6104   1.496   1.858   8.623  1.4470 -0.5235 -0.4974
   49CHL1  H27B 6105   1.642   1.868   8.719  0.7831  0.2873  0.1229
   49CHL1  H27C 6106   1.549   1.712   8.720 -0.3023  0.1568  1.0648
   50CHL1    C3 6107   1.303   4.518   9.948 -0.3173  0.1874  0.1685
   50CHL1    H3 6108   1.398   4.564   9.915  0.8372 -1.2477  1.3731
   50CHL1    O3 6109   1.283   4.555  10.084 -0.5118 -0.0536  0.1212
   50CHL1   H3' 6110   1.212   4.492  10.099  1.0171 -1.4949  1.6677
   50CHL1    C4 6111   1.185   4.564   9.866  0.2897  0.3059 -0.0687
   50CHL1   H4A 6112   1.093   4.518   9.907  0.5579 -0.5686 -0.4272
   50CHL1   H4B 6113   1.168   4.672   9.882 -2.6351 -0.2149  0.9341
   50CHL1    C5 6114   1.197   4.529   9.718 -0.1214  0.5059  0.5835
   50CHL1    C6 6115   1.199   4.617   9.616 -0.7674 -0.8713  0.6017
   50CHL1    H6 6116   1.194   4.723   9.645 -0.4328 -0.1694 -1.7688
   50CHL1    C7 6117   1.201   4.585   9.473 -0.9102  0.5083  0.0264
   50CHL1   H7A 6118   1.144   4.653   9.406 -0.0453  0.3449 -0.9191
   50CHL1   H7B 6119   1.305   4.599   9.436 -0.3273 -0.1374  1.3732
   50CHL1    C8 6120   1.146   4.441   9.452  0.2299 -0.1688  0.1818
   50CHL1    H8 6121   1.037   4.443   9.476  0.7474  0.1899  2.8288
   50CHL1   C14 6122   1.183   4.411   9.306 -0.1368  0.9045  0.6788
   50CHL1   H14 6123   1.292   4.431   9.297 -0.5607  2.3611 -3.8384
   50CHL1   C15 6124   1.129   4.501   9.196  0.4841  0.7790 -0.4676
   50CHL1  H15A 6125   1.025   4.537   9.200  0.0762 -0.3765 -0.1928
   50CHL1  H15B 6126   1.192   4.592   9.198  0.9070  0.5384  3.0551
   50CHL1   C16 6127   1.158   4.415   9.069  0.1124 -0.1847  0.5650
   50CHL1  H16A 6128   1.062   4.397   9.016  1.8129  1.0018 -3.2807
   50CHL1  H16B 6129   1.217   4.466   8.990 -2.4432  0.7633 -0.8675
   50CHL1   C17 6130   1.212   4.275   9.115 -0.5224 -0.1483  0.6379
   50CHL1   H17 6131   1.322   4.286   9.123 -0.3591  1.3848 -2.2604
   50CHL1   C13 6132   1.172   4.261   9.260  0.0837  0.0447 -0.2409
   50CHL1   C18 6133   1.023   4.227   9.264  0.2948  0.7795 -0.2468
   50CHL1  H18A 6134   1.016   4.117   9.277 -0.8803  0.8572 -0.1180
   50CHL1  H18B 6135   0.975   4.268   9.355 -1.9620  1.2370 -1.5815
   50CHL1  H18C 6136   0.970   4.257   9.172 -3.4834 -2.4903  0.5876
   50CHL1   C12 6137   1.248   4.170   9.363  0.0999 -0.2446  0.4306
   50CHL1  H12A 6138   1.226   4.064   9.335  0.7183 -0.9523  2.4752
   50CHL1  H12B 6139   1.355   4.196   9.353 -0.7160  2.5482 -3.6985
   50CHL1   C11 6140   1.201   4.194   9.510 -0.4290  1.0496 -0.5621
   50CHL1  H11A 6141   1.096   4.161   9.529  0.2106 -0.0613  1.3477
   50CHL1  H11B 6142   1.260   4.122   9.570 -1.0965 -0.1731 -1.3409
   50CHL1    C9 6143   1.217   4.345   9.549 -0.2303 -0.1392  0.3602
   50CHL1    H9 6144   1.325   4.363   9.527 -0.1488  0.5622  1.3045
   50CHL1   C10 6145   1.203   4.374   9.705  0.6107 -0.1165  0.7263
   50CHL1   C19 6146   1.070   4.310   9.755 -0.6332  1.1290 -0.7067
   50CHL1  H19A 6147   1.075   4.200   9.742  1.7223  0.7913  1.9752
   50CHL1  H19B 6148   1.051   4.317   9.865 -1.9410  0.3484 -0.8696
   50CHL1  H19C 6149   0.976   4.342   9.706 -0.8600  0.4637 -0.7236
   50CHL1    C1 6150   1.325   4.322   9.789  0.4497 -0.0929 -0.2239
   50CHL1   H1A 6151   1.326   4.211   9.788  1.2121 -0.1136  0.9314
   50CHL1   H1B 6152   1.415   4.361   9.737 -0.5875  3.1696  0.1625
   50CHL1    C2 6153   1.315   4.362   9.942  0.4985 -0.0414 -0.3609
   50CHL1   H2A 6154   1.411   4.332   9.987  0.7339 -1.8029 -1.8948
   50CHL1   H2B 6155   1.223   4.314   9.983 -0.5592  1.2495 -1.1089
   50CHL1   C20 6156   1.199   4.159   9.015 -0.3830 -0.0252 -0.2845
   50CHL1   H20 6157   1.091   4.133   9.009 -0.6993  1.5414 -3.4276
   50CHL1   C21 6158   1.272   4.036   9.073  0.1903  0.5701  1.0585
   50CHL1  H21A 6159   1.375   4.065   9.104  0.0355  2.4834 -0.0081
   50CHL1  H21B 6160   1.299   3.958   8.999  1.2365  0.6917  1.2860
   50CHL1  H21C 6161   1.197   3.997   9.144 -0.7472  1.3582  0.5277
   50CHL1   C22 6162   1.241   4.190   8.868 -0.2921  0.3206  0.1246
   50CHL1  H22A 6163   1.195   4.112   8.804  0.5322 -0.4415  0.4283
   50CHL1  H22B 6164   1.191   4.284   8.838  2.5203  1.5400 -1.0971
   50CHL1   C23 6165   1.388   4.216   8.861 -0.3592  0.4462 -0.3665
   50CHL1  H23A 6166   1.419   4.296   8.931 -2.2657  2.3166 -1.5499
   50CHL1  H23B 6167   1.450   4.130   8.895 -0.1059  0.5474 -0.5710
   50CHL1   C24 6168   1.436   4.252   8.718  0.1701  0.7327  0.4251
   50CHL1  H24A 6169   1.378   4.180   8.656 -0.9983 -0.3482  2.6659
   50CHL1  H24B 6170   1.388   4.352   8.708 -0.8138  0.0624 -2.1732
   50CHL1   C25 6171   1.585   4.248   8.692 -0.0288 -0.0592  0.0861
   50CHL1   H25 6172   1.624   4.306   8.778 -1.3000  0.3633  0.3985
   50CHL1   C26 6173   1.644   4.109   8.703 -0.0434 -0.7875  0.4430
   50CHL1  H26A 6174   1.753   4.113   8.686 -0.1982  1.1994 -0.2183
   50CHL1  H26B 6175   1.633   4.062   8.804 -0.4601  0.0203  0.7845
   50CHL1  H26C 6176   1.595   4.047   8.625  0.5678 -0.4695 -0.1934
   50CHL1   C27 6177   1.617   4.311   8.554  0.7098 -0.3509  0.6591
   50CHL1  H27A 6178   1.626   4.422   8.554  2.4873 -0.4694  1.5994
   50CHL1  H27B 6179   1.715   4.271   8.521  0.2216 -1.6034  0.6989
   50CHL1  H27C 6180   1.537   4.284   8.482  0.7570  0.8280  0.1330
   51CHL1    C3 6181   3.013   0.849  10.339 -0.3616  0.2379  0.4408
   51CHL1    H3 6182   3.040   0.956  10.325 -1.9938  0.3765 -2.3119
   51CHL1    O3 6183   2.998   0.819  10.476 -0.2793 -0.2153 -0.0792
   51CHL1   H3' 6184   3.086   0.836  10.511 -0.3069 -1.0221  0.4095
   51CHL1    C4 6185   2.882   0.808  10.261 -0.0884 -0.0449 -0.4374
   51CHL1   H4A 6186   2.852   0.704  10.289  1.0699  0.0221  1.2405
   51CHL1   H4B 6187   2.803   0.868  10.310  0.6245 -1.0724  2.1898
   51CHL1    C5 6188   2.894   0.821  10.108 -0.7538  0.0233  0.4660
   51CHL1    C6 6189   2.805   0.890  10.035 -0.3615  0.3702  0.5958
   51CHL1    H6 6190   2.733   0.943  10.099  0.0862  2.6456 -0.7006
   51CHL1    C7 6191   2.809   0.896   9.886 -0.5156  0.3274 -0.4633
   51CHL1   H7A 6192   2.712   0.866   9.840  0.4993 -0.8495 -1.9303
   51CHL1   H7B 6193   2.834   0.998   9.851  1.6728 -0.7035 -2.1096
   51CHL1    C8 6194   2.920   0.801   9.818  0.4020 -0.1469 -0.2231
   51CHL1    H8 6195   2.875   0.700   9.822  1.5221 -0.6791 -0.6071
   51CHL1   C14 6196   2.951   0.846   9.670  0.3841  0.0835 -1.0802
   51CHL1   H14 6197   2.987   0.951   9.681 -0.1672 -0.0138  2.8637
   51CHL1   C15 6198   2.827   0.851   9.583 -0.1413 -0.3347 -0.0853
   51CHL1  H15A 6199   2.763   0.761   9.590  2.5384 -2.3573  0.3073
   51CHL1  H15B 6200   2.758   0.931   9.616  1.2517  0.0928  1.9685
   51CHL1   C16 6201   2.886   0.863   9.450  0.6300 -0.1000  0.3547
   51CHL1  H16A 6202   2.834   0.798   9.377  0.2171 -0.3843  0.9003
   51CHL1  H16B 6203   2.871   0.962   9.401 -1.7769 -0.5695  0.0417
   51CHL1   C17 6204   3.037   0.833   9.462  0.1518  0.1980 -0.3770
   51CHL1   H17 6205   3.079   0.935   9.470 -0.2924  0.2482  2.1457
   51CHL1   C13 6206   3.050   0.761   9.596  0.1428  0.0776 -0.6192
   51CHL1   C18 6207   3.006   0.613   9.579  0.1195  0.1091  0.1991
   51CHL1  H18A 6208   3.078   0.563   9.511 -1.3307  0.2684 -1.5261
   51CHL1  H18B 6209   2.991   0.560   9.676 -1.7389  1.3335  0.6498
   51CHL1  H18C 6210   2.906   0.595   9.534  0.0835 -2.7399  1.2150
   51CHL1   C12 6211   3.181   0.784   9.670  0.0183  0.4505  0.1801
   51CHL1  H12A 6212   3.263   0.717   9.636 -0.6212 -0.9143  1.2434
   51CHL1  H12B 6213   3.213   0.890   9.660  1.2633 -0.0222 -1.2780
   51CHL1   C11 6214   3.162   0.733   9.819 -0.0289  0.4509 -0.4154
   51CHL1  H11A 6215   3.138   0.625   9.811 -0.4722  0.4215  1.0160
   51CHL1  H11B 6216   3.259   0.742   9.871  0.4282 -0.4532 -1.0841
   51CHL1    C9 6217   3.045   0.796   9.903 -0.1040 -0.3470  0.4727
   51CHL1    H9 6218   3.075   0.902   9.906 -0.5564 -0.1871 -0.3481
   51CHL1   C10 6219   3.023   0.750  10.044  0.4124 -0.1443 -0.5680
   51CHL1   C19 6220   3.001   0.594  10.038 -0.3224 -0.4905  0.2392
   51CHL1  H19A 6221   3.090   0.538  10.004  0.5675  1.8642 -1.5607
   51CHL1  H19B 6222   2.977   0.555  10.140  2.2066 -2.4420  0.1667
   51CHL1  H19C 6223   2.914   0.564   9.976 -0.9153  0.4821  0.5648
   51CHL1    C1 6224   3.151   0.783  10.126  0.0658 -0.5537 -0.4212
   51CHL1   H1A 6225   3.230   0.719  10.082 -1.0727 -0.8992 -2.0539
   51CHL1   H1B 6226   3.176   0.887  10.097 -0.7945 -0.9801 -2.8969
   51CHL1    C2 6227   3.132   0.766  10.279  0.8545  0.8079  0.4943
   51CHL1   H2A 6228   3.225   0.790  10.335 -1.8988  3.5305  4.4457
   51CHL1   H2B 6229   3.109   0.660  10.302 -1.8649  1.4785  1.2348
   51CHL1   C20 6230   3.100   0.770   9.333  0.3411  0.8609  0.5816
   51CHL1   H20 6231   3.060   0.666   9.330 -0.2839  1.0684  1.3276
   51CHL1   C21 6232   3.249   0.763   9.356  0.0323  0.3568  0.0894
   51CHL1  H21A 6233   3.292   0.862   9.383  1.5856 -0.3398  0.3201
   51CHL1  H21B 6234   3.311   0.715   9.278 -0.4760 -0.0712 -0.0571
   51CHL1  H21C 6235   3.275   0.698   9.442  3.2211  0.8509 -0.3750
   51CHL1   C22 6236   3.072   0.855   9.207  0.6285 -1.0063  0.3277
   51CHL1  H22A 6237   2.961   0.867   9.206  0.6629 -0.5764 -1.7256
   51CHL1  H22B 6238   3.119   0.955   9.220  0.2564 -0.6398 -1.0097
   51CHL1   C23 6239   3.116   0.797   9.075  1.2152  0.6808  0.0653
   51CHL1  H23A 6240   3.227   0.795   9.066  1.2629 -0.3535  0.6746
   51CHL1  H23B 6241   3.075   0.695   9.057  1.1559  1.1180 -2.6453
   51CHL1   C24 6242   3.061   0.880   8.954 -0.1540 -0.0635  0.0464
   51CHL1  H24A 6243   3.115   0.977   8.957 -0.2822  0.0229 -0.4194
   51CHL1  H24B 6244   3.097   0.817   8.870  0.8353 -2.2048  1.9800
   51CHL1   C25 6245   2.913   0.911   8.944  0.1213 -0.4590  0.5201
   51CHL1   H25 6246   2.903   0.979   9.032 -0.5162  0.4646 -0.2357
   51CHL1   C26 6247   2.882   0.991   8.818  0.0170  0.2000 -0.3248
   51CHL1  H26A 6248   2.956   1.074   8.812  2.6224 -1.8809  0.7634
   51CHL1  H26B 6249   2.909   0.932   8.728  1.0153 -0.0445  0.1174
   51CHL1  H26C 6250   2.776   1.024   8.812  0.4459  1.5964 -0.5834
   51CHL1   C27 6251   2.827   0.778   8.956 -0.0327 -0.8097 -0.4291
   51CHL1  H27A 6252   2.837   0.712   8.867 -2.0150  2.3748 -3.3098
   51CHL1  H27B 6253   2.863   0.732   9.050 -2.4127 -2.7619 -0.3715
   51CHL1  H27C 6254   2.723   0.811   8.977  0.3301  0.3642 -0.4384
   52CHL1    C3 6255   5.705   6.502  10.041  0.0393  0.3426 -0.1922
   52CHL1    H3 6256   5.801   6.452  10.016 -0.6752 -0.0320 -2.3457
   52CHL1    O3 6257   5.717   6.545  10.173 -0.0096  0.4115 -0.2163
   52CHL1   H3' 6258   5.653   6.494  10.223  1.4592  0.8723  2.2904
   52CHL1    C4 6259   5.679   6.612   9.946 -0.6502 -0.0583 -0.0211
   52CHL1   H4A 6260   5.588   6.669   9.976  0.6984  1.7604  0.8344
   52CHL1   H4B 6261   5.759   6.688   9.956  0.2743 -1.3428  3.8129
   52CHL1    C5 6262   5.666   6.559   9.805  0.0400  0.2726  0.1651
   52CHL1    C6 6263   5.738   6.602   9.701  0.2925  0.9438  0.1775
   52CHL1    H6 6264   5.801   6.691   9.715 -0.7350  1.3886  2.3596
   52CHL1    C7 6265   5.716   6.558   9.558 -0.1229 -0.7431  0.1380
   52CHL1   H7A 6266   5.713   6.650   9.496 -0.5664 -0.8146  0.0494
   52CHL1   H7B 6267   5.810   6.508   9.527  0.9467  2.2654 -1.9339
   52CHL1    C8 6268   5.586   6.477   9.533  0.6844 -0.1170  0.4122
   52CHL1    H8 6269   5.497   6.543   9.525 -0.3261 -1.4299  0.4898
   52CHL1   C14 6270   5.591   6.403   9.401 -0.0228  0.7188 -0.0624
   52CHL1   H14 6271   5.677   6.333   9.411 -0.4282  0.4547  2.0399
   52CHL1   C15 6272   5.611   6.492   9.280  0.2911 -0.1152  0.0468
   52CHL1  H15A 6273   5.565   6.593   9.281  0.4712 -0.0370  0.3352
   52CHL1  H15B 6274   5.722   6.494   9.279  0.3994 -2.4731 -1.3681
   52CHL1   C16 6275   5.549   6.402   9.169 -0.1238 -0.6724 -0.3903
   52CHL1  H16A 6276   5.468   6.469   9.133  0.3431 -0.5740 -1.2715
   52CHL1  H16B 6277   5.618   6.363   9.091  0.0856 -0.9048 -0.0903
   52CHL1   C17 6278   5.505   6.278   9.242  0.5967  0.1440  0.4877
   52CHL1   H17 6279   5.596   6.216   9.251  1.3877  1.0400 -0.9885
   52CHL1   C13 6280   5.473   6.316   9.381  0.0492  0.3072 -0.5230
   52CHL1   C18 6281   5.339   6.399   9.382 -0.0227  0.2748  0.9861
   52CHL1  H18A 6282   5.333   6.467   9.294  1.3276  0.4401  1.0016
   52CHL1  H18B 6283   5.257   6.325   9.370  0.2197  0.2448 -0.8729
   52CHL1  H18C 6284   5.322   6.452   9.478  0.5558  0.6504  0.8850
   52CHL1   C12 6285   5.462   6.202   9.492  0.7431 -0.7086  0.3401
   52CHL1  H12A 6286   5.372   6.139   9.477  1.1544 -1.1930 -0.1249
   52CHL1  H12B 6287   5.551   6.140   9.468  1.6101  1.2818 -1.9740
   52CHL1   C11 6288   5.454   6.274   9.627  0.0038 -0.6048  0.2485
   52CHL1  H11A 6289   5.360   6.334   9.627  0.8722  0.8053  1.4036
   52CHL1  H11B 6290   5.461   6.199   9.709  1.5978  0.9580  1.5947
   52CHL1    C9 6291   5.569   6.380   9.650 -0.4563  0.3737 -0.1537
   52CHL1    H9 6292   5.663   6.321   9.655 -0.5788  0.2818  2.5089
   52CHL1   C10 6293   5.562   6.445   9.788  0.4214 -0.3415  0.0848
   52CHL1   C19 6294   5.420   6.500   9.804 -0.6035 -0.1370 -0.4632
   52CHL1  H19A 6295   5.350   6.415   9.820  0.6377 -1.1733 -0.3506
   52CHL1  H19B 6296   5.412   6.573   9.887  0.1622 -0.2296 -0.2953
   52CHL1  H19C 6297   5.384   6.556   9.715  0.9664  0.7211 -0.5826
   52CHL1    C1 6298   5.581   6.340   9.898 -1.1322 -0.6519 -0.0963
   52CHL1   H1A 6299   5.499   6.266   9.901 -1.5718 -0.1612  0.1942
   52CHL1   H1B 6300   5.678   6.294   9.868 -0.4109  1.4510 -1.1985
   52CHL1    C2 6301   5.598   6.401  10.033  0.2570  0.0784  0.5752
   52CHL1   H2A 6302   5.617   6.317  10.104  3.3557  0.5642  0.4840
   52CHL1   H2B 6303   5.505   6.449  10.069  0.6550  0.2613  1.3871
   52CHL1   C20 6304   5.390   6.193   9.173 -0.0023  0.7213  0.0650
   52CHL1   H20 6305   5.337   6.148   9.260  2.8535 -1.0040  1.0583
   52CHL1   C21 6306   5.451   6.066   9.096 -0.4914 -0.0481  0.7004
   52CHL1  H21A 6307   5.530   6.098   9.024 -1.4911 -1.4462 -1.1168
   52CHL1  H21B 6308   5.380   5.994   9.050 -0.0993 -1.2586  1.9254
   52CHL1  H21C 6309   5.504   6.011   9.177  1.1968 -0.0910 -0.3751
   52CHL1   C22 6310   5.295   6.264   9.076  0.5129 -0.2814 -0.1412
   52CHL1  H22A 6311   5.260   6.364   9.110  2.3642 -0.5933  3.0034
   52CHL1  H22B 6312   5.345   6.287   8.979 -1.7514  1.8352 -0.9487
   52CHL1   C23 6313   5.163   6.197   9.047 -0.2788 -0.1537 -0.2010
   52CHL1  H23A 6314   5.182   6.094   9.012  3.3404 -0.3020  1.7022
   52CHL1  H23B 6315   5.115   6.169   9.144 -1.5347  0.0011 -0.7575
   52CHL1   C24 6316   5.064   6.286   8.973 -0.3705  0.4993  0.9444
   52CHL1  H24A 6317   5.037   6.377   9.030 -0.3003  0.7989  0.5064
   52CHL1  H24B 6318   5.116   6.326   8.883 -1.0469  0.6816  0.6292
   52CHL1   C25 6319   4.946   6.213   8.907 -0.8451 -0.0691 -0.2907
   52CHL1   H25 6320   4.913   6.145   8.988  0.1499  1.1328  1.1763
   52CHL1   C26 6321   4.832   6.314   8.868 -0.5786 -0.4230  0.5969
   52CHL1  H26A 6322   4.864   6.400   8.804 -0.9534 -0.7690 -0.0643
   52CHL1  H26B 6323   4.753   6.261   8.810  0.0355 -2.0477  1.1938
   52CHL1  H26C 6324   4.803   6.348   8.970  0.4893  1.1624  0.4211
   52CHL1   C27 6325   4.987   6.135   8.777 -0.2016  0.4876  0.4303
   52CHL1  H27A 6326   4.898   6.082   8.735 -0.2826 -0.1708  1.4096
   52CHL1  H27B 6327   5.033   6.204   8.704  0.5564  0.3246  0.7520
   52CHL1  H27C 6328   5.060   6.056   8.805  0.7130  0.1721 -2.4901
   53CHL1    C3 6329   0.482   5.430  10.094 -0.0108  0.3173  0.2992
   53CHL1    H3 6330   0.414   5.517  10.083 -2.0695 -1.3285 -0.6453
   53CHL1    O3 6331   0.517   5.418  10.229 -0.2773 -0.4738 -0.4705
   53CHL1   H3' 6332   0.565   5.336  10.233  0.5750  0.0552  0.3741
   53CHL1    C4 6333   0.407   5.306  10.045  0.2421  1.1488  0.0636
   53CHL1   H4A 6334   0.469   5.218  10.072 -2.2865 -0.3154  1.3746
   53CHL1   H4B 6335   0.313   5.298  10.104  1.1790  0.1415  1.4939
   53CHL1    C5 6336   0.392   5.305   9.888  0.2668  0.7956  0.6257
   53CHL1    C6 6337   0.266   5.283   9.833 -0.7004 -0.5886  0.3512
   53CHL1    H6 6338   0.184   5.274   9.905 -2.3735 -0.6875 -1.4591
   53CHL1    C7 6339   0.235   5.284   9.688 -0.2262  0.1889  0.0437
   53CHL1   H7A 6340   0.169   5.194   9.683 -0.3130  0.1508  1.3543
   53CHL1   H7B 6341   0.174   5.367   9.647 -1.2575 -0.7964 -0.4696
   53CHL1    C8 6342   0.357   5.263   9.606 -0.0969  0.2456 -0.0399
   53CHL1    H8 6343   0.385   5.156   9.617 -0.0796  0.2415 -0.1292
   53CHL1   C14 6344   0.324   5.283   9.456 -0.1399 -0.4681 -0.7242
   53CHL1   H14 6345   0.289   5.387   9.439  1.9368  0.8925  2.3997
   53CHL1   C15 6346   0.207   5.202   9.385 -0.4395 -0.2748 -0.0558
   53CHL1  H15A 6347   0.201   5.097   9.419  2.5213 -0.7173 -0.5959
   53CHL1  H15B 6348   0.110   5.251   9.410 -0.5836 -1.0535  0.9636
   53CHL1   C16 6349   0.228   5.218   9.236 -0.8871 -0.5195  0.0416
   53CHL1  H16A 6350   0.223   5.117   9.191  0.5029 -1.0285  0.9574
   53CHL1  H16B 6351   0.152   5.279   9.183 -2.3184 -2.4846 -0.2589
   53CHL1   C17 6352   0.371   5.284   9.220  0.1769 -0.1895 -0.4467
   53CHL1   H17 6353   0.343   5.389   9.199  2.3496  0.2206 -1.6521
   53CHL1   C13 6354   0.441   5.276   9.356 -0.2300 -0.7032 -0.6241
   53CHL1   C18 6355   0.515   5.139   9.377 -0.7413  0.5932 -0.3322
   53CHL1  H18A 6356   0.607   5.130   9.316 -0.0652 -3.2580  0.9687
   53CHL1  H18B 6357   0.540   5.122   9.484 -1.3329 -1.3335 -0.4532
   53CHL1  H18C 6358   0.450   5.052   9.353  0.5899 -0.7802  0.8257
   53CHL1   C12 6359   0.535   5.397   9.398  0.1342 -0.0886 -0.7724
   53CHL1  H12A 6360   0.625   5.407   9.333  0.3812  0.9676 -0.3005
   53CHL1  H12B 6361   0.483   5.495   9.409  0.8202 -0.0021  3.2997
   53CHL1   C11 6362   0.581   5.377   9.544 -0.7558  0.1730  0.1112
   53CHL1  H11A 6363   0.649   5.289   9.544 -0.4259  0.2800  3.6328
   53CHL1  H11B 6364   0.651   5.456   9.578  2.3627 -1.7905 -1.3338
   53CHL1    C9 6365   0.471   5.360   9.646 -0.1262  0.5119 -0.7411
   53CHL1    H9 6366   0.431   5.464   9.642  1.9871  1.4361  0.1602
   53CHL1   C10 6367   0.517   5.332   9.797  0.3748  0.6339 -0.6969
   53CHL1   C19 6368   0.611   5.214   9.811  0.1910  0.0429 -0.4418
   53CHL1  H19A 6369   0.705   5.245   9.760  1.0588  0.7856  1.5229
   53CHL1  H19B 6370   0.637   5.187   9.915 -1.1235 -0.2587 -0.1798
   53CHL1  H19C 6371   0.573   5.124   9.758 -1.3828  0.5882 -0.2847
   53CHL1    C1 6372   0.587   5.459   9.859  0.3509  0.1686  0.1404
   53CHL1   H1A 6373   0.687   5.457   9.811 -0.4695  1.5685 -1.7766
   53CHL1   H1B 6374   0.521   5.541   9.822  0.7176  0.2235 -0.4063
   53CHL1    C2 6375   0.609   5.463  10.008 -0.6163 -0.2948  0.9991
   53CHL1   H2A 6376   0.644   5.565  10.036 -2.8004  0.5830  0.7395
   53CHL1   H2B 6377   0.691   5.392  10.030  0.9292  1.4743  1.1935
   53CHL1   C20 6378   0.446   5.232   9.098  0.1250 -0.0595 -0.3376
   53CHL1   H20 6379   0.459   5.123   9.109 -0.5326 -0.0718  0.3816
   53CHL1   C21 6380   0.585   5.290   9.082 -0.8641  0.2198 -0.0088
   53CHL1  H21A 6381   0.643   5.277   9.176  0.2601 -1.0081 -0.8402
   53CHL1  H21B 6382   0.578   5.400   9.065 -1.9107  0.0946 -0.4958
   53CHL1  H21C 6383   0.637   5.236   9.000  0.5024  2.4562 -0.7008
   53CHL1   C22 6384   0.366   5.256   8.965 -0.3843 -0.1373  0.2634
   53CHL1  H22A 6385   0.261   5.219   8.974 -1.0778  1.1672 -1.7393
   53CHL1  H22B 6386   0.362   5.366   8.955  1.8146 -0.0238  0.1572
   53CHL1   C23 6387   0.434   5.202   8.839 -0.4026 -0.6181 -0.0301
   53CHL1  H23A 6388   0.526   5.263   8.822 -0.3352 -1.3546 -2.7028
   53CHL1  H23B 6389   0.467   5.099   8.864  0.6625 -0.1495  0.5781
   53CHL1   C24 6390   0.346   5.200   8.716 -0.1553  0.4321  0.1705
   53CHL1  H24A 6391   0.261   5.131   8.732  1.6634 -2.3228 -1.1665
   53CHL1  H24B 6392   0.303   5.300   8.696  0.1897  0.5693  0.1102
   53CHL1   C25 6393   0.413   5.147   8.584  0.8516  0.3053 -0.3964
   53CHL1   H25 6394   0.333   5.126   8.510 -0.2541 -2.2721  1.3939
   53CHL1   C26 6395   0.501   5.254   8.519 -0.2373  0.3970  1.0120
   53CHL1  H26A 6396   0.563   5.205   8.440 -0.2945  0.6917  0.7844
   53CHL1  H26B 6397   0.453   5.346   8.481 -0.4949 -0.7390 -1.5906
   53CHL1  H26C 6398   0.582   5.287   8.589  0.6218 -1.0445  0.7349
   53CHL1   C27 6399   0.499   5.034   8.615 -0.2426 -0.9149  0.4056
   53CHL1  H27A 6400   0.593   5.068   8.664 -0.3080  1.7731 -1.1493
   53CHL1  H27B 6401   0.446   4.963   8.682  0.4325 -0.3778  1.5320
   53CHL1  H27C 6402   0.526   4.974   8.525  0.5059 -0.8566  0.5832
   54CHL1    C3 6403   6.501   0.271  10.102  0.2628 -0.4324  0.1554
   54CHL1    H3 6404   6.582   0.196  10.101 -0.1445 -0.8914 -1.5140
   54CHL1    O3 6405   6.491   0.326  10.231  0.0882 -0.4130  0.4833
   54CHL1   H3' 6406   6.422   0.393  10.238  0.9511  0.3839  1.9078
   54CHL1    C4 6407   6.545   0.388  10.015  0.4905 -0.1099 -0.0568
   54CHL1   H4A 6408   6.478   0.475  10.031 -1.9603 -1.8482 -0.3689
   54CHL1   H4B 6409   6.646   0.410  10.057  0.6007 -0.2986 -0.2174
   54CHL1    C5 6410   6.559   0.353   9.865 -0.7425 -0.0095  0.1426
   54CHL1    C6 6411   6.668   0.382   9.798  0.3625  0.1161 -0.5253
   54CHL1    H6 6412   6.740   0.446   9.850 -0.4704  0.7877 -0.1897
   54CHL1    C7 6413   6.694   0.359   9.652  0.4958 -0.2201  0.5640
   54CHL1   H7A 6414   6.735   0.451   9.605  1.7906 -0.0979  1.8740
   54CHL1   H7B 6415   6.769   0.278   9.645  0.5496 -0.2463  1.4128
   54CHL1    C8 6416   6.559   0.318   9.582 -0.3582  0.2773 -0.3189
   54CHL1    H8 6417   6.500   0.412   9.568 -0.4725  0.0046 -1.7840
   54CHL1   C14 6418   6.603   0.259   9.455  0.0446  0.2796  0.5163
   54CHL1   H14 6419   6.648   0.163   9.489 -0.3024  0.9464  3.0876
   54CHL1   C15 6420   6.709   0.327   9.371  0.3295  0.2315  0.0555
   54CHL1  H15A 6421   6.684   0.435   9.361 -1.5083 -0.3879 -3.2255
   54CHL1  H15B 6422   6.814   0.324   9.408  0.4444 -0.8062 -0.3516
   54CHL1   C16 6423   6.693   0.265   9.234  0.1249  0.0801  0.6967
   54CHL1  H16A 6424   6.680   0.347   9.160 -1.5250  0.5360  1.4508
   54CHL1  H16B 6425   6.780   0.198   9.218  0.2024  0.4688 -0.6532
   54CHL1   C17 6426   6.561   0.173   9.247 -0.5422 -0.3714  0.0926
   54CHL1   H17 6427   6.606   0.075   9.274 -0.8042  0.0049  2.0263
   54CHL1   C13 6428   6.484   0.222   9.368 -0.4108  1.0472 -0.6702
   54CHL1   C18 6429   6.413   0.349   9.320  0.6312 -0.5126 -0.4923
   54CHL1  H18A 6430   6.470   0.405   9.244 -0.7948 -2.1354 -2.9134
   54CHL1  H18B 6431   6.312   0.324   9.278 -0.6896  1.5982  1.2337
   54CHL1  H18C 6432   6.372   0.410   9.403  1.3175 -0.7505  0.0248
   54CHL1   C12 6433   6.393   0.118   9.451 -0.5299  0.5501 -0.1530
   54CHL1  H12A 6434   6.302   0.091   9.395  0.0941 -0.4213 -0.7272
   54CHL1  H12B 6435   6.451   0.023   9.460  0.0935  0.8275 -1.1045
   54CHL1   C11 6436   6.357   0.166   9.587  0.2304 -0.2526  0.1720
   54CHL1  H11A 6437   6.296   0.255   9.559 -0.6129 -0.7221  0.4664
   54CHL1  H11B 6438   6.306   0.090   9.650  1.8512 -1.8037 -0.3288
   54CHL1    C9 6439   6.479   0.220   9.664 -1.0958  0.4621 -0.0947
   54CHL1    H9 6440   6.544   0.132   9.681  0.1384  1.3087 -0.2646
   54CHL1   C10 6441   6.443   0.280   9.810 -0.7821 -0.5529  0.1186
   54CHL1   C19 6442   6.325   0.377   9.791  0.3071 -0.3926  0.1102
   54CHL1  H19A 6443   6.307   0.429   9.887  1.5212 -1.7095  1.0990
   54CHL1  H19B 6444   6.343   0.440   9.701  0.9103  0.7030  0.9749
   54CHL1  H19C 6445   6.233   0.316   9.776  1.2757 -2.5880  2.3920
   54CHL1    C1 6446   6.409   0.159   9.908 -1.0267 -0.3266 -0.0071
   54CHL1   H1A 6447   6.329   0.099   9.859  0.6840  0.1082 -3.6536
   54CHL1   H1B 6448   6.497   0.094   9.890 -0.7874  0.2048 -0.7944
   54CHL1    C2 6449   6.379   0.197  10.049 -0.0343 -0.0569 -0.3022
   54CHL1   H2A 6450   6.365   0.106  10.111 -1.6658  1.2531  1.3425
   54CHL1   H2B 6451   6.287   0.258  10.052  0.3368  0.5580 -1.0541
   54CHL1   C20 6452   6.486   0.135   9.116  0.2653  0.6392 -0.4540
   54CHL1   H20 6453   6.433   0.228   9.087  0.8255  2.2299  3.1394
   54CHL1   C21 6454   6.378   0.019   9.130 -0.1690  0.3053  0.3607
   54CHL1  H21A 6455   6.366  -0.032   9.032  0.8275  0.4176  0.1778
   54CHL1  H21B 6456   6.281   0.055   9.170 -1.0640 -2.0630  0.4688
   54CHL1  H21C 6457   6.421  -0.066   9.188  0.6289  0.8553  0.5955
   54CHL1   C22 6458   6.590   0.105   8.998  0.6055 -0.5568 -0.1943
   54CHL1  H22A 6459   6.690   0.150   9.010  0.4756 -0.5391  0.9200
   54CHL1  H22B 6460   6.614  -0.004   8.994  0.9773 -0.5763  1.7373
   54CHL1   C23 6461   6.523   0.157   8.869 -0.4412 -1.0290 -0.2171
   54CHL1  H23A 6462   6.413   0.139   8.874 -0.7806  0.6464 -1.0143
   54CHL1  H23B 6463   6.536   0.267   8.872  0.1587 -1.1171  1.3368
   54CHL1   C24 6464   6.595   0.089   8.744  0.1159 -0.0366 -0.1826
   54CHL1  H24A 6465   6.699   0.128   8.750 -0.5093  1.5574  0.7458
   54CHL1  H24B 6466   6.602  -0.021   8.760 -0.0261 -0.0817 -0.4199
   54CHL1   C25 6467   6.532   0.133   8.614  0.5763  0.2096  0.4656
   54CHL1   H25 6468   6.565   0.239   8.601 -0.7471  0.8687  2.1344
   54CHL1   C26 6469   6.582   0.051   8.501  0.1451  0.6083  0.8085
   54CHL1  H26A 6470   6.547  -0.054   8.503  0.0443  0.6489  1.9074
   54CHL1  H26B 6471   6.540   0.096   8.409 -0.9248 -1.8118  0.0262
   54CHL1  H26C 6472   6.693   0.055   8.496  0.2740 -1.4676  1.1538
   54CHL1   C27 6473   6.377   0.149   8.618  0.0350  0.9370 -0.0620
   54CHL1  H27A 6474   6.337   0.055   8.662  1.0372  1.0660  1.1991
   54CHL1  H27B 6475   6.335   0.221   8.691 -0.9173 -1.0683  1.4499
   54CHL1  H27C 6476   6.324   0.154   8.520  1.0898 -0.2408 -0.7240
   55CHL1    C3 6477   0.761   6.028  10.161 -0.1027 -0.1109  0.5625
   55CHL1    H3 6478   0.870   6.037  10.140 -0.2739 -1.0751 -0.8553
   55CHL1    O3 6479   0.730   6.059  10.289  0.5599  0.1435 -0.3512
   55CHL1   H3' 6480   0.803   6.103  10.333 -0.2971  1.3030 -0.0297
   55CHL1    C4 6481   0.685   6.122  10.067 -0.0199  1.0500  0.0437
   55CHL1   H4A 6482   0.575   6.121  10.082 -0.4491  2.3486 -2.4941
   55CHL1   H4B 6483   0.692   6.229  10.097 -1.8045  1.2372 -0.0988
   55CHL1    C5 6484   0.710   6.100   9.926  0.2599  0.4384  0.2577
   55CHL1    C6 6485   0.761   6.184   9.842  0.4361  0.3784  0.3719
   55CHL1    H6 6486   0.793   6.281   9.882 -2.4110  0.6268  2.3426
   55CHL1    C7 6487   0.786   6.163   9.696  0.1380  0.3084 -0.8659
   55CHL1   H7A 6488   0.759   6.248   9.630  0.0282 -0.8581 -2.3690
   55CHL1   H7B 6489   0.890   6.130   9.676 -0.1980 -1.5161  0.1056
   55CHL1    C8 6490   0.697   6.046   9.651 -0.0704 -0.2674  0.9043
   55CHL1    H8 6491   0.592   6.083   9.642  0.3553  1.4365  2.3306
   55CHL1   C14 6492   0.740   5.999   9.509 -0.1307  0.7972  0.3287
   55CHL1   H14 6493   0.847   5.970   9.524  0.1592  1.2942 -0.6996
   55CHL1   C15 6494   0.743   6.103   9.387 -0.5468 -0.0609 -0.1826
   55CHL1  H15A 6495   0.647   6.159   9.389 -0.7196 -0.0880 -2.8888
   55CHL1  H15B 6496   0.821   6.182   9.391 -0.2545 -0.1110 -2.8952
   55CHL1   C16 6497   0.744   6.011   9.263 -0.0732 -0.7520 -0.0528
   55CHL1  H16A 6498   0.647   6.029   9.212 -0.8420  0.5176  1.7344
   55CHL1  H16B 6499   0.827   6.031   9.192 -1.0189  3.2796 -0.2980
   55CHL1   C17 6500   0.741   5.860   9.315 -0.1877 -0.1786 -0.5242
   55CHL1   H17 6501   0.849   5.842   9.333 -0.6338 -0.1512  2.7961
   55CHL1   C13 6502   0.678   5.873   9.454 -0.8610  0.0126  0.3864
   55CHL1   C18 6503   0.529   5.894   9.436  0.2967  0.0185 -0.0772
   55CHL1  H18A 6504   0.473   5.804   9.403 -2.2104  0.8066  1.7273
   55CHL1  H18B 6505   0.481   5.931   9.529 -1.9779  1.6092 -1.7908
   55CHL1  H18C 6506   0.512   5.970   9.356 -0.0207  0.8658  0.7807
   55CHL1   C12 6507   0.706   5.753   9.547  0.1093  0.4874 -0.0232
   55CHL1  H12A 6508   0.658   5.657   9.518 -0.3073  0.0431  1.9800
   55CHL1  H12B 6509   0.815   5.732   9.549  0.3528  1.4586 -1.3919
   55CHL1   C11 6510   0.653   5.783   9.689  0.5226  0.3282  0.5995
   55CHL1  H11A 6511   0.544   5.768   9.701  0.4785  0.8936  0.9433
   55CHL1  H11B 6512   0.714   5.707   9.742 -1.2637 -3.7890 -2.7038
   55CHL1    C9 6513   0.704   5.919   9.738  0.3761 -0.6521  0.5038
   55CHL1    H9 6514   0.815   5.917   9.745  0.3719 -2.3256  0.3216
   55CHL1   C10 6515   0.666   5.956   9.883  0.9659 -0.3300  0.5687
   55CHL1   C19 6516   0.510   5.950   9.900  0.2438 -0.4184 -0.8700
   55CHL1  H19A 6517   0.464   5.855   9.864  0.1184 -0.7044  0.0130
   55CHL1  H19B 6518   0.470   5.977  10.000 -1.2078 -0.6139 -1.3751
   55CHL1  H19C 6519   0.475   6.038   9.843  0.2234 -0.7621 -1.3950
   55CHL1    C1 6520   0.729   5.855   9.976 -0.7359 -0.4831 -0.1575
   55CHL1   H1A 6521   0.691   5.752   9.956 -0.0592 -1.0386  1.3132
   55CHL1   H1B 6522   0.840   5.853   9.968 -0.8767 -0.5642 -3.8802
   55CHL1    C2 6523   0.708   5.884  10.127  0.5375  0.0843  0.2950
   55CHL1   H2A 6524   0.767   5.808  10.183  0.7320 -0.7838 -1.0465
   55CHL1   H2B 6525   0.600   5.870  10.149  0.5052 -2.2410 -0.9765
   55CHL1   C20 6526   0.682   5.760   9.212 -0.6468 -0.3514 -0.0133
   55CHL1   H20 6527   0.578   5.725   9.231 -0.6863 -0.7632 -0.9356
   55CHL1   C21 6528   0.774   5.641   9.232 -0.0444 -0.0239 -0.3229
   55CHL1  H21A 6529   0.720   5.561   9.177  0.5375 -1.7103  1.4443
   55CHL1  H21B 6530   0.785   5.593   9.331 -1.4928 -1.8680 -0.9776
   55CHL1  H21C 6531   0.875   5.662   9.189  0.2347 -0.0035  0.3424
   55CHL1   C22 6532   0.686   5.804   9.065  0.4966 -0.5230 -0.0444
   55CHL1  H22A 6533   0.636   5.899   9.038  0.2310 -0.5651  0.2915
   55CHL1  H22B 6534   0.792   5.828   9.040  0.2437  1.9404  0.9886
   55CHL1   C23 6535   0.640   5.696   8.962 -0.8032 -0.5425  0.0534
   55CHL1  H23A 6536   0.713   5.613   8.946 -0.7048 -0.0706 -2.2508
   55CHL1  H23B 6537   0.539   5.659   8.992 -1.1876  2.6475  3.3553
   55CHL1   C24 6538   0.619   5.771   8.829  0.1354 -0.0142  0.2245
   55CHL1  H24A 6539   0.531   5.837   8.845  0.8154  1.6215 -2.2237
   55CHL1  H24B 6540   0.707   5.838   8.815  0.0794 -0.2559 -1.4230
   55CHL1   C25 6541   0.576   5.683   8.711 -0.4445  1.0133  0.2987
   55CHL1   H25 6542   0.537   5.737   8.622 -0.5016 -0.2883 -0.5049
   55CHL1   C26 6543   0.690   5.594   8.660 -0.0878  0.1151 -0.4233
   55CHL1  H26A 6544   0.775   5.654   8.621 -1.2961  1.8142 -0.5588
   55CHL1  H26B 6545   0.718   5.512   8.731 -0.0554  1.1261  0.7715
   55CHL1  H26C 6546   0.660   5.541   8.567 -0.2938  1.6016 -1.2375
   55CHL1   C27 6547   0.464   5.587   8.751 -0.6431  0.7025 -0.7352
   55CHL1  H27A 6548   0.385   5.646   8.802 -0.2379  0.1647  0.5432
   55CHL1  H27B 6549   0.422   5.536   8.662  0.7466 -0.2177 -0.8992
   55CHL1  H27C 6550   0.499   5.510   8.823 -0.9579 -1.0587 -2.3842
   56CHL1    C3 6551   5.645   4.984  10.051  0.0103 -0.4042 -0.5604
   56CHL1    H3 6552   5.724   5.061  10.041  0.6924 -1.2527 -1.9575
   56CHL1    O3 6553   5.573   4.995  10.175  0.2347  0.1979  0.8161
   56CHL1   H3' 6554   5.531   5.081  10.167 -1.4115 -0.6871 -0.8649
   56CHL1    C4 6555   5.541   5.019   9.940  0.8324 -0.0324  0.0079
   56CHL1   H4A 6556   5.442   4.973   9.959  0.7286 -0.5761 -1.6704
   56CHL1   H4B 6557   5.524   5.129   9.944  0.5404 -0.0365 -0.9313
   56CHL1    C5 6558   5.576   4.982   9.801 -0.0681 -0.0896 -0.0988
   56CHL1    C6 6559   5.553   5.075   9.700 -0.0874  0.3196  0.2510
   56CHL1    H6 6560   5.519   5.178   9.719  0.9427  1.1217 -1.9666
   56CHL1    C7 6561   5.577   5.035   9.555  0.3344 -0.5227 -0.5325
   56CHL1   H7A 6562   5.490   5.070   9.495 -0.3440  0.5298  0.9961
   56CHL1   H7B 6563   5.663   5.092   9.512  1.4928 -1.1079  0.9169
   56CHL1    C8 6564   5.603   4.884   9.538 -0.0118  0.3776 -0.3290
   56CHL1    H8 6565   5.502   4.838   9.541  1.5288 -3.5462  3.4271
   56CHL1   C14 6566   5.653   4.864   9.396  0.2444  0.3415  0.0204
   56CHL1   H14 6567   5.756   4.904   9.403  0.9195 -1.4315  0.8687
   56CHL1   C15 6568   5.595   4.946   9.284  0.4407 -0.5433 -0.6607
   56CHL1  H15A 6569   5.487   4.959   9.306  1.3388  0.0707  4.6080
   56CHL1  H15B 6570   5.632   5.047   9.255 -2.6101  1.0161  0.3791
   56CHL1   C16 6571   5.623   4.864   9.153  0.2858 -0.4529  0.7615
   56CHL1  H16A 6572   5.533   4.815   9.111  1.2040 -0.9899 -0.6825
   56CHL1  H16B 6573   5.681   4.916   9.074  0.5541 -0.5587  0.8880
   56CHL1   C17 6574   5.723   4.749   9.205  0.1694  0.3744 -0.0965
   56CHL1   H17 6575   5.819   4.804   9.202  1.1685 -1.1849  1.1713
   56CHL1   C13 6576   5.672   4.723   9.353 -0.0591  0.1207 -0.2891
   56CHL1   C18 6577   5.532   4.649   9.339 -0.0533  0.0963  0.5521
   56CHL1  H18A 6578   5.470   4.638   9.431 -0.6891  0.2863  0.1561
   56CHL1  H18B 6579   5.467   4.696   9.262 -0.4680 -1.5317 -0.1142
   56CHL1  H18C 6580   5.556   4.544   9.313  2.5620  0.7914 -0.1034
   56CHL1   C12 6581   5.768   4.657   9.460 -0.1451 -0.0692 -0.1887
   56CHL1  H12A 6582   5.767   4.546   9.453  0.9789 -0.2248  1.4868
   56CHL1  H12B 6583   5.864   4.712   9.458 -0.3223  0.4743  2.5295
   56CHL1   C11 6584   5.717   4.673   9.603 -0.2113 -0.0322 -0.5966
   56CHL1  H11A 6585   5.622   4.618   9.623 -0.3214  0.3652 -0.0200
   56CHL1  H11B 6586   5.793   4.630   9.670  0.8817  1.1644 -1.0356
   56CHL1    C9 6587   5.688   4.818   9.645  0.3622  0.2574 -0.2616
   56CHL1    H9 6588   5.785   4.871   9.645  0.1606  0.6370 -0.3868
   56CHL1   C10 6589   5.631   4.840   9.786 -0.2383 -0.9726 -0.4376
   56CHL1   C19 6590   5.514   4.744   9.809  0.0258  0.1714  0.1824
   56CHL1  H19A 6591   5.444   4.747   9.722 -2.4961  1.0121  2.1167
   56CHL1  H19B 6592   5.554   4.641   9.825 -0.3340  0.1413  0.9486
   56CHL1  H19C 6593   5.447   4.763   9.896 -1.7727 -0.3155 -1.0302
   56CHL1    C1 6594   5.747   4.815   9.889 -0.4796 -0.4533  0.1042
   56CHL1   H1A 6595   5.785   4.712   9.870  0.7215 -0.2816  1.3701
   56CHL1   H1B 6596   5.834   4.878   9.861  1.0019 -2.6557 -0.5094
   56CHL1    C2 6597   5.702   4.842  10.034 -0.2856 -0.3268  0.2711
   56CHL1   H2A 6598   5.783   4.832  10.110 -1.6984  0.4070  1.9242
   56CHL1   H2B 6599   5.628   4.771  10.077 -0.9315  0.5898  0.6933
   56CHL1   C20 6600   5.742   4.633   9.113 -0.6219 -0.1913 -0.0319
   56CHL1   H20 6601   5.670   4.551   9.132 -0.5254 -0.6947 -1.6805
   56CHL1   C21 6602   5.880   4.565   9.137  0.2371  0.0932 -0.4012
   56CHL1  H21A 6603   5.963   4.630   9.102  0.2719  1.2997  1.7599
   56CHL1  H21B 6604   5.884   4.479   9.067  0.6002  0.3445 -0.6945
   56CHL1  H21C 6605   5.896   4.535   9.242  0.1823 -0.2363 -0.4875
   56CHL1   C22 6606   5.726   4.678   8.966  0.1443  0.7105  0.1036
   56CHL1  H22A 6607   5.625   4.722   8.950 -0.1613  0.2337  0.6905
   56CHL1  H22B 6608   5.798   4.760   8.942  2.5315 -1.4008 -0.4191
   56CHL1   C23 6609   5.739   4.564   8.857 -0.3133 -0.1500 -0.9704
   56CHL1  H23A 6610   5.844   4.529   8.856  0.1217  0.9292  0.9480
   56CHL1  H23B 6611   5.666   4.482   8.872 -1.5419  0.4741 -3.0919
   56CHL1   C24 6612   5.712   4.608   8.713 -0.3450  0.3981  0.1744
   56CHL1  H24A 6613   5.618   4.667   8.710 -1.8959 -1.4095  4.6243
   56CHL1  H24B 6614   5.795   4.681   8.697 -0.6574  1.6231  3.4090
   56CHL1   C25 6615   5.709   4.506   8.601 -0.1876 -0.0603 -0.1155
   56CHL1   H25 6616   5.783   4.425   8.619  0.0719  0.1409 -0.2589
   56CHL1   C26 6617   5.575   4.437   8.583 -0.3306 -0.3264  0.0041
   56CHL1  H26A 6618   5.492   4.510   8.566  1.4286  1.8008  0.1419
   56CHL1  H26B 6619   5.561   4.378   8.490 -2.1809  0.6008 -0.3725
   56CHL1  H26C 6620   5.555   4.367   8.667 -0.1356 -1.2010 -0.6645
   56CHL1   C27 6621   5.750   4.561   8.470 -0.2508  0.0930  0.6547
   56CHL1  H27A 6622   5.662   4.603   8.416 -1.3766  0.0881  2.4263
   56CHL1  H27B 6623   5.830   4.636   8.483  0.1842 -0.4335  1.0596
   56CHL1  H27C 6624   5.793   4.481   8.405 -1.8813 -1.1369  1.0230
   57CHL1    C3 6625   1.072   6.534  10.020  0.2363 -0.7564 -0.3502
   57CHL1    H3 6626   1.180   6.505  10.021  0.1545 -1.0810  0.8750
   57CHL1    O3 6627   1.014   6.519  10.149  0.2082  0.5487 -0.3295
   57CHL1   H3' 6628   1.076   6.543  10.219 -0.2426  0.1037  0.2282
   57CHL1    C4 6629   1.050   6.679   9.965  0.0104  0.3925  0.2027
   57CHL1   H4A 6630   0.941   6.700   9.962 -0.2238 -0.8515 -0.6188
   57CHL1   H4B 6631   1.085   6.751  10.042  0.2579 -1.0390  1.4673
   57CHL1    C5 6632   1.110   6.706   9.827 -0.2222  0.0817  0.2380
   57CHL1    C6 6633   1.206   6.796   9.799  0.6189  0.6303 -0.5353
   57CHL1    H6 6634   1.247   6.858   9.880  1.6842 -0.8200  0.0962
   57CHL1    C7 6635   1.272   6.803   9.662  0.0752  0.4400 -1.6913
   57CHL1   H7A 6636   1.290   6.910   9.641  2.4532  0.4048 -0.1770
   57CHL1   H7B 6637   1.373   6.757   9.673  0.2907  1.3210  0.7161
   57CHL1    C8 6638   1.183   6.744   9.554 -0.1671  0.1609  0.3998
   57CHL1    H8 6639   1.099   6.816   9.546  0.9751  1.4269 -0.7177
   57CHL1   C14 6640   1.262   6.731   9.423 -0.3092 -0.5703  0.4688
   57CHL1   H14 6641   1.332   6.646   9.438 -0.6753 -0.7762  1.0475
   57CHL1   C15 6642   1.337   6.853   9.373 -0.3570  0.2050  0.5387
   57CHL1  H15A 6643   1.272   6.942   9.388 -0.7292  0.2509 -1.1789
   57CHL1  H15B 6644   1.439   6.865   9.416  0.8967  0.4436 -2.3170
   57CHL1   C16 6645   1.357   6.822   9.223 -0.3393  0.6743  0.2627
   57CHL1  H16A 6646   1.320   6.914   9.173 -0.6726  0.0399 -0.6754
   57CHL1  H16B 6647   1.465   6.801   9.208  0.1019  0.7129  2.8656
   57CHL1   C17 6648   1.278   6.690   9.196  0.3893  0.1973  0.2638
   57CHL1   H17 6649   1.353   6.610   9.217  0.3952  0.4654  1.3607
   57CHL1   C13 6650   1.175   6.676   9.300 -0.3429 -0.7034  0.0357
   57CHL1   C18 6651   1.060   6.772   9.275 -0.1264 -0.1892  0.2472
   57CHL1  H18A 6652   1.084   6.879   9.254 -2.7650 -0.0401 -2.8430
   57CHL1  H18B 6653   1.001   6.743   9.185 -2.1183 -1.8371  1.9902
   57CHL1  H18C 6654   0.982   6.775   9.354 -0.8386 -1.3061 -0.3951
   57CHL1   C12 6655   1.129   6.537   9.335 -0.1257  0.1400 -0.2807
   57CHL1  H12A 6656   1.054   6.498   9.262 -2.6876  0.2763  2.1349
   57CHL1  H12B 6657   1.216   6.468   9.341 -1.7347 -1.9661 -0.0792
   57CHL1   C11 6658   1.054   6.543   9.467 -0.8940  0.2072 -0.1123
   57CHL1  H11A 6659   0.963   6.604   9.447  0.5607  1.8006 -2.2831
   57CHL1  H11B 6660   1.026   6.443   9.507  3.0970 -0.8449  0.4708
   57CHL1    C9 6661   1.131   6.604   9.593  0.1386  0.0618 -0.5375
   57CHL1    H9 6662   1.227   6.551   9.615 -0.8630 -1.6563 -0.0861
   57CHL1   C10 6663   1.055   6.604   9.728  0.6244 -0.5540 -0.0021
   57CHL1   C19 6664   0.908   6.649   9.694 -0.0693  0.2804  0.0417
   57CHL1  H19A 6665   0.909   6.734   9.623 -2.5615 -0.4390 -0.9913
   57CHL1  H19B 6666   0.859   6.563   9.641  0.3593  1.2197 -1.9710
   57CHL1  H19C 6667   0.850   6.672   9.786 -1.1241 -0.4287 -0.4184
   57CHL1    C1 6668   1.058   6.460   9.790  0.9140  0.3369  0.6289
   57CHL1   H1A 6669   1.010   6.393   9.715  3.2550 -3.3980  2.2013
   57CHL1   H1B 6670   1.166   6.434   9.785  1.2224  1.6614 -0.2685
   57CHL1    C2 6671   0.995   6.448   9.926  0.2133 -0.4617  0.1087
   57CHL1   H2A 6672   0.995   6.340   9.950  1.2458 -0.6221 -0.5166
   57CHL1   H2B 6673   0.894   6.492   9.938  0.7698  0.8973  0.0517
   57CHL1   C20 6674   1.227   6.692   9.049  0.0991 -0.1390 -0.2487
   57CHL1   H20 6675   1.182   6.792   9.032  2.1395  0.4816 -2.7013
   57CHL1   C21 6676   1.130   6.574   9.003  0.5377 -0.2070 -0.0267
   57CHL1  H21A 6677   1.183   6.476   9.005 -1.6775 -1.5013 -1.1310
   57CHL1  H21B 6678   1.086   6.593   8.903 -0.8325 -3.2960 -0.1442
   57CHL1  H21C 6679   1.045   6.561   9.074  1.3532  0.6243  1.1341
   57CHL1   C22 6680   1.346   6.703   8.942 -0.3826  0.2564  0.9240
   57CHL1  H22A 6681   1.411   6.790   8.965 -0.5635 -0.0619  2.7658
   57CHL1  H22B 6682   1.419   6.620   8.954  0.6443  1.0905  0.6189
   57CHL1   C23 6683   1.305   6.705   8.793 -0.1518 -0.6565 -0.2504
   57CHL1  H23A 6684   1.265   6.608   8.757 -0.2308 -0.5626 -0.4153
   57CHL1  H23B 6685   1.241   6.793   8.777  0.6666 -0.0234 -0.1357
   57CHL1   C24 6686   1.415   6.738   8.698 -0.8452 -0.2519  0.3190
   57CHL1  H24A 6687   1.467   6.828   8.736 -1.3909  1.1870 -2.1673
   57CHL1  H24B 6688   1.495   6.660   8.696  0.9306  1.5132  0.1690
   57CHL1   C25 6689   1.369   6.770   8.557  0.3578  0.1525  0.7250
   57CHL1   H25 6690   1.279   6.835   8.559  0.1475 -0.1242  0.4693
   57CHL1   C26 6691   1.484   6.829   8.474 -0.2165  0.5960 -0.4896
   57CHL1  H26A 6692   1.553   6.752   8.433  1.8611  2.5942 -0.9413
   57CHL1  H26B 6693   1.447   6.887   8.387  0.3878 -0.1126 -1.2342
   57CHL1  H26C 6694   1.542   6.907   8.528  2.0671 -1.0846 -0.3445
   57CHL1   C27 6695   1.334   6.642   8.480  0.3785 -0.6830 -0.2322
   57CHL1  H27A 6696   1.422   6.575   8.486  0.1062 -1.7157 -4.2152
   57CHL1  H27B 6697   1.250   6.595   8.536  1.5211 -0.8035  1.4287
   57CHL1  H27C 6698   1.303   6.655   8.374 -2.0096 -0.0759  0.4783
   58CHL1    C3 6699   3.535   5.023  10.217  0.0332 -0.1972 -0.6391
   58CHL1    H3 6700   3.641   4.989  10.217 -0.1725 -0.8527 -0.7495
   58CHL1    O3 6701   3.487   4.954  10.334 -0.0740 -0.0758  0.4710
   58CHL1   H3' 6702   3.474   4.862  10.311  3.1176 -0.5955  0.3200
   58CHL1    C4 6703   3.526   5.175  10.234 -0.1158  0.3994  1.4554
   58CHL1   H4A 6704   3.427   5.214  10.266 -0.3273  0.1213  1.1457
   58CHL1   H4B 6705   3.584   5.196  10.327 -0.8731 -0.7380  2.2204
   58CHL1    C5 6706   3.590   5.241  10.111 -0.5043 -0.4960  0.3774
   58CHL1    C6 6707   3.693   5.329  10.119 -0.7454 -0.3143 -1.2409
   58CHL1    H6 6708   3.737   5.349  10.218  1.2333 -2.7280 -1.5133
   58CHL1    C7 6709   3.752   5.408  10.002  0.0981 -0.0280  1.3338
   58CHL1   H7A 6710   3.750   5.518  10.016  0.4371 -0.0283  1.3822
   58CHL1   H7B 6711   3.855   5.379   9.976 -0.4425 -0.2885 -0.6773
   58CHL1    C8 6712   3.667   5.394   9.870  0.2452 -0.5822  0.4126
   58CHL1    H8 6713   3.576   5.457   9.874  0.3008 -0.5614  1.3623
   58CHL1   C14 6714   3.749   5.440   9.746  0.0844  0.0875  0.3370
   58CHL1   H14 6715   3.840   5.376   9.738 -0.1483 -0.0633 -1.5366
   58CHL1   C15 6716   3.801   5.585   9.728  0.1168 -0.2341  0.0605
   58CHL1  H15A 6717   3.725   5.663   9.753  0.5367  0.7937 -1.7342
   58CHL1  H15B 6718   3.881   5.600   9.804  1.1664 -3.7154 -0.1937
   58CHL1   C16 6719   3.843   5.596   9.583 -0.0348 -0.1000 -0.5894
   58CHL1  H16A 6720   3.795   5.690   9.550  0.4842  0.0222 -1.0177
   58CHL1  H16B 6721   3.953   5.604   9.572  0.0341  0.9237  0.6358
   58CHL1   C17 6722   3.780   5.475   9.513  0.0485 -0.4012 -0.4822
   58CHL1   H17 6723   3.859   5.398   9.501  1.7437  0.9996  1.2488
   58CHL1   C13 6724   3.681   5.419   9.616 -0.4841  0.3218 -0.0668
   58CHL1   C18 6725   3.555   5.510   9.604  0.0737  0.0919 -1.6785
   58CHL1  H18A 6726   3.574   5.616   9.631 -0.0852  0.0009 -1.2059
   58CHL1  H18B 6727   3.515   5.494   9.502 -1.0743 -1.9023 -0.9760
   58CHL1  H18C 6728   3.471   5.481   9.670  1.6468 -0.5324  0.1653
   58CHL1   C12 6729   3.641   5.269   9.600 -0.8697  0.3462  0.3742
   58CHL1  H12A 6730   3.581   5.254   9.507  1.1100 -1.8273 -0.6578
   58CHL1  H12B 6731   3.729   5.203   9.580 -1.3385  0.0257 -0.7405
   58CHL1   C11 6732   3.567   5.212   9.716  0.2951 -0.8989  0.0646
   58CHL1  H11A 6733   3.462   5.248   9.715  0.1581 -1.0918  2.1301
   58CHL1  H11B 6734   3.562   5.102   9.700 -0.4739 -0.9413  0.5617
   58CHL1    C9 6735   3.630   5.248   9.851  0.1171 -0.1856 -0.8343
   58CHL1    H9 6736   3.730   5.198   9.855  1.3559  2.1119 -1.0848
   58CHL1   C10 6737   3.538   5.203   9.970  0.4265  0.2533 -0.2522
   58CHL1   C19 6738   3.396   5.270   9.954 -0.0905  0.0054 -0.1830
   58CHL1  H19A 6739   3.410   5.380   9.960  1.0912 -0.1614  0.4099
   58CHL1  H19B 6740   3.344   5.242   9.860 -0.5980 -0.6448  0.2806
   58CHL1  H19C 6741   3.324   5.239  10.033 -0.3751 -0.5821 -0.6683
   58CHL1    C1 6742   3.526   5.039   9.970 -0.4508  0.1397  0.9984
   58CHL1   H1A 6743   3.474   5.006   9.878 -1.1676  1.6779  0.8160
   58CHL1   H1B 6744   3.630   5.002   9.956 -0.0236  1.6567 -0.1280
   58CHL1    C2 6745   3.467   4.977  10.091 -0.8163 -0.1729  0.2154
   58CHL1   H2A 6746   3.472   4.867  10.073  0.6962  0.1995 -2.1189
   58CHL1   H2B 6747   3.357   4.993  10.091 -0.5681  1.7480 -0.3822
   58CHL1   C20 6748   3.729   5.497   9.362 -0.3930  0.2839 -0.6358
   58CHL1   H20 6749   3.647   5.424   9.352  0.3208 -1.1723  2.8664
   58CHL1   C21 6750   3.839   5.463   9.260 -0.2434  0.1718  0.3181
   58CHL1  H21A 6751   3.928   5.530   9.266 -0.7231  0.7290  1.3652
   58CHL1  H21B 6752   3.788   5.460   9.161 -0.9388 -2.5314  0.6747
   58CHL1  H21C 6753   3.872   5.357   9.264 -2.2567 -0.5252 -0.2322
   58CHL1   C22 6754   3.684   5.632   9.319 -0.5339  0.0129 -0.5781
   58CHL1  H22A 6755   3.611   5.655   9.399 -1.4639  0.8586 -1.6390
   58CHL1  H22B 6756   3.764   5.709   9.328 -1.1736  0.6610 -0.3173
   58CHL1   C23 6757   3.614   5.652   9.185  0.4492  0.0811  0.5824
   58CHL1  H23A 6758   3.668   5.592   9.108 -0.3674  0.8445 -0.6284
   58CHL1  H23B 6759   3.516   5.599   9.192 -1.3352  2.5039 -2.9825
   58CHL1   C24 6760   3.601   5.798   9.125 -0.1997  0.4147  0.4131
   58CHL1  H24A 6761   3.525   5.851   9.186 -0.8958  0.5573 -0.5473
   58CHL1  H24B 6762   3.700   5.848   9.135  1.3764 -1.9141 -2.2701
   58CHL1   C25 6763   3.551   5.801   8.982  0.0118 -0.4964 -0.4909
   58CHL1   H25 6764   3.616   5.732   8.924  1.4817 -0.3642  0.9478
   58CHL1   C26 6765   3.408   5.756   8.963  0.2189  0.1285  0.3177
   58CHL1  H26A 6766   3.397   5.789   8.858  1.6170 -0.6879 -0.0986
   58CHL1  H26B 6767   3.408   5.645   8.966  1.2133  0.1038 -0.4269
   58CHL1  H26C 6768   3.342   5.804   9.039  0.5918  0.2288  0.5791
   58CHL1   C27 6769   3.582   5.944   8.922  0.0600 -0.1205 -0.0152
   58CHL1  H27A 6770   3.686   5.955   8.884  0.6820 -2.2255  0.9489
   58CHL1  H27B 6771   3.519   5.950   8.830 -2.5407  0.1724  1.6609
   58CHL1  H27C 6772   3.544   6.022   8.993  1.5480 -0.0539  0.7467
   59CHL1    C3 6773   6.378   5.540  10.285  0.8256  0.3222 -0.0646
   59CHL1    H3 6774   6.276   5.549  10.240  0.3449  0.5412  1.0451
   59CHL1    O3 6775   6.376   5.567  10.422  0.7889 -0.4672 -0.6792
   59CHL1   H3' 6776   6.387   5.662  10.436  0.6763 -0.5700  0.1138
   59CHL1    C4 6777   6.432   5.398  10.263  0.1781 -0.0137 -0.0674
   59CHL1   H4A 6778   6.534   5.398  10.308  1.3786  0.1773 -2.5993
   59CHL1   H4B 6779   6.362   5.323  10.308  1.2097 -1.3758 -0.6489
   59CHL1    C5 6780   6.443   5.360  10.114 -0.1174 -0.6141 -0.7326
   59CHL1    C6 6781   6.378   5.252  10.064 -0.6766  0.3067  0.4924
   59CHL1    H6 6782   6.320   5.197  10.139 -0.1074 -0.9204  0.0511
   59CHL1    C7 6783   6.376   5.219   9.918  0.3397 -0.2666  0.2302
   59CHL1   H7A 6784   6.393   5.113   9.890 -2.3443  0.3247 -4.7359
   59CHL1   H7B 6785   6.278   5.226   9.867  1.0624 -3.5761 -1.9063
   59CHL1    C8 6786   6.481   5.292   9.830  0.1337 -0.3863  0.8076
   59CHL1    H8 6787   6.577   5.244   9.858  0.0668 -0.2240  1.3251
   59CHL1   C14 6788   6.449   5.292   9.685  0.7738  0.2908 -0.3309
   59CHL1   H14 6789   6.355   5.348   9.664 -0.4846 -1.8125 -0.5762
   59CHL1   C15 6790   6.421   5.152   9.623 -0.4059  0.4029 -0.6231
   59CHL1  H15A 6791   6.498   5.081   9.657 -0.8728 -0.1052 -0.6056
   59CHL1  H15B 6792   6.322   5.116   9.659  0.2127 -0.0663  0.6606
   59CHL1   C16 6793   6.431   5.169   9.475  0.5205  1.0652 -0.4689
   59CHL1  H16A 6794   6.520   5.111   9.443  3.2092  3.7759  1.6532
   59CHL1  H16B 6795   6.332   5.146   9.428 -0.0400 -1.5869  1.7511
   59CHL1   C17 6796   6.471   5.313   9.457 -0.3782 -0.1227  0.0653
   59CHL1   H17 6797   6.369   5.359   9.452 -0.7436 -0.9770 -0.5295
   59CHL1   C13 6798   6.544   5.359   9.589 -0.2562 -0.3286 -0.0312
   59CHL1   C18 6799   6.681   5.299   9.606 -0.1032  0.0539 -0.3975
   59CHL1  H18A 6800   6.689   5.221   9.684  1.8314  1.3797  0.8245
   59CHL1  H18B 6801   6.715   5.247   9.514  1.5090 -0.2573  0.3317
   59CHL1  H18C 6802   6.761   5.372   9.633  1.3048 -0.8395 -1.9797
   59CHL1   C12 6803   6.543   5.518   9.631  0.7486 -0.0323 -0.2580
   59CHL1  H12A 6804   6.613   5.570   9.562  1.0189 -1.3982 -1.0663
   59CHL1  H12B 6805   6.437   5.543   9.614  0.7350  1.0002  1.1754
   59CHL1   C11 6806   6.581   5.536   9.776  0.1498  0.0977  0.1860
   59CHL1  H11A 6807   6.691   5.522   9.782  0.4219  1.1252 -1.5920
   59CHL1  H11B 6808   6.556   5.638   9.813 -0.9937  0.1253 -0.6252
   59CHL1    C9 6809   6.494   5.444   9.874  0.3318 -0.4858 -0.9679
   59CHL1    H9 6810   6.390   5.481   9.861  0.4617 -0.1018 -0.9138
   59CHL1   C10 6811   6.521   5.465  10.025 -1.6449 -0.0719 -0.3349
   59CHL1   C19 6812   6.677   5.446  10.053 -0.3188 -0.6572 -0.6755
   59CHL1  H19A 6813   6.706   5.344  10.020  0.3743 -1.5630  2.3851
   59CHL1  H19B 6814   6.744   5.517  10.000  1.2263 -1.2533  0.4186
   59CHL1  H19C 6815   6.687   5.452  10.164 -3.5836 -1.5444 -0.2154
   59CHL1    C1 6816   6.478   5.609  10.065  0.0138  0.1296 -1.2888
   59CHL1   H1A 6817   6.539   5.682  10.007  0.7546 -2.0190 -3.3931
   59CHL1   H1B 6818   6.376   5.626  10.024  0.6421  1.8404 -2.2412
   59CHL1    C2 6819   6.464   5.641  10.215 -0.2459  0.6140  0.7045
   59CHL1   H2A 6820   6.424   5.744  10.219  1.9410  1.5125  0.8645
   59CHL1   H2B 6821   6.569   5.656  10.246  1.3681 -1.9219 -2.7595
   59CHL1   C20 6822   6.529   5.335   9.317  0.2670  0.6505  0.1863
   59CHL1   H20 6823   6.610   5.260   9.303  0.9573  0.6269  3.5449
   59CHL1   C21 6824   6.580   5.479   9.288  0.0513 -0.3192  0.7646
   59CHL1  H21A 6825   6.615   5.474   9.182  1.3901  1.3371  1.0761
   59CHL1  H21B 6826   6.665   5.507   9.354  1.1130  0.0417 -0.6778
   59CHL1  H21C 6827   6.502   5.557   9.301 -0.7389 -0.2954 -2.8756
   59CHL1   C22 6828   6.422   5.309   9.212  0.1538 -0.3715 -0.0171
   59CHL1  H22A 6829   6.345   5.236   9.243 -0.6261  0.5900  0.3772
   59CHL1  H22B 6830   6.363   5.404   9.207 -1.0866 -1.1456 -0.6842
   59CHL1   C23 6831   6.467   5.273   9.066  0.0098 -0.4464 -0.2209
   59CHL1  H23A 6832   6.517   5.361   9.021 -3.1950  1.5105 -0.3018
   59CHL1  H23B 6833   6.536   5.186   9.077  1.3715  0.7292  1.0714
   59CHL1   C24 6834   6.348   5.215   8.990 -0.2291 -0.1810  0.2498
   59CHL1  H24A 6835   6.308   5.119   9.030 -3.4941  0.8625 -0.2040
   59CHL1  H24B 6836   6.259   5.281   8.988 -0.4017 -0.2801  2.3836
   59CHL1   C25 6837   6.388   5.175   8.848 -0.2707  0.0279 -0.6804
   59CHL1   H25 6838   6.473   5.104   8.858  1.3295  2.0483  1.2058
   59CHL1   C26 6839   6.262   5.109   8.780 -0.4340 -0.6920  0.2368
   59CHL1  H26A 6840   6.173   5.173   8.797 -1.0257 -0.8778 -1.8497
   59CHL1  H26B 6841   6.272   5.091   8.671 -1.5991  1.1405 -0.2135
   59CHL1  H26C 6842   6.240   5.012   8.831 -0.4988 -0.9928 -0.3598
   59CHL1   C27 6843   6.428   5.289   8.755  0.2213 -0.4904 -0.0427
   59CHL1  H27A 6844   6.439   5.252   8.650 -0.1814 -1.2357  0.1663
   59CHL1  H27B 6845   6.339   5.356   8.754  0.5365 -0.0636  0.3973
   59CHL1  H27C 6846   6.521   5.344   8.779  1.5437 -3.1279  1.2272
   60CHL1    C3 6847   3.015   1.249  10.200  0.0485 -0.0061 -0.2055
   60CHL1    H3 6848   2.998   1.139  10.196  0.2801 -0.0087 -1.8340
   60CHL1    O3 6849   2.994   1.288  10.330 -0.6038  0.0720  0.2672
   60CHL1   H3' 6850   3.027   1.377  10.339 -3.0956  1.0289  0.7569
   60CHL1    C4 6851   3.160   1.283  10.168 -0.4443  0.4292 -0.4259
   60CHL1   H4A 6852   3.172   1.392  10.186 -0.5661  0.4579 -0.5159
   60CHL1   H4B 6853   3.223   1.235  10.246 -2.3939 -2.0884 -0.2464
   60CHL1    C5 6854   3.195   1.262  10.023 -0.1631 -0.2526  0.7295
   60CHL1    C6 6855   3.294   1.179   9.979  0.1043 -0.7265  0.0538
   60CHL1    H6 6856   3.364   1.128  10.047  2.1010  0.1793 -1.2169
   60CHL1    C7 6857   3.326   1.142   9.839 -0.4559 -0.0733  0.3545
   60CHL1   H7A 6858   3.433   1.124   9.815 -0.9834  0.0763 -2.5481
   60CHL1   H7B 6859   3.274   1.048   9.811  0.6533 -0.4172 -0.6180
   60CHL1    C8 6860   3.269   1.244   9.740  0.6258 -0.2539 -0.3272
   60CHL1    H8 6861   3.322   1.341   9.753  0.5914  0.0980 -2.4232
   60CHL1   C14 6862   3.289   1.200   9.594  0.0616 -0.0817 -0.2774
   60CHL1   H14 6863   3.236   1.102   9.589  1.0310 -0.6933  0.8673
   60CHL1   C15 6864   3.435   1.178   9.545 -0.3696 -0.7442 -0.0578
   60CHL1  H15A 6865   3.507   1.259   9.571  0.0470 -0.3888 -2.1937
   60CHL1  H15B 6866   3.482   1.088   9.588 -2.0748 -0.3479  2.9808
   60CHL1   C16 6867   3.423   1.185   9.390  0.3093  0.4857 -0.5493
   60CHL1  H16A 6868   3.489   1.265   9.351  0.9284 -1.1448 -3.0978
   60CHL1  H16B 6869   3.458   1.091   9.344  0.8831  1.9891 -3.3757
   60CHL1   C17 6870   3.277   1.219   9.361  0.1229  0.4186  0.4935
   60CHL1   H17 6871   3.223   1.121   9.362  1.0583 -0.1037  1.6780
   60CHL1   C13 6872   3.224   1.287   9.489 -0.5252  0.0150  0.0619
   60CHL1   C18 6873   3.266   1.428   9.505  0.0801  1.0006  0.2430
   60CHL1  H18A 6874   3.370   1.444   9.469  0.0683  0.5507  0.0127
   60CHL1  H18B 6875   3.203   1.477   9.428 -1.4806 -2.6677 -1.0074
   60CHL1  H18C 6876   3.263   1.480   9.604  0.7401  2.0689 -0.2793
   60CHL1   C12 6877   3.072   1.289   9.529  0.0746  0.1409  0.5161
   60CHL1  H12A 6878   3.033   1.363   9.456 -1.9337 -0.5373  0.8504
   60CHL1  H12B 6879   3.024   1.189   9.519  3.1046 -1.3260 -0.7078
   60CHL1   C11 6880   3.039   1.348   9.661  0.4153  0.4924 -0.0010
   60CHL1  H11A 6881   3.072   1.454   9.664  0.0106  0.6218  0.0207
   60CHL1  H11B 6882   2.930   1.356   9.684  0.2189  0.3857 -0.8600
   60CHL1    C9 6883   3.121   1.275   9.772 -0.3672  0.0093 -0.4784
   60CHL1    H9 6884   3.079   1.173   9.779 -0.4405  0.0659 -0.0885
   60CHL1   C10 6885   3.097   1.330   9.922  0.4483 -0.7207  0.2463
   60CHL1   C19 6886   3.112   1.480   9.923 -0.3936 -0.7225 -0.3086
   60CHL1  H19A 6887   3.116   1.524  10.025 -0.6820 -1.0619 -0.1485
   60CHL1  H19B 6888   3.208   1.509   9.875 -0.6949  0.8702 -0.0029
   60CHL1  H19C 6889   3.029   1.521   9.863  0.1822 -0.9551 -1.2790
   60CHL1    C1 6890   2.959   1.283   9.967  0.2391  0.7431  0.2420
   60CHL1   H1A 6891   2.893   1.340   9.898 -0.4798 -0.3532  0.0040
   60CHL1   H1B 6892   2.950   1.173   9.952  1.2099  0.6409  0.3497
   60CHL1    C2 6893   2.922   1.323  10.108 -0.1316  0.4816  0.0118
   60CHL1   H2A 6894   2.817   1.289  10.118 -0.7725  2.6014  1.3800
   60CHL1   H2B 6895   2.926   1.434  10.120  1.1012  0.5609 -1.0605
   60CHL1   C20 6896   3.245   1.264   9.212  0.1908  0.2025 -0.0277
   60CHL1   H20 6897   3.286   1.367   9.205  1.2366 -0.2451 -0.8127
   60CHL1   C21 6898   3.092   1.276   9.185  0.2913  0.5078  0.3593
   60CHL1  H21A 6899   3.061   1.375   9.223  2.2291  0.8488  1.1966
   60CHL1  H21B 6900   3.029   1.198   9.232 -3.5953  2.0635 -1.8357
   60CHL1  H21C 6901   3.072   1.281   9.076 -1.7558  2.7455  0.7734
   60CHL1   C22 6902   3.311   1.177   9.102  0.8885 -0.4185  0.0464
   60CHL1  H22A 6903   3.420   1.182   9.123  0.5280  1.1084  1.9032
   60CHL1  H22B 6904   3.275   1.076   9.132  0.1117 -0.5903 -1.4054
   60CHL1   C23 6905   3.286   1.201   8.952  0.6444  0.6114 -0.1932
   60CHL1  H23A 6906   3.333   1.121   8.890  1.3318 -1.1052  2.3596
   60CHL1  H23B 6907   3.180   1.199   8.921  0.6337  3.7426 -0.6941
   60CHL1   C24 6908   3.331   1.339   8.905 -0.4832 -0.1660 -0.3769
   60CHL1  H24A 6909   3.275   1.411   8.967 -0.1541 -0.5642  0.4017
   60CHL1  H24B 6910   3.440   1.350   8.923 -0.7026  2.1719 -0.2301
   60CHL1   C25 6911   3.311   1.384   8.761 -0.2571 -0.0452  0.0028
   60CHL1   H25 6912   3.371   1.314   8.698  1.9311  0.9807  0.8290
   60CHL1   C26 6913   3.166   1.375   8.718  0.7514 -0.2700 -0.0817
   60CHL1  H26A 6914   3.109   1.448   8.780  1.4630  0.8805 -0.7450
   60CHL1  H26B 6915   3.151   1.393   8.610 -0.0887 -0.7839 -0.0588
   60CHL1  H26C 6916   3.112   1.278   8.723 -0.4180  0.4208  1.6436
   60CHL1   C27 6917   3.363   1.521   8.729  0.5413 -0.0251  0.3598
   60CHL1  H27A 6918   3.472   1.529   8.749  0.9811 -0.6596 -1.6526
   60CHL1  H27B 6919   3.339   1.550   8.625 -0.9831  0.0079  0.6866
   60CHL1  H27C 6920   3.318   1.593   8.802  1.9498  2.7865 -1.3516
   61CHL1    C3 6921   6.670   1.599  10.484  0.3324 -0.7350  0.8220
   61CHL1    H3 6922   6.580   1.535  10.479 -1.1796  1.3197  0.2363
   61CHL1    O3 6923   6.684   1.643  10.612 -0.4266  0.0039 -0.2881
   61CHL1   H3' 6924   6.711   1.563  10.659 -2.9720 -0.8068 -0.0732
   61CHL1    C4 6925   6.796   1.531  10.424  0.7000 -0.0570 -0.4212
   61CHL1   H4A 6926   6.878   1.605  10.435 -1.3528  2.8688 -2.9482
   61CHL1   H4B 6927   6.824   1.447  10.491  0.7968  1.0682  0.9925
   61CHL1    C5 6928   6.783   1.501  10.273 -0.4232  0.0567 -0.0773
   61CHL1    C6 6929   6.812   1.384  10.216 -0.1749  0.3314 -0.5375
   61CHL1    H6 6930   6.833   1.302  10.288 -0.5980  1.8900  1.4415
   61CHL1    C7 6931   6.827   1.362  10.071  1.0106 -0.3672 -0.1308
   61CHL1   H7A 6932   6.926   1.320  10.042  0.3950 -1.0227 -1.3312
   61CHL1   H7B 6933   6.755   1.283  10.040  1.4361 -0.4102 -1.0385
   61CHL1    C8 6934   6.805   1.489   9.979  0.6088  0.1557 -0.3643
   61CHL1    H8 6935   6.907   1.529   9.960  1.5395 -1.7912  0.2023
   61CHL1   C14 6936   6.756   1.452   9.839  0.1213  0.3199  0.6659
   61CHL1   H14 6937   6.651   1.414   9.843  0.2987 -0.3395 -0.4597
   61CHL1   C15 6938   6.837   1.352   9.757  0.5542  0.5012 -0.0586
   61CHL1  H15A 6939   6.944   1.382   9.764  1.2244 -0.9986 -2.6324
   61CHL1  H15B 6940   6.816   1.254   9.805  1.3536  0.1475 -0.4111
   61CHL1   C16 6941   6.789   1.357   9.613 -0.1452  0.3382  0.0576
   61CHL1  H16A 6942   6.883   1.378   9.557 -0.8103  2.3705 -0.3859
   61CHL1  H16B 6943   6.742   1.258   9.594 -0.8745  0.2385  2.0734
   61CHL1   C17 6944   6.687   1.480   9.608  0.5966 -0.3640 -0.3939
   61CHL1   H17 6945   6.589   1.433   9.633  0.1063  1.4025  1.2595
   61CHL1   C13 6946   6.725   1.565   9.736 -0.5627 -0.1151 -0.1763
   61CHL1   C18 6947   6.855   1.640   9.696  0.5758  0.2462  0.5144
   61CHL1  H18A 6948   6.808   1.731   9.654 -2.2619 -1.4834 -0.3350
   61CHL1  H18B 6949   6.908   1.682   9.784 -3.4837  2.6383  2.0844
   61CHL1  H18C 6950   6.923   1.575   9.638  1.0247  1.1102  0.0606
   61CHL1   C12 6951   6.627   1.663   9.809  0.2354 -0.6418  0.5553
   61CHL1  H12A 6952   6.614   1.749   9.739 -0.2632 -2.2359 -1.3981
   61CHL1  H12B 6953   6.531   1.607   9.814 -0.0643 -0.1612  0.3099
   61CHL1   C11 6954   6.682   1.708   9.950 -0.3287 -0.3394 -0.5124
   61CHL1  H11A 6955   6.765   1.778   9.928 -1.5182  0.9048 -1.2381
   61CHL1  H11B 6956   6.596   1.766   9.989  0.2909  0.1512  0.1430
   61CHL1    C9 6957   6.707   1.590  10.044 -0.1206  0.7011  0.9498
   61CHL1    H9 6958   6.615   1.529  10.040  2.2023 -3.2441  1.7198
   61CHL1   C10 6959   6.742   1.622  10.191 -0.4740 -0.4080 -0.7535
   61CHL1   C19 6960   6.858   1.730  10.198 -0.1687  0.5390  0.2722
   61CHL1  H19A 6961   6.928   1.675  10.132  1.1608 -1.1731  2.9613
   61CHL1  H19B 6962   6.809   1.826  10.168  0.8787  1.6627  1.9681
   61CHL1  H19C 6963   6.909   1.752  10.294  2.4111 -0.4277 -0.8051
   61CHL1    C1 6964   6.622   1.678  10.253 -0.7860  0.2016 -0.2782
   61CHL1   H1A 6965   6.589   1.776  10.212 -2.8475 -0.5084 -0.4386
   61CHL1   H1B 6966   6.542   1.602  10.236 -0.4586  0.2327 -2.2454
   61CHL1    C2 6967   6.632   1.720  10.403 -0.7626 -0.8514  0.1723
   61CHL1   H2A 6968   6.532   1.757  10.430  0.4006  1.1626  2.0179
   61CHL1   H2B 6969   6.706   1.800  10.424 -1.2797  0.3962 -2.4217
   61CHL1   C20 6970   6.665   1.541   9.469 -0.3091  0.4681  0.4587
   61CHL1   H20 6971   6.744   1.615   9.447 -2.3997  2.3779 -1.1856
   61CHL1   C21 6972   6.536   1.623   9.465  0.0671 -0.2793 -0.1352
   61CHL1  H21A 6973   6.451   1.557   9.493  1.0733 -1.8096 -0.5403
   61CHL1  H21B 6974   6.514   1.669   9.366  2.0479 -0.4480 -0.7165
   61CHL1  H21C 6975   6.541   1.705   9.539 -0.7234 -1.8355  1.7393
   61CHL1   C22 6976   6.664   1.428   9.362 -0.8774  0.7992  0.3017
   61CHL1  H22A 6977   6.768   1.389   9.360 -0.6038  1.5260  0.1168
   61CHL1  H22B 6978   6.585   1.359   9.397 -0.9768  1.2433  0.9602
   61CHL1   C23 6979   6.652   1.470   9.215 -0.0060  0.1776 -0.4511
   61CHL1  H23A 6980   6.554   1.523   9.208  0.2177  0.6230 -0.2206
   61CHL1  H23B 6981   6.729   1.545   9.186  2.0881 -2.0296 -0.9304
   61CHL1   C24 6982   6.634   1.351   9.123 -0.0649  0.7030  0.0274
   61CHL1  H24A 6983   6.721   1.286   9.144 -0.5806  0.1956  0.6211
   61CHL1  H24B 6984   6.549   1.286   9.152  0.7411 -0.7867 -0.8559
   61CHL1   C25 6985   6.630   1.388   8.973  0.7599 -0.2459 -0.6760
   61CHL1   H25 6986   6.728   1.428   8.939  0.3074  0.9114 -0.6537
   61CHL1   C26 6987   6.622   1.267   8.885  0.2550 -0.2982 -0.4483
   61CHL1  H26A 6988   6.698   1.194   8.922  0.4010 -0.4079 -0.9589
   61CHL1  H26B 6989   6.528   1.214   8.914 -0.3961  0.7770 -0.5737
   61CHL1  H26C 6990   6.619   1.275   8.774 -1.3658 -0.6804 -0.4611
   61CHL1   C27 6991   6.534   1.505   8.949  0.0243 -0.0415 -0.2440
   61CHL1  H27A 6992   6.530   1.526   8.840  1.8660  1.5779 -0.0534
   61CHL1  H27B 6993   6.434   1.478   8.989  1.2411 -1.1885  2.2306
   61CHL1  H27C 6994   6.566   1.595   9.006  2.5880 -0.1520 -1.3958
   62CHL1    C3 6995   0.660   4.374   9.965  0.5309 -0.1089 -0.4552
   62CHL1    H3 6996   0.770   4.372   9.977  0.2691 -3.3748  3.3008
   62CHL1    O3 6997   0.617   4.421  10.094 -0.5195  0.4174  0.0856
   62CHL1   H3' 6998   0.521   4.424  10.092 -0.6987 -1.9172  1.5112
   62CHL1    C4 6999   0.607   4.483   9.868  0.0236  0.5664  0.4007
   62CHL1   H4A 7000   0.501   4.511   9.885  0.0991  0.1472  1.6583
   62CHL1   H4B 7001   0.654   4.583   9.881 -2.3369  1.9900 -1.1714
   62CHL1    C5 7002   0.634   4.424   9.733  0.2283  0.0676  0.2989
   62CHL1    C6 7003   0.716   4.494   9.650 -0.2458 -0.2575 -0.6765
   62CHL1    H6 7004   0.750   4.595   9.677  0.2146 -0.5551 -0.1100
   62CHL1    C7 7005   0.734   4.451   9.510  0.2456  0.4529 -0.6089
   62CHL1   H7A 7006   0.726   4.535   9.438 -0.1686  1.2235  0.3074
   62CHL1   H7B 7007   0.830   4.400   9.487  0.1406  0.5412 -1.2502
   62CHL1    C8 7008   0.634   4.342   9.470 -0.0570  0.4136 -0.2739
   62CHL1    H8 7009   0.533   4.388   9.471 -0.7263 -1.0090  0.1377
   62CHL1   C14 7010   0.662   4.275   9.332  0.5446 -0.6497  0.0994
   62CHL1   H14 7011   0.756   4.216   9.339  1.9307  1.1517 -2.3183
   62CHL1   C15 7012   0.675   4.366   9.214 -0.5459 -0.2950 -0.3408
   62CHL1  H15A 7013   0.605   4.451   9.233  1.1832  0.8758  1.1963
   62CHL1  H15B 7014   0.780   4.400   9.226 -0.1012 -1.5439 -0.5653
   62CHL1   C16 7015   0.650   4.286   9.090  0.1934  0.4111  0.3548
   62CHL1  H16A 7016   0.558   4.324   9.039 -1.1653 -1.9889  0.8458
   62CHL1  H16B 7017   0.739   4.285   9.024  0.1721 -1.1815  0.3145
   62CHL1   C17 7018   0.613   4.147   9.144  0.2898  0.4643 -0.3048
   62CHL1   H17 7019   0.707   4.089   9.157  0.5107  0.5178 -1.5431
   62CHL1   C13 7020   0.560   4.166   9.292 -0.7680  0.4958  0.2777
   62CHL1   C18 7021   0.421   4.226   9.300 -0.3925  0.5415 -0.1127
   62CHL1  H18A 7022   0.408   4.317   9.238  0.3851 -1.0667 -2.7595
   62CHL1  H18B 7023   0.341   4.156   9.268 -2.0842  1.3370  2.0695
   62CHL1  H18C 7024   0.390   4.251   9.404  1.0128 -2.1972  1.0602
   62CHL1   C12 7025   0.585   4.049   9.390 -0.8132  0.6410  0.4845
   62CHL1  H12A 7026   0.524   3.957   9.375 -0.0320 -0.1046  1.6533
   62CHL1  H12B 7027   0.692   4.020   9.396 -1.4960 -2.3071  0.1252
   62CHL1   C11 7028   0.555   4.091   9.534  0.1016 -0.6600  0.1636
   62CHL1  H11A 7029   0.445   4.092   9.551  0.3200  2.9688  2.2913
   62CHL1  H11B 7030   0.590   4.018   9.610 -2.6482 -0.1100  2.1255
   62CHL1    C9 7031   0.632   4.227   9.575  1.0931  0.0061 -0.6120
   62CHL1    H9 7032   0.737   4.199   9.595 -0.1470 -3.4949  1.9713
   62CHL1   C10 7033   0.572   4.286   9.706 -0.1683 -0.5376  0.1226
   62CHL1   C19 7034   0.416   4.304   9.705 -0.5838  0.1707  0.2411
   62CHL1  H19A 7035   0.377   4.325   9.808 -1.0479 -2.1333  0.5761
   62CHL1  H19B 7036   0.379   4.376   9.629 -0.0539 -0.4475 -0.6088
   62CHL1  H19C 7037   0.363   4.212   9.674 -1.6854  1.4210 -1.8668
   62CHL1    C1 7038   0.609   4.184   9.820 -0.4851  0.5468 -0.1847
   62CHL1   H1A 7039   0.556   4.087   9.807  2.2202 -1.1849  0.8304
   62CHL1   H1B 7040   0.716   4.164   9.797 -1.0678  0.5647 -3.3708
   62CHL1    C2 7041   0.594   4.237   9.958  0.1131 -0.3707  0.0255
   62CHL1   H2A 7042   0.640   4.161  10.025 -1.1392 -2.0196 -0.9111
   62CHL1   H2B 7043   0.486   4.225   9.982  0.5865 -0.8332  2.1363
   62CHL1   C20 7044   0.521   4.068   9.052  0.3916  0.1354  0.9375
   62CHL1   H20 7045   0.421   4.115   9.066  0.6766  1.6125 -1.4613
   62CHL1   C21 7046   0.497   3.917   9.096 -0.2452 -0.6593 -0.4623
   62CHL1  H21A 7047   0.588   3.861   9.125  0.3878  0.5637 -0.0210
   62CHL1  H21B 7048   0.442   3.862   9.016 -0.6785  0.2427 -0.8004
   62CHL1  H21C 7049   0.423   3.916   9.180 -1.7036  2.2057 -1.5826
   62CHL1   C22 7050   0.558   4.080   8.900 -0.0628  0.0553 -0.0217
   62CHL1  H22A 7051   0.484   4.019   8.843  0.2413 -0.0995 -0.2560
   62CHL1  H22B 7052   0.545   4.184   8.861  1.0164  0.2343  0.0575
   62CHL1   C23 7053   0.690   4.020   8.860  0.3807 -0.3125 -0.8112
   62CHL1  H23A 7054   0.767   4.092   8.898 -0.6005  1.0286 -1.3062
   62CHL1  H23B 7055   0.704   3.926   8.918  0.7867  0.5675  0.5612
   62CHL1   C24 7056   0.699   4.007   8.706  0.5663 -0.0546 -0.2579
   62CHL1  H24A 7057   0.603   3.958   8.679 -0.2569  1.2196  0.2329
   62CHL1  H24B 7058   0.696   4.107   8.658  0.5014  0.1373  0.1459
   62CHL1   C25 7059   0.813   3.924   8.658 -0.0537 -0.2955 -0.4290
   62CHL1   H25 7060   0.786   3.822   8.691 -0.7899  0.2889  0.8432
   62CHL1   C26 7061   0.830   3.932   8.508 -0.5446  0.0279 -0.0060
   62CHL1  H26A 7062   0.928   3.887   8.481 -0.3430 -0.0720  0.8702
   62CHL1  H26B 7063   0.742   3.894   8.451 -0.3355 -0.8737  0.2549
   62CHL1  H26C 7064   0.834   4.038   8.475  2.3061 -0.4872 -1.6947
   62CHL1   C27 7065   0.941   3.959   8.737 -0.0641 -0.7492  0.8506
   62CHL1  H27A 7066   0.937   3.941   8.846  0.8605  2.5343  1.5536
   62CHL1  H27B 7067   1.025   3.902   8.693  1.1131  0.2158  1.7979
   62CHL1  H27C 7068   0.936   4.068   8.716  1.3345 -1.1218 -1.8805
   63CHL1    C3 7069   1.182   5.948  10.061 -0.4300  0.1234 -0.1223
   63CHL1    H3 7070   1.071   5.945  10.067 -0.5311 -0.6621 -1.7630
   63CHL1    O3 7071   1.223   5.945  10.192 -0.4696 -0.3666  0.2329
   63CHL1   H3' 7072   1.171   6.012  10.238  0.8339  2.7623 -2.4386
   63CHL1    C4 7073   1.247   5.829   9.989 -0.1700 -0.0383  0.1671
   63CHL1   H4A 7074   1.355   5.849  10.005  0.0582 -2.3112  1.8070
   63CHL1   H4B 7075   1.227   5.730  10.035 -1.3272  0.0204 -0.1747
   63CHL1    C5 7076   1.207   5.837   9.841 -0.1637 -0.0103  0.8609
   63CHL1    C6 7077   1.133   5.746   9.781  0.7956  0.3331 -0.0189
   63CHL1    H6 7078   1.098   5.658   9.837  1.5789  0.6425  0.9873
   63CHL1    C7 7079   1.096   5.747   9.631 -0.6895 -0.6776 -0.2032
   63CHL1   H7A 7080   1.114   5.652   9.577  1.9823 -2.3125  3.1821
   63CHL1   H7B 7081   0.989   5.772   9.618 -1.2899 -0.1054  4.1770
   63CHL1    C8 7082   1.183   5.848   9.553 -0.1620 -0.8907 -0.5913
   63CHL1    H8 7083   1.286   5.807   9.562  0.3026  0.0894 -1.2977
   63CHL1   C14 7084   1.139   5.877   9.413  0.4251  0.5768  0.0892
   63CHL1   H14 7085   1.038   5.922   9.416  1.3882  2.8998  0.2790
   63CHL1   C15 7086   1.122   5.758   9.312 -0.4376 -0.3108  0.4572
   63CHL1  H15A 7087   1.209   5.688   9.313 -0.2853 -0.1769 -1.1936
   63CHL1  H15B 7088   1.030   5.701   9.338 -1.5868  1.4084  0.3260
   63CHL1   C16 7089   1.120   5.818   9.172 -0.2475  0.0070  0.5474
   63CHL1  H16A 7090   1.199   5.783   9.102  1.0675  2.6985  0.5631
   63CHL1  H16B 7091   1.018   5.802   9.130 -0.5105 -1.7238  1.7334
   63CHL1   C17 7092   1.144   5.977   9.180 -0.1049  0.6506 -0.3800
   63CHL1   H17 7093   1.045   6.027   9.192 -0.1222  0.5516 -0.1223
   63CHL1   C13 7094   1.211   5.984   9.330  0.3406 -0.3415  0.1712
   63CHL1   C18 7095   1.360   5.930   9.316 -0.3958 -0.2508 -0.3093
   63CHL1  H18A 7096   1.399   5.909   9.418  2.2191 -2.3676 -1.6040
   63CHL1  H18B 7097   1.362   5.833   9.262  0.4961 -0.6120  0.3463
   63CHL1  H18C 7098   1.421   6.009   9.268 -0.6734  0.2974  0.2187
   63CHL1   C12 7099   1.192   6.119   9.403  0.7013  0.3304 -0.1063
   63CHL1  H12A 7100   1.218   6.212   9.348 -0.3750  0.7748  0.1102
   63CHL1  H12B 7101   1.083   6.129   9.420  0.2013 -2.7111 -0.8572
   63CHL1   C11 7102   1.241   6.111   9.545 -0.0367  0.8493 -0.2640
   63CHL1  H11A 7103   1.351   6.096   9.548  0.0019  1.2593  0.8138
   63CHL1  H11B 7104   1.213   6.200   9.606  0.5397 -0.8179  2.6622
   63CHL1    C9 7105   1.186   5.984   9.622  0.6628 -0.3836 -0.2297
   63CHL1    H9 7106   1.078   6.001   9.641  1.2261  3.1998  0.4615
   63CHL1   C10 7107   1.242   5.969   9.769 -0.3928  0.3714 -0.0482
   63CHL1   C19 7108   1.395   5.967   9.758  0.3095  0.0474  0.0395
   63CHL1  H19A 7109   1.445   6.060   9.726  0.5044 -0.0120  0.1729
   63CHL1  H19B 7110   1.442   5.933   9.853 -2.4862 -1.4075  1.0350
   63CHL1  H19C 7111   1.431   5.889   9.687  2.3825  0.3438  0.7010
   63CHL1    C1 7112   1.185   6.091   9.857 -0.5450  0.5493  0.4321
   63CHL1   H1A 7113   1.215   6.188   9.812 -0.4860  0.3429  0.0145
   63CHL1   H1B 7114   1.075   6.076   9.853 -0.6947  1.7301 -0.4089
   63CHL1    C2 7115   1.225   6.084  10.000 -0.0921 -0.2426  0.0998
   63CHL1   H2A 7116   1.185   6.173  10.052  0.8116  0.2448 -0.0163
   63CHL1   H2B 7117   1.335   6.095  10.014 -0.2769  1.6726  0.2648
   63CHL1   C20 7118   1.219   6.039   9.065 -0.3130 -0.3451  0.1640
   63CHL1   H20 7119   1.325   6.008   9.068  0.1057  0.9571 -0.4488
   63CHL1   C21 7120   1.213   6.195   9.083  0.7563 -0.0708  0.2554
   63CHL1  H21A 7121   1.280   6.224   9.167  1.0952 -2.3040  0.8236
   63CHL1  H21B 7122   1.116   6.228   9.128 -0.0903 -1.2397 -0.6504
   63CHL1  H21C 7123   1.244   6.259   8.997  1.1476 -1.6271 -0.8051
   63CHL1   C22 7124   1.174   6.004   8.919 -0.3025 -0.1685 -0.4241
   63CHL1  H22A 7125   1.243   6.064   8.856 -0.3194 -2.1660 -2.5088
   63CHL1  H22B 7126   1.196   5.895   8.908 -1.5610 -0.5584  0.7243
   63CHL1   C23 7127   1.026   6.033   8.879  0.7441  0.2221 -0.6526
   63CHL1  H23A 7128   0.957   5.968   8.937  0.6780 -0.7497 -1.7821
   63CHL1  H23B 7129   0.991   6.138   8.884  0.5647  0.1297  0.3259
   63CHL1   C24 7130   0.999   5.978   8.734 -0.0078  0.5769  0.0678
   63CHL1  H24A 7131   1.090   5.997   8.673  0.4990 -2.0808 -0.0836
   63CHL1  H24B 7132   0.979   5.870   8.750 -0.7847  0.8345  0.9097
   63CHL1   C25 7133   0.872   6.040   8.673 -0.1613  0.1642 -0.0885
   63CHL1   H25 7134   0.798   6.024   8.754  1.6196  0.8701  1.7788
   63CHL1   C26 7135   0.888   6.193   8.647 -0.3023  0.4549  0.0352
   63CHL1  H26A 7136   0.906   6.244   8.744  3.0155  0.0403 -0.2171
   63CHL1  H26B 7137   0.968   6.199   8.569 -1.1116  1.2465 -0.7525
   63CHL1  H26C 7138   0.795   6.217   8.591 -0.1706 -0.0328 -0.4082
   63CHL1   C27 7139   0.829   5.970   8.545 -0.2563  0.8545 -0.3562
   63CHL1  H27A 7140   0.903   5.960   8.463 -0.1496 -0.6625 -0.1041
   63CHL1  H27B 7141   0.815   5.862   8.565 -1.2158  0.6569 -1.9238
   63CHL1  H27C 7142   0.736   6.011   8.501 -0.4496  1.0389  0.2209
   64CHL1    C3 7143   6.703   0.920  10.195  0.7382  0.0278  0.3756
   64CHL1    H3 7144   6.631   1.003  10.180  1.3274  0.4523 -0.1570
   64CHL1    O3 7145   6.719   0.901  10.337 -0.1154  0.3438  0.1742
   64CHL1   H3' 7146   6.790   0.838  10.350 -1.6261 -1.5448 -0.2861
   64CHL1    C4 7147   6.660   0.790  10.124  0.5114 -0.9080  0.1758
   64CHL1   H4A 7148   6.728   0.707  10.153  0.4403 -0.1062  2.9334
   64CHL1   H4B 7149   6.559   0.757  10.154 -0.4851 -1.5596 -3.4931
   64CHL1    C5 7150   6.672   0.792   9.972 -0.5372  0.5583 -0.3691
   64CHL1    C6 7151   6.570   0.769   9.895  0.0382  0.2815 -0.0789
   64CHL1    H6 7152   6.474   0.738   9.939 -0.5313  0.9660 -0.7967
   64CHL1    C7 7153   6.567   0.763   9.746  0.5570  0.3607 -0.3570
   64CHL1   H7A 7154   6.533   0.664   9.710  2.1272  0.4358 -2.2165
   64CHL1   H7B 7155   6.504   0.845   9.706 -0.4057 -0.3178 -0.2664
   64CHL1    C8 7156   6.715   0.769   9.690  0.0808  0.3800 -0.1457
   64CHL1    H8 7157   6.773   0.674   9.689  0.9435  0.8945 -0.1212
   64CHL1   C14 7158   6.713   0.816   9.540  0.0535  0.6895 -0.1961
   64CHL1   H14 7159   6.676   0.921   9.548 -0.5322  0.4165  0.7917
   64CHL1   C15 7160   6.619   0.737   9.450 -0.1551 -0.4892 -0.0932
   64CHL1  H15A 7161   6.618   0.629   9.476  2.5976 -0.8221 -0.9967
   64CHL1  H15B 7162   6.517   0.778   9.467  0.0806  0.0099  0.1591
   64CHL1   C16 7163   6.677   0.752   9.306 -0.0547 -0.1684  0.3052
   64CHL1  H16A 7164   6.710   0.654   9.266  1.4469  1.0160 -1.5282
   64CHL1  H16B 7165   6.609   0.788   9.226 -0.5142  4.1443  2.3376
   64CHL1   C17 7166   6.805   0.836   9.323  0.2574  0.1257 -0.5428
   64CHL1   H17 7167   6.764   0.939   9.333 -1.5176 -0.6825  1.2129
   64CHL1   C13 7168   6.850   0.814   9.471 -0.1039  0.4585  0.5205
   64CHL1   C18 7169   6.901   0.666   9.463 -0.0836  0.1955 -0.0398
   64CHL1  H18A 7170   6.999   0.660   9.410 -0.1891 -1.8925 -0.0991
   64CHL1  H18B 7171   6.920   0.622   9.563  1.3347  0.0925 -0.3299
   64CHL1  H18C 7172   6.832   0.595   9.413 -1.2029  0.8539  0.5454
   64CHL1   C12 7173   6.945   0.905   9.542  0.1891  0.0143 -0.7897
   64CHL1  H12A 7174   7.048   0.898   9.500  0.1809 -2.4841 -0.5344
   64CHL1  H12B 7175   6.918   1.012   9.527 -0.7248  0.2141  1.7845
   64CHL1   C11 7176   6.951   0.879   9.698  0.1351 -0.1859  0.2255
   64CHL1  H11A 7177   7.003   0.782   9.700  0.1117 -0.1872  0.8124
   64CHL1  H11B 7178   7.018   0.956   9.742  0.4042  0.3761 -1.1255
   64CHL1    C9 7179   6.812   0.862   9.762 -0.1504  0.1923  0.1317
   64CHL1    H9 7180   6.756   0.958   9.748  0.7804  0.8265  0.6573
   64CHL1   C10 7181   6.806   0.843   9.912  0.4312  0.3650 -0.6583
   64CHL1   C19 7182   6.914   0.735   9.956  0.6014  0.6434  0.3643
   64CHL1  H19A 7183   6.924   0.740  10.066  0.1458  2.0298  0.3613
   64CHL1  H19B 7184   6.900   0.629   9.928  2.5881  0.3668  0.3020
   64CHL1  H19C 7185   7.013   0.761   9.914  0.9401 -1.6034 -0.3748
   64CHL1    C1 7186   6.822   0.980   9.985 -1.0452 -0.0981 -0.5684
   64CHL1   H1A 7187   6.917   1.026   9.951 -0.8444  1.2410  1.6230
   64CHL1   H1B 7188   6.749   1.057   9.954  0.1177  0.2005 -2.7697
   64CHL1    C2 7189   6.836   0.969  10.138  0.6157 -0.2307 -0.4245
   64CHL1   H2A 7190   6.858   1.070  10.178  5.0137 -2.0090  2.4636
   64CHL1   H2B 7191   6.915   0.914  10.194  1.4030  3.3580  2.3433
   64CHL1   C20 7192   6.911   0.834   9.205 -0.2176  0.1572  0.4196
   64CHL1   H20 7193   6.968   0.739   9.206  0.7760  0.7235 -0.3137
   64CHL1   C21 7194   7.016   0.954   9.214  0.2925  0.4749  0.4135
   64CHL1  H21A 7195   7.097   0.948   9.139  0.3104  1.8899  0.2994
   64CHL1  H21B 7196   7.069   0.948   9.312  0.0971 -2.9407  0.4292
   64CHL1  H21C 7197   6.960   1.048   9.195 -2.2610 -1.1918 -0.8435
   64CHL1   C22 7198   6.834   0.837   9.074  0.2606 -0.2333  0.0935
   64CHL1  H22A 7199   6.774   0.744   9.072  1.6483 -1.1524  0.2547
   64CHL1  H22B 7200   6.770   0.928   9.066  1.0079  0.2924  0.0804
   64CHL1   C23 7201   6.916   0.834   8.939  0.0129 -0.8468 -0.1847
   64CHL1  H23A 7202   6.982   0.922   8.944  1.6268 -1.9410 -1.2385
   64CHL1  H23B 7203   6.981   0.745   8.932  1.4454  0.2273 -0.9493
   64CHL1   C24 7204   6.826   0.861   8.816 -0.0669  0.1128  0.1375
   64CHL1  H24A 7205   6.738   0.795   8.830  0.8224 -0.9788  0.6828
   64CHL1  H24B 7206   6.789   0.966   8.822 -2.8399 -0.8085  0.7136
   64CHL1   C25 7207   6.887   0.846   8.671  0.6416  0.0167 -0.9269
   64CHL1   H25 7208   6.924   0.742   8.662  0.4569 -0.3091  1.3916
   64CHL1   C26 7209   6.784   0.881   8.558 -0.4257 -0.5223  0.0824
   64CHL1  H26A 7210   6.716   0.963   8.591  0.9085 -0.2657  2.4192
   64CHL1  H26B 7211   6.839   0.922   8.470  0.6344 -0.9861  0.5175
   64CHL1  H26C 7212   6.721   0.793   8.533  0.3112 -1.9244  2.7579
   64CHL1   C27 7213   7.002   0.951   8.666 -0.5473  0.5156 -0.5071
   64CHL1  H27A 7214   6.959   1.054   8.671  0.4260  0.9572 -0.9639
   64CHL1  H27B 7215   7.083   0.938   8.741 -0.6484  1.7589 -0.1630
   64CHL1  H27C 7216   7.042   0.938   8.563 -1.1390  0.9793 -0.8002
   65CHL1    C3 7217   6.007   5.676  10.060 -0.4369 -0.3817  0.5677
   65CHL1    H3 7218   5.904   5.641  10.084 -0.6211  0.8572  1.6831
   65CHL1    O3 7219   6.060   5.745  10.175 -0.2983  0.3602 -0.2963
   65CHL1   H3' 7220   6.039   5.694  10.253 -0.7236  1.3147  0.2369
   65CHL1    C4 7221   6.091   5.559  10.017  0.4859 -0.5487 -0.0161
   65CHL1   H4A 7222   6.189   5.598   9.984  0.1077 -1.6654 -2.7657
   65CHL1   H4B 7223   6.107   5.489  10.102  3.8066  2.0448  1.7208
   65CHL1    C5 7224   6.046   5.500   9.886  0.4823  0.0797 -0.1402
   65CHL1    C6 7225   6.012   5.370   9.872  0.6492  0.0258 -0.5225
   65CHL1    H6 7226   6.025   5.297   9.954  1.4104  0.1009 -0.5768
   65CHL1    C7 7227   5.963   5.300   9.750  0.1532 -1.0112  0.3592
   65CHL1   H7A 7228   6.015   5.202   9.742  1.0439 -0.4120 -1.6167
   65CHL1   H7B 7229   5.854   5.281   9.759  0.1422 -0.3989  1.8066
   65CHL1    C8 7230   6.001   5.393   9.626 -0.0558 -0.2090 -0.2101
   65CHL1    H8 7231   6.111   5.390   9.616 -0.0380  1.0778 -0.6051
   65CHL1   C14 7232   5.931   5.332   9.501 -0.1387  0.6808  0.1989
   65CHL1   H14 7233   5.821   5.336   9.514 -0.0688  0.9489  0.7474
   65CHL1   C15 7234   5.965   5.179   9.469  0.0956  0.6551 -1.2847
   65CHL1  H15A 7235   6.070   5.161   9.499 -0.7258 -1.5876  0.4810
   65CHL1  H15B 7236   5.896   5.124   9.536 -1.1731  3.0618 -0.4781
   65CHL1   C16 7237   5.928   5.168   9.324 -0.0132 -0.0670 -0.9119
   65CHL1  H16A 7238   6.027   5.150   9.277  1.4489  3.6724  0.3099
   65CHL1  H16B 7239   5.860   5.084   9.302  0.3819 -0.8940  0.8228
   65CHL1   C17 7240   5.889   5.310   9.276 -0.3687  0.3851  0.5832
   65CHL1   H17 7241   5.780   5.317   9.298 -1.0017  2.3172 -2.4070
   65CHL1   C13 7242   5.966   5.408   9.373 -0.4880  0.2001 -0.0948
   65CHL1   C18 7243   6.122   5.407   9.335  0.5474  0.4216  1.4248
   65CHL1  H18A 7244   6.176   5.453   9.420  0.2009  2.3411  0.6510
   65CHL1  H18B 7245   6.157   5.304   9.312  1.7659  0.9154  0.9723
   65CHL1  H18C 7246   6.139   5.467   9.243  2.1288 -2.3877 -0.2936
   65CHL1   C12 7247   5.917   5.554   9.391  0.0529 -0.0573  0.4730
   65CHL1  H12A 7248   5.939   5.618   9.303  0.2660  0.0065  0.5711
   65CHL1  H12B 7249   5.808   5.549   9.413 -0.1653  0.3049 -0.4940
   65CHL1   C11 7250   5.965   5.623   9.520  0.7429 -1.0579  0.3512
   65CHL1  H11A 7251   6.062   5.673   9.498  1.3024 -2.1123  0.3867
   65CHL1  H11B 7252   5.899   5.713   9.527  0.7095 -0.7639 -2.5801
   65CHL1    C9 7253   5.955   5.541   9.651 -0.2811  0.8515 -0.7198
   65CHL1    H9 7254   5.847   5.537   9.679  0.2243 -1.2208  1.1929
   65CHL1   C10 7255   6.031   5.606   9.770  0.5546  0.1276 -0.2285
   65CHL1   C19 7256   6.177   5.650   9.736 -0.0861  0.1217 -0.0441
   65CHL1  H19A 7257   6.236   5.696   9.818  0.3965 -0.2054 -0.2080
   65CHL1  H19B 7258   6.247   5.571   9.700 -2.2545 -1.4255 -1.0964
   65CHL1  H19C 7259   6.182   5.719   9.649 -0.8666 -1.7617 -1.6450
   65CHL1    C1 7260   5.942   5.728   9.822  0.7910 -0.4158 -0.6465
   65CHL1   H1A 7261   5.918   5.808   9.749  1.5640  0.8042  0.4064
   65CHL1   H1B 7262   5.835   5.700   9.834 -0.7050  3.7416 -2.5792
   65CHL1    C2 7263   5.984   5.783   9.955 -0.3110 -0.1260  0.6962
   65CHL1   H2A 7264   5.899   5.843   9.996 -0.1238 -0.8037  2.1292
   65CHL1   H2B 7265   6.075   5.844   9.940 -1.1152  1.0546  0.3996
   65CHL1   C20 7266   5.910   5.326   9.119 -0.5129  0.2371  0.3473
   65CHL1   H20 7267   6.020   5.335   9.104 -0.4677  0.1821  0.6493
   65CHL1   C21 7268   5.848   5.460   9.079  0.4001  0.0157  0.0541
   65CHL1  H21A 7269   5.739   5.460   9.099  0.5285 -1.7236  0.8976
   65CHL1  H21B 7270   5.862   5.462   8.969  0.4814 -0.7550  0.0435
   65CHL1  H21C 7271   5.910   5.544   9.118  1.5432  0.2466 -2.1160
   65CHL1   C22 7272   5.862   5.198   9.042  0.2879 -0.3120 -0.3021
   65CHL1  H22A 7273   5.926   5.113   9.073  0.7301 -0.2481 -1.0029
   65CHL1  H22B 7274   5.754   5.177   9.058  0.3179  0.2654  0.7162
   65CHL1   C23 7275   5.885   5.221   8.887  0.1786 -0.1812 -0.4951
   65CHL1  H23A 7276   5.810   5.288   8.840  1.0695  0.6140 -0.8412
   65CHL1  H23B 7277   5.993   5.249   8.877  0.7706 -2.1467  0.0623
   65CHL1   C24 7278   5.859   5.087   8.812  0.0854 -0.1274  0.0756
   65CHL1  H24A 7279   5.930   5.013   8.855  0.8151  0.1300 -0.6687
   65CHL1  H24B 7280   5.753   5.062   8.834 -0.7000  2.3924 -0.4130
   65CHL1   C25 7281   5.884   5.086   8.660 -0.7389 -0.2855  0.5707
   65CHL1   H25 7282   5.976   5.145   8.643 -1.8017  1.5410  0.8667
   65CHL1   C26 7283   5.912   4.940   8.616 -0.2006 -0.1331  0.4222
   65CHL1  H26A 7284   5.993   4.902   8.682 -0.2328 -2.0722 -0.5866
   65CHL1  H26B 7285   5.826   4.870   8.629 -0.1625 -0.4336 -0.8717
   65CHL1  H26C 7286   5.947   4.919   8.513  1.5069  3.1587  0.2034
   65CHL1   C27 7287   5.775   5.139   8.572  1.1491 -0.8603 -0.7194
   65CHL1  H27A 7288   5.744   5.242   8.600  0.4516 -1.8479  2.4577
   65CHL1  H27B 7289   5.807   5.134   8.465  0.8738  0.8145 -0.9070
   65CHL1  H27C 7290   5.686   5.075   8.589  0.0001  1.2277  1.7644
   66CHL1    C3 7291   2.014   0.481  10.407  0.5243  0.5989  0.0727
   66CHL1    H3 7292   2.101   0.550  10.403  0.7851  0.2824  0.3022
   66CHL1    O3 7293   1.974   0.454  10.541  0.7661  0.3507  0.2222
   66CHL1   H3' 7294   1.908   0.385  10.532  0.0282  0.7944  1.8269
   66CHL1    C4 7295   1.894   0.545  10.340 -0.0799  0.1826 -0.9397
   66CHL1   H4A 7296   1.807   0.478  10.354  0.0643  0.4074  1.5369
   66CHL1   H4B 7297   1.875   0.643  10.390 -1.0795 -0.7920  0.6807
   66CHL1    C5 7298   1.909   0.568  10.192 -0.5120 -0.1631 -1.1219
   66CHL1    C6 7299   1.885   0.692  10.140  0.1155  0.3685 -0.1959
   66CHL1    H6 7300   1.853   0.774  10.206  0.0815 -0.6591  1.1109
   66CHL1    C7 7301   1.893   0.723   9.994 -1.0859 -0.3937  0.1702
   66CHL1   H7A 7302   1.803   0.783   9.969 -1.8489 -0.9230  1.5560
   66CHL1   H7B 7303   1.977   0.794   9.979 -0.7088 -1.1270 -1.4937
   66CHL1    C8 7304   1.915   0.602   9.905 -0.0073  0.1499 -0.6936
   66CHL1    H8 7305   1.817   0.552   9.897 -1.1160  1.8017  1.4607
   66CHL1   C14 7306   1.957   0.654   9.766  0.1724  0.1824 -0.0652
   66CHL1   H14 7307   2.051   0.710   9.783 -0.1967  0.4852  1.0703
   66CHL1   C15 7308   1.860   0.754   9.694  0.5180 -0.3905 -0.6133
   66CHL1  H15A 7309   1.757   0.714   9.708  0.5944  0.3370  3.5544
   66CHL1  H15B 7310   1.870   0.862   9.719  0.0245 -0.1527 -1.4170
   66CHL1   C16 7311   1.880   0.733   9.542  0.9735  0.1556  0.7681
   66CHL1  H16A 7312   1.784   0.700   9.498  1.1382 -0.3336  0.7740
   66CHL1  H16B 7313   1.919   0.825   9.493 -2.0235  0.5594 -1.1189
   66CHL1   C17 7314   1.988   0.619   9.535 -0.5606  0.6612 -0.1541
   66CHL1   H17 7315   2.081   0.677   9.550  0.3418 -0.8209  0.1341
   66CHL1   C13 7316   1.974   0.537   9.666  0.2685  0.2771  0.5053
   66CHL1   C18 7317   1.848   0.455   9.643 -0.2208 -0.2746 -0.3857
   66CHL1  H18A 7318   1.759   0.519   9.622 -1.2581 -1.3080  0.7047
   66CHL1  H18B 7319   1.866   0.381   9.562  2.0222  0.5460 -0.7016
   66CHL1  H18C 7320   1.802   0.398   9.726 -0.2644  0.5057  0.1347
   66CHL1   C12 7321   2.083   0.442   9.712 -0.0331  0.2122 -0.1043
   66CHL1  H12A 7322   2.094   0.355   9.644  0.4062  0.1194  0.0853
   66CHL1  H12B 7323   2.175   0.504   9.708  0.5606 -0.5917  0.9277
   66CHL1   C11 7324   2.063   0.395   9.860 -0.2860 -0.7424 -0.1722
   66CHL1  H11A 7325   1.981   0.321   9.856 -1.1619  0.2254 -0.6876
   66CHL1  H11B 7326   2.162   0.346   9.873  1.0270  0.8797 -3.0207
   66CHL1    C9 7327   2.023   0.504   9.967 -0.1305 -0.1355 -0.0647
   66CHL1    H9 7328   2.113   0.565   9.991 -0.0720 -0.6143  0.9729
   66CHL1   C10 7329   1.971   0.452  10.106 -0.1444  0.6264  0.6106
   66CHL1   C19 7330   1.873   0.340  10.082 -0.0281 -0.2827  0.2377
   66CHL1  H19A 7331   1.805   0.317  10.167  1.2673 -2.8358  0.6911
   66CHL1  H19B 7332   1.805   0.358   9.996 -1.8484 -0.5298  1.5707
   66CHL1  H19C 7333   1.931   0.245  10.073  2.5323  1.2269 -0.0228
   66CHL1    C1 7334   2.094   0.389  10.180 -0.3242  0.0497  0.0633
   66CHL1   H1A 7335   2.129   0.296  10.130 -0.1781 -0.3616  0.9016
   66CHL1   H1B 7336   2.183   0.456  10.177 -0.2284 -0.1059 -2.8602
   66CHL1    C2 7337   2.056   0.353  10.330 -0.2217 -0.1626  0.1565
   66CHL1   H2A 7338   2.148   0.316  10.382  0.8937  1.3238 -0.6796
   66CHL1   H2B 7339   1.986   0.267  10.328  0.9796 -1.1593 -0.8084
   66CHL1   C20 7340   1.991   0.541   9.402  0.3186 -0.2300 -0.3312
   66CHL1   H20 7341   1.909   0.467   9.397 -1.6953  1.9328 -1.4876
   66CHL1   C21 7342   2.127   0.464   9.387  0.4929 -0.3916  0.1581
   66CHL1  H21A 7343   2.120   0.365   9.438 -0.2310  0.3164  1.4754
   66CHL1  H21B 7344   2.207   0.521   9.439 -0.2727  0.9955 -0.1383
   66CHL1  H21C 7345   2.153   0.447   9.280  0.8957 -2.0590  0.4946
   66CHL1   C22 7346   1.976   0.630   9.274 -0.7343 -0.0293 -0.0277
   66CHL1  H22A 7347   1.968   0.567   9.183 -3.8379  0.3747 -0.1271
   66CHL1  H22B 7348   1.878   0.682   9.275 -0.3136  0.7725  1.6406
   66CHL1   C23 7349   2.082   0.743   9.251  0.0144  0.2237  0.3076
   66CHL1  H23A 7350   2.087   0.801   9.346 -0.3722  0.6997  0.0405
   66CHL1  H23B 7351   2.186   0.709   9.229  0.1583  0.9670 -0.2105
   66CHL1   C24 7352   2.043   0.829   9.130  0.1381  0.2866 -0.3894
   66CHL1  H24A 7353   2.008   0.758   9.051 -2.3415 -1.2329  1.8894
   66CHL1  H24B 7354   1.956   0.888   9.165  0.5817  1.3382 -1.0151
   66CHL1   C25 7355   2.145   0.922   9.060 -0.0286 -0.1938 -0.1040
   66CHL1   H25 7356   2.243   0.873   9.045  1.0144  1.9011 -0.5150
   66CHL1   C26 7357   2.086   0.953   8.923 -0.1993 -0.5255 -0.5958
   66CHL1  H26A 7358   2.062   0.854   8.879  2.2698 -2.3078  1.7301
   66CHL1  H26B 7359   1.993   1.010   8.941 -0.2514 -0.7734 -0.0800
   66CHL1  H26C 7360   2.159   1.003   8.855  0.3527  1.1630  1.1545
   66CHL1   C27 7361   2.165   1.046   9.144 -0.2548 -0.0739 -0.1740
   66CHL1  H27A 7362   2.259   1.096   9.112 -0.0973  1.1643  2.0406
   66CHL1  H27B 7363   2.075   1.108   9.127  0.2729  1.0430  0.9278
   66CHL1  H27C 7364   2.179   1.035   9.254 -1.5124  1.3076  0.1437
   67CHL1    C3 7365   2.698   2.335  10.060  0.1664 -0.5154 -0.3232
   67CHL1    H3 7366   2.759   2.427  10.042 -0.2781  0.2891  1.8703
   67CHL1    O3 7367   2.677   2.323  10.200  0.1713  0.0708  0.3971
   67CHL1   H3' 7368   2.644   2.408  10.229  0.6910  0.1248  0.8371
   67CHL1    C4 7369   2.561   2.352   9.995 -0.0201 -0.4896 -0.7787
   67CHL1   H4A 7370   2.492   2.273  10.031 -1.4274  0.8408 -0.4539
   67CHL1   H4B 7371   2.519   2.449  10.029  1.6841 -0.1071  0.3543
   67CHL1    C5 7372   2.564   2.350   9.846  0.3768 -0.1043 -0.1629
   67CHL1    C6 7373   2.515   2.455   9.773 -0.6247  0.2998  0.3634
   67CHL1    H6 7374   2.460   2.536   9.822 -0.8048  1.4162 -1.5825
   67CHL1    C7 7375   2.535   2.460   9.621  0.8316  0.8569 -0.0392
   67CHL1   H7A 7376   2.445   2.509   9.576  0.1557 -0.6146 -0.3506
   67CHL1   H7B 7377   2.629   2.509   9.589  0.1954  0.5594 -2.5863
   67CHL1    C8 7378   2.561   2.319   9.562  0.3112  0.2621 -0.4452
   67CHL1    H8 7379   2.473   2.251   9.564 -0.7942  1.6323 -1.2478
   67CHL1   C14 7380   2.610   2.336   9.423  0.5378 -0.0270 -0.6563
   67CHL1   H14 7381   2.704   2.396   9.425 -0.9526  2.4721 -0.6258
   67CHL1   C15 7382   2.529   2.423   9.329  0.6174  0.4314 -0.1329
   67CHL1  H15A 7383   2.423   2.390   9.336  0.1762  2.0009  1.3249
   67CHL1  H15B 7384   2.544   2.527   9.366  2.2672  0.3106 -0.4122
   67CHL1   C16 7385   2.597   2.396   9.189  0.5060 -0.0272 -0.4808
   67CHL1  H16A 7386   2.519   2.364   9.117 -1.5518 -0.7244  1.9133
   67CHL1  H16B 7387   2.656   2.485   9.159  0.3483 -0.4090 -2.0026
   67CHL1   C17 7388   2.687   2.266   9.209 -0.2994 -0.8250  0.2193
   67CHL1   H17 7389   2.786   2.315   9.221 -0.3942 -0.4022 -0.6068
   67CHL1   C13 7390   2.646   2.209   9.346  0.0272  0.4400 -1.2913
   67CHL1   C18 7391   2.519   2.112   9.334 -0.7256  0.5364 -0.8685
   67CHL1  H18A 7392   2.485   2.065   9.429 -0.6643  1.7289 -0.2396
   67CHL1  H18B 7393   2.434   2.169   9.292  0.1628  4.3388  1.9201
   67CHL1  H18C 7394   2.537   2.026   9.265 -0.5464 -1.9904  2.0709
   67CHL1   C12 7395   2.760   2.139   9.424  0.4180 -0.7734 -0.1253
   67CHL1  H12A 7396   2.788   2.040   9.382 -0.3547 -1.4615  0.9615
   67CHL1  H12B 7397   2.846   2.209   9.416 -1.5879  2.0204  1.1912
   67CHL1   C11 7398   2.725   2.119   9.576 -1.0085  0.5906  0.6074
   67CHL1  H11A 7399   2.651   2.037   9.585 -0.5727  0.0320 -0.6906
   67CHL1  H11B 7400   2.818   2.085   9.626 -1.4778  0.0661  1.1333
   67CHL1    C9 7401   2.666   2.243   9.644 -0.2688 -0.3327  0.2988
   67CHL1    H9 7402   2.745   2.320   9.630 -0.6436 -0.2607 -1.7669
   67CHL1   C10 7403   2.641   2.224   9.791 -0.5585 -0.5354  0.2795
   67CHL1   C19 7404   2.553   2.102   9.819  0.3163 -1.0564  0.3555
   67CHL1  H19A 7405   2.527   2.093   9.926  2.7047  2.1194  1.3395
   67CHL1  H19B 7406   2.461   2.104   9.756  1.1071 -1.4776 -0.8605
   67CHL1  H19C 7407   2.603   2.003   9.807  0.0261 -1.2556  0.7589
   67CHL1    C1 7408   2.780   2.228   9.867  0.1596  0.7618  0.2503
   67CHL1   H1A 7409   2.844   2.145   9.830 -1.7645 -0.5884 -0.2290
   67CHL1   H1B 7410   2.833   2.315   9.824  1.5966 -0.6969 -1.0615
   67CHL1    C2 7411   2.771   2.211  10.017 -0.0457 -0.9418 -0.2714
   67CHL1   H2A 7412   2.870   2.208  10.068  0.2557  4.5593  0.0165
   67CHL1   H2B 7413   2.718   2.119  10.051  0.6032 -1.0710  0.4207
   67CHL1   C20 7414   2.693   2.175   9.081 -0.9398  0.2381  0.4559
   67CHL1   H20 7415   2.589   2.141   9.061 -0.8406 -0.3210  0.8675
   67CHL1   C21 7416   2.784   2.046   9.092  0.0164 -0.6073 -0.0577
   67CHL1  H21A 7417   2.887   2.071   9.125  0.5650 -0.6918 -1.6010
   67CHL1  H21B 7418   2.781   1.997   8.992 -0.6614 -1.1894  0.2408
   67CHL1  H21C 7419   2.746   1.992   9.181  1.5016  1.9765  2.2807
   67CHL1   C22 7420   2.746   2.261   8.968 -0.1666 -0.5751  1.0628
   67CHL1  H22A 7421   2.703   2.363   8.957  1.0832 -0.1440 -0.2525
   67CHL1  H22B 7422   2.855   2.271   8.986 -0.5021 -0.2312  3.0934
   67CHL1   C23 7423   2.713   2.205   8.824  0.7915 -0.1408  0.7785
   67CHL1  H23A 7424   2.744   2.277   8.746 -0.5142  0.0402  0.4059
   67CHL1  H23B 7425   2.769   2.111   8.804  1.5482  0.0209  2.0034
   67CHL1   C24 7426   2.560   2.195   8.789 -0.4350 -0.6835  0.0147
   67CHL1  H24A 7427   2.518   2.113   8.851 -1.0723  0.2262  0.8081
   67CHL1  H24B 7428   2.513   2.293   8.812  2.3639  1.3001 -2.0686
   67CHL1   C25 7429   2.536   2.176   8.639  0.2561  0.3400 -0.4844
   67CHL1   H25 7430   2.581   2.258   8.579 -2.3774  0.7726 -2.0301
   67CHL1   C26 7431   2.598   2.048   8.587  0.0625 -0.9716 -0.1922
   67CHL1  H26A 7432   2.540   1.968   8.636 -1.1831 -0.2794 -0.5027
   67CHL1  H26B 7433   2.601   2.037   8.476  1.7617 -0.3084 -0.2530
   67CHL1  H26C 7434   2.705   2.042   8.615  0.7278 -1.8716 -2.6414
   67CHL1   C27 7435   2.387   2.173   8.602 -0.6145 -0.0990 -0.7998
   67CHL1  H27A 7436   2.385   2.194   8.492  1.0078  0.3627 -0.7697
   67CHL1  H27B 7437   2.348   2.069   8.602  2.1256 -1.1937 -1.1696
   67CHL1  H27C 7438   2.323   2.252   8.648 -1.4365  0.1313 -2.2634
   68CHL1    C3 7439   3.615   1.422  10.257 -0.1131 -0.1224  0.3274
   68CHL1    H3 7440   3.646   1.524  10.289  0.1992  1.0718 -3.3186
   68CHL1    O3 7441   3.585   1.347  10.372 -0.1839 -0.3761 -0.3321
   68CHL1   H3' 7442   3.506   1.295  10.351  0.2614 -1.7892  1.2869
   68CHL1    C4 7443   3.488   1.447  10.167 -0.3706 -0.1509  0.6379
   68CHL1   H4A 7444   3.457   1.349  10.125 -3.3356  1.7584 -2.0630
   68CHL1   H4B 7445   3.406   1.484  10.232 -0.5473  1.1256 -0.2648
   68CHL1    C5 7446   3.521   1.534  10.051 -0.2083  0.7994 -0.7614
   68CHL1    C6 7447   3.451   1.644  10.027  0.2463 -0.5359  0.0815
   68CHL1    H6 7448   3.364   1.673  10.088  0.9340  2.6472 -0.2679
   68CHL1    C7 7449   3.474   1.722   9.903 -0.7317 -0.4605  0.1332
   68CHL1   H7A 7450   3.381   1.735   9.844 -0.8124 -0.6929  0.2097
   68CHL1   H7B 7451   3.507   1.825   9.929  2.3844 -1.5804  1.1084
   68CHL1    C8 7452   3.573   1.660   9.803  0.3589  0.9736 -0.2029
   68CHL1    H8 7453   3.519   1.573   9.761  3.5054 -0.7721 -0.8897
   68CHL1   C14 7454   3.616   1.744   9.689  0.7519  0.4518  0.5519
   68CHL1   H14 7455   3.676   1.827   9.731 -0.6652  1.7839  0.0395
   68CHL1   C15 7456   3.511   1.814   9.601  0.5034  0.0159  0.4004
   68CHL1  H15A 7457   3.437   1.732   9.590  1.3251 -0.8159  0.9002
   68CHL1  H15B 7458   3.473   1.903   9.655 -1.1350  2.0986 -3.7234
   68CHL1   C16 7459   3.586   1.851   9.469  0.2744 -0.2031 -0.1017
   68CHL1  H16A 7460   3.528   1.801   9.389 -2.5473  1.2347  0.9297
   68CHL1  H16B 7461   3.597   1.958   9.442 -0.9566  0.2172  0.9993
   68CHL1   C17 7462   3.727   1.786   9.479  0.0174  0.0297 -0.4068
   68CHL1   H17 7463   3.804   1.856   9.517 -2.5874  2.3932  0.8390
   68CHL1   C13 7464   3.714   1.679   9.588 -0.4416  0.8653 -0.9063
   68CHL1   C18 7465   3.651   1.553   9.525  0.5486 -0.1197 -0.3150
   68CHL1  H18A 7466   3.562   1.590   9.470 -0.4801 -0.3472  1.1451
   68CHL1  H18B 7467   3.719   1.497   9.457 -0.6042 -3.1974  0.9058
   68CHL1  H18C 7468   3.622   1.472   9.595 -0.7411 -0.2277 -0.9335
   68CHL1   C12 7469   3.844   1.649   9.664 -0.3502 -0.4574  0.5409
   68CHL1  H12A 7470   3.920   1.590   9.609 -0.5273  0.1677 -0.4044
   68CHL1  H12B 7471   3.880   1.744   9.709 -1.3596 -0.0542  0.5298
   68CHL1   C11 7472   3.815   1.550   9.779 -0.4153 -0.5078 -0.5601
   68CHL1  H11A 7473   3.797   1.450   9.735 -0.9967 -0.7895  0.3003
   68CHL1  H11B 7474   3.909   1.551   9.839 -0.3738 -1.7948 -0.5788
   68CHL1    C9 7475   3.698   1.597   9.871  0.2495 -0.0167 -1.3686
   68CHL1    H9 7476   3.729   1.684   9.934 -0.7921 -1.3035  1.0716
   68CHL1   C10 7477   3.641   1.484   9.971  0.1247 -0.4580 -0.1668
   68CHL1   C19 7478   3.606   1.350   9.902  0.0275  0.0847  0.4315
   68CHL1  H19A 7479   3.566   1.277   9.976  1.2851 -0.4171  0.6592
   68CHL1  H19B 7480   3.539   1.368   9.815  1.3102  0.0943 -0.5929
   68CHL1  H19C 7481   3.697   1.305   9.856  0.9304  1.6860  0.5979
   68CHL1    C1 7482   3.762   1.447  10.062  0.2965 -0.0793 -0.1741
   68CHL1   H1A 7483   3.840   1.394  10.003  1.0651 -1.1504  1.7127
   68CHL1   H1B 7484   3.816   1.538  10.095  0.0276  0.6923 -1.7761
   68CHL1    C2 7485   3.734   1.358  10.184 -0.3558  0.4007 -0.5976
   68CHL1   H2A 7486   3.820   1.353  10.254 -0.4046 -0.7612 -0.6048
   68CHL1   H2B 7487   3.705   1.255  10.156  1.9934 -0.8908  1.3950
   68CHL1   C20 7488   3.790   1.738   9.339  0.3396 -0.6298 -0.3018
   68CHL1   H20 7489   3.726   1.652   9.310 -1.2255 -0.1307  1.5303
   68CHL1   C21 7490   3.938   1.699   9.354  0.0964  0.2054 -0.0010
   68CHL1  H21A 7491   3.979   1.660   9.258 -1.8071  0.8128 -1.1227
   68CHL1  H21B 7492   3.940   1.609   9.420  4.2510 -0.7500 -1.1839
   68CHL1  H21C 7493   4.001   1.783   9.390  1.1419 -0.8626  0.7333
   68CHL1   C22 7494   3.779   1.846   9.229  0.2567  0.1356 -0.1646
   68CHL1  H22A 7495   3.819   1.945   9.261  2.0046  0.2712 -2.4958
   68CHL1  H22B 7496   3.854   1.809   9.156  0.8476 -1.8077  1.3613
   68CHL1   C23 7497   3.650   1.851   9.141 -0.1784 -0.1157  0.0741
   68CHL1  H23A 7498   3.636   1.744   9.115 -1.5415 -0.1570  0.8491
   68CHL1  H23B 7499   3.564   1.881   9.205 -1.4856 -0.5967 -1.4068
   68CHL1   C24 7500   3.658   1.944   9.022  0.3701  0.4268 -0.0787
   68CHL1  H24A 7501   3.645   2.047   9.062 -0.3272 -0.2214  1.4264
   68CHL1  H24B 7502   3.759   1.934   8.977 -0.3349  1.7839 -2.1028
   68CHL1   C25 7503   3.564   1.911   8.901 -0.3363 -0.9578  0.3414
   68CHL1   H25 7504   3.459   1.923   8.938  0.0704  1.5648  0.8708
   68CHL1   C26 7505   3.575   2.019   8.792  0.1387 -0.9906 -0.2805
   68CHL1  H26A 7506   3.576   2.121   8.834 -0.4544 -1.4336  0.8653
   68CHL1  H26B 7507   3.669   2.016   8.733  1.1648  0.6003  1.2242
   68CHL1  H26C 7508   3.485   2.011   8.726 -0.3641  0.1703  0.2343
   68CHL1   C27 7509   3.588   1.773   8.838 -0.3895 -0.0420  0.3148
   68CHL1  H27A 7510   3.503   1.748   8.770  0.0134  2.2701 -1.1479
   68CHL1  H27B 7511   3.680   1.775   8.775 -1.2072  1.8873 -0.9229
   68CHL1  H27C 7512   3.607   1.696   8.916  0.2951  1.2472  1.4592
   69CHL1    C3 7513   0.251   5.220   6.675 -0.0886 -0.2781  0.7989
   69CHL1    H3 7514   0.305   5.126   6.700 -2.6375 -1.6025  1.7457
   69CHL1    O3 7515   0.194   5.191   6.545 -0.0595 -0.4338  0.1670
   69CHL1   H3' 7516   0.143   5.272   6.535 -0.3470 -0.5338  0.7859
   69CHL1    C4 7517   0.141   5.229   6.778 -0.4117  0.5150  0.2204
   69CHL1   H4A 7518   0.092   5.328   6.766  2.0446  1.8189  0.1523
   69CHL1   H4B 7519   0.067   5.147   6.766 -0.0115  0.1112  0.4621
   69CHL1    C5 7520   0.217   5.235   6.905  0.0559 -0.0473 -0.2681
   69CHL1    C6 7521   0.183   5.149   6.999 -1.1163  0.0461 -0.5132
   69CHL1    H6 7522   0.105   5.075   6.977 -1.7574  0.3089  0.7733
   69CHL1    C7 7523   0.239   5.149   7.144 -0.2668  0.2636  0.4369
   69CHL1   H7A 7524   0.155   5.131   7.214  0.6447 -1.8053  1.0644
   69CHL1   H7B 7525   0.305   5.061   7.161 -1.4398 -0.7688 -0.1987
   69CHL1    C8 7526   0.323   5.279   7.171 -0.0630 -0.0703 -0.4251
   69CHL1    H8 7527   0.249   5.359   7.191  0.3541  0.4834 -1.0405
   69CHL1   C14 7528   0.411   5.249   7.296 -0.0737 -0.0629 -0.6478
   69CHL1   H14 7529   0.486   5.171   7.272 -0.2028 -0.7209  0.9439
   69CHL1   C15 7530   0.347   5.202   7.431  0.1209  0.5613  1.0538
   69CHL1  H15A 7531   0.260   5.268   7.451  0.5062  0.5961  2.8044
   69CHL1  H15B 7532   0.311   5.097   7.435  0.5624  0.4419  2.2850
   69CHL1   C16 7533   0.453   5.232   7.539  0.5511  0.3199  0.2685
   69CHL1  H16A 7534   0.395   5.293   7.611 -0.3540 -1.1952  0.8701
   69CHL1  H16B 7535   0.500   5.147   7.593 -1.4375 -0.4140  0.9254
   69CHL1   C17 7536   0.560   5.332   7.473  0.2377 -0.5734 -0.5861
   69CHL1   H17 7537   0.655   5.275   7.458  0.4976 -0.3675  0.2389
   69CHL1   C13 7538   0.495   5.370   7.334  0.8996 -0.4637 -0.9171
   69CHL1   C18 7539   0.404   5.488   7.367 -0.2701 -0.0999  0.0747
   69CHL1  H18A 7540   0.465   5.581   7.367  0.3692 -0.5076  0.4898
   69CHL1  H18B 7541   0.329   5.508   7.288  0.1190 -1.0234 -0.5468
   69CHL1  H18C 7542   0.348   5.482   7.463 -2.0611  0.8698 -0.8611
   69CHL1   C12 7543   0.584   5.403   7.219 -0.1707 -0.3431  0.1693
   69CHL1  H12A 7544   0.658   5.485   7.231 -1.4930  1.1769 -1.4934
   69CHL1  H12B 7545   0.640   5.309   7.201  0.6557  0.6733 -3.4321
   69CHL1   C11 7546   0.507   5.442   7.091  0.3950  0.7895  0.1586
   69CHL1  H11A 7547   0.454   5.539   7.104  0.2694  0.3979  3.3655
   69CHL1  H11B 7548   0.583   5.453   7.011  1.5522  0.2117  1.1345
   69CHL1    C9 7549   0.411   5.320   7.053 -0.1653  0.1293  0.1523
   69CHL1    H9 7550   0.472   5.234   7.019 -0.4508  0.1578 -0.4564
   69CHL1   C10 7551   0.323   5.342   6.926  0.0357  0.0075 -0.7749
   69CHL1   C19 7552   0.242   5.475   6.933  0.0874 -0.3111  1.2726
   69CHL1  H19A 7553   0.310   5.563   6.936 -0.5329  0.2039  0.5522
   69CHL1  H19B 7554   0.196   5.489   6.833  3.2839  1.6561 -0.0832
   69CHL1  H19C 7555   0.172   5.482   7.020 -0.0342  0.6222  1.1132
   69CHL1    C1 7556   0.419   5.350   6.804  0.2059 -0.4936 -0.4335
   69CHL1   H1A 7557   0.487   5.438   6.808  0.7434 -0.9426  3.0055
   69CHL1   H1B 7558   0.482   5.259   6.793  0.5422 -0.3748  0.4509
   69CHL1    C2 7559   0.339   5.347   6.669  0.4694 -0.3509 -0.8401
   69CHL1   H2A 7560   0.402   5.347   6.578 -0.0431 -0.6824 -1.2006
   69CHL1   H2B 7561   0.274   5.437   6.657  2.7378  1.6588  0.7142
   69CHL1   C20 7562   0.605   5.448   7.570 -0.7034  0.3576 -0.0554
   69CHL1   H20 7563   0.518   5.512   7.597 -0.1785  1.3483 -0.6576
   69CHL1   C21 7564   0.706   5.547   7.515  0.0105 -0.3692  0.5963
   69CHL1  H21A 7565   0.673   5.587   7.417  0.2221 -0.5722  0.4407
   69CHL1  H21B 7566   0.804   5.496   7.499  0.6212  0.4491  1.6575
   69CHL1  H21C 7567   0.725   5.630   7.586 -2.6105  1.8838 -1.1165
   69CHL1   C22 7568   0.667   5.381   7.697 -0.5932  0.0752  0.1710
   69CHL1  H22A 7569   0.612   5.290   7.732 -1.8824  1.4776  2.0168
   69CHL1  H22B 7570   0.766   5.341   7.668 -0.5371  0.4522 -0.1555
   69CHL1   C23 7571   0.666   5.470   7.822 -0.8852  0.8318  0.7144
   69CHL1  H23A 7572   0.740   5.550   7.801 -1.0007  0.7987  0.1677
   69CHL1  H23B 7573   0.566   5.515   7.840 -1.1273  0.0409  1.4283
   69CHL1   C24 7574   0.709   5.400   7.957 -0.6646 -0.8168 -0.0154
   69CHL1  H24A 7575   0.662   5.300   7.955  0.2212 -1.2364 -1.2038
   69CHL1  H24B 7576   0.819   5.390   7.963 -0.5181  0.7427  0.3565
   69CHL1   C25 7577   0.673   5.479   8.086  0.2962 -0.1175  0.2804
   69CHL1   H25 7578   0.564   5.500   8.091  0.3998  1.4159 -2.1651
   69CHL1   C26 7579   0.703   5.397   8.212  0.9102  0.0077 -0.2951
   69CHL1  H26A 7580   0.813   5.379   8.209  1.3310  2.0796  0.7175
   69CHL1  H26B 7581   0.674   5.456   8.301  0.1188 -0.4060 -0.2689
   69CHL1  H26C 7582   0.649   5.300   8.212 -2.0204  1.5244  0.0968
   69CHL1   C27 7583   0.749   5.612   8.096  0.0316 -0.7824  0.3035
   69CHL1  H27A 7584   0.710   5.665   8.186 -4.2660 -1.4200 -1.0005
   69CHL1  H27B 7585   0.857   5.586   8.106  0.2459 -0.4818 -1.0804
   69CHL1  H27C 7586   0.736   5.680   8.010  1.0808 -0.7382  0.1679
   70CHL1    C3 7587   3.046   2.167   7.004 -0.2759  0.2457 -0.9075
   70CHL1    H3 7588   2.938   2.191   7.011  0.0870  2.1385 -1.3477
   70CHL1    O3 7589   3.076   2.148   6.867  0.3237  0.1910  0.2168
   70CHL1   H3' 7590   3.116   2.231   6.841 -1.1167  0.8698  0.0345
   70CHL1    C4 7591   3.132   2.290   7.058 -0.1027 -0.0423 -0.4555
   70CHL1   H4A 7592   3.235   2.281   7.016 -1.0598 -1.6484 -2.6838
   70CHL1   H4B 7593   3.082   2.379   7.016  0.3058  0.0855 -0.6671
   70CHL1    C5 7594   3.114   2.295   7.209  0.2835 -0.3116  0.2842
   70CHL1    C6 7595   3.052   2.397   7.279 -0.5768 -0.3958  0.0904
   70CHL1    H6 7596   3.025   2.484   7.217 -1.1338 -1.4418 -1.1740
   70CHL1    C7 7597   3.049   2.416   7.425  0.5001  0.2996  0.0558
   70CHL1   H7A 7598   3.085   2.520   7.444 -0.4034  0.5358  0.5707
   70CHL1   H7B 7599   2.943   2.412   7.457  0.0408 -1.6994 -1.5170
   70CHL1    C8 7600   3.130   2.308   7.505 -0.1273  0.4824  0.3217
   70CHL1    H8 7601   3.235   2.344   7.504  0.6647 -1.5272 -2.2067
   70CHL1   C14 7602   3.069   2.290   7.644  0.2797  0.3966  0.3691
   70CHL1   H14 7603   2.971   2.246   7.618  0.2950  0.1838  0.6619
   70CHL1   C15 7604   3.052   2.404   7.738  0.3695  0.0724 -0.2450
   70CHL1  H15A 7605   3.137   2.473   7.717 -0.1910  0.7777 -0.2630
   70CHL1  H15B 7606   2.958   2.457   7.709  0.3414  1.5252  2.2112
   70CHL1   C16 7607   3.042   2.352   7.882 -0.0375 -0.8656 -0.8294
   70CHL1  H16A 7608   3.113   2.400   7.953 -2.2506  3.1800 -1.0552
   70CHL1  H16B 7609   2.946   2.361   7.936  0.6472 -0.7189  0.3912
   70CHL1   C17 7610   3.074   2.201   7.866 -0.3534 -0.1418  0.2440
   70CHL1   H17 7611   2.973   2.154   7.864 -0.6806  0.4899  1.1998
   70CHL1   C13 7612   3.143   2.184   7.733  0.7465  0.0306 -0.0096
   70CHL1   C18 7613   3.289   2.218   7.751 -0.0533  0.7638  0.3223
   70CHL1  H18A 7614   3.344   2.230   7.655 -0.0901  1.7314  0.4217
   70CHL1  H18B 7615   3.294   2.319   7.796  0.9638  0.3536  1.1911
   70CHL1  H18C 7616   3.335   2.141   7.818 -1.8913 -0.2997  0.4086
   70CHL1   C12 7617   3.118   2.051   7.670 -0.0295  0.0080 -0.2012
   70CHL1  H12A 7618   3.160   1.964   7.726  2.6728  1.3940  0.0916
   70CHL1  H12B 7619   3.010   2.028   7.654 -0.5986  1.6836  1.0092
   70CHL1   C11 7620   3.170   2.058   7.522  0.0572 -0.2463 -0.4339
   70CHL1  H11A 7621   3.280   2.072   7.521  0.1421 -0.8146  0.3138
   70CHL1  H11B 7622   3.153   1.957   7.478  1.0576 -0.1210 -1.1277
   70CHL1    C9 7623   3.111   2.168   7.438 -0.4843 -0.2727  0.1726
   70CHL1    H9 7624   3.002   2.150   7.442 -0.8381  1.7302  0.6021
   70CHL1   C10 7625   3.162   2.170   7.286  0.4310  0.3192 -0.3340
   70CHL1   C19 7626   3.309   2.156   7.270 -0.7430  0.3258  0.0059
   70CHL1  H19A 7627   3.360   2.075   7.328  1.1688  1.0912 -0.5388
   70CHL1  H19B 7628   3.331   2.159   7.162  2.2304  0.3485  0.5221
   70CHL1  H19C 7629   3.356   2.244   7.320 -2.8841  1.3204  0.3897
   70CHL1    C1 7630   3.090   2.042   7.224 -0.1184 -1.3429 -0.5654
   70CHL1   H1A 7631   3.154   1.966   7.274 -0.5577 -1.1815  0.2579
   70CHL1   H1B 7632   2.989   2.030   7.270 -0.7492 -1.3888 -1.9135
   70CHL1    C2 7633   3.089   2.037   7.074  0.1505  0.4241 -0.0203
   70CHL1   H2A 7634   3.018   1.959   7.038 -0.4442  1.8155 -2.0576
   70CHL1   H2B 7635   3.195   2.024   7.043 -0.3544 -2.1012 -0.9781
   70CHL1   C20 7636   3.129   2.131   7.993  0.0343 -0.4638  0.0713
   70CHL1   H20 7637   3.168   2.032   7.963  3.4366  1.2755 -1.8216
   70CHL1   C21 7638   3.007   2.097   8.081  0.6344 -0.0201 -0.1566
   70CHL1  H21A 7639   3.046   2.059   8.178 -1.0364 -0.0709  0.5327
   70CHL1  H21B 7640   2.945   2.018   8.034 -2.8366  1.0403  2.1784
   70CHL1  H21C 7641   2.944   2.182   8.116 -0.1240 -0.2033 -1.0505
   70CHL1   C22 7642   3.236   2.202   8.079  0.4385 -0.8080  0.2169
   70CHL1  H22A 7643   3.314   2.246   8.014  0.1115 -0.1366  0.2728
   70CHL1  H22B 7644   3.179   2.278   8.135 -1.6324  0.1462 -2.9284
   70CHL1   C23 7645   3.306   2.108   8.179 -0.4400 -0.1853  0.6022
   70CHL1  H23A 7646   3.233   2.039   8.224 -1.5631 -1.0815 -2.3386
   70CHL1  H23B 7647   3.381   2.043   8.128  0.9845  2.0262 -0.2812
   70CHL1   C24 7648   3.384   2.183   8.282 -0.2073 -0.3256 -0.0775
   70CHL1  H24A 7649   3.317   2.237   8.352  0.5682 -1.8163  1.9216
   70CHL1  H24B 7650   3.451   2.113   8.337 -0.2998 -0.4687 -0.1458
   70CHL1   C25 7651   3.484   2.292   8.222 -0.0243  0.5336 -0.2488
   70CHL1   H25 7652   3.417   2.364   8.170 -0.4407 -0.6857 -1.4781
   70CHL1   C26 7653   3.580   2.369   8.313 -0.3625 -0.9027  0.5052
   70CHL1  H26A 7654   3.530   2.433   8.388  0.3274  1.4294 -0.9451
   70CHL1  H26B 7655   3.655   2.300   8.358 -0.8446 -0.8232  1.4433
   70CHL1  H26C 7656   3.644   2.441   8.258  0.0320  0.4125  2.6039
   70CHL1   C27 7657   3.580   2.223   8.122 -0.3137 -0.0312 -0.0515
   70CHL1  H27A 7658   3.639   2.303   8.072 -1.0344 -0.6507 -1.9981
   70CHL1  H27B 7659   3.642   2.151   8.179 -0.2119  0.3351  0.3054
   70CHL1  H27C 7660   3.534   2.182   8.029 -0.2716 -0.8632  0.2845
   71CHL1    C3 7661   1.915   6.367   6.897  0.6171 -0.2129 -0.5531
   71CHL1    H3 7662   1.820   6.319   6.931  0.2853 -0.2292 -1.4718
   71CHL1    O3 7663   1.905   6.392   6.756 -0.2976 -0.1348 -0.3589
   71CHL1   H3' 7664   1.990   6.431   6.734 -0.8125 -0.0119 -2.3075
   71CHL1    C4 7665   1.931   6.505   6.968 -0.4484  0.1643  0.3533
   71CHL1   H4A 7666   2.010   6.567   6.920  0.0198  0.0428  0.9515
   71CHL1   H4B 7667   1.836   6.561   6.954 -1.8265 -2.2710 -0.7419
   71CHL1    C5 7668   1.941   6.493   7.115  0.1194  0.3192  0.1043
   71CHL1    C6 7669   1.852   6.536   7.202 -0.2765  0.6003  0.4306
   71CHL1    H6 7670   1.761   6.588   7.168 -0.5512 -0.4177 -0.4308
   71CHL1    C7 7671   1.874   6.512   7.351 -0.8232  0.0135 -0.4626
   71CHL1   H7A 7672   1.848   6.595   7.420  0.8913 -0.4641  0.8263
   71CHL1   H7B 7673   1.808   6.426   7.376 -0.6612  0.2956  1.0389
   71CHL1    C8 7674   2.017   6.472   7.395  0.2265 -0.6064 -0.1528
   71CHL1    H8 7675   2.080   6.561   7.373 -0.1072 -0.5214 -0.7796
   71CHL1   C14 7676   2.032   6.433   7.541 -0.5021 -0.5954  0.1592
   71CHL1   H14 7677   1.985   6.333   7.549 -2.3506 -0.0388 -2.3747
   71CHL1   C15 7678   1.973   6.529   7.641  0.4349  0.4256 -0.6094
   71CHL1  H15A 7679   1.999   6.627   7.596  0.4729  0.0608 -1.3946
   71CHL1  H15B 7680   1.863   6.521   7.649  0.3965  1.6006  0.5615
   71CHL1   C16 7681   2.044   6.496   7.773 -0.0236  0.9227 -0.3569
   71CHL1  H16A 7682   2.090   6.591   7.807  1.8702  1.1487 -3.1615
   71CHL1  H16B 7683   1.965   6.452   7.837 -0.0636  2.2175  0.5116
   71CHL1   C17 7684   2.162   6.395   7.740 -0.0662  0.0107  0.2923
   71CHL1   H17 7685   2.117   6.293   7.747 -0.6837  0.2605 -0.0118
   71CHL1   C13 7686   2.173   6.412   7.585 -0.2202 -0.4256 -0.7129
   71CHL1   C18 7687   2.260   6.536   7.560  0.3312 -0.3275 -0.1710
   71CHL1  H18A 7688   2.277   6.542   7.450  2.7216 -4.4683 -0.2469
   71CHL1  H18B 7689   2.217   6.624   7.612 -1.8688 -3.6575  4.2169
   71CHL1  H18C 7690   2.364   6.519   7.596  1.4491 -0.1185 -3.0215
   71CHL1   C12 7691   2.223   6.288   7.512  0.3492 -0.7910 -0.3426
   71CHL1  H12A 7692   2.331   6.270   7.529  0.3016 -1.7196 -0.9778
   71CHL1  H12B 7693   2.164   6.201   7.548 -0.2979 -0.5548 -0.8034
   71CHL1   C11 7694   2.210   6.310   7.361  0.6194 -0.6613  0.0825
   71CHL1  H11A 7695   2.289   6.382   7.331  0.1687  0.8133  2.2588
   71CHL1  H11B 7696   2.236   6.209   7.321  1.3796 -0.5324  0.2394
   71CHL1    C9 7697   2.079   6.368   7.305  0.7721 -0.3110  0.1795
   71CHL1    H9 7698   2.002   6.290   7.323 -1.3743  1.5897 -0.4000
   71CHL1   C10 7699   2.065   6.407   7.157 -0.2122 -0.0891 -0.4180
   71CHL1   C19 7700   2.196   6.477   7.119 -0.0317 -0.0352 -0.2466
   71CHL1  H19A 7701   2.279   6.402   7.117  0.4090  0.3907  1.0162
   71CHL1  H19B 7702   2.189   6.539   7.028  0.0633  1.7691  0.9328
   71CHL1  H19C 7703   2.211   6.549   7.203 -0.9213 -0.3786  0.2142
   71CHL1    C1 7704   2.063   6.271   7.073  0.0084  0.0515 -0.4492
   71CHL1   H1A 7705   2.146   6.204   7.104 -0.1452 -0.3057 -0.8134
   71CHL1   H1B 7706   1.969   6.220   7.104 -1.6883  1.6600 -2.6294
   71CHL1    C2 7707   2.038   6.280   6.927  0.4388 -0.3138  0.4102
   71CHL1   H2A 7708   2.037   6.178   6.884 -1.1785  0.2240 -0.9353
   71CHL1   H2B 7709   2.121   6.334   6.877 -1.4475  1.6532 -0.7968
   71CHL1   C20 7710   2.282   6.413   7.836 -0.1555 -0.6628  0.4605
   71CHL1   H20 7711   2.335   6.506   7.805  0.5925 -0.1778  2.9735
   71CHL1   C21 7712   2.389   6.299   7.826 -0.4650 -0.4365  0.3366
   71CHL1  H21A 7713   2.469   6.341   7.891 -1.1133 -1.0752  1.5881
   71CHL1  H21B 7714   2.428   6.306   7.722  0.0895 -0.1480  0.5566
   71CHL1  H21C 7715   2.349   6.203   7.866 -0.0416 -0.5733  0.4387
   71CHL1   C22 7716   2.239   6.436   7.983  0.2434 -0.0749  0.1143
   71CHL1  H22A 7717   2.330   6.458   8.043 -1.0112  0.1284  2.0474
   71CHL1  H22B 7718   2.175   6.526   7.991  0.3478 -0.1124  1.6339
   71CHL1   C23 7719   2.175   6.312   8.052  0.0909 -0.7958  0.2460
   71CHL1  H23A 7720   2.111   6.253   7.983  0.5855  0.5660 -1.4541
   71CHL1  H23B 7721   2.248   6.232   8.077 -1.1310 -2.1303 -0.2769
   71CHL1   C24 7722   2.088   6.344   8.178  0.0238 -0.1947  0.1132
   71CHL1  H24A 7723   2.048   6.447   8.165 -3.0919 -1.2184  0.6488
   71CHL1  H24B 7724   2.003   6.272   8.184 -2.0834  2.2274  1.7863
   71CHL1   C25 7725   2.165   6.339   8.317  0.5726  0.1328 -0.4861
   71CHL1   H25 7726   2.190   6.231   8.324 -1.4575 -0.3146  0.7059
   71CHL1   C26 7727   2.279   6.436   8.319  0.1857  0.2154 -0.0242
   71CHL1  H26A 7728   2.357   6.406   8.245 -0.7925 -1.6383 -0.3562
   71CHL1  H26B 7729   2.243   6.539   8.297 -1.0109 -0.0321  0.6875
   71CHL1  H26C 7730   2.332   6.429   8.416 -0.5830 -2.7871  0.2868
   71CHL1   C27 7731   2.056   6.377   8.418  0.2878 -0.1199 -1.0099
   71CHL1  H27A 7732   2.015   6.477   8.394 -0.1499 -0.2860 -0.9581
   71CHL1  H27B 7733   1.977   6.300   8.405  1.2084 -1.2813 -0.0504
   71CHL1  H27C 7734   2.097   6.374   8.522 -0.5687  2.2023 -0.5498
   72CHL1    C3 7735   3.944   6.290   7.050  0.1245  0.3287 -0.1676
   72CHL1    H3 7736   4.049   6.266   7.022  0.7094  1.0549  1.2674
   72CHL1    O3 7737   3.861   6.302   6.937 -0.3680  0.2308  0.1040
   72CHL1   H3' 7738   3.776   6.264   6.958 -0.9665 -0.2921 -2.9149
   72CHL1    C4 7739   3.890   6.177   7.138 -0.2601 -0.6078 -0.6599
   72CHL1   H4A 7740   3.785   6.199   7.165  0.4246  2.0495  0.1416
   72CHL1   H4B 7741   3.885   6.079   7.084  0.5989 -0.3182 -1.2923
   72CHL1    C5 7742   3.968   6.155   7.265 -0.4875  0.3704 -0.3268
   72CHL1    C6 7743   4.032   6.045   7.297  0.4645  0.3394  0.3089
   72CHL1    H6 7744   4.017   5.960   7.229 -1.4301 -0.1113  1.2104
   72CHL1    C7 7745   4.122   6.034   7.413 -0.9308  0.1090 -0.5176
   72CHL1   H7A 7746   4.099   5.935   7.458 -3.3739  1.0967  0.5776
   72CHL1   H7B 7747   4.224   6.024   7.370 -1.8258 -5.5807 -2.0749
   72CHL1    C8 7748   4.095   6.134   7.524  0.1894 -0.1089 -0.1679
   72CHL1    H8 7749   3.995   6.109   7.567 -0.3261 -0.3365 -1.4592
   72CHL1   C14 7750   4.204   6.125   7.630 -0.2067 -0.2183  1.7633
   72CHL1   H14 7751   4.288   6.142   7.560 -1.7203 -0.1921 -0.1290
   72CHL1   C15 7752   4.230   5.986   7.701  0.7860  0.4784 -0.0467
   72CHL1  H15A 7753   4.124   5.954   7.714  1.3990 -1.7146 -0.0347
   72CHL1  H15B 7754   4.281   5.909   7.640 -0.3812 -0.1499 -0.2566
   72CHL1   C16 7755   4.295   6.023   7.835 -0.2586  0.2464  1.0637
   72CHL1  H16A 7756   4.233   5.997   7.923 -0.0936  0.1890  1.1623
   72CHL1  H16B 7757   4.395   5.976   7.847 -0.3113  0.4405  2.3303
   72CHL1   C17 7758   4.318   6.183   7.833  0.9468  0.2742  0.4467
   72CHL1   H17 7759   4.405   6.196   7.765 -0.2740  1.1289 -1.0103
   72CHL1   C13 7760   4.203   6.224   7.743  0.6403  0.2711 -0.1730
   72CHL1   C18 7761   4.073   6.216   7.828 -0.1849  0.5919  0.4866
   72CHL1  H18A 7762   4.077   6.279   7.919 -0.1838  1.5210 -0.1405
   72CHL1  H18B 7763   3.990   6.269   7.777 -0.8141  0.9628  1.8373
   72CHL1  H18C 7764   4.034   6.116   7.855  0.7454  0.3567  1.0138
   72CHL1   C12 7765   4.204   6.374   7.678  0.6879 -0.3512 -0.2123
   72CHL1  H12A 7766   4.181   6.436   7.768 -2.6711 -1.2021 -0.3640
   72CHL1  H12B 7767   4.302   6.398   7.633  1.3101  0.3069  1.4155
   72CHL1   C11 7768   4.094   6.392   7.574  0.4194  0.6551  0.7941
   72CHL1  H11A 7769   3.995   6.398   7.622 -0.5102 -2.6001 -0.4891
   72CHL1  H11B 7770   4.109   6.485   7.514  0.5204 -1.5071 -2.7926
   72CHL1    C9 7771   4.094   6.273   7.467 -0.0421 -0.2204  0.3615
   72CHL1    H9 7772   4.192   6.275   7.414 -0.4227 -2.0386 -0.4718
   72CHL1   C10 7773   3.987   6.289   7.345  0.0825 -0.0734 -0.6378
   72CHL1   C19 7774   3.847   6.330   7.409  0.5620 -0.5241  0.2440
   72CHL1  H19A 7775   3.761   6.332   7.339 -1.6121  0.0391  2.7481
   72CHL1  H19B 7776   3.810   6.269   7.495  0.8934  0.5224  1.1548
   72CHL1  H19C 7777   3.857   6.429   7.458  0.7427 -1.0831  1.3810
   72CHL1    C1 7778   4.043   6.403   7.253 -0.1593  0.7406 -0.5761
   72CHL1   H1A 7779   4.042   6.497   7.312  2.0172  0.1846  0.4405
   72CHL1   H1B 7780   4.142   6.366   7.218 -1.3275 -4.2463  0.6123
   72CHL1    C2 7781   3.957   6.425   7.127 -0.3025  0.5716  0.2175
   72CHL1   H2A 7782   3.989   6.506   7.058 -0.5313 -1.2191 -2.1365
   72CHL1   H2B 7783   3.855   6.462   7.151 -1.6874 -0.9756 -2.7056
   72CHL1   C20 7784   4.348   6.252   7.969 -0.5920 -0.8703  0.3879
   72CHL1   H20 7785   4.253   6.243   8.026 -0.0045  0.5462  1.6764
   72CHL1   C21 7786   4.393   6.398   7.954  0.4741 -0.6803  0.4659
   72CHL1  H21A 7787   4.469   6.410   7.874  2.9475  0.6037  2.8176
   72CHL1  H21B 7788   4.431   6.440   8.049 -1.6270  1.2464  0.5336
   72CHL1  H21C 7789   4.315   6.468   7.918 -0.7109 -1.6437  1.0700
   72CHL1   C22 7790   4.446   6.176   8.061 -0.4460  0.2078  0.4965
   72CHL1  H22A 7791   4.416   6.069   8.055  2.6190 -0.7602  0.5001
   72CHL1  H22B 7792   4.553   6.168   8.031 -0.4038 -3.5561  1.1406
   72CHL1   C23 7793   4.421   6.209   8.210  0.0851 -0.3653 -0.8075
   72CHL1  H23A 7794   4.438   6.317   8.230 -1.8870 -0.0032 -0.8569
   72CHL1  H23B 7795   4.318   6.180   8.240  0.4641 -0.2422  0.6890
   72CHL1   C24 7796   4.519   6.134   8.308  0.9054 -0.3008 -0.2588
   72CHL1  H24A 7797   4.511   6.025   8.290  0.6197 -0.2784 -0.2776
   72CHL1  H24B 7798   4.618   6.172   8.274  0.1260  0.3112 -1.9800
   72CHL1   C25 7799   4.512   6.185   8.453  0.2586  1.2268  0.8913
   72CHL1   H25 7800   4.510   6.296   8.451 -2.0216  1.2427 -1.6183
   72CHL1   C26 7801   4.375   6.146   8.514 -0.2323 -0.5714 -0.7789
   72CHL1  H26A 7802   4.377   6.183   8.619  1.2335  0.0223 -0.9870
   72CHL1  H26B 7803   4.282   6.187   8.467  0.3383  2.1886  0.2955
   72CHL1  H26C 7804   4.360   6.036   8.515  0.0235 -0.6045  0.6811
   72CHL1   C27 7805   4.637   6.140   8.533 -0.4787 -0.5865 -0.5355
   72CHL1  H27A 7806   4.648   6.198   8.628  0.5429 -0.5725 -0.6511
   72CHL1  H27B 7807   4.628   6.033   8.561  2.6543 -0.9271 -0.4559
   72CHL1  H27C 7808   4.733   6.171   8.486 -0.9696  2.2524  0.1391
   73CHL1    C3 7809   2.258   0.485   7.129 -0.3047 -0.0495  0.1272
   73CHL1    H3 7810   2.186   0.402   7.118  0.7659 -0.8035 -1.4808
   73CHL1    O3 7811   2.322   0.501   7.004  0.4847 -0.0095 -0.3948
   73CHL1   H3' 7812   2.294   0.587   6.972 -0.1065 -0.7945 -2.0960
   73CHL1    C4 7813   2.195   0.623   7.164  0.1740  0.0358 -0.2640
   73CHL1   H4A 7814   2.283   0.691   7.162  0.0367  0.2186 -1.7932
   73CHL1   H4B 7815   2.120   0.656   7.089 -0.7272  0.0676  0.6382
   73CHL1    C5 7816   2.134   0.627   7.303  0.1302 -0.1546 -0.3992
   73CHL1    C6 7817   2.012   0.684   7.321  0.4024 -0.3176  0.3949
   73CHL1    H6 7818   1.963   0.730   7.235 -0.1816  1.0815  1.4333
   73CHL1    C7 7819   1.947   0.691   7.457  0.6821  0.4828  0.2656
   73CHL1   H7A 7820   1.922   0.798   7.476  1.7417  0.2107  3.6709
   73CHL1   H7B 7821   1.856   0.627   7.463  0.9124  0.2672  1.6722
   73CHL1    C8 7822   2.038   0.645   7.567 -0.7548 -0.1546 -0.0458
   73CHL1    H8 7823   2.107   0.728   7.591  0.7702 -1.3993  0.0263
   73CHL1   C14 7824   1.963   0.601   7.696 -0.1399 -0.0247  0.1934
   73CHL1   H14 7825   1.905   0.510   7.667 -2.0773  1.3257 -0.3535
   73CHL1   C15 7826   1.864   0.703   7.750 -0.5231  0.2765 -1.2635
   73CHL1  H15A 7827   1.899   0.808   7.761 -2.1014  0.8590 -1.5698
   73CHL1  H15B 7828   1.769   0.690   7.694  0.0236  1.1413 -2.4532
   73CHL1   C16 7829   1.833   0.654   7.891  0.0214  0.5185 -0.3682
   73CHL1  H16A 7830   1.848   0.739   7.961  0.1518 -1.5961  2.3580
   73CHL1  H16B 7831   1.727   0.623   7.907  0.6732 -1.5797  0.1956
   73CHL1   C17 7832   1.923   0.537   7.924  0.6996 -0.0662  0.6222
   73CHL1   H17 7833   1.884   0.438   7.893 -1.9554  1.3189 -0.7766
   73CHL1   C13 7834   2.038   0.564   7.823  0.1960  0.1393 -0.5382
   73CHL1   C18 7835   2.125   0.683   7.873  0.0017 -0.3755 -0.3417
   73CHL1  H18A 7836   2.060   0.753   7.929  1.0827  0.5693 -0.2423
   73CHL1  H18B 7837   2.203   0.654   7.946  0.0070 -0.5281 -0.4087
   73CHL1  H18C 7838   2.166   0.746   7.791  0.1049  2.1177  1.5254
   73CHL1   C12 7839   2.134   0.453   7.783  0.4511  0.0748  0.6311
   73CHL1  H12A 7840   2.204   0.438   7.868 -0.1635  3.9085  1.9970
   73CHL1  H12B 7841   2.097   0.350   7.763  0.5721  0.5850 -2.8647
   73CHL1   C11 7842   2.210   0.490   7.660 -0.8257  0.2866 -0.9647
   73CHL1  H11A 7843   2.284   0.569   7.682  1.0117 -1.9071  1.3596
   73CHL1  H11B 7844   2.269   0.399   7.635 -0.3350  0.2486  0.2584
   73CHL1    C9 7845   2.125   0.530   7.533 -0.1088 -0.4506  0.1966
   73CHL1    H9 7846   2.071   0.442   7.494  1.7081  0.0976 -4.2015
   73CHL1   C10 7847   2.219   0.560   7.413 -0.3471  0.1088  0.2945
   73CHL1   C19 7848   2.343   0.648   7.445  0.2554 -0.2880 -0.8998
   73CHL1  H19A 7849   2.407   0.671   7.357  0.8567  0.6243 -0.2429
   73CHL1  H19B 7850   2.308   0.738   7.499 -0.0487 -0.8746 -0.0928
   73CHL1  H19C 7851   2.404   0.598   7.524  0.3744  0.0341 -0.7838
   73CHL1    C1 7852   2.283   0.428   7.365 -0.6211  0.1230  0.6232
   73CHL1   H1A 7853   2.356   0.392   7.440 -0.4249 -0.8063  0.0058
   73CHL1   H1B 7854   2.206   0.348   7.356 -0.5392  0.2286 -1.5026
   73CHL1    C2 7855   2.358   0.437   7.233 -0.0114  0.6257  0.2101
   73CHL1   H2A 7856   2.402   0.341   7.199  0.1654  0.9598 -0.5129
   73CHL1   H2B 7857   2.439   0.513   7.228  2.6404 -1.9209  1.3285
   73CHL1   C20 7858   1.954   0.530   8.074 -0.3581 -0.1284  0.2891
   73CHL1   H20 7859   2.004   0.622   8.109  0.2245 -0.4177  0.2179
   73CHL1   C21 7860   2.052   0.411   8.093  0.3750 -0.2165 -0.3078
   73CHL1  H21A 7861   2.047   0.379   8.199 -0.4760  0.4022 -0.1570
   73CHL1  H21B 7862   2.158   0.440   8.077  0.2478 -0.7210 -2.2925
   73CHL1  H21C 7863   2.016   0.329   8.027 -2.2566  0.7774 -0.2154
   73CHL1   C22 7864   1.829   0.507   8.161  0.4789 -0.7162  0.3663
   73CHL1  H22A 7865   1.865   0.514   8.266 -2.6853 -0.8341  1.5764
   73CHL1  H22B 7866   1.759   0.590   8.139  0.2433 -1.4538 -1.9441
   73CHL1   C23 7867   1.750   0.372   8.143  0.0554  0.2897 -0.2390
   73CHL1  H23A 7868   1.718   0.367   8.037 -0.5799  0.2514 -0.0491
   73CHL1  H23B 7869   1.820   0.286   8.149  0.7101  0.6755 -1.9553
   73CHL1   C24 7870   1.640   0.340   8.249 -0.8241  0.0563 -0.2131
   73CHL1  H24A 7871   1.605   0.236   8.230  0.2746 -0.4102  0.1947
   73CHL1  H24B 7872   1.676   0.368   8.350 -2.1605  2.3292 -0.2999
   73CHL1   C25 7873   1.515   0.428   8.227 -0.0840  0.0748 -0.2609
   73CHL1   H25 7874   1.530   0.535   8.252 -1.0891 -0.3984  2.8006
   73CHL1   C26 7875   1.453   0.421   8.084  0.1677  0.2929  0.3950
   73CHL1  H26A 7876   1.346   0.450   8.094 -0.1935 -0.8295 -0.1200
   73CHL1  H26B 7877   1.517   0.476   8.011 -1.5455  1.5241 -0.2341
   73CHL1  H26C 7878   1.453   0.316   8.048 -2.7503  0.7050 -1.0852
   73CHL1   C27 7879   1.414   0.384   8.337 -0.6678  0.0211 -0.2965
   73CHL1  H27A 7880   1.384   0.277   8.326 -4.3111  0.9798 -0.9773
   73CHL1  H27B 7881   1.452   0.393   8.441  1.4788  0.6530 -1.0710
   73CHL1  H27C 7882   1.324   0.447   8.326 -2.2530 -2.3409 -1.7910
   74CHL1    C3 7883   1.466   4.883   6.932  0.6992 -0.2681 -0.4320
   74CHL1    H3 7884   1.551   4.812   6.933 -0.0985 -1.2707 -1.6945
   74CHL1    O3 7885   1.407   4.891   6.805  0.2117 -0.6335  0.1213
   74CHL1   H3' 7886   1.470   4.926   6.742  0.7969 -2.5777 -0.4394
   74CHL1    C4 7887   1.359   4.844   7.039 -0.3270 -0.6214 -0.4226
   74CHL1   H4A 7888   1.280   4.921   7.025 -1.0299 -0.9882  1.3614
   74CHL1   H4B 7889   1.321   4.747   7.000 -0.8621 -0.9502  0.8836
   74CHL1    C5 7890   1.411   4.846   7.183  0.3091 -0.0137 -1.2804
   74CHL1    C6 7891   1.393   4.743   7.268 -0.7663 -0.1938 -0.7890
   74CHL1    H6 7892   1.345   4.648   7.242 -1.4614  0.3597 -1.5882
   74CHL1    C7 7893   1.438   4.744   7.413  0.0121  0.0340 -0.6421
   74CHL1   H7A 7894   1.367   4.697   7.485 -0.9214  2.8356  0.4267
   74CHL1   H7B 7895   1.535   4.691   7.405 -0.5436 -0.9845 -0.8423
   74CHL1    C8 7896   1.471   4.891   7.468  0.1786 -0.4775  0.5935
   74CHL1    H8 7897   1.374   4.944   7.480 -0.5495 -0.0770 -4.6401
   74CHL1   C14 7898   1.553   4.886   7.598  0.5205  0.6877  0.0147
   74CHL1   H14 7899   1.647   4.834   7.572  0.5063  0.9900 -0.6779
   74CHL1   C15 7900   1.496   4.806   7.720 -0.0165  0.2654  0.4764
   74CHL1  H15A 7901   1.386   4.816   7.731 -0.5997 -0.7332 -3.1072
   74CHL1  H15B 7902   1.514   4.698   7.698  0.7765  0.3958  0.4665
   74CHL1   C16 7903   1.581   4.852   7.836 -0.0837  0.0793 -0.2278
   74CHL1  H16A 7904   1.526   4.883   7.927  0.7286  1.6436 -0.2266
   74CHL1  H16B 7905   1.651   4.774   7.871  0.8077  1.9740  2.5084
   74CHL1   C17 7906   1.666   4.974   7.779  0.0867 -1.0258  0.3855
   74CHL1   H17 7907   1.761   4.927   7.747  1.1582  0.8213  0.6981
   74CHL1   C13 7908   1.597   5.019   7.652 -0.5139 -0.4938 -0.7390
   74CHL1   C18 7909   1.470   5.104   7.684 -0.4969  0.7727  0.1037
   74CHL1  H18A 7910   1.410   5.074   7.772  3.1022 -1.6494  1.9915
   74CHL1  H18B 7911   1.511   5.202   7.713  0.1602  0.8199 -0.9270
   74CHL1  H18C 7912   1.410   5.120   7.592  2.3525  1.2484 -1.7892
   74CHL1   C12 7913   1.686   5.091   7.554  0.2991  0.3535 -0.4850
   74CHL1  H12A 7914   1.716   5.191   7.591  1.8080  0.2477 -1.3468
   74CHL1  H12B 7915   1.784   5.040   7.543 -0.1383 -0.8415  0.8328
   74CHL1   C11 7916   1.615   5.107   7.415  0.2549 -0.2174 -1.0269
   74CHL1  H11A 7917   1.533   5.181   7.431  0.2610 -0.5404  0.7472
   74CHL1  H11B 7918   1.687   5.141   7.339  2.7806 -1.7916  0.5099
   74CHL1    C9 7919   1.552   4.975   7.367  0.0689 -0.0496  1.2359
   74CHL1    H9 7920   1.642   4.913   7.349  0.2477 -0.4122  3.1025
   74CHL1   C10 7921   1.477   4.976   7.229  0.0754 -0.6026  0.1746
   74CHL1   C19 7922   1.361   5.077   7.242 -0.0287  1.0020 -0.4759
   74CHL1  H19A 7923   1.299   5.065   7.334  3.4007 -0.0842  1.8822
   74CHL1  H19B 7924   1.409   5.175   7.263  2.0010 -0.6315  3.6808
   74CHL1  H19C 7925   1.292   5.082   7.155  1.2276  0.8741 -1.5005
   74CHL1    C1 7926   1.575   5.024   7.120  0.6621  0.5189  0.5333
   74CHL1   H1A 7927   1.599   5.132   7.131  1.0895  0.7945 -2.2571
   74CHL1   H1B 7928   1.669   4.965   7.118  1.0810  1.1857 -0.6226
   74CHL1    C2 7929   1.519   5.022   6.969  0.0842 -0.1513  0.0036
   74CHL1   H2A 7930   1.604   5.051   6.904 -0.2295 -0.0163 -0.3449
   74CHL1   H2B 7931   1.434   5.092   6.959 -0.0800 -0.3158  0.2261
   74CHL1   C20 7932   1.733   5.076   7.876 -0.8546  0.4926 -0.6117
   74CHL1   H20 7933   1.773   5.166   7.823  0.1712 -0.9503 -2.4057
   74CHL1   C21 7934   1.851   4.998   7.941 -0.4779  0.0651  0.1243
   74CHL1  H21A 7935   1.808   4.903   7.980 -1.0062 -1.1932 -3.1943
   74CHL1  H21B 7936   1.912   5.043   8.022 -1.1812  1.3832 -0.0448
   74CHL1  H21C 7937   1.923   4.975   7.859  1.8565 -0.0717  2.1143
   74CHL1   C22 7938   1.654   5.131   7.997  0.0437  0.1509 -0.2960
   74CHL1  H22A 7939   1.565   5.173   7.945 -0.1743 -1.1958 -1.0536
   74CHL1  H22B 7940   1.615   5.056   8.069 -0.6306 -0.1323 -0.9415
   74CHL1   C23 7941   1.725   5.242   8.071 -0.0878  0.4784 -0.2425
   74CHL1  H23A 7942   1.805   5.201   8.137 -1.3778  1.0204  1.7323
   74CHL1  H23B 7943   1.779   5.310   8.001 -0.6351  1.7180  0.5006
   74CHL1   C24 7944   1.623   5.342   8.141 -0.2082  0.5667  0.2812
   74CHL1  H24A 7945   1.552   5.386   8.068 -0.9306 -1.4800 -0.3130
   74CHL1  H24B 7946   1.549   5.293   8.208 -1.4230  1.0467 -0.6602
   74CHL1   C25 7947   1.703   5.444   8.228 -0.0785  0.2361 -0.4121
   74CHL1   H25 7948   1.768   5.390   8.300 -0.6119 -0.1680 -0.2331
   74CHL1   C26 7949   1.780   5.540   8.136 -0.2861  0.3210 -0.1945
   74CHL1  H26A 7950   1.847   5.609   8.192 -0.8219  1.3268 -0.7890
   74CHL1  H26B 7951   1.843   5.482   8.065 -1.2570  0.9226 -1.5631
   74CHL1  H26C 7952   1.718   5.597   8.064 -0.7969 -1.5039 -1.2763
   74CHL1   C27 7953   1.618   5.527   8.319  0.0127  0.3614 -0.1630
   74CHL1  H27A 7954   1.542   5.587   8.264 -0.3698 -1.0457 -1.2110
   74CHL1  H27B 7955   1.557   5.466   8.390 -0.3974  0.1192 -0.7099
   74CHL1  H27C 7956   1.692   5.584   8.379  2.1323 -2.5462  0.1849
   75CHL1    C3 7957   5.316   6.707   6.790 -0.2746  0.3206 -0.2137
   75CHL1    H3 7958   5.406   6.652   6.824 -1.9561 -1.4550  1.6132
   75CHL1    O3 7959   5.290   6.687   6.659  0.8241  0.3268 -0.1377
   75CHL1   H3' 7960   5.194   6.682   6.660  0.7492  0.1377  3.2444
   75CHL1    C4 7961   5.200   6.649   6.864 -0.2198 -0.0334  0.2418
   75CHL1   H4A 7962   5.102   6.689   6.831 -0.1302 -0.3448 -0.4164
   75CHL1   H4B 7963   5.196   6.540   6.840  0.3240  0.2601 -1.2571
   75CHL1    C5 7964   5.228   6.673   7.018 -0.7465 -0.1474  0.4914
   75CHL1    C6 7965   5.218   6.572   7.104 -0.3378  0.9707  0.3052
   75CHL1    H6 7966   5.188   6.475   7.063  1.3294  0.2736  0.6525
   75CHL1    C7 7967   5.239   6.577   7.250  0.6001  0.3206 -0.0034
   75CHL1   H7A 7968   5.162   6.518   7.305  0.6563  0.0228 -0.2464
   75CHL1   H7B 7969   5.339   6.541   7.281  0.3459 -0.1620  0.2764
   75CHL1    C8 7970   5.234   6.726   7.301 -0.0829 -1.1843  0.4738
   75CHL1    H8 7971   5.133   6.771   7.293  1.0313  1.1988 -2.5906
   75CHL1   C14 7972   5.295   6.737   7.440  0.7854  0.6551 -0.8222
   75CHL1   H14 7973   5.400   6.704   7.431  1.5775  1.0279  4.1698
   75CHL1   C15 7974   5.245   6.630   7.549  0.1667  0.6180  0.1600
   75CHL1  H15A 7975   5.134   6.626   7.539  0.2417 -0.4423 -0.4602
   75CHL1  H15B 7976   5.277   6.526   7.526 -1.1007  0.4253 -0.8712
   75CHL1   C16 7977   5.289   6.698   7.678  0.2405  0.2745 -0.3721
   75CHL1  H16A 7978   5.202   6.726   7.742  0.6751  0.3150  0.2120
   75CHL1  H16B 7979   5.350   6.630   7.741  0.4960  2.1766  1.5510
   75CHL1   C17 7980   5.366   6.834   7.646 -0.1546 -0.1663 -0.2346
   75CHL1   H17 7981   5.469   6.803   7.621 -1.0244 -1.7845 -2.1216
   75CHL1   C13 7982   5.305   6.874   7.506  0.3938  0.2402  0.5557
   75CHL1   C18 7983   5.163   6.926   7.522  0.3817 -0.4192 -0.1238
   75CHL1  H18A 7984   5.164   7.018   7.584 -0.5696  0.0330 -0.7367
   75CHL1  H18B 7985   5.116   6.956   7.426  0.3315 -0.5293 -0.1338
   75CHL1  H18C 7986   5.091   6.855   7.567 -0.1065  0.4276  0.4656
   75CHL1   C12 7987   5.391   6.960   7.410 -0.1501 -0.1967 -0.3815
   75CHL1  H12A 7988   5.390   7.071   7.417 -0.1279 -0.1296 -1.2935
   75CHL1  H12B 7989   5.496   6.924   7.419  0.1789  0.6426 -0.7125
   75CHL1   C11 7990   5.343   6.946   7.264  0.4882 -0.1700  0.0806
   75CHL1  H11A 7991   5.242   6.993   7.268  0.7931  0.6361 -1.1528
   75CHL1  H11B 7992   5.407   7.002   7.193  0.4967 -1.0304 -0.6171
   75CHL1    C9 7993   5.326   6.808   7.208  0.6920  0.8282 -0.0156
   75CHL1    H9 7994   5.426   6.762   7.197  0.2525 -0.4943  1.2499
   75CHL1   C10 7995   5.271   6.816   7.060  0.0388  0.6539 -0.3186
   75CHL1   C19 7996   5.131   6.890   7.056 -0.1767 -0.0205  0.6984
   75CHL1  H19A 7997   5.046   6.845   7.111 -1.2769 -1.9889 -2.3490
   75CHL1  H19B 7998   5.142   6.998   7.079  0.4735  0.4004 -1.3996
   75CHL1  H19C 7999   5.084   6.888   6.955  1.3594 -0.2650 -0.0429
   75CHL1    C1 8000   5.373   6.873   6.957 -0.1763 -0.2244 -0.0227
   75CHL1   H1A 8001   5.387   6.980   6.981  3.3172 -0.5425 -0.1735
   75CHL1   H1B 8002   5.473   6.827   6.974  0.8073  1.7378 -0.3025
   75CHL1    C2 8003   5.329   6.855   6.809 -0.2273  0.0031 -0.2049
   75CHL1   H2A 8004   5.397   6.902   6.735 -1.6095  1.1778 -0.7636
   75CHL1   H2B 8005   5.231   6.904   6.793 -1.3872 -2.8579 -2.6600
   75CHL1   C20 8006   5.375   6.932   7.760 -0.7906 -0.2454 -0.8128
   75CHL1   H20 8007   5.277   6.976   7.787  0.3562  0.3627  2.7528
   75CHL1   C21 8008   5.454   7.055   7.720  0.0395  0.4426 -0.2550
   75CHL1  H21A 8009   5.475   7.112   7.813 -0.5616 -0.7089  0.6169
   75CHL1  H21B 8010   5.389   7.113   7.650 -1.7535 -0.9760  0.1481
   75CHL1  H21C 8011   5.551   7.028   7.674 -0.0262  0.5536 -0.4598
   75CHL1   C22 8012   5.425   6.880   7.896 -0.2917 -0.1294 -0.1109
   75CHL1  H22A 8013   5.365   6.788   7.916  0.5448 -0.6161  0.2550
   75CHL1  H22B 8014   5.531   6.847   7.882 -0.8671 -2.8149  1.0673
   75CHL1   C23 8015   5.397   6.974   8.008 -0.8314  0.1966  0.2086
   75CHL1  H23A 8016   5.488   7.036   8.018 -0.3725 -0.2080 -1.2055
   75CHL1  H23B 8017   5.305   7.032   7.983 -1.7453 -0.7320  1.2703
   75CHL1   C24 8018   5.343   6.896   8.134 -0.0128  0.5202 -0.1224
   75CHL1  H24A 8019   5.301   6.971   8.205  0.5638 -1.1833  2.1273
   75CHL1  H24B 8020   5.269   6.824   8.092  1.0474 -2.5482  2.8309
   75CHL1   C25 8021   5.446   6.803   8.207  0.0236  0.6976  0.1511
   75CHL1   H25 8022   5.501   6.737   8.137  0.4283  2.2682 -1.0814
   75CHL1   C26 8023   5.561   6.867   8.281  0.5272  0.0463 -0.2829
   75CHL1  H26A 8024   5.510   6.928   8.359 -2.9610 -1.7126 -0.9739
   75CHL1  H26B 8025   5.628   6.788   8.321 -1.8948 -2.6118 -1.1816
   75CHL1  H26C 8026   5.604   6.939   8.208  0.2362  1.3571  0.7860
   75CHL1   C27 8027   5.366   6.699   8.296 -0.4040 -1.0356 -0.6512
   75CHL1  H27A 8028   5.285   6.658   8.232  1.4370 -0.2233 -3.6858
   75CHL1  H27B 8029   5.427   6.611   8.324  0.7558  0.1635  0.7910
   75CHL1  H27C 8030   5.340   6.749   8.392  0.0684 -2.0271  0.0032
   76CHL1    C3 8031   3.595   5.050   7.318  0.7159  0.3029 -0.5533
   76CHL1    H3 8032   3.703   5.033   7.297  0.7791  1.8599 -1.6147
   76CHL1    O3 8033   3.524   5.028   7.196  0.1914 -0.5563  0.1478
   76CHL1   H3' 8034   3.432   5.016   7.221 -0.0028 -1.9630 -1.0792
   76CHL1    C4 8035   3.547   4.943   7.417 -0.1776  0.1737 -0.4568
   76CHL1   H4A 8036   3.437   4.935   7.430 -0.2638  0.5952 -0.8859
   76CHL1   H4B 8037   3.573   4.843   7.375 -0.4076  0.1129 -0.4546
   76CHL1    C5 8038   3.622   4.965   7.545  0.0068 -0.0523 -0.0344
   76CHL1    C6 8039   3.693   4.859   7.594 -0.1774 -0.3487 -0.3084
   76CHL1    H6 8040   3.703   4.764   7.541 -0.2738 -1.2064  1.1681
   76CHL1    C7 8041   3.776   4.881   7.719  0.0811 -0.0717  0.5146
   76CHL1   H7A 8042   3.781   4.791   7.785 -1.2866 -0.7737 -0.2711
   76CHL1   H7B 8043   3.878   4.904   7.684  0.5495 -0.7854  1.3676
   76CHL1    C8 8044   3.732   5.008   7.804 -0.0745 -0.7262  0.7932
   76CHL1    H8 8045   3.633   4.983   7.847  0.1462  1.3665  2.7101
   76CHL1   C14 8046   3.822   5.032   7.924  0.6407 -1.4581  0.1278
   76CHL1   H14 8047   3.921   5.059   7.882  0.4615  0.6208  0.9366
   76CHL1   C15 8048   3.866   4.908   8.006 -0.7684  0.2357 -0.3407
   76CHL1  H15A 8049   3.777   4.848   8.036 -0.2201 -0.1084  0.6383
   76CHL1  H15B 8050   3.944   4.852   7.951 -2.4102 -0.4624 -2.0544
   76CHL1   C16 8051   3.927   4.981   8.133  0.8161  0.4378  0.0290
   76CHL1  H16A 8052   3.881   4.929   8.221 -0.1550  0.9485 -0.1682
   76CHL1  H16B 8053   4.038   4.972   8.136  0.7692 -0.3309 -0.3327
   76CHL1   C17 8054   3.893   5.133   8.122 -0.5368 -0.7359  0.4400
   76CHL1   H17 8055   3.983   5.187   8.083 -2.5262  4.1033  1.7656
   76CHL1   C13 8056   3.797   5.153   8.008 -0.0430 -0.2106  0.1676
   76CHL1   C18 8057   3.657   5.129   8.066  0.8004 -0.2676  0.1504
   76CHL1  H18A 8058   3.626   5.226   8.111  1.0042 -0.3484  0.4669
   76CHL1  H18B 8059   3.578   5.114   7.989 -0.6513 -0.5524  1.6483
   76CHL1  H18C 8060   3.659   5.054   8.147 -1.5149  1.3494  1.8408
   76CHL1   C12 8061   3.807   5.276   7.913 -0.1015 -0.5407  0.0732
   76CHL1  H12A 8062   3.792   5.373   7.965  0.8732  0.2306 -1.0260
   76CHL1  H12B 8063   3.904   5.296   7.862 -0.1488 -0.9404 -0.1761
   76CHL1   C11 8064   3.699   5.259   7.806 -0.3604 -0.2155  0.0782
   76CHL1  H11A 8065   3.593   5.267   7.840 -0.6173  0.6015 -0.8486
   76CHL1  H11B 8066   3.717   5.340   7.731  0.6491 -2.2669 -2.0203
   76CHL1    C9 8067   3.715   5.129   7.721 -0.2862  0.0861 -0.1792
   76CHL1    H9 8068   3.815   5.144   7.676  0.5624 -0.4017  1.4837
   76CHL1   C10 8069   3.614   5.106   7.606  0.0938 -0.7026 -0.3392
   76CHL1   C19 8070   3.465   5.119   7.658 -0.4094  0.5573 -0.3956
   76CHL1  H19A 8071   3.401   5.080   7.577  1.5270 -2.1226 -0.8108
   76CHL1  H19B 8072   3.440   5.056   7.747 -2.0898  0.6307 -0.7944
   76CHL1  H19C 8073   3.450   5.224   7.689  1.1299  0.7099 -0.0464
   76CHL1    C1 8074   3.631   5.227   7.504 -0.1248  0.2629  0.2869
   76CHL1   H1A 8075   3.589   5.316   7.554 -0.6118 -0.8246  1.9069
   76CHL1   H1B 8076   3.732   5.257   7.469 -0.5503 -1.7666 -3.1922
   76CHL1    C2 8077   3.558   5.191   7.376  0.1987 -0.7537 -0.3168
   76CHL1   H2A 8078   3.564   5.270   7.298  0.1447 -0.3366  0.0972
   76CHL1   H2B 8079   3.449   5.182   7.396 -0.3084  1.9819 -1.3957
   76CHL1   C20 8080   3.869   5.190   8.256  0.1384  0.3899  0.0728
   76CHL1   H20 8081   3.782   5.138   8.301 -1.7120  0.7264 -2.9055
   76CHL1   C21 8082   3.835   5.346   8.238  0.4135 -0.1350  0.2775
   76CHL1  H21A 8083   3.928   5.399   8.208  1.0408 -1.3738 -0.0484
   76CHL1  H21B 8084   3.808   5.388   8.337  0.4542 -2.5265  1.3784
   76CHL1  H21C 8085   3.748   5.358   8.170 -0.5389 -2.6873  0.9294
   76CHL1   C22 8086   3.999   5.175   8.351  0.1703  0.1339 -0.9152
   76CHL1  H22A 8087   4.013   5.067   8.371  0.3244  0.3655  0.2547
   76CHL1  H22B 8088   4.083   5.203   8.283 -1.4588 -0.9048 -3.5388
   76CHL1   C23 8089   4.001   5.261   8.479 -0.0691  0.1006 -0.3491
   76CHL1  H23A 8090   4.004   5.369   8.452 -1.9132  0.1477 -0.5314
   76CHL1  H23B 8091   3.902   5.230   8.520 -0.7362 -2.0015 -3.1848
   76CHL1   C24 8092   4.102   5.224   8.591  0.3492 -0.7152  0.0402
   76CHL1  H24A 8093   4.070   5.285   8.678 -1.8698 -1.0055 -0.5223
   76CHL1  H24B 8094   4.094   5.114   8.605  0.7564 -0.6478  0.8624
   76CHL1   C25 8095   4.242   5.265   8.541 -0.5918 -0.1110  0.2083
   76CHL1   H25 8096   4.252   5.241   8.433  0.9018 -0.0373  0.3160
   76CHL1   C26 8097   4.256   5.415   8.554  0.3432 -0.2678  0.3335
   76CHL1  H26A 8098   4.245   5.431   8.664  1.6090 -0.7453  0.5471
   76CHL1  H26B 8099   4.356   5.444   8.514 -0.1286 -0.2297 -0.8558
   76CHL1  H26C 8100   4.182   5.472   8.494 -0.0928 -0.3925  0.7512
   76CHL1   C27 8101   4.357   5.192   8.608 -0.0269 -0.1375 -0.4837
   76CHL1  H27A 8102   4.370   5.218   8.715 -0.7799  0.1400 -0.4549
   76CHL1  H27B 8103   4.333   5.084   8.610 -0.0182 -0.1355  1.0458
   76CHL1  H27C 8104   4.455   5.202   8.557  0.7941  0.0894  1.0677
   77CHL1    C3 8105   3.335   0.813   6.914  0.4144  0.1395 -0.4659
   77CHL1    H3 8106   3.257   0.735   6.932  0.7411 -0.2003 -0.5168
   77CHL1    O3 8107   3.400   0.795   6.783  0.4274 -0.0475  0.5934
   77CHL1   H3' 8108   3.472   0.858   6.775 -0.0896  0.2974 -2.4175
   77CHL1    C4 8109   3.277   0.955   6.921  0.0264 -0.2668 -0.6881
   77CHL1   H4A 8110   3.351   1.034   6.897  2.6699 -2.3580 -0.0206
   77CHL1   H4B 8111   3.200   0.955   6.841 -1.0476 -2.7040  0.2401
   77CHL1    C5 8112   3.227   0.973   7.065  0.3950  0.4099  0.2701
   77CHL1    C6 8113   3.097   1.006   7.080  0.6198  0.0284 -0.3620
   77CHL1    H6 8114   3.047   1.032   6.985  0.2149 -0.2776 -0.2367
   77CHL1    C7 8115   3.027   1.023   7.213 -0.2239  0.4307  0.4511
   77CHL1   H7A 8116   2.955   1.107   7.199 -0.5050  0.1881  0.4368
   77CHL1   H7B 8117   2.958   0.937   7.226 -2.5837  1.6321 -2.6895
   77CHL1    C8 8118   3.130   1.051   7.324  0.7649  0.5520 -0.3907
   77CHL1    H8 8119   3.170   1.154   7.309 -0.4499  1.2152  0.6607
   77CHL1   C14 8120   3.067   1.039   7.455 -0.2555 -0.0703 -0.8082
   77CHL1   H14 8121   3.037   0.932   7.459  1.4541 -0.7478 -3.5231
   77CHL1   C15 8122   2.931   1.111   7.483  0.1599  0.0310 -0.4134
   77CHL1  H15A 8123   2.910   1.207   7.431 -1.8823  0.6151  1.3248
   77CHL1  H15B 8124   2.846   1.046   7.455  0.4750 -0.7833  0.4840
   77CHL1   C16 8125   2.920   1.130   7.631 -0.1455  0.2595  0.5169
   77CHL1  H16A 8126   2.946   1.236   7.653 -0.7652  1.5122 -3.7947
   77CHL1  H16B 8127   2.817   1.105   7.664 -0.7216  1.5453 -0.2365
   77CHL1   C17 8128   3.044   1.044   7.690 -0.1765 -0.7298 -0.0719
   77CHL1   H17 8129   2.993   0.945   7.687 -2.4741  0.3701  0.1357
   77CHL1   C13 8130   3.153   1.061   7.579  0.6554  0.0783 -0.1879
   77CHL1   C18 8131   3.203   1.203   7.586 -0.0126  0.2253  0.2492
   77CHL1  H18A 8132   3.123   1.280   7.590  0.0112  0.2187  1.0414
   77CHL1  H18B 8133   3.274   1.218   7.670 -1.0345  0.0502  1.1726
   77CHL1  H18C 8134   3.254   1.229   7.491 -0.2344 -1.9468 -0.5124
   77CHL1   C12 8135   3.270   0.962   7.577 -0.0088 -0.3387  0.0334
   77CHL1  H12A 8136   3.332   0.996   7.664 -0.5085  0.3197  0.1413
   77CHL1  H12B 8137   3.236   0.860   7.604 -0.6374 -0.6096 -1.6968
   77CHL1   C11 8138   3.343   0.959   7.437 -0.7292  0.3726  0.5056
   77CHL1  H11A 8139   3.400   1.052   7.418  3.3699 -2.0014 -0.1013
   77CHL1  H11B 8140   3.414   0.873   7.440  1.3419  1.8963 -1.6309
   77CHL1    C9 8141   3.243   0.943   7.317 -0.4400 -0.6694 -0.6581
   77CHL1    H9 8142   3.190   0.846   7.326 -1.4510 -0.5610 -4.1437
   77CHL1   C10 8143   3.318   0.936   7.185  0.1297 -0.0077 -0.0595
   77CHL1   C19 8144   3.432   1.043   7.180 -0.3338  0.2852 -0.4021
   77CHL1  H19A 8145   3.478   1.051   7.079  0.4922 -1.6255 -0.2093
   77CHL1  H19B 8146   3.381   1.138   7.208 -0.2943  0.2855 -0.3332
   77CHL1  H19C 8147   3.517   1.024   7.249 -0.7090  2.2613  0.6791
   77CHL1    C1 8148   3.384   0.795   7.165  2.0927 -0.0043 -0.3315
   77CHL1   H1A 8149   3.458   0.783   7.247 -0.8482 -1.0415  2.3468
   77CHL1   H1B 8150   3.309   0.715   7.185  1.6051  0.9357  1.7526
   77CHL1    C2 8151   3.442   0.786   7.026  0.2893  0.8142 -0.6037
   77CHL1   H2A 8152   3.489   0.686   7.019 -0.6791  0.1573  1.4173
   77CHL1   H2B 8153   3.532   0.851   7.019 -0.6217  1.9947 -1.7039
   77CHL1   C20 8154   3.071   1.084   7.831  0.0100 -0.3997 -0.2487
   77CHL1   H20 8155   3.115   1.185   7.816  0.4566 -0.6896 -0.9617
   77CHL1   C21 8156   3.184   1.012   7.891  0.0809  0.6696  0.2853
   77CHL1  H21A 8157   3.173   0.902   7.879  1.3043  0.5052  0.5677
   77CHL1  H21B 8158   3.212   1.033   7.996  0.0748 -0.5832  0.5520
   77CHL1  H21C 8159   3.279   1.028   7.834  1.4741 -3.7009  1.0344
   77CHL1   C22 8160   2.945   1.093   7.919 -0.4742 -0.1731  0.4650
   77CHL1  H22A 8161   2.863   1.137   7.857 -0.7507 -2.6571 -1.0702
   77CHL1  H22B 8162   2.904   0.991   7.935 -1.7785  0.5018  1.6875
   77CHL1   C23 8163   2.959   1.162   8.049  0.0695 -0.1000 -0.9300
   77CHL1  H23A 8164   3.046   1.128   8.110 -0.2113  1.5302  0.4606
   77CHL1  H23B 8165   2.974   1.272   8.038  1.1047  0.2238  2.4366
   77CHL1   C24 8166   2.831   1.153   8.139  0.4433  0.7879  0.7994
   77CHL1  H24A 8167   2.812   1.046   8.162  1.6681  0.5859  0.9412
   77CHL1  H24B 8168   2.858   1.206   8.233 -2.3807  0.4686  1.9163
   77CHL1   C25 8169   2.709   1.232   8.091 -0.2751 -0.0875  0.4850
   77CHL1   H25 8170   2.676   1.185   7.997  0.3548  0.7149 -0.1507
   77CHL1   C26 8171   2.598   1.225   8.193  0.2606 -0.2459 -0.1967
   77CHL1  H26A 8172   2.619   1.251   8.299 -1.2993  1.9748 -0.3593
   77CHL1  H26B 8173   2.514   1.288   8.155  0.1431  0.3846  1.0706
   77CHL1  H26C 8174   2.557   1.122   8.201  0.0890 -0.0392  2.9378
   77CHL1   C27 8175   2.748   1.380   8.062  0.5731 -0.2022  0.2267
   77CHL1  H27A 8176   2.819   1.414   8.140  0.3917  2.4951 -0.6813
   77CHL1  H27B 8177   2.798   1.386   7.963  1.9698  0.7205  0.9572
   77CHL1  H27C 8178   2.661   1.449   8.069  0.7693 -0.0038  0.8270
   78CHL1    C3 8179   6.332   0.383   6.669  0.2494  0.0674  0.1529
   78CHL1    H3 8180   6.274   0.288   6.668 -1.7754  1.2175  1.4574
   78CHL1    O3 8181   6.344   0.435   6.535  0.4224 -0.5583  0.1565
   78CHL1   H3' 8182   6.373   0.526   6.543  0.2739 -0.3182 -1.6316
   78CHL1    C4 8183   6.260   0.492   6.760 -0.4899  0.0706  0.4552
   78CHL1   H4A 8184   6.312   0.589   6.748 -0.2142  0.1541  2.1166
   78CHL1   H4B 8185   6.154   0.514   6.732 -0.8191 -1.2111  0.6078
   78CHL1    C5 8186   6.266   0.469   6.910  0.6152  0.1542 -0.2558
   78CHL1    C6 8187   6.155   0.460   6.989 -0.2034 -0.5906  0.0277
   78CHL1    H6 8188   6.058   0.475   6.939  0.1416 -0.6883 -0.6842
   78CHL1    C7 8189   6.151   0.459   7.140 -0.2361 -0.2900 -0.3509
   78CHL1   H7A 8190   6.081   0.533   7.184 -0.2535 -0.9180  0.7193
   78CHL1   H7B 8191   6.119   0.358   7.175  0.9068 -0.5426 -0.0010
   78CHL1    C8 8192   6.297   0.487   7.193 -0.6797 -0.2232  0.6914
   78CHL1    H8 8193   6.320   0.595   7.183 -0.9672 -0.3724 -2.8027
   78CHL1   C14 8194   6.300   0.455   7.341 -0.3771 -0.3552  0.1765
   78CHL1   H14 8195   6.273   0.347   7.335  1.4465 -0.7732 -2.8711
   78CHL1   C15 8196   6.196   0.520   7.430 -0.6498  0.1603 -0.0228
   78CHL1  H15A 8197   6.199   0.630   7.422  0.6632  0.0608 -1.3478
   78CHL1  H15B 8198   6.095   0.480   7.404 -0.2315 -0.0567 -1.3851
   78CHL1   C16 8199   6.246   0.477   7.568  0.3665 -0.3547  0.2773
   78CHL1  H16A 8200   6.220   0.558   7.640  0.7222  0.6643 -0.6981
   78CHL1  H16B 8201   6.194   0.382   7.591 -0.6197 -0.4690 -2.1299
   78CHL1   C17 8202   6.394   0.445   7.562 -0.2137 -0.1392  0.4082
   78CHL1   H17 8203   6.391   0.334   7.557 -0.8702 -0.1125 -0.0730
   78CHL1   C13 8204   6.436   0.472   7.410  0.1554 -0.4677 -1.2095
   78CHL1   C18 8205   6.478   0.623   7.411  0.2651 -0.3252  0.5329
   78CHL1  H18A 8206   6.402   0.678   7.471  0.4947  2.3103 -1.3909
   78CHL1  H18B 8207   6.576   0.650   7.455  0.1645  0.3228  0.3711
   78CHL1  H18C 8208   6.466   0.667   7.309 -0.8212  0.6704  1.0664
   78CHL1   C12 8209   6.537   0.382   7.332 -0.6895  0.0091 -0.1358
   78CHL1  H12A 8210   6.632   0.399   7.386  0.0831 -3.0124 -0.3854
   78CHL1  H12B 8211   6.495   0.279   7.333 -0.6568 -0.0239  1.9455
   78CHL1   C11 8212   6.545   0.417   7.179 -0.4034  0.7230  0.0447
   78CHL1  H11A 8213   6.590   0.518   7.175  0.2999  0.4575  0.9324
   78CHL1  H11B 8214   6.617   0.347   7.132 -1.9252 -0.8359 -0.0726
   78CHL1    C9 8215   6.401   0.410   7.112  0.0139  0.2743  0.7875
   78CHL1    H9 8216   6.358   0.308   7.119 -1.5584  0.8526  0.1021
   78CHL1   C10 8217   6.414   0.446   6.959 -0.2566  0.8116 -0.2508
   78CHL1   C19 8218   6.491   0.581   6.946  0.1868  0.1413  0.4481
   78CHL1  H19A 8219   6.482   0.619   6.842  0.3905 -1.1351 -0.0470
   78CHL1  H19B 8220   6.445   0.662   7.007 -0.3380  0.2080 -0.0270
   78CHL1  H19C 8221   6.600   0.575   6.965 -0.0289 -1.1882  1.3693
   78CHL1    C1 8222   6.478   0.327   6.872 -0.6351  0.0497 -0.4540
   78CHL1   H1A 8223   6.583   0.304   6.900 -0.8069 -2.8251 -1.7975
   78CHL1   H1B 8224   6.413   0.240   6.894 -0.0644 -0.4439 -0.6635
   78CHL1    C2 8225   6.474   0.355   6.722  0.0389  0.3429  0.2514
   78CHL1   H2A 8226   6.507   0.269   6.659 -3.2430 -0.7016 -0.2311
   78CHL1   H2B 8227   6.542   0.438   6.693  1.7560 -1.0372  0.1014
   78CHL1   C20 8228   6.482   0.481   7.680 -0.0756  0.8964  0.5343
   78CHL1   H20 8229   6.503   0.590   7.687  0.1657  0.7652  2.4315
   78CHL1   C21 8230   6.621   0.411   7.660  0.4814 -0.0071  0.0599
   78CHL1  H21A 8231   6.692   0.458   7.589  0.8282 -0.0535  0.3740
   78CHL1  H21B 8232   6.619   0.303   7.636  1.7509 -0.7516  2.9262
   78CHL1  H21C 8233   6.670   0.415   7.760  0.8555  2.2266 -0.1637
   78CHL1   C22 8234   6.417   0.455   7.818 -0.0923  0.2533 -0.1157
   78CHL1  H22A 8235   6.307   0.471   7.814  0.1897  2.5043 -0.1017
   78CHL1  H22B 8236   6.442   0.351   7.849 -0.4003  0.5909  1.3664
   78CHL1   C23 8237   6.470   0.560   7.920 -0.3972 -0.0026  0.0520
   78CHL1  H23A 8238   6.580   0.560   7.935 -0.4414  0.8783  0.4304
   78CHL1  H23B 8239   6.441   0.659   7.879 -0.5535 -0.3241 -0.6287
   78CHL1   C24 8240   6.411   0.528   8.060  0.3886 -0.3727  0.0308
   78CHL1  H24A 8241   6.305   0.503   8.039  0.9671 -1.5884 -1.6590
   78CHL1  H24B 8242   6.459   0.434   8.094 -0.5345 -0.4811  1.0751
   78CHL1   C25 8243   6.426   0.641   8.177 -0.1906 -0.4703  0.3506
   78CHL1   H25 8244   6.532   0.654   8.208 -0.5331  0.4696  1.1718
   78CHL1   C26 8245   6.368   0.771   8.124 -0.2891 -0.1534  0.5789
   78CHL1  H26A 8246   6.436   0.800   8.041 -0.6770 -0.6678  0.0713
   78CHL1  H26B 8247   6.271   0.756   8.071 -0.7183 -0.0575  1.3292
   78CHL1  H26C 8248   6.353   0.851   8.200 -1.5313  0.6122 -0.4362
   78CHL1   C27 8249   6.352   0.598   8.304  0.5931 -0.1233 -0.3462
   78CHL1  H27A 8250   6.396   0.500   8.335 -1.8102 -1.1169  0.1209
   78CHL1  H27B 8251   6.351   0.674   8.386 -1.6829 -2.4892  2.0006
   78CHL1  H27C 8252   6.245   0.582   8.283  0.2349 -0.4338  1.5319
   79CHL1    C3 8253   2.589   1.347   7.156  0.1361 -0.3026 -0.1399
   79CHL1    H3 8254   2.486   1.335   7.116 -0.1638  2.1399 -0.3051
   79CHL1    O3 8255   2.678   1.330   7.053 -0.9257 -0.4426 -0.1026
   79CHL1   H3' 8256   2.700   1.236   7.052 -1.5345 -0.5843 -0.3790
   79CHL1    C4 8257   2.587   1.498   7.200 -0.4344 -0.3040 -0.3161
   79CHL1   H4A 8258   2.691   1.528   7.225 -0.4474  0.5071 -1.1761
   79CHL1   H4B 8259   2.548   1.552   7.111 -1.2774  0.6184  0.5807
   79CHL1    C5 8260   2.499   1.527   7.320  0.0593 -0.3758  0.1882
   79CHL1    C6 8261   2.406   1.622   7.326 -0.4477  0.0001  0.4128
   79CHL1    H6 8262   2.391   1.685   7.237 -2.2994  0.5767  1.0938
   79CHL1    C7 8263   2.323   1.652   7.441 -0.0784  0.0265 -0.0267
   79CHL1   H7A 8264   2.322   1.761   7.457 -1.4144  0.4586 -2.5483
   79CHL1   H7B 8265   2.221   1.615   7.415  0.5585 -1.2774 -0.8105
   79CHL1    C8 8266   2.373   1.590   7.574 -0.1986  0.4412  0.8622
   79CHL1    H8 8267   2.470   1.637   7.601  1.0178 -1.0992 -0.6024
   79CHL1   C14 8268   2.269   1.601   7.684  0.7661  0.4486 -0.8891
   79CHL1   H14 8269   2.174   1.558   7.645  0.0765  1.1666 -0.0556
   79CHL1   C15 8270   2.220   1.737   7.725 -0.0239  0.1121 -0.0913
   79CHL1  H15A 8271   2.302   1.811   7.729  1.0784 -1.0826  0.4387
   79CHL1  H15B 8272   2.144   1.781   7.658  0.0061  0.5306  0.1503
   79CHL1   C16 8273   2.163   1.728   7.865 -1.1174  0.1467 -0.0197
   79CHL1  H16A 8274   2.226   1.793   7.929 -2.6497  2.2998 -0.5658
   79CHL1  H16B 8275   2.060   1.771   7.870 -0.1230  2.6091  1.3953
   79CHL1   C17 8276   2.174   1.577   7.900  0.1402  0.6641 -0.5579
   79CHL1   H17 8277   2.085   1.524   7.861  0.5664 -1.0072  0.6556
   79CHL1   C13 8278   2.289   1.524   7.814 -0.7905 -0.6033 -0.5173
   79CHL1   C18 8279   2.421   1.568   7.876 -0.6427  0.1151  0.1030
   79CHL1  H18A 8280   2.422   1.674   7.909 -0.2720  0.4231 -0.8527
   79CHL1  H18B 8281   2.417   1.498   7.962 -1.6635 -1.9616 -1.5524
   79CHL1  H18C 8282   2.506   1.538   7.810 -1.8920 -4.0161  0.1223
   79CHL1   C12 8283   2.296   1.377   7.779  0.8389 -0.0994 -0.5148
   79CHL1  H12A 8284   2.324   1.312   7.865 -4.1062 -1.4233  0.3952
   79CHL1  H12B 8285   2.196   1.337   7.752  1.3316 -1.4426 -0.4369
   79CHL1   C11 8286   2.385   1.338   7.663 -0.4812 -0.4603  0.7180
   79CHL1  H11A 8287   2.489   1.324   7.698  0.5131  0.2277 -1.7496
   79CHL1  H11B 8288   2.354   1.238   7.624  1.3152 -1.0356  0.6912
   79CHL1    C9 8289   2.398   1.441   7.536 -0.0811 -0.2302  0.1058
   79CHL1    H9 8290   2.312   1.411   7.473 -0.3861 -0.5205  0.6565
   79CHL1   C10 8291   2.516   1.427   7.437 -0.1922 -0.1460  0.0102
   79CHL1   C19 8292   2.649   1.462   7.504 -0.2766 -1.4568  0.0876
   79CHL1  H19A 8293   2.665   1.401   7.595  1.2117 -0.6849  0.3713
   79CHL1  H19B 8294   2.733   1.437   7.437  1.2682 -2.3498  2.2613
   79CHL1  H19C 8295   2.660   1.569   7.532  1.7796 -1.2308 -1.3842
   79CHL1    C1 8296   2.520   1.273   7.392  0.5742 -0.1685 -0.4620
   79CHL1   H1A 8297   2.561   1.219   7.481  2.0364  2.2868  0.4782
   79CHL1   H1B 8298   2.420   1.231   7.371  0.8186 -1.5057  0.8031
   79CHL1    C2 8299   2.615   1.253   7.278 -0.2308  0.3318 -0.4387
   79CHL1   H2A 8300   2.585   1.157   7.231  0.3210 -0.1410  0.1420
   79CHL1   H2B 8301   2.722   1.240   7.308 -0.4858  0.8620  0.7490
   79CHL1   C20 8302   2.178   1.541   8.052 -0.1336 -0.3894 -0.1008
   79CHL1   H20 8303   2.273   1.567   8.103 -0.1753  1.1296 -0.7483
   79CHL1   C21 8304   2.163   1.389   8.080 -0.1414 -0.3726  0.3261
   79CHL1  H21A 8305   2.117   1.384   8.181  0.2161  2.3545  0.7129
   79CHL1  H21B 8306   2.264   1.344   8.084  0.3705  0.8593  2.4822
   79CHL1  H21C 8307   2.108   1.346   7.994 -0.6018  1.4337 -0.3444
   79CHL1   C22 8308   2.069   1.616   8.133  0.0147 -0.2322 -0.0249
   79CHL1  H22A 8309   2.037   1.715   8.092  0.4538  0.8872  2.1923
   79CHL1  H22B 8310   1.979   1.552   8.140 -0.8252  0.9129 -0.1048
   79CHL1   C23 8311   2.117   1.658   8.276 -0.5886 -0.3123  0.5529
   79CHL1  H23A 8312   2.162   1.566   8.318  1.8494  0.2160 -0.7622
   79CHL1  H23B 8313   2.201   1.728   8.257 -1.2203 -0.1128 -1.9110
   79CHL1   C24 8314   2.010   1.720   8.374 -0.4682 -0.0075 -0.2826
   79CHL1  H24A 8315   1.977   1.815   8.328 -2.1754 -0.1136  0.6581
   79CHL1  H24B 8316   1.925   1.649   8.367  0.2330 -1.2465  2.4173
   79CHL1   C25 8317   2.057   1.720   8.517 -0.2887  0.9315 -0.0339
   79CHL1   H25 8318   2.076   1.617   8.555 -1.5053  0.3729 -0.8488
   79CHL1   C26 8319   2.187   1.811   8.534  1.3955 -0.7445  0.8023
   79CHL1  H26A 8320   2.227   1.807   8.638  1.5210  0.1157  0.7946
   79CHL1  H26B 8321   2.270   1.777   8.468  1.1460 -0.8485  0.5409
   79CHL1  H26C 8322   2.172   1.919   8.513  0.1350 -1.0839 -0.1209
   79CHL1   C27 8323   1.942   1.775   8.602 -0.5341 -0.1003 -0.7728
   79CHL1  H27A 8324   1.855   1.706   8.599  0.0010 -0.8106 -0.2700
   79CHL1  H27B 8325   1.975   1.796   8.706 -1.7179 -0.1648 -0.3753
   79CHL1  H27C 8326   1.916   1.874   8.559  0.1634 -0.4669 -2.0925
   80CHL1    C3 8327   6.470   4.580   7.002 -0.1995  0.1182  0.3681
   80CHL1    H3 8328   6.446   4.683   7.037  0.4548  0.2989  0.2870
   80CHL1    O3 8329   6.479   4.556   6.864 -0.5349  0.1460  0.0491
   80CHL1   H3' 8330   6.410   4.491   6.851  0.4842 -1.1459  0.8069
   80CHL1    C4 8331   6.607   4.545   7.061  0.2068 -0.1250  0.0968
   80CHL1   H4A 8332   6.637   4.446   7.020 -1.1817 -1.0383  1.1872
   80CHL1   H4B 8333   6.689   4.617   7.040  1.0838 -0.8343  0.9513
   80CHL1    C5 8334   6.610   4.538   7.215  0.3657  0.0554 -0.2061
   80CHL1    C6 8335   6.686   4.610   7.293 -0.7936 -1.0529 -0.9471
   80CHL1    H6 8336   6.755   4.683   7.249 -2.2809  0.2530 -1.1942
   80CHL1    C7 8337   6.707   4.594   7.443 -0.1578  0.3144  0.2339
   80CHL1   H7A 8338   6.817   4.585   7.450  0.7285  4.7452 -3.0216
   80CHL1   H7B 8339   6.688   4.684   7.505  0.1795 -0.0393  0.8602
   80CHL1    C8 8340   6.628   4.468   7.496 -0.3325  0.0244  0.0112
   80CHL1    H8 8341   6.681   4.375   7.467  1.3556  0.7366  0.6659
   80CHL1   C14 8342   6.613   4.472   7.646 -0.8218 -0.0757  0.1218
   80CHL1   H14 8343   6.545   4.558   7.660  0.3851  0.8157  0.7684
   80CHL1   C15 8344   6.730   4.495   7.736 -0.1484  0.1817  0.4950
   80CHL1  H15A 8345   6.818   4.439   7.699  1.5568  3.9548 -1.7496
   80CHL1  H15B 8346   6.758   4.602   7.723 -1.3947  0.3852 -0.8324
   80CHL1   C16 8347   6.684   4.455   7.879 -0.1546  0.5057 -1.1368
   80CHL1  H16A 8348   6.754   4.384   7.926  0.6246 -0.0172 -2.9858
   80CHL1  H16B 8349   6.679   4.540   7.950 -1.4542 -0.4445 -0.0470
   80CHL1   C17 8350   6.549   4.387   7.859  0.8929 -0.4634  0.3493
   80CHL1   H17 8351   6.480   4.473   7.866  1.0264 -0.3216 -0.0433
   80CHL1   C13 8352   6.539   4.347   7.708 -0.3990 -0.8226 -0.4186
   80CHL1   C18 8353   6.622   4.224   7.679  0.0160  0.3427  0.7458
   80CHL1  H18A 8354   6.634   4.202   7.570 -0.9240 -0.3111  0.7624
   80CHL1  H18B 8355   6.722   4.240   7.725  1.2383  0.7642 -1.8641
   80CHL1  H18C 8356   6.574   4.131   7.716  1.8994  0.2216  3.1332
   80CHL1   C12 8357   6.398   4.346   7.647 -0.5093 -0.1045 -0.7112
   80CHL1  H12A 8358   6.329   4.263   7.674 -0.3127  0.7200  2.7469
   80CHL1  H12B 8359   6.360   4.442   7.687  0.5958 -0.5806  1.6783
   80CHL1   C11 8360   6.404   4.345   7.498  0.8065 -0.8048  0.4616
   80CHL1  H11A 8361   6.444   4.247   7.464 -0.9119 -1.7422  1.0246
   80CHL1  H11B 8362   6.298   4.356   7.466  0.8195  2.7328  1.2634
   80CHL1    C9 8363   6.494   4.458   7.428 -0.3161 -0.1872 -0.1818
   80CHL1    H9 8364   6.450   4.558   7.447 -1.5322 -0.2225 -2.4052
   80CHL1   C10 8365   6.505   4.445   7.273  0.1748 -0.2123 -0.2012
   80CHL1   C19 8366   6.526   4.304   7.229  0.5731 -0.2854 -0.4483
   80CHL1  H19A 8367   6.436   4.249   7.265  0.6965 -0.1581  0.0720
   80CHL1  H19B 8368   6.522   4.296   7.119 -0.6629  2.7914 -0.7162
   80CHL1  H19C 8369   6.609   4.254   7.285  0.4730 -1.5421 -1.3756
   80CHL1    C1 8370   6.372   4.480   7.214 -0.6034  0.0752 -0.7360
   80CHL1   H1A 8371   6.291   4.408   7.241  1.0606 -0.7299  2.7531
   80CHL1   H1B 8372   6.336   4.577   7.253  0.5296  0.9090 -1.7250
   80CHL1    C2 8373   6.367   4.488   7.061 -0.4113 -0.4719  0.0117
   80CHL1   H2A 8374   6.268   4.525   7.029  1.6516  2.3317 -4.1822
   80CHL1   H2B 8375   6.380   4.384   7.026 -0.1851 -0.1072 -1.0243
   80CHL1   C20 8376   6.515   4.292   7.969 -0.0549 -0.1871  0.0263
   80CHL1   H20 8377   6.586   4.209   7.984 -0.1278 -0.4084 -0.8440
   80CHL1   C21 8378   6.378   4.232   7.946  0.2367  0.4177 -0.6557
   80CHL1  H21A 8379   6.372   4.182   7.847 -1.5490  0.4721 -0.6141
   80CHL1  H21B 8380   6.307   4.317   7.957 -1.4858 -1.2187  2.3211
   80CHL1  H21C 8381   6.349   4.172   8.035 -2.3484  1.3982 -0.7490
   80CHL1   C22 8382   6.519   4.367   8.101  0.9643  0.5595  0.4853
   80CHL1  H22A 8383   6.519   4.478   8.097 -0.5977  0.5429 -2.4477
   80CHL1  H22B 8384   6.430   4.333   8.158 -0.0524  2.7594  0.3370
   80CHL1   C23 8385   6.642   4.345   8.191 -0.2177  0.6802  0.2911
   80CHL1  H23A 8386   6.625   4.240   8.225 -2.4242  0.5033 -1.1485
   80CHL1  H23B 8387   6.735   4.347   8.130 -0.0678  2.4724  0.5310
   80CHL1   C24 8388   6.641   4.443   8.313  0.5718  0.0732  0.4703
   80CHL1  H24A 8389   6.738   4.424   8.362  0.1262 -0.5760  1.1257
   80CHL1  H24B 8390   6.637   4.549   8.278 -0.4137 -0.0968  0.0228
   80CHL1   C25 8391   6.527   4.425   8.416 -0.4910  0.5937  0.2541
   80CHL1   H25 8392   6.431   4.453   8.368 -0.9458 -0.6355  0.3960
   80CHL1   C26 8393   6.536   4.289   8.484  0.1426  0.5721  0.0812
   80CHL1  H26A 8394   6.638   4.246   8.498  0.8125  2.0125 -0.1092
   80CHL1  H26B 8395   6.496   4.293   8.587 -1.4776  0.9163 -0.5313
   80CHL1  H26C 8396   6.480   4.216   8.423 -0.9590  1.1537  0.3757
   80CHL1   C27 8397   6.559   4.531   8.528  0.2277  0.0564  0.4764
   80CHL1  H27A 8398   6.629   4.609   8.493 -0.5582  1.1709  1.3449
   80CHL1  H27B 8399   6.469   4.583   8.566  1.4738  1.3650  1.7769
   80CHL1  H27C 8400   6.610   4.484   8.615 -2.6392  1.1522  2.9146
   81CHL1    C3 8401   0.663   4.943   6.893 -0.6325  0.3324 -0.2107
   81CHL1    H3 8402   0.684   5.052   6.899  0.6549  0.1253 -0.7273
   81CHL1    O3 8403   0.614   4.913   6.763  0.1430 -0.1082 -0.6319
   81CHL1   H3' 8404   0.665   4.834   6.744  1.3950  0.6439 -0.5002
   81CHL1    C4 8405   0.790   4.858   6.922  0.1579 -0.4813 -0.2734
   81CHL1   H4A 8406   0.763   4.753   6.895  3.3300 -1.7661  1.0666
   81CHL1   H4B 8407   0.875   4.883   6.856 -0.1298  0.3895 -0.3209
   81CHL1    C5 8408   0.837   4.886   7.072  0.5779 -0.3628  0.4949
   81CHL1    C6 8409   0.962   4.921   7.115  0.0340 -0.4508  0.3105
   81CHL1    H6 8410   1.041   4.926   7.038  0.1077  0.6929  0.4443
   81CHL1    C7 8411   1.004   4.928   7.258  0.3075 -0.4490  0.3211
   81CHL1   H7A 8412   1.100   4.877   7.284  0.4874 -1.1463 -1.5883
   81CHL1   H7B 8413   1.009   5.036   7.285 -0.5746 -0.9313  2.7212
   81CHL1    C8 8414   0.891   4.888   7.358 -1.2337  0.8197 -0.5012
   81CHL1    H8 8415   0.903   4.778   7.360 -0.3406  0.9111 -0.4176
   81CHL1   C14 8416   0.926   4.943   7.500 -0.0997 -0.4129 -0.4701
   81CHL1   H14 8417   0.914   5.053   7.488  0.8009 -0.4868 -2.4218
   81CHL1   C15 8418   1.068   4.926   7.547 -0.2570 -0.2860 -0.5790
   81CHL1  H15A 8419   1.100   4.821   7.531 -0.2892 -0.8473  2.3619
   81CHL1  H15B 8420   1.141   4.988   7.490 -0.3947 -0.7939 -1.3205
   81CHL1   C16 8421   1.057   4.956   7.693  0.7172 -0.2430 -0.1589
   81CHL1  H16A 8422   1.093   4.866   7.748  2.0747  1.0129  1.0747
   81CHL1  H16B 8423   1.114   5.043   7.729 -1.3210  0.7517  0.7983
   81CHL1   C17 8424   0.907   4.973   7.725  0.0567  0.4601 -0.1333
   81CHL1   H17 8425   0.892   5.082   7.707  0.9673  0.7222  0.6637
   81CHL1   C13 8426   0.834   4.902   7.608  0.2710 -0.0532 -0.2876
   81CHL1   C18 8427   0.844   4.747   7.617 -0.4200 -0.7570  0.1331
   81CHL1  H18A 8428   0.783   4.720   7.706 -0.8262 -1.5767 -0.3746
   81CHL1  H18B 8429   0.797   4.706   7.525  0.2608  0.1014 -0.6123
   81CHL1  H18C 8430   0.939   4.696   7.643 -1.1441 -1.2609  1.9424
   81CHL1   C12 8431   0.694   4.951   7.566  0.2673  0.2866 -0.2760
   81CHL1  H12A 8432   0.619   4.925   7.644 -1.3830  3.1627 -0.7868
   81CHL1  H12B 8433   0.687   5.061   7.554 -1.4718  0.1774 -0.5815
   81CHL1   C11 8434   0.648   4.904   7.428 -0.0267  0.2099 -0.1171
   81CHL1  H11A 8435   0.645   4.793   7.424  1.3378  0.1471  0.1489
   81CHL1  H11B 8436   0.548   4.943   7.400 -0.3740  0.2004  1.0800
   81CHL1    C9 8437   0.753   4.930   7.313 -0.1245 -0.5727 -0.5263
   81CHL1    H9 8438   0.758   5.041   7.310 -0.3718 -0.5257  0.3415
   81CHL1   C10 8439   0.723   4.879   7.176 -0.0455  0.1310 -0.3294
   81CHL1   C19 8440   0.689   4.729   7.183 -0.0615  0.1605 -0.1562
   81CHL1  H19A 8441   0.773   4.665   7.216 -1.8373 -2.8554 -1.0791
   81CHL1  H19B 8442   0.610   4.712   7.259 -0.4206  0.3531 -0.4773
   81CHL1  H19C 8443   0.653   4.693   7.084  0.2801 -0.7516  0.0471
   81CHL1    C1 8444   0.600   4.960   7.125 -0.1459  0.1595 -0.5059
   81CHL1   H1A 8445   0.519   4.954   7.201  0.4451 -0.4401  0.0887
   81CHL1   H1B 8446   0.648   5.060   7.115 -0.1510 -0.0846 -4.0986
   81CHL1    C2 8447   0.544   4.925   6.989  0.0478  0.3483 -0.3733
   81CHL1   H2A 8448   0.458   4.991   6.965  0.6481  0.8580 -1.1717
   81CHL1   H2B 8449   0.495   4.825   6.988 -1.7867  1.2036 -0.0749
   81CHL1   C20 8450   0.868   4.955   7.869 -0.0963 -0.7808  0.8071
   81CHL1   H20 8451   0.850   4.850   7.898  0.0136 -0.9101  0.4084
   81CHL1   C21 8452   0.743   5.040   7.897  0.0962 -0.1962 -0.3531
   81CHL1  H21A 8453   0.710   5.026   8.003  0.3768  1.9735  0.0751
   81CHL1  H21B 8454   0.660   5.024   7.826 -0.4853  2.3955 -0.3726
   81CHL1  H21C 8455   0.766   5.149   7.893  0.0563 -0.1769 -0.0686
   81CHL1   C22 8456   0.973   5.010   7.967  0.2582 -0.2095 -1.0193
   81CHL1  H22A 8457   1.059   4.940   7.966  0.6713  0.2816 -0.4750
   81CHL1  H22B 8458   1.001   5.112   7.936  0.0836 -0.4642 -2.0472
   81CHL1   C23 8459   0.928   5.016   8.121 -0.2172  0.0280 -0.6076
   81CHL1  H23A 8460   0.835   5.073   8.140  0.2187  0.8423 -0.8472
   81CHL1  H23B 8461   0.918   4.910   8.153  0.6061  0.1349  0.0587
   81CHL1   C24 8462   1.043   5.078   8.201 -0.4868  0.2314 -0.1176
   81CHL1  H24A 8463   1.078   5.171   8.152  1.7322  0.7370  2.2270
   81CHL1  H24B 8464   0.998   5.094   8.301  1.8994  0.2387  1.0256
   81CHL1   C25 8465   1.175   4.997   8.206  0.0431  0.0045 -0.2503
   81CHL1   H25 8466   1.221   5.003   8.105  0.8389 -0.7986  0.0463
   81CHL1   C26 8467   1.267   5.065   8.306  0.0646 -0.5168 -0.3784
   81CHL1  H26A 8468   1.276   5.171   8.274  2.5545 -0.8337 -0.9773
   81CHL1  H26B 8469   1.230   5.068   8.410  0.7000 -0.0142 -0.1620
   81CHL1  H26C 8470   1.369   5.020   8.302  1.1607  1.8691 -0.6716
   81CHL1   C27 8471   1.147   4.840   8.237  1.1203 -0.3828  0.0733
   81CHL1  H27A 8472   1.237   4.781   8.266 -1.1046 -3.2465  1.7242
   81CHL1  H27B 8473   1.068   4.836   8.315  0.1245 -2.0512 -0.9670
   81CHL1  H27C 8474   1.101   4.800   8.145 -0.0990  0.3988  0.3277
   82CHL1    C3 8475   0.259   2.733   6.771 -0.3534  0.2555  0.3468
   82CHL1    H3 8476   0.177   2.792   6.818 -0.2329  0.9170 -0.2648
   82CHL1    O3 8477   0.245   2.714   6.636 -0.2004 -0.2432  0.5795
   82CHL1   H3' 8478   0.163   2.666   6.622 -0.4194  0.3317 -0.1798
   82CHL1    C4 8479   0.385   2.818   6.803 -0.1121 -0.5007  0.9773
   82CHL1   H4A 8480   0.473   2.773   6.754  0.1582 -0.4919  1.4455
   82CHL1   H4B 8481   0.379   2.916   6.751  0.5099 -0.8437  0.2619
   82CHL1    C5 8482   0.407   2.845   6.953 -0.2373 -0.4792 -0.1097
   82CHL1    C6 8483   0.423   2.966   6.993 -0.0105 -0.1626  0.7947
   82CHL1    H6 8484   0.429   3.042   6.913  0.5188 -1.9001 -0.8685
   82CHL1    C7 8485   0.448   3.003   7.140  0.0644  0.2449  0.7112
   82CHL1   H7A 8486   0.530   3.078   7.137  1.3258 -1.1174 -0.9989
   82CHL1   H7B 8487   0.353   3.039   7.184 -0.1534  0.1191  0.3389
   82CHL1    C8 8488   0.482   2.883   7.228  0.2684  0.7333 -0.4143
   82CHL1    H8 8489   0.588   2.868   7.200 -0.0634  1.4870 -2.2122
   82CHL1   C14 8490   0.460   2.918   7.373 -0.9524  0.1232 -0.9704
   82CHL1   H14 8491   0.352   2.940   7.387 -1.3034 -1.3436 -1.1703
   82CHL1   C15 8492   0.536   3.043   7.421  0.8638  0.7879 -0.5999
   82CHL1  H15A 8493   0.643   3.046   7.391  0.7699 -1.7726 -1.4486
   82CHL1  H15B 8494   0.489   3.134   7.377 -2.7194  0.5430  2.2194
   82CHL1   C16 8495   0.518   3.030   7.577  0.1444  0.2067 -0.0734
   82CHL1  H16A 8496   0.615   3.048   7.629  0.7840 -1.2293 -0.6985
   82CHL1  H16B 8497   0.443   3.098   7.621 -0.2343 -0.6931  0.7300
   82CHL1   C17 8498   0.480   2.880   7.612  0.4236  0.6354 -0.0284
   82CHL1   H17 8499   0.370   2.880   7.627  0.5433  0.5521  0.9199
   82CHL1   C13 8500   0.492   2.811   7.477  0.3823 -0.6119 -0.7656
   82CHL1   C18 8501   0.645   2.773   7.467  0.1958 -0.3651  0.6556
   82CHL1  H18A 8502   0.713   2.852   7.508 -1.0732 -0.4597  3.0939
   82CHL1  H18B 8503   0.662   2.679   7.522  0.7109  0.2713  1.6160
   82CHL1  H18C 8504   0.659   2.758   7.358 -1.0797 -1.5535  0.6325
   82CHL1   C12 8505   0.397   2.692   7.450 -0.0545  0.0314  0.6568
   82CHL1  H12A 8506   0.427   2.610   7.519 -0.6201 -1.6652 -1.0453
   82CHL1  H12B 8507   0.291   2.720   7.472 -1.8743 -3.7172 -2.2035
   82CHL1   C11 8508   0.403   2.644   7.298 -0.1831  0.5780 -0.3144
   82CHL1  H11A 8509   0.494   2.583   7.281 -0.5283 -0.2917  0.8928
   82CHL1  H11B 8510   0.318   2.574   7.283  1.3645 -1.0277 -2.1830
   82CHL1    C9 8511   0.392   2.761   7.198 -0.0869 -0.1322  0.3693
   82CHL1    H9 8512   0.291   2.800   7.219 -0.9510 -2.2381  0.3670
   82CHL1   C10 8513   0.399   2.722   7.053 -0.5943  0.4361  0.1886
   82CHL1   C19 8514   0.529   2.642   7.019  0.2489 -0.6569 -0.0377
   82CHL1  H19A 8515   0.537   2.556   7.089  1.2803  0.6238  1.4577
   82CHL1  H19B 8516   0.534   2.604   6.914 -1.9790  1.3020 -0.9536
   82CHL1  H19C 8517   0.616   2.710   7.017 -1.7524  2.0721 -1.4580
   82CHL1    C1 8518   0.276   2.638   7.006  0.8571 -0.3340 -0.1134
   82CHL1   H1A 8519   0.280   2.533   7.042 -1.6726 -0.3676  0.2194
   82CHL1   H1B 8520   0.178   2.684   7.031 -0.3693 -2.5606 -0.5366
   82CHL1    C2 8521   0.259   2.599   6.852  0.3271 -0.0013  0.2079
   82CHL1   H2A 8522   0.169   2.535   6.839  0.5993 -0.9589  2.5838
   82CHL1   H2B 8523   0.347   2.537   6.822  0.8535 -0.5254  2.6129
   82CHL1   C20 8524   0.553   2.817   7.740  0.8863 -0.5170  0.5177
   82CHL1   H20 8525   0.663   2.829   7.734  0.7162  0.7137 -0.9979
   82CHL1   C21 8526   0.500   2.680   7.758  0.2319 -0.5639 -0.1011
   82CHL1  H21A 8527   0.541   2.611   7.681 -0.1603 -0.2440 -0.6087
   82CHL1  H21B 8528   0.389   2.681   7.749  0.2660  1.0350 -0.7932
   82CHL1  H21C 8529   0.542   2.640   7.852 -0.7371 -0.5123  0.3659
   82CHL1   C22 8530   0.512   2.917   7.858  0.1324 -0.3640 -1.4445
   82CHL1  H22A 8531   0.557   3.015   7.830  1.2188 -0.0626  1.0961
   82CHL1  H22B 8532   0.401   2.927   7.858  0.0848 -0.8705 -1.5049
   82CHL1   C23 8533   0.557   2.870   8.002  0.5757 -0.8564  1.0275
   82CHL1  H23A 8534   0.509   2.773   8.026 -0.3798  0.0713  3.1848
   82CHL1  H23B 8535   0.665   2.847   7.994  0.8115  0.6061 -0.4174
   82CHL1   C24 8536   0.531   2.997   8.095  0.2002  0.0254  0.0862
   82CHL1  H24A 8537   0.580   3.085   8.048  3.0238 -1.8922 -0.8150
   82CHL1  H24B 8538   0.422   3.019   8.093 -0.0227 -0.9957  0.1435
   82CHL1   C25 8539   0.583   2.967   8.236  0.9031  0.6687 -0.5003
   82CHL1   H25 8540   0.686   2.929   8.219  1.1806  0.1659  2.0385
   82CHL1   C26 8541   0.600   3.097   8.319  0.3333  0.0203 -0.3304
   82CHL1  H26A 8542   0.645   3.178   8.257  3.3415 -2.9539 -2.4149
   82CHL1  H26B 8543   0.499   3.130   8.353  1.2150  0.0952  2.4487
   82CHL1  H26C 8544   0.663   3.082   8.409 -1.9065 -0.8301  1.1754
   82CHL1   C27 8545   0.482   2.875   8.309  0.1854  0.2927 -0.0856
   82CHL1  H27A 8546   0.378   2.908   8.285  0.0396  0.3966  0.6674
   82CHL1  H27B 8547   0.493   2.767   8.286 -2.1393 -0.1883  0.6973
   82CHL1  H27C 8548   0.496   2.878   8.419  1.5390  0.1949 -0.2497
   83CHL1    C3 8549   1.535   2.062   6.972 -0.9300 -0.0967 -0.5467
   83CHL1    H3 8550   1.441   2.104   6.932 -1.9165  1.2115  2.8095
   83CHL1    O3 8551   1.626   2.041   6.866  0.2348  0.3379  0.2870
   83CHL1   H3' 8552   1.651   2.129   6.839 -1.0636  0.1116 -1.8572
   83CHL1    C4 8553   1.602   2.163   7.067 -0.4063 -0.5609  0.3581
   83CHL1   H4A 8554   1.706   2.131   7.088  0.1951  1.9485  1.6015
   83CHL1   H4B 8555   1.604   2.265   7.022  0.9316  0.1256  1.8432
   83CHL1    C5 8556   1.527   2.168   7.200 -0.4798 -0.9990 -0.4623
   83CHL1    C6 8557   1.493   2.290   7.247  0.0899  0.1645  1.1203
   83CHL1    H6 8558   1.525   2.380   7.193 -0.7591  0.3918  0.9803
   83CHL1    C7 8559   1.423   2.310   7.380  0.6337 -0.5519 -0.2047
   83CHL1   H7A 8560   1.485   2.376   7.444  0.2270 -1.2197  0.9125
   83CHL1   H7B 8561   1.319   2.340   7.356  0.3592 -2.0184 -0.9695
   83CHL1    C8 8562   1.412   2.182   7.461 -0.1233  0.5434 -0.4855
   83CHL1    H8 8563   1.511   2.154   7.503  0.1543 -0.5401 -1.7588
   83CHL1   C14 8564   1.325   2.188   7.580  0.6392  0.4189 -0.6382
   83CHL1   H14 8565   1.225   2.195   7.532 -0.1546 -0.5975  0.8025
   83CHL1   C15 8566   1.352   2.302   7.685 -0.3569  0.1980  0.0806
   83CHL1  H15A 8567   1.461   2.314   7.701 -0.3954  1.1871 -0.3197
   83CHL1  H15B 8568   1.330   2.401   7.640  1.2434  0.2036 -0.7562
   83CHL1   C16 8569   1.275   2.266   7.810  0.3768  0.1334  0.4516
   83CHL1  H16A 8570   1.347   2.284   7.893  0.7559  0.8921 -0.0255
   83CHL1  H16B 8571   1.197   2.343   7.826  0.7597  0.3096  1.5662
   83CHL1   C17 8572   1.221   2.119   7.784  0.5948 -0.2661  0.6871
   83CHL1   H17 8573   1.123   2.137   7.736  0.7934  2.6923  1.2318
   83CHL1   C13 8574   1.305   2.065   7.667 -0.5232  0.5706 -0.4087
   83CHL1   C18 8575   1.447   2.021   7.732  0.2282  0.4069 -0.1430
   83CHL1  H18A 8576   1.459   2.076   7.828  1.8897  1.2920 -0.8127
   83CHL1  H18B 8577   1.443   1.917   7.770  1.2658  0.3129 -0.2488
   83CHL1  H18C 8578   1.539   2.038   7.670  0.3070 -1.0017 -0.4428
   83CHL1   C12 8579   1.243   1.962   7.580  0.7394  0.3230  0.1263
   83CHL1  H12A 8580   1.213   1.865   7.624  2.5113  0.2424  1.2506
   83CHL1  H12B 8581   1.148   2.004   7.539  1.8586  2.3969 -0.5044
   83CHL1   C11 8582   1.336   1.935   7.463 -0.3746  0.7042  0.2106
   83CHL1  H11A 8583   1.429   1.893   7.507 -0.2312 -0.2204 -0.9368
   83CHL1  H11B 8584   1.284   1.859   7.402  1.0959  0.1505 -0.4091
   83CHL1    C9 8585   1.373   2.061   7.375  0.4324  0.6446 -0.1976
   83CHL1    H9 8586   1.284   2.090   7.314  0.2690 -1.6201 -1.1309
   83CHL1   C10 8587   1.482   2.031   7.266 -0.2589  0.2478  0.6021
   83CHL1   C19 8588   1.616   1.965   7.324 -0.3055  0.5732 -0.1024
   83CHL1  H19A 8589   1.697   1.958   7.248 -0.1486 -1.8449  0.2297
   83CHL1  H19B 8590   1.645   2.018   7.417 -1.0401 -0.0746  0.5022
   83CHL1  H19C 8591   1.596   1.861   7.355  0.8598 -0.3770 -2.3026
   83CHL1    C1 8592   1.420   1.942   7.150  0.0874  0.7121  0.3900
   83CHL1   H1A 8593   1.397   1.846   7.202  0.7618  0.2639 -0.1160
   83CHL1   H1B 8594   1.322   1.976   7.111 -0.5070 -2.3098 -1.0249
   83CHL1    C2 8595   1.507   1.922   7.028  0.8654  0.0074  0.1519
   83CHL1   H2A 8596   1.450   1.857   6.957 -0.4189 -0.1956  1.3158
   83CHL1   H2B 8597   1.602   1.874   7.061  0.1861 -2.3349 -1.0434
   83CHL1   C20 8598   1.212   2.036   7.911  0.3070 -0.3612 -0.6867
   83CHL1   H20 8599   1.315   2.039   7.951  0.0163 -0.4136  0.0728
   83CHL1   C21 8600   1.169   1.898   7.883  0.7596 -0.0214 -0.4933
   83CHL1  H21A 8601   1.252   1.843   7.835  0.0633 -1.4655 -0.0885
   83CHL1  H21B 8602   1.066   1.892   7.842  0.1379  1.7606  0.6827
   83CHL1  H21C 8603   1.168   1.843   7.980  1.3831  0.2919 -0.3035
   83CHL1   C22 8604   1.114   2.110   8.010  0.1833  0.0539  0.0239
   83CHL1  H22A 8605   1.153   2.213   8.024  0.7627  0.1300 -1.9644
   83CHL1  H22B 8606   1.006   2.117   7.982  0.4199 -2.1435 -1.6285
   83CHL1   C23 8607   1.116   2.044   8.152  0.3615  0.0555 -0.0638
   83CHL1  H23A 8608   1.026   2.085   8.204  1.4023  1.1182  0.9639
   83CHL1  H23B 8609   1.097   1.935   8.144  0.4005  0.0550 -0.1512
   83CHL1   C24 8610   1.233   2.089   8.240 -0.2345  0.0828 -0.3043
   83CHL1  H24A 8611   1.331   2.053   8.202 -1.3533  0.3583 -3.7592
   83CHL1  H24B 8612   1.224   2.199   8.231  0.7937  0.2204  0.1998
   83CHL1   C25 8613   1.225   2.052   8.392  0.4645 -0.0787 -0.3210
   83CHL1   H25 8614   1.121   2.081   8.418  0.2549  2.0903 -3.0496
   83CHL1   C26 8615   1.254   1.904   8.407  0.6498 -0.6432  0.2625
   83CHL1  H26A 8616   1.169   1.843   8.368 -1.2685 -0.6531  4.0658
   83CHL1  H26B 8617   1.350   1.864   8.366  0.2883  1.3883 -2.9340
   83CHL1  H26C 8618   1.259   1.875   8.514  0.5141 -2.1106 -0.1060
   83CHL1   C27 8619   1.308   2.142   8.478 -0.1973 -0.2875 -0.5614
   83CHL1  H27A 8620   1.320   2.108   8.583  0.6687  4.3561  1.0633
   83CHL1  H27B 8621   1.413   2.140   8.443  0.2131  0.4181  0.5747
   83CHL1  H27C 8622   1.268   2.245   8.487 -1.8861 -0.9171 -0.4256
   84CHL1    C3 8623   5.363   4.042   6.782 -0.1453  0.7286 -0.7320
   84CHL1    H3 8624   5.323   4.144   6.803 -0.6885  0.7883 -1.9576
   84CHL1    O3 8625   5.343   4.032   6.641 -0.4858 -0.3462 -0.4422
   84CHL1   H3' 8626   5.430   4.016   6.603  0.8934 -1.4903  2.8874
   84CHL1    C4 8627   5.514   4.048   6.819  0.0409  0.2775 -0.0277
   84CHL1   H4A 8628   5.570   3.964   6.774  0.3247 -0.4072  1.5161
   84CHL1   H4B 8629   5.543   4.141   6.768  0.6653  0.0083 -0.1689
   84CHL1    C5 8630   5.547   4.056   6.967  0.2761 -0.5601 -0.2335
   84CHL1    C6 8631   5.618   4.164   7.015 -0.0144  0.3726 -0.3238
   84CHL1    H6 8632   5.673   4.226   6.943  1.9712 -2.1064 -1.1226
   84CHL1    C7 8633   5.657   4.178   7.163  0.4604  0.3391 -0.6645
   84CHL1   H7A 8634   5.765   4.201   7.173 -0.1866  2.9568  1.5722
   84CHL1   H7B 8635   5.602   4.261   7.214  0.0521 -0.3690  0.0709
   84CHL1    C8 8636   5.631   4.043   7.236  0.6192 -0.2559  0.2445
   84CHL1    H8 8637   5.700   3.967   7.196  0.3989 -1.1397  1.4881
   84CHL1   C14 8638   5.642   4.055   7.391  0.3105 -0.7712 -0.1431
   84CHL1   H14 8639   5.553   4.118   7.413  1.0537  0.8408 -1.5135
   84CHL1   C15 8640   5.759   4.141   7.448  0.2476  0.0272  0.6084
   84CHL1  H15A 8641   5.844   4.137   7.377 -0.4069  0.0960 -0.1923
   84CHL1  H15B 8642   5.737   4.249   7.438 -0.1694 -0.1139 -0.0743
   84CHL1   C16 8643   5.777   4.082   7.585 -0.3455  0.5257 -0.2770
   84CHL1  H16A 8644   5.881   4.044   7.593  0.1444  1.9456  0.5322
   84CHL1  H16B 8645   5.771   4.161   7.663  1.9811  0.4162  0.0850
   84CHL1   C17 8646   5.669   3.974   7.615  0.1040 -0.1061  0.5638
   84CHL1   H17 8647   5.586   4.029   7.664 -0.5602 -1.3095  0.8159
   84CHL1   C13 8648   5.634   3.929   7.471  0.0895  0.2567 -0.3143
   84CHL1   C18 8649   5.746   3.825   7.422  0.0729  0.4020  0.4232
   84CHL1  H18A 8650   5.727   3.732   7.479 -0.3667 -1.1356 -2.0776
   84CHL1  H18B 8651   5.727   3.801   7.315 -0.6216 -0.4281  0.7146
   84CHL1  H18C 8652   5.842   3.875   7.444  0.7886 -0.3214 -0.9509
   84CHL1   C12 8653   5.486   3.876   7.454 -0.2029  0.3873  0.5017
   84CHL1  H12A 8654   5.466   3.781   7.509 -3.2717 -0.2796 -1.4997
   84CHL1  H12B 8655   5.412   3.941   7.505 -3.0126 -2.8771  1.0183
   84CHL1   C11 8656   5.462   3.856   7.299 -0.5977 -0.6822  0.1302
   84CHL1  H11A 8657   5.522   3.766   7.275  2.8737  0.8217  2.4834
   84CHL1  H11B 8658   5.352   3.841   7.290 -0.7054 -0.0550  0.3507
   84CHL1    C9 8659   5.491   3.980   7.203  0.1372 -0.2675  0.2559
   84CHL1    H9 8660   5.416   4.061   7.217  0.8054  0.7395 -1.6591
   84CHL1   C10 8661   5.486   3.947   7.057  0.1256 -0.2390 -0.2238
   84CHL1   C19 8662   5.566   3.815   7.022  0.7116 -0.8398 -0.5495
   84CHL1  H19A 8663   5.671   3.830   7.053 -0.3459  2.3366  2.0551
   84CHL1  H19B 8664   5.526   3.717   7.056 -3.0343  0.5515 -0.4356
   84CHL1  H19C 8665   5.562   3.808   6.911 -0.7574 -1.9349 -0.4715
   84CHL1    C1 8666   5.336   3.941   7.020 -0.2209 -0.8873 -0.0413
   84CHL1   H1A 8667   5.286   3.851   7.062  1.7539 -1.6388  0.8259
   84CHL1   H1B 8668   5.282   4.033   7.051 -0.2589 -0.9483  0.0744
   84CHL1    C2 8669   5.301   3.928   6.868  0.0035  0.3243  0.1291
   84CHL1   H2A 8670   5.190   3.936   6.867  0.0348  2.0967  2.3983
   84CHL1   H2B 8671   5.337   3.829   6.832 -1.0323  0.0115 -0.0775
   84CHL1   C20 8672   5.720   3.870   7.725 -0.6705  0.6703  0.4619
   84CHL1   H20 8673   5.804   3.811   7.685 -0.8067  1.0381 -0.3888
   84CHL1   C21 8674   5.606   3.767   7.765 -0.4517  0.2274 -0.4241
   84CHL1  H21A 8675   5.588   3.694   7.684  0.6270  0.0311 -0.4936
   84CHL1  H21B 8676   5.514   3.825   7.788 -0.2459  0.0726  0.8673
   84CHL1  H21C 8677   5.642   3.712   7.855  0.3530  0.9989 -0.2603
   84CHL1   C22 8678   5.768   3.949   7.851 -0.0138 -0.1504 -0.1577
   84CHL1  H22A 8679   5.814   3.876   7.921 -1.0955  0.7797  1.6012
   84CHL1  H22B 8680   5.854   4.017   7.832  0.0515  1.0279  3.6123
   84CHL1   C23 8681   5.667   4.036   7.923  0.5279  0.0316 -0.6516
   84CHL1  H23A 8682   5.633   4.121   7.859 -0.2577  0.2815  0.0829
   84CHL1  H23B 8683   5.581   3.970   7.948 -1.7044  2.7764 -0.5452
   84CHL1   C24 8684   5.731   4.099   8.053 -0.3926  0.0546 -0.2062
   84CHL1  H24A 8685   5.822   4.050   8.093 -0.9727  0.2287  1.4080
   84CHL1  H24B 8686   5.762   4.203   8.032  1.6128 -0.3965  0.2934
   84CHL1   C25 8687   5.629   4.104   8.170  0.7808 -0.2837 -0.2674
   84CHL1   H25 8688   5.526   4.091   8.130  0.6428  1.6125 -0.6175
   84CHL1   C26 8689   5.662   4.001   8.277  0.2922  0.0326  0.6399
   84CHL1  H26A 8690   5.767   4.002   8.312  1.3235 -0.1368 -2.1563
   84CHL1  H26B 8691   5.589   4.006   8.360  1.0276 -2.4906  1.5298
   84CHL1  H26C 8692   5.663   3.897   8.239  1.6129 -0.0014  0.7454
   84CHL1   C27 8693   5.639   4.246   8.223  0.1710  1.0624 -0.0907
   84CHL1  H27A 8694   5.578   4.257   8.315  2.5714 -2.2114  2.1027
   84CHL1  H27B 8695   5.746   4.267   8.244 -0.2656  2.4318  0.8979
   84CHL1  H27C 8696   5.603   4.312   8.141 -6.5267 -2.5610 -0.7911
   85CHL1    C3 8697   0.113   0.215   6.693 -0.0731  0.2437 -0.8648
   85CHL1    H3 8698   0.161   0.117   6.715 -0.6913 -0.2249 -1.5684
   85CHL1    O3 8699   0.063   0.217   6.558 -0.7329 -0.4084 -0.0786
   85CHL1   H3' 8700   0.045   0.310   6.538  0.5370 -0.5176 -2.0753
   85CHL1    C4 8701  -0.005   0.219   6.794  0.2420  0.2049  0.2051
   85CHL1   H4A 8702  -0.069   0.303   6.761 -2.6107 -1.2217  1.7396
   85CHL1   H4B 8703  -0.064   0.130   6.767 -0.3807  0.7150 -0.1423
   85CHL1    C5 8704   0.036   0.234   6.938 -0.5301  0.0244  0.4114
   85CHL1    C6 8705  -0.019   0.152   7.025 -0.2222 -0.9196 -0.0150
   85CHL1    H6 8706  -0.096   0.082   6.989 -2.6926  0.9314  1.3350
   85CHL1    C7 8707   0.008   0.143   7.175  0.6149 -0.4312 -0.2768
   85CHL1   H7A 8708  -0.085   0.144   7.235  0.4521  2.9827 -0.4060
   85CHL1   H7B 8709   0.057   0.048   7.205 -0.5019 -0.2941  2.2365
   85CHL1    C8 8710   0.094   0.267   7.220 -0.5575 -0.1942  0.1081
   85CHL1    H8 8711   0.040   0.363   7.235  1.4714  0.9858  0.2536
   85CHL1   C14 8712   0.163   0.233   7.347 -0.4123  0.1196 -0.5196
   85CHL1   H14 8713   0.240   0.160   7.317  0.0265  1.1257 -1.9590
   85CHL1   C15 8714   0.076   0.169   7.454 -0.1713 -0.1833 -0.4138
   85CHL1  H15A 8715  -0.018   0.226   7.465  0.2336  0.6631 -1.1482
   85CHL1  H15B 8716   0.058   0.060   7.443  0.8182 -0.4453  0.3688
   85CHL1   C16 8717   0.169   0.181   7.586 -0.4857 -0.6091  0.7171
   85CHL1  H16A 8718   0.108   0.216   7.672 -1.9985 -1.3455 -0.0036
   85CHL1  H16B 8719   0.196   0.082   7.630  0.3491 -0.6230  0.1924
   85CHL1   C17 8720   0.288   0.270   7.547  0.4448  0.6861  0.9687
   85CHL1   H17 8721   0.357   0.196   7.503 -0.4137  1.4521 -1.8403
   85CHL1   C13 8722   0.241   0.344   7.419 -0.1732  0.4231  0.5141
   85CHL1   C18 8723   0.144   0.457   7.453 -0.2576 -0.0829  0.5702
   85CHL1  H18A 8724   0.111   0.497   7.354  1.3633  2.8580  1.0911
   85CHL1  H18B 8725   0.063   0.425   7.522 -0.2655  3.2008  2.2424
   85CHL1  H18C 8726   0.200   0.536   7.507  0.8051  0.4353 -1.1952
   85CHL1   C12 8727   0.348   0.388   7.318  0.3046 -0.4901  0.1587
   85CHL1  H12A 8728   0.402   0.474   7.364 -3.8000  0.3660  4.1305
   85CHL1  H12B 8729   0.423   0.306   7.315 -0.0964 -0.9522  1.7929
   85CHL1   C11 8730   0.290   0.421   7.179 -0.9976 -0.6569  0.0589
   85CHL1  H11A 8731   0.228   0.512   7.194  2.2719  2.0171 -1.4003
   85CHL1  H11B 8732   0.372   0.461   7.116  0.1272  0.7644  2.2832
   85CHL1    C9 8733   0.204   0.312   7.117 -0.1267 -0.6851  0.5320
   85CHL1    H9 8734   0.276   0.227   7.118  2.0253  1.0179  3.1081
   85CHL1   C10 8735   0.151   0.344   6.969 -0.5538  0.6781  0.0863
   85CHL1   C19 8736   0.080   0.479   6.973 -0.2247  0.0692 -0.2105
   85CHL1  H19A 8737  -0.003   0.479   7.046  0.5376 -0.8657  0.6721
   85CHL1  H19B 8738   0.146   0.565   6.998 -2.1797  2.1367 -1.7491
   85CHL1  H19C 8739   0.032   0.507   6.876 -0.2448  2.6653  0.4668
   85CHL1    C1 8740   0.264   0.342   6.868  0.2561  0.6637  0.0924
   85CHL1   H1A 8741   0.326   0.434   6.867  0.4165  0.5667 -0.9924
   85CHL1   H1B 8742   0.332   0.254   6.877  1.3880  1.6358  1.6164
   85CHL1    C2 8743   0.209   0.335   6.722 -0.2346 -0.2000  0.1969
   85CHL1   H2A 8744   0.295   0.321   6.652 -1.2346  1.7247 -1.5232
   85CHL1   H2B 8745   0.162   0.430   6.689 -1.5206 -1.1505 -0.8320
   85CHL1   C20 8746   0.356   0.349   7.666 -1.2826  0.4276 -0.4034
   85CHL1   H20 8747   0.274   0.419   7.690 -2.2879 -0.2136 -1.7951
   85CHL1   C21 8748   0.485   0.432   7.625 -0.0382  0.0202  0.5417
   85CHL1  H21A 8749   0.522   0.487   7.714 -0.2438  0.3110  0.4496
   85CHL1  H21B 8750   0.462   0.497   7.538  2.2101 -0.3917 -0.4399
   85CHL1  H21C 8751   0.568   0.369   7.586  2.3166  2.1878  1.7895
   85CHL1   C22 8752   0.383   0.253   7.789  0.7912  0.4397  0.0889
   85CHL1  H22A 8753   0.293   0.198   7.824 -0.4355  2.1116 -0.3242
   85CHL1  H22B 8754   0.456   0.178   7.751  0.7736  0.4776 -0.0200
   85CHL1   C23 8755   0.433   0.323   7.917 -0.6920 -0.6381  0.4589
   85CHL1  H23A 8756   0.531   0.374   7.905 -1.6609  0.9301 -1.2618
   85CHL1  H23B 8757   0.354   0.392   7.953  1.6379  3.2720 -1.3266
   85CHL1   C24 8758   0.467   0.231   8.031 -0.1841 -0.4168 -0.4329
   85CHL1  H24A 8759   0.541   0.155   7.997  0.9901 -0.3395  1.7689
   85CHL1  H24B 8760   0.515   0.285   8.115 -0.9025 -0.0150 -0.2779
   85CHL1   C25 8761   0.347   0.168   8.100 -0.9050 -0.3273  0.1369
   85CHL1   H25 8762   0.276   0.121   8.028 -2.7577  2.9978 -0.4541
   85CHL1   C26 8763   0.397   0.056   8.198  0.0088 -0.3685  0.4904
   85CHL1  H26A 8764   0.312   0.020   8.258  0.1610 -1.2126  0.2074
   85CHL1  H26B 8765   0.451  -0.026   8.146  0.6514  0.8072 -0.7982
   85CHL1  H26C 8766   0.473   0.097   8.268 -0.6635  1.8596 -0.0036
   85CHL1   C27 8767   0.272   0.282   8.166  0.3591  0.4958  0.5475
   85CHL1  H27A 8768   0.206   0.246   8.247 -0.1144 -0.9743 -0.4385
   85CHL1  H27B 8769   0.337   0.358   8.214 -0.1716  0.4895  1.2980
   85CHL1  H27C 8770   0.197   0.329   8.098 -2.0856 -1.8565  1.4484
   86CHL1    C3 8771   0.043   6.499   7.045 -0.3611  0.3829  0.6150
   86CHL1    H3 8772   0.144   6.543   7.062  0.0996 -0.2575 -0.3452
   86CHL1    O3 8773   0.008   6.476   6.906 -0.5472 -0.3785  0.5453
   86CHL1   H3' 8774   0.077   6.421   6.869 -0.2612  1.0982 -1.2772
   86CHL1    C4 8775   0.042   6.368   7.120 -0.3914  0.4866  0.5977
   86CHL1   H4A 8776  -0.057   6.319   7.104 -1.1697  0.9836  3.3599
   86CHL1   H4B 8777   0.116   6.306   7.064 -1.4403  0.3118 -0.6452
   86CHL1    C5 8778   0.057   6.366   7.268 -0.2353 -1.2907  0.5360
   86CHL1    C6 8779   0.150   6.287   7.321 -0.5723 -0.2392 -0.3506
   86CHL1    H6 8780   0.208   6.217   7.258  0.2767  0.8951 -0.8507
   86CHL1    C7 8781   0.181   6.290   7.466 -0.0028  0.3555  0.1735
   86CHL1   H7A 8782   0.165   6.185   7.499 -1.2744 -0.4258 -2.5714
   86CHL1   H7B 8783   0.289   6.310   7.480  0.7921 -2.7918 -0.5769
   86CHL1    C8 8784   0.093   6.384   7.553  0.0089 -0.2246  0.2941
   86CHL1    H8 8785   0.004   6.323   7.581 -1.0831  0.8720 -0.6763
   86CHL1   C14 8786   0.164   6.424   7.681 -0.5016  0.2780 -0.1457
   86CHL1   H14 8787   0.248   6.490   7.651 -1.4595  2.1036  1.0451
   86CHL1   C15 8788   0.223   6.300   7.756 -0.7001  0.0386 -0.0955
   86CHL1  H15A 8789   0.148   6.218   7.754  0.8721 -1.5046  1.0123
   86CHL1  H15B 8790   0.320   6.266   7.716 -0.8319 -2.1168  1.2549
   86CHL1   C16 8791   0.235   6.344   7.904 -0.2381 -0.3501 -0.8154
   86CHL1  H16A 8792   0.185   6.263   7.961  2.7993 -2.7213 -1.2958
   86CHL1  H16B 8793   0.342   6.350   7.931 -0.0083 -0.0506 -1.7577
   86CHL1   C17 8794   0.168   6.488   7.900  0.0743 -0.2315  0.0578
   86CHL1   H17 8795   0.244   6.561   7.864  0.1273  0.4774  1.5629
   86CHL1   C13 8796   0.071   6.493   7.779  0.4435 -0.2364 -0.1386
   86CHL1   C18 8797  -0.055   6.407   7.815  0.0391  0.2008  0.5047
   86CHL1  H18A 8798  -0.124   6.394   7.729  2.8667  1.0263 -2.1014
   86CHL1  H18B 8799  -0.041   6.302   7.849  0.4265 -0.0086 -0.2628
   86CHL1  H18C 8800  -0.123   6.440   7.896  0.5980 -1.9276  1.9217
   86CHL1   C12 8801   0.040   6.634   7.718  0.2937  0.2992 -0.0353
   86CHL1  H12A 8802  -0.030   6.696   7.778  0.5448  0.3397  0.2155
   86CHL1  H12B 8803   0.131   6.697   7.715 -1.4595  3.0200  0.1821
   86CHL1   C11 8804  -0.023   6.611   7.571 -0.3267  0.8080  0.1986
   86CHL1  H11A 8805  -0.125   6.571   7.589 -0.4987  0.8995 -0.5446
   86CHL1  H11B 8806  -0.048   6.712   7.532 -1.2616  0.1247 -1.0830
   86CHL1    C9 8807   0.052   6.514   7.478 -0.4330  0.4334 -0.5450
   86CHL1    H9 8808   0.154   6.553   7.458  0.8488 -2.1166  0.5414
   86CHL1   C10 8809  -0.016   6.481   7.341 -0.6590 -0.0435 -0.3730
   86CHL1   C19 8810  -0.161   6.430   7.365  0.1146 -0.0651  0.9055
   86CHL1  H19A 8811  -0.161   6.334   7.421  0.1096 -1.1289 -0.8461
   86CHL1  H19B 8812  -0.225   6.496   7.425 -0.6982 -0.8207  0.8930
   86CHL1  H19C 8813  -0.223   6.410   7.275 -1.5303  2.3487  1.4240
   86CHL1    C1 8814  -0.025   6.615   7.257 -0.4066  0.7163 -0.2964
   86CHL1   H1A 8815  -0.100   6.683   7.302 -0.5905 -0.2049  0.8349
   86CHL1   H1B 8816   0.077   6.659   7.265  0.1130 -0.4687 -0.1042
   86CHL1    C2 8817  -0.058   6.599   7.105 -0.7697 -0.0211 -0.7455
   86CHL1   H2A 8818  -0.036   6.701   7.067  0.5223  0.0897  0.2185
   86CHL1   H2B 8819  -0.165   6.574   7.090 -0.4478 -1.4531 -0.8529
   86CHL1   C20 8820   0.117   6.543   8.034 -0.2808 -0.7332  0.3373
   86CHL1   H20 8821   0.042   6.623   8.018  1.7931  1.0776 -0.9268
   86CHL1   C21 8822   0.235   6.633   8.092  0.3121  0.7386  0.4370
   86CHL1  H21A 8823   0.321   6.567   8.118  0.8454  1.5187  0.6710
   86CHL1  H21B 8824   0.197   6.690   8.179 -1.6394  0.8967 -0.4807
   86CHL1  H21C 8825   0.268   6.713   8.023  0.4417  1.2533  1.0839
   86CHL1   C22 8826   0.076   6.435   8.135 -0.3418 -0.0741 -0.1863
   86CHL1  H22A 8827   0.007   6.364   8.085  1.2361 -2.2663  0.6006
   86CHL1  H22B 8828   0.164   6.383   8.177 -0.2743 -0.3329 -0.6426
   86CHL1   C23 8829  -0.004   6.485   8.249  0.4278 -0.0548  0.4621
   86CHL1  H23A 8830   0.062   6.543   8.316 -1.9706  2.4968  0.7917
   86CHL1  H23B 8831  -0.089   6.552   8.224  0.3898  0.5444  2.0705
   86CHL1   C24 8832  -0.059   6.378   8.348 -0.0097  0.0523 -0.1063
   86CHL1  H24A 8833  -0.120   6.306   8.289  2.0037  0.3099 -2.6545
   86CHL1  H24B 8834   0.026   6.316   8.382  1.2106  1.6898 -0.0540
   86CHL1   C25 8835  -0.145   6.431   8.464 -0.0390 -0.2163  0.3952
   86CHL1   H25 8836  -0.221   6.495   8.415  1.6134  0.2223 -1.7604
   86CHL1   C26 8837  -0.199   6.308   8.536 -0.0862  0.5563  0.3577
   86CHL1  H26A 8838  -0.113   6.263   8.588  0.1079 -0.0658 -0.4756
   86CHL1  H26B 8839  -0.268   6.330   8.620 -1.3422  1.1543 -0.7914
   86CHL1  H26C 8840  -0.235   6.232   8.463  3.2077 -0.1601 -0.6999
   86CHL1   C27 8841  -0.067   6.513   8.571 -0.7781  0.3876 -0.8709
   86CHL1  H27A 8842  -0.014   6.445   8.641  1.0335  1.6643 -0.9331
   86CHL1  H27B 8843   0.011   6.574   8.520  2.1674 -1.2630  1.3332
   86CHL1  H27C 8844  -0.142   6.568   8.632  0.9033  1.3196  0.4341
   87CHL1    C3 8845   2.441   4.462   7.150  0.3558  0.1348  0.6390
   87CHL1    H3 8846   2.501   4.369   7.153 -1.1148 -0.8623  0.2979
   87CHL1    O3 8847   2.383   4.470   7.020  0.2337 -1.0967 -0.1692
   87CHL1   H3' 8848   2.330   4.550   7.013  2.4450  0.8868  2.8644
   87CHL1    C4 8849   2.343   4.462   7.268  0.2890  0.2962  0.7788
   87CHL1   H4A 8850   2.268   4.544   7.266 -1.2761 -1.0912  0.3168
   87CHL1   H4B 8851   2.284   4.370   7.247  2.0063 -1.4055  2.8650
   87CHL1    C5 8852   2.407   4.452   7.404 -0.0782  0.1823 -0.4095
   87CHL1    C6 8853   2.374   4.367   7.502 -0.3623  0.4809  0.0607
   87CHL1    H6 8854   2.289   4.299   7.489 -0.6344  0.2845  2.3517
   87CHL1    C7 8855   2.437   4.359   7.643 -0.7116  0.1292  0.3624
   87CHL1   H7A 8856   2.360   4.350   7.723 -0.4065  2.7842  1.0395
   87CHL1   H7B 8857   2.505   4.271   7.643 -2.2625 -1.1637 -1.2248
   87CHL1    C8 8858   2.528   4.481   7.672 -0.6244  0.8443 -0.3189
   87CHL1    H8 8859   2.456   4.563   7.690 -0.3811  0.9996 -0.0489
   87CHL1   C14 8860   2.623   4.441   7.790  0.4176 -0.0348  0.2665
   87CHL1   H14 8861   2.689   4.366   7.742 -1.2804 -0.2373 -1.9078
   87CHL1   C15 8862   2.568   4.375   7.923  1.0807 -0.3333  1.0017
   87CHL1  H15A 8863   2.488   4.439   7.966  0.7463 -0.6368  0.8376
   87CHL1  H15B 8864   2.539   4.268   7.908  0.6889 -0.0567 -0.2614
   87CHL1   C16 8865   2.684   4.388   8.026  0.2562  0.0770 -0.0643
   87CHL1  H16A 8866   2.646   4.450   8.110  0.5229 -0.8341  0.7422
   87CHL1  H16B 8867   2.725   4.294   8.068  1.3461  0.2758 -0.6378
   87CHL1   C17 8868   2.797   4.472   7.949 -1.0496 -0.4546 -0.2689
   87CHL1   H17 8869   2.864   4.399   7.899 -2.4509 -2.1648  0.2541
   87CHL1   C13 8870   2.715   4.548   7.834  0.3862 -0.2524  0.0522
   87CHL1   C18 8871   2.649   4.665   7.900  0.1144 -0.1254  0.0548
   87CHL1  H18A 8872   2.724   4.745   7.920  0.7633 -0.5880 -0.4629
   87CHL1  H18B 8873   2.570   4.704   7.832  0.0097 -0.9480 -0.3047
   87CHL1  H18C 8874   2.603   4.627   7.994  1.2493 -1.5262  0.0789
   87CHL1   C12 8875   2.797   4.586   7.708 -0.4062  0.2537 -0.1433
   87CHL1  H12A 8876   2.848   4.683   7.729  0.2142 -0.1677  0.3650
   87CHL1  H12B 8877   2.869   4.512   7.668  0.9906  1.9676 -0.9640
   87CHL1   C11 8878   2.714   4.631   7.589  0.0088  0.4142  0.3071
   87CHL1  H11A 8879   2.654   4.720   7.616 -1.5133 -0.4596 -0.0410
   87CHL1  H11B 8880   2.756   4.644   7.487 -1.6486  1.0023 -0.3392
   87CHL1    C9 8881   2.612   4.523   7.547  0.5901  0.0735 -0.0003
   87CHL1    H9 8882   2.669   4.434   7.511 -0.8146 -0.9244  0.1733
   87CHL1   C10 8883   2.523   4.556   7.419 -0.8046 -0.1492  0.2420
   87CHL1   C19 8884   2.454   4.689   7.439 -0.2107 -0.7539  0.5939
   87CHL1  H19A 8885   2.529   4.771   7.433 -0.9075  0.1739  3.1504
   87CHL1  H19B 8886   2.375   4.706   7.362 -1.6482  0.5184  2.2346
   87CHL1  H19C 8887   2.398   4.707   7.534 -2.5502 -1.7133 -0.5109
   87CHL1    C1 8888   2.615   4.562   7.290  0.6952  0.2071 -0.4952
   87CHL1   H1A 8889   2.681   4.651   7.286  0.2359  0.5513 -0.4994
   87CHL1   H1B 8890   2.671   4.466   7.290  0.0833 -0.1612 -0.0835
   87CHL1    C2 8891   2.537   4.578   7.159 -0.4575  0.5650  0.1592
   87CHL1   H2A 8892   2.611   4.582   7.076  1.2240  0.9113  1.6039
   87CHL1   H2B 8893   2.480   4.673   7.154 -0.4485  0.5813  0.3657
   87CHL1   C20 8894   2.886   4.550   8.047  0.3962  0.4101 -0.0856
   87CHL1   H20 8895   2.817   4.619   8.099  1.2657  0.1948  1.4075
   87CHL1   C21 8896   2.994   4.622   7.963  0.2177  0.6488  0.5468
   87CHL1  H21A 8897   3.048   4.552   7.895 -1.7658 -2.3028  1.8269
   87CHL1  H21B 8898   3.053   4.675   8.040  2.8055 -3.3371  1.5991
   87CHL1  H21C 8899   2.940   4.702   7.907  1.6362  2.1618  1.2510
   87CHL1   C22 8900   2.945   4.459   8.161  0.2506  0.3140  0.2661
   87CHL1  H22A 8901   2.865   4.412   8.221  0.2444  1.8248  1.4915
   87CHL1  H22B 8902   3.005   4.382   8.106 -1.1580 -0.9306  0.4073
   87CHL1   C23 8903   3.030   4.538   8.258  0.7623  0.2728  0.5840
   87CHL1  H23A 8904   3.125   4.572   8.211  1.0299 -2.6787 -1.2196
   87CHL1  H23B 8905   2.983   4.631   8.295  0.7925  0.3297  0.4819
   87CHL1   C24 8906   3.068   4.449   8.373  0.6824  0.0011 -0.0904
   87CHL1  H24A 8907   2.974   4.439   8.430  0.0849  2.1994 -0.5957
   87CHL1  H24B 8908   3.103   4.347   8.346 -0.4948 -0.7419  1.1365
   87CHL1   C25 8909   3.167   4.508   8.465 -0.3510  0.5017  0.4427
   87CHL1   H25 8910   3.263   4.528   8.414 -0.8457  0.9014 -0.3380
   87CHL1   C26 8911   3.125   4.633   8.539 -0.2116 -0.8226 -0.2209
   87CHL1  H26A 8912   3.089   4.703   8.460  1.9566  0.4241 -0.1846
   87CHL1  H26B 8913   3.038   4.613   8.605 -1.8351  1.8041 -1.3594
   87CHL1  H26C 8914   3.212   4.679   8.591 -0.4914  0.1579 -0.5925
   87CHL1   C27 8915   3.204   4.405   8.571 -0.1986 -0.0169 -0.5711
   87CHL1  H27A 8916   3.114   4.393   8.635  1.0886 -1.3344  1.0586
   87CHL1  H27B 8917   3.237   4.315   8.516  3.2698  0.7932 -0.0349
   87CHL1  H27C 8918   3.289   4.445   8.631 -0.0552 -0.7468 -0.2757
   88CHL1    C3 8919   6.251   6.689   6.770 -0.1417  0.4633  0.3138
   88CHL1    H3 8920   6.163   6.626   6.798 -0.9572 -0.1299 -3.1336
   88CHL1    O3 8921   6.262   6.701   6.626 -0.1632 -0.2210 -0.4368
   88CHL1   H3' 8922   6.188   6.760   6.610  0.8448  0.9338 -0.9864
   88CHL1    C4 8923   6.232   6.831   6.828 -0.0397  0.1746 -0.3052
   88CHL1   H4A 8924   6.322   6.889   6.800  0.9459 -1.0463  0.2340
   88CHL1   H4B 8925   6.143   6.875   6.779 -0.8379 -1.5225 -0.4698
   88CHL1    C5 8926   6.222   6.826   6.977  0.1729 -0.1105 -0.2696
   88CHL1    C6 8927   6.117   6.882   7.039  0.0025 -0.4346  0.4818
   88CHL1    H6 8928   6.043   6.934   6.976  1.9611  0.3005 -1.3153
   88CHL1    C7 8929   6.112   6.893   7.185  0.5225 -0.1697  0.1252
   88CHL1   H7A 8930   6.087   6.996   7.219  0.1651 -0.9369  2.2996
   88CHL1   H7B 8931   6.026   6.832   7.218  1.0546 -0.3109  1.2892
   88CHL1    C8 8932   6.245   6.848   7.260  0.3097 -0.1189  0.4997
   88CHL1    H8 8933   6.324   6.926   7.258 -0.2126  0.4009 -0.2944
   88CHL1   C14 8934   6.216   6.822   7.406  0.3825  0.4725  0.2366
   88CHL1   H14 8935   6.134   6.747   7.409  1.0108 -0.2100  0.5551
   88CHL1   C15 8936   6.155   6.930   7.502 -0.2828  0.3259  0.4697
   88CHL1  H15A 8937   6.208   7.023   7.470 -0.2568  0.5078  1.0239
   88CHL1  H15B 8938   6.048   6.947   7.481 -0.3365 -0.1816  0.3320
   88CHL1   C16 8939   6.186   6.888   7.646 -0.1086  0.1320 -0.1073
   88CHL1  H16A 8940   6.261   6.960   7.684 -0.3740  0.5370 -0.3455
   88CHL1  H16B 8941   6.094   6.886   7.707  0.4808  3.6310  1.1382
   88CHL1   C17 8942   6.254   6.750   7.631  0.4370 -0.3620 -0.5104
   88CHL1   H17 8943   6.172   6.676   7.616  1.2954 -1.0739 -1.8710
   88CHL1   C13 8944   6.326   6.758   7.491 -0.1880  0.1885 -0.4386
   88CHL1   C18 8945   6.455   6.846   7.490  0.1290  0.1230 -0.5314
   88CHL1  H18A 8946   6.502   6.871   7.392  0.6936  0.2450 -0.2319
   88CHL1  H18B 8947   6.429   6.942   7.540 -1.0604 -0.3918 -0.1264
   88CHL1  H18C 8948   6.526   6.801   7.562 -0.3213 -0.8279 -0.6655
   88CHL1   C12 8949   6.360   6.620   7.425 -0.6440  0.6787 -0.8038
   88CHL1  H12A 8950   6.434   6.574   7.493  0.1747 -1.8600 -3.2096
   88CHL1  H12B 8951   6.271   6.553   7.426 -0.5813  0.5884  0.8702
   88CHL1   C11 8952   6.401   6.650   7.283 -0.2281  1.1395  0.1480
   88CHL1  H11A 8953   6.501   6.698   7.292  0.3461  0.4152 -1.7727
   88CHL1  H11B 8954   6.417   6.553   7.230  0.6848  1.2072  0.2741
   88CHL1    C9 8955   6.294   6.724   7.196 -0.0803 -0.9193  0.3945
   88CHL1    H9 8956   6.201   6.663   7.188 -0.9476  0.3785  0.3848
   88CHL1   C10 8957   6.338   6.753   7.047 -0.2230  0.2624 -0.7377
   88CHL1   C19 8958   6.471   6.828   7.047  0.3827  0.1175 -0.1775
   88CHL1  H19A 8959   6.456   6.924   7.101  0.3643  2.1803 -3.5339
   88CHL1  H19B 8960   6.560   6.774   7.087 -0.3129  0.6888  2.3007
   88CHL1  H19C 8961   6.505   6.857   6.945  1.2945 -0.5059 -0.0697
   88CHL1    C1 8962   6.370   6.615   6.977  0.4451  0.0572 -0.0403
   88CHL1   H1A 8963   6.461   6.580   7.030 -1.5272  0.5581  4.1104
   88CHL1   H1B 8964   6.295   6.537   7.002 -0.1098  0.6329  0.1275
   88CHL1    C2 8965   6.387   6.624   6.820  0.0760 -0.0177 -0.6700
   88CHL1   H2A 8966   6.412   6.522   6.786  1.0110 -0.5570  1.4595
   88CHL1   H2B 8967   6.471   6.690   6.791  0.3566  0.8015  1.7345
   88CHL1   C20 8968   6.340   6.702   7.757  0.1379 -0.2322  0.3317
   88CHL1   H20 8969   6.425   6.641   7.719  1.4366 -0.5020  3.4338
   88CHL1   C21 8970   6.240   6.617   7.837 -0.4646 -0.0108  0.6792
   88CHL1  H21A 8971   6.283   6.578   7.932  0.4463 -1.7846 -0.3874
   88CHL1  H21B 8972   6.194   6.536   7.776 -0.3783  2.0394 -2.3140
   88CHL1  H21C 8973   6.157   6.683   7.871 -0.7402 -0.2712  0.5198
   88CHL1   C22 8974   6.409   6.814   7.845  0.1614  0.0673 -0.2248
   88CHL1  H22A 8975   6.438   6.896   7.776  3.3083  0.1029  1.0187
   88CHL1  H22B 8976   6.336   6.855   7.918 -0.0726  0.0102 -0.4238
   88CHL1   C23 8977   6.538   6.761   7.909  0.2897  0.2849  0.8373
   88CHL1  H23A 8978   6.506   6.659   7.941  2.7025 -0.2548  1.7775
   88CHL1  H23B 8979   6.621   6.753   7.836 -0.3781 -0.0633  0.1036
   88CHL1   C24 8980   6.577   6.841   8.038 -0.1827  0.1299  0.4479
   88CHL1  H24A 8981   6.485   6.839   8.100 -1.6140  0.4083 -1.5566
   88CHL1  H24B 8982   6.657   6.780   8.086  0.9616  1.1891 -0.0529
   88CHL1   C25 8983   6.631   6.980   8.007  0.1319 -0.1516  0.3053
   88CHL1   H25 8984   6.549   7.043   7.968 -2.4212 -3.5151 -0.1809
   88CHL1   C26 8985   6.684   7.042   8.134 -0.1920  0.2675  0.4521
   88CHL1  H26A 8986   6.620   7.049   8.224  1.0539 -0.6888  1.4474
   88CHL1  H26B 8987   6.780   6.993   8.161  0.4201 -0.1923 -2.2992
   88CHL1  H26C 8988   6.724   7.143   8.111 -0.1391  0.1507  0.0252
   88CHL1   C27 8989   6.753   6.972   7.911  0.2675 -0.6512 -0.0108
   88CHL1  H27A 8990   6.785   7.078   7.899 -1.6000  0.3525  2.7484
   88CHL1  H27B 8991   6.834   6.917   7.962  1.7290  0.3831 -1.1168
   88CHL1  H27C 8992   6.738   6.932   7.809  3.4056 -0.2401 -0.7373
   89CHL1    C3 8993   1.697   4.386   6.837  0.1097  0.3809 -0.5895
   89CHL1    H3 8994   1.685   4.276   6.837  0.3611  0.3427 -1.7981
   89CHL1    O3 8995   1.674   4.437   6.712 -0.4143 -0.3324  0.0810
   89CHL1   H3' 8996   1.760   4.480   6.702 -0.6566  0.5731  1.6370
   89CHL1    C4 8997   1.600   4.449   6.938  0.3391  0.2508  0.5960
   89CHL1   H4A 8998   1.589   4.556   6.913  0.6691 -0.2030 -1.7884
   89CHL1   H4B 8999   1.504   4.392   6.934  0.0242  0.7954  0.1833
   89CHL1    C5 9000   1.646   4.436   7.079 -0.7124 -0.5319 -0.6912
   89CHL1    C6 9001   1.559   4.397   7.176 -0.0621 -0.5865  0.0701
   89CHL1    H6 9002   1.456   4.367   7.152  0.1719 -0.3538 -1.2942
   89CHL1    C7 9003   1.593   4.395   7.316 -0.2493 -0.5281 -0.7891
   89CHL1   H7A 9004   1.504   4.429   7.373  0.3773  2.1289 -1.2675
   89CHL1   H7B 9005   1.614   4.291   7.350 -0.3810 -0.2493  0.1645
   89CHL1    C8 9006   1.721   4.471   7.357 -0.2643 -0.6560  0.1395
   89CHL1    H8 9007   1.705   4.581   7.359 -1.8195 -0.8570  2.6547
   89CHL1   C14 9008   1.761   4.420   7.490  0.0077 -0.7334 -0.5802
   89CHL1   H14 9009   1.795   4.314   7.485 -0.5681 -0.9009 -0.9913
   89CHL1   C15 9010   1.657   4.426   7.601  0.1068  0.5576  0.3260
   89CHL1  H15A 9011   1.600   4.520   7.586  0.9964  0.9641 -0.5734
   89CHL1  H15B 9012   1.577   4.350   7.591  0.9415  0.0068 -3.6390
   89CHL1   C16 9013   1.730   4.434   7.733 -0.1767 -0.6316  0.2785
   89CHL1  H16A 9014   1.719   4.536   7.778  2.5955  0.0359 -0.3833
   89CHL1  H16B 9015   1.701   4.351   7.800  1.1232 -1.7162 -0.4667
   89CHL1   C17 9016   1.878   4.428   7.689 -0.4162 -0.1506  0.7330
   89CHL1   H17 9017   1.911   4.323   7.671 -0.5686 -0.4903  2.2387
   89CHL1   C13 9018   1.880   4.494   7.548  0.3443  0.4075  0.1482
   89CHL1   C18 9019   1.852   4.640   7.570  0.1623  0.6040 -0.3580
   89CHL1  H18A 9020   1.771   4.662   7.643  1.0215 -1.3274  1.2824
   89CHL1  H18B 9021   1.941   4.685   7.618  0.3035 -0.2390  0.1952
   89CHL1  H18C 9022   1.828   4.693   7.475 -1.4591  0.9343  0.2065
   89CHL1   C12 9023   2.002   4.462   7.462  0.4996 -0.9101  0.5670
   89CHL1  H12A 9024   2.090   4.522   7.492  1.8388 -1.7963 -1.3439
   89CHL1  H12B 9025   2.022   4.356   7.490  0.3700 -0.8670  0.8224
   89CHL1   C11 9026   1.976   4.479   7.306  0.5093 -0.5767 -0.0628
   89CHL1  H11A 9027   1.985   4.588   7.289 -0.2687 -0.7579 -1.9208
   89CHL1  H11B 9028   2.055   4.423   7.253  0.2399 -2.1496  1.1170
   89CHL1    C9 9029   1.831   4.432   7.260 -0.6859  0.2776  0.2015
   89CHL1    H9 9030   1.839   4.321   7.267 -1.5069  0.1460 -0.6752
   89CHL1   C10 9031   1.791   4.474   7.118  0.1326  0.2642  0.0521
   89CHL1   C19 9032   1.814   4.622   7.108  0.0744  0.4463 -1.0482
   89CHL1  H19A 9033   1.775   4.672   7.199  0.7972 -1.6087  0.4721
   89CHL1  H19B 9034   1.924   4.636   7.110  0.1503  0.0137  1.7387
   89CHL1  H19C 9035   1.750   4.667   7.030 -2.5701 -1.2022  0.0161
   89CHL1    C1 9036   1.873   4.387   7.021 -0.3880 -0.0657 -0.6944
   89CHL1   H1A 9037   1.983   4.380   7.034 -0.6282 -1.8378  0.7223
   89CHL1   H1B 9038   1.838   4.282   7.029  0.7281 -0.3002  1.7037
   89CHL1    C2 9039   1.845   4.412   6.876 -0.3160 -0.3058  0.5914
   89CHL1   H2A 9040   1.920   4.350   6.822  0.8851  0.6660  1.0919
   89CHL1   H2B 9041   1.879   4.515   6.852 -0.7797 -0.5822 -1.4207
   89CHL1   C20 9042   1.983   4.467   7.802  0.2615  0.0215  0.1740
   89CHL1   H20 9043   1.947   4.564   7.841 -1.4715 -0.6323  0.2868
   89CHL1   C21 9044   2.132   4.473   7.751  0.2013  0.4296  0.6308
   89CHL1  H21A 9045   2.152   4.383   7.689  2.6159  1.7201 -0.6383
   89CHL1  H21B 9046   2.204   4.479   7.836 -0.6816 -1.6481  1.5755
   89CHL1  H21C 9047   2.144   4.559   7.681 -0.1466  1.2431  1.5564
   89CHL1   C22 9048   1.969   4.364   7.917  0.1507  0.7037 -0.9662
   89CHL1  H22A 9049   1.863   4.360   7.952  0.5627 -0.6295  0.2457
   89CHL1  H22B 9050   1.996   4.265   7.875  0.2693  0.6665 -0.8051
   89CHL1   C23 9051   2.035   4.397   8.046  0.0221 -0.5859 -0.5018
   89CHL1  H23A 9052   2.144   4.390   8.027 -0.3415  0.6752 -3.5661
   89CHL1  H23B 9053   2.011   4.501   8.077 -0.3847 -0.2307 -1.9219
   89CHL1   C24 9054   1.995   4.298   8.155 -0.2458 -0.6841 -0.8023
   89CHL1  H24A 9055   1.889   4.312   8.183  0.0007 -0.4656  0.0641
   89CHL1  H24B 9056   2.003   4.194   8.119 -1.0629 -0.9995 -0.0918
   89CHL1   C25 9057   2.078   4.313   8.288 -0.2775 -0.4426 -0.0917
   89CHL1   H25 9058   2.097   4.422   8.298 -0.2879 -0.6508  2.7650
   89CHL1   C26 9059   1.995   4.276   8.404 -0.1242  0.4208 -0.2743
   89CHL1  H26A 9060   2.069   4.281   8.486  0.9984 -1.0899 -1.1401
   89CHL1  H26B 9061   1.913   4.349   8.420  0.2492  0.4830  1.5058
   89CHL1  H26C 9062   1.962   4.170   8.409 -2.5861  1.1753  1.9781
   89CHL1   C27 9063   2.217   4.239   8.295  0.5443 -0.7071  0.4939
   89CHL1  H27A 9064   2.282   4.253   8.206  1.3333  0.0602  1.1692
   89CHL1  H27B 9065   2.270   4.284   8.382  1.2915 -1.7068  0.5721
   89CHL1  H27C 9066   2.199   4.130   8.306  0.3929 -0.7438 -0.1028
   90CHL1    C3 9067   0.633   1.980   6.825 -0.0614  0.2523  0.3457
   90CHL1    H3 9068   0.525   1.953   6.831 -0.1740  0.5715 -0.2063
   90CHL1    O3 9069   0.669   1.951   6.691 -0.1218  0.2569  0.4199
   90CHL1   H3' 9070   0.760   1.981   6.686 -0.8226  2.4977  0.1492
   90CHL1    C4 9071   0.669   2.123   6.868 -0.1711  0.9320 -0.2215
   90CHL1   H4A 9072   0.770   2.150   6.831  0.1894  1.5734  1.1767
   90CHL1   H4B 9073   0.600   2.196   6.821  1.5534  2.6849 -0.1371
   90CHL1    C5 9074   0.665   2.138   7.016 -0.5337 -0.1934 -0.6742
   90CHL1    C6 9075   0.583   2.229   7.070  0.1341  0.5968  0.2169
   90CHL1    H6 9076   0.525   2.300   7.010 -2.2757 -0.8498  0.7244
   90CHL1    C7 9077   0.569   2.256   7.211  0.1083 -0.3264 -0.8347
   90CHL1   H7A 9078   0.576   2.367   7.221 -1.0697 -0.3479  0.6778
   90CHL1   H7B 9079   0.467   2.221   7.237  0.1514  0.0962 -0.0521
   90CHL1    C8 9080   0.684   2.193   7.302  0.0114  0.0382  0.0899
   90CHL1    H8 9081   0.783   2.238   7.281  1.5756 -3.1683  0.0675
   90CHL1   C14 9082   0.633   2.196   7.447  0.6439 -0.1943  0.2977
   90CHL1   H14 9083   0.535   2.142   7.445  0.5036  0.0705 -0.2333
   90CHL1   C15 9084   0.596   2.324   7.524 -0.3733  0.1352 -0.8001
   90CHL1  H15A 9085   0.686   2.389   7.511 -0.7971  0.5573 -1.7095
   90CHL1  H15B 9086   0.520   2.388   7.475 -1.2331 -0.6991 -0.5745
   90CHL1   C16 9087   0.567   2.275   7.663  0.3164 -0.3297 -0.2150
   90CHL1  H16A 9088   0.569   2.344   7.750  1.5465 -1.5434  0.7807
   90CHL1  H16B 9089   0.458   2.255   7.672  0.0113  1.9952  3.3455
   90CHL1   C17 9090   0.643   2.141   7.685  0.7605  0.3760 -0.2735
   90CHL1   H17 9091   0.561   2.066   7.691 -0.0256  0.8114 -3.7385
   90CHL1   C13 9092   0.720   2.118   7.552  0.2984  0.2579  0.5444
   90CHL1   C18 9093   0.858   2.184   7.555 -0.7444 -0.1178  0.5710
   90CHL1  H18A 9094   0.844   2.281   7.608  0.4048  1.3257 -1.6260
   90CHL1  H18B 9095   0.929   2.124   7.617 -1.1362  2.0485  3.3284
   90CHL1  H18C 9096   0.906   2.207   7.458  0.1019 -1.6842  0.5810
   90CHL1   C12 9097   0.720   1.965   7.497 -0.2094 -0.6330 -0.4426
   90CHL1  H12A 9098   0.781   1.898   7.563 -1.5721 -1.2349  0.2461
   90CHL1  H12B 9099   0.614   1.936   7.510 -0.2747  0.0624  0.6483
   90CHL1   C11 9100   0.769   1.956   7.353 -0.2104 -0.1111  0.2974
   90CHL1  H11A 9101   0.879   1.974   7.359 -0.1021 -0.4142 -0.6563
   90CHL1  H11B 9102   0.760   1.851   7.317 -2.3918  0.1481 -0.0639
   90CHL1    C9 9103   0.692   2.042   7.258  0.1367 -0.1972 -0.2194
   90CHL1    H9 9104   0.587   2.008   7.270  0.2473  0.0316  1.7566
   90CHL1   C10 9105   0.726   2.035   7.107 -0.3149  1.0694  0.3253
   90CHL1   C19 9106   0.877   2.052   7.104 -0.3043  0.1929  0.0494
   90CHL1  H19A 9107   0.917   1.956   7.142 -0.5030 -0.0756 -0.4128
   90CHL1  H19B 9108   0.914   2.068   7.000 -2.0313 -0.6137 -0.7251
   90CHL1  H19C 9109   0.910   2.131   7.174 -0.6899  0.6725 -0.3049
   90CHL1    C1 9110   0.690   1.890   7.056  0.7462 -0.2384 -0.5573
   90CHL1   H1A 9111   0.750   1.811   7.105  0.1488 -0.6878 -0.5303
   90CHL1   H1B 9112   0.580   1.888   7.073  0.3166  1.5252 -2.6311
   90CHL1    C2 9113   0.713   1.878   6.906  0.0696  0.1528 -0.0886
   90CHL1   H2A 9114   0.677   1.780   6.871  0.7890  0.5057 -1.9372
   90CHL1   H2B 9115   0.823   1.887   6.888  0.2148 -0.5694  0.4028
   90CHL1   C20 9116   0.707   2.124   7.823 -0.5997 -0.0693  0.0698
   90CHL1   H20 9117   0.799   2.187   7.830 -0.1723 -0.3549 -2.2572
   90CHL1   C21 9118   0.756   1.978   7.843  0.0156  0.9562  0.6712
   90CHL1  H21A 9119   0.672   1.917   7.803  0.9187  0.2288 -0.1722
   90CHL1  H21B 9120   0.778   1.935   7.943 -1.3581 -0.9810  0.2073
   90CHL1  H21C 9121   0.845   1.956   7.780 -0.3718 -1.9781  1.0253
   90CHL1   C22 9122   0.617   2.168   7.941 -0.6171  0.6463 -0.3597
   90CHL1  H22A 9123   0.623   2.279   7.942 -2.2497  0.7607  0.9887
   90CHL1  H22B 9124   0.511   2.142   7.919  0.5015 -3.6247 -1.7186
   90CHL1   C23 9125   0.657   2.124   8.083 -0.0407  0.7723  0.0816
   90CHL1  H23A 9126   0.650   2.013   8.087  0.4316  0.7699  1.1696
   90CHL1  H23B 9127   0.762   2.158   8.092 -0.5671  2.2830  0.6829
   90CHL1   C24 9128   0.570   2.166   8.200  1.0426 -0.3382 -0.5388
   90CHL1  H24A 9129   0.572   2.274   8.226 -0.1217 -0.4725  0.1443
   90CHL1  H24B 9130   0.462   2.143   8.189  0.8382  0.3443 -0.0217
   90CHL1   C25 9131   0.613   2.109   8.337 -0.2306  0.1694 -0.4075
   90CHL1   H25 9132   0.693   2.173   8.382 -1.5595  0.2806  1.9868
   90CHL1   C26 9133   0.500   2.133   8.438 -0.4625 -0.4481  0.0772
   90CHL1  H26A 9134   0.421   2.061   8.407 -0.0615 -0.5746 -0.6944
   90CHL1  H26B 9135   0.534   2.111   8.541 -0.0526  0.0362  0.0503
   90CHL1  H26C 9136   0.465   2.238   8.430 -3.0797 -1.3031 -0.7756
   90CHL1   C27 9137   0.648   1.959   8.328  0.2784  0.2740 -0.9413
   90CHL1  H27A 9138   0.745   1.933   8.281 -0.3567 -0.9918 -1.5957
   90CHL1  H27B 9139   0.645   1.916   8.431  0.5132 -0.0682 -1.0762
   90CHL1  H27C 9140   0.571   1.909   8.266  0.1549  0.3652 -0.8635
   91CHL1    C3 9141   2.165   2.070   7.197 -0.3418 -0.6907 -0.2621
   91CHL1    H3 9142   2.082   1.997   7.198 -0.3316 -0.8055 -2.6645
   91CHL1    O3 9143   2.207   2.075   7.064 -0.1558 -0.1169  0.0084
   91CHL1   H3' 9144   2.126   2.106   7.023 -1.1250 -2.3238  0.0731
   91CHL1    C4 9145   2.101   2.205   7.224  0.6017 -0.0017 -0.2560
   91CHL1   H4A 9146   2.172   2.290   7.234  0.8907 -0.3890  1.2010
   91CHL1   H4B 9147   2.020   2.228   7.152 -1.5526  2.2904  2.6603
   91CHL1    C5 9148   2.041   2.190   7.364 -0.6792 -0.5018  0.8232
   91CHL1    C6 9149   1.912   2.198   7.377  0.0047  0.5617  0.2894
   91CHL1    H6 9150   1.850   2.209   7.287 -0.2494 -1.6871  0.1436
   91CHL1    C7 9151   1.844   2.194   7.517  0.1342  0.0269  0.2071
   91CHL1   H7A 9152   1.752   2.257   7.515 -2.2627 -3.1291  1.6121
   91CHL1   H7B 9153   1.801   2.093   7.535 -0.1738 -0.1864 -1.5060
   91CHL1    C8 9154   1.945   2.224   7.630 -0.0828 -0.5017  0.6472
   91CHL1    H8 9155   1.973   2.331   7.621 -0.6650 -0.2633  1.5593
   91CHL1   C14 9156   1.879   2.179   7.758  0.3456 -1.0054 -0.3894
   91CHL1   H14 9157   1.857   2.071   7.741  0.8233 -1.1673  0.0041
   91CHL1   C15 9158   1.750   2.252   7.799  0.6839 -0.5426  0.3988
   91CHL1  H15A 9159   1.767   2.362   7.796  0.0509 -0.4179  1.0209
   91CHL1  H15B 9160   1.660   2.225   7.739  0.0967  3.0359 -0.5535
   91CHL1   C16 9161   1.732   2.217   7.948  0.0200 -0.0016  0.5762
   91CHL1  H16A 9162   1.716   2.317   7.993  1.0098  0.5720 -0.2900
   91CHL1  H16B 9163   1.645   2.151   7.967  0.5079 -0.8813 -0.1642
   91CHL1   C17 9164   1.860   2.148   7.999 -0.0172 -0.8306 -0.0003
   91CHL1   H17 9165   1.838   2.041   7.980 -3.3377 -0.3262  0.3275
   91CHL1   C13 9166   1.968   2.187   7.882 -0.0358  0.1503 -0.2647
   91CHL1   C18 9167   2.012   2.336   7.909  0.2363 -0.3300 -0.1110
   91CHL1  H18A 9168   2.081   2.373   7.831  0.4420  2.4254  1.2737
   91CHL1  H18B 9169   1.921   2.398   7.917  0.2905 -0.1491 -0.8264
   91CHL1  H18C 9170   2.066   2.326   8.006 -1.6047 -1.6134  0.8553
   91CHL1   C12 9171   2.088   2.092   7.862  0.1528 -0.5770  0.0434
   91CHL1  H12A 9172   2.153   2.086   7.953 -0.6610 -0.0962  0.6736
   91CHL1  H12B 9173   2.050   1.988   7.854 -0.9290 -0.1466 -0.5355
   91CHL1   C11 9174   2.160   2.127   7.729  0.2291  0.4401 -0.0399
   91CHL1  H11A 9175   2.219   2.220   7.749  1.5775 -0.3694 -0.0789
   91CHL1  H11B 9176   2.235   2.049   7.704 -0.1676  0.2146 -0.5321
   91CHL1    C9 9177   2.067   2.136   7.609 -0.1011 -0.2214  0.2109
   91CHL1    H9 9178   2.031   2.031   7.599 -1.5035  0.0016  2.2710
   91CHL1   C10 9179   2.139   2.164   7.478 -0.0214 -0.1458  0.1176
   91CHL1   C19 9180   2.233   2.288   7.499  0.7442  0.4629 -0.7350
   91CHL1  H19A 9181   2.263   2.331   7.401 -0.6311  3.6386  0.1003
   91CHL1  H19B 9182   2.193   2.372   7.560 -0.7468 -0.3727 -0.5473
   91CHL1  H19C 9183   2.326   2.263   7.555  2.0150  3.4796 -1.2736
   91CHL1    C1 9184   2.232   2.046   7.445 -0.7659 -0.5229 -0.2197
   91CHL1   H1A 9185   2.320   2.034   7.511  0.7357 -1.5934 -2.2962
   91CHL1   H1B 9186   2.166   1.958   7.462  1.7247 -2.0792  2.2604
   91CHL1    C2 9187   2.279   2.037   7.294 -0.4561 -0.1034 -0.6645
   91CHL1   H2A 9188   2.322   1.937   7.273  2.2140  0.6798  0.5891
   91CHL1   H2B 9189   2.356   2.114   7.270  0.8919 -1.3534 -0.4621
   91CHL1   C20 9190   1.895   2.164   8.147  0.6349 -0.0529  0.3810
   91CHL1   H20 9191   1.971   2.244   8.155 -0.8275  1.5917 -1.1663
   91CHL1   C21 9192   1.958   2.035   8.199 -0.4782  0.7284  0.3687
   91CHL1  H21A 9193   1.981   2.030   8.307  0.6928 -0.4251  0.0897
   91CHL1  H21B 9194   2.053   2.012   8.145  0.1111  3.0838  0.2469
   91CHL1  H21C 9195   1.897   1.947   8.170  0.5226 -0.3070  1.3062
   91CHL1   C22 9196   1.774   2.190   8.236 -0.4743  0.4961 -0.4487
   91CHL1  H22A 9197   1.704   2.268   8.201 -0.4144  1.2320  0.9896
   91CHL1  H22B 9198   1.702   2.105   8.240  0.1473 -0.0985 -1.5728
   91CHL1   C23 9199   1.814   2.245   8.383  0.2111  0.1753  0.5520
   91CHL1  H23A 9200   1.857   2.155   8.432 -0.6534 -0.8326 -0.4678
   91CHL1  H23B 9201   1.878   2.335   8.384  1.2808 -0.5525  2.2408
   91CHL1   C24 9202   1.690   2.289   8.456 -0.3280  0.0573  0.0758
   91CHL1  H24A 9203   1.667   2.392   8.421 -0.0422 -0.7911 -2.9230
   91CHL1  H24B 9204   1.608   2.216   8.439  0.7509 -1.3076  0.5748
   91CHL1   C25 9205   1.714   2.308   8.605  0.4508  1.0386  0.2078
   91CHL1   H25 9206   1.740   2.212   8.655 -0.5949  1.2016  1.1252
   91CHL1   C26 9207   1.821   2.410   8.643  0.1320 -0.2825  0.1928
   91CHL1  H26A 9208   1.812   2.509   8.592  0.1409 -0.1431  0.4595
   91CHL1  H26B 9209   1.832   2.425   8.753 -2.0721  1.3068  0.2703
   91CHL1  H26C 9210   1.921   2.373   8.614  0.6131  1.8197 -1.0272
   91CHL1   C27 9211   1.583   2.347   8.675 -0.7269  0.2585  0.1269
   91CHL1  H27A 9212   1.592   2.354   8.786  0.9707 -1.9419  0.1875
   91CHL1  H27B 9213   1.541   2.440   8.632 -1.6398 -0.0954  0.2246
   91CHL1  H27C 9214   1.504   2.269   8.663 -0.1983 -0.3460  0.5082
   92CHL1    C3 9215   5.984   3.976   6.840  0.5187 -0.1056 -0.5629
   92CHL1    H3 9216   5.899   4.021   6.896  2.1653  2.8987 -0.2932
   92CHL1    O3 9217   5.983   3.994   6.699  0.1111  0.1143 -0.8560
   92CHL1   H3' 9218   6.073   3.967   6.677  0.1956  1.2041 -1.9219
   92CHL1    C4 9219   6.108   4.045   6.911  0.0885 -0.6199 -0.4781
   92CHL1   H4A 9220   6.201   4.018   6.858 -0.0779 -1.0610 -0.5529
   92CHL1   H4B 9221   6.102   4.155   6.896  0.1085 -0.7025 -1.0887
   92CHL1    C5 9222   6.122   4.007   7.052 -0.6605 -0.2950 -0.4803
   92CHL1    C6 9223   6.132   4.107   7.148 -0.6740  0.5664  0.1655
   92CHL1    H6 9224   6.139   4.211   7.113  1.3713  0.5663  0.4293
   92CHL1    C7 9225   6.147   4.075   7.294 -0.1270 -0.0855 -0.3652
   92CHL1   H7A 9226   6.219   4.142   7.346 -0.3516 -2.0576  2.7399
   92CHL1   H7B 9227   6.050   4.089   7.346 -0.2440 -1.1721 -0.2532
   92CHL1    C8 9228   6.186   3.929   7.326  0.3912  0.5007  0.1357
   92CHL1    H8 9229   6.295   3.932   7.306  0.6370  3.1859  1.4824
   92CHL1   C14 9230   6.156   3.896   7.471  0.4291 -0.0136  0.1267
   92CHL1   H14 9231   6.048   3.908   7.495 -0.0612 -4.0373  0.5308
   92CHL1   C15 9232   6.230   3.988   7.566  0.2089  0.7403 -0.0976
   92CHL1  H15A 9233   6.335   4.006   7.535 -0.7696  1.4139 -3.4120
   92CHL1  H15B 9234   6.179   4.086   7.580 -2.5538 -0.6469  0.2011
   92CHL1   C16 9235   6.220   3.904   7.701  0.3281 -0.6692  0.6795
   92CHL1  H16A 9236   6.317   3.914   7.754  0.8974 -2.1750  0.0006
   92CHL1  H16B 9237   6.149   3.962   7.764  1.5474  0.8682  0.6984
   92CHL1   C17 9238   6.158   3.763   7.670  0.0205 -0.4153  0.1523
   92CHL1   H17 9239   6.051   3.773   7.694 -0.1043  3.3912 -1.3347
   92CHL1   C13 9240   6.177   3.752   7.513 -0.5894 -0.3165 -0.1085
   92CHL1   C18 9241   6.328   3.717   7.491 -0.0513 -0.4992  0.2606
   92CHL1  H18A 9242   6.352   3.609   7.504  0.0835 -0.7750 -1.9950
   92CHL1  H18B 9243   6.362   3.729   7.386 -1.7962 -1.6831 -0.4920
   92CHL1  H18C 9244   6.381   3.789   7.557 -1.8042  1.0333  0.0869
   92CHL1   C12 9245   6.090   3.663   7.432 -0.4813  0.3679  0.1173
   92CHL1  H12A 9246   6.092   3.558   7.468 -0.3313 -0.2624 -1.6314
   92CHL1  H12B 9247   5.989   3.704   7.454 -0.4817  0.4121  0.0372
   92CHL1   C11 9248   6.111   3.681   7.275 -0.6908  0.3050 -0.5872
   92CHL1  H11A 9249   6.213   3.659   7.236  0.4590  1.3485  1.7034
   92CHL1  H11B 9250   6.035   3.616   7.226  0.7121 -1.7675 -0.1444
   92CHL1    C9 9251   6.104   3.835   7.233  1.3021  0.0067 -0.1584
   92CHL1    H9 9252   5.996   3.858   7.252  0.7264 -1.5455 -1.3416
   92CHL1   C10 9253   6.111   3.859   7.082 -0.2143  0.2158  0.5925
   92CHL1   C19 9254   6.244   3.803   7.031  0.6468  0.2710 -0.2571
   92CHL1  H19A 9255   6.245   3.695   7.005 -1.4812  0.3286 -0.7315
   92CHL1  H19B 9256   6.290   3.854   6.944  1.3336  2.3309  1.2309
   92CHL1  H19C 9257   6.318   3.830   7.109 -0.2823  0.3274  0.6292
   92CHL1    C1 9258   5.983   3.792   7.006  0.5805  0.3177 -0.2833
   92CHL1   H1A 9259   5.988   3.682   7.014 -0.9049  0.2311 -0.3837
   92CHL1   H1B 9260   5.899   3.832   7.067  1.0655  1.3965 -0.2816
   92CHL1    C2 9261   5.986   3.828   6.857 -0.4035 -0.0750 -0.5618
   92CHL1   H2A 9262   5.894   3.782   6.816 -1.9080  1.6122  0.7411
   92CHL1   H2B 9263   6.074   3.789   6.802 -0.8981  0.7609 -1.9745
   92CHL1   C20 9264   6.211   3.644   7.747 -0.3140 -0.2386 -0.2661
   92CHL1   H20 9265   6.316   3.618   7.724  1.1120  1.3538  3.5540
   92CHL1   C21 9266   6.124   3.520   7.734  0.2300  0.0882 -0.0168
   92CHL1  H21A 9267   6.013   3.532   7.729  0.0210 -2.0589 -1.8193
   92CHL1  H21B 9268   6.147   3.459   7.823  3.3084  1.1093 -0.0030
   92CHL1  H21C 9269   6.152   3.468   7.640  0.3411 -0.2064  0.1779
   92CHL1   C22 9270   6.222   3.683   7.905  0.3447  0.3732  0.3239
   92CHL1  H22A 9271   6.237   3.587   7.958 -1.2441 -0.2267 -0.2348
   92CHL1  H22B 9272   6.306   3.753   7.925  1.7327 -1.9163  3.0398
   92CHL1   C23 9273   6.089   3.729   7.963 -0.4200  0.7057  0.2251
   92CHL1  H23A 9274   6.058   3.823   7.913  1.6248  1.3355  0.0321
   92CHL1  H23B 9275   6.013   3.652   7.935  0.8386 -0.7558  0.6526
   92CHL1   C24 9276   6.091   3.738   8.120  0.0280  0.3798 -0.2091
   92CHL1  H24A 9277   5.993   3.749   8.171  1.0473  1.9127  1.5009
   92CHL1  H24B 9278   6.128   3.642   8.164 -1.9874  0.6514  2.2689
   92CHL1   C25 9279   6.176   3.858   8.172  1.2611  0.4795  0.6536
   92CHL1   H25 9280   6.273   3.845   8.119 -0.1538 -0.3347 -1.9316
   92CHL1   C26 9281   6.109   3.991   8.136 -0.3771  0.2440  0.3837
   92CHL1  H26A 9282   6.115   4.020   8.029  0.8796 -2.7725 -0.4881
   92CHL1  H26B 9283   6.001   3.996   8.159 -0.1382  0.4858  1.4923
   92CHL1  H26C 9284   6.159   4.068   8.198  1.1148 -0.6609  0.3592
   92CHL1   C27 9285   6.201   3.858   8.329 -0.5643  0.2154  0.1136
   92CHL1  H27A 9286   6.262   3.940   8.372 -1.5247  0.7898  0.4183
   92CHL1  H27B 9287   6.109   3.879   8.388 -0.4783  1.4602 -0.1769
   92CHL1  H27C 9288   6.250   3.763   8.359 -2.3580 -0.2621  1.7314
   93CHL1    C3 9289   3.531   1.722   6.909 -0.3826  0.4590  0.0504
   93CHL1    H3 9290   3.575   1.823   6.922 -3.3135  1.8662 -0.1522
   93CHL1    O3 9291   3.503   1.684   6.778  0.2390  0.0316 -0.2714
   93CHL1   H3' 9292   3.554   1.736   6.715 -0.9058  1.1969 -0.2759
   93CHL1    C4 9293   3.607   1.612   6.982  0.1915  0.4297 -0.2075
   93CHL1   H4A 9294   3.553   1.516   6.968  0.2078  0.3577  0.2085
   93CHL1   H4B 9295   3.708   1.602   6.937  0.2250 -1.2164  0.1465
   93CHL1    C5 9296   3.626   1.634   7.129 -0.0406 -0.4507 -1.0878
   93CHL1    C6 9297   3.745   1.621   7.191  0.0313  0.5156 -0.0925
   93CHL1    H6 9298   3.836   1.595   7.135 -0.6649 -0.4231 -0.8112
   93CHL1    C7 9299   3.767   1.628   7.343 -0.2940  0.1456  0.5132
   93CHL1   H7A 9300   3.819   1.536   7.380 -0.1692 -0.5781 -1.3169
   93CHL1   H7B 9301   3.841   1.708   7.365  1.4955 -0.9151 -1.2351
   93CHL1    C8 9302   3.635   1.651   7.423 -0.4270 -0.3833 -0.2299
   93CHL1    H8 9303   3.604   1.545   7.435  4.7445 -2.1221  0.0215
   93CHL1   C14 9304   3.659   1.705   7.564  0.0288  0.2430  0.0331
   93CHL1   H14 9305   3.676   1.814   7.551  1.3509  0.1351  0.6542
   93CHL1   C15 9306   3.780   1.663   7.641  0.0997 -0.2557 -0.0978
   93CHL1  H15A 9307   3.785   1.556   7.615 -1.6656 -0.5330  0.5383
   93CHL1  H15B 9308   3.871   1.721   7.612  1.4738 -1.0548  2.3008
   93CHL1   C16 9309   3.749   1.673   7.790 -1.2854  0.2779  0.0556
   93CHL1  H16A 9310   3.740   1.573   7.837  0.8477  0.9277  1.9887
   93CHL1  H16B 9311   3.818   1.741   7.844 -1.9658  0.5608  0.5829
   93CHL1   C17 9312   3.606   1.735   7.795  0.1767 -0.6569 -0.8509
   93CHL1   H17 9313   3.632   1.843   7.798  1.3842 -0.8668  3.6813
   93CHL1   C13 9314   3.541   1.702   7.660  1.1079  0.2094 -0.7151
   93CHL1   C18 9315   3.492   1.558   7.672 -0.4889  0.2376 -0.3593
   93CHL1  H18A 9316   3.438   1.534   7.578 -0.1513  1.1564 -0.8065
   93CHL1  H18B 9317   3.577   1.488   7.674  0.8067  1.7755  1.5276
   93CHL1  H18C 9318   3.423   1.540   7.757  0.3236  2.5288  0.8773
   93CHL1   C12 9319   3.437   1.796   7.585  0.5882 -0.7744  0.1517
   93CHL1  H12A 9320   3.343   1.812   7.644  1.0969 -1.6036  1.2214
   93CHL1  H12B 9321   3.477   1.899   7.571  0.9794 -0.8363  0.8018
   93CHL1   C11 9322   3.400   1.761   7.437  0.0466  0.2853  0.0761
   93CHL1  H11A 9323   3.318   1.687   7.423 -0.5692  1.1676 -1.1889
   93CHL1  H11B 9324   3.344   1.847   7.393 -1.0335 -0.7316 -0.6320
   93CHL1    C9 9325   3.530   1.733   7.351  0.5813  0.2084 -0.0135
   93CHL1    H9 9326   3.583   1.830   7.343  0.0553  0.5959  1.0178
   93CHL1   C10 9327   3.495   1.678   7.205 -0.2196  0.1026  0.0405
   93CHL1   C19 9328   3.427   1.537   7.215 -0.4517 -0.1580  0.4690
   93CHL1  H19A 9329   3.334   1.555   7.274  0.5158 -0.1657  2.0652
   93CHL1  H19B 9330   3.409   1.505   7.111  2.3890  1.2972 -0.5748
   93CHL1  H19C 9331   3.486   1.466   7.278 -0.7989 -0.0425  0.9341
   93CHL1    C1 9332   3.402   1.772   7.123 -0.2179  0.2269 -0.1262
   93CHL1   H1A 9333   3.301   1.773   7.169 -0.4367 -1.4942 -0.4955
   93CHL1   H1B 9334   3.452   1.870   7.136  0.5742  0.1196 -2.0414
   93CHL1    C2 9335   3.392   1.741   6.973 -0.2764 -0.0017 -0.3852
   93CHL1   H2A 9336   3.335   1.821   6.921 -0.1842  2.2341  2.6312
   93CHL1   H2B 9337   3.335   1.646   6.964 -1.6267  0.7249  0.2016
   93CHL1   C20 9338   3.534   1.724   7.932 -1.0597  1.1303  0.3468
   93CHL1   H20 9339   3.510   1.618   7.954  0.3504  0.7177  0.0065
   93CHL1   C21 9340   3.395   1.788   7.916  0.4470 -0.4384 -0.5168
   93CHL1  H21A 9341   3.337   1.729   7.841 -1.4824  0.5878  0.0910
   93CHL1  H21B 9342   3.408   1.882   7.860 -1.9166 -0.7958 -1.7789
   93CHL1  H21C 9343   3.333   1.813   8.005  0.1801 -0.0191 -0.8173
   93CHL1   C22 9344   3.624   1.777   8.046 -0.3383  0.2711  0.1128
   93CHL1  H22A 9345   3.720   1.722   8.055 -1.1011 -1.0091  0.6477
   93CHL1  H22B 9346   3.655   1.881   8.020  2.4319  0.0721  2.0997
   93CHL1   C23 9347   3.560   1.781   8.176  0.8466 -0.2151 -0.0998
   93CHL1  H23A 9348   3.464   1.837   8.171  1.4186  0.7372 -0.5366
   93CHL1  H23B 9349   3.541   1.674   8.200 -0.5742 -0.0212 -0.2381
   93CHL1   C24 9350   3.639   1.838   8.303 -0.0063 -0.5752 -0.2054
   93CHL1  H24A 9351   3.739   1.790   8.300 -0.3957 -1.3611 -1.4499
   93CHL1  H24B 9352   3.657   1.947   8.291  0.5790 -0.3737  2.1283
   93CHL1   C25 9353   3.574   1.816   8.442  0.3190 -0.2162 -0.2082
   93CHL1   H25 9354   3.622   1.883   8.516 -0.4277  0.3241 -0.1941
   93CHL1   C26 9355   3.422   1.847   8.452 -0.7362 -0.2303  0.3984
   93CHL1  H26A 9356   3.390   1.808   8.552 -0.4506  0.4438  0.7585
   93CHL1  H26B 9357   3.408   1.956   8.443  1.0112 -0.0688 -0.8979
   93CHL1  H26C 9358   3.370   1.792   8.371  1.9260  0.4488 -1.9122
   93CHL1   C27 9359   3.600   1.670   8.484 -0.2471 -0.0213 -0.3781
   93CHL1  H27A 9360   3.519   1.639   8.552 -0.5788  1.1658 -0.1990
   93CHL1  H27B 9361   3.604   1.604   8.395  1.6607  1.3330 -1.3855
   93CHL1  H27C 9362   3.703   1.665   8.525 -0.9600  0.4155  1.5965
   94CHL1    C3 9363   5.234   4.593   6.778 -0.4728 -0.5450 -0.6115
   94CHL1    H3 9364   5.130   4.555   6.787 -1.0093  0.9660 -0.0805
   94CHL1    O3 9365   5.250   4.625   6.644  0.2218  0.2419  0.3694
   94CHL1   H3' 9366   5.226   4.542   6.602  2.2861 -0.0548 -0.3838
   94CHL1    C4 9367   5.246   4.717   6.872  0.1244 -0.2599 -0.2062
   94CHL1   H4A 9368   5.346   4.758   6.848  0.5328 -0.2736  1.4007
   94CHL1   H4B 9369   5.174   4.796   6.843  0.4658  0.4630  0.8749
   94CHL1    C5 9370   5.226   4.676   7.018  0.7785 -0.4765  0.7574
   94CHL1    C6 9371   5.124   4.732   7.088  0.6379  0.1042  0.2769
   94CHL1    H6 9372   5.069   4.817   7.047  1.7450  0.5388 -0.3503
   94CHL1    C7 9373   5.103   4.691   7.232  0.0921 -0.6819 -0.0209
   94CHL1   H7A 9374   5.073   4.779   7.293  3.1484 -0.6847  1.6973
   94CHL1   H7B 9375   5.018   4.619   7.227 -0.9297  0.4932 -0.1878
   94CHL1    C8 9376   5.227   4.627   7.293 -0.8037 -0.7238  0.8306
   94CHL1    H8 9377   5.311   4.699   7.290 -1.7229  0.3596 -1.0772
   94CHL1   C14 9378   5.192   4.568   7.428 -0.2746  0.0975 -0.3379
   94CHL1   H14 9379   5.110   4.499   7.397  0.3227 -0.1454 -1.4218
   94CHL1   C15 9380   5.129   4.663   7.534 -0.1056 -0.7552 -0.7755
   94CHL1  H15A 9381   5.196   4.752   7.529  0.5149 -1.1240  0.5464
   94CHL1  H15B 9382   5.026   4.686   7.500 -0.2421 -2.3946 -1.5607
   94CHL1   C16 9383   5.138   4.587   7.662  0.2541 -0.2741  0.3277
   94CHL1  H16A 9384   5.193   4.647   7.737  1.5917 -1.3961  0.2941
   94CHL1  H16B 9385   5.034   4.561   7.694  0.1793 -2.0214 -1.1480
   94CHL1   C17 9386   5.210   4.448   7.633  0.1747 -0.1981  0.0249
   94CHL1   H17 9387   5.130   4.374   7.615 -0.2866 -0.0005  1.1712
   94CHL1   C13 9388   5.292   4.480   7.502  1.4346  0.1862  0.2036
   94CHL1   C18 9389   5.418   4.560   7.541 -0.4678  0.1682 -0.9060
   94CHL1  H18A 9390   5.397   4.641   7.613  3.4631 -0.3892  1.1437
   94CHL1  H18B 9391   5.490   4.494   7.595  0.8932  1.5155 -0.9889
   94CHL1  H18C 9392   5.472   4.613   7.459 -0.2326  0.2968 -0.6731
   94CHL1   C12 9393   5.321   4.363   7.409  0.2778 -0.1594  0.3553
   94CHL1  H12A 9394   5.396   4.289   7.445  1.9812  2.1134  1.7137
   94CHL1  H12B 9395   5.223   4.317   7.382 -0.7948  1.2444  1.7317
   94CHL1   C11 9396   5.378   4.417   7.272  0.5632 -0.0219  0.1666
   94CHL1  H11A 9397   5.479   4.454   7.299  0.1954  0.0949  1.4510
   94CHL1  H11B 9398   5.395   4.330   7.204  1.7994 -0.5609  1.1273
   94CHL1    C9 9399   5.276   4.512   7.205 -0.6561 -0.0684  0.7081
   94CHL1    H9 9400   5.185   4.450   7.189  0.4987 -1.4801 -0.7566
   94CHL1   C10 9401   5.319   4.557   7.064 -0.4465 -0.1928 -0.3505
   94CHL1   C19 9402   5.473   4.599   7.067  0.0421  0.8112 -0.5860
   94CHL1  H19A 9403   5.495   4.663   7.155 -0.0064 -0.3657  0.3039
   94CHL1  H19B 9404   5.536   4.508   7.079 -0.9344 -0.0034 -1.4507
   94CHL1  H19C 9405   5.496   4.651   6.971 -2.2169  1.5984 -0.7599
   94CHL1    C1 9406   5.317   4.438   6.952 -0.1266  0.1375 -0.8222
   94CHL1   H1A 9407   5.380   4.351   6.981 -0.3492  0.5876  1.1705
   94CHL1   H1B 9408   5.213   4.399   6.949 -1.0165  2.4555 -1.9198
   94CHL1    C2 9409   5.338   4.484   6.815 -0.6569  0.3171  0.1817
   94CHL1   H2A 9410   5.327   4.399   6.743  2.4792 -0.7159  0.7740
   94CHL1   H2B 9411   5.442   4.517   6.792  1.0203 -3.3961  1.6635
   94CHL1   C20 9412   5.269   4.396   7.762 -0.5713 -0.0523 -0.7893
   94CHL1   H20 9413   5.338   4.473   7.802 -1.8696  0.9839 -0.4516
   94CHL1   C21 9414   5.357   4.267   7.746 -0.1612  0.2395 -0.5945
   94CHL1  H21A 9415   5.438   4.292   7.675 -0.7409  2.7887 -0.4403
   94CHL1  H21B 9416   5.291   4.192   7.698 -0.3423  0.2599 -0.3835
   94CHL1  H21C 9417   5.398   4.235   7.844 -0.2791 -0.3266 -0.7275
   94CHL1   C22 9418   5.158   4.384   7.880 -0.6032  0.4031  0.3501
   94CHL1  H22A 9419   5.105   4.478   7.907 -1.7476  0.0618 -0.6015
   94CHL1  H22B 9420   5.083   4.311   7.842  0.9839 -0.5656 -1.0620
   94CHL1   C23 9421   5.209   4.329   8.014  0.1112  0.7471  0.0199
   94CHL1  H23A 9422   5.232   4.220   8.010  1.4767  0.9557  1.3161
   94CHL1  H23B 9423   5.291   4.399   8.039 -1.1099  2.4943 -0.6635
   94CHL1   C24 9424   5.114   4.344   8.130  0.5859 -0.8654 -0.8964
   94CHL1  H24A 9425   5.084   4.451   8.142  0.3124 -1.1302  1.2083
   94CHL1  H24B 9426   5.017   4.303   8.094  0.7064 -0.6283 -1.5007
   94CHL1   C25 9427   5.148   4.297   8.270 -0.4929  0.0887  0.0523
   94CHL1   H25 9428   5.177   4.190   8.272  0.4662  0.3338 -0.1758
   94CHL1   C26 9429   5.262   4.376   8.339  0.5995  0.1748  0.5871
   94CHL1  H26A 9430   5.344   4.385   8.264  1.3485 -4.3461  0.5854
   94CHL1  H26B 9431   5.228   4.475   8.376 -0.8843 -0.0154 -0.1879
   94CHL1  H26C 9432   5.298   4.314   8.424  1.6681 -3.0224 -1.9738
   94CHL1   C27 9433   5.025   4.295   8.365  0.6512 -0.0902 -0.1709
   94CHL1  H27A 9434   4.982   4.397   8.376  0.6343  0.0270 -1.2205
   94CHL1  H27B 9435   4.939   4.233   8.333  1.1697 -0.4679 -0.8747
   94CHL1  H27C 9436   5.067   4.259   8.462  1.3597  0.2775 -0.3299
   95CHL1    C3 9437   6.227   3.442   6.756 -0.0885 -1.0246 -0.3969
   95CHL1    H3 9438   6.205   3.545   6.792 -0.3632 -1.2244  0.0217
   95CHL1    O3 9439   6.200   3.444   6.620 -0.0467 -0.3281 -0.0469
   95CHL1   H3' 9440   6.268   3.388   6.583  0.0671  1.2179 -2.4219
   95CHL1    C4 9441   6.370   3.402   6.787 -0.3065  0.7143  0.1010
   95CHL1   H4A 9442   6.400   3.309   6.733 -1.6207 -0.1106  0.7503
   95CHL1   H4B 9443   6.440   3.470   6.733 -1.5674  2.6206  0.7780
   95CHL1    C5 9444   6.399   3.399   6.930 -0.1615  0.0254 -0.2722
   95CHL1    C6 9445   6.490   3.481   6.987 -0.4107  0.0218  0.9084
   95CHL1    H6 9446   6.539   3.540   6.909 -2.7022 -2.2486 -2.5133
   95CHL1    C7 9447   6.539   3.462   7.120  0.0449  0.2645 -0.6866
   95CHL1   H7A 9448   6.650   3.464   7.120  0.0399  0.8741  0.3713
   95CHL1   H7B 9449   6.506   3.537   7.194 -3.2136 -0.7656 -0.9243
   95CHL1    C8 9450   6.480   3.341   7.197  0.2374 -0.2912  0.0076
   95CHL1    H8 9451   6.530   3.249   7.160 -0.8452 -0.1696 -1.8620
   95CHL1   C14 9452   6.497   3.346   7.351 -0.7295 -0.3750 -0.3020
   95CHL1   H14 9453   6.437   3.434   7.381  0.4582  0.5975 -0.7059
   95CHL1   C15 9454   6.634   3.378   7.412 -0.2227 -0.0840 -0.4876
   95CHL1  H15A 9455   6.712   3.318   7.360  0.1853 -0.2024  0.2444
   95CHL1  H15B 9456   6.646   3.488   7.401 -1.6809  0.1097 -0.3814
   95CHL1   C16 9457   6.614   3.336   7.562 -0.7644 -0.4575  0.0637
   95CHL1  H16A 9458   6.699   3.269   7.587  1.2557  1.5784 -1.0091
   95CHL1  H16B 9459   6.624   3.434   7.614  2.7748 -0.0381 -1.1764
   95CHL1   C17 9460   6.481   3.270   7.582 -0.6785 -0.0957  0.3027
   95CHL1   H17 9461   6.420   3.360   7.605  2.2665  2.6268 -1.7137
   95CHL1   C13 9462   6.437   3.235   7.437 -0.2614 -0.6075  0.5561
   95CHL1   C18 9463   6.501   3.106   7.391  0.1240  0.2287  0.0400
   95CHL1  H18A 9464   6.479   3.026   7.466 -0.6232 -0.0948 -0.5114
   95CHL1  H18B 9465   6.471   3.075   7.289 -0.7891 -0.4782  0.5057
   95CHL1  H18C 9466   6.611   3.117   7.396  0.4511 -0.8527 -2.7948
   95CHL1   C12 9467   6.287   3.240   7.405 -0.1113  0.3651 -0.4166
   95CHL1  H12A 9468   6.232   3.159   7.458  1.2974 -0.3693 -0.0406
   95CHL1  H12B 9469   6.242   3.335   7.441  0.3795  0.2711  0.4755
   95CHL1   C11 9470   6.262   3.224   7.258 -0.0717 -0.3221 -0.5173
   95CHL1  H11A 9471   6.272   3.118   7.225 -0.4508  0.1993 -2.4329
   95CHL1  H11B 9472   6.153   3.243   7.260 -0.3311 -1.3907  2.9500
   95CHL1    C9 9473   6.336   3.323   7.158 -0.5237  0.2841 -0.2118
   95CHL1    H9 9474   6.286   3.421   7.172  0.4092  0.8968 -0.9597
   95CHL1   C10 9475   6.311   3.298   7.002 -0.6588  0.1675 -0.7806
   95CHL1   C19 9476   6.361   3.158   6.969  0.4510 -0.4623  0.5463
   95CHL1  H19A 9477   6.292   3.092   7.025 -0.8454 -1.5758 -2.2024
   95CHL1  H19B 9478   6.342   3.134   6.862 -0.6529 -0.8043  0.8125
   95CHL1  H19C 9479   6.466   3.140   7.000 -0.0027 -2.0083  1.2424
   95CHL1    C1 9480   6.162   3.330   6.969 -0.1704 -0.1647 -0.3728
   95CHL1   H1A 9481   6.094   3.258   7.019 -2.2257  1.0830 -1.2421
   95CHL1   H1B 9482   6.144   3.429   7.015  0.2127 -0.6354  0.8247
   95CHL1    C2 9483   6.132   3.340   6.821 -0.0995 -0.2505  0.1774
   95CHL1   H2A 9484   6.024   3.359   6.803  0.0813  0.5595 -0.0908
   95CHL1   H2B 9485   6.156   3.243   6.773  1.0872 -0.2691  0.7850
   95CHL1   C20 9486   6.470   3.164   7.687 -0.7194 -0.3114 -0.2784
   95CHL1   H20 9487   6.525   3.076   7.646  0.0164  0.5712 -1.2475
   95CHL1   C21 9488   6.331   3.109   7.709  0.4525  0.0528 -0.0828
   95CHL1  H21A 9489   6.333   3.056   7.807  0.3660 -1.0653 -0.6631
   95CHL1  H21B 9490   6.293   3.033   7.638 -0.4493  0.3740  0.0453
   95CHL1  H21C 9491   6.262   3.195   7.714  1.3502  0.7277  1.6116
   95CHL1   C22 9492   6.531   3.214   7.824 -0.3750 -0.6455 -0.5053
   95CHL1  H22A 9493   6.539   3.119   7.882 -0.3498  0.4776  1.3998
   95CHL1  H22B 9494   6.626   3.269   7.808 -1.2469  0.7728 -1.0256
   95CHL1   C23 9495   6.434   3.307   7.912 -0.2446 -0.4521  0.0106
   95CHL1  H23A 9496   6.422   3.406   7.863 -1.5319 -0.7254 -0.2621
   95CHL1  H23B 9497   6.334   3.262   7.931 -0.9087  0.6851 -0.6671
   95CHL1   C24 9498   6.495   3.346   8.047 -0.5280  0.8165 -0.5871
   95CHL1  H24A 9499   6.517   3.262   8.115  1.1592  2.3008  0.7784
   95CHL1  H24B 9500   6.585   3.409   8.032 -1.1819  1.7346 -0.7049
   95CHL1   C25 9501   6.402   3.425   8.145  0.2022  0.0445 -0.4128
   95CHL1   H25 9502   6.388   3.522   8.092  0.9139  0.5190  0.2453
   95CHL1   C26 9503   6.263   3.365   8.182 -0.4947 -0.7259 -0.0608
   95CHL1  H26A 9504   6.279   3.272   8.240 -0.4796 -0.6186  0.1056
   95CHL1  H26B 9505   6.201   3.434   8.243 -1.7409 -0.7879 -1.1971
   95CHL1  H26C 9506   6.208   3.332   8.091 -2.1133  0.3381  0.4817
   95CHL1   C27 9507   6.466   3.463   8.276  0.0086  0.1965 -0.4273
   95CHL1  H27A 9508   6.569   3.505   8.265 -0.0750  0.0188 -2.3920
   95CHL1  H27B 9509   6.406   3.539   8.330 -2.0311  0.5266 -2.9488
   95CHL1  H27C 9510   6.479   3.376   8.343 -2.5137  1.1950  1.5277
   96CHL1    C3 9511   5.909   2.511   6.649  0.1045 -0.1912  0.5993
   96CHL1    H3 9512   5.880   2.616   6.630 -2.0205 -0.9947 -1.0864
   96CHL1    O3 9513   5.915   2.440   6.524 -0.1084  0.1508 -0.0813
   96CHL1   H3' 9514   5.911   2.351   6.562  0.6807  0.8187  1.6681
   96CHL1    C4 9515   6.049   2.509   6.721 -0.1392 -0.1485 -0.0131
   96CHL1   H4A 9516   6.085   2.404   6.718  1.2170  0.3145 -1.7983
   96CHL1   H4B 9517   6.112   2.567   6.649  2.1351 -0.3781  1.6625
   96CHL1    C5 9518   6.049   2.576   6.858 -0.2590  0.2030  0.4117
   96CHL1    C6 9519   6.114   2.691   6.891 -0.8042  0.2465  0.4671
   96CHL1    H6 9520   6.183   2.735   6.818 -0.0391  0.4524  1.2968
   96CHL1    C7 9521   6.110   2.763   7.021  0.0728 -0.1527  0.2951
   96CHL1   H7A 9522   6.209   2.801   7.056 -0.9312  0.5402  2.5042
   96CHL1   H7B 9523   6.031   2.840   7.017 -1.1678 -1.4176 -0.5175
   96CHL1    C8 9524   6.059   2.665   7.129  0.0534 -0.3485  0.8506
   96CHL1    H8 9525   6.135   2.586   7.149 -0.7267 -1.4084 -0.1737
   96CHL1   C14 9526   6.046   2.747   7.263  0.7413  0.4718  0.7003
   96CHL1   H14 9527   5.984   2.837   7.246  2.2653  1.6593  1.2183
   96CHL1   C15 9528   6.166   2.804   7.327  0.3714  0.2964 -0.0849
   96CHL1  H15A 9529   6.249   2.731   7.313  0.0580  0.2044 -1.5145
   96CHL1  H15B 9530   6.201   2.894   7.272 -0.4415  0.1977 -0.7742
   96CHL1   C16 9531   6.136   2.834   7.478  0.3685  0.1314  0.6287
   96CHL1  H16A 9532   6.215   2.783   7.536 -1.0891  0.1873  2.7526
   96CHL1  H16B 9533   6.130   2.943   7.496  2.3900  0.7135 -1.7084
   96CHL1   C17 9534   5.991   2.773   7.492  0.6739 -0.0925 -0.4649
   96CHL1   H17 9535   5.921   2.858   7.481  0.5332 -0.2171 -0.5492
   96CHL1   C13 9536   5.974   2.667   7.372  1.2423 -0.4178  0.2288
   96CHL1   C18 9537   6.058   2.543   7.407 -0.5507 -0.6638  0.3019
   96CHL1  H18A 9538   6.156   2.577   7.446 -0.7111 -2.8658  2.8867
   96CHL1  H18B 9539   6.003   2.488   7.486  1.0014 -3.0958 -0.2359
   96CHL1  H18C 9540   6.066   2.476   7.319 -0.5594 -3.6677  2.4449
   96CHL1   C12 9541   5.831   2.640   7.326 -0.2132 -0.1658  0.9107
   96CHL1  H12A 9542   5.767   2.591   7.403  2.5501 -2.2236  2.0821
   96CHL1  H12B 9543   5.779   2.728   7.284  0.7703 -1.0900 -2.5482
   96CHL1   C11 9544   5.836   2.548   7.197 -0.6210  0.0729 -0.4537
   96CHL1  H11A 9545   5.874   2.450   7.230  0.3946  0.5573 -0.1493
   96CHL1  H11B 9546   5.736   2.514   7.161 -0.5462  0.3004 -0.8837
   96CHL1    C9 9547   5.927   2.608   7.087 -0.6365  0.5042  0.9391
   96CHL1    H9 9548   5.873   2.699   7.052 -2.0206 -0.2206  1.1085
   96CHL1   C10 9549   5.944   2.521   6.954  0.5794  1.4602 -0.8967
   96CHL1   C19 9550   5.991   2.378   7.003 -0.5375  0.4512  1.0451
   96CHL1  H19A 9551   6.083   2.393   7.064  0.3285 -1.0953  0.1590
   96CHL1  H19B 9552   5.909   2.339   7.066 -0.9529 -1.2621 -0.4909
   96CHL1  H19C 9553   6.020   2.308   6.922 -0.1651  1.4800  0.2576
   96CHL1    C1 9554   5.809   2.515   6.883 -0.4389  0.3041 -0.1750
   96CHL1   H1A 9555   5.735   2.456   6.942  0.1217 -1.7858 -1.4847
   96CHL1   H1B 9556   5.766   2.616   6.863 -2.1732 -0.7131 -1.9490
   96CHL1    C2 9557   5.808   2.441   6.745  0.6915 -0.4811 -0.0206
   96CHL1   H2A 9558   5.703   2.442   6.707  0.0512 -1.4061  1.6418
   96CHL1   H2B 9559   5.827   2.334   6.764  0.5323 -1.2390 -3.4626
   96CHL1   C20 9560   5.984   2.721   7.635  0.3847 -0.9527 -0.1284
   96CHL1   H20 9561   6.052   2.635   7.654  0.4349 -1.3468 -1.8735
   96CHL1   C21 9562   5.843   2.693   7.657 -0.2618 -0.0662  0.6055
   96CHL1  H21A 9563   5.821   2.665   7.763  1.1201 -0.2901  0.8481
   96CHL1  H21B 9564   5.801   2.605   7.604  1.2748 -0.1660 -0.4895
   96CHL1  H21C 9565   5.773   2.772   7.622 -1.1054 -0.2152  1.8673
   96CHL1   C22 9566   6.028   2.835   7.729  0.1502  0.5055 -0.1298
   96CHL1  H22A 9567   6.137   2.849   7.710 -0.1968  1.4215 -1.5974
   96CHL1  H22B 9568   5.984   2.934   7.705  1.3105  0.9887 -0.3641
   96CHL1   C23 9569   6.015   2.813   7.881 -0.1229 -0.1276 -0.1373
   96CHL1  H23A 9570   5.920   2.761   7.907 -0.2901 -1.1772 -2.5577
   96CHL1  H23B 9571   6.091   2.740   7.915 -0.1169  0.3703  0.9337
   96CHL1   C24 9572   6.045   2.943   7.959 -0.9426  0.1051  0.2872
   96CHL1  H24A 9573   6.143   2.976   7.919 -1.0585 -0.8389 -0.8265
   96CHL1  H24B 9574   5.973   3.025   7.937 -0.4072  0.6191  0.4235
   96CHL1   C25 9575   6.076   2.932   8.109 -0.0435 -0.8941  0.8042
   96CHL1   H25 9576   6.159   2.858   8.116 -0.5135 -1.8271 -2.2269
   96CHL1   C26 9577   6.138   3.070   8.160 -0.0089  0.2805 -0.6053
   96CHL1  H26A 9578   6.233   3.094   8.107  0.3391  1.0093  0.3318
   96CHL1  H26B 9579   6.048   3.130   8.137 -2.4445 -2.5921  0.7419
   96CHL1  H26C 9580   6.145   3.050   8.269  0.1269 -1.7793 -0.9443
   96CHL1   C27 9581   5.957   2.883   8.191 -0.4751 -0.2200  0.3382
   96CHL1  H27A 9582   5.871   2.953   8.180 -0.1743  0.2627  1.0025
   96CHL1  H27B 9583   5.925   2.779   8.167  0.3836 -0.0512 -1.7345
   96CHL1  H27C 9584   5.983   2.884   8.299  0.6535  0.5308  0.0773
   97OSM      N 9585   4.780   6.790  10.956  0.2284 -0.0409  0.1388
   97OSM    C15 9586   4.648   6.810  10.903  0.5081 -0.1463  0.3653
   97OSM   H15A 9587   4.586   6.744  10.962  2.4180 -0.1537  2.4840
   97OSM   H15B 9588   4.636   6.785  10.799  1.0047  1.7238 -0.1860
   97OSM   H15C 9589   4.617   6.914  10.903  2.3256  0.4246 -0.1524
   97OSM    C14 9590   4.860   6.718  10.858  0.4744  0.1182  0.3870
   97OSM   H14A 9591   4.831   6.614  10.864  0.1732  0.2288  0.8667
   97OSM   H14B 9592   4.965   6.717  10.884  0.8030  0.2968 -0.8886
   97OSM   H14C 9593   4.857   6.752  10.756 -0.5125  0.4966  0.5328
   97OSM    C13 9594   4.846   6.920  10.978  0.3950  0.1860  0.5324
   97OSM   H13A 9595   4.767   6.991  10.998 -0.9809 -0.9229 -0.7715
   97OSM   H13B 9596   4.886   6.949  10.882 -0.0066  0.6833  0.5108
   97OSM   H13C 9597   4.928   6.922  11.047  1.5170 -1.4074 -0.6911
   97OSM    C12 9598   4.773   6.728  11.095  0.2155  0.0155  0.1602
   97OSM   H12A 9599   4.740   6.797  11.171  0.7936  1.6235 -0.9723
   97OSM   H12B 9600   4.879   6.716  11.113  0.3462  1.4619  0.5433
   97OSM    C11 9601   4.705   6.589  11.120  0.4836 -0.1344  0.2879
   97OSM   H11A 9602   4.730   6.554  11.222  1.0476  0.3604  0.3259
   97OSM   H11B 9603   4.760   6.527  11.045  2.3185  3.1013 -1.2699
   97OSM      P 9604   4.507   6.443  11.070  0.1477 -0.0729  0.3645
   97OSM    O13 9605   4.570   6.352  11.173  0.8703  0.1177 -0.4105
   97OSM    O14 9606   4.359   6.449  11.055 -0.6204  0.0920 -0.3846
   97OSM    O11 9607   4.571   6.402  10.931 -0.1557 -0.3009 -0.0563
   97OSM    O12 9608   4.563   6.589  11.099  0.1120  0.4457  0.5455
   97OSM    C1S 9609   4.528   6.278  10.865  0.1875 -0.1732  0.7889
   97OSM    H1S 9610   4.418   6.269  10.883 -0.1676  0.6666 -0.7383
   97OSM    H1T 9611   4.583   6.187  10.899 -1.5425 -2.3847 -1.8689
   97OSM     NF 9612   4.492   6.176  10.644 -0.0511  0.1936  0.8156
   97OSM    HNF 9613   4.558   6.124  10.591  1.3144  0.4730  2.1711
   97OSM    C2S 9614   4.552   6.294  10.711 -0.3991  0.0571 -0.0935
   97OSM    H2S 9615   4.503   6.383  10.667  1.1334 -0.0703 -2.2597
   97OSM    C3S 9616   4.705   6.330  10.676  0.1761 -0.0150 -0.4971
   97OSM    H3S 9617   4.772   6.259  10.728 -1.3116 -0.3863  0.9998
   97OSM     O3 9618   4.764   6.462  10.706 -0.3912 -0.2637 -0.1564
   97OSM    HO3 9619   4.701   6.521  10.747  1.0426  1.7277 -0.6874
   97OSM    C4S 9620   4.732   6.301  10.530 -0.0470  0.7524  0.1015
   97OSM    H4S 9621   4.768   6.202  10.497  0.0028 -0.1577  2.6392
   97OSM    C5S 9622   4.718   6.397  10.437  0.0766 -0.0048  0.5594
   97OSM    H5S 9623   4.676   6.494  10.465  0.8713  0.2565  0.8841
   97OSM    C6S 9624   4.739   6.370  10.289  0.7073 -0.5984  0.2841
   97OSM    H6S 9625   4.818   6.293  10.276  1.3657  0.2302 -0.8751
   97OSM    H6T 9626   4.793   6.458  10.247 -1.4283  0.4529 -0.4051
   97OSM    C7S 9627   4.614   6.330  10.208 -0.2186 -0.0268 -0.2939
   97OSM    H7S 9628   4.543   6.415  10.217 -0.9464 -0.7387  0.8921
   97OSM    H7T 9629   4.562   6.246  10.259 -1.9927 -0.5310 -2.7423
   97OSM    C8S 9630   4.633   6.300  10.061  0.2291  0.2821 -0.6040
   97OSM    H8S 9631   4.664   6.194  10.049  0.3453  0.2308  0.0913
   97OSM    H8T 9632   4.713   6.366  10.022 -0.3303  1.6456  0.4700
   97OSM    C9S 9633   4.515   6.340   9.975 -0.2621 -0.5526  0.3770
   97OSM    H9S 9634   4.497   6.449   9.977 -2.0352 -0.7432 -1.5588
   97OSM    H9T 9635   4.430   6.280  10.014  1.4572 -1.8224  2.4197
   97OSM   C10S 9636   4.535   6.315   9.828 -0.8097  0.2515 -0.1836
   97OSM   H10S 9637   4.584   6.216   9.812  1.0821  1.3454 -1.5716
   97OSM   H10T 9638   4.611   6.390   9.796  0.9368  0.1212  3.2192
   97OSM   C11S 9639   4.403   6.316   9.742 -0.2457  0.6439 -0.5242
   97OSM   H11S 9640   4.370   6.422   9.737  0.1050  0.8350  1.0254
   97OSM   H11T 9641   4.334   6.244   9.791  2.5233 -0.8800  1.3824
   97OSM   C12S 9642   4.425   6.253   9.601 -0.2741 -0.0866  0.1854
   97OSM   H12S 9643   4.357   6.167   9.585  2.1086 -1.7681 -1.5566
   97OSM   H12T 9644   4.524   6.202   9.601  0.5386  1.3157 -2.4712
   97OSM   C13S 9645   4.406   6.350   9.477 -0.1931 -0.0748  0.4804
   97OSM   H13S 9646   4.497   6.413   9.464 -0.8827  0.8059 -0.2042
   97OSM   H13T 9647   4.315   6.414   9.485 -0.4716 -0.5991  1.6792
   97OSM   C14S 9648   4.372   6.279   9.343 -0.5805  0.8034  0.2825
   97OSM   H14S 9649   4.267   6.244   9.354 -0.2832  0.3985  2.2111
   97OSM   H14T 9650   4.450   6.200   9.339 -0.6606  0.7692 -0.7322
   97OSM   C15S 9651   4.387   6.367   9.218  0.1520  0.3646 -0.0053
   97OSM   H15S 9652   4.488   6.411   9.214  0.6902 -0.8403 -0.3318
   97OSM   H15T 9653   4.314   6.450   9.225  0.6795  0.7069  2.0975
   97OSM   C16S 9654   4.356   6.292   9.091 -0.2713 -1.0435 -0.0846
   97OSM   H16S 9655   4.271   6.224   9.114 -2.4027  2.1564  2.2529
   97OSM   H16T 9656   4.438   6.226   9.055  0.4643 -0.0075 -0.3548
   97OSM   C17S 9657   4.311   6.393   8.981 -0.2113 -0.1181 -1.0042
   97OSM   H17S 9658   4.382   6.477   8.963  0.2825 -0.6310 -1.4964
   97OSM   H17T 9659   4.216   6.433   9.023 -1.3189 -2.3430 -1.2309
   97OSM   C18S 9660   4.279   6.340   8.838  0.0955  0.4615  0.2218
   97OSM   H18S 9661   4.292   6.409   8.752  0.2065  1.1765  0.8039
   97OSM   H18T 9662   4.175   6.302   8.847  0.2052  0.0345 -0.2597
   97OSM   H18U 9663   4.339   6.248   8.821 -0.7369 -0.5621  2.4208
   97OSM    C1F 9664   4.363   6.147  10.628 -0.2302  0.0999  0.0260
   97OSM     OF 9665   4.278   6.223  10.667  0.5093  0.1964 -0.0376
   97OSM    C2F 9666   4.324   6.025  10.538  0.3367  0.8992 -0.5594
   97OSM    H2F 9667   4.221   5.989  10.560  0.5703 -1.4160 -2.7951
   97OSM    H2G 9668   4.401   5.949  10.564  0.4270  1.3357  0.5167
   97OSM    C3F 9669   4.334   6.061  10.389  0.5230  0.0209  0.6526
   97OSM    H3F 9670   4.431   6.113  10.375  2.0812 -2.4296  1.6590
   97OSM    H3G 9671   4.240   6.113  10.362  0.7966  1.9830  3.1435
   97OSM    C4F 9672   4.353   5.945  10.294 -0.1059 -0.2742 -0.1863
   97OSM    H4F 9673   4.258   5.888  10.309 -0.5151  0.7068  1.1597
   97OSM    H4G 9674   4.431   5.869  10.315  0.7181  1.2534  2.8070
   97OSM    C5F 9675   4.366   5.996  10.146 -0.2035 -0.2060  0.1831
   97OSM    H5F 9676   4.445   6.073  10.137 -0.4072 -0.2299 -3.3422
   97OSM    H5G 9677   4.268   6.043  10.122 -0.6624  0.3287  2.8304
   97OSM    C6F 9678   4.390   5.885  10.044  0.4977  0.2738 -0.3321
   97OSM    H6F 9679   4.299   5.823  10.027  0.9963 -1.7511  3.1924
   97OSM    H6G 9680   4.463   5.807  10.074  1.0980  1.3667  1.1738
   97OSM    C7F 9681   4.445   5.948   9.918  0.0872 -0.1421  0.4037
   97OSM    H7F 9682   4.549   5.987   9.919  0.1471 -0.3013  0.3223
   97OSM    H7G 9683   4.382   6.035   9.887  0.0956 -0.6313 -1.0635
   97OSM    C8F 9684   4.414   5.866   9.792 -0.4272  0.5308 -0.4058
   97OSM    H8F 9685   4.440   5.917   9.696 -0.8735 -0.3849 -1.0233
   97OSM    H8G 9686   4.310   5.828   9.803 -0.2962 -0.0579 -1.1065
   97OSM    C9F 9687   4.489   5.734   9.805  0.0399  0.4487 -0.4368
   97OSM    H9F 9688   4.452   5.673   9.889 -0.3317  2.2860  0.7858
   97OSM   C10F 9689   4.590   5.684   9.729  0.4192 -0.4306 -0.7018
   97OSM   H10F 9690   4.615   5.581   9.759  0.4463  0.2045  1.6331
   97OSM   C11F 9691   4.641   5.747   9.604 -0.4037 -0.0998  0.2577
   97OSM   H11F 9692   4.751   5.739   9.615  0.0696  1.7364 -2.3253
   97OSM   H11G 9693   4.626   5.856   9.589 -1.3165 -0.5611 -2.8021
   97OSM   C12F 9694   4.595   5.680   9.475  0.3098 -0.3101  0.1627
   97OSM   H12F 9695   4.629   5.574   9.469  2.1593  0.2479  0.1896
   97OSM   H12G 9696   4.645   5.728   9.389  3.3543 -0.9352  1.4573
   97OSM   C13F 9697   4.443   5.697   9.461 -0.3617  0.8292  1.0935
   97OSM   H13F 9698   4.427   5.806   9.450 -0.1298  0.6121 -5.2093
   97OSM   H13G 9699   4.386   5.658   9.548 -1.0859 -1.2429 -0.2463
   97OSM   C14F 9700   4.382   5.648   9.328 -0.3431 -0.6993 -0.6090
   97OSM   H14F 9701   4.400   5.538   9.322 -0.6678 -0.7228 -1.1876
   97OSM   H14G 9702   4.442   5.697   9.249  0.0785  0.3036  0.3139
   97OSM   C15F 9703   4.233   5.673   9.315  0.6867 -0.2806 -0.0326
   97OSM   H15F 9704   4.209   5.775   9.352 -0.3803 -0.3299 -0.5229
   97OSM   H15G 9705   4.177   5.598   9.375 -2.1158  1.2764 -0.5031
   97OSM   C16F 9706   4.179   5.673   9.169  0.2725 -0.5087  0.3727
   97OSM   H16F 9707   4.249   5.738   9.112  0.7788 -1.1453  0.2533
   97OSM   H16G 9708   4.079   5.720   9.164 -2.2227 -5.2164 -0.5875
   97OSM   C17F 9709   4.160   5.531   9.119  0.3987 -0.1967 -0.4835
   97OSM   H17F 9710   4.077   5.474   9.165 -0.2758 -1.2454 -2.8514
   97OSM   H17G 9711   4.262   5.487   9.129  1.4502  2.3504  0.7794
   97OSM   C18F 9712   4.110   5.542   8.974 -0.7260  0.7513 -0.1267
   97OSM   H18F 9713   4.096   5.441   8.931 -0.4771  0.0679  1.3536
   97OSM   H18G 9714   4.191   5.595   8.919  0.9346  0.2423  1.6879
   97OSM   H18H 9715   4.018   5.603   8.973 -2.1580 -1.2638  1.5084
   98OSM      N 9716   2.793   5.237  11.102  0.0210 -0.2994  0.5274
   98OSM    C15 9717   2.702   5.292  11.205 -1.0694 -0.1119 -0.0448
   98OSM   H15A 9718   2.605   5.246  11.214 -1.3274  0.3960 -0.1622
   98OSM   H15B 9719   2.692   5.398  11.183  3.4736  0.0807 -2.3949
   98OSM   H15C 9720   2.746   5.272  11.301 -1.1269 -3.1696 -0.5582
   98OSM    C14 9721   2.854   5.107  11.149 -0.4367 -0.0314  0.2051
   98OSM   H14A 9722   2.782   5.029  11.172 -2.1574  0.3514 -3.2354
   98OSM   H14B 9723   2.923   5.125  11.230  1.9667 -1.3100 -1.4523
   98OSM   H14C 9724   2.925   5.071  11.076  0.9799  1.2810  0.8769
   98OSM    C13 9725   2.716   5.214  10.969 -1.1022  0.1874 -0.3759
   98OSM   H13A 9726   2.646   5.292  10.944 -1.0689  0.1532 -0.5775
   98OSM   H13B 9727   2.666   5.119  10.974  0.6107 -0.7771 -0.6129
   98OSM   H13C 9728   2.785   5.210  10.886  0.9956 -0.0254  1.2576
   98OSM    C12 9729   2.898   5.339  11.081 -0.4008 -0.3649 -0.4249
   98OSM   H12A 9730   2.918   5.380  11.179  0.1765  0.7087 -0.9633
   98OSM   H12B 9731   2.858   5.418  11.019 -0.8454  0.2441  0.5962
   98OSM    C11 9732   3.027   5.284  11.012  0.1967  0.6735 -0.1147
   98OSM   H11A 9733   3.093   5.218  11.073 -1.7668 -1.1526  0.1502
   98OSM   H11B 9734   3.096   5.369  10.993  3.0728 -0.7333  2.9222
   98OSM      P 9735   3.062   5.086  10.834  0.3648  0.0792  0.2520
   98OSM    O13 9736   3.208   5.123  10.825 -0.0074 -0.4611  0.4721
   98OSM    O14 9737   3.024   4.968  10.914 -0.0661 -0.8347 -0.0006
   98OSM    O11 9738   2.992   5.068  10.697 -0.5480  0.1268  0.2232
   98OSM    O12 9739   2.990   5.218  10.885  0.4760  0.4692  0.0544
   98OSM    C1S 9740   2.852   5.086  10.678 -0.0647  0.0444 -0.1172
   98OSM    H1S 9741   2.821   5.192  10.689 -2.0003 -0.5319  0.4669
   98OSM    H1T 9742   2.796   5.025  10.752 -0.7018  1.9365  1.0271
   98OSM     NF 9743   2.667   5.051  10.505 -0.0180 -0.4594  0.5678
   98OSM    HNF 9744   2.608   4.971  10.502 -1.3511  0.5028 -1.2215
   98OSM    C2S 9745   2.815   5.049  10.536  0.6104 -0.5608 -0.1712
   98OSM    H2S 9746   2.862   5.129  10.474 -0.1278  0.2817  0.3305
   98OSM    C3S 9747   2.880   4.909  10.489  1.2822 -0.1781 -0.2059
   98OSM    H3S 9748   2.834   4.832  10.554  0.9064  2.2573  2.6513
   98OSM     O3 9749   3.020   4.891  10.523  0.4680 -0.2134  0.4039
   98OSM    HO3 9750   3.027   4.953  10.596 -0.7599  0.1184  0.2569
   98OSM    C4S 9751   2.859   4.872  10.338  0.4906 -0.2400  0.7702
   98OSM    H4S 9752   2.891   4.948  10.265  0.0293  0.1211  0.9388
   98OSM    C5S 9753   2.831   4.751  10.285  0.6251 -0.0210  0.7234
   98OSM    H5S 9754   2.815   4.666  10.354 -0.6280 -1.2254 -0.9661
   98OSM    C6S 9755   2.833   4.726  10.133 -0.3701  0.4517  0.3958
   98OSM    H6S 9756   2.832   4.617  10.108 -1.3432  0.6781 -0.6175
   98OSM    H6T 9757   2.921   4.776  10.087  1.5415 -2.1166  0.9805
   98OSM    C7S 9758   2.718   4.798  10.061 -0.2102  0.8768 -0.1238
   98OSM    H7S 9759   2.724   4.906  10.086 -1.2336  0.7967  0.4973
   98OSM    H7T 9760   2.616   4.766  10.090  0.0074  2.5641  2.9492
   98OSM    C8S 9761   2.734   4.790   9.905 -0.0673  0.6572  0.3772
   98OSM    H8S 9762   2.691   4.692   9.872  0.1293  1.2266 -1.7191
   98OSM    H8T 9763   2.843   4.786   9.887 -0.1046  0.8061  0.1021
   98OSM    C9S 9764   2.673   4.899   9.815 -0.1553 -0.2561  0.2958
   98OSM    H9S 9765   2.731   4.988   9.848  1.4810 -0.6154 -1.4682
   98OSM    H9T 9766   2.565   4.927   9.825  0.2095  1.4886 -0.2351
   98OSM   C10S 9767   2.700   4.867   9.668 -0.2657 -0.2083  0.1901
   98OSM   H10S 9768   2.650   4.768   9.656  1.4678 -1.3555  1.7978
   98OSM   H10T 9769   2.807   4.839   9.659  0.5161  2.3335  0.7981
   98OSM   C11S 9770   2.676   4.981   9.560  0.0169 -0.5720 -0.2826
   98OSM   H11S 9771   2.723   5.079   9.585  0.2108 -0.8387  0.4179
   98OSM   H11T 9772   2.569   5.010   9.567  0.3905  0.5966  0.9981
   98OSM   C12S 9773   2.723   4.939   9.421 -0.2827 -0.3538 -0.4741
   98OSM   H12S 9774   2.652   4.866   9.378 -0.0714 -1.5425  1.1047
   98OSM   H12T 9775   2.821   4.887   9.425 -0.5803 -1.0059 -1.4134
   98OSM   C13S 9776   2.724   5.057   9.327 -0.1324  0.4057 -0.2897
   98OSM   H13S 9777   2.779   5.140   9.377  2.1736 -0.9185 -0.5148
   98OSM   H13T 9778   2.620   5.089   9.303 -0.2961 -0.5331 -0.8628
   98OSM   C14S 9779   2.792   5.026   9.192  0.3480 -0.1946  0.4250
   98OSM   H14S 9780   2.726   4.949   9.148 -0.4744 -0.0009  1.2809
   98OSM   H14T 9781   2.892   4.990   9.224 -0.8354 -1.6567  2.7137
   98OSM   C15S 9782   2.811   5.151   9.099 -0.2446 -0.1054  0.3301
   98OSM   H15S 9783   2.882   5.134   9.016 -0.2582  1.4701 -0.0282
   98OSM   H15T 9784   2.863   5.225   9.163  2.3493 -1.0131 -0.6227
   98OSM   C16S 9785   2.679   5.227   9.054 -0.8019 -0.1403 -0.3488
   98OSM   H16S 9786   2.589   5.206   9.115 -1.2620  0.2198 -0.8923
   98OSM   H16T 9787   2.657   5.187   8.953 -0.6994  4.0135 -2.2407
   98OSM   C17S 9788   2.697   5.381   9.038 -0.1294  0.4562 -0.1963
   98OSM   H17S 9789   2.637   5.396   8.945  1.7322  1.4646 -1.2857
   98OSM   H17T 9790   2.802   5.414   9.022 -0.3347  0.9252 -0.6075
   98OSM   C18S 9791   2.639   5.455   9.157  0.1650  0.0051 -0.1749
   98OSM   H18S 9792   2.648   5.566   9.156  0.6883 -0.0404 -0.7698
   98OSM   H18T 9793   2.684   5.421   9.253 -1.0917  1.8505  1.1445
   98OSM   H18U 9794   2.531   5.433   9.168  0.0370  0.2284 -0.9340
   98OSM    C1F 9795   2.608   5.166  10.509  0.4042  0.0512 -0.6976
   98OSM     OF 9796   2.677   5.267  10.529 -0.5341 -0.1994 -0.2887
   98OSM    C2F 9797   2.454   5.160  10.505  0.2495  0.3116  0.1194
   98OSM    H2F 9798   2.414   5.197  10.602 -2.2370  1.1308 -1.1238
   98OSM    H2G 9799   2.427   5.052  10.502 -0.5641  0.5115 -0.1499
   98OSM    C3F 9800   2.385   5.246  10.396 -0.4971 -0.5188  0.1070
   98OSM    H3F 9801   2.409   5.353  10.412 -0.4944 -0.1291 -2.1808
   98OSM    H3G 9802   2.276   5.238  10.420 -0.3991  0.4933  0.9829
   98OSM    C4F 9803   2.410   5.209  10.254 -0.5380  0.3810  0.0595
   98OSM    H4F 9804   2.369   5.106  10.246 -0.6047  0.3617  0.6470
   98OSM    H4G 9805   2.520   5.205  10.242 -0.5427  0.0647  0.1105
   98OSM    C5F 9806   2.328   5.275  10.143 -0.5369 -0.5297  0.4548
   98OSM    H5F 9807   2.348   5.381  10.118 -0.5307 -0.5901  0.1988
   98OSM    H5G 9808   2.218   5.263  10.159 -0.6085 -0.5759 -0.0425
   98OSM    C6F 9809   2.343   5.209   9.998  0.0274  1.0807 -0.1873
   98OSM    H6F 9810   2.303   5.105   9.997  0.6601  0.8365 -0.6153
   98OSM    H6G 9811   2.452   5.206   9.979 -0.1521  2.4887 -1.6646
   98OSM    C7F 9812   2.278   5.285   9.889  0.3499  0.4858  0.5982
   98OSM    H7F 9813   2.345   5.369   9.860  2.4620 -1.8505 -1.8957
   98OSM    H7G 9814   2.178   5.319   9.924  0.1947 -0.4193  1.0633
   98OSM    C8F 9815   2.240   5.208   9.760  0.4456  0.8193 -0.1081
   98OSM    H8F 9816   2.153   5.255   9.710 -1.8657 -2.7661  0.1154
   98OSM    H8G 9817   2.192   5.109   9.781 -0.2415  1.4665  1.5429
   98OSM    C9F 9818   2.364   5.201   9.670 -0.1998 -0.3746 -0.2380
   98OSM    H9F 9819   2.461   5.204   9.722 -1.3812  0.2933  2.0357
   98OSM   C10F 9820   2.362   5.214   9.535  0.3778 -0.0111  0.5164
   98OSM   H10F 9821   2.463   5.209   9.490  0.7078  1.3335  1.0517
   98OSM   C11F 9822   2.239   5.221   9.448 -0.4231  0.0458  0.1922
   98OSM   H11F 9823   2.166   5.297   9.486  0.9713  1.5067  0.0474
   98OSM   H11G 9824   2.191   5.122   9.431  1.8307 -0.7436 -2.0787
   98OSM   C12F 9825   2.284   5.267   9.306 -0.7909 -0.1394 -0.3908
   98OSM   H12F 9826   2.338   5.183   9.257 -1.4164 -0.6440 -0.2170
   98OSM   H12G 9827   2.366   5.341   9.319  0.2005 -1.2586 -0.0981
   98OSM   C13F 9828   2.179   5.332   9.219  0.2164 -0.7973 -0.4773
   98OSM   H13F 9829   2.161   5.435   9.257  1.2651 -1.8648  3.3700
   98OSM   H13G 9830   2.087   5.271   9.223 -0.0265 -0.3807  2.4302
   98OSM   C14F 9831   2.231   5.336   9.077  0.0237 -0.2393  0.2825
   98OSM   H14F 9832   2.336   5.373   9.071  0.0302 -0.2011  0.6035
   98OSM   H14G 9833   2.168   5.416   9.032  1.0866  1.5320  1.7886
   98OSM   C15F 9834   2.231   5.198   9.005 -0.1711 -0.2626 -0.5268
   98OSM   H15F 9835   2.127   5.170   8.980  0.4420 -0.2663 -3.4921
   98OSM   H15G 9836   2.271   5.119   9.072 -1.0592  2.3984  3.4506
   98OSM   C16F 9837   2.314   5.203   8.880 -0.0370  0.5717  0.9917
   98OSM   H16F 9838   2.417   5.168   8.903 -1.2545 -4.4147  0.1183
   98OSM   H16G 9839   2.318   5.304   8.834  0.2195  0.0598 -0.1349
   98OSM   C17F 9840   2.250   5.110   8.772  0.3545 -0.4662  0.7280
   98OSM   H17F 9841   2.141   5.130   8.758  0.5181 -0.7250 -1.3470
   98OSM   H17G 9842   2.262   5.007   8.812  0.4896 -0.1893  1.4099
   98OSM   C18F 9843   2.323   5.120   8.637 -0.8615  0.5431 -0.1522
   98OSM   H18F 9844   2.418   5.065   8.654  0.5106  2.7058 -0.4882
   98OSM   H18G 9845   2.342   5.224   8.604  0.6930  1.1869  2.4542
   98OSM   H18H 9846   2.260   5.064   8.565  1.3178  0.4842 -2.1116
   99OSM      N 9847   4.816   0.902  10.973 -0.1009  0.2817  0.2421
   99OSM    C15 9848   4.946   0.965  10.948  0.1966 -0.2896  0.0287
   99OSM   H15A 9849   4.932   1.044  10.875 -1.7162 -0.9490 -0.3745
   99OSM   H15B 9850   5.015   0.899  10.897  0.3680 -0.0100 -0.1053
   99OSM   H15C 9851   4.985   1.010  11.038  1.9977  3.4406 -2.3090
   99OSM    C14 9852   4.832   0.801  11.093  0.3840 -0.3967 -0.0325
   99OSM   H14A 9853   4.928   0.752  11.085  2.3288  2.9869  0.6464
   99OSM   H14B 9854   4.751   0.730  11.101  0.8297 -1.3491 -2.7774
   99OSM   H14C 9855   4.848   0.860  11.182  1.4280 -0.5837 -0.0817
   99OSM    C13 9856   4.732   1.016  11.023 -0.1891 -0.2585  0.0408
   99OSM   H13A 9857   4.628   0.987  11.032 -0.8051  2.0879  1.3597
   99OSM   H13B 9858   4.724   1.090  10.945  0.4544  2.2439  2.2119
   99OSM   H13C 9859   4.771   1.048  11.119  0.5179 -2.8466  0.7059
   99OSM    C12 9860   4.765   0.836  10.850  0.2543 -0.6300  0.5558
   99OSM   H12A 9861   4.774   0.902  10.765 -1.6482 -1.5326 -0.4065
   99OSM   H12B 9862   4.663   0.807  10.871 -0.4286  0.2890 -1.2328
   99OSM    C11 9863   4.837   0.704  10.807 -0.2768  0.0386  0.1207
   99OSM   H11A 9864   4.944   0.734  10.813 -0.1416 -0.7191  2.9087
   99OSM   H11B 9865   4.818   0.670  10.703 -3.1566 -0.5623  0.7513
   99OSM      P 9866   4.681   0.520  10.896  0.0362 -0.1650  0.1163
   99OSM    O13 9867   4.690   0.402  10.991 -0.8022  0.3605 -0.2726
   99OSM    O14 9868   4.574   0.615  10.916 -0.7043 -0.6769  0.7370
   99OSM    O11 9869   4.664   0.449  10.751 -0.5258  0.1092 -0.2982
   99OSM    O12 9870   4.820   0.593  10.901  0.8972  0.4037  0.4551
   99OSM    C1S 9871   4.775   0.387  10.685 -0.0696 -0.6439  0.1199
   99OSM    H1S 9872   4.813   0.293  10.730  2.9303 -1.3711 -3.3750
   99OSM    H1T 9873   4.868   0.448  10.678 -1.1147  0.8923 -1.0402
   99OSM     NF 9874   4.841   0.258  10.492  0.6536  0.0994  0.1475
   99OSM    HNF 9875   4.908   0.309  10.440 -0.5064 -0.0757 -1.5938
   99OSM    C2S 9876   4.734   0.342  10.543 -0.8422  0.4237 -0.3370
   99OSM    H2S 9877   4.640   0.283  10.541  0.2354 -1.3854 -0.1566
   99OSM    C3S 9878   4.694   0.470  10.454 -0.2434 -0.3974  0.0682
   99OSM    H3S 9879   4.784   0.524  10.419 -2.0760  2.6829 -0.2162
   99OSM     O3 9880   4.610   0.570  10.518 -0.0132  0.2008 -0.6200
   99OSM    HO3 9881   4.620   0.550  10.611 -0.3204 -0.5428 -0.7394
   99OSM    C4S 9882   4.618   0.424  10.325 -0.3662  0.4576 -0.1755
   99OSM    H4S 9883   4.513   0.396  10.338 -0.3925 -0.6086 -2.3101
   99OSM    C5S 9884   4.664   0.419  10.197  0.1865 -0.2848  0.3171
   99OSM    H5S 9885   4.769   0.443  10.175  0.4696 -1.8167 -0.1339
   99OSM    C6S 9886   4.591   0.381  10.073  0.2364  0.3752 -0.9790
   99OSM    H6S 9887   4.493   0.340  10.107 -0.1949  1.5146 -0.8060
   99OSM    H6T 9888   4.651   0.301  10.025  3.1435  1.3035  0.8726
   99OSM    C7S 9889   4.556   0.506   9.991 -0.2251 -0.1642 -0.3443
   99OSM    H7S 9890   4.481   0.574  10.037  1.0184  0.2014  1.1853
   99OSM    H7T 9891   4.504   0.469   9.899  1.9802  0.7614 -2.0437
   99OSM    C8S 9892   4.679   0.570   9.928  0.1955  0.8047 -0.3896
   99OSM    H8S 9893   4.765   0.504   9.906  1.7415  2.2154  1.1232
   99OSM    H8T 9894   4.706   0.631  10.017 -2.1413  0.6463  0.5123
   99OSM    C9S 9895   4.664   0.675   9.815  0.1074 -0.1506 -0.1284
   99OSM    H9S 9896   4.762   0.728   9.822 -0.3876  0.9812 -1.3875
   99OSM    H9T 9897   4.592   0.751   9.852 -2.3163 -2.0501 -0.7151
   99OSM   C10S 9898   4.628   0.626   9.678 -0.6740  0.0120 -0.8632
   99OSM   H10S 9899   4.525   0.587   9.661 -0.1173 -1.1505 -1.7455
   99OSM   H10T 9900   4.688   0.532   9.666 -1.3420 -1.0103  2.6974
   99OSM   C11S 9901   4.660   0.722   9.557  1.2957 -0.1079  1.3576
   99OSM   H11S 9902   4.768   0.714   9.535  0.7511 -0.4509 -1.5836
   99OSM   H11T 9903   4.631   0.825   9.587 -1.9053  0.4518 -2.7830
   99OSM   C12S 9904   4.582   0.678   9.430 -0.4062 -0.5673  0.1499
   99OSM   H12S 9905   4.610   0.575   9.399 -0.1994 -0.5891  0.4117
   99OSM   H12T 9906   4.471   0.677   9.436 -0.6229 -0.0282 -2.5997
   99OSM   C13S 9907   4.625   0.770   9.309 -0.6710  0.1555 -0.1209
   99OSM   H13S 9908   4.734   0.765   9.292 -0.2961  2.1454  1.3022
   99OSM   H13T 9909   4.609   0.873   9.348  0.6047  0.4014 -0.2104
   99OSM   C14S 9910   4.538   0.750   9.178  0.8258 -0.8178  0.2294
   99OSM   H14S 9911   4.429   0.756   9.199  0.6255 -0.8554 -0.7527
   99OSM   H14T 9912   4.547   0.647   9.137 -0.1536 -0.0970 -1.9635
   99OSM   C15S 9913   4.567   0.850   9.076  0.7111 -0.4944  0.0211
   99OSM   H15S 9914   4.667   0.827   9.033  0.7691 -1.5930  0.7022
   99OSM   H15T 9915   4.569   0.954   9.115  1.5664 -1.5504  3.0795
   99OSM   C16S 9916   4.463   0.851   8.963  0.4357 -0.6478 -0.0028
   99OSM   H16S 9917   4.360   0.868   9.001  1.6577  0.9497  2.8810
   99OSM   H16T 9918   4.469   0.754   8.909 -1.9569 -1.7885  1.6056
   99OSM   C17S 9919   4.495   0.958   8.851  0.2126  0.0365  0.3259
   99OSM   H17S 9920   4.559   1.039   8.894  1.0870 -0.2481 -0.4037
   99OSM   H17T 9921   4.405   1.000   8.801  1.3922 -1.0959 -3.0019
   99OSM   C18S 9922   4.580   0.892   8.742  0.6349  0.5801  0.3773
   99OSM   H18S 9923   4.521   0.819   8.682  0.9374  0.0111  0.7749
   99OSM   H18T 9924   4.670   0.846   8.787  1.2409  1.0920 -0.2975
   99OSM   H18U 9925   4.607   0.968   8.665  0.4090  1.1474  0.8566
   99OSM    C1F 9926   4.859   0.130  10.520  0.0865  0.1519  0.5768
   99OSM     OF 9927   4.784   0.079  10.601  0.5446 -0.2007 -0.5908
   99OSM    C2F 9928   4.959   0.050  10.448  0.1437 -0.4981  0.1962
   99OSM    H2F 9929   4.972  -0.051  10.493 -1.7284  0.4783  3.2686
   99OSM    H2G 9930   5.054   0.108  10.450 -1.4792  2.3477 -0.0911
   99OSM    C3F 9931   4.933   0.040  10.297  0.1642  0.3351 -0.4859
   99OSM    H3F 9932   4.884   0.134  10.264 -1.9751  0.1755  1.9051
   99OSM    H3G 9933   5.017   0.012  10.231 -0.9285 -1.7145 -1.1149
   99OSM    C4F 9934   4.821  -0.066  10.273 -0.2429 -0.6348 -0.1173
   99OSM    H4F 9935   4.814  -0.131  10.362 -1.7499  0.7263  0.8292
   99OSM    H4G 9936   4.862  -0.137  10.198  2.1118  1.5269 -1.0502
   99OSM    C5F 9937   4.680  -0.017  10.250 -0.2775  0.2224 -0.8436
   99OSM    H5F 9938   4.664   0.068  10.320  1.0402 -0.4658  0.3376
   99OSM    H5G 9939   4.610  -0.093  10.290 -0.2918  0.4413 -0.4525
   99OSM    C6F 9940   4.635   0.006  10.107  0.8824 -0.1660  0.2477
   99OSM    H6F 9941   4.687   0.091  10.058  0.9688  0.5856  1.6125
   99OSM    H6G 9942   4.529   0.041  10.113  0.5297 -1.4673  3.6268
   99OSM    C7F 9943   4.639  -0.127  10.023 -0.3670  0.4915 -0.5106
   99OSM    H7F 9944   4.599  -0.212  10.081 -0.1658  0.8575  0.1808
   99OSM    H7G 9945   4.742  -0.160   9.996 -1.4012 -1.8019 -1.9415
   99OSM    C8F 9946   4.572  -0.115   9.884  0.1121 -0.1514  0.6111
   99OSM    H8F 9947   4.462  -0.100   9.890  0.0700  0.2641 -0.8633
   99OSM    H8G 9948   4.593  -0.217   9.847 -1.0281  0.4813 -1.9977
   99OSM    C9F 9949   4.632  -0.016   9.794  0.4047  0.0300 -0.5251
   99OSM    H9F 9950   4.704   0.049   9.847 -0.6351  0.6497  0.1489
   99OSM   C10F 9951   4.605  -0.002   9.662 -0.7578  0.5380  0.4707
   99OSM   H10F 9952   4.664   0.059   9.592 -0.5684  0.6319  0.7106
   99OSM   C11F 9953   4.503  -0.102   9.607 -0.6909  0.2451 -0.1348
   99OSM   H11F 9954   4.415  -0.098   9.676 -0.1594  2.8023  0.5065
   99OSM   H11G 9955   4.558  -0.198   9.607  0.5771  0.9299  1.4900
   99OSM   C12F 9956   4.447  -0.072   9.472 -0.0858  0.0023  0.2787
   99OSM   H12F 9957   4.401   0.030   9.469 -0.2416 -0.0680 -2.2250
   99OSM   H12G 9958   4.370  -0.142   9.433 -0.9786  1.7324 -1.2329
   99OSM   C13F 9959   4.551  -0.074   9.358 -0.6324 -0.2951 -0.0239
   99OSM   H13F 9960   4.601  -0.174   9.360  1.3801  0.6740  0.6044
   99OSM   H13G 9961   4.640  -0.009   9.374  0.9649 -2.2858 -0.2697
   99OSM   C14F 9962   4.491  -0.047   9.220  0.2714 -0.9559 -0.2154
   99OSM   H14F 9963   4.425   0.041   9.233 -0.6599 -1.8353  1.3392
   99OSM   H14G 9964   4.428  -0.134   9.192  0.1388 -0.4254 -1.6532
   99OSM   C15F 9965   4.594  -0.036   9.111 -0.1725  0.2336 -0.1106
   99OSM   H15F 9966   4.657  -0.127   9.117  0.2038  0.5569  0.9844
   99OSM   H15G 9967   4.647   0.060   9.128 -0.9514  1.1861 -2.5735
   99OSM   C16F 9968   4.531  -0.026   8.969 -0.4942  0.1019  0.0066
   99OSM   H16F 9969   4.469   0.066   8.971 -0.8302 -0.0380 -1.9706
   99OSM   H16G 9970   4.473  -0.120   8.958  1.0103 -0.9568  0.7575
   99OSM   C17F 9971   4.635  -0.004   8.854  0.6459 -0.3381  0.2129
   99OSM   H17F 9972   4.580   0.004   8.757  0.7707  4.3274  0.2990
   99OSM   H17G 9973   4.707  -0.088   8.854  0.3102 -0.6366  1.2258
   99OSM   C18F 9974   4.724   0.120   8.867 -0.1081  0.5368 -0.5930
   99OSM   H18F 9975   4.664   0.214   8.872 -1.7279 -0.5207  0.5863
   99OSM   H18G 9976   4.798   0.133   8.784 -0.8239  1.5329 -1.1064
   99OSM   H18H 9977   4.772   0.115   8.967 -1.0075  1.5082 -0.0910
  100OSM      N 9978   5.668   0.291  10.763 -0.4002  0.1229  0.4933
  100OSM    C15 9979   5.635   0.394  10.861  0.9303  0.2978 -0.1696
  100OSM   H15A 9980   5.585   0.370  10.954  1.3302 -0.6089 -0.1820
  100OSM   H15B 9981   5.573   0.475  10.827 -2.3059 -0.8082  2.4486
  100OSM   H15C 9982   5.728   0.434  10.897 -0.3671  2.3182  1.1482
  100OSM    C14 9983   5.555   0.256  10.682  0.0355  0.4292 -0.3856
  100OSM   H14A 9984   5.585   0.204  10.592  1.2518  0.0805  0.1990
  100OSM   H14B 9985   5.501   0.343  10.648 -0.6978  0.1359  0.0188
  100OSM   H14C 9986   5.486   0.185  10.725 -1.5927  2.7215  0.9739
  100OSM    C13 9987   5.771   0.354  10.669 -0.8198  0.8065 -0.1990
  100OSM   H13A 9988   5.737   0.440  10.614 -0.3122  0.8257 -0.4869
  100OSM   H13B 9989   5.815   0.284  10.599  0.5787  1.1077  0.3406
  100OSM   H13C 9990   5.847   0.391  10.737 -0.4859  0.1822 -0.2204
  100OSM    C12 9991   5.732   0.173  10.843  0.0633  0.4548 -0.3227
  100OSM   H12A 9992   5.824   0.206  10.889  1.0310 -1.7023 -0.5985
  100OSM   H12B 9993   5.773   0.096  10.780  1.5488 -0.3537  1.5531
  100OSM    C11 9994   5.645   0.096  10.944  1.4326 -0.2169 -0.4206
  100OSM   H11A 9995   5.596   0.163  11.018 -0.0426 -4.1924  2.5828
  100OSM   H11B 9996   5.711   0.030  11.004 -0.0071  1.0663  2.8056
  100OSM      P 9997   5.539  -0.123  10.828 -0.2559 -0.1455 -0.0628
  100OSM    O13 9998   5.611  -0.210  10.925  0.5107 -0.6940 -0.2341
  100OSM    O14 9999   5.411  -0.168  10.774  0.5280 -0.4856  0.6202
  100OSM    O1110000   5.645  -0.097  10.717 -0.5102 -0.0616  0.0477
  100OSM    O1210001   5.530   0.029  10.881  0.0539  0.2866  0.5303
  100OSM    C1S10002   5.608  -0.106  10.582 -0.3733 -0.1135  0.5093
  100OSM    H1S10003   5.531  -0.028  10.563 -1.5915 -1.4611 -0.2640
  100OSM    H1T10004   5.576  -0.207  10.546  3.3489 -0.9659 -0.8276
  100OSM     NF10005   5.702  -0.052  10.351  0.0161 -0.0345  0.2532
  100OSM    HNF10006   5.740  -0.114  10.283 -0.6333 -0.4823  0.2946
  100OSM    C2S10007   5.742  -0.080  10.499  0.2621  0.6217 -0.4334
  100OSM    H2S10008   5.786   0.017  10.529 -0.9922  1.1317 -0.1571
  100OSM    C3S10009   5.836  -0.199  10.511  0.1604 -0.0537  0.3374
  100OSM    H3S10010   5.789  -0.296  10.485 -3.5295  1.1032  2.0668
  100OSM     O310011   5.864  -0.235  10.646 -0.2123 -0.3634  0.4804
  100OSM    HO310012   5.806  -0.178  10.696  0.9802  1.1116  0.2591
  100OSM    C4S10013   5.973  -0.177  10.451  0.8931 -0.1863 -0.0678
  100OSM    H4S10014   6.034  -0.110  10.514  1.1139 -1.3432  0.9876
  100OSM    C5S10015   6.035  -0.235  10.342 -0.0278  0.4794  0.0885
  100OSM    H5S10016   5.976  -0.311  10.289 -1.3394  1.3766  0.2060
  100OSM    C6S10017   6.171  -0.198  10.296  0.1585 -0.0521  0.1445
  100OSM    H6S10018   6.225  -0.296  10.301 -2.3438 -1.4775  1.3638
  100OSM    H6T10019   6.216  -0.124  10.365 -0.4104  0.7337 -0.3207
  100OSM    C7S10020   6.162  -0.130  10.158 -0.1999 -0.0819  0.0244
  100OSM    H7S10021   6.264  -0.086  10.150 -0.2277  0.5474  2.1996
  100OSM    H7T10022   6.092  -0.043  10.156 -1.2928 -0.9535 -0.2347
  100OSM    C8S10023   6.132  -0.229  10.043 -0.2235  0.9792 -0.5353
  100OSM    H8S10024   6.037  -0.279  10.071  1.0590 -1.2087  0.1395
  100OSM    H8T10025   6.214  -0.303  10.051 -1.3067 -0.1328  0.6542
  100OSM    C9S10026   6.118  -0.168   9.899 -0.1810 -0.5789 -0.5310
  100OSM    H9S10027   6.206  -0.101   9.884  0.9470 -2.2035 -1.5723
  100OSM    H9T10028   6.018  -0.121   9.891 -0.4747 -0.9585  0.6926
  100OSM   C10S10029   6.139  -0.276   9.793  0.2161 -0.2190  1.0522
  100OSM   H10S10030   6.060  -0.351   9.814 -1.8458  1.6868  0.5014
  100OSM   H10T10031   6.241  -0.319   9.785  0.0567 -0.3439 -3.9756
  100OSM   C11S10032   6.106  -0.211   9.654 -0.2744  0.0715 -1.1590
  100OSM   H11S10033   6.184  -0.136   9.632  1.4800 -1.0675  0.7910
  100OSM   H11T10034   6.009  -0.157   9.650 -0.0459  0.6913  0.6204
  100OSM   C12S10035   6.113  -0.315   9.547  0.4484 -0.0259 -0.1666
  100OSM   H12S10036   6.032  -0.392   9.555 -0.4180  1.0196  1.8775
  100OSM   H12T10037   6.207  -0.371   9.567  1.0990  0.4657 -1.7557
  100OSM   C13S10038   6.113  -0.266   9.400 -0.0218  0.7021 -0.4225
  100OSM   H13S10039   6.184  -0.180   9.393  1.2135 -0.2189  0.4672
  100OSM   H13T10040   6.012  -0.228   9.375 -0.2867  0.2108 -0.0986
  100OSM   C14S10041   6.149  -0.370   9.303 -0.1352 -0.1046  0.2479
  100OSM   H14S10042   6.090  -0.461   9.323 -1.5128  0.0149 -2.6950
  100OSM   H14T10043   6.260  -0.382   9.303 -0.0582  0.4573 -0.4955
  100OSM   C15S10044   6.108  -0.319   9.167 -0.2298  0.4072 -0.0572
  100OSM   H15S10045   6.184  -0.266   9.106  0.1965  0.8069  0.8137
  100OSM   H15T10046   6.026  -0.248   9.188 -1.3462 -1.4222  2.1334
  100OSM   C16S10047   6.046  -0.431   9.072  0.5862  0.0609 -0.0044
  100OSM   H16S10048   5.963  -0.478   9.129 -0.2138  1.0135 -0.3561
  100OSM   H16T10049   6.120  -0.512   9.054 -0.4083 -1.1189  1.0234
  100OSM   C17S10050   6.003  -0.365   8.934  0.6099 -0.1561  0.1177
  100OSM   H17S10051   6.087  -0.333   8.868  0.0473 -0.8034 -0.9472
  100OSM   H17T10052   5.944  -0.275   8.959  1.9015  0.7454  0.0212
  100OSM   C18S10053   5.904  -0.444   8.852  0.4430  0.0342  0.0253
  100OSM   H18S10054   5.802  -0.427   8.894  0.9778 -0.6890  1.6979
  100OSM   H18T10055   5.919  -0.552   8.870 -2.1460 -0.6270 -1.2810
  100OSM   H18U10056   5.910  -0.417   8.744  0.0768  0.5515  0.1288
  100OSM    C1F10057   5.627   0.049  10.312  0.5847 -0.2633  0.3552
  100OSM     OF10058   5.599   0.146  10.391  0.0778  0.4697 -0.1601
  100OSM    C2F10059   5.577   0.052  10.173 -0.7695 -0.4652  0.4761
  100OSM    H2F10060   5.499  -0.027  10.164 -0.3953 -0.7969  0.0626
  100OSM    H2G10061   5.647   0.015  10.095 -2.2555 -0.3494 -0.9563
  100OSM    C3F10062   5.521   0.193  10.141  0.1212 -0.0120  0.3628
  100OSM    H3F10063   5.596   0.273  10.157  1.0660 -0.9342  0.6737
  100OSM    H3G10064   5.422   0.217  10.187 -3.0132 -0.7073 -5.1227
  100OSM    C4F10065   5.493   0.200   9.990  0.5185  0.4758 -0.1606
  100OSM    H4F10066   5.594   0.199   9.945  0.9985 -0.3176  0.8961
  100OSM    H4G10067   5.441   0.295   9.968  2.1611  0.8863 -2.7419
  100OSM    C5F10068   5.416   0.079   9.932 -0.5160 -0.5636 -0.0393
  100OSM    H5F10069   5.318   0.059   9.980 -0.6909  1.1353  0.3737
  100OSM    H5G10070   5.477  -0.014   9.942 -2.2019 -1.4787  2.8374
  100OSM    C6F10071   5.393   0.103   9.778 -0.6387  0.2597 -0.3807
  100OSM    H6F10072   5.479   0.161   9.739 -0.8458  1.3431  0.6947
  100OSM    H6G10073   5.304   0.169   9.771 -0.9765 -0.1726 -0.2222
  100OSM    C7F10074   5.368  -0.021   9.698  0.1648  0.6017  0.0218
  100OSM    H7F10075   5.272  -0.069   9.731 -0.8198  2.8170  0.5531
  100OSM    H7G10076   5.445  -0.100   9.711  0.1694  0.5434 -0.3512
  100OSM    C8F10077   5.351   0.007   9.544 -0.3046 -0.0422 -0.3742
  100OSM    H8F10078   5.276   0.087   9.527 -1.1411  0.1282  3.2689
  100OSM    H8G10079   5.301  -0.078   9.493  0.0737 -1.3874  1.4079
  100OSM    C9F10080   5.482   0.033   9.469  0.1555 -1.4217 -0.7976
  100OSM    H9F10081   5.574   0.064   9.521 -2.4269  1.2071  2.6329
  100OSM   C10F10082   5.494   0.043   9.337  0.5072 -0.1503 -0.7848
  100OSM   H10F10083   5.592   0.067   9.295  2.6568 -1.0085  3.2710
  100OSM   C11F10084   5.384   0.025   9.241  0.2682 -0.8116 -0.3501
  100OSM   H11F10085   5.287   0.026   9.294  0.6334 -1.2201  0.3460
  100OSM   H11G10086   5.379  -0.071   9.185 -1.8517  0.7012 -2.9483
  100OSM   C12F10087   5.369   0.140   9.140 -0.1099  0.3418 -0.5761
  100OSM   H12F10088   5.337   0.229   9.198  2.2516  0.2456  0.9996
  100OSM   H12G10089   5.280   0.115   9.078 -1.6042  0.6454  1.3276
  100OSM   C13F10090   5.497   0.183   9.059 -0.2634 -0.0457 -0.0472
  100OSM   H13F10091   5.533   0.109   8.985 -2.0216 -1.7872  0.7572
  100OSM   H13G10092   5.572   0.193   9.141 -0.3048 -0.9563  0.1152
  100OSM   C14F10093   5.479   0.327   9.010  0.4344 -0.0924 -0.0891
  100OSM   H14F10094   5.572   0.361   8.961  1.4675 -0.8670  1.2586
  100OSM   H14G10095   5.468   0.399   9.094  0.0968  0.4728 -0.6137
  100OSM   C15F10096   5.362   0.347   8.909  1.0852 -0.6677 -0.3005
  100OSM   H15F10097   5.355   0.451   8.868 -0.2159 -0.8140 -0.4891
  100OSM   H15G10098   5.268   0.348   8.968  0.0703  0.8077 -1.8291
  100OSM   C16F10099   5.355   0.243   8.796  0.7582 -0.1256 -0.3283
  100OSM   H16F10100   5.320   0.143   8.829 -1.5869  1.4826  2.5399
  100OSM   H16G10101   5.458   0.238   8.755  1.0348 -1.6616  0.4727
  100OSM   C17F10102   5.251   0.286   8.692 -0.6899 -0.5264 -0.3440
  100OSM   H17F10103   5.261   0.395   8.672 -3.8675 -0.3598 -1.4597
  100OSM   H17G10104   5.147   0.264   8.723 -1.0466 -0.5308 -1.4957
  100OSM   C18F10105   5.282   0.201   8.576  0.1007  0.7645 -0.1661
  100OSM   H18F10106   5.384   0.225   8.537  0.6461 -0.9430  0.1683
  100OSM   H18G10107   5.214   0.234   8.494  0.4007  2.2747  0.1607
  100OSM   H18H10108   5.264   0.094   8.595 -1.7229  1.2907  1.3569
  101OSM      N10109   3.237   6.040  10.822  0.9090 -0.1458  1.1089
  101OSM    C1510110   3.172   6.169  10.827  0.2000 -0.0809  0.1609
  101OSM   H15A10111   3.080   6.160  10.882  1.7556 -1.1802  2.7972
  101OSM   H15B10112   3.156   6.213  10.730  2.6864  0.2021 -0.1979
  101OSM   H15C10113   3.237   6.244  10.871 -0.7128  0.7881  0.0488
  101OSM    C1410114   3.368   6.051  10.747 -0.5639  0.0229 -0.7687
  101OSM   H14A10115   3.429   5.963  10.762 -0.5844  0.0443 -0.5605
  101OSM   H14B10116   3.420   6.134  10.792 -2.1156  0.5730  0.1015
  101OSM   H14C10117   3.350   6.073  10.642  1.5791 -0.1328 -1.2092
  101OSM    C1310118   3.271   5.989  10.958 -0.2511 -0.1504  0.4755
  101OSM   H13A10119   3.349   6.041  11.012 -0.0497 -0.6309  0.6552
  101OSM   H13B10120   3.308   5.887  10.953  0.2483 -0.0223  1.4063
  101OSM   H13C10121   3.179   5.988  11.013 -1.7344 -0.1326 -1.8449
  101OSM    C1210122   3.139   5.939  10.755  0.1092 -0.8763 -0.2134
  101OSM   H12A10123   3.191   5.845  10.753  1.5020 -0.2182  1.5704
  101OSM   H12B10124   3.128   5.966  10.651  2.1628  1.1492  0.0036
  101OSM    C1110125   2.998   5.923  10.817 -0.2923  0.2355 -0.0365
  101OSM   H11A10126   2.940   5.863  10.744 -1.0375  2.2626 -1.2043
  101OSM   H11B10127   2.945   6.021  10.825 -1.1415 -0.3438  1.9467
  101OSM      P10128   3.029   5.706  10.969 -0.1612 -0.2318  0.0160
  101OSM    O1310129   3.164   5.685  11.027  1.0032  0.5433 -0.0084
  101OSM    O1410130   2.919   5.645  11.032 -0.0226 -0.1616 -0.8106
  101OSM    O1110131   3.033   5.657  10.813  0.5150 -0.1432 -0.3359
  101OSM    O1210132   3.001   5.862  10.946 -0.5478  0.0378 -0.1551
  101OSM    C1S10133   2.913   5.586  10.771  0.8751  0.1057  0.7116
  101OSM    H1S10134   2.824   5.645  10.802  1.7195  1.5055  0.5795
  101OSM    H1T10135   2.908   5.483  10.812 -0.9711  0.0002  0.3343
  101OSM     NF10136   2.771   5.547  10.565 -0.0970  0.4287  0.4872
  101OSM    HNF10137   2.738   5.453  10.554  0.2947  0.2178  1.0745
  101OSM    C2S10138   2.908   5.566  10.611  0.7466 -0.3397  0.2885
  101OSM    H2S10139   2.955   5.660  10.572  1.4745 -0.3211  1.1915
  101OSM    C3S10140   3.002   5.445  10.577  0.1875  0.2901 -0.6344
  101OSM    H3S10141   2.953   5.360  10.628  1.7306  0.2593  0.9172
  101OSM     O310142   3.122   5.452  10.657 -0.2002  0.2281 -0.2134
  101OSM    HO310143   3.113   5.520  10.724  1.6796 -0.4676  0.8301
  101OSM    C4S10144   3.029   5.429  10.439 -0.2932  0.4785  0.1001
  101OSM    H4S10145   3.132   5.458  10.409  0.5299 -0.6320  1.7258
  101OSM    C5S10146   2.943   5.377  10.347  0.6485  0.0451 -0.6598
  101OSM    H5S10147   2.845   5.344  10.384  1.0335 -0.5390 -0.1343
  101OSM    C6S10148   2.966   5.364  10.200  0.7726  0.7947 -0.2073
  101OSM    H6S10149   3.063   5.314  10.176  0.8603  1.3347 -1.0520
  101OSM    H6T10150   2.966   5.466  10.157 -1.1091  1.1285  0.5209
  101OSM    C7S10151   2.850   5.275  10.140 -0.4521 -0.1842  1.0577
  101OSM    H7S10152   2.755   5.332  10.139 -1.6728 -2.0560  2.7135
  101OSM    H7T10153   2.841   5.180  10.198  1.6005 -1.3805 -0.4376
  101OSM    C8S10154   2.879   5.220   9.997 -0.6319  0.0087 -0.1316
  101OSM    H8S10155   2.881   5.303   9.923 -0.0542 -0.1443 -0.2896
  101OSM    H8T10156   2.792   5.156   9.968 -0.4822 -0.5094  0.5303
  101OSM    C9S10157   3.007   5.137   9.983 -0.5512  0.1434 -1.0084
  101OSM    H9S10158   3.000   5.056  10.059  0.8697 -0.0861 -1.0926
  101OSM    H9T10159   3.095   5.202  10.001  0.9035 -2.0432  0.1656
  101OSM   C10S10160   3.028   5.072   9.842 -0.1772 -0.3553  0.1283
  101OSM   H10S10161   3.027   5.151   9.763 -3.0225 -0.8224 -0.3893
  101OSM   H10T10162   2.940   5.013   9.809 -0.3524 -1.0455  1.7696
  101OSM   C11S10163   3.158   4.992   9.821  0.3450 -0.7588 -0.1128
  101OSM   H11S10164   3.146   4.905   9.889 -1.9029  0.4229  1.1264
  101OSM   H11T10165   3.243   5.051   9.862 -1.2995  1.1055  0.8228
  101OSM   C12S10166   3.188   4.956   9.676  0.3543 -0.4963  0.4102
  101OSM   H12S10167   3.105   4.905   9.622  0.5697  0.3979 -0.7978
  101OSM   H12T10168   3.265   4.878   9.692 -0.6628 -1.4407  0.8814
  101OSM   C13S10169   3.226   5.073   9.583 -0.2685 -0.1551  0.0199
  101OSM   H13S10170   3.331   5.103   9.607  0.0737 -0.8643 -0.5259
  101OSM   H13T10171   3.156   5.157   9.600  1.5690  1.1232  1.8547
  101OSM   C14S10172   3.224   5.042   9.439 -0.2870 -0.2345 -0.9775
  101OSM   H14S10173   3.123   5.013   9.402 -0.7809  1.0365 -0.6605
  101OSM   H14T10174   3.280   4.951   9.409 -3.5525 -2.6589 -0.3724
  101OSM   C15S10175   3.268   5.161   9.352 -0.0473 -0.5686  0.7841
  101OSM   H15S10176   3.377   5.181   9.358 -0.2926  0.5088  1.9876
  101OSM   H15T10177   3.210   5.245   9.396 -1.1556 -0.7161 -0.3250
  101OSM   C16S10178   3.214   5.153   9.205  0.0374  0.8668 -0.0091
  101OSM   H16S10179   3.247   5.237   9.140 -0.0198  1.3896  0.6197
  101OSM   H16T10180   3.103   5.156   9.210  0.0355  1.0591 -0.1529
  101OSM   C17S10181   3.266   5.024   9.134 -0.3257 -0.0757  0.1032
  101OSM   H17S10182   3.235   4.931   9.187  2.7624 -0.9599  0.5820
  101OSM   H17T10183   3.373   5.008   9.157 -0.4700 -0.3679  0.5959
  101OSM   C18S10184   3.236   5.005   8.987  0.1757  0.1999 -0.1146
  101OSM   H18S10185   3.132   5.020   8.950 -0.0443  1.3406  0.9284
  101OSM   H18T10186   3.262   4.901   8.957 -0.6629  0.0815 -0.4617
  101OSM   H18U10187   3.294   5.067   8.915  0.6618 -1.1246 -0.8956
  101OSM    C1F10188   2.676   5.643  10.572 -0.1728  0.2571  0.2917
  101OSM     OF10189   2.711   5.754  10.611  0.0140  0.1502 -0.1188
  101OSM    C2F10190   2.532   5.604  10.551 -0.0979 -0.3036  0.5751
  101OSM    H2F10191   2.478   5.599  10.648 -0.2956  0.1116  0.4848
  101OSM    H2G10192   2.532   5.507  10.496  0.1716 -0.1117  0.2378
  101OSM    C3F10193   2.452   5.700  10.457  0.4000 -0.0165 -0.4571
  101OSM    H3F10194   2.436   5.800  10.504  0.3387 -0.8452  1.3623
  101OSM    H3G10195   2.351   5.656  10.448  0.2018  0.3966 -0.2564
  101OSM    C4F10196   2.516   5.725  10.321  0.3674  0.6398  0.2259
  101OSM    H4F10197   2.615   5.774  10.329  0.6133  0.5255 -1.7258
  101OSM    H4G10198   2.451   5.791  10.260  1.4748  1.5551  0.0108
  101OSM    C5F10199   2.540   5.601  10.232  0.4248 -0.8132 -0.3643
  101OSM    H5F10200   2.436   5.577  10.202 -0.0146 -0.1432  0.5987
  101OSM    H5G10201   2.576   5.512  10.289 -0.8701 -2.4372 -1.9474
  101OSM    C6F10202   2.645   5.615  10.113  0.4385  0.7061  0.0275
  101OSM    H6F10203   2.649   5.722  10.081  1.1668  1.2719  1.8657
  101OSM    H6G10204   2.740   5.577  10.156 -0.4227 -1.0657  0.4434
  101OSM    C7F10205   2.592   5.529   9.995  0.5566  0.3193 -1.0940
  101OSM    H7F10206   2.486   5.560   9.981 -0.8651 -2.0859  2.5986
  101OSM    H7G10207   2.578   5.425  10.033  1.1202  0.7984  0.5242
  101OSM    C8F10208   2.682   5.549   9.876 -0.0313 -0.1602  0.4351
  101OSM    H8F10209   2.784   5.520   9.908  0.7604 -0.8183 -2.3861
  101OSM    H8G10210   2.677   5.655   9.843  0.4576  0.2569  1.6399
  101OSM    C9F10211   2.634   5.465   9.761  0.1368  0.3122 -0.7128
  101OSM    H9F10212   2.543   5.405   9.777  1.0308 -1.1512 -0.8490
  101OSM   C10F10213   2.713   5.450   9.655  0.3753 -0.2665  0.8620
  101OSM   H10F10214   2.675   5.397   9.566  0.5853  1.2522 -0.1609
  101OSM   C11F10215   2.843   5.517   9.626 -0.4054 -0.1047 -0.9576
  101OSM   H11F10216   2.867   5.574   9.718 -3.3499 -1.3812  0.7393
  101OSM   H11G10217   2.826   5.589   9.543  0.2829  1.8893  0.5318
  101OSM   C12F10218   2.957   5.412   9.595  0.5417 -0.2803 -0.4473
  101OSM   H12F10219   2.936   5.359   9.499 -1.2081  0.5446 -0.5703
  101OSM   H12G10220   2.934   5.332   9.669 -1.3043  0.8248  0.2490
  101OSM   C13F10221   3.099   5.463   9.632  1.0375  0.3111  0.4294
  101OSM   H13F10222   3.165   5.374   9.618  0.2658  0.0568 -2.1371
  101OSM   H13G10223   3.093   5.487   9.741 -0.5859  1.0581  0.1959
  101OSM   C14F10224   3.151   5.592   9.566  0.6107  0.4576 -0.7037
  101OSM   H14F10225   3.227   5.631   9.637  0.2620 -2.8627  1.7011
  101OSM   H14G10226   3.069   5.668   9.564  0.6067  0.5120  0.5007
  101OSM   C15F10227   3.227   5.578   9.434  0.4806  0.0071  0.0421
  101OSM   H15F10228   3.286   5.484   9.448 -0.2031 -0.4712 -0.2574
  101OSM   H15G10229   3.298   5.652   9.391 -0.1406 -0.0134 -1.0515
  101OSM   C16F10230   3.128   5.542   9.324  0.0576  0.0275  0.9831
  101OSM   H16F10231   3.037   5.605   9.320 -0.6565 -0.9822  1.0730
  101OSM   H16G10232   3.098   5.436   9.337 -1.3175 -0.0115 -1.7954
  101OSM   C17F10233   3.181   5.560   9.182 -0.0170 -0.5946 -0.2843
  101OSM   H17F10234   3.282   5.516   9.167  1.6619  1.9569  2.3996
  101OSM   H17G10235   3.192   5.670   9.166  0.6148 -0.7027 -0.6255
  101OSM   C18F10236   3.096   5.518   9.069  0.3110  0.0160  0.2017
  101OSM   H18F10237   3.130   5.572   8.977 -0.5049  0.8811  0.3926
  101OSM   H18G10238   2.992   5.550   9.090 -0.0831 -0.9038 -0.2675
  101OSM   H18H10239   3.095   5.409   9.047 -0.7053  0.4594 -2.3027
  102OSM      N10240   3.117   1.235  10.678 -0.1377  0.1678 -0.2138
  102OSM    C1510241   3.011   1.150  10.618 -0.4266  0.5656  0.6659
  102OSM   H15A10242   2.997   1.159  10.511 -0.4813 -5.5846 -0.2233
  102OSM   H15B10243   2.916   1.167  10.666 -0.3204 -0.2037  1.1646
  102OSM   H15C10244   3.040   1.048  10.639  0.3398  0.5126 -0.5175
  102OSM    C1410245   3.061   1.359  10.724  0.3826 -0.1447  0.2015
  102OSM   H14A10246   3.126   1.413  10.790  0.2520  0.3888 -0.1030
  102OSM   H14B10247   2.972   1.345  10.784  0.8667  0.8975  1.1891
  102OSM   H14C10248   3.031   1.427  10.645 -1.0456  1.0886  1.7415
  102OSM    C1310249   3.172   1.169  10.796 -0.1446  0.7432  0.1824
  102OSM   H13A10250   3.218   1.072  10.781 -3.1096 -0.8983  0.9237
  102OSM   H13B10251   3.097   1.155  10.872  1.0542 -3.1315  0.9101
  102OSM   H13C10252   3.248   1.235  10.834 -1.3935  2.6437 -0.5266
  102OSM    C1210253   3.236   1.256  10.587 -0.2273 -0.6854  0.4360
  102OSM   H12A10254   3.319   1.295  10.643  0.3149 -1.0965 -0.0706
  102OSM   H12B10255   3.214   1.329  10.511  2.3426  1.3703  1.5074
  102OSM    C1110256   3.297   1.134  10.521  0.3479  0.7657 -0.3388
  102OSM   H11A10257   3.360   1.176  10.439  0.9879  2.5161  0.9876
  102OSM   H11B10258   3.221   1.066  10.476  2.4794 -3.1446  1.4306
  102OSM      P10259   3.364   0.893  10.615 -0.2596 -0.1782  0.1880
  102OSM    O1310260   3.437   0.839  10.729 -0.1903 -0.0244 -0.5963
  102OSM    O1410261   3.223   0.849  10.609 -0.3907  0.4578  0.1363
  102OSM    O1110262   3.430   0.842  10.480 -0.5595  0.0996  0.7834
  102OSM    O1210263   3.372   1.052  10.613 -0.1338 -0.1488  0.7249
  102OSM    C1S10264   3.565   0.836  10.448 -1.1339 -0.8726  0.7190
  102OSM    H1S10265   3.606   0.753  10.509  1.7490  0.8836  1.3611
  102OSM    H1T10266   3.621   0.926  10.479  1.4797 -2.2905  0.3941
  102OSM     NF10267   3.743   0.775  10.277  0.4321  0.0367  0.0413
  102OSM    HNF10268   3.814   0.842  10.257  0.7130 -0.0239  0.8068
  102OSM    C2S10269   3.600   0.808  10.296 -0.7272  0.0131 -0.3261
  102OSM    H2S10270   3.532   0.727  10.261 -0.9024  0.9210 -2.1913
  102OSM    C3S10271   3.563   0.939  10.217  0.3885 -0.1065 -0.1867
  102OSM    H3S10272   3.630   1.022  10.247 -0.0819  0.0769  0.3946
  102OSM     O310273   3.435   0.990  10.262 -0.1994  0.1404 -0.0734
  102OSM    HO310274   3.415   0.926  10.330 -1.4989 -1.6519 -2.0001
  102OSM    C4S10275   3.565   0.914  10.068 -0.7959 -0.1347 -0.0036
  102OSM    H4S10276   3.504   0.830  10.032  1.0568 -2.1142  1.2845
  102OSM    C5S10277   3.651   0.973   9.983 -0.6170 -0.0104 -0.6696
  102OSM    H5S10278   3.727   1.040  10.027  0.1763 -0.3865 -1.4384
  102OSM    C6S10279   3.659   0.941   9.832  0.0407  0.2645 -0.2766
  102OSM    H6S10280   3.763   0.909   9.811 -0.8952 -1.8469 -2.0246
  102OSM    H6T10281   3.639   1.035   9.777 -1.5678  0.5152  0.6675
  102OSM    C7S10282   3.570   0.828   9.778 -0.0623 -0.7229 -0.1874
  102OSM    H7S10283   3.463   0.848   9.801  0.2025 -1.2681  1.6566
  102OSM    H7T10284   3.591   0.732   9.829  1.1165  0.3636  1.4993
  102OSM    C8S10285   3.578   0.806   9.629  1.2351 -0.4132 -0.0550
  102OSM    H8S10286   3.547   0.904   9.587 -1.7418 -1.6878 -1.0733
  102OSM    H8T10287   3.489   0.751   9.592  1.1944 -1.0902  0.9964
  102OSM    C9S10288   3.707   0.759   9.572  0.0051  0.4576  0.7353
  102OSM    H9S10289   3.736   0.666   9.625  1.3767 -0.2127 -1.0868
  102OSM    H9T10290   3.793   0.825   9.595  0.2275 -0.2154  1.9523
  102OSM   C10S10291   3.700   0.729   9.418  0.0195 -0.1246  0.1343
  102OSM   H10S10292   3.613   0.662   9.406 -0.2234  0.5880 -2.9886
  102OSM   H10T10293   3.789   0.673   9.382 -0.0005  0.0950 -0.2687
  102OSM   C11S10294   3.675   0.846   9.323  1.3503 -0.5687 -0.1454
  102OSM   H11S10295   3.766   0.908   9.311  1.4685 -0.7002  0.0663
  102OSM   H11T10296   3.596   0.910   9.368  1.1092 -0.3395 -0.8858
  102OSM   C12S10297   3.622   0.808   9.187  0.9435 -0.6119 -0.2901
  102OSM   H12S10298   3.532   0.746   9.210  1.3452 -0.7464  0.9964
  102OSM   H12T10299   3.689   0.737   9.134 -0.9994 -0.3533 -3.3608
  102OSM   C13S10300   3.584   0.922   9.099 -0.2601 -0.5978  0.4310
  102OSM   H13S10301   3.684   0.966   9.077  0.8089 -2.9884  0.1601
  102OSM   H13T10302   3.528   0.994   9.162 -2.2661  0.5216 -2.4133
  102OSM   C14S10303   3.502   0.885   8.984 -0.3637 -0.9313  0.5335
  102OSM   H14S10304   3.462   0.974   8.932  0.7554  0.5763  2.1261
  102OSM   H14T10305   3.407   0.834   9.011 -0.6031 -0.4737  0.5698
  102OSM   C15S10306   3.588   0.816   8.875  0.3580  0.2619  0.2253
  102OSM   H15S10307   3.639   0.735   8.931  0.1718  0.6920  1.0452
  102OSM   H15T10308   3.663   0.891   8.844  0.7860 -0.7111 -1.1436
  102OSM   C16S10309   3.500   0.762   8.758 -0.3240 -0.0115  0.4049
  102OSM   H16S10310   3.469   0.857   8.708  0.2893 -0.7522 -1.4963
  102OSM   H16T10311   3.409   0.705   8.785 -0.9051  0.9615  0.5684
  102OSM   C17S10312   3.575   0.668   8.662  0.2788  0.0395 -0.5391
  102OSM   H17S10313   3.605   0.573   8.712  1.5057 -0.5393 -2.2383
  102OSM   H17T10314   3.675   0.711   8.642 -0.1170  1.0971 -0.2823
  102OSM   C18S10315   3.497   0.644   8.539 -0.7409 -0.0587  1.0975
  102OSM   H18S10316   3.473   0.738   8.484 -1.1873 -0.1207  1.1811
  102OSM   H18T10317   3.400   0.592   8.551 -0.4910 -0.9030 -0.3357
  102OSM   H18U10318   3.561   0.585   8.469  2.0635  0.9165  2.6728
  102OSM    C1F10319   3.791   0.658  10.302  0.2391  0.1211  0.0938
  102OSM     OF10320   3.714   0.579  10.362  0.0062 -0.2430 -0.0774
  102OSM    C2F10321   3.934   0.620  10.276  0.7709  0.0943 -0.3391
  102OSM    H2F10322   3.978   0.599  10.376 -0.0933  0.1273  0.0552
  102OSM    H2G10323   3.980   0.716  10.244  0.3742  0.4266  0.0650
  102OSM    C3F10324   3.935   0.503  10.174 -0.4226 -0.1260 -0.0657
  102OSM    H3F10325   3.879   0.419  10.220  1.0047 -1.3807 -0.5735
  102OSM    H3G10326   4.040   0.468  10.164  0.6048  2.6861 -0.1044
  102OSM    C4F10327   3.889   0.529  10.024  0.7903 -0.1578  0.2968
  102OSM    H4F10328   3.784   0.563  10.012  0.7799 -0.3721 -0.2618
  102OSM    H4G10329   3.892   0.434   9.967  0.1399  1.0013 -1.7453
  102OSM    C5F10330   3.979   0.645   9.961  0.6526 -0.4096  0.1581
  102OSM    H5F10331   3.956   0.749   9.991  0.7426 -0.1603 -0.6181
  102OSM    H5G10332   3.970   0.648   9.850  2.1086  1.5741  0.0489
  102OSM    C6F10333   4.129   0.636   9.986  0.3737 -0.0807  0.4915
  102OSM    H6F10334   4.177   0.546   9.941 -1.0632 -0.8808  0.5149
  102OSM    H6G10335   4.143   0.638  10.096 -0.3292 -2.0767  0.6560
  102OSM    C7F10336   4.210   0.753   9.921 -0.2777 -0.2732  0.0962
  102OSM    H7F10337   4.306   0.736   9.974 -0.6773 -1.4017  0.4972
  102OSM    H7G10338   4.153   0.846   9.943 -1.4279 -0.9156 -0.0903
  102OSM    C8F10339   4.239   0.738   9.775 -0.2749  0.0154 -0.1293
  102OSM    H8F10340   4.217   0.641   9.725 -1.7190 -0.0794  0.6397
  102OSM    H8G10341   4.346   0.761   9.755 -0.1070 -0.3390  0.3749
  102OSM    C9F10342   4.160   0.840   9.697 -0.7466 -0.7408  0.0619
  102OSM    H9F10343   4.141   0.939   9.742  0.9887 -0.4920  0.3086
  102OSM   C10F10344   4.095   0.818   9.583 -0.2247 -0.4378 -0.3046
  102OSM   H10F10345   4.032   0.901   9.548  1.2225  0.9182  0.1765
  102OSM   C11F10346   4.082   0.694   9.506  0.3386  0.3603 -0.4241
  102OSM   H11F10347   3.972   0.680   9.498 -0.3721  3.3571  1.8469
  102OSM   H11G10348   4.145   0.611   9.545  1.9777  1.5740 -0.3676
  102OSM   C12F10349   4.135   0.719   9.365 -0.0883  0.3487 -0.0563
  102OSM   H12F10350   4.138   0.620   9.315  1.4604 -1.0583  2.5919
  102OSM   H12G10351   4.241   0.750   9.369  0.7373 -2.2800  1.2410
  102OSM   C13F10352   4.052   0.820   9.284 -0.5744 -0.8078  0.8013
  102OSM   H13F10353   4.024   0.910   9.343  1.1634  0.0566  0.3593
  102OSM   H13G10354   3.951   0.786   9.253 -0.7217  0.0632  0.2989
  102OSM   C14F10355   4.117   0.877   9.159 -0.3068 -0.8901 -0.3181
  102OSM   H14F10356   4.159   0.789   9.106  0.7752 -0.2112 -0.6190
  102OSM   H14G10357   4.199   0.947   9.186  0.0893 -1.2886 -0.4762
  102OSM   C15F10358   4.014   0.939   9.061  0.4670 -0.4714 -0.0369
  102OSM   H15F10359   3.958   1.018   9.116  0.6693 -0.7923  0.6368
  102OSM   H15G10360   3.940   0.862   9.029 -1.9553  1.3889  0.7691
  102OSM   C16F10361   4.086   1.025   8.952  0.3428  0.4073 -0.2796
  102OSM   H16F10362   4.185   1.060   8.988  1.1438  0.7766 -2.6431
  102OSM   H16G10363   4.026   1.115   8.927 -0.9135 -0.7690 -1.7369
  102OSM   C17F10364   4.096   0.946   8.820  0.4713 -0.2488 -0.2701
  102OSM   H17F10365   4.171   0.865   8.818 -0.7752 -1.4385 -1.2011
  102OSM   H17G10366   4.139   1.012   8.742 -0.7756  2.0813  0.8761
  102OSM   C18F10367   3.966   0.897   8.762 -0.6331  0.0922 -0.6482
  102OSM   H18F10368   3.907   0.839   8.837 -0.4235  2.2774  1.3319
  102OSM   H18G10369   3.995   0.821   8.686 -0.9174 -2.2336  1.4297
  102OSM   H18H10370   3.907   0.979   8.717  0.4388  1.4284  0.3099
  103OSM      N10371   4.393   4.799  10.850  0.5100  0.9974 -0.4270
  103OSM    C1510372   4.366   4.655  10.886 -0.2836  0.2633  0.6100
  103OSM   H15A10373   4.316   4.599  10.808  2.2319 -2.7175  0.9336
  103OSM   H15B10374   4.293   4.653  10.965  0.5544  0.0279  1.3882
  103OSM   H15C10375   4.452   4.596  10.913  0.4816  1.2076  0.3045
  103OSM    C1410376   4.473   4.860  10.962  0.0175 -0.5481 -0.8415
  103OSM   H14A10377   4.427   4.863  11.059  2.0515  2.2188  0.1668
  103OSM   H14B10378   4.502   4.963  10.945 -1.3409  0.4194  2.1636
  103OSM   H14C10379   4.570   4.813  10.969  0.3569  0.3834  1.2604
  103OSM    C1310380   4.464   4.799  10.719  0.0356  0.0157  0.7506
  103OSM   H13A10381   4.409   4.742  10.645 -1.4221  4.0888 -1.6206
  103OSM   H13B10382   4.560   4.750  10.729 -0.8060 -2.2069 -1.0496
  103OSM   H13C10383   4.473   4.900  10.682 -1.7621  0.5790  1.7858
  103OSM    C1210384   4.255   4.872  10.845  0.4680  0.5987 -0.3453
  103OSM   H12A10385   4.279   4.978  10.848  0.0536  0.7378 -1.3561
  103OSM   H12B10386   4.199   4.851  10.934 -0.8521  1.0048 -1.0579
  103OSM    C1110387   4.157   4.850  10.721  0.4083 -0.1061 -0.0218
  103OSM   H11A10388   4.222   4.884  10.637  0.2377  0.0270 -0.1011
  103OSM   H11B10389   4.065   4.911  10.726 -0.9994 -2.1384  0.2244
  103OSM      P10390   3.980   4.656  10.741 -0.1432  0.0873 -0.4243
  103OSM    O1310391   3.998   4.514  10.778  0.4583  0.7544 -0.7255
  103OSM    O1410392   3.908   4.742  10.839 -0.1684  0.6584 -0.0806
  103OSM    O1110393   3.911   4.667  10.600 -0.4536 -0.3128  0.2214
  103OSM    O1210394   4.125   4.713  10.716  0.2838  0.2750 -0.1761
  103OSM    C1S10395   3.953   4.744  10.489  0.1898 -0.3226  0.3587
  103OSM    H1S10396   4.063   4.738  10.478  0.5807  2.1375  2.0266
  103OSM    H1T10397   3.922   4.851  10.498  1.0060  0.0940 -1.4000
  103OSM     NF10398   3.967   4.705  10.244  0.0080 -0.0805  0.1094
  103OSM    HNF10399   3.930   4.783  10.194  0.3327  0.1090  0.1621
  103OSM    C2S10400   3.889   4.678  10.368  0.4483 -0.3051 -0.1966
  103OSM    H2S10401   3.902   4.568  10.381 -0.5687 -0.2403  1.6966
  103OSM    C3S10402   3.732   4.724  10.365  0.1169  0.6323  0.0587
  103OSM    H3S10403   3.738   4.835  10.368  0.4494  0.5952  0.9087
  103OSM     O310404   3.666   4.683  10.477 -0.0798 -0.0347 -0.0214
  103OSM    HO310405   3.741   4.676  10.536  1.5339  0.4325 -1.9285
  103OSM    C4S10406   3.679   4.670  10.236  0.1981 -0.3204 -0.1087
  103OSM    H4S10407   3.660   4.757  10.172 -3.3807 -1.5497 -0.9808
  103OSM    C5S10408   3.657   4.541  10.203  0.5549 -0.3614  0.3566
  103OSM    H5S10409   3.675   4.451  10.265 -0.0318 -0.8711 -0.1944
  103OSM    C6S10410   3.599   4.505  10.066  0.2333 -0.4448 -0.2352
  103OSM    H6S10411   3.489   4.489  10.062 -0.0470  1.3018 -0.3780
  103OSM    H6T10412   3.647   4.409  10.036 -0.1544 -0.8291  0.3575
  103OSM    C7S10413   3.639   4.611   9.966  0.5818 -0.1973  0.7711
  103OSM    H7S10414   3.746   4.641   9.974 -0.4080  3.3574  2.7177
  103OSM    H7T10415   3.562   4.690   9.972  0.1501 -0.4830 -0.6520
  103OSM    C8S10416   3.621   4.547   9.828 -0.3716  0.9682  0.1428
  103OSM    H8S10417   3.518   4.505   9.824  0.1462 -0.6533  2.0716
  103OSM    H8T10418   3.682   4.455   9.823 -0.9582  0.6462 -2.0894
  103OSM    C9S10419   3.638   4.626   9.694 -0.7540  0.3956 -0.6933
  103OSM    H9S10420   3.628   4.552   9.612  0.3963 -1.5507  0.8250
  103OSM    H9T10421   3.735   4.681   9.698 -0.3901 -0.3007  0.6145
  103OSM   C10S10422   3.531   4.732   9.678 -0.3732 -0.2403  0.5152
  103OSM   H10S10423   3.554   4.814   9.749  1.0844 -1.1532  1.1422
  103OSM   H10T10424   3.426   4.698   9.689 -0.1670 -0.3135  2.6320
  103OSM   C11S10425   3.517   4.792   9.538  0.3437 -0.3452 -0.3554
  103OSM   H11S10426   3.599   4.865   9.520 -0.1626  0.4143  0.3269
  103OSM   H11T10427   3.420   4.844   9.526  0.1399 -0.9252 -1.3639
  103OSM   C12S10428   3.501   4.681   9.429 -0.3843 -0.8390 -0.0863
  103OSM   H12S10429   3.430   4.608   9.472 -1.3558  0.5222  0.7031
  103OSM   H12T10430   3.595   4.623   9.419 -1.6216 -3.3632  1.8310
  103OSM   C13S10431   3.456   4.737   9.295  0.4714 -0.2614 -0.5361
  103OSM   H13S10432   3.523   4.815   9.254  1.1481 -0.3875  0.3015
  103OSM   H13T10433   3.362   4.792   9.321  0.5258 -0.1050 -0.6701
  103OSM   C14S10434   3.444   4.623   9.191  0.3598 -0.3073 -0.7680
  103OSM   H14S10435   3.365   4.655   9.119 -1.2204 -1.4132  0.3819
  103OSM   H14T10436   3.402   4.543   9.256  2.4307 -0.0291  0.9948
  103OSM   C15S10437   3.575   4.587   9.136 -0.1260 -0.2300 -0.2452
  103OSM   H15S10438   3.653   4.569   9.212 -1.2615  1.2276  1.3380
  103OSM   H15T10439   3.604   4.670   9.068  1.2777 -0.1513  0.4335
  103OSM   C16S10440   3.558   4.453   9.061  0.4389 -0.1314 -0.0897
  103OSM   H16S10441   3.525   4.375   9.133  1.9411  0.5172  1.3507
  103OSM   H16T10442   3.657   4.417   9.026  0.6052  0.4100 -0.1906
  103OSM   C17S10443   3.461   4.464   8.940 -0.2603  0.6690 -0.5428
  103OSM   H17S10444   3.356   4.471   8.977 -0.5124 -0.8446 -0.9096
  103OSM   H17T10445   3.473   4.368   8.886 -0.2247  0.5035 -0.2447
  103OSM   C18S10446   3.488   4.575   8.840 -0.3260  0.2969  0.4975
  103OSM   H18S10447   3.460   4.534   8.741 -1.0534 -1.7517  1.4982
  103OSM   H18T10448   3.591   4.614   8.850  0.5907 -1.1180 -2.4093
  103OSM   H18U10449   3.413   4.656   8.853 -2.0116 -1.1208  0.0245
  103OSM    C1F10450   4.086   4.662  10.223 -0.5204 -0.2678 -0.0844
  103OSM     OF10451   4.137   4.591  10.307  0.2440  0.8133 -0.2737
  103OSM    C2F10452   4.163   4.699  10.100 -0.1751 -0.1400  0.1854
  103OSM    H2F10453   4.146   4.806  10.076 -2.5421  0.3027  3.2622
  103OSM    H2G10454   4.132   4.640  10.011  0.3264 -0.2118  0.0520
  103OSM    C3F10455   4.317   4.677  10.117  0.4685  0.7385 -0.7080
  103OSM    H3F10456   4.338   4.590  10.183  3.8471  2.2862  0.5033
  103OSM    H3G10457   4.358   4.760  10.178 -0.7536  2.0192 -1.5582
  103OSM    C4F10458   4.395   4.672   9.990 -0.3336  0.3043 -0.9519
  103OSM    H4F10459   4.380   4.763   9.927 -1.1179  0.2227 -0.8903
  103OSM    H4G10460   4.374   4.578   9.935 -0.0063 -0.3411 -0.0053
  103OSM    C5F10461   4.545   4.661  10.018 -0.1594  0.4433 -0.1727
  103OSM    H5F10462   4.553   4.570  10.082 -1.3844  0.6642  0.3314
  103OSM    H5G10463   4.574   4.746  10.084 -1.7424 -0.0027  1.1712
  103OSM    C6F10464   4.631   4.656   9.894 -0.1549 -0.0623  0.4719
  103OSM    H6F10465   4.647   4.762   9.866 -0.7996 -0.1725 -0.3453
  103OSM    H6G10466   4.568   4.619   9.811 -1.3921  0.7540  1.0027
  103OSM    C7F10467   4.759   4.579   9.914  0.7184  1.0347 -0.0395
  103OSM    H7F10468   4.750   4.469   9.928 -1.3214  1.1194 -0.2695
  103OSM    H7G10469   4.798   4.615  10.011 -2.0361 -0.0747  1.5994
  103OSM    C8F10470   4.865   4.597   9.793  0.5836  0.0444 -0.1348
  103OSM    H8F10471   4.966   4.563   9.823  0.5465  0.5631  0.6119
  103OSM    H8G10472   4.877   4.707   9.780  1.3786 -0.0123  0.0516
  103OSM    C9F10473   4.815   4.526   9.667 -0.1186 -0.4850  0.3626
  103OSM    H9F10474   4.775   4.426   9.690 -0.6519 -0.2946  0.2946
  103OSM   C10F10475   4.801   4.575   9.543  0.4050 -0.0182  0.6522
  103OSM   H10F10476   4.768   4.505   9.465 -0.7874 -0.8109  1.8204
  103OSM   C11F10477   4.838   4.712   9.495  0.0891  0.2018 -0.0827
  103OSM   H11F10478   4.808   4.796   9.562 -1.4800  0.4848 -1.0731
  103OSM   H11G10479   4.782   4.733   9.401  0.7201  0.5881 -0.3780
  103OSM   C12F10480   4.988   4.728   9.464  0.2591 -0.0103 -0.3421
  103OSM   H12F10481   5.043   4.715   9.560  1.3189  0.6429 -0.8490
  103OSM   H12G10482   5.016   4.826   9.421  0.4572  0.4170  0.7309
  103OSM   C13F10483   5.036   4.617   9.361 -0.0101  0.5079 -0.2762
  103OSM   H13F10484   4.967   4.614   9.274  0.7007 -0.8290 -0.8155
  103OSM   H13G10485   5.027   4.518   9.411  1.1232  0.1230 -0.8021
  103OSM   C14F10486   5.181   4.632   9.304 -0.0104 -0.2258  0.7586
  103OSM   H14F10487   5.224   4.539   9.260  1.5017  0.7925 -0.0239
  103OSM   H14G10488   5.251   4.661   9.386  1.3024  1.8668 -0.9869
  103OSM   C15F10489   5.182   4.745   9.200 -0.2572  0.1154  0.6512
  103OSM   H15F10490   5.289   4.748   9.169  0.1349 -1.5564  1.7224
  103OSM   H15G10491   5.161   4.845   9.244 -0.2050  0.0983  0.7150
  103OSM   C16F10492   5.105   4.727   9.070 -0.6311 -0.2238 -0.2211
  103OSM   H16F10493   5.116   4.812   9.000 -2.4327 -1.9082 -2.7011
  103OSM   H16G10494   4.995   4.729   9.090 -0.8472  1.2687 -1.3533
  103OSM   C17F10495   5.128   4.595   8.993 -0.0847  0.2403  0.0611
  103OSM   H17F10496   5.084   4.521   9.063  0.5478  0.5676  0.8182
  103OSM   H17G10497   5.238   4.580   8.985 -0.0723 -0.3207  1.1049
  103OSM   C18F10498   5.072   4.585   8.851  0.6580  0.0588 -0.9669
  103OSM   H18F10499   4.962   4.594   8.855  0.5502 -1.0750 -1.2244
  103OSM   H18G10500   5.079   4.481   8.813  1.3946  0.3789 -1.7653
  103OSM   H18H10501   5.112   4.659   8.778  0.9882  0.2115 -0.6351
  104OSM      N10502   6.605   2.435  10.937 -0.0512  0.0619  0.5776
  104OSM    C1510503   6.567   2.410  11.077  0.3814 -0.0155 -0.5214
  104OSM   H15A10504   6.633   2.341  11.129  0.8978  0.8800  0.0283
  104OSM   H15B10505   6.476   2.352  11.077  0.6596 -0.5227  1.0898
  104OSM   H15C10506   6.548   2.496  11.139  0.5604 -1.8894  2.3397
  104OSM    C1410507   6.598   2.304  10.874 -0.0688 -0.2473  0.5037
  104OSM   H14A10508   6.665   2.242  10.931  0.8549 -0.0314 -0.3095
  104OSM   H14B10509   6.632   2.298  10.771 -1.2208 -5.3304  0.1609
  104OSM   H14C10510   6.499   2.261  10.871  0.5690 -1.9712  2.1109
  104OSM    C1310511   6.498   2.519  10.862 -0.1860  0.1156  1.0778
  104OSM   H13A10512   6.499   2.623  10.893 -1.1740  0.6422 -0.5347
  104OSM   H13B10513   6.397   2.481  10.859  0.4734 -1.6763 -1.7874
  104OSM   H13C10514   6.532   2.515  10.760 -0.7227  2.1106  0.7797
  104OSM    C1210515   6.746   2.499  10.940  0.1690 -0.3003  0.6709
  104OSM   H12A10516   6.776   2.526  10.840  0.2866 -0.3636  0.6893
  104OSM   H12B10517   6.816   2.424  10.973 -0.0856  0.0982  2.2128
  104OSM    C1110518   6.766   2.615  11.041  0.6547  0.4887  0.1275
  104OSM   H11A10519   6.874   2.637  11.043  0.2965  2.3212  0.7518
  104OSM   H11B10520   6.746   2.577  11.143  0.9344 -1.1713 -0.3988
  104OSM      P10521   6.728   2.832  10.896  0.0188  0.1739  0.0437
  104OSM    O1310522   6.607   2.910  10.853  0.4728  0.2408  0.3524
  104OSM    O1410523   6.829   2.907  10.966 -0.6143  0.1359 -0.1060
  104OSM    O1110524   6.789   2.740  10.789  0.6738  0.1899 -0.2871
  104OSM    O1210525   6.678   2.726  11.011  0.2127  0.7359 -0.7097
  104OSM    C1S10526   6.722   2.726  10.661 -0.0815  0.2119  0.1878
  104OSM    H1S10527   6.611   2.726  10.667 -0.1153  0.9613 -0.3118
  104OSM    H1T10528   6.762   2.632  10.619  0.8764  0.8393 -0.3425
  104OSM     NF10529   6.684   2.808  10.445 -0.3960 -0.3755 -0.3099
  104OSM    HNF10530   6.740   2.753  10.384  1.0999 -1.8026  2.1937
  104OSM    C2S10531   6.742   2.846  10.567 -0.2342 -0.1244 -0.0430
  104OSM    H2S10532   6.689   2.937  10.603 -1.2704 -1.1289  1.0424
  104OSM    C3S10533   6.898   2.894  10.555  0.5715  0.3082  0.1189
  104OSM    H3S10534   6.952   2.797  10.545 -1.9262 -1.2017  0.3920
  104OSM     O310535   6.950   2.936  10.680  0.5106  0.1105  0.0211
  104OSM    HO310536   6.910   2.883  10.749  0.1269 -0.0160 -0.2940
  104OSM    C4S10537   6.924   2.985  10.437 -0.3068  0.1823 -0.0415
  104OSM    H4S10538   6.998   2.942  10.368 -0.3678 -0.8413  0.5009
  104OSM    C5S10539   6.878   3.106  10.414 -0.2860  0.1241 -0.3145
  104OSM    H5S10540   6.813   3.155  10.488  0.1288 -0.0054  0.1405
  104OSM    C6S10541   6.914   3.192  10.291  0.1681 -0.9306 -0.8595
  104OSM    H6S10542   6.966   3.285  10.322  0.3641 -1.0009 -0.9703
  104OSM    H6T10543   6.820   3.215  10.238  0.2202 -1.8390 -1.3776
  104OSM    C7S10544   7.007   3.127  10.187 -0.1015 -0.1123 -0.4946
  104OSM    H7S10545   6.956   3.029  10.174  0.0351 -0.3210  0.4905
  104OSM    H7T10546   7.105   3.104  10.235 -0.8048  0.4471  1.2702
  104OSM    C8S10547   7.011   3.196  10.048  0.6257 -0.3762  0.1085
  104OSM    H8S10548   7.067   3.292  10.048  0.5003 -0.0730 -4.6169
  104OSM    H8T10549   6.906   3.225  10.027  1.2562  1.3243 -0.8858
  104OSM    C9S10550   7.060   3.113   9.930 -0.5860  0.1204  0.2914
  104OSM    H9S10551   6.997   3.029   9.895  0.6415 -1.7464  2.2588
  104OSM    H9T10552   7.159   3.070   9.958  0.2124  0.5942 -1.6329
  104OSM   C10S10553   7.094   3.195   9.801 -0.4257 -0.1178 -0.7870
  104OSM   H10S10554   7.168   3.140   9.740  1.3676  0.0258  1.1304
  104OSM   H10T10555   7.125   3.291   9.848  0.6623 -0.2624 -1.1900
  104OSM   C11S10556   6.970   3.198   9.708  0.2768 -0.4311 -0.5450
  104OSM   H11S10557   6.879   3.227   9.765  0.0229 -3.0701  0.5587
  104OSM   H11T10558   6.956   3.095   9.669  1.0692  0.2527 -2.7594
  104OSM   C12S10559   6.982   3.284   9.587  0.7017 -0.3645 -0.1281
  104OSM   H12S10560   6.897   3.259   9.519 -0.4907  1.1276  0.7685
  104OSM   H12T10561   7.069   3.255   9.524 -0.2447  1.3242 -2.3517
  104OSM   C13S10562   6.974   3.431   9.610  0.2797  0.2796  0.4049
  104OSM   H13S10563   7.056   3.484   9.664  0.2432  1.1792 -0.3818
  104OSM   H13T10564   6.882   3.435   9.672  0.0738  0.0517  0.1201
  104OSM   C14S10565   6.946   3.507   9.480 -0.1164  1.0439 -0.7990
  104OSM   H14S10566   6.846   3.479   9.441 -0.6594 -1.8371  2.1635
  104OSM   H14T10567   7.026   3.469   9.414  2.2274  0.2268  2.2642
  104OSM   C15S10568   6.959   3.663   9.480  0.0290  0.6008 -0.9935
  104OSM   H15S10569   7.061   3.687   9.515 -0.4243  0.9736  0.1308
  104OSM   H15T10570   6.887   3.708   9.552  0.2408 -1.0190  0.2799
  104OSM   C16S10571   6.947   3.722   9.340 -0.0731  0.2981  0.3097
  104OSM   H16S10572   6.841   3.715   9.309  0.7193  0.2973 -2.6272
  104OSM   H16T10573   7.000   3.650   9.274  1.2390  1.4631  0.0484
  104OSM   C17S10574   7.019   3.855   9.329  0.9388 -0.1003 -0.2794
  104OSM   H17S10575   7.127   3.846   9.352  0.9756 -0.4951 -0.5963
  104OSM   H17T10576   6.980   3.922   9.409  1.1431 -0.0328 -0.2364
  104OSM   C18S10577   6.998   3.909   9.188  0.8038 -0.8791  0.6356
  104OSM   H18S10578   7.046   4.009   9.183 -2.4029  0.8363  1.1250
  104OSM   H18T10579   6.892   3.907   9.154  0.4989 -1.7356  1.6005
  104OSM   H18U10580   7.051   3.847   9.114  0.6919  0.0463 -0.2413
  104OSM    C1F10581   6.553   2.805  10.412 -0.4326 -0.4450 -0.4020
  104OSM     OF10582   6.477   2.835  10.503  0.2451 -0.2349  0.4576
  104OSM    C2F10583   6.505   2.748  10.286  0.3723  0.0697 -0.0916
  104OSM    H2F10584   6.567   2.669  10.238 -1.0592 -1.5944  0.7400
  104OSM    H2G10585   6.512   2.832  10.213  2.1319  1.0233  1.1067
  104OSM    C3F10586   6.358   2.701  10.296 -0.1836 -0.0932 -0.0423
  104OSM    H3F10587   6.298   2.778  10.349 -0.4993 -0.1836 -0.2657
  104OSM    H3G10588   6.355   2.601  10.344 -0.8615 -0.4535 -0.8128
  104OSM    C4F10589   6.308   2.690  10.152  0.4108 -0.8194  0.0300
  104OSM    H4F10590   6.313   2.791  10.104  0.4528 -0.3262  1.0572
  104OSM    H4G10591   6.199   2.668  10.152 -0.9800  4.5663 -0.8815
  104OSM    C5F10592   6.378   2.596  10.058  0.6634 -0.1587  0.0196
  104OSM    H5F10593   6.383   2.494  10.102 -0.5052 -0.0394  0.4705
  104OSM    H5G10594   6.481   2.635  10.039  0.5040  0.7056  0.8426
  104OSM    C6F10595   6.325   2.594   9.908 -0.1847 -0.9305 -0.9299
  104OSM    H6F10596   6.338   2.693   9.859  1.5812 -0.8539 -0.3892
  104OSM    H6G10597   6.220   2.558   9.906 -0.0167 -1.4145 -2.6670
  104OSM    C7F10598   6.416   2.492   9.826  0.3595 -0.0915 -0.4120
  104OSM    H7F10599   6.387   2.397   9.876  0.4133  0.8949  1.5924
  104OSM    H7G10600   6.525   2.498   9.847  0.0239  0.3403  1.3993
  104OSM    C8F10601   6.377   2.496   9.677 -0.1163  0.0128 -0.2438
  104OSM    H8F10602   6.386   2.604   9.651 -1.0282  0.6299  1.8213
  104OSM    H8G10603   6.272   2.463   9.660  0.1950 -0.2320 -1.7937
  104OSM    C9F10604   6.470   2.399   9.604 -0.3043 -0.5181  0.2709
  104OSM    H9F10605   6.504   2.309   9.657  0.8926 -0.3053 -0.1278
  104OSM   C10F10606   6.504   2.418   9.483 -0.7284  0.2384  0.3917
  104OSM   H10F10607   6.587   2.353   9.452  0.8149  1.7966  1.1032
  104OSM   C11F10608   6.470   2.533   9.397 -0.0276 -0.1677  0.7202
  104OSM   H11F10609   6.529   2.626   9.415  0.6039 -0.5259  0.4780
  104OSM   H11G10610   6.369   2.576   9.417  1.1318  2.9953  0.3910
  104OSM   C12F10611   6.473   2.499   9.248 -0.4045 -0.1842  0.3954
  104OSM   H12F10612   6.425   2.580   9.189 -0.2506  0.5764  1.2909
  104OSM   H12G10613   6.424   2.402   9.223 -1.0657 -0.0844  1.2508
  104OSM   C13F10614   6.618   2.492   9.197  0.2199 -0.0812  0.4232
  104OSM   H13F10615   6.679   2.424   9.260 -1.6377 -0.4337  1.9244
  104OSM   H13G10616   6.653   2.597   9.208 -1.2232  0.3850  0.8169
  104OSM   C14F10617   6.641   2.453   9.052 -0.0239 -0.7730  0.3007
  104OSM   H14F10618   6.596   2.521   8.977  1.6486  1.1661  0.9627
  104OSM   H14G10619   6.575   2.364   9.048 -0.6808 -0.2486 -0.8215
  104OSM   C15F10620   6.783   2.439   9.008  0.3166 -0.2122  0.1730
  104OSM   H15F10621   6.832   2.392   9.096 -1.7003  2.8146  3.1242
  104OSM   H15G10622   6.837   2.536   9.001  0.9229 -0.4272  1.5926
  104OSM   C16F10623   6.790   2.368   8.879  0.3747  0.0217  0.0212
  104OSM   H16F10624   6.723   2.426   8.812 -0.9852  0.0896  1.3868
  104OSM   H16G10625   6.758   2.262   8.884  2.2315 -0.7860 -2.6284
  104OSM   C17F10626   6.927   2.360   8.808 -0.0071 -0.0637 -0.3416
  104OSM   H17F10627   6.983   2.456   8.798  2.0612 -1.1966 -0.1669
  104OSM   H17G10628   6.898   2.322   8.708 -2.2165 -2.2036  1.0019
  104OSM   C18F10629   7.024   2.260   8.874  0.1229  0.0712 -0.4564
  104OSM   H18F10630   6.973   2.179   8.931 -0.2892  0.6633  0.0360
  104OSM   H18G10631   7.083   2.323   8.945 -0.0896  0.1784 -0.3742
  104OSM   H18H10632   7.087   2.225   8.790 -0.4620 -0.5740 -0.6384
  105OSM      N10633   0.848   5.148  10.911  0.0565 -0.4140 -1.0284
  105OSM    C1510634   0.910   5.063  11.013 -0.2967  0.2262 -0.0323
  105OSM   H15A10635   0.913   4.960  10.980 -2.9313  0.0233  0.1610
  105OSM   H15B10636   0.843   5.070  11.098 -0.9482 -2.1800 -0.2641
  105OSM   H15C10637   1.009   5.092  11.044 -0.6792 -0.7306  2.2745
  105OSM    C1410638   0.713   5.096  10.884  0.4155 -0.4617 -0.3562
  105OSM   H14A10639   0.663   5.095  10.979  1.9681 -0.5959  0.4980
  105OSM   H14B10640   0.728   5.006  10.826 -1.9669 -0.6465 -0.7545
  105OSM   H14C10641   0.672   5.161  10.808  0.0887 -1.4882 -1.0705
  105OSM    C1310642   0.837   5.289  10.962  0.0398  0.2921 -0.2183
  105OSM   H13A10643   0.809   5.350  10.877 -1.4859 -1.1549 -0.8041
  105OSM   H13B10644   0.932   5.313  11.007  1.1497 -0.7854 -1.8745
  105OSM   H13C10645   0.757   5.288  11.035 -0.1328 -1.6431 -0.3807
  105OSM    C1210646   0.935   5.154  10.789  0.1829  0.4497  0.3544
  105OSM   H12A10647   1.033   5.195  10.810  0.4602  0.5827 -1.0676
  105OSM   H12B10648   0.879   5.213  10.718 -0.5905 -1.7852 -0.9881
  105OSM    C1110649   0.966   5.013  10.719 -0.1629 -0.4417 -0.5841
  105OSM   H11A10650   1.022   4.946  10.788  0.3084  0.7654  0.2363
  105OSM   H11B10651   1.034   5.036  10.635  1.3698  0.0469  0.7348
  105OSM      P10652   0.828   4.799  10.676 -0.0016  0.5002 -0.1642
  105OSM    O1310653   0.814   4.761  10.820  0.2239 -0.1161 -0.0617
  105OSM    O1410654   0.715   4.774  10.586 -0.0705  0.7033  0.0909
  105OSM    O1110655   0.962   4.747  10.608 -0.4063  0.2972 -0.8860
  105OSM    O1210656   0.839   4.956  10.669 -0.6935 -0.2202 -0.2445
  105OSM    C1S10657   0.980   4.750  10.466  0.2673  0.5125 -0.1308
  105OSM    H1S10658   0.934   4.843  10.426  1.9619  2.2863  1.8180
  105OSM    H1T10659   0.940   4.655  10.426  1.3435 -0.4143  0.9346
  105OSM     NF10660   1.148   4.782  10.283 -0.4384  0.0584  0.2970
  105OSM    HNF10661   1.208   4.718  10.235 -1.0806  0.2738 -0.8260
  105OSM    C2S10662   1.132   4.757  10.428 -0.2016  0.5333  0.5387
  105OSM    H2S10663   1.173   4.850  10.473  1.0824  0.3861 -0.2554
  105OSM    C3S10664   1.205   4.637  10.479  0.3199 -0.2341 -0.5018
  105OSM    H3S10665   1.151   4.549  10.439 -4.8665  1.6369  1.6018
  105OSM     O310666   1.199   4.621  10.625 -0.8354  0.4025 -0.0171
  105OSM    HO310667   1.119   4.666  10.653 -0.3608  1.0007  0.3993
  105OSM    C4S10668   1.343   4.640  10.422  0.3812 -0.2637  0.0150
  105OSM    H4S10669   1.352   4.588  10.325  0.2972 -1.4490  0.6263
  105OSM    C5S10670   1.451   4.702  10.475  0.3757  0.0150  0.3486
  105OSM    H5S10671   1.438   4.750  10.573  3.1370 -1.2010  1.4260
  105OSM    C6S10672   1.585   4.713  10.418  0.2502  0.2987 -0.0276
  105OSM    H6S10673   1.645   4.643  10.480 -2.9410 -0.7735  2.1223
  105OSM    H6T10674   1.636   4.810  10.436 -1.1168  0.9049  0.7705
  105OSM    C7S10675   1.613   4.669  10.273  0.8062  0.2022  0.7133
  105OSM    H7S10676   1.537   4.721  10.212  0.3025  0.3955  1.4912
  105OSM    H7T10677   1.588   4.562  10.259  2.4972 -0.0277 -0.9972
  105OSM    C8S10678   1.758   4.692  10.226 -0.9850 -0.0178  0.1281
  105OSM    H8S10679   1.826   4.657  10.307  0.2047 -0.8295 -1.1633
  105OSM    H8T10680   1.777   4.800  10.211  2.1620 -0.5926 -0.7791
  105OSM    C9S10681   1.800   4.613  10.104  0.0513 -0.0135 -0.0577
  105OSM    H9S10682   1.794   4.504  10.124  1.9208 -0.3076 -0.8338
  105OSM    H9T10683   1.907   4.627  10.077  0.6532 -1.9444  1.1799
  105OSM   C10S10684   1.720   4.645   9.981 -0.0943 -0.0313  0.3528
  105OSM   H10S10685   1.698   4.753   9.995  1.8092  0.0738  3.3604
  105OSM   H10T10686   1.621   4.598   9.998 -1.7681  3.0417 -0.0034
  105OSM   C11S10687   1.793   4.597   9.852  0.0352  0.1694  0.4478
  105OSM   H11S10688   1.799   4.487   9.846  0.2352  0.2367 -0.7681
  105OSM   H11T10689   1.895   4.642   9.853  0.2130 -0.1240 -1.4102
  105OSM   C12S10690   1.697   4.620   9.728  0.5546 -0.1310 -0.8625
  105OSM   H12S10691   1.681   4.728   9.707 -1.3436  0.0232  1.0119
  105OSM   H12T10692   1.598   4.575   9.750  0.1270  0.2961 -1.8511
  105OSM   C13S10693   1.738   4.551   9.594 -0.1204  0.4178  0.1595
  105OSM   H13S10694   1.753   4.441   9.603  2.4608  0.8457  3.9309
  105OSM   H13T10695   1.828   4.601   9.552  0.3677 -1.1316 -0.6990
  105OSM   C14S10696   1.635   4.568   9.488 -0.8930  0.0112  0.4286
  105OSM   H14S10697   1.631   4.679   9.479 -0.6506  0.0742  1.0417
  105OSM   H14T10698   1.535   4.526   9.514 -0.9278 -0.8298 -0.9699
  105OSM   C15S10699   1.685   4.509   9.358 -0.3788 -0.0464 -0.1571
  105OSM   H15S10700   1.716   4.404   9.374  0.7970  0.4592  1.1498
  105OSM   H15T10701   1.779   4.566   9.338  0.0232 -0.1250  1.3932
  105OSM   C16S10702   1.585   4.527   9.244 -0.7225 -0.0711 -0.0564
  105OSM   H16S10703   1.549   4.631   9.235 -1.3942 -0.4892 -3.5712
  105OSM   H16T10704   1.494   4.465   9.259  0.7579 -2.3744  0.0476
  105OSM   C17S10705   1.649   4.505   9.103 -0.1461  0.2563 -0.3990
  105OSM   H17S10706   1.748   4.557   9.100 -0.5216  1.0902  0.9345
  105OSM   H17T10707   1.593   4.557   9.022 -2.5612 -1.4546  0.0693
  105OSM   C18S10708   1.665   4.360   9.064 -0.3265  0.2528 -0.0953
  105OSM   H18S10709   1.563   4.316   9.075 -0.5953  0.1357 -2.5027
  105OSM   H18T10710   1.725   4.305   9.139 -0.9845 -1.1228 -0.5470
  105OSM   H18U10711   1.707   4.341   8.963 -2.5962 -0.4629 -0.9732
  105OSM    C1F10712   1.089   4.875  10.212 -0.3879  0.1533 -0.3011
  105OSM     OF10713   1.046   4.971  10.268 -0.6040 -0.9884  0.0081
  105OSM    C2F10714   1.085   4.840  10.068  0.0542 -0.2151 -0.2040
  105OSM    H2F10715   1.042   4.738  10.051 -2.5700  1.1305 -2.4854
  105OSM    H2G10716   1.189   4.838  10.030 -0.0506 -2.0027 -0.5112
  105OSM    C3F10717   0.988   4.926   9.979 -0.5649  0.5366 -0.8895
  105OSM    H3F10718   1.020   5.032   9.981 -2.7864  1.2490 -1.1412
  105OSM    H3G10719   0.886   4.939  10.021 -0.6739  1.0198 -1.2996
  105OSM    C4F10720   0.994   4.889   9.835  0.6258  1.1393  0.6814
  105OSM    H4F10721   0.963   4.783   9.826  1.6611  0.8430  0.4228
  105OSM    H4G10722   1.094   4.893   9.787  0.4055 -1.9652 -0.2557
  105OSM    C5F10723   0.902   4.978   9.750  0.1757 -0.0612 -0.0073
  105OSM    H5F10724   0.938   5.081   9.771 -0.3259  0.3756 -1.2081
  105OSM    H5G10725   0.796   4.973   9.782  0.2960 -2.4644  0.2759
  105OSM    C6F10726   0.917   4.970   9.597  0.3935  0.2538  0.4293
  105OSM    H6F10727   1.024   4.986   9.571  0.6864 -0.4244  1.1855
  105OSM    H6G10728   0.849   5.049   9.557 -1.9197 -1.1507  1.3376
  105OSM    C7F10729   0.869   4.834   9.544 -0.4998  0.0787  0.5349
  105OSM    H7F10730   0.770   4.802   9.583 -0.7996 -0.9472 -1.0086
  105OSM    H7G10731   0.942   4.761   9.583  1.4671  1.3191 -0.6657
  105OSM    C8F10732   0.892   4.824   9.396 -0.0086  1.1344  0.1461
  105OSM    H8F10733   0.876   4.717   9.372 -0.2229  0.8212  1.5916
  105OSM    H8G10734   1.002   4.834   9.380  0.9823 -1.2026  4.1587
  105OSM    C9F10735   0.810   4.923   9.316  0.0963 -0.0005 -0.2343
  105OSM    H9F10736   0.746   4.982   9.383  0.7611 -0.9524  1.2869
  105OSM   C10F10737   0.817   4.943   9.182  0.5237 -0.0392 -0.3344
  105OSM   H10F10738   0.736   5.005   9.142 -0.1216 -1.3563 -1.1449
  105OSM   C11F10739   0.901   4.870   9.088 -0.6666  0.3157  1.0104
  105OSM   H11F10740   0.998   4.845   9.137  0.0686 -1.6849 -1.2291
  105OSM   H11G10741   0.928   4.950   9.015 -1.0745  0.3175  0.8613
  105OSM   C12F10742   0.843   4.748   9.017 -0.2958  0.1596 -1.3540
  105OSM   H12F10743   0.816   4.672   9.093  1.0232  0.5370 -0.4816
  105OSM   H12G10744   0.922   4.702   8.953 -0.1260 -1.6356  0.0759
  105OSM   C13F10745   0.718   4.768   8.931 -0.2048 -0.7955  1.0218
  105OSM   H13F10746   0.665   4.855   8.977 -0.2918 -0.3576  0.1161
  105OSM   H13G10747   0.650   4.680   8.927  0.7142 -1.5350  1.4982
  105OSM   C14F10748   0.747   4.810   8.784 -0.1406 -0.3309  0.2265
  105OSM   H14F10749   0.811   4.900   8.788 -1.3978  0.7384 -1.8180
  105OSM   H14G10750   0.648   4.832   8.738 -0.4071  0.4553  1.1333
  105OSM   C15F10751   0.805   4.695   8.702  0.2936  0.6838  0.2233
  105OSM   H15F10752   0.894   4.659   8.757  0.9106  1.3575 -0.3312
  105OSM   H15G10753   0.828   4.740   8.603  1.1297 -0.4130 -0.1003
  105OSM   C16F10754   0.710   4.583   8.661 -0.1332 -0.6101 -0.0329
  105OSM   H16F10755   0.651   4.628   8.578  1.3375 -0.8079 -1.2148
  105OSM   H16G10756   0.643   4.563   8.747 -0.2163 -1.1371 -0.2177
  105OSM   C17F10757   0.781   4.453   8.614  0.4536 -0.3053  0.6513
  105OSM   H17F10758   0.873   4.481   8.558  0.2578 -2.6487 -0.9438
  105OSM   H17G10759   0.714   4.399   8.544  0.8933  0.4550 -0.3871
  105OSM   C18F10760   0.801   4.357   8.733  0.4900  0.0413  0.0660
  105OSM   H18F10761   0.834   4.257   8.697  0.3653 -0.2555  0.7626
  105OSM   H18G10762   0.709   4.349   8.795 -0.2572  2.1399 -0.6878
  105OSM   H18H10763   0.884   4.390   8.799  2.6274 -0.1627 -2.3848
  106OSM      N10764   0.509   0.806  10.878 -0.5303  0.3807  0.4444
  106OSM    C1510765   0.444   0.719  10.982  0.0366 -0.0335 -0.3203
  106OSM   H15A10766   0.410   0.782  11.063  2.9018  1.8124 -0.4131
  106OSM   H15B10767   0.502   0.636  11.018  1.0576  0.8390  0.0914
  106OSM   H15C10768   0.360   0.674  10.931 -0.5536  1.1107 -0.4041
  106OSM    C1410769   0.426   0.926  10.849 -0.3555 -0.5064 -0.6700
  106OSM   H14A10770   0.490   1.001  10.803 -2.8154  1.9296 -0.4112
  106OSM   H14B10771   0.394   0.972  10.941  0.7511  2.8040 -1.7919
  106OSM   H14C10772   0.341   0.903  10.786  0.0565  2.4817 -2.5152
  106OSM    C1310773   0.638   0.860  10.916  0.3534  0.2440 -0.1128
  106OSM   H13A10774   0.690   0.782  10.970  0.3899 -0.9995 -1.8615
  106OSM   H13B10775   0.629   0.932  10.996  0.7357 -2.0337  2.1270
  106OSM   H13C10776   0.700   0.891  10.834 -0.5068  0.8234 -0.5577
  106OSM    C1210777   0.522   0.725  10.751 -0.2935  0.4061  0.0794
  106OSM   H12A10778   0.601   0.655  10.772 -1.0253 -0.7214 -0.8299
  106OSM   H12B10779   0.573   0.784  10.676  1.8006 -0.7847  0.5011
  106OSM    C1110780   0.391   0.669  10.690 -0.2339  0.2179 -0.0736
  106OSM   H11A10781   0.424   0.645  10.586  3.2476 -2.7147  1.4860
  106OSM   H11B10782   0.304   0.737  10.683 -1.5321 -1.4800 -1.0429
  106OSM      P10783   0.423   0.410  10.737  0.3170 -0.1074 -0.1296
  106OSM    O1310784   0.562   0.406  10.768 -0.1275 -0.3744  0.4661
  106OSM    O1410785   0.331   0.308  10.790 -0.1045  0.1125 -0.6322
  106OSM    O1110786   0.404   0.405  10.576 -0.3994  0.6264  0.0930
  106OSM    O1210787   0.353   0.554  10.764  0.5857 -0.1862  0.5014
  106OSM    C1S10788   0.494   0.346  10.483 -0.4341 -0.4792 -0.2134
  106OSM    H1S10789   0.505   0.243  10.524  0.6814 -0.3008 -0.0298
  106OSM    H1T10790   0.595   0.391  10.487 -0.1363 -0.6986 -3.2443
  106OSM     NF10791   0.534   0.269  10.251  0.6180  0.3184 -0.3642
  106OSM    HNF10792   0.604   0.303  10.189  1.5833  0.5303  0.7852
  106OSM    C2S10793   0.442   0.351  10.343 -0.9582 -0.1179  1.1053
  106OSM    H2S10794   0.338   0.313  10.331 -1.1029  0.8074 -1.1035
  106OSM    C3S10795   0.425   0.500  10.304 -0.2347  0.5675  0.2014
  106OSM    H3S10796   0.516   0.551  10.342  0.3156 -0.3603  0.1496
  106OSM     O310797   0.307   0.557  10.366  0.3828  0.7751  0.5534
  106OSM    HO310798   0.290   0.509  10.447  0.1434  1.7241  1.0867
  106OSM    C4S10799   0.420   0.523  10.157 -0.2614 -0.1058  0.0851
  106OSM    H4S10800   0.319   0.503  10.117 -0.1954  1.2397 -0.8015
  106OSM    C5S10801   0.520   0.568  10.075 -0.1871  0.7254 -0.1747
  106OSM    H5S10802   0.620   0.590  10.114  0.3290  1.3524 -1.7756
  106OSM    C6S10803   0.518   0.575   9.925 -0.8150 -0.0054  0.1141
  106OSM    H6S10804   0.597   0.500   9.903 -2.2544 -2.1806  1.8446
  106OSM    H6T10805   0.536   0.679   9.893 -1.7089  0.8460  2.2084
  106OSM    C7S10806   0.391   0.535   9.845  0.2613  0.1980  0.0223
  106OSM    H7S10807   0.311   0.589   9.899 -0.7434 -0.8509 -0.3812
  106OSM    H7T10808   0.366   0.428   9.860  0.1521  0.2388  0.1286
  106OSM    C8S10809   0.407   0.571   9.697  0.3317 -0.2205  0.6415
  106OSM    H8S10810   0.513   0.568   9.666 -0.5915 -0.2837 -2.9041
  106OSM    H8T10811   0.353   0.662   9.665 -1.5473 -2.1844 -2.2764
  106OSM    C9S10812   0.345   0.471   9.598 -0.0432 -0.4266  0.5427
  106OSM    H9S10813   0.235   0.483   9.593  0.0770  1.3075  1.3375
  106OSM    H9T10814   0.372   0.368   9.631  1.0366 -0.0473  0.8990
  106OSM   C10S10815   0.387   0.487   9.449 -0.2303  0.0117  1.2522
  106OSM   H10S10816   0.497   0.491   9.434 -0.3448 -0.8765  0.0400
  106OSM   H10T10817   0.352   0.590   9.426 -1.2184 -0.2515  1.5048
  106OSM   C11S10818   0.312   0.395   9.356  0.8025 -0.0974  0.8040
  106OSM   H11S10819   0.204   0.392   9.380  1.4345  0.2616  4.1372
  106OSM   H11T10820   0.348   0.290   9.366 -1.3392 -0.8985  0.5728
  106OSM   C12S10821   0.324   0.437   9.208 -0.4642  0.0445 -0.0503
  106OSM   H12S10822   0.432   0.423   9.182 -0.6375 -0.0461 -0.7485
  106OSM   H12T10823   0.312   0.547   9.217  3.0256  0.3541  3.7400
  106OSM   C13S10824   0.225   0.365   9.108  0.0395 -0.0110  0.0197
  106OSM   H13S10825   0.127   0.361   9.159  0.3417  0.7403  0.6812
  106OSM   H13T10826   0.252   0.260   9.084 -2.4952 -0.8367  0.5577
  106OSM   C14S10827   0.211   0.435   8.972 -0.1819  0.8734  0.1019
  106OSM   H14S10828   0.305   0.412   8.917  1.8756  3.7684  2.0625
  106OSM   H14T10829   0.200   0.545   8.987  0.2156  0.6619  2.2184
  106OSM   C15S10830   0.086   0.399   8.894  0.1005  0.2079  0.6718
  106OSM   H15S10831  -0.014   0.422   8.937  0.4990  1.3083  1.0261
  106OSM   H15T10832   0.084   0.288   8.890  1.0717  0.2018  0.1042
  106OSM   C16S10833   0.083   0.464   8.751  0.4241  0.7086  0.1091
  106OSM   H16S10834   0.155   0.396   8.700 -1.6352  0.0697 -2.1448
  106OSM   H16T10835   0.120   0.568   8.763  1.7469  0.1201  1.4751
  106OSM   C17S10836  -0.048   0.473   8.673 -0.6988 -1.1066 -0.2125
  106OSM   H17S10837  -0.101   0.563   8.711  0.8615 -0.0284 -0.4687
  106OSM   H17T10838  -0.112   0.387   8.702 -2.5661  0.7650  1.5979
  106OSM   C18S10839  -0.048   0.471   8.522  0.3881 -0.2926 -0.3062
  106OSM   H18S10840   0.003   0.561   8.480  1.4570  0.9614  3.3627
  106OSM   H18T10841  -0.152   0.472   8.483 -0.8965  1.7601  2.8231
  106OSM   H18U10842   0.002   0.377   8.488  0.0086 -0.3726 -0.6575
  106OSM    C1F10843   0.543   0.136  10.267  0.9046 -1.0015 -0.4493
  106OSM     OF10844   0.459   0.078  10.335  0.8273  0.3826 -0.2788
  106OSM    C2F10845   0.663   0.072  10.211 -0.5209 -0.0764  0.7320
  106OSM    H2F10846   0.748   0.077  10.281 -0.5828 -2.7929  1.1363
  106OSM    H2G10847   0.699   0.123  10.119  1.0450 -1.0988  0.7448
  106OSM    C3F10848   0.657  -0.077  10.167 -0.3614 -0.1065 -0.2533
  106OSM    H3F10849   0.619  -0.137  10.252  4.1018 -0.3275  1.8942
  106OSM    H3G10850   0.762  -0.106  10.145 -0.0237  1.9003 -1.4830
  106OSM    C4F10851   0.565  -0.106  10.046  0.7122  0.4272 -0.8635
  106OSM    H4F10852   0.616  -0.061   9.958  1.4559  0.2773 -0.5169
  106OSM    H4G10853   0.467  -0.055  10.058 -0.1285 -1.3427  0.3012
  106OSM    C5F10854   0.548  -0.256  10.018  0.4864 -0.5018 -0.2071
  106OSM    H5F10855   0.529  -0.301  10.118 -0.3798  0.9452  0.3110
  106OSM    H5G10856   0.648  -0.293   9.985  2.0908  2.7336  0.5470
  106OSM    C6F10857   0.432  -0.291   9.921  0.5988  0.0817  0.2446
  106OSM    H6F10858   0.339  -0.280   9.981 -0.6720 -0.9473 -1.4454
  106OSM    H6G10859   0.439  -0.397   9.890  2.6466  0.2114  0.1285
  106OSM    C7F10860   0.423  -0.199   9.795 -0.1041  0.2516  0.0348
  106OSM    H7F10861   0.418  -0.090   9.815  1.5764  0.5358 -0.8791
  106OSM    H7G10862   0.326  -0.233   9.753  0.9055 -0.7264 -1.6367
  106OSM    C8F10863   0.537  -0.219   9.694  0.6789  0.1346  0.2696
  106OSM    H8F10864   0.636  -0.223   9.745  0.0452 -2.0591  1.4831
  106OSM    H8G10865   0.535  -0.136   9.620  1.0807  0.7675  0.9449
  106OSM    C9F10866   0.519  -0.339   9.606  0.9952 -0.4990  0.4374
  106OSM    H9F10867   0.489  -0.424   9.669  0.5772 -0.6533  0.0381
  106OSM   C10F10868   0.534  -0.352   9.472  0.1462  0.0483  0.8209
  106OSM   H10F10869   0.511  -0.444   9.417 -0.0280  0.4026  0.2969
  106OSM   C11F10870   0.573  -0.246   9.370 -0.3551 -0.6400 -0.2067
  106OSM   H11F10871   0.612  -0.150   9.410  0.4453 -0.8446 -0.4739
  106OSM   H11G10872   0.484  -0.210   9.315 -0.8215 -0.1681  0.8318
  106OSM   C12F10873   0.671  -0.293   9.260  0.0997 -0.0040  0.3603
  106OSM   H12F10874   0.768  -0.328   9.300  1.8294  1.9258 -1.8143
  106OSM   H12G10875   0.683  -0.208   9.189  0.5810  0.0974  0.5582
  106OSM   C13F10876   0.617  -0.410   9.173 -0.3519 -0.1647  0.4373
  106OSM   H13F10877   0.516  -0.379   9.140  0.2241  1.3605  0.0205
  106OSM   H13G10878   0.619  -0.500   9.238 -0.6064 -1.9835 -1.9511
  106OSM   C14F10879   0.696  -0.423   9.046  0.6375  0.4922  0.2015
  106OSM   H14F10880   0.674  -0.522   9.001  2.2026  0.4134 -0.4655
  106OSM   H14G10881   0.804  -0.430   9.072  0.0772  0.1546  2.6562
  106OSM   C15F10882   0.680  -0.319   8.934  0.5759  0.2726 -0.5210
  106OSM   H15F10883   0.701  -0.223   8.986  3.2232 -0.7067  0.3833
  106OSM   H15G10884   0.571  -0.323   8.914  0.5696  0.6000 -0.5668
  106OSM   C16F10885   0.769  -0.337   8.812  0.0805 -0.1451  0.6863
  106OSM   H16F10886   0.764  -0.445   8.787 -0.3010  0.0693 -0.1961
  106OSM   H16G10887   0.875  -0.318   8.840 -0.0057 -0.4507  1.2284
  106OSM   C17F10888   0.719  -0.255   8.694 -0.2545 -0.7761 -0.1938
  106OSM   H17F10889   0.621  -0.302   8.672 -1.3950  0.6274  1.6156
  106OSM   H17G10890   0.787  -0.267   8.607 -0.2628  3.6300 -1.0319
  106OSM   C18F10891   0.698  -0.108   8.734  0.1548  0.2309  0.4291
  106OSM   H18F10892   0.612  -0.103   8.804 -1.4832  1.2807 -1.5447
  106OSM   H18G10893   0.654  -0.044   8.655 -1.2601 -2.0287 -0.7102
  106OSM   H18H10894   0.779  -0.058   8.792 -2.7739  0.7748  4.5027
  107OSM      N10895   6.237   6.103  10.958  0.4084  0.1135  0.3112
  107OSM    C1510896   6.153   6.053  10.845  0.2725  0.8633  0.4672
  107OSM   H15A10897   6.047   6.068  10.861  0.2396 -0.5765  1.8706
  107OSM   H15B10898   6.162   5.948  10.823 -0.7032  0.4197  2.0072
  107OSM   H15C10899   6.178   6.097  10.750  1.5297  0.9521  0.8321
  107OSM    C1410900   6.243   6.252  10.980  0.1820 -0.0707 -0.8391
  107OSM   H14A10901   6.294   6.303  10.900  0.1942 -1.3802 -1.7034
  107OSM   H14B10902   6.297   6.274  11.071  0.5267 -2.2207 -0.4724
  107OSM   H14C10903   6.140   6.285  10.984 -1.1500 -3.8086 -0.4129
  107OSM    C1310904   6.186   6.051  11.083 -0.2696 -0.1868  0.7618
  107OSM   H13A10905   6.240   6.074  11.174 -1.7202 -0.2637  1.6610
  107OSM   H13B10906   6.182   5.944  11.082 -0.6083 -0.2357  3.1342
  107OSM   H13C10907   6.092   6.089  11.119 -0.9542 -1.2628  0.1555
  107OSM    C1210908   6.380   6.056  10.937  0.4246 -0.1275 -0.0201
  107OSM   H12A10909   6.373   5.949  10.943 -0.7645  0.0138  3.2345
  107OSM   H12B10910   6.441   6.096  11.018  1.1448 -0.4234 -0.4082
  107OSM    C1110911   6.436   6.104  10.810 -0.5527 -0.2461 -0.9455
  107OSM   H11A10912   6.363   6.110  10.727 -1.2423 -1.2386 -0.4391
  107OSM   H11B10913   6.512   6.027  10.785  2.0337  2.4786 -2.0662
  107OSM      P10914   6.642   6.241  10.897 -0.0456  0.0023 -0.1396
  107OSM    O1310915   6.692   6.379  10.895  0.5052 -0.9927 -0.2404
  107OSM    O1410916   6.656   6.156  11.022  0.2731  0.0577  0.1226
  107OSM    O1110917   6.733   6.176  10.790 -0.2663 -0.2583  0.1360
  107OSM    O1210918   6.497   6.229  10.836 -0.1602 -0.3637 -0.0754
  107OSM    C1S10919   6.729   6.216  10.651 -0.6880 -0.1432 -0.1254
  107OSM    H1S10920   6.764   6.321  10.635  2.1123 -0.9301  0.2589
  107OSM    H1T10921   6.625   6.207  10.612 -0.6336 -0.9375 -0.1055
  107OSM     NF10922   6.816   6.206  10.426 -0.8767  0.2054  0.1753
  107OSM    HNF10923   6.734   6.166  10.386 -1.8235  0.2569  1.9593
  107OSM    C2S10924   6.824   6.138  10.554 -0.0331  0.0355  0.0643
  107OSM    H2S10925   6.929   6.150  10.587  0.3057  0.2092 -1.0123
  107OSM    C3S10926   6.789   5.989  10.548  0.1348  0.1208 -0.0098
  107OSM    H3S10927   6.681   5.965  10.531  0.3355 -0.1268 -0.9649
  107OSM     O310928   6.824   5.936  10.673  0.0315 -0.2589 -0.2062
  107OSM    HO310929   6.830   6.010  10.735  0.5847 -0.2446 -0.2638
  107OSM    C4S10930   6.864   5.913  10.441 -0.0891  0.1423 -0.2055
  107OSM    H4S10931   6.973   5.913  10.431 -0.1628 -0.0748 -1.1608
  107OSM    C5S10932   6.801   5.824  10.366 -0.2729 -0.4642 -0.4265
  107OSM    H5S10933   6.696   5.801  10.390 -0.2471 -0.6270 -0.4678
  107OSM    C6S10934   6.860   5.748  10.250 -0.4206 -0.4235  0.7782
  107OSM    H6S10935   6.796   5.760  10.160  0.8897  0.5526 -0.0465
  107OSM    H6T10936   6.875   5.643  10.282 -0.2725 -0.5419  0.3237
  107OSM    C7S10937   6.996   5.789  10.202 -0.5240  0.0636 -0.0337
  107OSM    H7S10938   7.070   5.770  10.282 -1.4852 -3.1942  0.2057
  107OSM    H7T10939   6.990   5.897  10.176  1.3775 -0.2290 -2.0150
  107OSM    C8S10940   7.056   5.717  10.082 -0.5059 -0.6008  0.3947
  107OSM    H8S10941   7.046   5.606  10.087 -0.7019 -0.5984  0.0663
  107OSM    H8T10942   7.164   5.744  10.077 -0.6899 -0.0830 -1.1157
  107OSM    C9S10943   7.010   5.773   9.942 -0.5944  0.6653  0.4887
  107OSM    H9S10944   7.042   5.877   9.924  0.3864  0.4731  1.0576
  107OSM    H9T10945   6.899   5.767   9.945 -0.5716 -0.3044 -0.0958
  107OSM   C10S10946   7.063   5.690   9.824  0.6670  0.7965  0.6143
  107OSM   H10S10947   7.022   5.588   9.842 -0.4693  1.6100  3.1744
  107OSM   H10T10948   7.174   5.680   9.827  0.9886  2.9472 -1.4222
  107OSM   C11S10949   7.010   5.735   9.688 -1.3451 -0.8043  0.0629
  107OSM   H11S10950   7.035   5.842   9.670  1.0862 -0.9013  2.2634
  107OSM   H11T10951   6.899   5.730   9.697 -1.4168 -2.0494 -1.1414
  107OSM   C12S10952   7.065   5.655   9.571  0.0320 -0.5852  0.2155
  107OSM   H12S10953   7.054   5.546   9.590 -1.7045 -0.5179 -0.2609
  107OSM   H12T10954   7.175   5.667   9.561 -0.0978  0.1279 -0.4128
  107OSM   C13S10955   6.998   5.711   9.444  0.4566 -0.0638 -0.3809
  107OSM   H13S10956   7.017   5.821   9.445  1.8304 -0.2675 -0.8011
  107OSM   H13T10957   6.888   5.704   9.446  0.2817  2.0929 -0.1573
  107OSM   C14S10958   7.048   5.658   9.311  0.1118  0.1171 -0.4465
  107OSM   H14S10959   7.014   5.554   9.295  1.1198 -0.3807  0.5026
  107OSM   H14T10960   7.159   5.659   9.310  0.2703 -2.0936  2.1856
  107OSM   C15S10961   7.018   5.752   9.193  0.4418  0.3750 -1.0654
  107OSM   H15S10962   7.098   5.827   9.176  1.1664  0.1514  1.1470
  107OSM   H15T10963   6.922   5.807   9.208  0.9027  0.9675 -0.2198
  107OSM   C16S10964   7.015   5.687   9.051  0.0928  0.7443 -0.2606
  107OSM   H16S10965   7.102   5.622   9.033 -1.2340 -0.6294 -2.1425
  107OSM   H16T10966   7.016   5.759   8.966 -2.1616 -0.4409 -1.3875
  107OSM   C17S10967   6.891   5.592   9.032  0.1539  0.9009 -0.4855
  107OSM   H17S10968   6.794   5.641   9.053 -2.1338 -2.4807 -2.3451
  107OSM   H17T10969   6.908   5.512   9.107 -0.2402  0.0642 -1.2683
  107OSM   C18S10970   6.884   5.525   8.891 -0.1982  0.0330 -0.6933
  107OSM   H18S10971   6.904   5.603   8.815  0.3319  0.3335 -0.2548
  107OSM   H18T10972   6.781   5.487   8.875 -0.4760  0.9840 -1.1716
  107OSM   H18U10973   6.954   5.439   8.881  0.7998  0.9061 -1.5245
  107OSM    C1F10974   6.880   6.320  10.383  0.4273 -0.0309 -0.6688
  107OSM     OF10975   6.951   6.377  10.464 -0.0048  0.1796 -0.1859
  107OSM    C2F10976   6.865   6.367  10.246 -0.1359 -0.9177 -0.1091
  107OSM    H2F10977   6.888   6.475  10.244  0.4802 -1.0505 -0.5854
  107OSM    H2G10978   6.757   6.344  10.231 -0.5792 -0.1203  1.5683
  107OSM    C3F10979   6.958   6.299  10.142 -0.7430  0.3083  0.2174
  107OSM    H3F10980   6.944   6.190  10.153  0.7261 -0.1321 -1.8668
  107OSM    H3G10981   7.063   6.325  10.166 -1.0123  1.5489  0.1599
  107OSM    C4F10982   6.923   6.335   9.993 -0.4370  0.5151 -1.0361
  107OSM    H4F10983   6.951   6.443   9.989  0.4891  0.2411 -3.2901
  107OSM    H4G10984   6.814   6.314   9.990 -0.9014  1.2599  3.4362
  107OSM    C5F10985   7.003   6.256   9.886  0.3564  0.5695  0.6926
  107OSM    H5F10986   6.971   6.150   9.895  0.4744  0.3293 -1.2329
  107OSM    H5G10987   7.112   6.270   9.905  0.9994 -2.3136 -0.3390
  107OSM    C6F10988   6.971   6.295   9.738  0.8310 -0.1441  0.4985
  107OSM    H6F10989   6.988   6.404   9.728  0.2142 -0.0637  0.2238
  107OSM    H6G10990   6.861   6.282   9.725  0.9492  1.1285 -2.6666
  107OSM    C7F10991   7.055   6.214   9.639 -0.4825 -0.4331  0.0265
  107OSM    H7F10992   7.078   6.110   9.670  2.1362  0.5014  1.4949
  107OSM    H7G10993   7.155   6.261   9.646 -0.6517 -0.2412  1.4933
  107OSM    C8F10994   7.003   6.220   9.493 -0.0078 -0.3875  0.3597
  107OSM    H8F10995   7.025   6.321   9.454 -0.5890 -0.8599 -1.2695
  107OSM    H8G10996   6.892   6.211   9.495 -0.0794 -0.0710  3.5630
  107OSM    C9F10997   7.062   6.110   9.407 -0.1847  0.1262 -0.2200
  107OSM    H9F10998   7.071   6.017   9.464 -1.9975 -0.3320 -0.6050
  107OSM   C10F10999   7.105   6.122   9.282 -0.2992 -0.5111  0.0861
  107OSM   H10F11000   7.151   6.029   9.244  2.5920  1.1073 -0.6892
  107OSM   C11F11001   7.093   6.234   9.191  0.0497 -0.5483  0.7104
  107OSM   H11F11002   7.197   6.275   9.188  0.8709 -2.6023 -1.3680
  107OSM   H11G11003   7.014   6.305   9.224 -1.1544 -0.5662 -1.8986
  107OSM   C12F11004   7.056   6.205   9.045  0.6743  0.3417 -0.1040
  107OSM   H12F11005   7.125   6.132   8.998 -1.2994 -1.2106 -0.7235
  107OSM   H12G11006   7.047   6.294   8.979  0.5540  0.8037  0.5219
  107OSM   C13F11007   6.917   6.124   9.034  0.5900  0.1257 -0.3955
  107OSM   H13F11008   6.838   6.184   9.084 -1.8532 -1.2243 -2.4171
  107OSM   H13G11009   6.926   6.028   9.089 -0.3503 -0.4559 -1.2310
  107OSM   C14F11010   6.878   6.091   8.884 -0.3905 -1.0038  0.8820
  107OSM   H14F11011   6.952   6.016   8.851  1.3078  1.3760 -1.1124
  107OSM   H14G11012   6.882   6.185   8.824 -1.1614 -1.6753 -0.2472
  107OSM   C15F11013   6.740   6.020   8.867 -0.1413  0.8333 -0.5171
  107OSM   H15F11014   6.671   6.084   8.924  1.7648  0.3322  2.5809
  107OSM   H15G11015   6.755   5.927   8.926 -1.7126  1.2824  0.6468
  107OSM   C16F11016   6.708   5.987   8.726  0.5095 -0.0780 -0.1697
  107OSM   H16F11017   6.730   6.083   8.674 -0.0697  0.8563  1.2527
  107OSM   H16G11018   6.599   5.969   8.713  0.4785 -0.2915  0.3441
  107OSM   C17F11019   6.788   5.866   8.662 -0.2395  0.2529  0.7738
  107OSM   H17F11020   6.754   5.778   8.720  0.3033  1.4455  3.0081
  107OSM   H17G11021   6.896   5.878   8.682 -0.1942 -1.2244  1.5565
  107OSM   C18F11022   6.773   5.849   8.512  0.1391  0.0767 -0.0192
  107OSM   H18F11023   6.667   5.828   8.487  0.0223 -0.4356  0.8631
  107OSM   H18G11024   6.839   5.765   8.480 -0.0503 -0.1078  0.0670
  107OSM   H18H11025   6.796   5.943   8.457 -1.2293 -0.0186 -0.7895
  108OSM      N11026   0.643   5.825  10.592 -0.2172 -0.3025  0.5625
  108OSM    C1511027   0.716   5.951  10.646 -0.3442 -0.0540  0.3659
  108OSM   H15A11028   0.783   5.997  10.575  0.9070  0.2044  1.6634
  108OSM   H15B11029   0.772   5.928  10.735  0.3077 -0.3534 -0.1136
  108OSM   H15C11030   0.643   6.026  10.674  0.1720  1.8319 -2.9209
  108OSM    C1411031   0.555   5.768  10.696 -0.0373  0.1544  0.4579
  108OSM   H14A11032   0.480   5.837  10.731  0.4038  0.3910  0.9612
  108OSM   H14B11033   0.617   5.731  10.776  0.9948  1.4381  0.2991
  108OSM   H14C11034   0.519   5.675  10.654  0.5267  0.7534 -1.4956
  108OSM    C1311035   0.560   5.868  10.473 -0.2514  0.1231 -0.3823
  108OSM   H13A11036   0.487   5.942  10.503 -0.9413 -0.0144 -1.6159
  108OSM   H13B11037   0.505   5.787  10.427 -0.1190  0.4377 -1.1174
  108OSM   H13C11038   0.613   5.925  10.399 -2.4843  2.6986 -0.1602
  108OSM    C1211039   0.742   5.727  10.536 -0.4232  0.1054  0.3541
  108OSM   H12A11040   0.804   5.688  10.616  0.0753 -2.3589 -1.1111
  108OSM   H12B11041   0.818   5.780  10.481 -0.0478 -0.6531  0.1185
  108OSM    C1111042   0.688   5.600  10.464 -0.5756  0.0634  0.4309
  108OSM   H11A11043   0.782   5.552  10.429  0.7843  2.8441 -0.0612
  108OSM   H11B11044   0.636   5.636  10.373  1.1951 -0.0339 -0.6722
  108OSM      P11045   0.679   5.439  10.659 -0.1455  0.1114 -0.6019
  108OSM    O1311046   0.747   5.530  10.749 -0.0995 -0.7262  0.7409
  108OSM    O1411047   0.585   5.345  10.721 -0.3589  0.3808  0.0589
  108OSM    O1111048   0.784   5.357  10.582 -0.4300 -0.3667 -0.0669
  108OSM    O1211049   0.602   5.520  10.546  0.4706 -0.2121  0.3873
  108OSM    C1S11050   0.765   5.241  10.505 -0.0193  0.1078  0.2713
  108OSM    H1S11051   0.656   5.227  10.494 -0.0893 -1.4585  2.2082
  108OSM    H1T11052   0.807   5.154  10.561 -0.1423  0.1876  0.4900
  108OSM     NF11053   0.814   5.125  10.301 -0.0049 -0.4892 -0.3191
  108OSM    HNF11054   0.900   5.084  10.271  0.8393  2.2674 -2.0128
  108OSM    C2S11055   0.833   5.250  10.366  0.5837  0.2431 -0.2651
  108OSM    H2S11056   0.781   5.328  10.306  0.7692  0.3364 -0.3044
  108OSM    C3S11057   0.979   5.304  10.380  0.1967  1.1943  0.5861
  108OSM    H3S11058   1.029   5.229  10.444  0.2207  1.1236  0.4843
  108OSM     O311059   0.994   5.429  10.449  0.1778  0.1093 -0.2141
  108OSM    HO311060   0.919   5.423  10.508 -1.3063 -0.3307 -2.0589
  108OSM    C4S11061   1.048   5.298  10.239  0.7445  0.1706  0.5306
  108OSM    H4S11062   1.078   5.196  10.209 -0.8393 -0.8072  2.0321
  108OSM    C5S11063   1.053   5.400  10.149 -0.3072 -1.4788  0.3125
  108OSM    H5S11064   1.016   5.500  10.176 -0.3466 -1.6985  1.1207
  108OSM    C6S11065   1.118   5.384  10.011 -0.1190 -0.5328 -0.0250
  108OSM    H6S11066   1.165   5.283  10.004  0.8291 -0.0827 -0.4542
  108OSM    H6T11067   1.204   5.454  10.000 -0.8421  0.8068  2.0498
  108OSM    C7S11068   1.019   5.392   9.898  0.2275 -0.6211  0.3604
  108OSM    H7S11069   0.978   5.495   9.899  3.7679  0.9174  0.5025
  108OSM    H7T11070   0.935   5.320   9.907  2.4285 -3.4008  0.1666
  108OSM    C8S11071   1.083   5.352   9.766  0.1732  0.9299  0.3254
  108OSM    H8S11072   1.110   5.244   9.770 -0.3889  0.6753 -1.5988
  108OSM    H8T11073   1.180   5.404   9.747  1.1526 -1.0102 -0.2134
  108OSM    C9S11074   0.993   5.371   9.641  0.6247 -0.0254 -0.0229
  108OSM    H9S11075   0.967   5.479   9.643  0.1966 -0.1252  1.0226
  108OSM    H9T11076   0.901   5.315   9.669 -0.4210  2.1432  1.1471
  108OSM   C10S11077   1.060   5.327   9.517 -0.7963 -0.5120  0.6030
  108OSM   H10S11078   1.063   5.216   9.515  1.6223 -0.4970 -1.6632
  108OSM   H10T11079   1.163   5.366   9.505 -1.4583  1.4061  0.7506
  108OSM   C11S11080   0.994   5.388   9.395 -0.7690 -0.1021  0.5960
  108OSM   H11S11081   0.992   5.499   9.403  0.7349 -0.1296  1.7753
  108OSM   H11T11082   0.891   5.346   9.390 -1.1425  0.6203  1.8095
  108OSM   C12S11083   1.076   5.359   9.270  0.5428  0.2397  0.8068
  108OSM   H12S11084   1.112   5.254   9.272 -4.4914 -1.8078 -1.0504
  108OSM   H12T11085   1.155   5.432   9.239  0.8714 -0.6899 -0.6506
  108OSM   C13S11086   0.984   5.367   9.141  0.5354 -1.4317 -0.5505
  108OSM   H13S11087   0.971   5.472   9.108  0.1697 -1.1955  0.3144
  108OSM   H13T11088   0.884   5.325   9.163  0.3681 -1.4432 -1.3118
  108OSM   C14S11089   1.042   5.300   9.010 -0.2005  0.7243  0.5830
  108OSM   H14S11090   1.087   5.199   9.028 -0.9698  0.4587  1.0532
  108OSM   H14T11091   1.111   5.380   8.975  0.4471 -0.5969 -1.3822
  108OSM   C15S11092   0.936   5.291   8.903 -0.0691 -0.1880  0.3569
  108OSM   H15S11093   0.883   5.389   8.903  2.4114  1.2605  2.2771
  108OSM   H15T11094   0.870   5.208   8.937 -1.4684  1.3202  1.5425
  108OSM   C16S11095   1.000   5.267   8.769  0.1037  0.8990  0.2354
  108OSM   H16S11096   1.078   5.189   8.782  0.7322  0.5852 -4.1333
  108OSM   H16T11097   1.043   5.361   8.729 -0.8916  0.2654 -2.5000
  108OSM   C17S11098   0.900   5.224   8.663  0.3708 -0.2619  0.2219
  108OSM   H17S11099   0.834   5.313   8.658  1.5133  0.5913 -0.1216
  108OSM   H17T11100   0.826   5.153   8.705 -1.3527  1.7418  0.7580
  108OSM   C18S11101   0.958   5.165   8.540 -0.2031  0.7365  0.9641
  108OSM   H18S11102   1.065   5.145   8.564  0.3243  1.6777 -0.4710
  108OSM   H18T11103   0.952   5.230   8.450  2.2062 -1.0477 -0.6282
  108OSM   H18U11104   0.920   5.066   8.506 -0.1180  1.3264 -0.9792
  108OSM    C1F11105   0.692   5.091  10.266  0.5202  0.4918 -0.8814
  108OSM     OF11106   0.596   5.172  10.266  0.0706 -0.4984 -0.5061
  108OSM    C2F11107   0.671   4.948  10.220  0.8417 -0.5096  0.2770
  108OSM    H2F11108   0.648   4.886  10.310  1.4698 -0.7740  0.2563
  108OSM    H2G11109   0.759   4.901  10.171 -0.3139 -0.2388 -2.2482
  108OSM    C3F11110   0.553   4.934  10.117  0.0908 -0.7416  0.3496
  108OSM    H3F11111   0.584   4.962  10.014 -1.0540 -1.6801 -0.2733
  108OSM    H3G11112   0.470   5.001  10.147 -0.1817 -2.2693  3.2846
  108OSM    C4F11113   0.479   4.802  10.114 -0.5583  0.7251 -0.3158
  108OSM    H4F11114   0.446   4.783  10.218  0.6352  0.4078  0.0175
  108OSM    H4G11115   0.552   4.729  10.073  0.5542  3.4058 -3.6727
  108OSM    C5F11116   0.358   4.809  10.016  0.3355 -0.0868 -0.0221
  108OSM    H5F11117   0.298   4.887  10.068 -0.4523 -1.2416  0.8578
  108OSM    H5G11118   0.300   4.714  10.023 -0.0687  0.2083  0.8246
  108OSM    C6F11119   0.394   4.837   9.865  0.2358  0.0674 -1.1052
  108OSM    H6F11120   0.475   4.761   9.861  1.3644  1.1320  0.3611
  108OSM    H6G11121   0.439   4.936   9.846 -1.2518  1.0750  0.3074
  108OSM    C7F11122   0.268   4.813   9.773 -0.4567 -0.3802  0.9334
  108OSM    H7F11123   0.183   4.878   9.802 -0.0634  0.2857  0.6154
  108OSM    H7G11124   0.244   4.705   9.785 -0.9882  0.0077  4.0891
  108OSM    C8F11125   0.310   4.834   9.623 -0.1168  0.4661 -0.1519
  108OSM    H8F11126   0.338   4.941   9.614  2.8394 -0.0826  1.4470
  108OSM    H8G11127   0.224   4.810   9.556  0.1755 -1.1201 -0.0137
  108OSM    C9F11128   0.422   4.748   9.572 -0.7890  0.2803  0.6895
  108OSM    H9F11129   0.469   4.679   9.644  1.3673 -1.5901 -2.3116
  108OSM   C10F11130   0.463   4.728   9.446  0.5273  0.5320  0.4872
  108OSM   H10F11131   0.551   4.669   9.416  0.0628 -0.6400  1.3932
  108OSM   C11F11132   0.397   4.795   9.330 -0.0408 -0.2992 -0.1488
  108OSM   H11F11133   0.470   4.855   9.272 -0.0186 -0.0096  0.1760
  108OSM   H11G11134   0.318   4.861   9.371 -0.1466 -0.1386 -0.6090
  108OSM   C12F11135   0.338   4.706   9.221  0.2096 -0.2005 -1.0232
  108OSM   H12F11136   0.239   4.667   9.256  2.0298 -2.8405  1.6859
  108OSM   H12G11137   0.408   4.623   9.196 -0.0195 -1.0478  0.9735
  108OSM   C13F11138   0.335   4.773   9.079  0.0633  0.5410  0.4178
  108OSM   H13F11139   0.439   4.796   9.048  0.3005 -0.5444  0.3717
  108OSM   H13G11140   0.292   4.871   9.108  2.7013  1.8804  0.1169
  108OSM   C14F11141   0.257   4.699   8.972  0.4695  0.9177 -0.1016
  108OSM   H14F11142   0.150   4.703   8.999  0.3619 -0.6144 -0.2335
  108OSM   H14G11143   0.288   4.592   8.977  0.6341  0.9251 -0.9432
  108OSM   C15F11144   0.285   4.746   8.825  0.3042  0.1683 -0.2846
  108OSM   H15F11145   0.392   4.745   8.794  0.4336 -0.7538  0.1715
  108OSM   H15G11146   0.262   4.855   8.816  0.7293  0.3979  1.1988
  108OSM   C16F11147   0.188   4.671   8.728  0.6137  0.2268 -0.1126
  108OSM   H16F11148   0.084   4.691   8.762  0.1573 -0.5162 -1.0367
  108OSM   H16G11149   0.193   4.561   8.740 -0.3168  0.2460  0.6034
  108OSM   C17F11150   0.199   4.725   8.583  0.6577 -0.0377 -0.3327
  108OSM   H17F11151   0.235   4.829   8.598 -0.3947  0.1781  0.8984
  108OSM   H17G11152   0.097   4.715   8.538 -0.0659 -3.1660  1.6973
  108OSM   C18F11153   0.284   4.633   8.503  0.3283  0.2184 -0.0359
  108OSM   H18F11154   0.290   4.657   8.395 -2.6150 -0.2556 -0.4004
  108OSM   H18G11155   0.252   4.527   8.511  0.4500  0.1847 -0.0034
  108OSM   H18H11156   0.388   4.630   8.542  0.4434  3.5907  0.2254
  109OSM      N11157   2.396   1.428  11.150 -0.2568  0.0441  0.0687
  109OSM    C1511158   2.264   1.471  11.202  0.1972  0.1955 -0.4380
  109OSM   H15A11159   2.186   1.417  11.151  0.4013 -0.1173 -0.4236
  109OSM   H15B11160   2.262   1.577  11.183  0.4294  0.0505 -1.3370
  109OSM   H15C11161   2.254   1.462  11.309  1.0965 -0.3732 -0.3873
  109OSM    C1411162   2.501   1.484  11.239  0.0134 -0.5451 -0.6847
  109OSM   H14A11163   2.593   1.478  11.183  0.5034 -0.5381  0.1211
  109OSM   H14B11164   2.514   1.437  11.335  0.6245  0.9487 -0.0213
  109OSM   H14C11165   2.491   1.590  11.256 -1.7010 -0.5676 -1.3144
  109OSM    C1311166   2.402   1.278  11.152 -0.1215 -0.2482  0.3931
  109OSM   H13A11167   2.320   1.237  11.096 -2.1316  2.2177  1.3337
  109OSM   H13B11168   2.390   1.239  11.252 -1.2170  2.4317  1.4210
  109OSM   H13C11169   2.491   1.237  11.106 -1.1641 -1.1278 -0.8942
  109OSM    C1211170   2.416   1.467  11.006  0.9139 -0.4181 -0.3107
  109OSM   H12A11171   2.365   1.396  10.944 -1.8878  1.7595 -0.6912
  109OSM   H12B11172   2.522   1.464  10.982  0.8213  0.2906 -0.8351
  109OSM    C1111173   2.361   1.608  10.963  0.4101 -0.6498 -0.0765
  109OSM   H11A11174   2.251   1.608  10.974  0.5322 -1.1662  1.3402
  109OSM   H11B11175   2.380   1.622  10.855 -1.5115 -1.3793 -0.5430
  109OSM      P11176   2.353   1.846  11.104 -0.3399 -0.0558 -0.0267
  109OSM    O1311177   2.251   1.800  11.196 -0.3722  0.0144 -0.3124
  109OSM    O1411178   2.456   1.935  11.160 -0.1807 -0.1419 -0.1353
  109OSM    O1111179   2.281   1.920  10.991  0.5752  0.5195  0.2503
  109OSM    O1211180   2.421   1.724  11.028  0.1440 -0.0886  0.8487
  109OSM    C1S11181   2.328   1.964  10.861  0.1835 -0.4142 -0.8231
  109OSM    H1S11182   2.423   1.914  10.832  1.1932  1.4978 -0.9828
  109OSM    H1T11183   2.342   2.074  10.865 -1.8111 -0.1387  0.0675
  109OSM     NF11184   2.254   2.048  10.652 -0.9581 -0.1189 -0.7935
  109OSM    HNF11185   2.199   2.130  10.644 -0.5270  0.2174 -0.3855
  109OSM    C2S11186   2.225   1.945  10.741 -0.0465  0.1806 -0.7468
  109OSM    H2S11187   2.242   1.847  10.692 -0.0931 -0.2762  0.1198
  109OSM    C3S11188   2.074   1.932  10.787 -0.1332 -0.0693  0.2897
  109OSM    H3S11189   2.053   2.030  10.835 -0.8646  0.7661 -1.6243
  109OSM     O311190   2.049   1.840  10.895  0.1550 -0.0198 -0.0104
  109OSM    HO311191   2.134   1.853  10.938  0.5860  0.3496 -0.9345
  109OSM    C4S11192   1.983   1.908  10.676 -0.2691 -0.4996 -0.0623
  109OSM    H4S11193   1.925   1.998  10.650 -1.8590 -1.0351  1.4252
  109OSM    C5S11194   1.976   1.794  10.601  0.5642  0.7219 -0.1336
  109OSM    H5S11195   2.045   1.710  10.621 -1.7197 -1.1708  0.1740
  109OSM    C6S11196   1.877   1.759  10.491  0.0341  0.7295 -0.0040
  109OSM    H6S11197   1.807   1.687  10.537  0.3972  0.4372  0.0936
  109OSM    H6T11198   1.916   1.693  10.410 -0.1442  1.2922 -0.5568
  109OSM    C7S11199   1.807   1.878  10.422  1.2132 -0.1242  0.1676
  109OSM    H7S11200   1.883   1.957  10.402 -0.6497  1.9271  0.8789
  109OSM    H7T11201   1.737   1.927  10.493 -0.4202 -2.3400  0.1778
  109OSM    C8S11202   1.728   1.847  10.297  0.3205  0.3746  0.4380
  109OSM    H8S11203   1.664   1.759  10.315 -1.6189  1.9639  1.7394
  109OSM    H8T11204   1.798   1.835  10.212 -0.7346  1.2212 -0.5838
  109OSM    C9S11205   1.632   1.960  10.259  0.1973 -0.1379  0.1133
  109OSM    H9S11206   1.683   2.056  10.238 -2.4688  2.4495  4.0438
  109OSM    H9T11207   1.568   1.982  10.347 -1.2723 -0.6485 -0.7913
  109OSM   C10S11208   1.531   1.913  10.158  0.0667 -0.7955  0.5066
  109OSM   H10S11209   1.452   1.990  10.141 -0.3531 -1.6582 -1.7521
  109OSM   H10T11210   1.492   1.816  10.195  1.4605 -1.5721  0.0452
  109OSM   C11S11211   1.595   1.889  10.017  0.2153  0.1009  0.2460
  109OSM   H11S11212   1.679   1.817  10.030  1.7400  1.2640 -2.3699
  109OSM   H11T11213   1.644   1.978   9.971 -0.4512 -1.0398 -2.9822
  109OSM   C12S11214   1.488   1.842   9.918 -0.6096 -0.6420  0.4075
  109OSM   H12S11215   1.422   1.929   9.902  2.0484  0.9286 -3.8422
  109OSM   H12T11216   1.421   1.767   9.964 -2.0062 -0.5294 -1.3328
  109OSM   C13S11217   1.519   1.790   9.775 -0.5085  0.7903 -0.2015
  109OSM   H13S11218   1.426   1.783   9.714  0.8326  0.7203 -2.3261
  109OSM   H13T11219   1.564   1.689   9.778  0.3191  1.1847  1.3413
  109OSM   C14S11220   1.614   1.885   9.702  0.5991  0.9817 -0.0059
  109OSM   H14S11221   1.692   1.932   9.766  0.6075  1.6708 -0.5159
  109OSM   H14T11222   1.553   1.972   9.669 -0.4583  0.4581  0.4992
  109OSM   C15S11223   1.684   1.836   9.566  0.2588 -0.6752 -0.2487
  109OSM   H15S11224   1.735   1.738   9.572  1.1133 -0.1721  1.2197
  109OSM   H15T11225   1.762   1.913   9.546  0.1975 -0.3298  0.7673
  109OSM   C16S11226   1.586   1.822   9.447  0.8775  0.0462 -0.3631
  109OSM   H16S11227   1.546   1.924   9.428 -0.4323 -0.7015 -1.8057
  109OSM   H16T11228   1.502   1.764   9.491  2.1058 -0.8808  0.8542
  109OSM   C17S11229   1.640   1.750   9.321 -0.0563 -0.3451 -0.2260
  109OSM   H17S11230   1.551   1.738   9.256  0.6394  1.7173 -1.6672
  109OSM   H17T11231   1.687   1.661   9.368  0.2286  0.9154  2.0122
  109OSM   C18S11232   1.762   1.815   9.252  1.0213  0.8612  0.1911
  109OSM   H18S11233   1.816   1.744   9.186  1.5289  1.6760 -0.2878
  109OSM   H18T11234   1.842   1.847   9.322  0.8334  1.1474  0.2802
  109OSM   H18U11235   1.741   1.905   9.190  0.6101  0.8780  0.3492
  109OSM    C1F11236   2.370   2.047  10.575  0.5139 -0.5549 -0.1303
  109OSM     OF11237   2.462   1.968  10.600  0.8170  0.4253  0.5528
  109OSM    C2F11238   2.381   2.151  10.466 -0.2696  0.0599  0.0480
  109OSM    H2F11239   2.453   2.230  10.497 -0.5933  0.1814  0.4929
  109OSM    H2G11240   2.284   2.202  10.449 -0.1926 -0.6792 -3.2874
  109OSM    C3F11241   2.425   2.089  10.328 -0.7906 -0.0385  0.2029
  109OSM    H3F11242   2.518   2.030  10.335 -0.8313  0.0131  1.4709
  109OSM    H3G11243   2.451   2.177  10.265 -1.5345  0.7512  0.9588
  109OSM    C4F11244   2.316   1.990  10.260 -0.3821  0.4681 -0.2856
  109OSM    H4F11245   2.335   1.893  10.310  2.5432  1.1273  0.0980
  109OSM    H4G11246   2.358   1.982  10.157 -0.8054  0.2965 -0.4437
  109OSM    C5F11247   2.179   2.041  10.265  0.3809 -0.6557  0.3281
  109OSM    H5F11248   2.180   2.147  10.231  0.7322 -1.2935 -1.8141
  109OSM    H5G11249   2.125   2.026  10.361  0.5137 -1.0352  0.3479
  109OSM    C6F11250   2.094   1.977  10.152  0.4441  0.1064 -0.5880
  109OSM    H6F11251   2.054   1.878  10.184  0.4753 -0.3553 -1.9148
  109OSM    H6G11252   2.168   1.961  10.070  1.6066  1.0069  0.2449
  109OSM    C7F11253   1.983   2.057  10.080 -0.6424 -0.3751  0.0916
  109OSM    H7F11254   1.906   2.107  10.143 -1.0155  0.9517 -1.3395
  109OSM    H7G11255   1.919   1.990  10.019 -2.4980  1.3024  0.0839
  109OSM    C8F11256   2.050   2.170  10.008 -0.5478 -0.7129 -0.7776
  109OSM    H8F11257   2.088   2.251  10.074  0.4623 -1.1330 -0.8319
  109OSM    H8G11258   1.966   2.228   9.965 -0.4234  0.3253  0.3108
  109OSM    C9F11259   2.159   2.148   9.906 -0.3076 -0.1339  0.2087
  109OSM    H9F11260   2.255   2.133   9.957  0.7496  1.2514 -1.2979
  109OSM   C10F11261   2.157   2.146   9.775  0.2863  0.2809 -0.2792
  109OSM   H10F11262   2.245   2.124   9.713 -1.0296 -2.0708 -1.4462
  109OSM   C11F11263   2.036   2.160   9.685 -0.0436  0.4484  0.1732
  109OSM   H11F11264   2.037   2.262   9.639  2.0744  0.4556  0.1341
  109OSM   H11G11265   1.936   2.162   9.732  0.7885 -0.9270  2.1434
  109OSM   C12F11266   2.049   2.055   9.575  0.3701  0.9324  0.1117
  109OSM   H12F11267   1.951   2.005   9.565  0.2835  1.0920  0.1602
  109OSM   H12G11268   2.115   1.967   9.588 -0.4007  0.1628 -1.0274
  109OSM   C13F11269   2.079   2.117   9.436  0.2566  0.2470 -0.6685
  109OSM   H13F11270   2.171   2.179   9.452 -0.6080  1.0123  1.9599
  109OSM   H13G11271   1.994   2.188   9.423  0.2687  0.4201  0.1075
  109OSM   C14F11272   2.090   2.027   9.309  0.4013 -0.7378 -0.1559
  109OSM   H14F11273   2.038   1.930   9.326  3.0065 -2.3207 -0.6620
  109OSM   H14G11274   2.195   1.998   9.287  0.8783 -0.6526  1.8195
  109OSM   C15F11275   2.042   2.110   9.192  0.1715 -0.3165  0.9844
  109OSM   H15F11276   2.106   2.195   9.161 -2.1514  0.2627 -2.9266
  109OSM   H15G11277   1.943   2.154   9.216  0.8214  0.8939  1.5107
  109OSM   C16F11278   2.026   2.027   9.057 -0.5687  0.0497 -0.0012
  109OSM   H16F11279   1.957   1.941   9.069  0.4913 -0.6711  1.1607
  109OSM   H16G11280   2.129   1.995   9.031 -0.4869 -0.1998  0.6144
  109OSM   C17F11281   1.983   2.119   8.937 -0.0252 -1.1344 -0.6059
  109OSM   H17F11282   2.038   2.215   8.940 -2.5752  0.3953  0.0655
  109OSM   H17G11283   1.880   2.156   8.960  0.6126 -0.3104  1.0933
  109OSM   C18F11284   1.998   2.056   8.793 -0.1490 -0.0778  0.0040
  109OSM   H18F11285   1.910   1.989   8.785 -0.8561  0.8881 -0.5597
  109OSM   H18G11286   2.099   2.011   8.790  0.8538  2.0417 -0.1210
  109OSM   H18H11287   1.990   2.129   8.710  1.1654 -1.3130 -1.2611
  110OSM      N11288   0.279   1.670  11.036  0.7343  0.2054 -0.5453
  110OSM    C1511289   0.214   1.749  11.143 -0.1587  0.3160  0.1305
  110OSM   H15A11290   0.194   1.844  11.095  0.7470 -0.1302 -1.1708
  110OSM   H15B11291   0.271   1.768  11.232 -1.1833 -0.2196  0.9297
  110OSM   H15C11292   0.121   1.700  11.168  0.6331 -1.4970 -0.3517
  110OSM    C1411293   0.413   1.734  11.015 -0.4384 -0.3869  1.1238
  110OSM   H14A11294   0.472   1.680  10.942 -0.7789  1.4760 -0.6060
  110OSM   H14B11295   0.470   1.735  11.107  1.4037  1.4018  0.0444
  110OSM   H14C11296   0.412   1.834  10.973  0.9073 -1.5550 -1.9713
  110OSM    C1311297   0.303   1.519  11.084  0.5784  0.3563 -0.1493
  110OSM   H13A11298   0.213   1.472  11.120  1.4473  0.0637  1.7185
  110OSM   H13B11299   0.374   1.525  11.165  1.8296  0.5200 -1.2090
  110OSM   H13C11300   0.339   1.464  10.998  1.1692  1.9801 -1.0056
  110OSM    C1211301   0.196   1.675  10.906 -0.6514 -0.5938  0.1143
  110OSM   H12A11302   0.248   1.621  10.827 -1.0586  0.0856 -0.6273
  110OSM   H12B11303   0.198   1.775  10.865  1.0113 -1.8710 -3.3821
  110OSM    C1111304   0.052   1.627  10.917 -0.0518 -0.6622  0.1112
  110OSM   H11A11305  -0.011   1.655  10.831 -1.3925  0.3346  1.3722
  110OSM   H11B11306  -0.006   1.673  11.000 -1.1443 -1.6002 -0.1199
  110OSM      P11307   0.027   1.384  10.826 -0.0514 -0.1798 -0.1780
  110OSM    O1311308   0.041   1.256  10.891  0.1376 -0.0774  0.5987
  110OSM    O1411309  -0.103   1.422  10.757 -0.0672 -0.6666  0.0628
  110OSM    O1111310   0.148   1.408  10.728 -0.0567 -0.1578  0.3531
  110OSM    O1211311   0.053   1.486  10.939 -0.4961  0.2828 -0.3324
  110OSM    C1S11312   0.232   1.299  10.700 -0.0350  0.0659  0.7676
  110OSM    H1S11313   0.177   1.203  10.701  2.1437 -1.2505  1.3178
  110OSM    H1T11314   0.314   1.299  10.776  0.0935 -1.6752  0.6738
  110OSM     NF11315   0.385   1.206  10.530  0.0440  0.1350 -0.2160
  110OSM    HNF11316   0.484   1.209  10.543  0.3276 -2.9738 -0.9543
  110OSM    C2S11317   0.303   1.320  10.564 -0.1802 -0.6917  0.7173
  110OSM    H2S11318   0.224   1.334  10.487  1.0389  3.3625 -0.0459
  110OSM    C3S11319   0.374   1.463  10.576  0.1199 -0.6032  0.2018
  110OSM    H3S11320   0.457   1.458  10.650  0.2296 -1.5907  0.0250
  110OSM     O311321   0.288   1.569  10.617 -0.2824 -0.0370  0.2190
  110OSM    HO311322   0.235   1.517  10.678  0.4469  0.9774  1.7879
  110OSM    C4S11323   0.440   1.498  10.445  0.3611 -0.1066  0.4692
  110OSM    H4S11324   0.550   1.494  10.447  0.3367 -1.3322  0.0748
  110OSM    C5S11325   0.378   1.530  10.328 -0.5158  0.5407 -0.2359
  110OSM    H5S11326   0.270   1.550  10.330 -0.3162  1.6390  0.7127
  110OSM    C6S11327   0.443   1.555  10.203 -0.3460 -0.2211  0.7428
  110OSM    H6S11328   0.494   1.459  10.178  0.0080  0.5309 -1.7646
  110OSM    H6T11329   0.528   1.626  10.204 -0.6247  0.1162  0.8464
  110OSM    C7S11330   0.363   1.569  10.075  0.1009 -0.4669 -0.2243
  110OSM    H7S11331   0.334   1.676  10.075  3.5247  0.5791 -1.3005
  110OSM    H7T11332   0.272   1.505  10.071 -0.0990 -0.2086  0.1068
  110OSM    C8S11333   0.438   1.542   9.944 -0.9760 -0.2550 -0.1507
  110OSM    H8S11334   0.482   1.443   9.969  0.2388  0.6868  1.6333
  110OSM    H8T11335   0.524   1.611   9.937 -1.0853 -0.1151 -0.1086
  110OSM    C9S11336   0.363   1.547   9.815  0.2710 -0.1687 -0.0428
  110OSM    H9S11337   0.287   1.628   9.814  1.0762  0.6129 -0.0830
  110OSM    H9T11338   0.308   1.450   9.818 -0.0664  0.0413  1.8672
  110OSM   C10S11339   0.450   1.547   9.689  0.6361  0.1991 -0.1095
  110OSM   H10S11340   0.505   1.451   9.687  0.6669  0.1312  1.9771
  110OSM   H10T11341   0.529   1.625   9.683  0.8749 -0.1402 -2.2959
  110OSM   C11S11342   0.366   1.546   9.562 -0.5508  0.0625  0.5593
  110OSM   H11S11343   0.320   1.645   9.544 -1.5580 -0.8786 -2.6287
  110OSM   H11T11344   0.287   1.468   9.557 -1.6868  1.1245  1.3492
  110OSM   C12S11345   0.453   1.518   9.440 -0.9649 -0.5248  0.0455
  110OSM   H12S11346   0.501   1.421   9.465 -1.1005 -0.4102  0.7656
  110OSM   H12T11347   0.533   1.594   9.430 -2.6850  1.3136 -0.3923
  110OSM   C13S11348   0.372   1.502   9.306 -0.2512 -0.3918  0.4715
  110OSM   H13S11349   0.440   1.513   9.219 -3.3103  0.4005 -2.0162
  110OSM   H13T11350   0.304   1.590   9.301  0.9836  0.5396 -0.5107
  110OSM   C14S11351   0.293   1.375   9.290 -0.5735 -1.3043  0.3618
  110OSM   H14S11352   0.217   1.361   9.371 -2.2620  0.1381 -0.8985
  110OSM   H14T11353   0.368   1.293   9.300  0.7135 -0.0396  1.4265
  110OSM   C15S11354   0.199   1.373   9.163  0.3699 -0.3707 -0.1350
  110OSM   H15S11355   0.119   1.450   9.168 -1.4461 -2.2221  1.0649
  110OSM   H15T11356   0.137   1.281   9.162 -1.4941  0.8254 -0.6029
  110OSM   C16S11357   0.281   1.386   9.031  0.1344  0.0681 -0.2955
  110OSM   H16S11358   0.347   1.296   9.026 -3.6528 -3.1232  2.0725
  110OSM   H16T11359   0.343   1.478   9.037  1.0749 -0.5283 -0.5666
  110OSM   C17S11360   0.194   1.381   8.908 -0.1193  0.0042 -0.2400
  110OSM   H17S11361   0.100   1.333   8.942  1.0057 -0.6375  2.1461
  110OSM   H17T11362   0.233   1.318   8.826  0.8761  0.9475 -0.5273
  110OSM   C18S11363   0.152   1.519   8.860  0.1904 -0.0529 -1.0841
  110OSM   H18S11364   0.088   1.519   8.769 -1.1693 -1.5915 -0.1820
  110OSM   H18T11365   0.233   1.593   8.843  1.1061 -0.6205  0.6240
  110OSM   H18U11366   0.093   1.566   8.941 -0.6490 -0.9925 -1.1394
  110OSM    C1F11367   0.337   1.087  10.495 -0.4954 -0.2807  0.1839
  110OSM     OF11368   0.218   1.067  10.507 -0.1140 -0.2497  0.2822
  110OSM    C2F11369   0.435   0.985  10.446  0.7653  0.8299  0.5597
  110OSM    H2F11370   0.441   0.911  10.528 -1.4807  2.1649  2.0303
  110OSM    H2G11371   0.532   1.034  10.422  1.1094  0.7874  1.8145
  110OSM    C3F11372   0.378   0.909  10.315 -0.7826 -0.2763 -0.1912
  110OSM    H3F11373   0.282   0.870  10.355 -0.8246  0.7267  0.7391
  110OSM    H3G11374   0.444   0.827  10.278 -0.7522  0.9110 -3.0616
  110OSM    C4F11375   0.341   1.009  10.197  0.0191  0.1723 -0.2518
  110OSM    H4F11376   0.270   1.087  10.232 -3.6544 -2.3034 -1.5606
  110OSM    H4G11377   0.284   0.948  10.124  1.4935 -1.8291  0.1699
  110OSM    C5F11378   0.467   1.060  10.124 -0.3472 -0.8446  0.3523
  110OSM    H5F11379   0.515   0.966  10.092  1.6070  0.3870 -0.4660
  110OSM    H5G11380   0.528   1.115  10.199 -0.5655 -1.7316  1.2155
  110OSM    C6F11381   0.437   1.151  10.008 -0.0530 -0.0774 -0.3306
  110OSM    H6F11382   0.391   1.243  10.050  1.8273  0.2212  1.1896
  110OSM    H6G11383   0.360   1.108   9.940  0.5364  0.9171 -1.6786
  110OSM    C7F11384   0.561   1.178   9.920 -0.0230  0.7331  0.5354
  110OSM    H7F11385   0.642   1.227   9.979  1.3576  4.0803 -3.6201
  110OSM    H7G11386   0.539   1.257   9.845  1.6710  2.5992  1.9104
  110OSM    C8F11387   0.620   1.069   9.826  0.4272 -0.3967 -0.6021
  110OSM    H8F11388   0.706   1.022   9.877  0.7648 -0.7426 -1.4663
  110OSM    H8G11389   0.663   1.120   9.737  1.9855  1.5992  1.1832
  110OSM    C9F11390   0.514   0.963   9.795 -0.7909 -0.1092 -0.2543
  110OSM    H9F11391   0.450   0.922   9.874 -1.4286 -0.4275 -0.9246
  110OSM   C10F11392   0.481   0.931   9.666 -0.4601  0.9278 -0.5298
  110OSM   H10F11393   0.401   0.856   9.653 -0.7928  1.0732  0.5751
  110OSM   C11F11394   0.542   0.977   9.536 -0.4145 -0.1131  0.7837
  110OSM   H11F11395   0.649   1.006   9.539  0.5595 -2.8045 -2.2427
  110OSM   H11G11396   0.476   1.062   9.508 -0.9527 -0.6345  0.4375
  110OSM   C12F11397   0.536   0.875   9.422  0.3841 -0.0329  1.0812
  110OSM   H12F11398   0.433   0.832   9.420  0.3701 -0.0645  2.0298
  110OSM   H12G11399   0.605   0.793   9.449  1.4069 -0.1120 -1.4939
  110OSM   C13F11400   0.557   0.928   9.276 -0.0050 -0.5105 -0.4909
  110OSM   H13F11401   0.655   0.979   9.265 -0.2752 -0.3341 -2.4869
  110OSM   H13G11402   0.479   1.006   9.262 -0.9252 -0.5166  3.4390
  110OSM   C14F11403   0.548   0.809   9.186  0.5013  0.1053 -0.1464
  110OSM   H14F11404   0.447   0.763   9.188  1.1768 -1.4867 -0.8349
  110OSM   H14G11405   0.621   0.728   9.208 -0.4250 -1.7252 -3.1893
  110OSM   C15F11406   0.585   0.843   9.035 -1.1232 -0.3527  0.5855
  110OSM   H15F11407   0.691   0.875   9.032 -0.7430 -1.5596  0.7962
  110OSM   H15G11408   0.525   0.928   8.995  0.9889  0.7098 -0.4832
  110OSM   C16F11409   0.572   0.725   8.939 -0.3874  0.1582 -0.3245
  110OSM   H16F11410   0.602   0.746   8.834 -1.8016  3.6242 -0.1435
  110OSM   H16G11411   0.465   0.697   8.936  0.1877 -2.7065  1.4998
  110OSM   C17F11412   0.631   0.592   8.993  0.2524 -0.8631 -0.5854
  110OSM   H17F11413   0.584   0.563   9.089  0.8890  0.2127  0.0817
  110OSM   H17G11414   0.740   0.598   9.015 -0.1144  1.7186  0.9298
  110OSM   C18F11415   0.627   0.489   8.881 -0.2481  0.1628  0.4386
  110OSM   H18F11416   0.659   0.526   8.781 -1.4233 -2.2224 -0.9112
  110OSM   H18G11417   0.522   0.459   8.860  0.4309 -0.9225 -1.7957
  110OSM   H18H11418   0.681   0.399   8.917  1.0174  0.2403 -1.1258
  111OSM      N11419   1.816   6.153  10.861  0.7082 -0.2005 -0.5118
  111OSM    C1511420   1.783   6.037  10.771 -0.2564  0.1616 -0.0677
  111OSM   H15A11421   1.872   5.976  10.760 -1.9185 -2.6703  1.0954
  111OSM   H15B11422   1.737   6.068  10.678  0.7581 -2.7595 -1.7007
  111OSM   H15C11423   1.716   5.972  10.826 -0.5972  1.0239  0.5567
  111OSM    C1411424   1.684   6.238  10.862  0.8647  0.1658 -0.3957
  111OSM   H14A11425   1.688   6.325  10.927  0.4284 -1.0872  1.4044
  111OSM   H14B11426   1.598   6.181  10.894  0.3500  0.2218 -1.6329
  111OSM   H14C11427   1.680   6.276  10.761 -0.3261  0.6822 -0.1754
  111OSM    C1311428   1.830   6.104  10.998 -0.1559  0.6240 -0.2736
  111OSM   H13A11429   1.742   6.047  11.023 -0.8554  1.1703 -1.4020
  111OSM   H13B11430   1.842   6.189  11.063  1.1195  0.4111 -0.1984
  111OSM   H13C11431   1.918   6.042  11.008  0.2537  1.3140  0.4803
  111OSM    C1211432   1.935   6.230  10.829 -0.0201 -0.3018  0.7532
  111OSM   H12A11433   2.027   6.181  10.858  0.2071 -0.0470  0.4747
  111OSM   H12B11434   1.934   6.317  10.894  0.4364  0.0921  0.2456
  111OSM    C1111435   1.953   6.275  10.677  0.2941 -0.0999 -0.1127
  111OSM   H11A11436   1.965   6.173  10.633  1.1602 -0.3285  0.6074
  111OSM   H11B11437   2.054   6.322  10.669  0.5472 -0.5473  0.3796
  111OSM      P11438   1.843   6.500  10.674  0.2602 -0.3983  0.2552
  111OSM    O1311439   1.703   6.549  10.660 -0.5085  0.0455 -0.0438
  111OSM    O1411440   1.899   6.517  10.806  1.0217 -0.0812  0.2436
  111OSM    O1111441   1.932   6.583  10.572 -0.0697 -0.0559  0.4921
  111OSM    O1211442   1.849   6.350  10.625 -0.3259 -0.3942  0.2090
  111OSM    C1S11443   1.991   6.541  10.452 -0.1980 -0.0951  0.4908
  111OSM    H1S11444   1.986   6.430  10.447 -1.9571 -0.0677  0.9112
  111OSM    H1T11445   2.098   6.566  10.463  0.1263 -2.0194  2.3148
  111OSM     NF11446   1.993   6.549  10.209  0.4613  0.6121  0.2825
  111OSM    HNF11447   2.083   6.573  10.172  1.0796  1.7652  2.3769
  111OSM    C2S11448   1.932   6.607  10.326  0.9184  0.9284 -0.7107
  111OSM    H2S11449   1.825   6.576  10.326  1.0292  0.4510  1.0429
  111OSM    C3S11450   1.940   6.766  10.339  0.1153 -0.2037 -0.3514
  111OSM    H3S11451   2.045   6.801  10.342  0.5866 -1.6025  0.5677
  111OSM     O311452   1.867   6.816  10.450  0.3888  0.1716  0.3136
  111OSM    HO311453   1.840   6.747  10.511 -2.7954  1.5392  0.6574
  111OSM    C4S11454   1.891   6.820  10.208 -0.0482 -0.1958  1.0892
  111OSM    H4S11455   1.961   6.811  10.123  0.2771 -1.5001  1.4664
  111OSM    C5S11456   1.758   6.842  10.197  0.1981  0.5633  0.3942
  111OSM    H5S11457   1.689   6.815  10.277 -0.5143 -3.5041 -1.3328
  111OSM    C6S11458   1.678   6.880  10.074  0.1613  0.1695 -0.5756
  111OSM    H6S11459   1.621   6.974  10.092  0.9553  0.6317 -0.4063
  111OSM    H6T11460   1.587   6.817  10.080 -1.2702  2.2194  0.4551
  111OSM    C7S11461   1.731   6.856   9.932 -0.8166 -0.1725 -0.3238
  111OSM    H7S11462   1.794   6.764   9.925  1.4537  1.2357  0.3371
  111OSM    H7T11463   1.807   6.937   9.924 -1.8853  0.8971  0.0865
  111OSM    C8S11464   1.630   6.846   9.819 -0.0843  0.3582 -0.2213
  111OSM    H8S11465   1.591   6.949   9.809  0.8923  0.6461 -1.3618
  111OSM    H8T11466   1.559   6.773   9.863  3.0751 -1.3479  2.4988
  111OSM    C9S11467   1.688   6.799   9.684  0.2640 -0.3077 -0.6025
  111OSM    H9S11468   1.603   6.776   9.616  0.3519 -0.5530 -0.6324
  111OSM    H9T11469   1.745   6.703   9.682 -2.9098 -2.5273  2.8846
  111OSM   C10S11470   1.766   6.912   9.627  0.0741 -0.6991 -0.4447
  111OSM   H10S11471   1.846   6.932   9.701  1.8876 -0.9298 -2.2565
  111OSM   H10T11472   1.704   7.005   9.619 -2.0168 -2.0538 -0.7099
  111OSM   C11S11473   1.836   6.889   9.499  0.0837 -0.1307  1.1076
  111OSM   H11S11474   1.903   6.803   9.518 -0.5072 -1.1715 -1.1360
  111OSM   H11T11475   1.898   6.981   9.491 -0.3441  0.1447  0.9217
  111OSM   C12S11476   1.749   6.853   9.375 -0.3306  0.2269  0.0919
  111OSM   H12S11477   1.666   6.924   9.355 -1.5183 -1.6248 -1.9628
  111OSM   H12T11478   1.694   6.761   9.406 -0.3215  0.4789  0.8721
  111OSM   C13S11479   1.836   6.852   9.252 -0.5790  0.3917 -0.8860
  111OSM   H13S11480   1.914   6.774   9.269 -1.6880 -0.3318  1.1863
  111OSM   H13T11481   1.900   6.941   9.239  3.3235 -2.5257 -4.4785
  111OSM   C14S11482   1.754   6.825   9.127 -0.9645 -0.9074  1.1143
  111OSM   H14S11483   1.685   6.912   9.124  0.3644  0.1548  0.5615
  111OSM   H14T11484   1.692   6.734   9.141 -2.0073 -0.1615  1.5699
  111OSM   C15S11485   1.815   6.825   8.984 -0.3973  0.4616  0.2213
  111OSM   H15S11486   1.853   6.928   8.962  0.1412  0.4459  1.0443
  111OSM   H15T11487   1.731   6.815   8.913  0.0541  1.0344 -0.4088
  111OSM   C16S11488   1.933   6.727   8.943  1.0756  0.6269  0.5607
  111OSM   H16S11489   1.913   6.620   8.967 -0.8974  0.7711 -0.2920
  111OSM   H16T11490   2.026   6.764   8.992  0.2180  1.6557  1.4493
  111OSM   C17S11491   1.958   6.732   8.795  0.5289  0.0635 -0.7760
  111OSM   H17S11492   1.958   6.834   8.752  1.9681 -0.0786 -1.1762
  111OSM   H17T11493   1.877   6.677   8.742  0.8066  0.3626 -1.5212
  111OSM   C18S11494   2.094   6.665   8.753  0.8581 -0.6253 -0.3302
  111OSM   H18S11495   2.179   6.730   8.784  0.3749 -0.3266  0.3895
  111OSM   H18T11496   2.094   6.656   8.642 -2.6526 -0.4121 -0.4611
  111OSM   H18U11497   2.101   6.564   8.798 -1.2993 -0.6051  0.1396
  111OSM    C1F11498   1.956   6.429  10.162  1.4860 -0.1883 -0.5713
  111OSM     OF11499   1.876   6.354  10.216 -0.0067 -0.0773  0.2227
  111OSM    C2F11500   2.028   6.384  10.043 -0.1480 -0.3574 -0.4961
  111OSM    H2F11501   2.043   6.275  10.055  1.6247 -0.2303 -1.2247
  111OSM    H2G11502   2.132   6.424  10.046 -0.7248  1.2001 -0.2023
  111OSM    C3F11503   1.959   6.412   9.914 -0.2726  0.5283 -0.5253
  111OSM    H3F11504   1.950   6.523   9.905  0.0434  0.6350  0.3415
  111OSM    H3G11505   1.853   6.382   9.907 -0.5571  1.3035  0.2332
  111OSM    C4F11506   2.029   6.355   9.796  0.5254  0.7043 -0.1708
  111OSM    H4F11507   2.040   6.245   9.793 -1.5312  0.3177  2.3388
  111OSM    H4G11508   2.128   6.404   9.793  2.2095 -2.3333  1.3659
  111OSM    C5F11509   1.965   6.384   9.655 -0.1538  0.2561  0.3529
  111OSM    H5F11510   1.966   6.493   9.635  1.4781  0.0464 -0.8914
  111OSM    H5G11511   1.866   6.333   9.656 -0.8623  1.5859  0.5727
  111OSM    C6F11512   2.047   6.341   9.531 -0.1131  0.2529 -0.0872
  111OSM    H6F11513   2.033   6.231   9.515 -2.5112  0.6157 -0.8411
  111OSM    H6G11514   2.154   6.365   9.549 -0.2543  0.5387  0.3854
  111OSM    C7F11515   2.000   6.392   9.394  0.3477  0.0028 -0.0593
  111OSM    H7F11516   1.983   6.502   9.395 -2.2020 -0.3093 -0.5255
  111OSM    H7G11517   1.900   6.350   9.371  0.4128 -0.3353  0.2767
  111OSM    C8F11518   2.102   6.372   9.284  0.2845  0.3542  0.7774
  111OSM    H8F11519   2.124   6.263   9.287  1.2134  0.5170  0.3069
  111OSM    H8G11520   2.200   6.420   9.306 -0.6124  1.1313  3.3722
  111OSM    C9F11521   2.038   6.410   9.147 -0.1104 -0.0869 -0.6980
  111OSM    H9F11522   1.955   6.479   9.164 -0.1616 -0.1541 -0.6732
  111OSM   C10F11523   2.062   6.355   9.026 -0.5928 -0.3741 -0.0178
  111OSM   H10F11524   2.008   6.391   8.937 -1.4216  3.4030  1.8007
  111OSM   C11F11525   2.164   6.247   8.995  0.1089 -0.0693 -0.2046
  111OSM   H11F11526   2.124   6.147   8.968  1.3007  0.1117 -2.9957
  111OSM   H11G11527   2.232   6.227   9.080  0.1906  0.3756 -0.1596
  111OSM   C12F11528   2.260   6.262   8.874  0.1344 -0.2019 -0.2288
  111OSM   H12F11529   2.334   6.180   8.882 -0.7984 -1.0141  0.3116
  111OSM   H12G11530   2.306   6.361   8.894  0.8793 -0.5138 -0.3891
  111OSM   C13F11531   2.192   6.259   8.732  0.0779 -0.4584  1.2748
  111OSM   H13F11532   2.264   6.293   8.654 -1.9568  1.3065  0.0722
  111OSM   H13G11533   2.109   6.332   8.728 -0.0212 -0.6203 -0.5149
  111OSM   C14F11534   2.122   6.128   8.695 -0.2191 -0.5208 -0.1305
  111OSM   H14F11535   2.088   6.138   8.590  1.4334 -0.7648 -0.7170
  111OSM   H14G11536   2.034   6.112   8.760 -0.9675  1.2653 -0.6478
  111OSM   C15F11537   2.223   6.009   8.689  0.1414  0.4212 -0.0953
  111OSM   H15F11538   2.321   6.057   8.668  0.3094 -0.0407 -0.3839
  111OSM   H15G11539   2.205   5.957   8.592  1.1679 -0.4928  0.1891
  111OSM   C16F11540   2.240   5.916   8.808 -0.0670  0.3364 -0.7475
  111OSM   H16F11541   2.260   5.977   8.899  1.2760 -0.4082 -0.5201
  111OSM   H16G11542   2.332   5.856   8.794  1.0839  1.6147  0.8542
  111OSM   C17F11543   2.131   5.810   8.840  0.0659  0.0802 -0.1274
  111OSM   H17F11544   2.130   5.735   8.758  2.7829  0.9576 -1.0983
  111OSM   H17G11545   2.035   5.865   8.840  0.9667  1.7143  0.2339
  111OSM   C18F11546   2.138   5.729   8.972  0.0790 -0.0523 -0.4670
  111OSM   H18F11547   2.147   5.799   9.058  1.4147 -0.8967  0.1280
  111OSM   H18G11548   2.225   5.660   8.966  1.0914  1.3297 -2.8759
  111OSM   H18H11549   2.049   5.670   9.003  0.5756  1.0261  3.6515
  112OSM      N11550   0.675   4.217  10.443 -0.1296 -0.3757 -0.1139
  112OSM    C1511551   0.670   4.194  10.297  0.0486 -0.7181  0.1480
  112OSM   H15A11552   0.765   4.163  10.257  0.5129 -1.9135  2.0156
  112OSM   H15B11553   0.633   4.276  10.238 -0.9983 -1.0692  0.2858
  112OSM   H15C11554   0.600   4.112  10.284 -0.6253 -0.6333  2.6351
  112OSM    C1411555   0.546   4.273  10.483 -0.2312 -0.1941 -0.7462
  112OSM   H14A11556   0.520   4.367  10.437  0.6178 -0.5948 -2.0752
  112OSM   H14B11557   0.544   4.279  10.591 -0.8844 -0.4146 -0.7388
  112OSM   H14C11558   0.465   4.204  10.462  0.3139 -0.9657 -0.3828
  112OSM    C1311559   0.699   4.091  10.511  0.5962  1.0216  0.3063
  112OSM   H13A11560   0.619   4.019  10.506  1.8326 -0.4325  0.7641
  112OSM   H13B11561   0.720   4.100  10.617  0.4525  2.4976  0.2272
  112OSM   H13C11562   0.788   4.043  10.475  0.8400  1.4265  0.3599
  112OSM    C1211563   0.784   4.321  10.473  0.8595 -0.4368  0.7574
  112OSM   H12A11564   0.770   4.411  10.416  0.4141 -0.7919  0.2977
  112OSM   H12B11565   0.872   4.273  10.431 -1.1497 -2.8501 -0.9977
  112OSM    C1111566   0.820   4.373  10.617  0.2858 -0.0578 -0.6019
  112OSM   H11A11567   0.737   4.439  10.647  0.6074 -0.8514  2.3647
  112OSM   H11B11568   0.909   4.439  10.606 -0.4717  1.0605 -0.1808
  112OSM      P11569   0.980   4.233  10.758  0.0795 -0.2003  0.1525
  112OSM    O1311570   1.009   4.348  10.846  0.0335  0.1274 -0.7492
  112OSM    O1411571   0.995   4.097  10.813  0.0683 -0.2795  0.5903
  112OSM    O1111572   1.064   4.248  10.626  0.1202 -0.0787  0.3288
  112OSM    O1211573   0.833   4.261  10.702 -0.4961 -0.1100 -0.1397
  112OSM    C1S11574   1.070   4.142  10.534 -0.9211  0.5300 -0.2987
  112OSM    H1S11575   0.972   4.103  10.496  0.6671 -2.9933 -1.1542
  112OSM    H1T11576   1.121   4.058  10.584 -1.4580  0.7920  0.7093
  112OSM     NF11577   1.152   4.094  10.307 -0.3054  0.8678  0.4766
  112OSM    HNF11578   1.209   4.015  10.284 -1.1501  0.2710  0.3881
  112OSM    C2S11579   1.171   4.185  10.425  0.8843 -0.5417 -0.0149
  112OSM    H2S11580   1.147   4.290  10.402 -0.6602 -0.5308  1.5061
  112OSM    C3S11581   1.321   4.183  10.488  0.3860  0.4604  1.0393
  112OSM    H3S11582   1.354   4.079  10.508  1.8192  0.6057 -0.3509
  112OSM     O311583   1.331   4.263  10.612  0.0234 -0.1381  0.8223
  112OSM    HO311584   1.240   4.288  10.632  0.2214 -0.5093  2.2332
  112OSM    C4S11585   1.416   4.227  10.380 -0.2035 -0.0424  0.4893
  112OSM    H4S11586   1.397   4.330  10.347 -2.7417 -0.3655  0.7314
  112OSM    C5S11587   1.521   4.156  10.333 -0.1391 -1.1989 -0.1857
  112OSM    H5S11588   1.548   4.057  10.370 -2.0639 -2.1052 -1.0649
  112OSM    C6S11589   1.613   4.211  10.227 -0.2326 -0.1759  0.0861
  112OSM    H6S11590   1.721   4.200  10.254  0.2213  0.3361 -1.4028
  112OSM    H6T11591   1.585   4.317  10.207 -0.6130 -0.5635 -1.5631
  112OSM    C7S11592   1.601   4.138  10.090  0.3655 -0.0238 -0.0373
  112OSM    H7S11593   1.503   4.167  10.046  1.9523  0.3490 -3.6978
  112OSM    H7T11594   1.604   4.027  10.092  0.4096 -0.1106 -2.4264
  112OSM    C8S11595   1.690   4.176   9.970  0.0126 -0.3882 -0.7696
  112OSM    H8S11596   1.791   4.142  10.001 -0.7881 -0.9542  1.4901
  112OSM    H8T11597   1.700   4.286   9.966 -0.5672 -0.2979 -0.0487
  112OSM    C9S11598   1.649   4.112   9.838  0.0963  0.0054 -0.7180
  112OSM    H9S11599   1.556   4.159   9.802 -0.5085 -0.0653  0.6835
  112OSM    H9T11600   1.638   4.006   9.872  1.2275  0.8759  2.7243
  112OSM   C10S11601   1.757   4.136   9.728  0.1481  0.2564 -0.3477
  112OSM   H10S11602   1.859   4.110   9.762 -0.2775 -0.8875  0.0951
  112OSM   H10T11603   1.756   4.243   9.697 -1.2070  0.1078 -0.9021
  112OSM   C11S11604   1.718   4.045   9.613 -0.5697  0.1126 -0.0784
  112OSM   H11S11605   1.613   4.072   9.587  0.5983  2.9894 -2.4586
  112OSM   H11T11606   1.728   3.937   9.636  1.9307  0.4897  0.8307
  112OSM   C12S11607   1.803   4.065   9.489 -0.1957 -0.0874 -0.2678
  112OSM   H12S11608   1.900   4.012   9.499 -0.4602 -0.4380  0.5260
  112OSM   H12T11609   1.825   4.168   9.453  2.1043 -0.1303  0.8432
  112OSM   C13S11610   1.752   3.980   9.367 -0.1541  0.3296 -0.3437
  112OSM   H13S11611   1.645   4.008   9.351 -0.1427  0.5067 -0.1120
  112OSM   H13T11612   1.764   3.873   9.391  1.0647  0.2777 -1.1116
  112OSM   C14S11613   1.838   4.011   9.241 -0.1529 -0.0896 -0.0633
  112OSM   H14S11614   1.938   3.968   9.264 -0.3028 -0.6321 -0.4115
  112OSM   H14T11615   1.855   4.120   9.226  2.2199  0.1149  3.0509
  112OSM   C15S11616   1.778   3.961   9.110  0.1726 -0.0909 -0.1295
  112OSM   H15S11617   1.817   4.007   9.017  0.6973  1.9722  1.0455
  112OSM   H15T11618   1.668   3.980   9.112  0.4189  1.6274 -1.2279
  112OSM   C16S11619   1.785   3.807   9.088 -0.1554  0.6269  0.2464
  112OSM   H16S11620   1.691   3.759   9.123 -0.3046  1.5827  1.2428
  112OSM   H16T11621   1.864   3.759   9.148  0.3023 -1.1295 -1.6738
  112OSM   C17S11622   1.807   3.776   8.934  0.3511  0.1221 -0.3246
  112OSM   H17S11623   1.899   3.832   8.906 -0.3127  1.7855  0.6047
  112OSM   H17T11624   1.720   3.827   8.888  0.4434  2.8280  2.1798
  112OSM   C18S11625   1.820   3.625   8.902 -0.1117  0.2476 -0.5908
  112OSM   H18S11626   1.725   3.573   8.928 -1.0489  1.8580 -0.6576
  112OSM   H18T11627   1.914   3.591   8.951  0.7279  0.7610 -1.7805
  112OSM   H18U11628   1.828   3.609   8.792 -2.1178  0.0271 -0.7327
  112OSM    C1F11629   1.043   4.107  10.231  0.2506  0.0612 -0.8094
  112OSM     OF11630   0.963   4.196  10.246 -1.0422 -0.1545  0.2968
  112OSM    C2F11631   1.046   4.013  10.114  0.0036  0.2303 -0.4145
  112OSM    H2F11632   1.120   3.933  10.133  0.1312  0.8820  2.2716
  112OSM    H2G11633   1.092   4.069  10.030 -0.6790 -0.4791 -1.2879
  112OSM    C3F11634   0.908   3.953  10.083 -0.2835  0.5952 -0.5468
  112OSM    H3F11635   0.837   4.036  10.064 -0.2178  0.7709 -0.0511
  112OSM    H3G11636   0.875   3.897  10.174  0.5411  0.7158 -0.1680
  112OSM    C4F11637   0.906   3.850   9.969 -0.1875 -0.3334 -0.1898
  112OSM    H4F11638   0.801   3.814   9.962 -1.3270  2.8117 -1.0602
  112OSM    H4G11639   0.971   3.769  10.009 -0.8762  0.8770  3.8384
  112OSM    C5F11640   0.940   3.915   9.838 -0.4353 -0.5116 -0.5485
  112OSM    H5F11641   1.047   3.946   9.847 -0.8857  1.0254 -0.0974
  112OSM    H5G11642   0.881   4.009   9.833 -0.9583 -0.7446  0.7370
  112OSM    C6F11643   0.913   3.827   9.718  0.4704  0.1827 -0.1058
  112OSM    H6F11644   0.808   3.792   9.723  0.9673 -1.3279  4.1152
  112OSM    H6G11645   0.971   3.733   9.726 -1.4272 -1.2243 -2.0185
  112OSM    C7F11646   0.934   3.893   9.584  0.3892 -0.1583 -0.2224
  112OSM    H7F11647   1.040   3.925   9.569  0.8796 -1.5085  0.2122
  112OSM    H7G11648   0.870   3.983   9.579 -2.2625 -1.8426  0.9687
  112OSM    C8F11649   0.895   3.782   9.483  0.0755 -1.2821  0.3571
  112OSM    H8F11650   0.786   3.763   9.472 -0.3349  0.2135  1.4684
  112OSM    H8G11651   0.950   3.687   9.502  1.8616 -0.2781  0.4136
  112OSM    C9F11652   0.940   3.840   9.351 -0.2659  0.0516 -0.4575
  112OSM    H9F11653   0.938   3.950   9.345  2.2567  0.2667  1.2296
  112OSM   C10F11654   0.952   3.770   9.241  0.5322 -0.6058  0.9427
  112OSM   H10F11655   0.984   3.820   9.148 -1.0313  1.2671  1.3326
  112OSM   C11F11656   0.926   3.616   9.227 -1.0721 -0.7829  0.7148
  112OSM   H11F11657   0.904   3.574   9.327 -0.3219  0.9671  1.6555
  112OSM   H11G11658   1.028   3.580   9.199 -0.6875  0.9809 -0.3006
  112OSM   C12F11659   0.817   3.603   9.120 -0.0964 -0.1734  0.4669
  112OSM   H12F11660   0.721   3.641   9.161  0.1600  0.6289  0.3422
  112OSM   H12G11661   0.811   3.494   9.099  0.5367 -0.2742  0.7788
  112OSM   C13F11662   0.851   3.663   8.978 -0.2274 -0.7124 -0.2770
  112OSM   H13F11663   0.961   3.658   8.960 -0.1844  0.6103 -0.5078
  112OSM   H13G11664   0.847   3.774   8.975  2.3835 -0.5625 -0.8655
  112OSM   C14F11665   0.792   3.594   8.861  0.5865  0.6371  0.4372
  112OSM   H14F11666   0.823   3.487   8.860  1.6117  0.8695 -2.8708
  112OSM   H14G11667   0.825   3.640   8.766  3.6900  0.9226  1.5391
  112OSM   C15F11668   0.637   3.584   8.860 -0.0254 -0.1142 -0.6881
  112OSM   H15F11669   0.594   3.685   8.877  0.9009  0.3696 -1.1784
  112OSM   H15G11670   0.600   3.530   8.950 -0.7151  2.1584  0.4622
  112OSM   C16F11671   0.571   3.526   8.738 -0.7527  0.6112 -0.3020
  112OSM   H16F11672   0.597   3.579   8.643 -1.1729  0.0401 -0.7443
  112OSM   H16G11673   0.461   3.534   8.741 -0.8564 -1.0027  1.6370
  112OSM   C17F11674   0.592   3.379   8.718 -0.1463  0.1002  0.3271
  112OSM   H17F11675   0.699   3.354   8.700 -0.0468  1.0343 -0.4504
  112OSM   H17G11676   0.535   3.354   8.627  2.4051 -3.4071 -0.5185
  112OSM   C18F11677   0.553   3.300   8.842  0.0810  0.4966  0.5426
  112OSM   H18F11678   0.606   3.336   8.932 -1.5155  0.9111  1.3607
  112OSM   H18G11679   0.587   3.196   8.821  3.8841  1.2313  2.2654
  112OSM   H18H11680   0.444   3.307   8.864 -0.1214 -0.8041  0.0525
  113OSM      N11681   0.176   4.501  10.796  0.5148  0.2952 -0.0860
  113OSM    C1511682   0.236   4.423  10.911  0.2423 -0.5238 -0.2079
  113OSM   H15A11683   0.342   4.434  10.893  0.4483  2.3120  1.9670
  113OSM   H15B11684   0.223   4.316  10.902  3.0009 -1.1414  1.7595
  113OSM   H15C11685   0.200   4.462  11.005  0.4491  0.7180 -0.6164
  113OSM    C1411686   0.033   4.482  10.838  0.3453  0.0303  0.5453
  113OSM   H14A11687   0.010   4.524  10.934 -1.4140  1.2770 -0.3746
  113OSM   H14B11688   0.003   4.378  10.836  0.7121 -0.1015  1.3940
  113OSM   H14C11689  -0.032   4.523  10.762 -0.0682 -1.8904 -0.1925
  113OSM    C1311690   0.209   4.652  10.821 -0.9316  0.4624  0.3405
  113OSM   H13A11691   0.316   4.669  10.826 -0.8230  0.2770 -1.1087
  113OSM   H13B11692   0.158   4.690  10.909  0.3214  1.8415  0.5039
  113OSM   H13C11693   0.172   4.709  10.738 -1.6417 -2.1819 -1.2878
  113OSM    C1211694   0.210   4.442  10.664  0.3940  0.1542  0.3696
  113OSM   H12A11695   0.315   4.465  10.651  0.6155 -0.2888  1.2651
  113OSM   H12B11696   0.163   4.507  10.592  1.0372  1.9378  1.4863
  113OSM    C1111697   0.190   4.284  10.636 -0.5143 -0.4825  0.3558
  113OSM   H11A11698   0.243   4.233  10.719 -0.4076  0.4646  0.8870
  113OSM   H11B11699   0.237   4.251  10.541 -0.2132  0.3094  0.2226
  113OSM      P11700  -0.038   4.277  10.524  0.2147 -0.5888 -0.5634
  113OSM    O1311701  -0.186   4.266  10.552  0.1719  0.0241 -0.8062
  113OSM    O1411702   0.003   4.412  10.464  0.0166  0.3411 -0.0305
  113OSM    O1111703  -0.000   4.153  10.430 -0.9267 -0.0169 -0.1898
  113OSM    O1211704   0.048   4.249  10.651  0.0965  0.0014 -0.1307
  113OSM    C1S11705  -0.100   4.080  10.353 -0.3192 -0.5368 -0.0625
  113OSM    H1S11706  -0.206   4.104  10.378  0.0558  0.5775  0.5389
  113OSM    H1T11707  -0.073   3.975  10.376  0.8288 -0.1476  0.4243
  113OSM     NF11708  -0.180   4.004  10.128  0.2995  0.6948  0.1476
  113OSM    HNF11709  -0.143   3.915  10.102 -1.1354  0.8733 -2.9215
  113OSM    C2S11710  -0.084   4.099  10.192 -0.1680  0.5334  0.1386
  113OSM    H2S11711  -0.117   4.203  10.171 -1.0257  0.4266  0.8698
  113OSM    C3S11712   0.063   4.073  10.153  0.5040 -0.2916  0.2860
  113OSM    H3S11713   0.091   3.970  10.185 -2.1971 -1.6701 -1.4446
  113OSM     O311714   0.163   4.160  10.204  0.5220  0.1725 -0.3357
  113OSM    HO311715   0.132   4.188  10.290  2.3105 -0.5152  0.5876
  113OSM    C4S11716   0.067   4.092  10.005  0.6178  0.0490 -0.3404
  113OSM    H4S11717   0.045   4.196   9.977 -0.3603  0.7646  2.7550
  113OSM    C5S11718   0.089   4.000   9.910  0.0035  0.1235 -0.6135
  113OSM    H5S11719   0.117   3.902   9.952  1.5289  0.7985  0.0318
  113OSM    C6S11720   0.091   4.020   9.764 -0.5683 -0.4483  0.4256
  113OSM    H6S11721   0.182   3.974   9.719 -0.2857  0.6786 -0.1958
  113OSM    H6T11722   0.107   4.128   9.744 -1.7256 -0.3458  0.0060
  113OSM    C7S11723  -0.026   3.960   9.691 -0.4701 -0.4613 -0.1390
  113OSM    H7S11724  -0.039   3.851   9.709  3.6931 -0.8595  1.5662
  113OSM    H7T11725  -0.010   3.974   9.582  1.6451  0.4723  0.2335
  113OSM    C8S11726  -0.163   4.037   9.721  0.3909  0.2216  0.8272
  113OSM    H8S11727  -0.162   4.140   9.679  0.0107  0.4204  1.3026
  113OSM    H8T11728  -0.185   4.032   9.829 -0.1460 -1.2409  0.6638
  113OSM    C9S11729  -0.285   3.969   9.650 -0.7321  0.4399 -0.2314
  113OSM    H9S11730  -0.376   4.028   9.675 -0.6843  1.2355 -1.8014
  113OSM    H9T11731  -0.293   3.865   9.690 -0.9180 -0.1883 -1.8376
  113OSM   C10S11732  -0.279   3.954   9.504 -0.2724  0.2370  0.4846
  113OSM   H10S11733  -0.189   3.899   9.470 -0.4684  0.8131 -1.0132
  113OSM   H10T11734  -0.274   4.053   9.454 -2.7615  0.4808  0.6078
  113OSM   C11S11735  -0.403   3.898   9.446  0.3965  0.5942 -0.2324
  113OSM   H11S11736  -0.487   3.970   9.445 -0.8841 -0.7820  1.7445
  113OSM   H11T11737  -0.433   3.814   9.512  2.1861 -0.8236 -1.1420
  113OSM   C12S11738  -0.378   3.850   9.297  0.0677  0.2487 -0.5667
  113OSM   H12S11739  -0.291   3.785   9.274  0.7164  0.7194  0.4831
  113OSM   H12T11740  -0.367   3.939   9.232 -2.2920  0.4667 -0.7504
  113OSM   C13S11741  -0.495   3.770   9.234  0.2857 -0.0984 -0.8685
  113OSM   H13S11742  -0.591   3.814   9.268  1.2048  1.2154  0.1094
  113OSM   H13T11743  -0.486   3.667   9.275  1.0677  0.1805 -0.3071
  113OSM   C14S11744  -0.487   3.760   9.085 -0.2236  0.0847  0.1240
  113OSM   H14S11745  -0.385   3.732   9.049 -0.4761  0.5895 -1.0087
  113OSM   H14T11746  -0.506   3.859   9.040  0.5204 -0.7019 -2.0568
  113OSM   C15S11747  -0.592   3.674   9.024  0.0498  0.1647 -0.1938
  113OSM   H15S11748  -0.690   3.682   9.075  0.8674 -0.8521  1.6207
  113OSM   H15T11749  -0.555   3.569   9.025  1.6969  0.7079 -0.5624
  113OSM   C16S11750  -0.618   3.705   8.875 -0.0756 -0.2821  0.3490
  113OSM   H16S11751  -0.524   3.713   8.817  0.1045  2.0430  0.8426
  113OSM   H16T11752  -0.658   3.809   8.879 -0.2758 -0.3543  0.2387
  113OSM   C17S11753  -0.724   3.624   8.802 -0.1181 -0.6299  0.3575
  113OSM   H17S11754  -0.800   3.593   8.876 -0.3957 -1.3123 -0.1993
  113OSM   H17T11755  -0.677   3.531   8.764 -1.3608 -1.1063 -0.0469
  113OSM   C18S11756  -0.795   3.701   8.687  0.3752  0.8508  0.0436
  113OSM   H18S11757  -0.888   3.649   8.655  0.0947  1.4484 -0.1414
  113OSM   H18T11758  -0.726   3.727   8.604 -0.0305 -0.7010 -0.8109
  113OSM   H18U11759  -0.832   3.798   8.728  0.9789  0.8039  0.7175
  113OSM    C1F11760  -0.314   4.014  10.130  0.5762  0.1203  0.5251
  113OSM     OF11761  -0.371   4.094  10.198 -0.2672 -0.4772  0.1392
  113OSM    C2F11762  -0.395   3.917  10.037 -0.1242  0.0820  0.1251
  113OSM    H2F11763  -0.415   3.828  10.100 -0.0420 -0.3754 -0.4886
  113OSM    H2G11764  -0.325   3.878   9.960 -0.1521 -2.1428  1.1397
  113OSM    C3F11765  -0.522   3.981   9.967 -0.1352 -0.3418 -0.1101
  113OSM    H3F11766  -0.473   4.062   9.909  1.9148 -0.0305  1.9286
  113OSM    H3G11767  -0.586   4.032  10.041  1.8246  0.2597  1.2457
  113OSM    C4F11768  -0.587   3.876   9.872  0.6208  0.4725  0.1747
  113OSM    H4F11769  -0.633   3.790   9.925  1.1307  0.5026  0.6641
  113OSM    H4G11770  -0.504   3.836   9.810 -0.0115 -0.4862 -0.0870
  113OSM    C5F11771  -0.703   3.928   9.784 -0.4008 -0.4198 -0.5179
  113OSM    H5F11772  -0.676   4.022   9.731 -0.0570 -0.5145 -0.5146
  113OSM    H5G11773  -0.791   3.956   9.846 -1.1531  1.7042 -2.3976
  113OSM    C6F11774  -0.761   3.843   9.667 -0.2280  0.0573  0.4567
  113OSM    H6F11775  -0.685   3.822   9.588 -1.5190  0.7796 -1.0321
  113OSM    H6G11776  -0.846   3.899   9.624  2.4145  4.1411 -0.0387
  113OSM    C7F11777  -0.822   3.704   9.705  0.1009  0.2311 -0.2611
  113OSM    H7F11778  -0.898   3.729   9.783 -0.5727  1.2558 -1.2113
  113OSM    H7G11779  -0.745   3.649   9.763 -1.8947 -0.1425  2.2329
  113OSM    C8F11780  -0.865   3.627   9.588 -1.1374  0.1660 -0.0922
  113OSM    H8F11781  -0.903   3.702   9.516 -0.8100  4.7352  4.0158
  113OSM    H8G11782  -0.955   3.565   9.606 -1.8190  1.1086 -0.1726
  113OSM    C9F11783  -0.750   3.540   9.536  0.7615  0.4799  0.4816
  113OSM    H9F11784  -0.663   3.524   9.601  1.0507  0.0067 -0.0172
  113OSM   C10F11785  -0.743   3.498   9.406 -0.1066  0.3671  0.1284
  113OSM   H10F11786  -0.662   3.430   9.375 -0.2375  0.6434 -0.8407
  113OSM   C11F11787  -0.849   3.522   9.302  0.5899 -0.2807  0.2548
  113OSM   H11F11788  -0.820   3.612   9.245 -1.1090  1.2617  1.6913
  113OSM   H11G11789  -0.948   3.546   9.348  0.2012  1.0012 -1.1461
  113OSM   C12F11790  -0.876   3.409   9.193 -0.0497 -0.4439 -0.5119
  113OSM   H12F11791  -0.965   3.440   9.133  1.4433 -1.0120 -3.1821
  113OSM   H12G11792  -0.917   3.321   9.246 -4.0520  1.0481 -0.7731
  113OSM   C13F11793  -0.762   3.364   9.096  0.2932 -0.7606  0.3207
  113OSM   H13F11794  -0.669   3.333   9.149  0.6815 -0.4673 -0.1694
  113OSM   H13G11795  -0.747   3.452   9.030  1.4067 -0.1735  1.3136
  113OSM   C14F11796  -0.811   3.249   9.001  0.5189  0.2531 -1.0232
  113OSM   H14F11797  -0.868   3.177   9.065  0.1664  1.7324  0.3900
  113OSM   H14G11798  -0.718   3.196   8.972 -0.1172 -2.1302  0.9333
  113OSM   C15F11799  -0.892   3.291   8.881 -0.6224 -0.5703  0.2133
  113OSM   H15F11800  -0.827   3.359   8.822  0.4216  0.3234  2.2823
  113OSM   H15G11801  -0.976   3.352   8.921 -0.3504  0.1907 -0.3357
  113OSM   C16F11802  -0.958   3.184   8.794 -0.0363 -0.0105  0.2883
  113OSM   H16F11803  -1.037   3.230   8.730  0.1320 -0.1676 -0.0342
  113OSM   H16G11804  -1.011   3.122   8.869 -0.2654 -1.2162 -0.8222
  113OSM   C17F11805  -0.869   3.091   8.707 -0.1231 -0.0655 -0.6115
  113OSM   H17F11806  -0.917   2.996   8.675  0.8040 -0.5848 -0.5102
  113OSM   H17G11807  -0.781   3.055   8.764 -0.7674 -2.3451 -0.9422
  113OSM   C18F11808  -0.822   3.165   8.581  0.7357  0.1513 -0.6116
  113OSM   H18F11809  -0.764   3.102   8.511 -1.7122 -1.1681 -1.5767
  113OSM   H18G11810  -0.771   3.254   8.624 -0.8973 -0.7755  3.7379
  113OSM   H18H11811  -0.916   3.207   8.539 -0.7464 -2.1590  0.1897
  114OSM      N11812   3.990   2.490  11.336  0.0784  0.1479 -0.0682
  114OSM    C1511813   3.956   2.451  11.193 -0.7142 -0.0906  0.2018
  114OSM   H15A11814   4.048   2.443  11.138 -1.3870 -0.4957 -0.8980
  114OSM   H15B11815   3.884   2.515  11.145 -2.1335 -0.8034  1.2958
  114OSM   H15C11816   3.922   2.349  11.203 -1.3514  0.2222  1.4814
  114OSM    C1411817   3.862   2.505  11.416  0.0239 -0.8143  0.5948
  114OSM   H14A11818   3.781   2.445  11.376 -0.6340  0.9375 -0.8167
  114OSM   H14B11819   3.828   2.606  11.398  2.5208  0.1227  0.7173
  114OSM   H14C11820   3.875   2.494  11.523 -1.6337 -1.2655  0.7886
  114OSM    C1311821   4.075   2.390  11.399  0.7961  0.5059 -0.6864
  114OSM   H13A11822   4.085   2.412  11.504  0.4381 -0.7268 -0.3836
  114OSM   H13B11823   4.174   2.397  11.355  0.6702 -1.4459 -1.3522
  114OSM   H13C11824   4.038   2.290  11.388  1.4853 -0.2055  2.5073
  114OSM    C1211825   4.053   2.631  11.333  0.3599 -0.2764  0.2117
  114OSM   H12A11826   4.146   2.631  11.277 -1.1590 -0.8837 -2.4463
  114OSM   H12B11827   4.060   2.658  11.438  0.5471 -1.2329  0.4479
  114OSM    C1111828   3.963   2.741  11.267 -0.5573 -0.4845  0.7653
  114OSM   H11A11829   3.910   2.705  11.176 -1.0437 -0.0880  0.8874
  114OSM   H11B11830   4.035   2.825  11.251  0.3592 -0.9985  2.0392
  114OSM      P11831   3.745   2.870  11.319 -0.0765  0.1530  0.7004
  114OSM    O1311832   3.654   2.873  11.430  0.1955  0.0475 -0.8649
  114OSM    O1411833   3.804   2.996  11.272  0.1018  0.1321  0.2780
  114OSM    O1111834   3.679   2.784  11.198  0.1351  1.1527  0.0570
  114OSM    O1211835   3.868   2.777  11.364  0.4105  0.2211 -0.5228
  114OSM    C1S11836   3.539   2.794  11.170  0.0579 -0.5250  0.3346
  114OSM    H1S11837   3.500   2.897  11.184 -0.5495 -0.9157  1.7160
  114OSM    H1T11838   3.477   2.738  11.243 -1.0678 -0.3421 -0.4552
  114OSM     NF11839   3.368   2.795  10.991  0.3081 -0.2213  0.2629
  114OSM    HNF11840   3.299   2.724  10.992 -0.2929  0.3553  0.1884
  114OSM    C2S11841   3.504   2.754  11.022  0.3586 -0.5206 -0.0479
  114OSM    H2S11842   3.570   2.804  10.948 -2.0489  2.6904 -0.2460
  114OSM    C3S11843   3.530   2.600  11.002  0.0227 -0.1235 -0.0726
  114OSM    H3S11844   3.449   2.545  11.054 -2.6214  1.7681 -1.9425
  114OSM     O311845   3.650   2.555  11.050  0.2927  0.4287 -0.9334
  114OSM    HO311846   3.673   2.633  11.102  2.1430  0.4503 -1.7115
  114OSM    C4S11847   3.523   2.573  10.854  0.5826 -0.0693  0.2008
  114OSM    H4S11848   3.418   2.573  10.821  0.9588 -0.0857 -1.0421
  114OSM    C5S11849   3.618   2.551  10.762 -0.2470 -0.0963  0.2391
  114OSM    H5S11850   3.720   2.534  10.799 -0.2086 -0.5814 -0.0776
  114OSM    C6S11851   3.586   2.522  10.621  0.3655 -0.2916 -0.2644
  114OSM    H6S11852   3.623   2.420  10.598  3.5061  0.4080  1.0926
  114OSM    H6T11853   3.648   2.589  10.557  0.2401  0.9434  0.8548
  114OSM    C7S11854   3.438   2.538  10.574  0.0053 -0.1514 -0.9209
  114OSM    H7S11855   3.411   2.640  10.606 -0.7549  0.3068 -2.8932
  114OSM    H7T11856   3.378   2.464  10.632  0.6545  1.8459  2.5362
  114OSM    C8S11857   3.413   2.514  10.425 -0.1782  0.0422 -0.0384
  114OSM    H8S11858   3.460   2.415  10.402 -0.6900 -0.5616  1.4336
  114OSM    H8T11859   3.476   2.593  10.379  2.0549  0.0251  2.7262
  114OSM    C9S11860   3.267   2.519  10.379  0.0553 -0.0338  0.1378
  114OSM    H9S11861   3.211   2.610  10.409 -1.5146 -0.9422  0.0655
  114OSM    H9T11862   3.213   2.435  10.427 -0.7844  0.1911 -0.3973
  114OSM   C10S11863   3.241   2.487  10.231 -0.4853 -0.5993  0.5538
  114OSM   H10S11864   3.132   2.488  10.208  0.0194  0.6716 -2.2423
  114OSM   H10T11865   3.268   2.383  10.206  1.0781 -0.1990  0.4747
  114OSM   C11S11866   3.300   2.595  10.132  0.9496 -0.6360 -1.2391
  114OSM   H11S11867   3.410   2.585  10.140  0.9844 -0.7373 -1.7903
  114OSM   H11T11868   3.274   2.700  10.159 -0.0850 -1.4551  1.1914
  114OSM   C12S11869   3.261   2.578   9.993  0.4656  0.4466 -0.2116
  114OSM   H12S11870   3.152   2.589   9.981  0.3368 -0.7894 -0.2637
  114OSM   H12T11871   3.259   2.469   9.971  1.2578 -0.2633  2.6833
  114OSM   C13S11872   3.337   2.653   9.890  0.1015 -0.1814  0.0479
  114OSM   H13S11873   3.441   2.667   9.926 -0.8353  2.0196  2.0920
  114OSM   H13T11874   3.286   2.750   9.870 -2.7648 -1.9611 -2.0259
  114OSM   C14S11875   3.346   2.581   9.756  0.3095 -0.9028 -0.9939
  114OSM   H14S11876   3.241   2.572   9.720 -0.2593  0.2315  0.2635
  114OSM   H14T11877   3.385   2.478   9.770  1.3618 -0.6577 -1.9590
  114OSM   C15S11878   3.417   2.663   9.647 -0.4593  0.0787  0.2751
  114OSM   H15S11879   3.522   2.675   9.681 -0.2404 -0.4448 -0.2022
  114OSM   H15T11880   3.366   2.761   9.630 -3.9056 -1.7404 -0.7775
  114OSM   C16S11881   3.421   2.594   9.505  0.3700  0.2095  0.5070
  114OSM   H16S11882   3.461   2.490   9.512 -1.8802 -0.8287 -0.6984
  114OSM   H16T11883   3.485   2.663   9.447 -0.4805  0.6943  0.1288
  114OSM   C17S11884   3.283   2.586   9.438  0.0911  0.0433  0.1380
  114OSM   H17S11885   3.231   2.497   9.479 -0.4203 -0.3712 -1.3580
  114OSM   H17T11886   3.292   2.569   9.329 -0.0890 -0.7952  0.2437
  114OSM   C18S11887   3.194   2.710   9.444  0.4217 -0.5024  0.2010
  114OSM   H18S11888   3.146   2.725   9.543 -1.3999  2.5655 -1.0005
  114OSM   H18T11889   3.110   2.706   9.371 -0.6489 -0.4534  1.3799
  114OSM   H18U11890   3.260   2.793   9.412  0.5861 -1.7013 -2.8905
  114OSM    C1F11891   3.318   2.916  10.964  0.0026 -0.0761  0.0048
  114OSM     OF11892   3.395   3.010  10.953  0.1497 -0.0848  0.0921
  114OSM    C2F11893   3.166   2.921  10.948 -0.1879 -1.0578 -0.6884
  114OSM    H2F11894   3.129   2.991  11.025  1.4470  0.6945 -1.4100
  114OSM    H2G11895   3.119   2.822  10.965 -1.7489 -0.4604 -1.3260
  114OSM    C3F11896   3.130   2.986  10.812  0.5590  0.3786  0.3098
  114OSM    H3F11897   3.182   3.082  10.790  0.2655  0.5702  0.4434
  114OSM    H3G11898   3.024   3.015  10.824  1.0076  2.1368  0.2664
  114OSM    C4F11899   3.162   2.888  10.697  0.5114 -0.4222  0.4748
  114OSM    H4F11900   3.105   2.793  10.705  1.3562 -0.8297  2.2293
  114OSM    H4G11901   3.265   2.848  10.707  0.2945 -0.8928  0.8628
  114OSM    C5F11902   3.152   2.959  10.553 -0.7242  0.1409 -0.4699
  114OSM    H5F11903   3.111   3.062  10.557 -3.8711 -0.9037 -1.9161
  114OSM    H5G11904   3.087   2.898  10.486  1.6639  0.6762 -3.4658
  114OSM    C6F11905   3.298   2.952  10.488 -0.3735 -0.6309  0.3709
  114OSM    H6F11906   3.326   2.844  10.488 -0.3061 -0.6663  2.6752
  114OSM    H6G11907   3.361   3.024  10.544 -1.6627  0.7406  0.0990
  114OSM    C7F11908   3.296   3.004  10.340  0.1987  0.2917  0.2039
  114OSM    H7F11909   3.267   2.911  10.288 -2.0977  0.6630  0.7374
  114OSM    H7G11910   3.392   3.039  10.296 -0.6673  3.4277  0.5314
  114OSM    C8F11911   3.197   3.117  10.303 -0.6899 -0.7467  0.4223
  114OSM    H8F11912   3.099   3.073  10.333 -1.1329  0.2829  0.5090
  114OSM    H8G11913   3.182   3.128  10.193 -0.4749  1.4328  0.5652
  114OSM    C9F11914   3.241   3.252  10.369 -0.6203  0.8463  0.1226
  114OSM    H9F11915   3.269   3.259  10.475 -0.7102  0.0841  0.2050
  114OSM   C10F11916   3.246   3.368  10.306  0.1999 -0.5406  0.9638
  114OSM   H10F11917   3.282   3.459  10.357 -2.7546  0.7725  0.9283
  114OSM   C11F11918   3.214   3.386  10.160  0.0813 -0.0624 -0.1262
  114OSM   H11F11919   3.174   3.489  10.157  1.9059  0.7859  2.1953
  114OSM   H11G11920   3.131   3.320  10.127 -1.5806  1.4086  0.9258
  114OSM   C12F11921   3.330   3.378  10.068  0.4229  0.0548 -0.1159
  114OSM   H12F11922   3.381   3.280  10.083 -2.6232 -1.5500  0.5196
  114OSM   H12G11923   3.398   3.461  10.096 -0.0248  0.9055 -1.4526
  114OSM   C13F11924   3.292   3.402   9.920  0.0355 -0.0009 -0.5275
  114OSM   H13F11925   3.378   3.385   9.851  0.4955  0.9074 -0.1884
  114OSM   H13G11926   3.266   3.510   9.923 -1.4343 -0.2154 -2.8667
  114OSM   C14F11927   3.170   3.324   9.873 -0.4339  0.3394  0.9014
  114OSM   H14F11928   3.153   3.372   9.775  0.2690 -0.8254  0.1801
  114OSM   H14G11929   3.075   3.346   9.927 -0.3198  2.9207  0.1479
  114OSM   C15F11930   3.198   3.170   9.857 -0.3252  0.1550  0.5997
  114OSM   H15F11931   3.211   3.136   9.962 -0.5455 -0.4261  0.4416
  114OSM   H15G11932   3.296   3.158   9.805 -1.8936  0.1569 -2.5803
  114OSM   C16F11933   3.079   3.094   9.797  0.6244 -0.3916  0.0193
  114OSM   H16F11934   2.984   3.128   9.844  1.0327  1.4997 -0.4746
  114OSM   H16G11935   3.092   2.986   9.821  2.1624  0.0419  1.2968
  114OSM   C17F11936   3.064   3.113   9.645  0.2107  0.2580  0.0846
  114OSM   H17F11937   3.028   3.212   9.610  0.0259 -0.5727 -2.2697
  114OSM   H17G11938   2.981   3.045   9.615 -1.2006  1.2297  1.5746
  114OSM   C18F11939   3.193   3.082   9.566  0.1977 -0.9168  0.5293
  114OSM   H18F11940   3.258   3.171   9.575  1.5398 -1.7653 -0.4286
  114OSM   H18G11941   3.177   3.067   9.457 -0.1607 -0.7597  0.5569
  114OSM   H18H11942   3.256   2.995   9.595  2.1675 -0.1406 -1.1903
  115OSM      N11943   4.428   6.286   5.793 -0.6621 -0.3219  0.8283
  115OSM    C1511944   4.487   6.312   5.653 -0.1092 -0.1258 -0.1621
  115OSM   H15A11945   4.416   6.279   5.579 -1.6920  1.8924  0.3466
  115OSM   H15B11946   4.576   6.254   5.634 -1.3712 -1.2951 -3.2553
  115OSM   H15C11947   4.502   6.417   5.632 -1.5530  1.1234  4.0883
  115OSM    C1411948   4.322   6.378   5.828 -0.4629 -0.1498 -0.0744
  115OSM   H14A11949   4.363   6.477   5.838 -1.1079 -0.0032  1.2612
  115OSM   H14B11950   4.283   6.347   5.923  0.6398  0.0469  0.4587
  115OSM   H14C11951   4.241   6.379   5.756 -1.3104 -0.5245  0.8465
  115OSM    C1311952   4.370   6.146   5.800 -0.2345 -0.7457  0.6439
  115OSM   H13A11953   4.438   6.072   5.761 -1.0077 -0.4845 -1.2943
  115OSM   H13B11954   4.285   6.141   5.733  0.6006  3.0744 -0.9771
  115OSM   H13C11955   4.348   6.116   5.901  1.3302  1.3587  1.6897
  115OSM    C1211956   4.539   6.294   5.894 -0.4203 -0.1200 -0.1160
  115OSM   H12A11957   4.588   6.389   5.881 -0.5575  0.0929  0.8509
  115OSM   H12B11958   4.609   6.217   5.866 -0.1138  0.2542 -0.3774
  115OSM    C1111959   4.511   6.282   6.049  0.0217 -0.5231  0.6653
  115OSM   H11A11960   4.446   6.365   6.084  0.4614  0.0682  0.1113
  115OSM   H11B11961   4.601   6.290   6.113 -0.0627 -0.7803  0.8177
  115OSM      P11962   4.527   6.024   6.114  0.0261  0.0523 -0.3174
  115OSM    O1311963   4.447   5.912   6.057  0.0227  0.0794  0.3345
  115OSM    O1411964   4.662   6.054   6.065  0.3667 -0.2053 -0.4353
  115OSM    O1111965   4.529   6.006   6.269 -0.4516 -0.1203  0.4208
  115OSM    O1211966   4.455   6.158   6.092  0.3414  0.0280 -0.1825
  115OSM    C1S11967   4.427   6.068   6.351 -0.0382 -1.1885  0.3614
  115OSM    H1S11968   4.329   6.055   6.301  0.3565 -0.2151 -0.7092
  115OSM    H1T11969   4.457   6.172   6.376  0.7076 -1.3147  0.0108
  115OSM     NF11970   4.313   6.056   6.572 -0.1951 -0.2101 -0.0872
  115OSM    HNF11971   4.352   6.092   6.656  0.4209  1.4863 -1.0642
  115OSM    C2S11972   4.401   5.982   6.479  0.0639 -0.1895  0.3188
  115OSM    H2S11973   4.359   5.882   6.453  2.2563 -0.6056 -1.9504
  115OSM    C3S11974   4.539   5.940   6.547 -0.0036  0.5599 -0.2392
  115OSM    H3S11975   4.586   6.033   6.585  2.4527 -1.0296  0.8763
  115OSM     O311976   4.638   5.869   6.469  0.2161 -0.0591 -0.1315
  115OSM    HO311977   4.609   5.865   6.378 -0.9432  0.6970  0.1917
  115OSM    C4S11978   4.510   5.844   6.661  0.3767  0.0353  0.3326
  115OSM    H4S11979   4.453   5.757   6.624  0.3228 -0.6815  2.0232
  115OSM    C5S11980   4.528   5.871   6.791  0.5811  0.3477 -0.0788
  115OSM    H5S11981   4.575   5.962   6.830 -0.8680  0.6800  0.9750
  115OSM    C6S11982   4.493   5.770   6.900 -0.4902 -0.1494  0.1998
  115OSM    H6S11983   4.548   5.802   6.991  2.4611 -1.6867 -0.9139
  115OSM    H6T11984   4.521   5.663   6.887 -0.7791 -0.1426 -0.5152
  115OSM    C7S11985   4.340   5.772   6.939  0.1773 -0.0974  0.3040
  115OSM    H7S11986   4.280   5.741   6.851  0.8718 -1.3700  0.2546
  115OSM    H7T11987   4.315   5.873   6.979  1.8398  0.9612 -1.1649
  115OSM    C8S11988   4.307   5.660   7.046 -0.0508  0.4129  0.1234
  115OSM    H8S11989   4.367   5.567   7.037  1.3682  1.3487 -0.5792
  115OSM    H8T11990   4.199   5.639   7.035  0.3687 -0.7605 -2.5009
  115OSM    C9S11991   4.345   5.709   7.185 -0.4302 -0.5275 -0.2147
  115OSM    H9S11992   4.311   5.813   7.200  1.5388  0.3910 -1.6972
  115OSM    H9T11993   4.456   5.718   7.188 -0.5513  0.9945  2.0739
  115OSM   C10S11994   4.274   5.628   7.296  0.9785 -0.1168 -0.2440
  115OSM   H10S11995   4.298   5.520   7.285  1.2832 -0.4444  2.7446
  115OSM   H10T11996   4.165   5.638   7.279  0.7608 -0.6153  0.7609
  115OSM   C11S11997   4.309   5.658   7.450  0.5637 -0.8143  0.2576
  115OSM   H11S11998   4.228   5.608   7.507  0.0296 -0.6598 -0.3503
  115OSM   H11T11999   4.304   5.768   7.462  1.5862 -0.4517 -2.1372
  115OSM   C12S12000   4.454   5.606   7.497  0.6958  0.3269  0.1534
  115OSM   H12S12001   4.527   5.677   7.453  1.9534  1.2250  3.4335
  115OSM   H12T12002   4.472   5.504   7.457  2.6747  1.3431 -1.7010
  115OSM   C13S12003   4.470   5.595   7.652  0.4038 -0.5014 -0.8576
  115OSM   H13S12004   4.388   5.529   7.690  0.9648 -0.3867  0.6470
  115OSM   H13T12005   4.454   5.694   7.701 -2.5262 -0.9377 -0.7601
  115OSM   C14S12006   4.604   5.539   7.706  0.9379 -0.4450 -0.5527
  115OSM   H14S12007   4.690   5.609   7.698  0.5578  0.2693  1.0316
  115OSM   H14T12008   4.637   5.444   7.659  0.1355  0.2653 -2.6495
  115OSM   C15S12009   4.598   5.532   7.858 -0.5260 -0.5325  0.1692
  115OSM   H15S12010   4.506   5.476   7.884 -2.0257  2.5722  2.0106
  115OSM   H15T12011   4.599   5.634   7.902  1.2247 -0.6620  0.5292
  115OSM   C16S12012   4.723   5.457   7.910 -0.2268 -0.3224 -0.2299
  115OSM   H16S12013   4.772   5.394   7.833 -0.1663 -0.2668 -0.2370
  115OSM   H16T12014   4.690   5.398   7.998 -0.8762 -0.4858 -0.5809
  115OSM   C17S12015   4.828   5.545   7.972  0.3861  0.0793  0.1029
  115OSM   H17S12016   4.777   5.629   8.024 -2.3923 -0.9098 -0.8411
  115OSM   H17T12017   4.888   5.595   7.894  0.0287 -1.6821 -1.3629
  115OSM   C18S12018   4.920   5.459   8.056  0.3732 -0.4765 -0.0485
  115OSM   H18S12019   5.000   5.522   8.099  1.2894 -0.2709 -1.9209
  115OSM   H18T12020   4.967   5.380   7.993  0.1498  0.9203 -2.0616
  115OSM   H18U12021   4.866   5.414   8.141 -0.7778 -2.3633 -1.6825
  115OSM    C1F12022   4.184   6.066   6.552  0.3971 -0.1451 -0.1056
  115OSM     OF12023   4.125   6.015   6.458  0.0169  0.0490  0.5673
  115OSM    C2F12024   4.111   6.152   6.649 -0.1650 -0.2052 -0.2635
  115OSM    H2F12025   4.066   6.228   6.583  0.5739 -0.0255 -0.5689
  115OSM    H2G12026   4.178   6.201   6.723 -1.0592  0.1646  0.3200
  115OSM    C3F12027   3.996   6.070   6.714 -0.4897 -0.8738 -0.2018
  115OSM    H3F12028   3.930   6.029   6.634 -2.3037  0.1786  0.6879
  115OSM    H3G12029   3.921   6.134   6.765  0.0426  0.6440 -1.2511
  115OSM    C4F12030   4.038   5.964   6.818  0.5429 -0.2020 -0.8227
  115OSM    H4F12031   4.085   6.014   6.906 -0.3185 -2.2242  0.8794
  115OSM    H4G12032   4.110   5.896   6.769  0.0414 -2.6141  1.5634
  115OSM    C5F12033   3.909   5.881   6.860 -0.1387 -0.4549 -0.4904
  115OSM    H5F12034   3.853   5.843   6.772  0.5614 -1.0592 -0.6919
  115OSM    H5G12035   3.848   5.933   6.936  1.2857 -1.2451  1.2752
  115OSM    C6F12036   3.963   5.766   6.948  0.2123  0.3577  0.8014
  115OSM    H6F12037   4.037   5.813   7.017  1.1615  0.5271 -0.3183
  115OSM    H6G12038   4.012   5.690   6.884  0.0275  2.1994 -1.6543
  115OSM    C7F12039   3.849   5.707   7.033  0.2744 -0.4644 -0.5400
  115OSM    H7F12040   3.783   5.646   6.968  1.1041  0.0337 -1.9024
  115OSM    H7G12041   3.788   5.787   7.080 -0.1266 -0.7346 -0.5949
  115OSM    C8F12042   3.897   5.620   7.149 -0.5948 -0.6059  0.2633
  115OSM    H8F12043   3.966   5.690   7.201  1.5044 -0.0080 -3.0185
  115OSM    H8G12044   3.956   5.541   7.099 -1.9417 -0.2868 -1.9289
  115OSM    C9F12045   3.785   5.568   7.238 -0.5501 -0.1341  0.8562
  115OSM    H9F12046   3.720   5.504   7.178 -1.9225 -0.1461  2.2781
  115OSM   C10F12047   3.769   5.582   7.371  0.4852  0.4491 -0.1167
  115OSM   H10F12048   3.678   5.535   7.413  0.0337 -1.3975 -2.9251
  115OSM   C11F12049   3.854   5.655   7.465 -0.7549  0.3774  0.0734
  115OSM   H11F12050   3.794   5.741   7.501 -0.5252  0.4369  0.3199
  115OSM   H11G12051   3.946   5.697   7.419 -2.1013  2.6032 -0.7212
  115OSM   C12F12052   3.916   5.575   7.586 -0.3015  0.6218  0.7939
  115OSM   H12F12053   3.988   5.505   7.539 -2.0009 -0.0707 -0.8721
  115OSM   H12G12054   3.846   5.500   7.628  1.3152 -1.6833 -0.4435
  115OSM   C13F12055   3.983   5.660   7.691  0.2164 -0.1205 -0.1317
  115OSM   H13F12056   3.914   5.738   7.731 -1.8444 -1.6622 -0.5587
  115OSM   H13G12057   4.063   5.723   7.646  0.5345 -0.3307  0.1351
  115OSM   C14F12058   4.048   5.571   7.797 -0.0174  0.6139 -0.6782
  115OSM   H14F12059   4.076   5.484   7.733 -1.3688 -0.4528  0.1244
  115OSM   H14G12060   3.966   5.548   7.868  1.1860 -1.9670  0.0082
  115OSM   C15F12061   4.161   5.635   7.866 -0.2830 -0.0843  0.1535
  115OSM   H15F12062   4.141   5.741   7.893 -1.8940 -0.0976 -0.8211
  115OSM   H15G12063   4.243   5.636   7.791 -1.5962 -3.5130 -1.5802
  115OSM   C16F12064   4.207   5.550   7.988  0.4738  0.6563 -0.5123
  115OSM   H16F12065   4.267   5.461   7.958 -1.1560 -0.4573 -0.5735
  115OSM   H16G12066   4.109   5.514   8.025 -0.0619 -0.0581 -2.4955
  115OSM   C17F12067   4.281   5.641   8.089 -0.1278  0.0760 -0.0505
  115OSM   H17F12068   4.218   5.732   8.093 -0.1100  0.1727 -1.4476
  115OSM   H17G12069   4.381   5.676   8.054  0.2769  0.0940  1.0709
  115OSM   C18F12070   4.302   5.574   8.228  0.5829 -0.6164  0.6830
  115OSM   H18F12071   4.345   5.646   8.301 -2.1345  1.0861  0.7425
  115OSM   H18G12072   4.372   5.488   8.218  0.3134 -0.7063 -0.5131
  115OSM   H18H12073   4.203   5.548   8.272 -0.6107  1.7743 -0.4186
  116OSM      N12074   2.500   1.669   6.216 -0.4573 -0.0225 -0.4643
  116OSM    C1512075   2.491   1.670   6.366 -0.0335  0.0950  0.0747
  116OSM   H15A12076   2.468   1.769   6.401 -2.9786  0.1115 -1.5288
  116OSM   H15B12077   2.583   1.631   6.406  0.1115 -0.5747 -0.8666
  116OSM   H15C12078   2.417   1.594   6.390  0.3942 -0.3146  0.1123
  116OSM    C1412079   2.360   1.681   6.151  0.5437 -0.0902  0.0790
  116OSM   H14A12080   2.291   1.611   6.195  0.1422 -0.4498 -1.0913
  116OSM   H14B12081   2.366   1.666   6.044  2.5053  0.4599  0.0664
  116OSM   H14C12082   2.334   1.784   6.169 -2.6177 -0.6705 -0.6769
  116OSM    C1312083   2.581   1.787   6.174  0.6484 -0.0588 -0.1915
  116OSM   H13A12084   2.686   1.766   6.183  0.5202 -1.7801 -1.9525
  116OSM   H13B12085   2.565   1.874   6.236 -0.6945 -1.6729  1.8689
  116OSM   H13C12086   2.555   1.813   6.073 -0.3495  0.6358  0.2316
  116OSM    C1212087   2.569   1.541   6.160 -0.0434 -0.2811 -0.5605
  116OSM   H12A12088   2.570   1.535   6.052  3.3189  2.3528 -0.8271
  116OSM   H12B12089   2.499   1.461   6.178  0.3194 -0.4497  0.1288
  116OSM    C1112090   2.693   1.480   6.225 -0.6108 -0.5007  0.1565
  116OSM   H11A12091   2.711   1.381   6.178 -1.2826 -0.1566 -0.8475
  116OSM   H11B12092   2.674   1.452   6.331  1.5776 -1.1543  0.4378
  116OSM      P12093   2.948   1.521   6.239  0.4112  0.0689 -0.0999
  116OSM    O1312094   2.969   1.387   6.188 -0.0193  0.7502 -0.2198
  116OSM    O1412095   3.035   1.618   6.177 -0.1111  0.0883  0.1559
  116OSM    O1112096   2.967   1.502   6.392  0.2302 -0.3937  0.4207
  116OSM    O1212097   2.803   1.574   6.216 -0.3021 -0.0288 -0.2312
  116OSM    C1S12098   2.898   1.604   6.472  0.7249 -0.4109  0.3316
  116OSM    H1S12099   2.789   1.604   6.453  0.2948  4.1792  1.5857
  116OSM    H1T12100   2.934   1.707   6.450 -0.6861  0.6834  2.6911
  116OSM     NF12101   2.806   1.674   6.699 -0.0705  0.3053  0.1070
  116OSM    HNF12102   2.839   1.760   6.738  1.9763 -0.5679  0.4234
  116OSM    C2S12103   2.905   1.597   6.628  0.7178 -0.1874 -0.0417
  116OSM    H2S12104   2.882   1.493   6.659 -0.2243 -1.1063 -3.3671
  116OSM    C3S12105   3.055   1.621   6.679  0.2195 -0.1813  0.8602
  116OSM    H3S12106   3.078   1.729   6.682 -1.1534  0.2370 -1.1202
  116OSM     O312107   3.157   1.561   6.595  0.3229  0.2828 -0.1773
  116OSM    HO312108   3.116   1.538   6.511  0.4045 -2.1420  0.3785
  116OSM    C4S12109   3.069   1.579   6.832  0.3281  0.1990 -0.1540
  116OSM    H4S12110   3.068   1.661   6.904 -0.6899 -0.3779  0.5225
  116OSM    C5S12111   3.094   1.450   6.876  0.5899 -0.3996  0.1804
  116OSM    H5S12112   3.122   1.377   6.799 -0.6314  1.1024 -1.7693
  116OSM    C6S12113   3.105   1.408   7.020 -0.2320  0.3143  0.0883
  116OSM    H6S12114   3.209   1.369   7.032  0.3381  1.7541  0.0163
  116OSM    H6T12115   3.033   1.326   7.040  1.4372 -1.1697  0.3572
  116OSM    C7S12116   3.060   1.511   7.127 -0.6340  0.0735 -0.4702
  116OSM    H7S12117   2.955   1.530   7.094 -1.2384 -0.4088  1.0720
  116OSM    H7T12118   3.129   1.598   7.126 -0.7931  0.1992 -0.5879
  116OSM    C8S12119   3.063   1.464   7.270 -0.0907  0.3681  0.1770
  116OSM    H8S12120   3.163   1.429   7.302 -0.3441  0.5344  1.1875
  116OSM    H8T12121   2.991   1.379   7.273 -0.3750  0.3739 -2.9871
  116OSM    C9S12122   3.012   1.583   7.355  0.7539  0.0814 -0.7659
  116OSM    H9S12123   2.903   1.592   7.334  0.2015 -1.1468  1.2231
  116OSM    H9T12124   3.069   1.676   7.334 -0.7933  1.5547  1.1684
  116OSM   C10S12125   3.023   1.557   7.505  0.7693 -0.3223  0.3049
  116OSM   H10S12126   3.130   1.545   7.534  0.9791 -2.2885 -1.0968
  116OSM   H10T12127   2.962   1.468   7.530 -1.6487  1.1405 -0.0212
  116OSM   C11S12128   2.960   1.682   7.579 -0.6091  0.2605  0.1076
  116OSM   H11S12129   2.851   1.662   7.584 -0.6545  0.6881  1.3048
  116OSM   H11T12130   2.975   1.781   7.532  0.7376  2.0034  3.7861
  116OSM   C12S12131   3.003   1.694   7.725 -0.1546  0.4772 -0.2986
  116OSM   H12S12132   2.926   1.762   7.769 -0.3479  0.6307 -0.8583
  116OSM   H12T12133   3.091   1.761   7.717 -1.1525  1.6133 -3.1304
  116OSM   C13S12134   3.002   1.559   7.798  0.8061 -0.7107 -0.1021
  116OSM   H13S12135   3.037   1.473   7.738 -0.2839 -0.7274 -0.7501
  116OSM   H13T12136   2.894   1.533   7.801  0.5191  0.2552 -1.0242
  116OSM   C14S12137   3.075   1.571   7.933  0.5723  0.0443  0.0837
  116OSM   H14S12138   3.175   1.607   7.901 -0.5976  1.9522 -1.7014
  116OSM   H14T12139   3.086   1.473   7.984  0.6325  0.2422  0.4571
  116OSM   C15S12140   3.020   1.665   8.038  0.2754 -0.1327  0.3272
  116OSM   H15S12141   2.919   1.622   8.056  0.4187 -0.8942 -0.5971
  116OSM   H15T12142   3.004   1.769   8.001  0.7184 -0.3676 -0.5410
  116OSM   C16S12143   3.111   1.683   8.163  0.1094  0.4650  0.0023
  116OSM   H16S12144   3.180   1.770   8.153 -2.0535  2.4319  1.1264
  116OSM   H16T12145   3.191   1.607   8.157  2.0603  2.5375 -2.1508
  116OSM   C17S12146   3.027   1.674   8.296  0.0549  0.3480 -0.2255
  116OSM   H17S12147   3.084   1.618   8.373 -1.2568  1.0800  1.3388
  116OSM   H17T12148   2.940   1.614   8.263  0.0451  0.3332 -0.1716
  116OSM   C18S12149   2.980   1.812   8.357 -0.4061  1.0127 -0.5138
  116OSM   H18S12150   2.936   1.881   8.281 -0.3417  1.4357 -0.1708
  116OSM   H18T12151   3.066   1.863   8.405  1.1882 -2.3418  0.4172
  116OSM   H18U12152   2.909   1.800   8.442  0.4900  2.2032  0.4389
  116OSM    C1F12153   2.679   1.640   6.691  0.8119  0.0742  0.4873
  116OSM     OF12154   2.645   1.546   6.621  0.1632 -0.4670 -0.4909
  116OSM    C2F12155   2.582   1.743   6.760 -0.3880 -0.1663 -0.5637
  116OSM    H2F12156   2.522   1.794   6.682 -1.4206  0.1720  0.4165
  116OSM    H2G12157   2.641   1.814   6.823 -0.9593 -0.2843  0.1212
  116OSM    C3F12158   2.479   1.660   6.844  0.1662  0.2795 -0.2247
  116OSM    H3F12159   2.540   1.615   6.925  0.1130 -1.3119 -1.0210
  116OSM    H3G12160   2.439   1.573   6.787  0.3828  0.2602 -0.3482
  116OSM    C4F12161   2.361   1.741   6.901 -0.4854  0.0771  0.0474
  116OSM    H4F12162   2.303   1.794   6.823 -0.2938  0.8372  0.4195
  116OSM    H4G12163   2.418   1.808   6.969  0.2228 -2.1559  1.8076
  116OSM    C5F12164   2.254   1.655   6.972  0.0263 -0.1844 -0.3125
  116OSM    H5F12165   2.309   1.587   7.040  1.1346  0.4137 -0.5926
  116OSM    H5G12166   2.203   1.610   6.884  1.8394  0.2500 -1.6330
  116OSM    C6F12167   2.145   1.737   7.051 -0.4361 -0.5050 -0.2698
  116OSM    H6F12168   2.110   1.815   6.980  0.2510 -0.3722 -0.4734
  116OSM    H6G12169   2.194   1.789   7.136  0.2360  0.6218 -1.3041
  116OSM    C7F12170   2.021   1.655   7.088 -0.2375  0.7530 -0.6003
  116OSM    H7F12171   2.069   1.583   7.158  1.3264  0.3875 -1.9775
  116OSM    H7G12172   1.991   1.598   6.998  0.3295 -0.0933 -0.2661
  116OSM    C8F12173   1.901   1.744   7.146 -0.8230  0.4608 -0.4432
  116OSM    H8F12174   1.841   1.801   7.071 -1.9425  0.6450  0.5579
  116OSM    H8G12175   1.936   1.821   7.218 -0.8569  1.3501 -1.3599
  116OSM    C9F12176   1.820   1.655   7.228  0.5555 -0.0789  0.4096
  116OSM    H9F12177   1.738   1.606   7.174  0.9445  0.2568 -0.5189
  116OSM   C10F12178   1.841   1.623   7.361  0.1877 -0.1260  0.1634
  116OSM   H10F12179   1.767   1.554   7.405  0.0211  0.1499  0.3149
  116OSM   C11F12180   1.950   1.683   7.458  0.6318  1.0025  0.0779
  116OSM   H11F12181   2.025   1.744   7.403  1.7379 -0.2929  0.1031
  116OSM   H11G12182   2.000   1.602   7.515 -2.0763  0.8284  2.4412
  116OSM   C12F12183   1.871   1.762   7.569 -0.9359 -0.4937  0.4208
  116OSM   H12F12184   1.790   1.822   7.522 -0.4280 -0.4180 -0.3713
  116OSM   H12G12185   1.953   1.823   7.613 -1.0251 -0.2047  0.1846
  116OSM   C13F12186   1.834   1.672   7.691 -0.3281  0.2648  0.1244
  116OSM   H13F12187   1.928   1.628   7.731  0.0055 -1.7113 -2.5355
  116OSM   H13G12188   1.774   1.590   7.645 -0.1758  0.2720 -0.0915
  116OSM   C14F12189   1.753   1.753   7.799 -0.0139  0.2217  0.7098
  116OSM   H14F12190   1.676   1.789   7.727  0.5647  0.4544  0.2038
  116OSM   H14G12191   1.811   1.836   7.843 -0.1037  0.7200 -0.0926
  116OSM   C15F12192   1.702   1.651   7.893 -0.6887 -0.7069 -0.4411
  116OSM   H15F12193   1.777   1.582   7.938 -2.6362 -1.0454  2.5866
  116OSM   H15G12194   1.633   1.589   7.831 -1.8449  0.4541 -0.3578
  116OSM   C16F12195   1.617   1.709   8.004 -0.8152  0.0798 -0.3200
  116OSM   H16F12196   1.528   1.644   8.017  1.2513 -2.8762 -0.0577
  116OSM   H16G12197   1.578   1.807   7.967 -0.8215 -0.4524 -1.7788
  116OSM   C17F12198   1.689   1.718   8.137  0.3537  0.3490 -0.0656
  116OSM   H17F12199   1.780   1.780   8.122 -0.3626  1.6550  0.7389
  116OSM   H17G12200   1.713   1.618   8.179 -2.7981  0.3878  2.2646
  116OSM   C18F12201   1.605   1.794   8.246  0.2969 -0.2933 -0.3789
  116OSM   H18F12202   1.650   1.777   8.346 -0.1442  1.1192  0.0769
  116OSM   H18G12203   1.500   1.760   8.254  0.1606  0.3288  0.6931
  116OSM   H18H12204   1.604   1.903   8.227 -2.4946 -0.0382  0.7045
  117OSM      N12205   1.738   6.584   6.453 -0.2907 -0.4191  0.1465
  117OSM    C1512206   1.634   6.480   6.431 -0.7700  0.3256  0.3624
  117OSM   H15A12207   1.538   6.510   6.471 -0.7449  0.1662  0.5443
  117OSM   H15B12208   1.669   6.390   6.477 -0.1057  0.7005  0.5968
  117OSM   H15C12209   1.615   6.459   6.327  1.3087  0.0515  0.0123
  117OSM    C1412210   1.717   6.704   6.364  0.3817  0.3902 -0.0832
  117OSM   H14A12211   1.756   6.682   6.266  0.1412 -2.4472  0.3638
  117OSM   H14B12212   1.776   6.780   6.413  1.7934 -1.3596  1.0582
  117OSM   H14C12213   1.614   6.736   6.359  0.5828  0.9132 -0.9877
  117OSM    C1312214   1.723   6.637   6.591  0.1065  0.0543 -0.8479
  117OSM   H13A12215   1.803   6.704   6.618 -0.0134 -0.3016  0.4245
  117OSM   H13B12216   1.708   6.556   6.660  2.9680 -1.6339 -2.0341
  117OSM   H13C12217   1.637   6.702   6.597  0.2022  0.1511 -0.4963
  117OSM    C1212218   1.875   6.527   6.440 -1.1739 -0.5572 -0.1184
  117OSM   H12A12219   1.885   6.437   6.499  0.4561 -0.4237 -0.1379
  117OSM   H12B12220   1.938   6.588   6.503 -1.7363  0.0876 -0.1666
  117OSM    C1112221   1.948   6.515   6.305  0.2503 -0.3668  0.4771
  117OSM   H11A12222   2.044   6.460   6.320  1.0661  1.2323  1.4192
  117OSM   H11B12223   1.988   6.612   6.270 -0.3880 -0.0477  0.6323
  117OSM      P12224   1.847   6.300   6.189 -0.0695 -0.1847  0.3307
  117OSM    O1312225   1.712   6.292   6.141 -0.6067  0.3122  0.2866
  117OSM    O1412226   1.947   6.236   6.108 -0.7215  0.1841  0.0167
  117OSM    O1112227   1.865   6.259   6.341  0.4127  0.0407  0.3228
  117OSM    O1212228   1.878   6.456   6.200  0.4648  0.4836  0.9878
  117OSM    C1S12229   1.960   6.162   6.375 -0.2835  1.2642  0.3594
  117OSM    H1S12230   2.064   6.198   6.360 -0.1529  1.0746  0.7970
  117OSM    H1T12231   1.941   6.064   6.325 -1.2727  0.8074  1.5793
  117OSM     NF12232   2.098   6.055   6.555 -0.1977  0.1949  0.1656
  117OSM    HNF12233   2.098   5.956   6.558 -1.9344 -0.0279 -2.7641
  117OSM    C2S12234   1.966   6.128   6.532 -0.5098  0.5713  0.5116
  117OSM    H2S12235   1.954   6.231   6.573  3.0709  1.3576 -0.0852
  117OSM    C3S12236   1.841   6.046   6.563  0.0119  0.9631 -0.2231
  117OSM    H3S12237   1.852   5.947   6.512  0.6764  0.5884  0.6305
  117OSM     O312238   1.717   6.091   6.512 -0.0076  0.2414 -0.4111
  117OSM    HO312239   1.735   6.171   6.462 -0.3141 -0.3242 -1.4450
  117OSM    C4S12240   1.826   6.027   6.714  0.2198  0.3774 -0.3486
  117OSM    H4S12241   1.851   6.108   6.783 -0.2396 -0.0394  0.3224
  117OSM    C5S12242   1.785   5.910   6.765  0.0956 -0.6234  0.8016
  117OSM    H5S12243   1.764   5.828   6.694 -0.0621 -1.8289  2.1793
  117OSM    C6S12244   1.771   5.872   6.909 -0.1131  0.4810 -0.7139
  117OSM    H6S12245   1.832   5.780   6.920 -0.2050  0.3685 -1.1314
  117OSM    H6T12246   1.664   5.848   6.928 -0.6548  2.8246 -0.4676
  117OSM    C7S12247   1.829   5.969   7.010 -0.3258 -0.6710  0.4885
  117OSM    H7S12248   1.791   6.072   6.992  1.6104 -0.1940 -1.4274
  117OSM    H7T12249   1.937   5.966   6.984 -0.3372  1.7432 -0.1188
  117OSM    C8S12250   1.808   5.932   7.154  0.0687  0.1220 -0.1730
  117OSM    H8S12251   1.843   5.829   7.178 -0.5573 -0.3550 -1.2495
  117OSM    H8T12252   1.698   5.935   7.171  0.2892  0.0721  1.3751
  117OSM    C9S12253   1.868   6.029   7.247 -0.2275  0.3543  0.4849
  117OSM    H9S12254   1.810   6.122   7.232 -3.4787 -1.8809 -1.9233
  117OSM    H9T12255   1.978   6.031   7.229  0.1646  1.7292  2.6371
  117OSM   C10S12256   1.854   5.973   7.388  0.5849 -0.1743  0.8439
  117OSM   H10S12257   1.908   5.876   7.383 -2.4080 -1.9354  0.2798
  117OSM   H10T12258   1.746   5.953   7.407 -0.1750  2.4925 -0.2308
  117OSM   C11S12259   1.905   6.069   7.495  0.0593 -0.1619  0.5787
  117OSM   H11S12260   1.863   6.172   7.489 -0.4172 -0.0049  4.3049
  117OSM   H11T12261   2.015   6.076   7.487  0.1091  1.2974  2.0197
  117OSM   C12S12262   1.896   6.025   7.643 -0.2719 -0.1787 -0.1120
  117OSM   H12S12263   1.791   5.993   7.658 -1.0526  2.4907  0.8308
  117OSM   H12T12264   1.919   6.115   7.705  2.9234 -0.1528 -1.1185
  117OSM   C13S12265   1.995   5.911   7.680 -0.4895 -0.5515  0.0977
  117OSM   H13S12266   2.095   5.943   7.645 -0.3412  0.6140  1.4831
  117OSM   H13T12267   1.956   5.831   7.614 -1.5770 -0.7378  0.9462
  117OSM   C14S12268   2.005   5.865   7.829 -0.5545  0.1936  0.0206
  117OSM   H14S12269   2.067   5.774   7.838  1.2626  1.4492  0.7948
  117OSM   H14T12270   1.902   5.834   7.858  0.1914 -1.7018  0.7725
  117OSM   C15S12271   2.081   5.965   7.917  0.1954  0.3060 -0.6949
  117OSM   H15S12272   2.024   6.060   7.912 -0.9061 -0.4046 -2.3530
  117OSM   H15T12273   2.180   6.006   7.888 -0.8579  3.2290 -0.4898
  117OSM   C16S12274   2.096   5.915   8.065 -0.3157 -0.5582 -0.5509
  117OSM   H16S12275   2.167   5.986   8.113 -0.2724 -0.1841 -1.1667
  117OSM   H16T12276   2.138   5.813   8.064 -0.4635 -0.9237  4.6064
  117OSM   C17S12277   1.962   5.912   8.143  0.4243 -0.2832 -0.5235
  117OSM   H17S12278   1.889   5.842   8.097 -0.0185 -1.2869  1.5759
  117OSM   H17T12279   1.915   6.012   8.135  2.5307  0.7450 -0.5975
  117OSM   C18S12280   1.971   5.851   8.283 -0.1933  0.0985  0.0763
  117OSM   H18S12281   1.997   5.743   8.283  0.8857  0.3295 -1.1888
  117OSM   H18T12282   1.876   5.848   8.341  0.6399  1.0793  1.5494
  117OSM   H18U12283   2.051   5.904   8.338  1.8513 -1.7886 -0.9439
  117OSM    C1F12284   2.222   6.108   6.574 -0.0231  0.3171  0.5348
  117OSM     OF12285   2.240   6.230   6.565  0.6755  0.1070 -0.2521
  117OSM    C2F12286   2.336   6.012   6.595 -0.0761 -0.5366  0.0056
  117OSM    H2F12287   2.410   6.020   6.512  0.5647  0.9713  0.6860
  117OSM    H2G12288   2.289   5.911   6.596  0.8043 -0.9964  2.1789
  117OSM    C3F12289   2.411   6.039   6.732 -0.0225 -0.2540  0.2373
  117OSM    H3F12290   2.463   6.137   6.728  1.4653 -1.0162  0.1343
  117OSM    H3G12291   2.498   5.971   6.727 -1.6394 -2.3928 -0.5659
  117OSM    C4F12292   2.326   6.032   6.862 -0.6902 -0.2755 -0.3568
  117OSM    H4F12293   2.221   6.060   6.839 -0.5943 -0.7384 -1.4167
  117OSM    H4G12294   2.362   6.096   6.945 -1.4107  1.4847 -1.3461
  117OSM    C5F12295   2.330   5.887   6.922 -0.3118 -0.3553  0.2696
  117OSM    H5F12296   2.432   5.844   6.928  0.1556  0.8045  1.2819
  117OSM    H5G12297   2.268   5.828   6.852 -2.4784 -0.9348  2.5501
  117OSM    C6F12298   2.277   5.889   7.067 -0.9858 -0.2401  0.0724
  117OSM    H6F12299   2.169   5.915   7.063 -0.1093  3.9101 -1.7962
  117OSM    H6G12300   2.318   5.968   7.132  1.3090 -2.8448  2.0035
  117OSM    C7F12301   2.305   5.765   7.152 -0.3725 -0.5518 -0.1757
  117OSM    H7F12302   2.413   5.755   7.173 -0.4629 -0.0486  0.5516
  117OSM    H7G12303   2.268   5.684   7.086  1.3726  0.3734 -2.4721
  117OSM    C8F12304   2.235   5.757   7.283 -0.9850 -0.3163  0.2940
  117OSM    H8F12305   2.260   5.658   7.327  0.6897  0.1977  0.5678
  117OSM    H8G12306   2.125   5.755   7.267 -0.8785 -0.5663 -0.4374
  117OSM    C9F12307   2.264   5.878   7.378 -0.0663  0.0379 -0.2296
  117OSM    H9F12308   2.209   5.972   7.359  0.2928  0.7486  1.9446
  117OSM   C10F12309   2.343   5.877   7.479 -0.3892  0.2804 -0.0807
  117OSM   H10F12310   2.344   5.968   7.541  1.0537  0.3959 -0.2621
  117OSM   C11F12311   2.421   5.756   7.526 -0.4216 -0.1884  0.4005
  117OSM   H11F12312   2.526   5.790   7.535 -0.7848  1.0604  0.1892
  117OSM   H11G12313   2.425   5.675   7.451 -0.1276  1.0017 -0.9159
  117OSM   C12F12314   2.380   5.688   7.658  0.0834 -0.2507 -0.2423
  117OSM   H12F12315   2.445   5.598   7.672  1.0178  0.2276 -1.3739
  117OSM   H12G12316   2.275   5.653   7.654 -0.9325  2.4699  0.5909
  117OSM   C13F12317   2.385   5.779   7.781  0.2012 -0.0872 -0.4678
  117OSM   H13F12318   2.298   5.845   7.758  1.1762  0.9289 -1.3207
  117OSM   H13G12319   2.471   5.846   7.800  0.9375 -1.5845  1.8866
  117OSM   C14F12320   2.354   5.713   7.917  0.0513  0.0800 -0.2561
  117OSM   H14F12321   2.259   5.655   7.914  0.6957 -1.0125 -0.3159
  117OSM   H14G12322   2.351   5.787   8.000  1.1047  1.1047 -1.1174
  117OSM   C15F12323   2.468   5.621   7.960  0.3498 -0.2561  0.1601
  117OSM   H15F12324   2.558   5.685   7.969 -1.0358  1.5070  2.7762
  117OSM   H15G12325   2.503   5.554   7.879 -0.0183 -0.1245 -0.1155
  117OSM   C16F12326   2.450   5.540   8.089  0.6492  0.3397 -0.8457
  117OSM   H16F12327   2.372   5.462   8.075  1.2876 -0.2409 -1.2674
  117OSM   H16G12328   2.415   5.607   8.170 -1.1490 -0.3001 -1.0507
  117OSM   C17F12329   2.579   5.482   8.139  0.9013 -0.4760 -0.0590
  117OSM   H17F12330   2.637   5.406   8.083 -0.7595 -2.9322  1.3283
  117OSM   H17G12331   2.645   5.570   8.150  0.3947 -0.1417  0.3394
  117OSM   C18F12332   2.555   5.416   8.276  0.0316  0.2193 -0.1424
  117OSM   H18F12333   2.513   5.313   8.269 -0.3991  0.1235  2.6099
  117OSM   H18G12334   2.492   5.475   8.345 -0.1521  0.8828 -0.8688
  117OSM   H18H12335   2.655   5.392   8.320  0.4149 -0.4051 -1.3165
  118OSM      N12336   3.323   1.311   6.206  0.7084 -0.0528  0.0644
  118OSM    C1512337   3.282   1.354   6.340 -0.3028  0.1430  0.4436
  118OSM   H15A12338   3.307   1.287   6.422 -1.0203 -3.1423 -1.8281
  118OSM   H15B12339   3.175   1.347   6.339 -0.2279 -1.8394  1.0184
  118OSM   H15C12340   3.321   1.451   6.366  1.9367 -0.8877  1.3018
  118OSM    C1412341   3.265   1.404   6.094 -0.0280  0.8770 -0.0464
  118OSM   H14A12342   3.294   1.365   5.998  1.0177 -0.2353  0.6900
  118OSM   H14B12343   3.320   1.497   6.107 -0.5219  0.8941  2.5372
  118OSM   H14C12344   3.158   1.409   6.110  0.0544 -0.2086  1.0126
  118OSM    C1312345   3.471   1.324   6.185 -0.2894  0.8924  0.3543
  118OSM   H13A12346   3.529   1.250   6.238  0.7370  0.3855 -1.4076
  118OSM   H13B12347   3.519   1.420   6.193 -1.2956  1.4527 -0.0854
  118OSM   H13C12348   3.490   1.291   6.084  2.0787 -1.1528  1.3645
  118OSM    C1212349   3.280   1.163   6.170  0.0400  0.2277 -0.7575
  118OSM   H12A12350   3.310   1.131   6.071 -2.3575 -2.4684 -0.7444
  118OSM   H12B12351   3.173   1.155   6.177  0.1966 -1.5112  0.5821
  118OSM    C1112352   3.335   1.054   6.268  0.1074  0.0218  0.1254
  118OSM   H11A12353   3.285   0.957   6.245 -0.4483  0.5808 -1.0847
  118OSM   H11B12354   3.292   1.074   6.369  0.3617  0.1295  0.2125
  118OSM      P12355   3.542   0.975   6.130  0.0904  0.0508  0.0304
  118OSM    O1312356   3.457   0.866   6.090 -0.1029 -0.2873  0.6700
  118OSM    O1412357   3.580   1.075   6.031 -0.5986 -0.2678 -0.0195
  118OSM    O1112358   3.681   0.918   6.188 -0.0556 -0.3056  0.0782
  118OSM    O1212359   3.475   1.043   6.251  0.2839 -0.1409  0.2264
  118OSM    C1S12360   3.761   1.008   6.272  0.7983 -0.2313  0.0465
  118OSM    H1S12361   3.736   1.115   6.262  2.7870  0.4773  1.8776
  118OSM    H1T12362   3.867   1.007   6.240  1.2830  4.0253  0.9381
  118OSM     NF12363   3.842   1.044   6.499 -0.0696 -0.6408 -0.5427
  118OSM    HNF12364   3.916   1.001   6.551  1.3078  3.4793  1.3035
  118OSM    C2S12365   3.754   0.962   6.420  1.0403 -0.2929  0.3011
  118OSM    H2S12366   3.651   0.978   6.457  1.0567  1.4543 -0.3141
  118OSM    C3S12367   3.780   0.806   6.436 -0.2529 -0.0661  0.1516
  118OSM    H3S12368   3.873   0.800   6.376 -0.2507 -0.4423  0.1892
  118OSM     O312369   3.692   0.718   6.365 -0.1801  0.2015 -0.0367
  118OSM    HO312370   3.644   0.771   6.301 -0.1718  0.1322 -0.1002
  118OSM    C4S12371   3.803   0.771   6.583  0.1588 -0.3810 -0.8544
  118OSM    H4S12372   3.906   0.799   6.610  1.2922 -2.3155 -2.8331
  118OSM    C5S12373   3.720   0.717   6.679 -0.1443 -0.0495 -0.4442
  118OSM    H5S12374   3.616   0.696   6.649 -0.3467 -0.4696  0.4966
  118OSM    C6S12375   3.759   0.698   6.824 -0.2620 -0.3938  0.2348
  118OSM    H6S12376   3.720   0.597   6.850 -0.2561 -0.2657  0.7512
  118OSM    H6T12377   3.693   0.772   6.875 -0.2006  0.4092 -0.8036
  118OSM    C7S12378   3.893   0.729   6.879  0.0849  1.0356  0.0627
  118OSM    H7S12379   3.922   0.835   6.865 -0.8904  1.3532  0.3937
  118OSM    H7T12380   3.972   0.672   6.826  0.3721  1.4094  0.0840
  118OSM    C8S12381   3.911   0.695   7.025 -0.2225 -0.3268  0.8016
  118OSM    H8S12382   4.017   0.715   7.049 -0.8105  1.4386  2.2020
  118OSM    H8T12383   3.906   0.584   7.028 -1.6952 -0.2751  1.3204
  118OSM    C9S12384   3.803   0.743   7.121  0.5533  0.1758  0.6941
  118OSM    H9S12385   3.713   0.683   7.097  0.7888  0.6178 -1.4133
  118OSM    H9T12386   3.777   0.849   7.102 -0.3617 -0.4733 -2.0275
  118OSM   C10S12387   3.841   0.729   7.267  0.1095 -0.0418 -0.5593
  118OSM   H10S12388   3.935   0.784   7.291 -0.0611 -0.6351  1.7182
  118OSM   H10T12389   3.874   0.624   7.284  3.2111  0.6602 -1.6487
  118OSM   C11S12390   3.719   0.742   7.363 -0.1367 -0.0588 -0.1067
  118OSM   H11S12391   3.638   0.670   7.340 -1.3602  1.6101 -1.1901
  118OSM   H11T12392   3.689   0.848   7.354  1.7101  0.6847  1.6623
  118OSM   C12S12393   3.754   0.712   7.508  0.5617  0.1881 -0.4779
  118OSM   H12S12394   3.832   0.786   7.537  0.3237 -0.2033  1.2990
  118OSM   H12T12395   3.801   0.613   7.527 -2.0878 -0.6152  2.8563
  118OSM   C13S12396   3.627   0.718   7.602  0.6373 -0.1701  0.0755
  118OSM   H13S12397   3.562   0.633   7.572  1.1304 -0.0668 -1.3698
  118OSM   H13T12398   3.566   0.807   7.575 -2.4981 -1.9871  0.7197
  118OSM   C14S12399   3.641   0.716   7.756  0.7840 -0.1053 -0.5960
  118OSM   H14S12400   3.723   0.787   7.781  0.5101 -0.4487  1.4072
  118OSM   H14T12401   3.668   0.616   7.793  0.2770  0.1263  0.4262
  118OSM   C15S12402   3.513   0.769   7.822 -0.2059 -0.4293  0.5577
  118OSM   H15S12403   3.436   0.709   7.768 -0.8119  1.9875 -1.4644
  118OSM   H15T12404   3.484   0.874   7.798 -1.3557 -0.4142  1.8911
  118OSM   C16S12405   3.500   0.748   7.969 -0.3926 -0.1957  0.5454
  118OSM   H16S12406   3.498   0.640   7.995 -2.7269 -0.7309 -1.3885
  118OSM   H16T12407   3.398   0.786   7.990 -0.5495  0.6803 -1.4990
  118OSM   C17S12408   3.613   0.830   8.053  0.2214  0.4617 -0.1989
  118OSM   H17S12409   3.593   0.939   8.043 -1.2546  0.2819  0.5029
  118OSM   H17T12410   3.717   0.801   8.027 -0.1850 -1.4786  0.1861
  118OSM   C18S12411   3.590   0.799   8.205  0.2500  0.2808 -0.3462
  118OSM   H18S12412   3.486   0.822   8.236 -0.3321 -3.0090  0.5427
  118OSM   H18T12413   3.666   0.839   8.276  0.1803 -1.0672  0.5249
  118OSM   H18U12414   3.600   0.691   8.228 -2.5841  0.1553  0.6836
  118OSM    C1F12415   3.827   1.176   6.511 -0.3381 -0.3403  0.4646
  118OSM     OF12416   3.717   1.230   6.501 -0.4000  0.7849 -0.1295
  118OSM    C2F12417   3.950   1.259   6.535 -0.2407 -0.7747  0.4881
  118OSM    H2F12418   3.961   1.335   6.455 -0.8855 -1.2924 -0.1024
  118OSM    H2G12419   4.045   1.201   6.541 -1.0390 -2.2899 -0.8202
  118OSM    C3F12420   3.933   1.346   6.665  0.7020 -0.2032 -0.0300
  118OSM    H3F12421   3.832   1.394   6.669  0.4771 -0.7516  1.9775
  118OSM    H3G12422   4.015   1.420   6.676  1.7652 -1.2942 -0.4889
  118OSM    C4F12423   3.938   1.259   6.793 -0.0177  0.0274 -0.2061
  118OSM    H4F12424   4.044   1.247   6.825 -0.1902 -0.0691  0.3382
  118OSM    H4G12425   3.900   1.156   6.774  3.1821 -0.9986 -1.7088
  118OSM    C5F12426   3.865   1.317   6.914 -0.5962 -0.3613  0.2114
  118OSM    H5F12427   3.760   1.347   6.893  0.1455  1.7423 -0.7252
  118OSM    H5G12428   3.925   1.408   6.935  0.5791 -0.9773 -0.3867
  118OSM    C6F12429   3.866   1.213   7.023  0.3020 -0.1603 -0.1649
  118OSM    H6F12430   3.973   1.193   7.043  0.4817  1.2651  0.3864
  118OSM    H6G12431   3.825   1.116   6.985 -0.2834  0.5274 -1.3544
  118OSM    C7F12432   3.793   1.265   7.144 -0.4688 -0.2265  0.2069
  118OSM    H7F12433   3.688   1.296   7.125 -0.5479  0.5250  1.7302
  118OSM    H7G12434   3.848   1.360   7.164 -1.0985 -0.1231  1.5532
  118OSM    C8F12435   3.790   1.166   7.264  0.0121 -0.7220  0.3417
  118OSM    H8F12436   3.887   1.139   7.311  1.5550  1.8895 -1.0889
  118OSM    H8G12437   3.756   1.073   7.215  1.1109  0.5195 -3.0475
  118OSM    C9F12438   3.686   1.218   7.364  0.1014 -0.2096 -0.7787
  118OSM    H9F12439   3.621   1.285   7.306 -0.1330 -0.2800 -0.5982
  118OSM   C10F12440   3.657   1.216   7.498  0.5406 -0.3682  0.6133
  118OSM   H10F12441   3.572   1.274   7.536 -0.7312 -2.3368  0.9300
  118OSM   C11F12442   3.735   1.144   7.600 -1.2786  0.6005 -0.3859
  118OSM   H11F12443   3.841   1.125   7.570 -0.4254  1.5128  1.7732
  118OSM   H11G12444   3.693   1.042   7.606  2.3504 -1.5380 -4.9175
  118OSM   C12F12445   3.737   1.217   7.732 -0.2996 -0.3557  0.5192
  118OSM   H12F12446   3.734   1.325   7.709 -2.3696 -0.4403  0.1770
  118OSM   H12G12447   3.829   1.188   7.788 -0.2982 -1.6944 -0.1291
  118OSM   C13F12448   3.615   1.191   7.818 -0.2347  0.0484 -0.4795
  118OSM   H13F12449   3.617   1.087   7.857 -2.6465  0.0653 -0.1468
  118OSM   H13G12450   3.530   1.206   7.747 -1.8927 -0.3439  1.3262
  118OSM   C14F12451   3.603   1.284   7.943 -0.4856  0.4574  0.5203
  118OSM   H14F12452   3.625   1.386   7.905 -0.0401  0.0739 -0.2714
  118OSM   H14G12453   3.693   1.261   8.004  0.8846  0.6982 -1.3352
  118OSM   C15F12454   3.481   1.269   8.031  1.0048 -0.5729 -0.1244
  118OSM   H15F12455   3.493   1.168   8.076  0.2262  0.2804  2.1447
  118OSM   H15G12456   3.384   1.267   7.978  1.8586 -0.6633 -1.7425
  118OSM   C16F12457   3.476   1.367   8.145 -0.0486  0.0686  0.4164
  118OSM   H16F12458   3.494   1.475   8.125 -0.5143  0.2963  1.1996
  118OSM   H16G12459   3.560   1.344   8.214  0.7801 -1.3241 -0.9776
  118OSM   C17F12460   3.340   1.369   8.216  0.5076 -0.5574 -0.2988
  118OSM   H17F12461   3.277   1.278   8.218 -0.0750 -0.1628 -0.5883
  118OSM   H17G12462   3.282   1.431   8.145  2.0826 -1.5147 -2.5352
  118OSM   C18F12463   3.336   1.442   8.351  0.3583  0.8407  0.0415
  118OSM   H18F12464   3.236   1.430   8.398 -0.0578 -0.1699 -1.0572
  118OSM   H18G12465   3.360   1.550   8.337  0.2648  1.7126  4.8097
  118OSM   H18H12466   3.401   1.387   8.422  0.7777 -0.1953 -1.1184
  119OSM      N12467   1.330   0.518   5.964  0.0663 -0.1495 -0.5204
  119OSM    C1512468   1.418   0.504   6.088 -0.0181 -0.2119  0.0190
  119OSM   H15A12469   1.470   0.596   6.113 -1.6740  0.6825  0.2817
  119OSM   H15B12470   1.500   0.438   6.063  0.4507  1.0362 -2.0042
  119OSM   H15C12471   1.356   0.465   6.167 -2.3478  1.1752 -1.0271
  119OSM    C1412472   1.415   0.570   5.854 -0.4303  0.2279 -0.0959
  119OSM   H14A12473   1.452   0.668   5.882 -0.0120  0.3125 -0.9234
  119OSM   H14B12474   1.367   0.576   5.757  1.4892  0.8074 -1.0531
  119OSM   H14C12475   1.511   0.523   5.846  0.4829  1.8168  0.9427
  119OSM    C1312476   1.284   0.386   5.917 -0.0455 -0.1045  0.3580
  119OSM   H13A12477   1.369   0.319   5.918 -0.4893 -0.6976  2.0867
  119OSM   H13B12478   1.233   0.387   5.822 -0.2890  3.0324  0.4245
  119OSM   H13C12479   1.225   0.346   5.999 -0.9827 -0.2023 -0.3470
  119OSM    C1212480   1.217   0.619   5.995  0.1971  0.6468 -0.0649
  119OSM   H12A12481   1.163   0.618   5.901 -0.4067  1.0820  0.2676
  119OSM   H12B12482   1.259   0.717   6.011  1.5772  0.0014  0.4280
  119OSM    C1112483   1.110   0.592   6.111  0.0912  0.3063  0.2524
  119OSM   H11A12484   1.024   0.662   6.110 -1.7195 -1.8058 -1.1448
  119OSM   H11B12485   1.168   0.618   6.203  0.5476  0.9555 -0.2097
  119OSM      P12486   0.941   0.410   6.044  0.0144 -0.1841 -0.2720
  119OSM    O1312487   0.917   0.510   5.943 -0.6051 -0.2978 -0.4195
  119OSM    O1412488   0.941   0.266   6.013 -0.0165 -0.0951 -0.0766
  119OSM    O1112489   0.833   0.447   6.156 -0.2998  0.8531  0.3619
  119OSM    O1212490   1.068   0.450   6.119 -0.0720 -0.0972  0.0138
  119OSM    C1S12491   0.815   0.369   6.272 -0.3367  0.5538 -0.6005
  119OSM    H1S12492   0.828   0.259   6.265  0.1956  0.5865 -0.1917
  119OSM    H1T12493   0.710   0.376   6.306 -0.6394 -0.2971 -1.3405
  119OSM     NF12494   0.936   0.342   6.504  0.0371  0.0686  0.6262
  119OSM    HNF12495   0.898   0.377   6.589 -2.3009  0.1135 -0.3857
  119OSM    C2S12496   0.915   0.425   6.384 -0.3273 -0.5660  0.0613
  119OSM    H2S12497   1.016   0.438   6.339  0.9447  0.8369  3.0303
  119OSM    C3S12498   0.862   0.572   6.416 -0.0101 -0.4934  0.2890
  119OSM    H3S12499   0.762   0.561   6.462 -1.0361  3.0458 -0.7971
  119OSM     O312500   0.845   0.661   6.304  0.2399 -0.2993  0.4110
  119OSM    HO312501   0.850   0.603   6.227  1.7718 -0.7000  0.7825
  119OSM    C4S12502   0.954   0.635   6.517 -0.9630  0.6381 -0.4576
  119OSM    H4S12503   1.061   0.633   6.493 -0.7114 -1.7036  0.6144
  119OSM    C5S12504   0.907   0.660   6.647 -0.3412  0.0132  0.1777
  119OSM    H5S12505   0.801   0.636   6.667 -0.7666 -0.1107 -2.0164
  119OSM    C6S12506   0.979   0.720   6.764 -0.7680  0.6269 -0.5465
  119OSM    H6S12507   0.936   0.814   6.805 -2.6689  0.5470 -2.2150
  119OSM    H6T12508   1.087   0.740   6.746 -0.4630 -0.8644 -0.5057
  119OSM    C7S12509   0.971   0.623   6.884 -0.0996 -0.1811  0.3945
  119OSM    H7S12510   1.021   0.530   6.850  1.5020  1.1224 -1.0417
  119OSM    H7T12511   0.861   0.616   6.902 -0.1884  0.7649  0.2507
  119OSM    C8S12512   1.044   0.683   7.005 -0.6323 -0.5217  0.5019
  119OSM    H8S12513   1.025   0.790   7.031  3.6927  0.6516 -0.4528
  119OSM    H8T12514   1.153   0.681   6.984 -0.4898 -1.3837  1.2761
  119OSM    C9S12515   1.021   0.592   7.126  0.0273 -0.2093  0.0357
  119OSM    H9S12516   1.077   0.498   7.104  0.9472  0.4930 -0.6910
  119OSM    H9T12517   0.912   0.570   7.129  0.2649 -1.3111  0.9774
  119OSM   C10S12518   1.063   0.663   7.252 -0.3034  0.0828 -0.4627
  119OSM   H10S12519   1.005   0.756   7.268  0.7479  0.6285  0.2535
  119OSM   H10T12520   1.171   0.683   7.242  0.8479 -4.2815  0.9160
  119OSM   C11S12521   1.048   0.578   7.377  0.2052 -0.1788 -0.0362
  119OSM   H11S12522   1.115   0.489   7.382  0.6348  0.0142 -1.6938
  119OSM   H11T12523   0.943   0.543   7.377  0.4325 -0.9854  1.3923
  119OSM   C12S12524   1.069   0.670   7.493 -0.6611  0.3944 -0.1533
  119OSM   H12S12525   1.010   0.762   7.471  0.3266  1.2736  0.7786
  119OSM   H12T12526   1.172   0.709   7.507 -1.1848  1.7965  0.0015
  119OSM   C13S12527   1.019   0.604   7.629 -0.7614 -0.2136  0.3042
  119OSM   H13S12528   1.088   0.525   7.664 -1.0495 -0.5689  0.0744
  119OSM   H13T12529   0.925   0.547   7.612 -0.1930 -0.9611 -0.4027
  119OSM   C14S12530   1.004   0.710   7.733 -0.6860 -0.0879  0.2849
  119OSM   H14S12531   0.919   0.780   7.716 -2.1235 -1.8008  0.1142
  119OSM   H14T12532   1.098   0.769   7.739 -1.9394  1.9713  0.6367
  119OSM   C15S12533   0.968   0.650   7.874 -0.1029 -0.1640  0.9016
  119OSM   H15S12534   1.054   0.581   7.893  0.1992 -0.9246 -2.5490
  119OSM   H15T12535   0.877   0.590   7.853  1.7306 -2.0498 -2.8236
  119OSM   C16S12536   0.957   0.741   7.991 -0.1556  0.5706 -0.4783
  119OSM   H16S12537   0.904   0.836   7.966  1.9797  1.4962 -1.6888
  119OSM   H16T12538   1.059   0.780   8.009 -0.5471  1.4162 -0.0067
  119OSM   C17S12539   0.900   0.676   8.120  0.2376  0.5239  0.5828
  119OSM   H17S12540   0.894   0.758   8.196 -0.7233  0.4678  0.5832
  119OSM   H17T12541   0.979   0.607   8.156 -0.7366 -0.1481  1.5105
  119OSM   C18S12542   0.764   0.607   8.110  0.6096  0.5266  0.1086
  119OSM   H18S12543   0.687   0.667   8.056  1.4684 -0.4396 -2.3281
  119OSM   H18T12544   0.715   0.595   8.209 -0.2751  1.7805 -0.1374
  119OSM   H18U12545   0.769   0.504   8.069 -0.2331  0.9654 -1.1825
  119OSM    C1F12546   1.012   0.233   6.505 -0.5010  0.5665 -0.3470
  119OSM     OF12547   1.079   0.201   6.412  0.2631  0.0921  0.2002
  119OSM    C2F12548   1.013   0.156   6.631  0.3475 -0.0196 -0.0647
  119OSM    H2F12549   1.017   0.049   6.600 -0.5555  0.0893 -0.6028
  119OSM    H2G12550   0.914   0.164   6.681  1.0840 -0.4926  1.5127
  119OSM    C3F12551   1.133   0.194   6.730 -0.4553  0.7558  0.2100
  119OSM    H3F12552   1.109   0.294   6.771 -0.9682  0.2939  1.0513
  119OSM    H3G12553   1.229   0.199   6.673 -0.2945 -1.3164  0.2206
  119OSM    C4F12554   1.162   0.099   6.845 -1.4994  0.4438 -0.1494
  119OSM    H4F12555   1.174  -0.007   6.812  4.4798 -0.1453  2.5479
  119OSM    H4G12556   1.084   0.101   6.924 -0.3469  1.3388  1.0170
  119OSM    C5F12557   1.300   0.125   6.909  0.2777  0.6855  0.2317
  119OSM    H5F12558   1.282   0.197   6.991 -1.9668  1.0443 -0.4878
  119OSM    H5G12559   1.369   0.159   6.829 -0.6754 -0.1970 -1.0253
  119OSM    C6F12560   1.361   0.003   6.980  0.4368  1.0108 -0.5185
  119OSM    H6F12561   1.363  -0.085   6.912 -2.3404 -0.7143  1.4399
  119OSM    H6G12562   1.297  -0.032   7.063  1.1087 -0.9536 -0.7751
  119OSM    C7F12563   1.500   0.039   7.033 -0.6701 -0.1908 -0.3870
  119OSM    H7F12564   1.488   0.116   7.112 -1.2108 -1.0025  0.3538
  119OSM    H7G12565   1.557   0.091   6.954 -0.7909  0.3571 -0.1135
  119OSM    C8F12566   1.577  -0.085   7.095  0.2679  0.0902  0.4323
  119OSM    H8F12567   1.678  -0.048   7.123  0.2749  0.2388  0.2208
  119OSM    H8G12568   1.593  -0.153   7.008  0.9512  0.1388  0.5111
  119OSM    C9F12569   1.505  -0.160   7.209  0.0165  0.1239  0.4885
  119OSM    H9F12570   1.499  -0.104   7.303  0.0783  3.4050 -1.3169
  119OSM   C10F12571   1.443  -0.276   7.207 -0.3460 -0.2098 -0.0281
  119OSM   H10F12572   1.406  -0.308   7.305  2.3000 -2.9239  0.2402
  119OSM   C11F12573   1.427  -0.368   7.090  0.4534  0.0409 -0.3940
  119OSM   H11F12574   1.486  -0.461   7.109  0.3367  0.2486  1.0637
  119OSM   H11G12575   1.475  -0.315   7.005  1.0601  1.3645  0.7366
  119OSM   C12F12576   1.277  -0.390   7.060 -0.3768  0.4219 -0.7236
  119OSM   H12F12577   1.257  -0.445   6.966 -1.4521  0.3499 -0.4663
  119OSM   H12G12578   1.219  -0.295   7.054  0.2806  1.0826  2.0285
  119OSM   C13F12579   1.203  -0.463   7.177  0.3021 -0.1410 -0.2330
  119OSM   H13F12580   1.180  -0.392   7.259  0.6391  1.2216 -1.2805
  119OSM   H13G12581   1.275  -0.546   7.199  0.1438 -0.2082  0.0387
  119OSM   C14F12582   1.077  -0.529   7.122  0.7229 -0.1877 -0.0331
  119OSM   H14F12583   1.010  -0.566   7.203  1.3405 -1.1610  0.0506
  119OSM   H14G12584   1.107  -0.617   7.061  1.6406  1.1090 -1.5171
  119OSM   C15F12585   0.977  -0.440   7.038 -0.1824 -0.1206  0.6447
  119OSM   H15F12586   0.906  -0.514   6.997  1.4859 -1.0741 -0.6737
  119OSM   H15G12587   1.036  -0.398   6.953  1.7868 -0.4510  1.7826
  119OSM   C16F12588   0.893  -0.345   7.123 -0.0658 -0.1408  0.5476
  119OSM   H16F12589   0.898  -0.395   7.222  2.6814 -1.6501 -0.2310
  119OSM   H16G12590   0.786  -0.356   7.095 -0.2614  1.4014  0.6413
  119OSM   C17F12591   0.940  -0.195   7.115 -0.2909 -0.1666  0.1451
  119OSM   H17F12592   1.048  -0.202   7.142 -0.0942 -1.8050 -0.8762
  119OSM   H17G12593   0.879  -0.142   7.191 -2.0720 -1.2882 -0.4415
  119OSM   C18F12594   0.916  -0.132   6.977 -0.3914  0.2389 -0.2499
  119OSM   H18F12595   0.939  -0.023   6.973 -0.0591  0.1781  0.0126
  119OSM   H18G12596   0.813  -0.163   6.949 -0.3244 -2.0127  1.6974
  119OSM   H18H12597   0.990  -0.171   6.904 -0.8860 -1.4624  0.1171
  120OSM      N12598   3.119   3.125   5.962 -0.3140  0.9987 -0.5811
  120OSM    C1512599   3.262   3.111   5.919 -0.0178 -0.3579  0.0741
  120OSM   H15A12600   3.311   3.204   5.896 -0.7429 -0.0834 -0.4090
  120OSM   H15B12601   3.268   3.050   5.831  1.0896  1.2277 -1.0002
  120OSM   H15C12602   3.325   3.073   5.998  1.8660 -0.0107 -1.2083
  120OSM    C1412603   3.122   3.220   6.077 -0.5629  0.0750  0.2555
  120OSM   H14A12604   3.174   3.172   6.159 -2.3481 -1.9098  0.3034
  120OSM   H14B12605   3.024   3.240   6.117 -1.8188  1.5881 -3.2288
  120OSM   H14C12606   3.178   3.309   6.051  0.3394 -0.8322 -1.0261
  120OSM    C1312607   3.048   3.201   5.858 -0.4223  0.1153  0.6275
  120OSM   H13A12608   2.945   3.220   5.883 -0.5321  1.0156 -0.4217
  120OSM   H13B12609   3.058   3.134   5.774 -3.0254  0.3584  0.0532
  120OSM   H13C12610   3.099   3.293   5.833 -0.0568 -0.4778 -0.9637
  120OSM    C1212611   3.065   2.982   5.983  0.3003  0.3029  0.0473
  120OSM   H12A12612   3.083   2.917   5.899  0.3748 -0.9801  1.0243
  120OSM   H12B12613   2.959   3.000   5.998  1.2180  4.9961  3.1777
  120OSM    C1112614   3.126   2.915   6.108 -0.4478  0.0867 -0.6154
  120OSM   H11A12615   3.235   2.934   6.109 -0.7405  1.9918 -1.2441
  120OSM   H11B12616   3.112   2.805   6.099 -0.3009  0.1428 -1.6520
  120OSM      P12617   2.914   2.970   6.263  0.2643  0.3312 -0.2738
  120OSM    O1312618   2.874   3.112   6.297 -0.0142 -0.1621 -0.0179
  120OSM    O1412619   2.831   2.906   6.161 -0.4834  0.0405 -0.3058
  120OSM    O1112620   2.891   2.890   6.399  0.2359 -0.1236 -0.7161
  120OSM    O1212621   3.072   2.960   6.232 -0.0805  0.2817 -0.2286
  120OSM    C1S12622   2.986   2.875   6.504  0.0152 -0.0142 -0.3176
  120OSM    H1S12623   3.031   2.974   6.527  1.7664 -1.1787  1.6056
  120OSM    H1T12624   3.057   2.792   6.482  1.4188  0.8844  0.6866
  120OSM     NF12625   3.027   2.825   6.743  0.1103  0.4174  0.7828
  120OSM    HNF12626   3.064   2.733   6.759  2.0803  1.1168  0.4897
  120OSM    C2S12627   2.918   2.830   6.644 -0.3140  0.2967 -0.2499
  120OSM    H2S12628   2.845   2.906   6.677 -0.0224  0.3486  0.2880
  120OSM    C3S12629   2.840   2.702   6.612 -0.0974  0.4558  0.4935
  120OSM    H3S12630   2.909   2.632   6.560 -0.2393  0.8940 -0.3085
  120OSM     O312631   2.734   2.719   6.522 -0.5174  0.2818 -0.1669
  120OSM    HO312632   2.743   2.812   6.501 -2.4829  0.7846  0.9443
  120OSM    C4S12633   2.779   2.627   6.734 -0.9777  0.4055  0.0292
  120OSM    H4S12634   2.675   2.655   6.757 -1.2134  0.3339 -0.8962
  120OSM    C5S12635   2.841   2.527   6.801  0.0283  0.2347 -0.2619
  120OSM    H5S12636   2.940   2.502   6.762  1.0682  2.6766  0.5800
  120OSM    C6S12637   2.788   2.447   6.917  0.6604 -0.1740  0.0152
  120OSM    H6S12638   2.874   2.380   6.939  1.3862  0.0826 -1.8595
  120OSM    H6T12639   2.708   2.378   6.882 -0.4797  1.2684 -0.3195
  120OSM    C7S12640   2.735   2.519   7.047 -0.3287 -0.0636 -0.5319
  120OSM    H7S12641   2.651   2.585   7.017  0.0486  0.7648  0.2156
  120OSM    H7T12642   2.821   2.579   7.083  0.0292  0.2314 -1.8210
  120OSM    C8S12643   2.688   2.425   7.160  0.3519 -0.1351  0.1749
  120OSM    H8S12644   2.759   2.342   7.181  0.9658 -0.3526 -2.4068
  120OSM    H8T12645   2.597   2.379   7.116  0.3895 -2.6689  2.4847
  120OSM    C9S12646   2.643   2.506   7.287 -0.9999 -0.4421 -0.8879
  120OSM    H9S12647   2.566   2.581   7.258 -0.2363 -0.3287 -2.7485
  120OSM    H9T12648   2.738   2.544   7.330 -0.5178 -2.6208  0.0970
  120OSM   C10S12649   2.579   2.419   7.394 -0.0134  0.2696 -0.3643
  120OSM   H10S12650   2.639   2.327   7.413 -0.2545 -0.3792 -2.4266
  120OSM   H10T12651   2.480   2.397   7.349  0.0564  0.6450 -0.7010
  120OSM   C11S12652   2.557   2.487   7.532  0.0915  0.0980  0.2151
  120OSM   H11S12653   2.447   2.490   7.547 -0.2490 -1.3614 -1.6503
  120OSM   H11T12654   2.586   2.593   7.514  2.9585 -0.6330  0.0129
  120OSM   C12S12655   2.643   2.429   7.648 -0.6744  0.3288 -0.4136
  120OSM   H12S12656   2.749   2.443   7.618 -0.7359  1.8846  0.0139
  120OSM   H12T12657   2.626   2.320   7.661 -1.6848  0.2488 -2.1291
  120OSM   C13S12658   2.589   2.478   7.778  0.1895 -0.3394 -0.4292
  120OSM   H13S12659   2.484   2.442   7.784  0.8149 -2.0706  0.7616
  120OSM   H13T12660   2.575   2.588   7.780 -0.1805 -0.3856  1.3166
  120OSM   C14S12661   2.665   2.427   7.904 -0.3040 -0.0780  0.1049
  120OSM   H14S12662   2.771   2.459   7.899 -0.5323  1.2639  2.4768
  120OSM   H14T12663   2.675   2.317   7.912 -1.2266 -0.1059  1.2233
  120OSM   C15S12664   2.608   2.475   8.036 -0.4590 -0.1041  0.1746
  120OSM   H15S12665   2.507   2.442   8.067  0.6553 -2.3892  1.6711
  120OSM   H15T12666   2.605   2.585   8.024 -1.3244 -0.3533 -2.4961
  120OSM   C16S12667   2.683   2.426   8.159 -0.2351  0.4570  0.5919
  120OSM   H16S12668   2.650   2.488   8.245 -3.0428  1.4239 -1.0031
  120OSM   H16T12669   2.792   2.442   8.145  0.6316 -3.8422  1.1977
  120OSM   C17S12670   2.668   2.271   8.178  0.3954  0.0716 -0.3663
  120OSM   H17S12671   2.723   2.246   8.271  2.7184  0.6925 -1.5073
  120OSM   H17T12672   2.710   2.215   8.092 -2.2435 -0.3337 -1.5023
  120OSM   C18S12673   2.528   2.223   8.199  0.8370 -0.2396 -0.6035
  120OSM   H18S12674   2.523   2.117   8.232 -1.8492 -0.2093 -0.7450
  120OSM   H18T12675   2.465   2.235   8.109 -1.7566  0.8277  1.2391
  120OSM   H18U12676   2.479   2.283   8.279  0.1007 -1.1642 -0.3499
  120OSM    C1F12677   3.073   2.933   6.798  0.2863 -0.1944 -0.4713
  120OSM     OF12678   3.011   3.031   6.775  0.2589 -0.1075  0.0521
  120OSM    C2F12679   3.209   2.931   6.866 -0.3267 -0.4028 -0.2213
  120OSM    H2F12680   3.281   2.997   6.815 -1.7696  0.2887 -1.4122
  120OSM    H2G12681   3.257   2.831   6.861 -0.5859 -0.5368 -0.0589
  120OSM    C3F12682   3.192   2.976   7.012 -0.5575 -0.0008 -0.8487
  120OSM    H3F12683   3.157   3.081   7.015 -2.6148 -0.6151 -1.4088
  120OSM    H3G12684   3.291   2.985   7.061 -0.7002 -0.5857 -0.4342
  120OSM    C4F12685   3.119   2.872   7.097 -0.2282 -0.2640  0.4219
  120OSM    H4F12686   3.192   2.789   7.096  1.6667  1.3252  1.2239
  120OSM    H4G12687   3.024   2.845   7.046 -0.1520  3.1099 -1.7931
  120OSM    C5F12688   3.103   2.906   7.245 -0.3215 -0.0454  0.4194
  120OSM    H5F12689   3.012   2.853   7.280  0.7098 -0.8121  2.0880
  120OSM    H5G12690   3.098   3.017   7.250  0.7252  0.0364 -0.0824
  120OSM    C6F12691   3.218   2.851   7.338 -0.3515  0.0182 -0.6541
  120OSM    H6F12692   3.312   2.901   7.307 -1.5064  1.0764 -2.6586
  120OSM    H6G12693   3.223   2.741   7.319 -2.7775  0.0587 -1.9522
  120OSM    C7F12694   3.181   2.886   7.485 -0.1679  1.4009  0.4084
  120OSM    H7F12695   3.262   2.846   7.549 -1.4927 -0.8076  0.8279
  120OSM    H7G12696   3.091   2.824   7.507 -0.2222  1.5543  0.6255
  120OSM    C8F12697   3.156   3.032   7.519  0.3260 -0.2449  0.3430
  120OSM    H8F12698   3.108   3.036   7.620  2.5279  0.7016  1.4112
  120OSM    H8G12699   3.085   3.085   7.452 -1.2312 -2.0085  0.4881
  120OSM    C9F12700   3.287   3.112   7.520  0.9490  0.8910  0.2297
  120OSM    H9F12701   3.362   3.062   7.458 -1.7097 -2.6671 -0.4684
  120OSM   C10F12702   3.317   3.221   7.597  0.0806  0.0937  0.1468
  120OSM   H10F12703   3.414   3.270   7.581  0.0289 -0.5893 -2.7759
  120OSM   C11F12704   3.221   3.277   7.701 -0.3163  0.3074 -0.3774
  120OSM   H11F12705   3.118   3.240   7.684 -0.0993 -0.5708  0.1590
  120OSM   H11G12706   3.227   3.388   7.697 -0.0394  0.2675 -1.3136
  120OSM   C12F12707   3.248   3.245   7.850 -0.0658 -0.1864  1.4196
  120OSM   H12F12708   3.178   3.310   7.907 -3.5120 -1.6919 -0.7550
  120OSM   H12G12709   3.356   3.262   7.864 -0.0514 -1.2245  2.6731
  120OSM   C13F12710   3.210   3.110   7.894 -0.9478  0.1213 -0.0158
  120OSM   H13F12711   3.291   3.038   7.868 -0.7774  0.5515 -0.6864
  120OSM   H13G12712   3.117   3.084   7.839 -1.1804  0.5318  0.1863
  120OSM   C14F12713   3.175   3.100   8.045  0.3715  0.1477 -0.2370
  120OSM   H14F12714   3.136   2.999   8.069  0.2388 -0.2233 -1.8853
  120OSM   H14G12715   3.088   3.163   8.075  0.6171  0.1890  0.4022
  120OSM   C15F12716   3.292   3.123   8.148 -0.6435 -0.7523  0.5418
  120OSM   H15F12717   3.336   3.224   8.138  1.3147 -1.2581  3.0312
  120OSM   H15G12718   3.369   3.048   8.121 -1.8381 -1.4831 -1.0385
  120OSM   C16F12719   3.256   3.108   8.296  0.7515 -0.3260 -0.1222
  120OSM   H16F12720   3.192   3.018   8.313  0.2576  0.2310  1.0604
  120OSM   H16G12721   3.187   3.191   8.323  0.8605  0.0483 -0.9630
  120OSM   C17F12722   3.386   3.116   8.375 -0.2456  0.0401 -0.2435
  120OSM   H17F12723   3.417   3.223   8.378 -1.2271  0.3310  0.2203
  120OSM   H17G12724   3.472   3.058   8.336 -0.1987 -0.9453  1.2776
  120OSM   C18F12725   3.371   3.057   8.510  0.2581 -0.0586 -0.5138
  120OSM   H18F12726   3.458   3.090   8.571 -1.0501  2.9930 -0.1204
  120OSM   H18G12727   3.365   2.947   8.513 -0.3799 -0.0986 -2.1882
  120OSM   H18H12728   3.284   3.093   8.569  0.7825 -1.6815  1.3814
  121OSM      N12729   4.677   3.145   5.986  0.5534 -0.1017  0.3512
  121OSM    C1512730   4.626   3.282   5.945  0.9300 -0.5931 -0.4752
  121OSM   H15A12731   4.597   3.335   6.035 -0.1793 -0.3909 -0.9312
  121OSM   H15B12732   4.531   3.269   5.895  0.4019 -0.8051  0.5617
  121OSM   H15C12733   4.699   3.342   5.892  1.2771  0.5886  1.2584
  121OSM    C1412734   4.575   3.071   6.065 -0.0618  0.0313 -0.4642
  121OSM   H14A12735   4.622   2.981   6.102 -1.4308 -0.4606  0.1594
  121OSM   H14B12736   4.485   3.053   6.008 -0.3113  0.5626 -0.2544
  121OSM   H14C12737   4.543   3.127   6.152  2.5309  0.0229  0.5796
  121OSM    C1312738   4.720   3.077   5.861  0.1504  0.0945 -0.0860
  121OSM   H13A12739   4.637   3.068   5.793  1.3531 -0.8877 -1.4649
  121OSM   H13B12740   4.746   2.976   5.887  0.2481  0.0699 -0.2789
  121OSM   H13C12741   4.806   3.127   5.818  0.5087  0.9416  1.5070
  121OSM    C1212742   4.796   3.181   6.083  0.2280 -0.7509  0.0811
  121OSM   H12A12743   4.856   3.264   6.049  2.1539 -0.7819  2.9972
  121OSM   H12B12744   4.867   3.100   6.090 -0.3415 -1.4451 -1.6908
  121OSM    C1112745   4.767   3.215   6.233  0.3016  0.4948 -0.0450
  121OSM   H11A12746   4.856   3.241   6.295  0.8210 -0.8941 -0.1804
  121OSM   H11B12747   4.730   3.122   6.283 -0.4584  1.1187  0.5883
  121OSM      P12748   4.704   3.469   6.260  0.1190 -0.2301 -0.3077
  121OSM    O1312749   4.791   3.496   6.147 -0.0173 -0.2050  0.0528
  121OSM    O1412750   4.579   3.540   6.273  0.0346 -0.1889 -0.4262
  121OSM    O1112751   4.787   3.472   6.397  0.3170 -0.2908 -1.3151
  121OSM    O1212752   4.671   3.319   6.259 -0.3884  0.3502  0.3683
  121OSM    C1S12753   4.732   3.439   6.526 -0.4319  0.3705  1.0714
  121OSM    H1S12754   4.667   3.349   6.521  1.0738 -0.7312  1.0524
  121OSM    H1T12755   4.670   3.526   6.556 -2.6688  0.7521 -3.6759
  121OSM     NF12756   4.790   3.369   6.760  0.0198 -0.4175 -0.4518
  121OSM    HNF12757   4.794   3.442   6.828 -2.3391  0.0452 -0.7255
  121OSM    C2S12758   4.840   3.392   6.621 -0.2216 -0.3220 -0.1605
  121OSM    H2S12759   4.880   3.297   6.580  2.4523  0.6471  0.0191
  121OSM    C3S12760   4.963   3.490   6.619  0.3112  0.4844 -0.6976
  121OSM    H3S12761   4.925   3.595   6.625 -2.2473 -0.4566  2.4236
  121OSM     O312762   5.028   3.488   6.498  0.2357 -0.4393 -0.3291
  121OSM    HO312763   4.970   3.430   6.449  0.5858 -1.9885  1.0048
  121OSM    C4S12764   5.068   3.486   6.729 -0.2302 -0.4874  0.6934
  121OSM    H4S12765   5.137   3.400   6.737  0.6304  0.1995  0.8935
  121OSM    C5S12766   5.079   3.591   6.810  0.6402 -0.4685  0.4458
  121OSM    H5S12767   5.017   3.682   6.802  1.6101  0.0658 -1.5997
  121OSM    C6S12768   5.176   3.599   6.924  0.2874 -0.2200  0.2554
  121OSM    H6S12769   5.178   3.701   6.968 -0.0693 -0.2111  0.2479
  121OSM    H6T12770   5.279   3.581   6.884  0.1181 -0.5569 -0.0330
  121OSM    C7S12771   5.158   3.485   7.024 -0.1524  0.1325  0.2855
  121OSM    H7S12772   5.196   3.391   6.980 -1.4861 -0.0664 -0.4946
  121OSM    H7T12773   5.051   3.495   7.054 -1.2484 -1.6685 -2.6245
  121OSM    C8S12774   5.242   3.518   7.158  0.4092 -0.3287  0.0287
  121OSM    H8S12775   5.206   3.609   7.210 -2.9772 -1.1002 -0.6781
  121OSM    H8T12776   5.349   3.539   7.137  0.4190 -0.2565  0.1537
  121OSM    C9S12777   5.230   3.408   7.266 -0.4467  0.1214 -0.2948
  121OSM    H9S12778   5.273   3.312   7.228  1.1219  0.0383  1.5148
  121OSM    H9T12779   5.124   3.398   7.296  0.1103 -0.9893  1.4496
  121OSM   C10S12780   5.310   3.434   7.390 -0.5921 -0.4020  0.1801
  121OSM   H10S12781   5.309   3.539   7.426 -1.4444  0.3934 -1.9873
  121OSM   H10T12782   5.416   3.414   7.365 -0.1273  1.0636  0.8519
  121OSM   C11S12783   5.259   3.343   7.502 -0.0628  0.5394 -0.2661
  121OSM   H11S12784   5.279   3.238   7.470 -1.1938 -0.3241  1.7145
  121OSM   H11T12785   5.150   3.361   7.506 -0.1416  0.6109 -1.8782
  121OSM   C12S12786   5.314   3.369   7.645  0.6231 -0.9685  0.1644
  121OSM   H12S12787   5.292   3.477   7.663 -0.6310 -1.1009 -0.5063
  121OSM   H12T12788   5.422   3.344   7.645  0.9142  0.1723 -0.7633
  121OSM   C13S12789   5.245   3.312   7.764  0.1048 -0.8332  0.8054
  121OSM   H13S12790   5.269   3.203   7.758 -2.3298 -1.3880 -0.3634
  121OSM   H13T12791   5.134   3.318   7.763  0.1765  0.9918 -0.3801
  121OSM   C14S12792   5.290   3.377   7.895  0.5681 -0.3339  0.1994
  121OSM   H14S12793   5.401   3.367   7.897  0.4998 -4.1331 -3.2186
  121OSM   H14T12794   5.241   3.313   7.971 -2.5940 -0.3570 -1.6870
  121OSM   C15S12795   5.255   3.527   7.914 -0.4398 -0.2696 -0.1203
  121OSM   H15S12796   5.146   3.528   7.892 -0.2888  0.3586 -0.8787
  121OSM   H15T12797   5.305   3.593   7.840  0.2508  0.4141  0.9102
  121OSM   C16S12798   5.312   3.587   8.051  0.1914  0.2630  0.6363
  121OSM   H16S12799   5.294   3.697   8.045  1.0738  0.3621 -0.5355
  121OSM   H16T12800   5.419   3.563   8.070  0.1791 -0.7000 -0.4450
  121OSM   C17S12801   5.216   3.532   8.159  0.8893  0.2601  0.8048
  121OSM   H17S12802   5.204   3.422   8.158 -0.8644  0.4310 -0.6464
  121OSM   H17T12803   5.115   3.563   8.125  1.0659 -1.1140 -1.0979
  121OSM   C18S12804   5.234   3.596   8.297  0.4337  0.0988  0.0856
  121OSM   H18S12805   5.327   3.552   8.340 -1.3016 -2.0814  1.8440
  121OSM   H18T12806   5.158   3.584   8.377  1.7532  0.9327  1.5186
  121OSM   H18U12807   5.251   3.705   8.286 -1.5332  0.3751 -0.5470
  121OSM    C1F12808   4.708   3.261   6.785 -0.0471 -0.4576 -0.9100
  121OSM     OF12809   4.707   3.161   6.709  0.3877 -0.1872 -0.3052
  121OSM    C2F12810   4.616   3.271   6.898 -0.4498 -0.6982 -0.2750
  121OSM    H2F12811   4.527   3.215   6.864  1.7308 -2.9281 -2.8691
  121OSM    H2G12812   4.587   3.378   6.912 -1.5618 -1.0019 -0.1614
  121OSM    C3F12813   4.675   3.221   7.034 -0.0152 -0.2163  0.1611
  121OSM    H3F12814   4.764   3.278   7.068  1.3831 -1.8644 -0.5148
  121OSM    H3G12815   4.711   3.118   7.013 -0.2144 -0.4564  0.9533
  121OSM    C4F12816   4.560   3.199   7.136 -0.4620  0.1072 -0.8969
  121OSM    H4F12817   4.481   3.137   7.090 -0.4456 -1.4264  1.0212
  121OSM    H4G12818   4.518   3.297   7.168 -0.9058 -0.8211  1.5486
  121OSM    C5F12819   4.617   3.131   7.258  0.2498 -0.7760 -0.4763
  121OSM    H5F12820   4.698   3.195   7.298 -1.7281  1.6429 -0.0582
  121OSM    H5G12821   4.657   3.031   7.232 -0.2091 -1.6593  1.9744
  121OSM    C6F12822   4.509   3.092   7.362  0.3136 -0.2684  0.0741
  121OSM    H6F12823   4.423   3.056   7.302 -0.4203  0.3983  0.7165
  121OSM    H6G12824   4.489   3.186   7.418 -1.6502 -1.7582  2.0207
  121OSM    C7F12825   4.565   2.990   7.455  0.1587 -0.1778 -0.4464
  121OSM    H7F12826   4.672   3.019   7.468  0.3874 -1.0119 -0.4018
  121OSM    H7G12827   4.585   2.893   7.404  1.3797  0.2596 -0.8531
  121OSM    C8F12828   4.501   2.977   7.587  0.2995 -0.5606  0.3589
  121OSM    H8F12829   4.500   3.075   7.638 -0.4401  0.1545 -0.9786
  121OSM    H8G12830   4.572   2.910   7.640  0.5266 -1.1659 -0.6934
  121OSM    C9F12831   4.361   2.913   7.590  0.4556 -0.0959 -0.7759
  121OSM    H9F12832   4.279   2.977   7.557  0.7250 -0.2903 -1.8363
  121OSM   C10F12833   4.320   2.790   7.628 -0.9402 -0.1581  0.0394
  121OSM   H10F12834   4.223   2.751   7.595 -0.4364 -1.4919  0.0645
  121OSM   C11F12835   4.406   2.673   7.668  0.5353  0.3318 -0.3110
  121OSM   H11F12836   4.353   2.599   7.732  1.1841 -0.7742 -1.0329
  121OSM   H11G12837   4.481   2.711   7.740  1.1982 -0.8196 -0.3857
  121OSM   C12F12838   4.482   2.596   7.555 -0.4960 -0.6300 -0.1833
  121OSM   H12F12839   4.511   2.493   7.584  0.9820 -0.6160 -1.4741
  121OSM   H12G12840   4.575   2.648   7.524 -1.2457  0.1554 -1.1712
  121OSM   C13F12841   4.418   2.596   7.422 -0.5176  0.1829  1.0844
  121OSM   H13F12842   4.395   2.695   7.377  0.9652 -0.8158 -2.1583
  121OSM   H13G12843   4.325   2.537   7.431 -1.2502  1.0526 -0.4856
  121OSM   C14F12844   4.514   2.525   7.320  0.1361  0.3586 -0.2676
  121OSM   H14F12845   4.499   2.417   7.339 -3.3873  0.7297 -0.2540
  121OSM   H14G12846   4.620   2.557   7.335  0.1433  0.4479 -0.5113
  121OSM   C15F12847   4.462   2.551   7.179 -0.0051  0.4642 -0.5320
  121OSM   H15F12848   4.353   2.530   7.179  0.1263 -0.3814  1.1274
  121OSM   H15G12849   4.510   2.473   7.115  0.1131  1.3592 -1.5727
  121OSM   C16F12850   4.510   2.686   7.127 -0.5753 -0.3211  0.3145
  121OSM   H16F12851   4.617   2.687   7.097 -1.2505 -0.0590 -2.4074
  121OSM   H16G12852   4.489   2.763   7.203 -0.5957 -0.9477  0.9551
  121OSM   C17F12853   4.439   2.728   7.002  0.0654  0.1484 -0.3524
  121OSM   H17F12854   4.336   2.759   7.030 -0.4963  0.2866 -2.3900
  121OSM   H17G12855   4.425   2.651   6.923 -1.2914 -1.0721  1.0222
  121OSM   C18F12856   4.513   2.842   6.924  0.2224 -0.7355 -0.1503
  121OSM   H18F12857   4.461   2.937   6.947 -0.4461 -1.4301  1.3463
  121OSM   H18G12858   4.517   2.827   6.814  0.7416  2.2505 -0.6217
  121OSM   H18H12859   4.618   2.850   6.960  0.0986  0.0547  0.0477
  122OSM      N12860   5.234   5.411   5.922 -0.6067  0.2387  0.0532
  122OSM    C1512861   5.321   5.480   5.824  0.1702  0.4149  0.5626
  122OSM   H15A12862   5.303   5.585   5.808  3.1563  1.0338  0.7102
  122OSM   H15B12863   5.323   5.418   5.735 -0.3466  2.0321 -0.6170
  122OSM   H15C12864   5.424   5.480   5.857  1.8902  0.9498 -4.0267
  122OSM    C1412865   5.245   5.487   6.055 -0.0014  0.2878 -0.1439
  122OSM   H14A12866   5.189   5.579   6.060 -1.4300 -0.6240  2.2884
  122OSM   H14B12867   5.348   5.500   6.082 -0.0975 -0.7560  0.8262
  122OSM   H14C12868   5.204   5.427   6.135  0.9749 -1.2628 -0.7556
  122OSM    C1312869   5.098   5.413   5.872 -0.4097  0.0696  0.9588
  122OSM   H13A12870   5.089   5.335   5.799  2.0144  0.1093  0.5357
  122OSM   H13B12871   5.074   5.506   5.823 -0.2938 -0.9775 -1.1910
  122OSM   H13C12872   5.014   5.391   5.936 -1.2198 -1.5610 -0.5912
  122OSM    C1212873   5.292   5.272   5.953  0.1822 -0.7195 -0.7232
  122OSM   H12A12874   5.389   5.295   5.995  0.7450  0.1114 -2.4243
  122OSM   H12B12875   5.309   5.210   5.867  1.3502  0.6719 -1.5434
  122OSM    C1112876   5.226   5.179   6.053  0.0394 -0.6986  0.5827
  122OSM   H11A12877   5.117   5.176   6.034  0.4962  1.0771 -3.1634
  122OSM   H11B12878   5.240   5.220   6.155  0.8201  0.3154  0.0906
  122OSM      P12879   5.227   4.925   5.963 -0.2696  0.0620 -0.0254
  122OSM    O1312880   5.143   4.979   5.853  0.4463 -0.1257  0.3880
  122OSM    O1412881   5.335   4.817   5.939  0.1850 -0.8065  0.2970
  122OSM    O1112882   5.137   4.874   6.082  0.0008  0.4781 -0.4639
  122OSM    O1212883   5.288   5.051   6.027 -0.3432  0.3389 -0.3393
  122OSM    C1S12884   5.218   4.814   6.192 -0.4879  0.2264  0.7175
  122OSM    H1S12885   5.328   4.829   6.189 -0.4319 -0.2358  0.1425
  122OSM    H1T12886   5.210   4.704   6.177  2.2699  0.1291 -0.7473
  122OSM     NF12887   5.262   4.843   6.430  0.0925  0.0104 -0.7054
  122OSM    HNF12888   5.245   4.796   6.517  2.2747  0.5317  0.0903
  122OSM    C2S12889   5.170   4.866   6.326  0.8790 -0.0640  0.3323
  122OSM    H2S12890   5.162   4.976   6.313 -2.0494 -0.5235 -3.4512
  122OSM    C3S12891   5.033   4.805   6.354 -0.0829 -0.2109  0.1883
  122OSM    H3S12892   5.040   4.694   6.355  0.3225 -0.2033 -1.0493
  122OSM     O312893   4.941   4.838   6.244 -0.7371  0.3386  0.4058
  122OSM    HO312894   5.008   4.852   6.176 -1.4865  0.6921 -0.2726
  122OSM    C4S12895   4.991   4.849   6.494 -0.0061 -0.8009 -0.2435
  122OSM    H4S12896   5.026   4.790   6.580 -1.6313  2.6199  3.0643
  122OSM    C5S12897   4.918   4.952   6.527 -0.2313 -0.1158 -0.4053
  122OSM    H5S12898   4.899   5.030   6.452 -0.4745 -2.4047 -2.8816
  122OSM    C6S12899   4.876   4.998   6.665 -0.3633  0.0420 -0.0667
  122OSM    H6S12900   4.840   5.103   6.662  0.1051  0.2027 -0.2754
  122OSM    H6T12901   4.964   4.997   6.734 -0.3553  1.5602 -0.0151
  122OSM    C7S12902   4.763   4.916   6.738 -0.1968  0.5018  0.1836
  122OSM    H7S12903   4.686   4.890   6.661 -2.8872 -0.9299  3.1362
  122OSM    H7T12904   4.713   4.975   6.817  0.0906 -0.6045  1.2158
  122OSM    C8S12905   4.789   4.780   6.802  0.1786  0.0597 -0.2911
  122OSM    H8S12906   4.851   4.792   6.893  0.1198 -2.1068  0.0664
  122OSM    H8T12907   4.848   4.719   6.731 -1.4891 -1.2252 -0.6396
  122OSM    C9S12908   4.656   4.722   6.852  0.4295 -0.2851 -0.6124
  122OSM    H9S12909   4.572   4.740   6.782 -2.6619 -1.5518  2.4493
  122OSM    H9T12910   4.647   4.761   6.955  1.9192 -0.9639 -0.1885
  122OSM   C10S12911   4.670   4.562   6.866  0.5740 -0.2396 -0.1356
  122OSM   H10S12912   4.695   4.517   6.768  1.7231  1.4453 -0.6715
  122OSM   H10T12913   4.566   4.530   6.889  1.4104 -2.3582  0.9875
  122OSM   C11S12914   4.749   4.514   6.991  0.1210 -0.4465 -0.1492
  122OSM   H11S12915   4.829   4.587   7.013  0.2198 -1.2103  2.3628
  122OSM   H11T12916   4.795   4.415   6.970 -2.1236 -1.1692 -2.1721
  122OSM   C12S12917   4.665   4.502   7.118 -0.3373  0.0510 -0.9648
  122OSM   H12S12918   4.597   4.415   7.107  0.8092 -0.9668 -0.3136
  122OSM   H12T12919   4.611   4.598   7.130  1.6264  0.9245  2.1582
  122OSM   C13S12920   4.753   4.475   7.244 -0.4746 -0.2229  0.0646
  122OSM   H13S12921   4.782   4.574   7.284 -2.0133 -0.4447  1.8653
  122OSM   H13T12922   4.844   4.413   7.229  1.3450  1.7027  2.2847
  122OSM   C14S12923   4.673   4.414   7.354  1.1614 -0.1544 -0.3623
  122OSM   H14S12924   4.617   4.329   7.309  1.4124 -1.0264  0.9057
  122OSM   H14T12925   4.595   4.481   7.395 -0.0301 -1.3655 -0.5699
  122OSM   C15S12926   4.759   4.348   7.465  0.4227 -0.0644  0.4265
  122OSM   H15S12927   4.830   4.424   7.506 -1.7501  2.0913  0.4025
  122OSM   H15T12928   4.825   4.272   7.418  2.0208  0.6327  1.4592
  122OSM   C16S12929   4.666   4.296   7.574 -0.0913  0.1122  0.2055
  122OSM   H16S12930   4.588   4.236   7.524  0.1867  1.2810 -1.7391
  122OSM   H16T12931   4.608   4.382   7.615 -1.5065 -0.4943 -0.4769
  122OSM   C17S12932   4.734   4.210   7.687  0.0108  0.2232 -0.1967
  122OSM   H17S12933   4.820   4.163   7.636  0.4055  1.2193 -0.4792
  122OSM   H17T12934   4.652   4.142   7.719 -1.2512  1.9476  0.4684
  122OSM   C18S12935   4.781   4.284   7.801  0.5068  0.2803  0.2751
  122OSM   H18S12936   4.693   4.338   7.841 -0.2898 -0.6574 -0.1675
  122OSM   H18T12937   4.862   4.357   7.779  0.0759  0.6767 -0.0469
  122OSM   H18U12938   4.818   4.216   7.880 -2.6028 -1.7914  0.1392
  122OSM    C1F12939   5.384   4.897   6.428  0.7099 -0.3767 -0.7487
  122OSM     OF12940   5.416   4.973   6.342  0.1641 -0.0788 -0.3693
  122OSM    C2F12941   5.472   4.860   6.546 -0.6050 -0.2404  0.5588
  122OSM    H2F12942   5.483   4.749   6.550 -4.1642 -0.6748  2.2178
  122OSM    H2G12943   5.412   4.870   6.640 -1.3026 -4.2185  0.7442
  122OSM    C3F12944   5.613   4.932   6.555 -0.2936  0.4566  0.2075
  122OSM    H3F12945   5.587   5.038   6.531 -1.0645  0.7880  2.3254
  122OSM    H3G12946   5.680   4.889   6.477 -0.3137 -1.2953  1.1119
  122OSM    C4F12947   5.683   4.918   6.691  0.1580  0.2616 -0.0193
  122OSM    H4F12948   5.787   4.953   6.670  1.2650 -1.6220  1.9012
  122OSM    H4G12949   5.681   4.810   6.715  2.6361  0.1341 -0.0530
  122OSM    C5F12950   5.625   5.005   6.798  0.1392 -0.3450 -0.3786
  122OSM    H5F12951   5.530   4.976   6.847  0.6202  0.5365  1.1639
  122OSM    H5G12952   5.604   5.105   6.755 -0.8873 -0.0920  0.6511
  122OSM    C6F12953   5.727   5.032   6.907  0.0378 -0.2340 -0.4958
  122OSM    H6F12954   5.686   5.103   6.982 -2.2463 -1.9128 -0.0381
  122OSM    H6G12955   5.819   5.073   6.860  0.6852 -0.8314  0.2130
  122OSM    C7F12956   5.748   4.903   6.983 -0.6697 -0.3373  0.3837
  122OSM    H7F12957   5.812   4.834   6.924 -1.0776 -0.0690 -0.3797
  122OSM    H7G12958   5.649   4.855   6.995 -1.0509  0.0583 -1.0222
  122OSM    C8F12959   5.800   4.921   7.129 -0.4543  0.3380 -0.1116
  122OSM    H8F12960   5.903   4.961   7.123 -0.6528  0.7466 -1.1106
  122OSM    H8G12961   5.815   4.821   7.173 -2.9371  1.0745  2.7144
  122OSM    C9F12962   5.718   4.997   7.228 -0.3413 -0.3129 -0.4378
  122OSM    H9F12963   5.688   5.099   7.198 -0.7603  0.8217  3.2889
  122OSM   C10F12964   5.680   4.963   7.347 -0.6256  0.6240 -0.0327
  122OSM   H10F12965   5.626   5.039   7.406  0.4276 -0.2223  2.1265
  122OSM   C11F12966   5.710   4.829   7.417  0.3226 -0.4124 -0.4349
  122OSM   H11F12967   5.815   4.794   7.413  0.5032  0.0894 -0.1031
  122OSM   H11G12968   5.650   4.748   7.369  0.7833 -1.0312  0.0074
  122OSM   C12F12969   5.666   4.823   7.573 -0.7575  0.0637 -0.8011
  122OSM   H12F12970   5.670   4.716   7.601 -1.6480  0.0819 -0.5849
  122OSM   H12G12971   5.559   4.853   7.566 -0.5002  1.0417 -0.7668
  122OSM   C13F12972   5.741   4.920   7.666 -0.0786 -0.4589  0.1166
  122OSM   H13F12973   5.706   5.022   7.639  1.2077 -0.6671 -2.6921
  122OSM   H13G12974   5.850   4.912   7.645 -0.3366 -0.1207 -1.4436
  122OSM   C14F12975   5.716   4.886   7.815 -0.1063  0.6880  0.5630
  122OSM   H14F12976   5.749   4.786   7.849 -1.4175 -0.7491 -2.0663
  122OSM   H14G12977   5.606   4.867   7.822  0.2908 -1.3817  2.5056
  122OSM   C15F12978   5.768   4.996   7.900 -0.5141 -0.3076  0.1958
  122OSM   H15F12979   5.734   5.099   7.876  1.0741  0.8443  2.4670
  122OSM   H15G12980   5.879   4.999   7.897 -0.5085 -0.2571  0.4153
  122OSM   C16F12981   5.719   4.989   8.048  0.4080 -1.0869 -0.2579
  122OSM   H16F12982   5.724   4.882   8.077  2.5525 -0.6000  1.4636
  122OSM   H16G12983   5.612   5.014   8.060  0.4006 -1.1351 -0.2234
  122OSM   C17F12984   5.805   5.072   8.151  0.1040 -0.3877  0.3238
  122OSM   H17F12985   5.730   5.100   8.228  0.2815  1.6861 -0.2166
  122OSM   H17G12986   5.850   5.168   8.121 -2.0867  0.6456  0.1470
  122OSM   C18F12987   5.908   4.979   8.217 -0.0052 -0.5684  0.3642
  122OSM   H18F12988   5.859   4.918   8.296 -0.1545 -2.4404 -1.1174
  122OSM   H18G12989   5.996   5.033   8.256 -0.0729 -0.6580  0.6398
  122OSM   H18H12990   5.931   4.907   8.136 -2.1046 -1.4735  0.4952
  123OSM      N12991   3.920   5.447   6.237 -0.3840  0.1138 -0.0129
  123OSM    C1512992   4.046   5.379   6.222 -0.1476 -0.8558  0.0474
  123OSM   H15A12993   4.132   5.435   6.254  0.3143 -0.3832 -1.8941
  123OSM   H15B12994   4.058   5.369   6.115 -1.8920  2.2810 -0.5789
  123OSM   H15C12995   4.065   5.288   6.276 -0.3364 -1.8827 -1.5558
  123OSM    C1412996   3.941   5.575   6.172 -0.1968 -0.5123 -0.2970
  123OSM   H14A12997   3.846   5.627   6.166  0.6987  1.1690 -0.6135
  123OSM   H14B12998   3.984   5.570   6.073 -0.0267  0.2233 -0.2722
  123OSM   H14C12999   4.007   5.642   6.226 -1.5111  2.3608 -2.0422
  123OSM    C1313000   3.811   5.387   6.158 -0.7481 -0.0059  0.0091
  123OSM   H13A13001   3.717   5.429   6.191 -0.6657  0.7103 -0.6577
  123OSM   H13B13002   3.813   5.282   6.187 -0.5528  0.5671  2.2753
  123OSM   H13C13003   3.829   5.398   6.053  2.1079 -0.1921  0.3930
  123OSM    C1213004   3.891   5.464   6.380  0.1820  0.6372  0.2332
  123OSM   H12A13005   3.800   5.522   6.388 -0.8279 -0.9413  0.7554
  123OSM   H12B13006   3.963   5.528   6.429 -0.5017  0.5888  1.3461
  123OSM    C1113007   3.866   5.334   6.470  0.3251  0.6338 -0.8346
  123OSM   H11A13008   3.857   5.350   6.579 -1.8054 -0.1226 -0.8482
  123OSM   H11B13009   3.953   5.268   6.453  0.5020  0.5751  0.2644
  123OSM      P13010   3.607   5.349   6.457 -0.2534  0.0551 -0.1547
  123OSM    O1313011   3.605   5.487   6.411 -0.0675 -0.4973  0.0861
  123OSM    O1413012   3.507   5.258   6.401 -0.0585  0.0752 -0.1124
  123OSM    O1113013   3.600   5.343   6.614  0.5954 -0.3762 -0.4020
  123OSM    O1213014   3.742   5.273   6.424 -0.2514 -0.2350  0.0833
  123OSM    C1S13015   3.558   5.227   6.681  0.0299  0.2456  0.7122
  123OSM    H1S13016   3.543   5.137   6.617 -1.2789 -0.5473  2.0630
  123OSM    H1T13017   3.457   5.238   6.727 -0.4706 -0.5679 -0.1589
  123OSM     NF13018   3.633   5.050   6.849  0.0505  0.5507  0.7310
  123OSM    HNF13019   3.589   5.049   6.939 -0.6799  1.0250  0.3923
  123OSM    C2S13020   3.665   5.184   6.789 -0.3149 -0.3696 -0.5778
  123OSM    H2S13021   3.765   5.172   6.741 -0.6209 -3.3273 -0.6040
  123OSM    C3S13022   3.682   5.296   6.901  0.3425  0.1365  0.5204
  123OSM    H3S13023   3.589   5.295   6.961 -0.8425 -1.1186 -1.2080
  123OSM     O313024   3.683   5.432   6.850 -0.2053 -0.3749  0.2456
  123OSM    HO313025   3.664   5.403   6.760 -1.5673 -3.7394  1.4595
  123OSM    C4S13026   3.807   5.270   6.982  0.2911 -0.1266 -0.4643
  123OSM    H4S13027   3.778   5.222   7.076  1.7402  1.9263  1.1212
  123OSM    C5S13028   3.940   5.284   6.965  0.1288 -0.7348 -0.2744
  123OSM    H5S13029   3.967   5.317   6.864 -0.4073 -1.5975 -0.7124
  123OSM    C6S13030   4.056   5.246   7.060 -0.0474 -0.3842 -0.1318
  123OSM    H6S13031   4.111   5.342   7.068 -0.8965  0.1044 -0.0729
  123OSM    H6T13032   4.123   5.172   7.012  0.1493  0.1202 -0.6504
  123OSM    C7S13033   4.018   5.202   7.205 -0.1747 -0.0549 -0.0041
  123OSM    H7S13034   3.968   5.103   7.203 -0.6784  0.1359  1.4389
  123OSM    H7T13035   3.939   5.262   7.255  0.5092 -1.1039  2.4934
  123OSM    C8S13036   4.130   5.208   7.313 -0.1714  0.2224  0.4132
  123OSM    H8S13037   4.174   5.308   7.333 -0.5723  0.3165  0.8470
  123OSM    H8T13038   4.216   5.154   7.269  0.9136  1.6840  0.6471
  123OSM    C9S13039   4.079   5.153   7.446 -0.3967  0.2891 -0.0531
  123OSM    H9S13040   4.042   5.052   7.419 -2.2921  0.9880 -0.2027
  123OSM    H9T13041   3.992   5.209   7.487 -0.2902  0.5578 -0.1872
  123OSM   C10S13042   4.186   5.111   7.552  0.4627 -0.7988 -0.4562
  123OSM   H10S13043   4.281   5.075   7.508  0.4617 -2.4746  0.8130
  123OSM   H10T13044   4.141   5.031   7.615 -0.9870  0.7024  0.4892
  123OSM   C11S13045   4.212   5.230   7.655  0.0604 -0.4335  0.5086
  123OSM   H11S13046   4.110   5.244   7.698  0.5134 -1.7084  2.1087
  123OSM   H11T13047   4.237   5.314   7.587  0.1585 -0.7643  0.1324
  123OSM   C12S13048   4.306   5.205   7.775  0.1360  0.2100 -0.0168
  123OSM   H12S13049   4.323   5.297   7.835 -0.8418  0.4931 -0.1587
  123OSM   H12T13050   4.400   5.170   7.729 -0.5492 -0.5326 -0.8788
  123OSM   C13S13051   4.245   5.102   7.876 -0.1864 -0.7625  0.3030
  123OSM   H13S13052   4.240   5.000   7.832  1.4225 -0.6315 -0.2568
  123OSM   H13T13053   4.139   5.133   7.888 -0.2560 -1.4224  1.5210
  123OSM   C14S13054   4.342   5.088   7.993 -0.1996  0.1094 -0.0317
  123OSM   H14S13055   4.445   5.061   7.960  0.2260 -2.1765  2.6797
  123OSM   H14T13056   4.291   5.016   8.060  0.9718 -1.0755 -0.3621
  123OSM   C15S13057   4.352   5.217   8.076 -0.2779 -0.3685  0.4230
  123OSM   H15S13058   4.260   5.277   8.093 -0.1063  0.9082 -2.5054
  123OSM   H15T13059   4.401   5.292   8.010 -1.3740  0.5355  0.5994
  123OSM   C16S13060   4.429   5.197   8.205 -0.1857 -0.8174 -0.1891
  123OSM   H16S13061   4.356   5.146   8.273  0.6770  1.4113  2.6130
  123OSM   H16T13062   4.467   5.294   8.244 -2.9260  0.4900 -0.5311
  123OSM   C17S13063   4.549   5.102   8.198 -0.1973  0.3380  0.6069
  123OSM   H17S13064   4.627   5.142   8.129  0.7747 -0.8700  0.9901
  123OSM   H17T13065   4.524   5.003   8.155  1.7604  0.4014 -0.8170
  123OSM   C18S13066   4.610   5.073   8.334  0.1310 -0.7287  0.0031
  123OSM   H18S13067   4.616   5.166   8.394  2.4860  0.2336 -1.5691
  123OSM   H18T13068   4.711   5.029   8.317  0.6723  0.3928  0.2359
  123OSM   H18U13069   4.553   4.994   8.387  0.1764 -1.0710 -0.4501
  123OSM    C1F13070   3.654   4.928   6.790 -0.0663 -0.7631 -0.3307
  123OSM     OF13071   3.727   4.926   6.690 -0.2154 -0.1436  0.4196
  123OSM    C2F13072   3.588   4.802   6.836  0.3964 -0.6589 -0.6177
  123OSM    H2F13073   3.528   4.768   6.749  0.5737 -1.6474 -0.3661
  123OSM    H2G13074   3.528   4.828   6.926 -0.0013 -2.1333 -0.4416
  123OSM    C3F13075   3.676   4.681   6.865  0.1018  0.1420 -0.6031
  123OSM    H3F13076   3.734   4.649   6.775 -0.3366  2.0968 -1.6350
  123OSM    H3G13077   3.599   4.604   6.887  1.2655 -2.0840 -3.5673
  123OSM    C4F13078   3.773   4.696   6.978 -0.5225 -0.7185  1.1966
  123OSM    H4F13079   3.864   4.747   6.940 -0.9559 -0.4248  0.5409
  123OSM    H4G13080   3.805   4.590   6.994 -0.6555 -0.8330  0.7219
  123OSM    C5F13081   3.713   4.751   7.110  0.0924  0.4178 -0.4240
  123OSM    H5F13082   3.613   4.704   7.124 -0.0171  0.9374  0.5985
  123OSM    H5G13083   3.700   4.860   7.097  0.3766  0.3259 -1.5859
  123OSM    C6F13084   3.812   4.720   7.222 -0.2481  0.1632  0.6471
  123OSM    H6F13085   3.838   4.612   7.227  2.1267  0.6641  0.5023
  123OSM    H6G13086   3.764   4.744   7.319  1.9088  2.5043  1.2500
  123OSM    C7F13087   3.941   4.800   7.227 -0.1860  0.0733  0.0672
  123OSM    H7F13088   3.910   4.907   7.225 -0.8611 -0.1178 -1.6724
  123OSM    H7G13089   4.011   4.783   7.142 -0.1488  2.2681 -0.4233
  123OSM    C8F13090   4.001   4.773   7.363 -0.7396 -0.6572  0.0097
  123OSM    H8F13091   3.994   4.664   7.385  2.0321 -0.6104  1.5277
  123OSM    H8G13092   3.938   4.828   7.435 -0.9972  1.3459 -1.6612
  123OSM    C9F13093   4.147   4.821   7.375 -0.0240 -0.0301 -0.5763
  123OSM    H9F13094   4.181   4.899   7.305 -0.7948 -1.1210 -2.2350
  123OSM   C10F13095   4.240   4.772   7.452 -0.2754  0.6082 -0.0126
  123OSM   H10F13096   4.339   4.818   7.436  0.1236  0.3327  1.5327
  123OSM   C11F13097   4.235   4.653   7.549  0.0226 -0.9139  0.6657
  123OSM   H11F13098   4.333   4.601   7.549  1.7780  1.8546  4.5697
  123OSM   H11G13099   4.154   4.590   7.509 -1.6366  0.0883  2.2886
  123OSM   C12F13100   4.183   4.689   7.687 -0.4803 -0.0227 -0.9113
  123OSM   H12F13101   4.142   4.612   7.756  2.0597 -0.1811  0.5220
  123OSM   H12G13102   4.091   4.747   7.662 -0.2996 -0.4535 -2.7381
  123OSM   C13F13103   4.287   4.746   7.784 -0.3377  0.1203  0.6619
  123OSM   H13F13104   4.225   4.753   7.876  0.2226 -1.6426  1.2060
  123OSM   H13G13105   4.324   4.843   7.744 -2.6162  1.1186  0.8316
  123OSM   C14F13106   4.399   4.652   7.823 -0.8308 -0.1601 -0.0841
  123OSM   H14F13107   4.467   4.638   7.737  0.5050  0.2827  0.8740
  123OSM   H14G13108   4.351   4.559   7.861  1.7799 -1.1509  1.0512
  123OSM   C15F13109   4.479   4.715   7.945 -0.0048  0.1416  0.7888
  123OSM   H15F13110   4.404   4.750   8.018  0.3253  1.1344  0.6679
  123OSM   H15G13111   4.529   4.803   7.899  1.9364 -1.4966 -0.4186
  123OSM   C16F13112   4.571   4.617   8.019 -0.6718  0.7724  0.3898
  123OSM   H16F13113   4.654   4.595   7.949 -1.5863 -0.5889 -0.3057
  123OSM   H16G13114   4.516   4.524   8.045  1.0029 -0.3231  0.1694
  123OSM   C17F13115   4.621   4.669   8.155  0.9123 -0.1872  0.6620
  123OSM   H17F13116   4.523   4.679   8.207  0.8763 -0.6817  0.6955
  123OSM   H17G13117   4.666   4.770   8.155  0.2371  0.1451 -0.9796
  123OSM   C18F13118   4.721   4.578   8.228  1.3286 -0.2367  0.0514
  123OSM   H18F13119   4.817   4.577   8.172  1.7375 -3.4975  0.6424
  123OSM   H18G13120   4.683   4.475   8.241 -0.6050  0.4778  0.3703
  123OSM   H18H13121   4.735   4.617   8.331  1.2828 -0.1299  0.0174
  124OSM      N13122   3.812   0.578   5.789 -1.2582 -0.1777 -0.0498
  124OSM    C1513123   3.735   0.698   5.746  0.6931 -0.4817  0.3523
  124OSM   H15A13124   3.632   0.682   5.776  0.1923 -1.4550 -1.7025
  124OSM   H15B13125   3.746   0.727   5.642  0.3004  2.5356  1.0520
  124OSM   H15C13126   3.758   0.784   5.808 -0.5992 -0.8990  1.4531
  124OSM    C1413127   3.780   0.476   5.687 -0.5359  0.6391 -0.3978
  124OSM   H14A13128   3.826   0.379   5.701 -0.5503  0.8889  1.7133
  124OSM   H14B13129   3.819   0.500   5.589 -1.9339  0.6172 -0.9734
  124OSM   H14C13130   3.673   0.462   5.678 -0.7615 -1.0702  3.1213
  124OSM    C1313131   3.957   0.610   5.777 -0.5538 -0.4815 -0.1451
  124OSM   H13A13132   3.991   0.627   5.676  1.2558 -2.1429  0.1258
  124OSM   H13B13133   4.006   0.523   5.818  0.4208  0.0701 -0.1058
  124OSM   H13C13134   3.983   0.697   5.835 -2.1496  0.8305 -1.2985
  124OSM    C1213135   3.791   0.538   5.928  0.5575 -0.5032 -0.0203
  124OSM   H12A13136   3.846   0.448   5.954 -2.2332 -2.1823  0.6228
  124OSM   H12B13137   3.687   0.511   5.944 -0.0142  1.2646 -0.5252
  124OSM    C1113138   3.824   0.644   6.028  0.0439  0.1369  0.4155
  124OSM   H11A13139   3.773   0.623   6.124  1.4371  0.1623  1.1898
  124OSM   H11B13140   3.791   0.748   6.009  0.3746  0.5278  1.8400
  124OSM      P13141   4.054   0.531   6.119  0.2116  0.0351  0.0849
  124OSM    O1313142   3.984   0.404   6.097 -0.4277 -0.2104 -0.0215
  124OSM    O1413143   4.193   0.535   6.070  0.2500 -0.4172  0.3530
  124OSM    O1113144   4.058   0.578   6.270  0.0029 -0.1424  0.6173
  124OSM    O1213145   3.968   0.648   6.056 -0.0071  0.2136  0.4635
  124OSM    C1S13146   4.143   0.685   6.316  0.2713 -0.4503 -0.9141
  124OSM    H1S13147   4.089   0.782   6.305  2.3099  0.8716  0.0959
  124OSM    H1T13148   4.239   0.687   6.261  1.1781  0.1123  0.6198
  124OSM     NF13149   4.251   0.772   6.514  0.2834 -0.6700 -0.1107
  124OSM    HNF13150   4.348   0.756   6.528 -0.0778 -3.0821  0.0444
  124OSM    C2S13151   4.184   0.659   6.459  0.7199  0.0300  0.0305
  124OSM    H2S13152   4.096   0.643   6.525  1.0502 -0.7569  0.2901
  124OSM    C3S13153   4.264   0.529   6.472 -0.3157 -0.1929 -0.5487
  124OSM    H3S13154   4.352   0.539   6.405  1.0282  0.0194  1.1727
  124OSM     O313155   4.189   0.418   6.420  0.1343 -0.1549 -0.3365
  124OSM    HO313156   4.121   0.452   6.361 -1.6026 -3.4560 -0.5166
  124OSM    C4S13157   4.306   0.507   6.614  0.4334  0.0305 -0.7420
  124OSM    H4S13158   4.414   0.493   6.633 -0.1370 -2.6107  1.0712
  124OSM    C5S13159   4.229   0.473   6.717 -0.1907 -0.0646  0.4547
  124OSM    H5S13160   4.125   0.446   6.692 -0.1416 -0.6131  0.8296
  124OSM    C6S13161   4.289   0.443   6.853  0.0596 -0.4426  0.2321
  124OSM    H6S13162   4.400   0.454   6.855  0.4897 -3.7108  0.1629
  124OSM    H6T13163   4.266   0.340   6.888 -1.6884 -0.0222  0.4085
  124OSM    C7S13164   4.246   0.538   6.957  0.3771  0.0653  0.2104
  124OSM    H7S13165   4.135   0.534   6.966  0.1223 -1.3564 -2.6127
  124OSM    H7T13166   4.272   0.643   6.934 -1.4394  0.9284  1.7159
  124OSM    C8S13167   4.304   0.504   7.091  0.0827 -0.1250 -0.4525
  124OSM    H8S13168   4.410   0.535   7.103 -0.0197 -0.5042  2.0987
  124OSM    H8T13169   4.307   0.394   7.103  0.3285 -0.0214  0.5644
  124OSM    C9S13170   4.216   0.568   7.198 -0.1259  0.5649 -0.1106
  124OSM    H9S13171   4.111   0.538   7.177  0.5660 -1.4939 -0.9485
  124OSM    H9T13172   4.222   0.678   7.204 -0.4553  0.5080  2.0451
  124OSM   C10S13173   4.256   0.510   7.342  0.4522 -0.2354 -0.1101
  124OSM   H10S13174   4.352   0.555   7.376  0.1629 -0.3005  0.8380
  124OSM   H10T13175   4.279   0.402   7.344  1.5486 -0.0196 -0.3635
  124OSM   C11S13176   4.144   0.535   7.442  0.6988  0.4533  0.0414
  124OSM   H11S13177   4.050   0.484   7.414 -0.2097  2.2911 -0.3719
  124OSM   H11T13178   4.123   0.644   7.445  0.9223  0.4997 -0.0514
  124OSM   C12S13179   4.187   0.491   7.586  0.0824 -0.1305 -0.1597
  124OSM   H12S13180   4.266   0.560   7.623 -1.7401  0.7944  2.3003
  124OSM   H12T13181   4.227   0.389   7.569 -0.1481  0.1473 -2.6794
  124OSM   C13S13182   4.077   0.490   7.693  0.0969 -0.7375 -0.3796
  124OSM   H13S13183   4.002   0.411   7.672  1.8156 -2.2490 -1.1942
  124OSM   H13T13184   4.018   0.583   7.682 -0.4709 -0.7649  2.0232
  124OSM   C14S13185   4.134   0.489   7.838 -0.0503  0.7423 -0.4293
  124OSM   H14S13186   4.219   0.560   7.846 -0.9203  2.1542 -2.6541
  124OSM   H14T13187   4.176   0.389   7.860  0.7760  1.8581  3.9275
  124OSM   C15S13188   4.025   0.524   7.933  0.4904  0.5769  0.2315
  124OSM   H15S13189   3.951   0.444   7.909  1.3630  0.4172 -2.1981
  124OSM   H15T13190   3.975   0.622   7.915  0.8245  0.7281  0.1132
  124OSM   C16S13191   4.065   0.518   8.080 -0.1884  0.6499  0.2891
  124OSM   H16S13192   4.157   0.576   8.101  0.5345 -0.4505  0.2240
  124OSM   H16T13193   4.073   0.409   8.102 -3.7003 -0.0846 -1.2437
  124OSM   C17S13194   3.949   0.572   8.166 -0.4945 -0.4484 -0.3810
  124OSM   H17S13195   3.859   0.510   8.149 -2.2848  1.1053  2.6291
  124OSM   H17T13196   3.930   0.676   8.133  1.6557 -0.4086 -1.7195
  124OSM   C18S13197   3.971   0.561   8.317 -0.2933 -0.4537 -0.5080
  124OSM   H18S13198   4.068   0.603   8.352 -0.1291  0.6534 -2.1938
  124OSM   H18T13199   3.969   0.453   8.346 -0.0905  0.0402  1.5024
  124OSM   H18U13200   3.886   0.611   8.367 -1.0175 -1.7458 -0.3915
  124OSM    C1F13201   4.206   0.892   6.539  0.2432 -0.4149  0.4926
  124OSM     OF13202   4.088   0.919   6.521 -0.2094 -0.1918 -0.0835
  124OSM    C2F13203   4.300   0.994   6.600  0.0034 -0.2561 -0.3332
  124OSM    H2F13204   4.322   1.081   6.535  2.1496 -0.2059  0.3856
  124OSM    H2G13205   4.398   0.946   6.622 -0.2036 -1.0598 -1.1187
  124OSM    C3F13206   4.249   1.045   6.737  0.2335 -0.4614 -0.3058
  124OSM    H3F13207   4.148   1.089   6.726  1.0965  1.2173 -1.9971
  124OSM    H3G13208   4.310   1.131   6.772 -0.5774  0.2799 -0.6895
  124OSM    C4F13209   4.269   0.937   6.849  0.0219 -0.4221 -0.8058
  124OSM    H4F13210   4.375   0.904   6.842  0.4181  0.5795  0.1244
  124OSM    H4G13211   4.204   0.850   6.827 -3.0894  1.5318  0.0299
  124OSM    C5F13212   4.232   0.985   6.989  0.0592  0.2577 -0.1602
  124OSM    H5F13213   4.223   0.895   7.054  1.2062 -0.0610 -0.4113
  124OSM    H5G13214   4.138   1.044   6.988 -0.3994 -0.4588  0.0209
  124OSM    C6F13215   4.339   1.081   7.044  0.4325 -0.7229 -0.0438
  124OSM    H6F13216   4.371   1.153   6.966 -0.4917  0.1656  0.3821
  124OSM    H6G13217   4.426   1.013   7.059 -0.6364 -1.8740  1.3659
  124OSM    C7F13218   4.301   1.156   7.171  0.3562  0.2154  0.1874
  124OSM    H7F13219   4.230   1.235   7.138 -2.5546 -2.5115 -0.5336
  124OSM    H7G13220   4.390   1.206   7.215  0.6346  1.3944 -1.6103
  124OSM    C8F13221   4.222   1.073   7.280 -0.0002 -0.2384  0.0154
  124OSM    H8F13222   4.123   1.047   7.236  0.5478  1.3027 -2.3112
  124OSM    H8G13223   4.194   1.148   7.357 -0.3791 -1.0787  0.7136
  124OSM    C9F13224   4.289   0.949   7.340 -0.2134 -0.4599  0.0306
  124OSM    H9F13225   4.362   0.895   7.278  0.7750  0.7785  0.0829
  124OSM   C10F13226   4.254   0.891   7.453 -0.1399 -0.1719  0.0164
  124OSM   H10F13227   4.315   0.804   7.482  0.3976 -1.4786 -4.4025
  124OSM   C11F13228   4.156   0.943   7.556  0.7667 -0.5597 -0.2638
  124OSM   H11F13229   4.049   0.928   7.527  0.7621  0.4446 -0.8469
  124OSM   H11G13230   4.165   1.054   7.563 -0.1683 -0.4717 -0.2353
  124OSM   C12F13231   4.177   0.883   7.698 -0.0854 -0.0539  0.4676
  124OSM   H12F13232   4.285   0.905   7.713  0.3240 -0.9752 -0.9770
  124OSM   H12G13233   4.168   0.773   7.702 -2.0565 -0.1059 -2.5683
  124OSM   C13F13234   4.086   0.955   7.802  0.0218  0.6547 -0.0527
  124OSM   H13F13235   3.984   0.925   7.770 -0.0982  0.9662  0.0306
  124OSM   H13G13236   4.100   1.065   7.789  2.7332  0.4049  0.1613
  124OSM   C14F13237   4.114   0.915   7.942  0.0335 -0.1005 -0.3236
  124OSM   H14F13238   4.133   0.806   7.956  2.2442  0.4030  1.0327
  124OSM   H14G13239   4.031   0.958   8.003 -0.3105  0.2619 -1.0231
  124OSM   C15F13240   4.248   0.972   7.999 -0.0719  0.5439 -0.4862
  124OSM   H15F13241   4.253   1.083   7.995 -0.2708  0.5966  0.4894
  124OSM   H15G13242   4.336   0.929   7.947  0.5853  0.3553  0.7254
  124OSM   C16F13243   4.256   0.942   8.154 -0.3811 -0.4280  0.9669
  124OSM   H16F13244   4.293   0.838   8.169 -1.1570 -0.8447  0.1181
  124OSM   H16G13245   4.153   0.932   8.195 -0.3457  0.7308  1.3606
  124OSM   C17F13246   4.330   1.046   8.239 -0.2278  0.0212 -0.0113
  124OSM   H17F13247   4.268   1.136   8.221  2.2902  1.4179 -2.4959
  124OSM   H17G13248   4.430   1.069   8.197  0.4631  1.7545  2.3791
  124OSM   C18F13249   4.322   1.027   8.393  0.2644  0.4017  0.4160
  124OSM   H18F13250   4.366   0.930   8.426  1.1365  0.2941 -1.0092
  124OSM   H18G13251   4.213   1.030   8.414 -0.0497  3.1112 -1.1866
  124OSM   H18H13252   4.369   1.105   8.456  1.4664 -0.7156  0.9685
  125OSM      N13253   3.963   3.391   6.478  0.3488 -0.8203 -0.0400
  125OSM    C1513254   4.003   3.527   6.429 -0.0025 -0.6830 -0.2220
  125OSM   H15A13255   4.090   3.561   6.483 -0.5755 -0.7004  0.7406
  125OSM   H15B13256   3.928   3.602   6.448  1.8945  1.0172  0.8765
  125OSM   H15C13257   4.022   3.529   6.323  1.2212  1.1241 -0.0108
  125OSM    C1413258   4.059   3.294   6.434 -0.3844 -0.1989  0.1939
  125OSM   H14A13259   4.052   3.207   6.498  0.0885  0.8257  1.7117
  125OSM   H14B13260   4.159   3.330   6.455  0.4563 -2.2149 -0.1137
  125OSM   H14C13261   4.041   3.259   6.334 -3.8174 -0.0224  0.6181
  125OSM    C1313262   3.970   3.392   6.624  0.7648 -0.7364  0.1287
  125OSM   H13A13263   3.887   3.445   6.668  0.5434 -2.0054  1.3208
  125OSM   H13B13264   4.055   3.426   6.680 -0.2631  2.1586  0.1339
  125OSM   H13C13265   3.966   3.293   6.665  2.4590 -1.0266 -0.3622
  125OSM    C1213266   3.826   3.345   6.432  0.4044  0.5166 -0.4133
  125OSM   H12A13267   3.752   3.413   6.471 -1.0974 -0.9616 -0.5699
  125OSM   H12B13268   3.799   3.246   6.465 -3.9505  1.4840 -0.4285
  125OSM    C1113269   3.809   3.352   6.278  0.3743  0.1581  0.5179
  125OSM   H11A13270   3.827   3.455   6.241 -0.4267 -0.1249 -0.7318
  125OSM   H11B13271   3.701   3.335   6.260  0.2775  1.0781  0.1855
  125OSM      P13272   3.821   3.132   6.134  0.1130  0.1296 -0.1203
  125OSM    O1313273   3.696   3.182   6.067 -0.0211  0.4298 -0.4166
  125OSM    O1413274   3.916   3.068   6.038 -0.5577  0.5611  0.3165
  125OSM    O1113275   3.785   3.034   6.256 -0.2804 -0.4011  0.0393
  125OSM    O1213276   3.894   3.259   6.206 -0.1889 -0.1961  0.9679
  125OSM    C1S13277   3.888   2.963   6.323  0.1550 -0.1228 -0.1233
  125OSM    H1S13278   3.978   3.023   6.348  0.4883 -0.1301 -1.2885
  125OSM    H1T13279   3.911   2.881   6.252  1.0186 -0.2527  0.2815
  125OSM     NF13280   3.948   2.863   6.546 -0.4261 -0.0992 -0.0451
  125OSM    HNF13281   3.992   2.775   6.528 -0.8426 -0.1256 -1.0058
  125OSM    C2S13282   3.840   2.899   6.457  0.3390 -0.3508 -0.0494
  125OSM    H2S13283   3.781   2.979   6.506 -0.7372 -0.5879 -0.9153
  125OSM    C3S13284   3.730   2.782   6.436 -0.2588 -0.3111 -0.9211
  125OSM    H3S13285   3.790   2.700   6.391  1.5894 -0.0570  0.8982
  125OSM     O313286   3.615   2.819   6.364  0.3932  0.1182 -0.2716
  125OSM    HO313287   3.634   2.896   6.310 -0.5858  1.6542  1.4532
  125OSM    C4S13288   3.682   2.731   6.578  0.6544  0.3806  0.5173
  125OSM    H4S13289   3.617   2.798   6.637 -1.8382 -0.9086 -0.6090
  125OSM    C5S13290   3.711   2.613   6.634 -0.4553 -0.6285  0.2594
  125OSM    H5S13291   3.780   2.551   6.575  1.5082  1.0058  0.7545
  125OSM    C6S13292   3.677   2.555   6.770  0.2028  0.0544 -0.2182
  125OSM    H6S13293   3.774   2.565   6.823  1.3482 -0.5014 -2.1000
  125OSM    H6T13294   3.654   2.448   6.756 -0.7751  0.4046 -1.4794
  125OSM    C7S13295   3.557   2.624   6.838  0.6839 -0.1719 -0.7713
  125OSM    H7S13296   3.464   2.608   6.779 -1.8652  1.6575  2.3933
  125OSM    H7T13297   3.580   2.730   6.863 -0.9715  0.3709 -1.4114
  125OSM    C8S13298   3.524   2.546   6.968  0.3777  0.3987  0.0066
  125OSM    H8S13299   3.612   2.538   7.035 -0.2015  1.1299  0.8873
  125OSM    H8T13300   3.504   2.442   6.935  2.3807  0.0363 -0.2027
  125OSM    C9S13301   3.401   2.600   7.036 -0.2172 -0.8962 -0.4398
  125OSM    H9S13302   3.306   2.581   6.983  0.1694  1.0027 -1.9252
  125OSM    H9T13303   3.400   2.710   7.053 -1.6437 -1.2800  2.7402
  125OSM   C10S13304   3.389   2.527   7.168 -0.0764 -0.7822  0.1157
  125OSM   H10S13305   3.412   2.418   7.160  0.2751 -0.8248  1.4494
  125OSM   H10T13306   3.281   2.542   7.188  0.2461  1.9413  0.1588
  125OSM   C11S13307   3.471   2.588   7.284  0.5098 -0.4665 -0.1979
  125OSM   H11S13308   3.465   2.696   7.258 -0.0113 -1.0076 -2.5499
  125OSM   H11T13309   3.578   2.565   7.261  0.9438  1.7539 -0.6300
  125OSM   C12S13310   3.426   2.542   7.421 -1.1197  0.7084  0.3134
  125OSM   H12S13311   3.467   2.440   7.439 -1.0442 -0.3295 -4.4343
  125OSM   H12T13312   3.316   2.535   7.435 -0.8562 -1.4768  1.9344
  125OSM   C13S13313   3.476   2.631   7.535 -0.2357  0.2152  0.4450
  125OSM   H13S13314   3.446   2.735   7.511  0.6353  0.1520 -1.0246
  125OSM   H13T13315   3.587   2.639   7.536 -0.2504  0.4848  1.5912
  125OSM   C14S13316   3.438   2.576   7.667  1.0957  0.4810 -0.8085
  125OSM   H14S13317   3.482   2.474   7.664  2.0698  0.8892 -0.6249
  125OSM   H14T13318   3.327   2.577   7.677  0.8901  3.2768 -2.4693
  125OSM   C15S13319   3.475   2.658   7.790 -0.1342  0.0832 -0.5066
  125OSM   H15S13320   3.431   2.759   7.778  0.5413  0.4486  0.0366
  125OSM   H15T13321   3.585   2.667   7.788 -0.1108 -0.0120  0.2141
  125OSM   C16S13322   3.443   2.572   7.922 -0.2875  0.4605  0.5526
  125OSM   H16S13323   3.515   2.488   7.922 -0.0380  0.6604 -0.4694
  125OSM   H16T13324   3.336   2.544   7.909  0.1799 -1.2058  0.1227
  125OSM   C17S13325   3.470   2.658   8.052 -0.8095  0.6791  0.7031
  125OSM   H17S13326   3.580   2.674   8.054 -0.5740 -0.0566 -2.0778
  125OSM   H17T13327   3.433   2.594   8.135  0.1157 -2.1085 -0.9084
  125OSM   C18S13328   3.403   2.787   8.062 -0.4025  0.1718 -0.3408
  125OSM   H18S13329   3.445   2.839   8.151  0.4566  0.5170 -0.9240
  125OSM   H18T13330   3.294   2.769   8.063  0.0801 -3.4610 -0.8478
  125OSM   H18U13331   3.425   2.851   7.973  0.7310 -0.1227 -0.2897
  125OSM    C1F13332   4.016   2.960   6.610  0.1452 -0.8156  0.1061
  125OSM     OF13333   3.965   3.071   6.621  0.0628 -0.4648 -0.0278
  125OSM    C2F13334   4.156   2.931   6.662  0.2933 -0.4872  0.4510
  125OSM    H2F13335   4.228   2.934   6.578  0.4451  0.4664  0.6123
  125OSM    H2G13336   4.151   2.826   6.699  3.1529 -1.0019 -0.4136
  125OSM    C3F13337   4.194   3.012   6.789 -0.6012 -0.1386  0.5274
  125OSM    H3F13338   4.166   3.119   6.777  1.0002  0.0396 -2.6368
  125OSM    H3G13339   4.303   2.990   6.800 -0.4581  0.0742 -0.3557
  125OSM    C4F13340   4.121   2.961   6.915  0.2755 -0.1832  0.4194
  125OSM    H4F13341   4.121   2.850   6.916 -1.7098 -0.2071  0.4439
  125OSM    H4G13342   4.018   3.002   6.906  0.5859  1.1558  2.4604
  125OSM    C5F13343   4.172   3.027   7.040 -0.1037 -0.3661  0.1624
  125OSM    H5F13344   4.281   3.004   7.039 -0.4168 -2.0151  0.3190
  125OSM    H5G13345   4.128   2.983   7.132 -1.0115  0.0670 -0.0546
  125OSM    C6F13346   4.152   3.183   7.065  0.8980  0.3603  0.3991
  125OSM    H6F13347   4.219   3.245   7.000 -1.2793  1.9639 -0.4631
  125OSM    H6G13348   4.166   3.203   7.173  0.0700 -1.5566  0.8970
  125OSM    C7F13349   4.011   3.237   7.034  0.1633 -0.4286  0.3830
  125OSM    H7F13350   3.932   3.189   7.097 -0.4362  0.3158  0.2135
  125OSM    H7G13351   3.985   3.221   6.927 -2.5990 -1.5214  1.1214
  125OSM    C8F13352   3.996   3.378   7.090  0.6108 -1.0981  0.2882
  125OSM    H8F13353   4.070   3.447   7.043 -1.3916  0.2517 -1.0601
  125OSM    H8G13354   4.033   3.380   7.195  0.7115  1.0752  0.2560
  125OSM    C9F13355   3.856   3.428   7.085  0.6491  0.6652 -0.0975
  125OSM    H9F13356   3.814   3.431   6.983  0.2254 -1.8769 -0.0625
  125OSM   C10F13357   3.775   3.457   7.189  0.2546  0.4710 -0.2801
  125OSM   H10F13358   3.675   3.495   7.164  0.1298 -0.2224 -0.8558
  125OSM   C11F13359   3.813   3.443   7.339 -0.2157 -0.1395  0.8476
  125OSM   H11F13360   3.757   3.515   7.402 -0.9448 -1.5124  1.8127
  125OSM   H11G13361   3.921   3.460   7.359  0.0371 -1.4249  0.6328
  125OSM   C12F13362   3.773   3.305   7.390  0.2824 -0.1958 -0.4532
  125OSM   H12F13363   3.800   3.220   7.324  1.1923 -0.0361 -0.3014
  125OSM   H12G13364   3.664   3.289   7.404  0.4621 -1.6534 -0.5772
  125OSM   C13F13365   3.843   3.292   7.525  0.0668 -0.0423 -0.3680
  125OSM   H13F13366   3.949   3.325   7.520  0.1018 -0.0423  0.3532
  125OSM   H13G13367   3.849   3.183   7.542  1.4827  0.1348  0.3551
  125OSM   C14F13368   3.776   3.359   7.641 -0.3510 -0.1419 -0.1889
  125OSM   H14F13369   3.782   3.282   7.722  2.7025  0.5451  0.3610
  125OSM   H14G13370   3.667   3.368   7.625 -0.0902  1.9457 -1.1424
  125OSM   C15F13371   3.851   3.482   7.690 -0.0622  0.9586  0.1651
  125OSM   H15F13372   3.838   3.565   7.616 -0.1994 -0.1070 -1.0374
  125OSM   H15G13373   3.957   3.450   7.688  0.2689  2.0348 -1.2972
  125OSM   C16F13374   3.819   3.528   7.829 -0.6143 -0.1209 -0.2828
  125OSM   H16F13375   3.841   3.438   7.891 -1.1758  1.1923  1.9436
  125OSM   H16G13376   3.711   3.542   7.851 -0.3733  0.3645  0.6776
  125OSM   C17F13377   3.893   3.660   7.867 -0.5251 -0.2169 -0.7220
  125OSM   H17F13378   3.869   3.686   7.972  0.8008  0.3777 -0.5541
  125OSM   H17G13379   3.841   3.733   7.802 -0.7256  0.0442 -0.2697
  125OSM   C18F13380   4.048   3.659   7.844 -0.4638  0.1143 -0.4288
  125OSM   H18F13381   4.092   3.585   7.915 -1.0727 -0.2692 -0.4426
  125OSM   H18G13382   4.083   3.758   7.879 -1.0187  1.0389 -2.3393
  125OSM   H18H13383   4.077   3.628   7.741 -0.5765 -0.8358 -0.1829
  126OSM      N13384   2.856   2.206   6.436 -0.5217 -0.6544 -0.4066
  126OSM    C1513385   2.885   2.342   6.485 -0.1340 -0.2117 -0.1460
  126OSM   H15A13386   2.795   2.401   6.472 -0.8185 -1.0220  0.7284
  126OSM   H15B13387   2.947   2.397   6.416  1.3560 -0.6743  0.7836
  126OSM   H15C13388   2.912   2.348   6.589  2.1450  2.1876 -0.7865
  126OSM    C1413389   2.805   2.212   6.293  0.4557 -0.1831 -0.1412
  126OSM   H14A13390   2.718   2.275   6.284  0.0093 -1.0116 -1.9759
  126OSM   H14B13391   2.770   2.114   6.263 -1.9732  0.8995 -1.0633
  126OSM   H14C13392   2.877   2.258   6.227  0.7944  1.2222  1.1539
  126OSM    C1313393   2.988   2.139   6.422 -0.2314  0.4363 -0.3151
  126OSM   H13A13394   2.963   2.039   6.391 -1.5609  0.9535 -0.9902
  126OSM   H13B13395   3.043   2.138   6.515 -0.0154 -1.7180 -0.4204
  126OSM   H13C13396   3.048   2.173   6.339  1.7543  0.1450  0.9318
  126OSM    C1213397   2.759   2.134   6.535 -0.9671  0.0065 -0.0262
  126OSM   H12A13398   2.679   2.203   6.557 -0.4187  1.3658 -2.0244
  126OSM   H12B13399   2.815   2.111   6.625  1.0971  0.4716 -1.1237
  126OSM    C1113400   2.698   2.000   6.502 -0.0142 -0.0150  0.7979
  126OSM   H11A13401   2.660   1.945   6.591 -0.5694 -1.3428 -0.2259
  126OSM   H11B13402   2.780   1.945   6.451 -0.7446 -0.7856  0.4233
  126OSM      P13403   2.458   2.058   6.430  0.2675  0.1373  0.6484
  126OSM    O1313404   2.399   2.127   6.317 -0.1265  0.0865 -0.0721
  126OSM    O1413405   2.378   1.941   6.479 -0.0624  0.0195  0.2227
  126OSM    O1113406   2.471   2.157   6.549  0.1587  0.0025 -0.1670
  126OSM    O1213407   2.607   2.013   6.395 -0.3726 -0.2410  0.5017
  126OSM    C1S13408   2.448   2.098   6.687  0.9358  0.7241  0.2894
  126OSM    H1S13409   2.535   2.037   6.719  0.5915  0.6895  1.1906
  126OSM    H1T13410   2.361   2.030   6.690  1.8569 -0.5916 -1.4557
  126OSM     NF13411   2.456   2.141   6.935 -0.1753  0.5190  0.0089
  126OSM    HNF13412   2.378   2.112   6.990 -0.0258 -0.7277 -0.3900
  126OSM    C2S13413   2.436   2.203   6.806 -0.6775  0.1092 -0.3004
  126OSM    H2S13414   2.522   2.270   6.787 -0.0465 -0.5362  0.2295
  126OSM    C3S13415   2.318   2.301   6.781  0.6853 -0.9352  0.3928
  126OSM    H3S13416   2.230   2.234   6.792  1.2189 -1.8148 -0.5535
  126OSM     O313417   2.308   2.356   6.649 -0.4905 -0.1564 -0.0126
  126OSM    HO313418   2.362   2.296   6.596  0.5678  0.3872  0.4209
  126OSM    C4S13419   2.308   2.412   6.886  0.0900 -0.5863 -0.0763
  126OSM    H4S13420   2.239   2.383   6.967 -1.2120  0.5824 -0.7473
  126OSM    C5S13421   2.356   2.538   6.880 -0.2177  1.2784  0.0212
  126OSM    H5S13422   2.408   2.563   6.787 -0.7016 -1.8549 -1.2166
  126OSM    C6S13423   2.353   2.647   6.986 -0.4149  0.0115 -0.1963
  126OSM    H6S13424   2.320   2.744   6.944 -0.3417  0.6480  1.1697
  126OSM    H6T13425   2.458   2.664   7.019 -0.8264 -1.0401  1.8425
  126OSM    C7S13426   2.294   2.616   7.121  0.1551  0.3121 -0.1398
  126OSM    H7S13427   2.356   2.531   7.158  0.9768  0.2393 -1.6195
  126OSM    H7T13428   2.185   2.599   7.114 -0.2201  2.4414 -0.1184
  126OSM    C8S13429   2.316   2.740   7.215 -0.4476 -0.3936  0.5809
  126OSM    H8S13430   2.273   2.837   7.182  0.6643 -0.6745 -1.9003
  126OSM    H8T13431   2.422   2.772   7.214 -0.8200  0.9580  1.3217
  126OSM    C9S13432   2.259   2.717   7.355 -0.7871 -0.3166 -0.2878
  126OSM    H9S13433   2.322   2.639   7.403 -3.5903 -2.1758  0.6366
  126OSM    H9T13434   2.160   2.667   7.348 -0.6631 -0.4507 -1.1217
  126OSM   C10S13435   2.250   2.838   7.444  0.2591  0.5580 -0.2150
  126OSM   H10S13436   2.190   2.920   7.399 -3.5942 -0.0278  3.2473
  126OSM   H10T13437   2.352   2.883   7.449  0.0185  1.1306 -0.3986
  126OSM   C11S13438   2.204   2.814   7.583  0.5310  0.4103  0.7710
  126OSM   H11S13439   2.190   2.704   7.593  1.3125  0.0031 -1.9753
  126OSM   H11T13440   2.102   2.858   7.580  0.2875 -0.1990 -1.9498
  126OSM   C12S13441   2.289   2.877   7.692  0.5213  0.5728 -0.2075
  126OSM   H12S13442   2.268   2.985   7.705  1.1631  0.6057  0.6902
  126OSM   H12T13443   2.394   2.854   7.663 -0.6270 -0.8772 -3.6811
  126OSM   C13S13444   2.256   2.786   7.813 -0.4187  0.0416 -0.8938
  126OSM   H13S13445   2.341   2.716   7.828 -0.4832 -0.3937 -2.3530
  126OSM   H13T13446   2.155   2.740   7.807 -0.4203 -0.6829  2.5841
  126OSM   C14S13447   2.249   2.861   7.942  0.1524  0.0746 -0.3257
  126OSM   H14S13448   2.173   2.941   7.937 -0.2379 -0.2368  0.4900
  126OSM   H14T13449   2.337   2.929   7.949  0.0494  0.3914 -1.6707
  126OSM   C15S13450   2.219   2.772   8.062  0.5190 -0.0226  0.6269
  126OSM   H15S13451   2.132   2.706   8.039 -0.2069  0.5863  1.5278
  126OSM   H15T13452   2.179   2.846   8.134 -1.6598  0.4852 -0.9984
  126OSM   C16S13453   2.337   2.698   8.112  0.2446  0.9331  0.2946
  126OSM   H16S13454   2.419   2.773   8.109 -0.3636  1.5671 -0.8940
  126OSM   H16T13455   2.367   2.625   8.033  0.0723  1.3362 -0.1456
  126OSM   C17S13456   2.319   2.630   8.249 -0.1565  0.5145 -0.8567
  126OSM   H17S13457   2.275   2.716   8.303  0.5471  0.8461 -0.8061
  126OSM   H17T13458   2.414   2.608   8.301 -1.3009 -2.7030  0.1196
  126OSM   C18S13459   2.212   2.521   8.244  0.2649  0.9530 -0.2405
  126OSM   H18S13460   2.180   2.485   8.344 -0.8193  0.0404 -0.8858
  126OSM   H18T13461   2.258   2.436   8.190  1.3780  0.4648  1.3852
  126OSM   H18U13462   2.115   2.552   8.200 -0.1719  2.3414  1.5597
  126OSM    C1F13463   2.574   2.102   6.975 -0.5523  0.4472  0.2255
  126OSM     OF13464   2.674   2.121   6.904  0.1974 -0.1499 -0.0296
  126OSM    C2F13465   2.585   2.036   7.108  0.6821  0.3417 -0.1136
  126OSM    H2F13466   2.513   1.953   7.119 -1.0551  1.7111 -0.6636
  126OSM    H2G13467   2.542   2.122   7.164  0.2870  0.2895 -0.3359
  126OSM    C3F13468   2.726   1.991   7.159  0.5235  0.6550 -0.0689
  126OSM    H3F13469   2.808   2.067   7.158  2.4700 -1.3469 -0.6393
  126OSM    H3G13470   2.756   1.904   7.096 -0.4202 -0.5753  1.1279
  126OSM    C4F13471   2.719   1.946   7.302  0.0424  0.4180 -0.7233
  126OSM    H4F13472   2.820   1.906   7.324  0.2752  2.2554  1.8793
  126OSM    H4G13473   2.647   1.862   7.302  0.3790  0.1283 -0.6262
  126OSM    C5F13474   2.689   2.061   7.401 -0.5488 -0.1392  0.2070
  126OSM    H5F13475   2.585   2.096   7.385 -0.4357 -0.4998 -1.5693
  126OSM    H5G13476   2.755   2.146   7.375  1.2073 -1.4759  0.1204
  126OSM    C6F13477   2.696   2.025   7.558 -0.4869 -0.3311  0.3493
  126OSM    H6F13478   2.659   2.114   7.613  2.7341  1.0559  0.5204
  126OSM    H6G13479   2.803   2.011   7.586 -0.4048 -0.9899 -0.2662
  126OSM    C7F13480   2.599   1.913   7.594  0.4349 -0.0801  0.0337
  126OSM    H7F13481   2.630   1.822   7.539 -3.3183  0.1295 -2.8128
  126OSM    H7G13482   2.498   1.931   7.552  1.2938  0.2980 -1.9928
  126OSM    C8F13483   2.602   1.879   7.748 -0.6478 -0.0642  0.3936
  126OSM    H8F13484   2.705   1.858   7.783  0.2380  0.7915 -1.5155
  126OSM    H8G13485   2.548   1.782   7.752 -3.6178  1.3772 -1.2405
  126OSM    C9F13486   2.541   1.986   7.834  0.5195  0.1417  0.1875
  126OSM    H9F13487   2.493   2.069   7.781 -2.2499 -2.1869 -1.2240
  126OSM   C10F13488   2.555   1.976   7.966 -0.1798  0.8914  0.0362
  126OSM   H10F13489   2.504   2.049   8.031 -2.8050 -0.2669 -0.6209
  126OSM   C11F13490   2.632   1.871   8.041  0.4317  0.2508  0.3218
  126OSM   H11F13491   2.736   1.901   8.067  0.7713 -0.6236 -0.0073
  126OSM   H11G13492   2.649   1.776   7.986  2.5425  1.7733 -1.8839
  126OSM   C12F13493   2.555   1.825   8.163 -0.0948  0.3572 -0.3057
  126OSM   H12F13494   2.472   1.768   8.116 -0.3738  0.2181  0.3472
  126OSM   H12G13495   2.501   1.897   8.227 -1.1019 -0.8747  0.2889
  126OSM   C13F13496   2.643   1.741   8.257  0.3427  0.6669  0.2425
  126OSM   H13F13497   2.694   1.807   8.330  0.3506 -0.9131  1.7229
  126OSM   H13G13498   2.712   1.682   8.193 -2.0344  0.7611 -2.5970
  126OSM   C14F13499   2.554   1.653   8.339  0.2858  0.3581 -0.2971
  126OSM   H14F13500   2.462   1.615   8.291 -0.0063  0.6682  0.0193
  126OSM   H14G13501   2.511   1.726   8.410  0.2545  1.1360 -1.0897
  126OSM   C15F13502   2.631   1.541   8.417  0.3787  0.4149  0.4458
  126OSM   H15F13503   2.708   1.596   8.475 -0.4887  0.1918  1.8486
  126OSM   H15G13504   2.686   1.475   8.347  3.1758  4.5176 -1.5917
  126OSM   C16F13505   2.532   1.473   8.509 -0.1579  0.6444 -0.0040
  126OSM   H16F13506   2.483   1.401   8.440 -1.1910  1.5061 -0.2105
  126OSM   H16G13507   2.453   1.545   8.541 -0.4511  0.8954 -1.2049
  126OSM   C17F13508   2.591   1.388   8.623 -0.1887 -0.3093 -0.2425
  126OSM   H17F13509   2.499   1.343   8.668 -1.6428  1.0985 -1.6748
  126OSM   H17G13510   2.641   1.462   8.689 -3.1770  3.3487 -1.6871
  126OSM   C18F13511   2.695   1.276   8.589 -0.3435  0.1500 -0.2634
  126OSM   H18F13512   2.732   1.230   8.683 -0.5458  1.8262  0.6712
  126OSM   H18G13513   2.783   1.323   8.539  1.3235  0.4782  2.7396
  126OSM   H18H13514   2.658   1.199   8.518 -0.1464 -0.5670  0.3952
  127OSM      N13515   5.923   1.852   5.847  0.8282 -0.5699  0.3957
  127OSM    C1513516   5.912   1.772   5.969  0.2104  0.3382 -0.6856
  127OSM   H15A13517   6.010   1.742   6.004 -0.1303 -0.0961 -0.0766
  127OSM   H15B13518   5.851   1.684   5.950 -1.6785  1.7988 -1.7312
  127OSM   H15C13519   5.868   1.825   6.052 -0.3542 -0.2410 -0.6019
  127OSM    C1413520   5.977   1.763   5.744 -0.1259 -0.1281  0.1364
  127OSM   H14A13521   6.011   1.816   5.657  1.4270 -1.7740 -0.3228
  127OSM   H14B13522   5.917   1.679   5.714 -0.1033  0.3018 -1.1773
  127OSM   H14C13523   6.076   1.731   5.775  0.3890 -0.1217 -1.4222
  127OSM    C1313524   5.786   1.907   5.812  0.5537 -0.8073 -0.6602
  127OSM   H13A13525   5.789   1.989   5.742 -1.7576 -1.8812 -2.1033
  127OSM   H13B13526   5.745   1.950   5.902  0.7460 -0.2766 -0.8245
  127OSM   H13C13527   5.711   1.844   5.768 -0.5678  0.7751 -1.0669
  127OSM    C1213528   6.023   1.964   5.878 -0.8940 -0.4419  0.1599
  127OSM   H12A13529   6.069   2.009   5.791 -0.9399  0.2708  0.5014
  127OSM   H12B13530   6.103   1.912   5.928 -0.5297 -0.5428 -0.5056
  127OSM    C1113531   5.980   2.075   5.979 -0.4226  0.3482  0.5329
  127OSM   H11A13532   5.891   2.131   5.944  1.6629  1.5397 -3.6392
  127OSM   H11B13533   6.057   2.155   5.970 -1.0461  1.2357  2.4706
  127OSM      P13534   5.936   2.145   6.217 -0.1295  0.3423 -0.6274
  127OSM    O1313535   6.007   2.267   6.174 -0.0128 -0.0403  0.2036
  127OSM    O1413536   5.788   2.143   6.227 -0.6090 -0.0958  0.1092
  127OSM    O1113537   5.985   2.099   6.356  0.2316  0.2454 -0.5038
  127OSM    O1213538   5.984   2.026   6.119  0.3295  0.2648  0.3537
  127OSM    C1S13539   5.979   1.961   6.401  0.3077  0.1951  0.1266
  127OSM    H1S13540   6.035   1.896   6.330 -1.4736 -1.3735  0.0943
  127OSM    H1T13541   5.878   1.916   6.390  0.2696  0.2539  0.2366
  127OSM     NF13542   6.051   1.795   6.576  0.4191  0.3339 -0.6051
  127OSM    HNF13543   5.994   1.761   6.650 -2.3742 -0.8854 -3.1271
  127OSM    C2S13544   6.043   1.932   6.540 -0.1688 -0.0947  0.2929
  127OSM    H2S13545   6.144   1.979   6.542 -1.2270  2.6853 -2.7692
  127OSM    C3S13546   5.961   2.019   6.642 -0.5262 -0.2866 -0.0715
  127OSM    H3S13547   5.854   1.991   6.639 -1.2225  1.9499  1.0765
  127OSM     O313548   5.951   2.160   6.601  0.2958  0.2843 -0.7901
  127OSM    HO313549   5.966   2.157   6.506  1.0034  0.7768 -0.7087
  127OSM    C4S13550   6.018   2.005   6.782  0.4823  0.5510  0.0143
  127OSM    H4S13551   5.969   1.928   6.844  1.2806  0.9752  1.2139
  127OSM    C5S13552   6.114   2.072   6.848  0.4482  0.5930 -0.0781
  127OSM    H5S13553   6.150   2.162   6.796  0.1238 -0.2950 -1.9073
  127OSM    C6S13554   6.154   2.040   6.989 -0.1527  0.6632 -0.0122
  127OSM    H6S13555   6.173   2.137   7.040  0.3088  1.4082 -1.5355
  127OSM    H6T13556   6.251   1.988   6.972 -0.5708  0.1890 -1.0375
  127OSM    C7S13557   6.065   1.952   7.084  0.1232 -0.0615  0.1745
  127OSM    H7S13558   6.051   1.844   7.059  0.7889 -0.1712  0.2584
  127OSM    H7T13559   5.963   1.993   7.098 -0.9664 -2.2182 -0.9119
  127OSM    C8S13560   6.113   1.934   7.234  0.2205  0.3810 -0.0137
  127OSM    H8S13561   6.207   1.876   7.231 -0.4300 -0.6475 -0.8813
  127OSM    H8T13562   6.051   1.874   7.305 -0.8210  1.3465 -0.0716
  127OSM    C9S13563   6.138   2.065   7.311 -0.1137 -0.6984  0.7407
  127OSM    H9S13564   6.042   2.120   7.303  0.1482 -0.5463 -3.0218
  127OSM    H9T13565   6.206   2.131   7.252 -2.8813  1.0271 -0.7002
  127OSM   C10S13566   6.176   2.052   7.460 -0.4934  0.3379  0.6162
  127OSM   H10S13567   6.273   2.000   7.476 -0.7358 -0.3706 -0.1437
  127OSM   H10T13568   6.091   1.991   7.498 -2.1750  2.8662  1.1378
  127OSM   C11S13569   6.161   2.178   7.536  0.2262 -0.0364  0.3116
  127OSM   H11S13570   6.060   2.219   7.520  1.0131  2.4650  1.2084
  127OSM   H11T13571   6.236   2.246   7.490  0.4852 -1.2502 -1.1448
  127OSM   C12S13572   6.190   2.170   7.687  0.1073  0.3985 -0.0356
  127OSM   H12S13573   6.295   2.148   7.717 -0.0201  0.6448  0.6123
  127OSM   H12T13574   6.138   2.079   7.723  0.5174 -0.9286 -2.5514
  127OSM   C13S13575   6.149   2.298   7.758  0.3528 -0.3316 -0.0547
  127OSM   H13S13576   6.043   2.317   7.729 -0.0544  1.3237  2.1861
  127OSM   H13T13577   6.200   2.385   7.713  2.5907  0.2597  3.2318
  127OSM   C14S13578   6.157   2.306   7.918 -0.1965 -0.1748  0.0673
  127OSM   H14S13579   6.115   2.405   7.945 -1.5861 -1.2398  2.0322
  127OSM   H14T13580   6.265   2.298   7.942 -0.1902 -0.5743 -0.0851
  127OSM   C15S13581   6.072   2.204   8.000 -0.1277  0.1634  0.2013
  127OSM   H15S13582   6.113   2.103   7.980 -2.4010 -0.4557 -1.7805
  127OSM   H15T13583   5.971   2.216   7.957  0.8954  0.8954 -2.1691
  127OSM   C16S13584   6.075   2.229   8.147 -0.0241 -0.2573 -0.9322
  127OSM   H16S13585   6.167   2.279   8.185 -0.0199  0.2201 -1.5555
  127OSM   H16T13586   6.066   2.127   8.190 -1.6021  0.7306  1.2501
  127OSM   C17S13587   5.965   2.332   8.187 -0.1395 -0.4401  0.1901
  127OSM   H17S13588   5.863   2.300   8.157 -0.6630  0.6405  0.7517
  127OSM   H17T13589   6.003   2.420   8.133  1.9137 -1.4743 -0.1515
  127OSM   C18S13590   5.962   2.368   8.338 -0.5327  0.2148  0.3447
  127OSM   H18S13591   6.049   2.435   8.357 -0.6409  1.0311 -1.7451
  127OSM   H18T13592   5.975   2.282   8.406 -0.1808 -0.3199 -0.3768
  127OSM   H18U13593   5.869   2.423   8.363 -0.2144  1.5899 -1.2881
  127OSM    C1F13594   6.124   1.706   6.511  0.6475  0.1464 -0.5357
  127OSM     OF13595   6.200   1.738   6.422 -0.1077 -0.0195 -0.3601
  127OSM    C2F13596   6.117   1.563   6.566 -0.0762 -0.0541 -0.3708
  127OSM    H2F13597   6.080   1.496   6.485 -1.6623 -0.5700  0.7294
  127OSM    H2G13598   6.035   1.551   6.641 -0.6292 -2.2814 -1.2406
  127OSM    C3F13599   6.243   1.500   6.622  0.2718  0.0908 -0.2633
  127OSM    H3F13600   6.320   1.510   6.542  1.5692 -0.3245  0.8987
  127OSM    H3G13601   6.236   1.395   6.657 -1.9085  0.1254 -0.4519
  127OSM    C4F13602   6.304   1.572   6.745  0.1511  0.1831  0.1752
  127OSM    H4F13603   6.304   1.682   6.730 -1.0008  0.1126 -0.4766
  127OSM    H4G13604   6.410   1.539   6.751  0.2749  0.7007  1.1568
  127OSM    C5F13605   6.235   1.544   6.875  0.3842  0.2476  0.0080
  127OSM    H5F13606   6.132   1.515   6.843  0.7560  2.4037 -3.6928
  127OSM    H5G13607   6.242   1.642   6.928  0.8089 -1.6501  3.7723
  127OSM    C6F13608   6.298   1.421   6.951 -0.4750  0.0596  0.5778
  127OSM    H6F13609   6.406   1.434   6.970 -0.0219 -3.3696  1.0527
  127OSM    H6G13610   6.289   1.339   6.876  1.3627 -0.1341  0.5450
  127OSM    C7F13611   6.226   1.386   7.076 -0.0776 -0.1173 -0.2628
  127OSM    H7F13612   6.244   1.280   7.105 -2.9619 -1.1098 -1.7587
  127OSM    H7G13613   6.115   1.377   7.072  0.1013 -4.2904 -0.2751
  127OSM    C8F13614   6.259   1.474   7.200 -0.3302  0.2764  0.4316
  127OSM    H8F13615   6.189   1.456   7.285 -0.4637 -1.9676 -0.0997
  127OSM    H8G13616   6.252   1.582   7.174  1.1262  0.5307  0.9805
  127OSM    C9F13617   6.403   1.452   7.244 -0.8527 -0.2316  0.6690
  127OSM    H9F13618   6.452   1.361   7.206 -0.8552 -0.3646  0.9790
  127OSM   C10F13619   6.482   1.535   7.317  0.5717 -0.7664  0.3561
  127OSM   H10F13620   6.586   1.513   7.344  0.4107  0.6164  2.2697
  127OSM   C11F13621   6.433   1.663   7.376 -0.0886 -0.4814  0.2623
  127OSM   H11F13622   6.323   1.662   7.387 -0.0380 -1.7447  0.7799
  127OSM   H11G13623   6.454   1.749   7.309 -2.2136  0.1888  0.3988
  127OSM   C12F13624   6.494   1.702   7.516  0.4848  0.1273  0.1461
  127OSM   H12F13625   6.452   1.802   7.542 -2.3263 -0.3921 -1.9659
  127OSM   H12G13626   6.604   1.715   7.510  0.3887  0.3517 -2.0489
  127OSM   C13F13627   6.447   1.611   7.632  0.7921 -0.4025 -0.2729
  127OSM   H13F13628   6.467   1.503   7.616  0.5230 -0.3714 -0.8294
  127OSM   H13G13629   6.337   1.624   7.631  0.7828 -0.2875  0.9598
  127OSM   C14F13630   6.501   1.653   7.770 -0.7281 -0.1112  0.0835
  127OSM   H14F13631   6.502   1.764   7.778  3.5295  0.0183  0.3770
  127OSM   H14G13632   6.603   1.617   7.794 -0.5517  0.5310  0.3267
  127OSM   C15F13633   6.418   1.596   7.888 -0.2950  0.6718 -0.3906
  127OSM   H15F13634   6.481   1.577   7.978 -1.3325 -1.9449 -0.1183
  127OSM   H15G13635   6.369   1.501   7.859 -1.1143  1.5805 -2.1675
  127OSM   C16F13636   6.307   1.696   7.930 -0.9740  0.0241  0.0450
  127OSM   H16F13637   6.257   1.748   7.846  2.5636  2.8114 -0.5871
  127OSM   H16G13638   6.366   1.764   7.996  2.6179 -0.7036 -2.1610
  127OSM   C17F13639   6.201   1.631   8.022 -1.0651 -0.3261 -0.0516
  127OSM   H17F13640   6.163   1.541   7.969  2.1891 -2.4722  0.9188
  127OSM   H17G13641   6.122   1.705   8.046 -1.1411 -1.0735  2.2042
  127OSM   C18F13642   6.249   1.584   8.167 -0.9327 -0.4817 -0.0444
  127OSM   H18F13643   6.155   1.549   8.215 -0.9699  0.0592  0.2810
  127OSM   H18G13644   6.297   1.667   8.223 -0.0256 -0.7674 -0.3880
  127OSM   H18H13645   6.322   1.501   8.160  0.3569  0.7135 -1.7679
  128OSM      N13646   0.403   6.094   5.805  0.9157  0.2011 -0.0570
  128OSM    C1513647   0.364   5.981   5.711 -0.2270 -0.5384 -0.6011
  128OSM   H15A13648   0.306   5.905   5.762  1.8296 -1.7369  0.1147
  128OSM   H15B13649   0.456   5.935   5.676 -0.4506 -0.7515 -0.9136
  128OSM   H15C13650   0.301   6.012   5.629  0.3780 -0.1494 -0.9290
  128OSM    C1413651   0.495   6.175   5.725 -0.9248  0.5416  0.2670
  128OSM   H14A13652   0.514   6.276   5.757  0.8918  0.4840 -0.5398
  128OSM   H14B13653   0.455   6.174   5.624  0.1090 -0.7398 -0.1512
  128OSM   H14C13654   0.593   6.133   5.711 -0.5657  1.4336  0.0195
  128OSM    C1313655   0.283   6.166   5.851 -0.0198 -0.8766 -0.5204
  128OSM   H13A13656   0.234   6.215   5.768  0.4214 -0.1040 -0.3293
  128OSM   H13B13657   0.304   6.238   5.928 -0.0972 -0.9215 -0.4569
  128OSM   H13C13658   0.215   6.092   5.890 -3.7043  2.1036 -0.6760
  128OSM    C1213659   0.481   6.036   5.924  0.0304 -0.6719  0.0206
  128OSM   H12A13660   0.540   6.117   5.963  0.1518 -1.6468  1.9450
  128OSM   H12B13661   0.557   5.966   5.892  1.2410  1.2324 -1.4988
  128OSM    C1113662   0.404   5.978   6.044  0.0178 -0.2528  0.4751
  128OSM   H11A13663   0.339   6.052   6.095 -1.0106 -1.4236  0.9080
  128OSM   H11B13664   0.486   5.946   6.112  1.9891 -0.1811 -1.7354
  128OSM      P13665   0.351   5.726   5.985  0.2233  0.0022  0.1400
  128OSM    O1313666   0.237   5.656   5.923 -0.1399  0.2114 -0.0332
  128OSM    O1413667   0.491   5.708   5.934 -0.3531 -0.3422 -0.0762
  128OSM    O1113668   0.355   5.686   6.140  0.0535  0.0487 -0.7436
  128OSM    O1213669   0.316   5.874   5.987 -0.0274 -0.0484 -0.6777
  128OSM    C1S13670   0.227   5.675   6.214 -0.5613 -0.1053  0.1168
  128OSM    H1S13671   0.172   5.581   6.190  1.1409 -1.0559 -0.2253
  128OSM    H1T13672   0.161   5.762   6.195 -0.7174  0.1063  1.5184
  128OSM     NF13673   0.118   5.641   6.432  0.2823  0.2796 -0.6352
  128OSM    HNF13674   0.081   5.719   6.482  1.9156  0.6744  0.0291
  128OSM    C2S13675   0.248   5.666   6.374  0.0389  0.1744 -0.6713
  128OSM    H2S13676   0.309   5.578   6.405 -0.2300  0.1606 -0.1704
  128OSM    C3S13677   0.323   5.800   6.413 -0.0046 -0.3554  0.4159
  128OSM    H3S13678   0.257   5.883   6.381 -0.2883 -0.3820  0.9186
  128OSM     O313679   0.450   5.825   6.352  0.4045 -0.2933  0.2725
  128OSM    HO313680   0.446   5.780   6.268  1.1288  0.9146 -0.4351
  128OSM    C4S13681   0.330   5.807   6.563 -0.2926  0.2694  0.5053
  128OSM    H4S13682   0.259   5.873   6.617  0.3635  2.6858 -1.3923
  128OSM    C5S13683   0.435   5.763   6.637 -0.3085 -0.0415 -0.0193
  128OSM    H5S13684   0.524   5.730   6.582 -1.3555 -1.8882 -0.6737
  128OSM    C6S13685   0.451   5.773   6.784  0.5046  0.8528 -0.5546
  128OSM    H6S13686   0.437   5.671   6.826  0.0512  1.7635  1.6844
  128OSM    H6T13687   0.372   5.841   6.823  0.6040  0.7986 -0.2517
  128OSM    C7S13688   0.588   5.838   6.820  0.5112  0.2298  0.6967
  128OSM    H7S13689   0.587   5.938   6.772  1.4690 -0.5063 -0.9530
  128OSM    H7T13690   0.671   5.777   6.778 -0.1982 -0.5288  0.3837
  128OSM    C8S13691   0.619   5.831   6.969  0.0805 -0.2454 -0.0780
  128OSM    H8S13692   0.597   5.727   7.002  1.5361 -0.6885 -0.3988
  128OSM    H8T13693   0.544   5.903   7.008  0.7390  2.3709 -3.1972
  128OSM    C9S13694   0.760   5.861   6.999 -0.4858 -0.5739 -0.4374
  128OSM    H9S13695   0.792   5.962   6.967 -0.0724 -1.0690 -1.6448
  128OSM    H9T13696   0.827   5.797   6.936  0.1935 -0.4709  0.1617
  128OSM   C10S13697   0.790   5.843   7.155 -0.0130 -0.0019 -0.4012
  128OSM   H10S13698   0.765   5.742   7.194 -2.9868  0.6871 -0.2649
  128OSM   H10T13699   0.729   5.927   7.196  0.4081  1.4697 -2.6207
  128OSM   C11S13700   0.941   5.867   7.193 -0.3301  0.2639 -0.2517
  128OSM   H11S13701   0.966   5.970   7.157 -2.5572  0.6551 -0.8531
  128OSM   H11T13702   1.005   5.796   7.137  0.9524  0.5100  0.8621
  128OSM   C12S13703   0.967   5.845   7.337 -0.4828  0.4075  0.6174
  128OSM   H12S13704   1.075   5.861   7.359  0.2633  0.3596 -2.5229
  128OSM   H12T13705   0.948   5.737   7.354  0.3553 -0.0738 -1.2267
  128OSM   C13S13706   0.880   5.926   7.432 -0.3311  0.5092 -0.4195
  128OSM   H13S13707   0.778   5.885   7.416  0.9906 -1.4059 -5.9062
  128OSM   H13T13708   0.881   6.032   7.399 -1.1901  0.5722 -0.2710
  128OSM   C14S13709   0.925   5.929   7.581  0.3599  0.2879 -0.6862
  128OSM   H14S13710   0.834   5.954   7.640 -0.5618  1.7634 -2.5821
  128OSM   H14T13711   0.996   6.010   7.608  0.2753 -0.3509  1.6024
  128OSM   C15S13712   0.976   5.798   7.637  0.5346  0.0381  0.2741
  128OSM   H15S13713   1.085   5.790   7.612  0.9666  0.5412  1.8781
  128OSM   H15T13714   0.945   5.704   7.587 -1.8067  0.8697  0.0795
  128OSM   C16S13715   0.949   5.777   7.790 -0.5421  0.2906 -0.5713
  128OSM   H16S13716   0.998   5.681   7.815 -2.2775 -0.3144  0.7035
  128OSM   H16T13717   0.838   5.771   7.799 -0.8649  4.0141 -0.4593
  128OSM   C17S13718   1.003   5.886   7.876 -0.3615  0.2028  0.8968
  128OSM   H17S13719   0.958   5.984   7.847 -3.1819 -1.3178 -0.3307
  128OSM   H17T13720   1.113   5.896   7.866 -0.5011  1.7469  0.6124
  128OSM   C18S13721   0.975   5.869   8.023 -0.3023  0.0681  0.3301
  128OSM   H18S13722   1.019   5.775   8.063  0.3369  0.2720  0.1161
  128OSM   H18T13723   0.871   5.894   8.052 -0.8199  0.9371 -2.0642
  128OSM   H18U13724   1.029   5.952   8.074 -0.6117  1.4114 -1.4402
  128OSM    C1F13725   0.051   5.528   6.424  0.6146  0.1362  0.5438
  128OSM     OF13726   0.117   5.426   6.418  0.6888 -0.2644  0.1821
  128OSM    C2F13727  -0.099   5.538   6.430  0.0707 -0.2432 -0.5827
  128OSM    H2F13728  -0.146   5.495   6.339 -0.7941 -0.0178 -0.2558
  128OSM    H2G13729  -0.119   5.647   6.419 -1.2416 -0.3924  0.0721
  128OSM    C3F13730  -0.167   5.479   6.560  0.2858 -0.1743  0.4924
  128OSM    H3F13731  -0.119   5.382   6.583 -1.3805 -1.1708 -0.0484
  128OSM    H3G13732  -0.272   5.467   6.525  0.2355  1.6018 -0.0894
  128OSM    C4F13733  -0.175   5.564   6.689 -0.1557  0.2259  1.0117
  128OSM    H4F13734  -0.251   5.645   6.680  2.6800  3.2712  2.3438
  128OSM    H4G13735  -0.081   5.615   6.718  3.0936 -2.7862 -2.9791
  128OSM    C5F13736  -0.226   5.465   6.802 -0.5070  0.2409 -0.8970
  128OSM    H5F13737  -0.152   5.382   6.812  0.7370  1.5823  2.5650
  128OSM    H5G13738  -0.327   5.420   6.791  0.4148 -1.6490 -2.4082
  128OSM    C6F13739  -0.218   5.549   6.936 -0.1984 -0.8945  0.5437
  128OSM    H6F13740  -0.282   5.639   6.924  2.2549  0.6749 -2.2486
  128OSM    H6G13741  -0.124   5.601   6.963 -2.3416  2.2180  2.7431
  128OSM    C7F13742  -0.263   5.461   7.046  0.3777 -0.3316 -0.1549
  128OSM    H7F13743  -0.223   5.358   7.036 -1.0526 -1.0058  0.7550
  128OSM    H7G13744  -0.374   5.462   7.054  0.5001 -0.6249  2.6364
  128OSM    C8F13745  -0.203   5.503   7.185 -0.5195 -0.0252  0.4148
  128OSM    H8F13746  -0.256   5.452   7.269 -0.3754 -1.9015 -0.5692
  128OSM    H8G13747  -0.244   5.606   7.190  0.6442  0.5511 -1.2796
  128OSM    C9F13748  -0.055   5.502   7.189  0.2312 -0.2320 -0.6162
  128OSM    H9F13749  -0.001   5.493   7.093 -0.0634  0.9202 -0.8992
  128OSM   C10F13750   0.016   5.519   7.305 -0.5691  0.3446 -0.5485
  128OSM   H10F13751   0.122   5.492   7.313 -0.8634 -0.3913  1.2680
  128OSM   C11F13752  -0.045   5.539   7.441  0.2617  0.1037 -0.6182
  128OSM   H11F13753  -0.124   5.462   7.453  1.3952 -0.7057  2.9011
  128OSM   H11G13754  -0.080   5.644   7.455 -0.4809 -0.2792  0.5945
  128OSM   C12F13755   0.045   5.499   7.560  0.6457 -0.2292  0.3211
  128OSM   H12F13756   0.134   5.566   7.565  1.8540 -1.8447  1.4208
  128OSM   H12G13757   0.094   5.402   7.540  2.1649  0.4705  0.4705
  128OSM   C13F13758  -0.030   5.486   7.694 -0.3705  0.5497  0.7175
  128OSM   H13F13759  -0.130   5.441   7.673 -0.3756 -0.6579  3.0532
  128OSM   H13G13760  -0.031   5.585   7.744 -0.7553  0.1586  1.4986
  128OSM   C14F13761   0.039   5.390   7.799 -0.1528 -0.0640 -0.0800
  128OSM   H14F13762   0.063   5.293   7.751  0.7291  0.3005 -0.3927
  128OSM   H14G13763  -0.026   5.368   7.886  0.5102 -0.8759  0.2228
  128OSM   C15F13764   0.173   5.446   7.849  0.4809 -0.5298  0.4567
  128OSM   H15F13765   0.159   5.551   7.883 -1.0361 -0.3895 -0.5301
  128OSM   H15G13766   0.248   5.460   7.768 -1.5976  1.4480 -1.2618
  128OSM   C16F13767   0.230   5.358   7.966 -0.1090  0.5204  0.8966
  128OSM   H16F13768   0.174   5.383   8.059  2.1123  4.3614  1.4254
  128OSM   H16G13769   0.322   5.414   7.992 -0.5345  2.1622 -0.8494
  128OSM   C17F13770   0.244   5.205   7.937 -0.5043  0.9258  0.0366
  128OSM   H17F13771   0.304   5.199   7.844 -0.6065  1.7906 -0.0880
  128OSM   H17G13772   0.142   5.161   7.927 -0.6130  0.9686  0.8673
  128OSM   C18F13773   0.324   5.130   8.051  0.1627  0.0681 -0.3317
  128OSM   H18F13774   0.419   5.188   8.058 -1.5060  3.5470 -3.1077
  128OSM   H18G13775   0.346   5.026   8.019 -0.0755 -0.5071  1.2868
  128OSM   H18H13776   0.271   5.130   8.149 -0.3234 -0.6586 -0.5914
  129OSM      N13777   5.926   0.063   6.071  0.2593  0.3093 -0.4309
  129OSM    C1513778   6.062   0.133   6.084  0.1771 -0.1987  0.7215
  129OSM   H15A13779   6.034   0.236   6.100  0.4802 -0.2183  1.4209
  129OSM   H15B13780   6.115   0.135   5.990 -2.1269 -1.9700 -0.7610
  129OSM   H15C13781   6.126   0.090   6.159  1.5356  1.3778  0.5240
  129OSM    C1413782   5.841   0.088   6.196 -0.2605 -0.0234  0.2098
  129OSM   H14A13783   5.885   0.036   6.279  2.3795 -1.1108 -1.7371
  129OSM   H14B13784   5.737   0.058   6.187 -0.8839  1.7688  0.8563
  129OSM   H14C13785   5.835   0.195   6.213 -1.4169  0.5465 -2.9524
  129OSM    C1313786   5.852   0.110   5.955 -0.4030  0.8926 -0.0683
  129OSM   H13A13787   5.911   0.084   5.868 -0.9122 -0.1480 -0.1108
  129OSM   H13B13788   5.846   0.218   5.959  1.1695  0.9990  0.3164
  129OSM   H13C13789   5.755   0.063   5.953 -0.4840  1.0844 -1.1175
  129OSM    C1213790   5.942  -0.083   6.052 -0.1807 -0.6589 -0.0542
  129OSM   H12A13791   6.017  -0.118   6.122 -0.5272  2.8473  2.3423
  129OSM   H12B13792   5.992  -0.096   5.957  1.7624  0.8674  0.6835
  129OSM    C1113793   5.813  -0.169   6.070  0.1360 -0.4056 -0.4888
  129OSM   H11A13794   5.791  -0.160   6.178  0.6581 -0.9537 -0.3324
  129OSM   H11B13795   5.845  -0.273   6.044 -0.0636  0.0385 -2.7625
  129OSM      P13796   5.551  -0.186   6.018  0.6182  0.3588 -0.1187
  129OSM    O1313797   5.461  -0.152   5.905 -0.1205 -0.2193  0.9220
  129OSM    O1413798   5.552  -0.332   6.056 -0.0123 -0.3764  0.3210
  129OSM    O1113799   5.517  -0.097   6.143  0.4517  0.3988  0.3895
  129OSM    O1213800   5.705  -0.137   5.982  0.0390  0.3996  0.4722
  129OSM    C1S13801   5.535  -0.134   6.276  0.1904  0.0547 -0.2105
  129OSM    H1S13802   5.644  -0.150   6.294  0.9213  1.2325 -3.0097
  129OSM    H1T13803   5.471  -0.222   6.298 -3.3883  2.2934 -0.9346
  129OSM     NF13804   5.530  -0.075   6.516 -0.8954  0.1648  0.1761
  129OSM    HNF13805   5.450  -0.107   6.567 -1.2014  0.8560  0.1484
  129OSM    C2S13806   5.501  -0.026   6.371  0.5734  0.0167 -0.0516
  129OSM    H2S13807   5.538   0.074   6.338  1.7283 -0.6773 -0.9354
  129OSM    C3S13808   5.350   0.006   6.354  0.5679 -0.0461  0.3707
  129OSM    H3S13809   5.296  -0.088   6.381 -0.3367  0.2021 -0.5011
  129OSM     O313810   5.309   0.022   6.215  0.1240  0.9180 -0.2203
  129OSM    HO313811   5.390  -0.002   6.170 -0.6055 -2.9930  0.2545
  129OSM    C4S13812   5.297   0.114   6.443  0.3772 -0.5262 -0.0132
  129OSM    H4S13813   5.243   0.074   6.530  1.7914 -2.0345  0.2247
  129OSM    C5S13814   5.298   0.253   6.423  1.3294 -0.5008  0.3504
  129OSM    H5S13815   5.327   0.291   6.324  1.0441 -0.0623  0.4344
  129OSM    C6S13816   5.229   0.359   6.510  0.0958  0.6434 -0.2157
  129OSM    H6S13817   5.124   0.375   6.476  0.5622 -0.3438 -2.2687
  129OSM    H6T13818   5.288   0.452   6.503  0.2928  0.5584  0.2677
  129OSM    C7S13819   5.222   0.326   6.652  0.5475  0.0374 -0.5802
  129OSM    H7S13820   5.323   0.298   6.687  0.8190 -1.1281 -2.1859
  129OSM    H7T13821   5.147   0.245   6.665 -0.8369  0.9945 -2.2638
  129OSM    C8S13822   5.164   0.432   6.753 -0.4095  0.4301 -0.0795
  129OSM    H8S13823   5.054   0.441   6.743 -0.2234  0.4730 -2.9051
  129OSM    H8T13824   5.211   0.530   6.729  0.6121 -0.0916 -0.2333
  129OSM    C9S13825   5.205   0.386   6.896 -0.4218  0.1494 -0.2915
  129OSM    H9S13826   5.311   0.417   6.907 -0.4076  0.1149 -0.3304
  129OSM    H9T13827   5.191   0.276   6.904 -0.7319  0.1286 -1.0481
  129OSM   C10S13828   5.130   0.475   6.998  0.6313 -0.0873 -0.1450
  129OSM   H10S13829   5.022   0.452   6.988  0.6725  0.1037 -1.1047
  129OSM   H10T13830   5.144   0.579   6.962 -2.2474  0.7204  0.7858
  129OSM   C11S13831   5.183   0.470   7.145 -0.0979  0.3240  0.0795
  129OSM   H11S13832   5.290   0.502   7.142  0.4572 -1.3779  0.6770
  129OSM   H11T13833   5.180   0.367   7.187 -1.6769 -0.5018 -1.8933
  129OSM   C12S13834   5.097   0.557   7.246 -0.0100  0.0797  0.2599
  129OSM   H12S13835   4.993   0.521   7.234 -0.1075  0.0701  1.0831
  129OSM   H12T13836   5.110   0.661   7.212  3.6033 -0.7787 -1.4640
  129OSM   C13S13837   5.144   0.540   7.393  0.7446  0.4439  0.2945
  129OSM   H13S13838   5.154   0.431   7.412  0.8281  0.4209  0.1173
  129OSM   H13T13839   5.062   0.578   7.458  1.1707 -0.0401  1.1190
  129OSM   C14S13840   5.282   0.606   7.420  0.5221  0.3910  0.7893
  129OSM   H14S13841   5.274   0.714   7.398  0.5244  0.7385  2.3695
  129OSM   H14T13842   5.357   0.554   7.357 -0.7731 -0.1651 -0.3640
  129OSM   C15S13843   5.320   0.575   7.568 -0.2078 -0.0569  0.5113
  129OSM   H15S13844   5.311   0.467   7.592  2.0697 -0.4413 -0.1237
  129OSM   H15T13845   5.250   0.643   7.622  0.9380  1.8728 -0.3431
  129OSM   C16S13846   5.450   0.632   7.617  0.3765 -0.2359 -0.2889
  129OSM   H16S13847   5.529   0.599   7.545 -0.2243 -0.7283 -0.7312
  129OSM   H16T13848   5.474   0.603   7.721  2.6613  0.7571 -0.4718
  129OSM   C17S13849   5.454   0.780   7.611  0.3204 -0.1841  0.0899
  129OSM   H17S13850   5.376   0.824   7.676 -0.6511  0.7914 -1.6514
  129OSM   H17T13851   5.433   0.824   7.512  0.6414  1.9911  0.9408
  129OSM   C18S13852   5.588   0.835   7.660 -0.7135 -0.1554  0.1466
  129OSM   H18S13853   5.614   0.924   7.599 -1.3275 -0.5573 -0.7123
  129OSM   H18T13854   5.670   0.762   7.644 -0.1294  1.0277 -2.8185
  129OSM   H18U13855   5.589   0.858   7.769 -1.1915 -0.5462  0.2336
  129OSM    C1F13856   5.654  -0.082   6.568 -0.3974 -0.4672 -0.3853
  129OSM     OF13857   5.747  -0.042   6.509 -0.2051  0.0069  0.3455
  129OSM    C2F13858   5.667  -0.134   6.707  0.2829 -0.3828  0.2747
  129OSM    H2F13859   5.598  -0.221   6.711 -1.1814  0.7686  2.0783
  129OSM    H2G13860   5.633  -0.059   6.781 -0.3242 -1.2285  0.8783
  129OSM    C3F13861   5.807  -0.180   6.755 -0.4877 -0.7870  0.5108
  129OSM    H3F13862   5.882  -0.098   6.763  1.6864 -2.5190 -1.0523
  129OSM    H3G13863   5.845  -0.249   6.678 -3.3102 -2.2779  0.3363
  129OSM    C4F13864   5.796  -0.264   6.885 -0.2702  0.4033 -0.4298
  129OSM    H4F13865   5.902  -0.281   6.911 -0.5337 -0.7943 -0.0904
  129OSM    H4G13866   5.750  -0.361   6.857  1.9634 -0.2057 -2.2666
  129OSM    C5F13867   5.729  -0.179   7.005 -0.4650  0.2777 -0.0478
  129OSM    H5F13868   5.619  -0.189   7.010 -0.4200  0.2094  1.2616
  129OSM    H5G13869   5.760  -0.073   6.994  1.9270 -0.4619 -0.9980
  129OSM    C6F13870   5.787  -0.231   7.143  0.1104  0.5999 -0.0155
  129OSM    H6F13871   5.897  -0.231   7.131 -0.0367 -0.2684 -1.5858
  129OSM    H6G13872   5.753  -0.336   7.158 -0.0189  0.8384  1.5949
  129OSM    C7F13873   5.752  -0.147   7.265  0.3517 -0.3086 -0.2360
  129OSM    H7F13874   5.643  -0.130   7.278  0.0403 -1.4378 -1.1286
  129OSM    H7G13875   5.799  -0.047   7.256 -0.3192 -0.0261 -0.6720
  129OSM    C8F13876   5.812  -0.206   7.388 -0.0636  0.0371 -0.8135
  129OSM    H8F13877   5.914  -0.247   7.371  0.2355 -0.0189  0.9115
  129OSM    H8G13878   5.749  -0.290   7.424  0.1009  0.2556  0.0201
  129OSM    C9F13879   5.811  -0.114   7.509 -0.7365  0.4372  0.3348
  129OSM    H9F13880   5.885  -0.037   7.484 -1.6902  1.2134 -0.2252
  129OSM   C10F13881   5.745  -0.128   7.625  0.1407  0.2294  0.3937
  129OSM   H10F13882   5.765  -0.048   7.698 -0.4239 -0.6496  1.5354
  129OSM   C11F13883   5.646  -0.236   7.655  1.0222  0.2481  0.3639
  129OSM   H11F13884   5.596  -0.275   7.563 -0.5686 -1.3253  1.8177
  129OSM   H11G13885   5.561  -0.198   7.715 -1.0342 -3.0862 -0.1569
  129OSM   C12F13886   5.719  -0.357   7.717  0.0652  0.6393  0.2961
  129OSM   H12F13887   5.774  -0.407   7.634 -2.4205 -0.7959 -0.5734
  129OSM   H12G13888   5.634  -0.423   7.743  0.1876  0.1429 -0.5533
  129OSM   C13F13889   5.806  -0.335   7.846 -0.3917  0.0496 -0.0266
  129OSM   H13F13890   5.753  -0.264   7.912 -2.0151  0.0267 -1.2271
  129OSM   H13G13891   5.895  -0.276   7.816 -2.4195  3.4377  0.0620
  129OSM   C14F13892   5.846  -0.461   7.921  0.4763 -0.6283  0.2846
  129OSM   H14F13893   5.905  -0.530   7.857  3.2463  1.0323  0.8948
  129OSM   H14G13894   5.754  -0.519   7.944  0.7338 -2.7301 -3.2706
  129OSM   C15F13895   5.943  -0.438   8.037 -0.3045  0.2684 -0.7783
  129OSM   H15F13896   6.033  -0.390   7.994  0.2344  1.8317  1.8814
  129OSM   H15G13897   5.967  -0.544   8.054  0.2551  0.0616 -2.6681
  129OSM   C16F13898   5.896  -0.370   8.166 -0.0957 -0.2404  0.4262
  129OSM   H16F13899   5.852  -0.271   8.139  1.3449  0.6133  1.1017
  129OSM   H16G13900   5.992  -0.356   8.220  1.1033 -1.3119 -1.3288
  129OSM   C17F13901   5.805  -0.452   8.262 -0.7109 -0.5583 -0.4443
  129OSM   H17F13902   5.866  -0.537   8.302 -2.7785 -1.7110  0.4281
  129OSM   H17G13903   5.721  -0.482   8.196  0.7079  0.4557 -2.8381
  129OSM   C18F13904   5.742  -0.380   8.379  0.7393 -0.0465  0.3996
  129OSM   H18F13905   5.682  -0.445   8.446 -0.4105 -0.2892 -0.8161
  129OSM   H18G13906   5.672  -0.300   8.346  0.2271 -0.6315  0.0460
  129OSM   H18H13907   5.818  -0.323   8.436  2.3581 -2.0367  0.3508
  130OSM      N13908   0.166   4.734   5.841  0.1529 -0.8719 -0.3150
  130OSM    C1513909   0.258   4.848   5.872 -0.3482  0.2420 -0.1972
  130OSM   H15A13910   0.363   4.828   5.856 -0.1760  0.4578  0.5745
  130OSM   H15B13911   0.254   4.877   5.977  0.6763  1.4087 -0.4494
  130OSM   H15C13912   0.253   4.939   5.814  2.8787 -0.7595 -2.3039
  130OSM    C1413913   0.148   4.711   5.693  0.3709  0.0796  0.0525
  130OSM   H14A13914   0.093   4.791   5.645  0.4199 -0.8906 -1.6730
  130OSM   H14B13915   0.106   4.613   5.678  0.5535 -0.8193  4.2674
  130OSM   H14C13916   0.248   4.707   5.653  0.2811  0.2064 -0.1848
  130OSM    C1313917   0.232   4.612   5.893  0.3238 -0.5191  0.6726
  130OSM   H13A13918   0.231   4.608   6.001 -0.4001  0.1548  0.7036
  130OSM   H13B13919   0.330   4.588   5.854 -1.4080 -2.7997 -2.6768
  130OSM   H13C13920   0.174   4.526   5.866 -1.6008  1.2307 -1.1413
  130OSM    C1213921   0.026   4.760   5.904  0.7415 -0.2447 -0.3505
  130OSM   H12A13922  -0.039   4.678   5.876  0.6789 -0.4038  0.2459
  130OSM   H12B13923  -0.009   4.852   5.858  0.4869 -0.3267 -0.3184
  130OSM    C1113924   0.006   4.760   6.059 -0.2133  0.1903 -0.1299
  130OSM   H11A13925   0.050   4.671   6.108  1.3461  1.2422  0.4482
  130OSM   H11B13926  -0.104   4.755   6.078  0.1759 -1.4067  2.0987
  130OSM      P13927   0.001   4.994   6.176 -0.3595  0.5398  0.1256
  130OSM    O1313928   0.107   5.066   6.255 -0.3815 -0.3524 -0.6334
  130OSM    O1413929  -0.082   5.071   6.079  0.7632  0.1624  0.1998
  130OSM    O1113930  -0.090   4.934   6.281  0.0312 -0.2305 -0.1662
  130OSM    O1213931   0.075   4.875   6.114  0.0012  0.3403 -0.1486
  130OSM    C1S13932  -0.036   4.852   6.388  0.3147  0.0562  0.6349
  130OSM    H1S13933   0.063   4.808   6.364 -0.1125 -1.0937  0.9222
  130OSM    H1T13934  -0.094   4.759   6.409  2.4553 -1.1065  1.6995
  130OSM     NF13935   0.018   4.850   6.629  0.4819 -0.6169 -0.2410
  130OSM    HNF13936  -0.039   4.787   6.680 -0.2961  0.3780  0.1392
  130OSM    C2S13937  -0.038   4.926   6.521  0.8224 -1.2080 -0.6537
  130OSM    H2S13938   0.017   5.021   6.503 -1.9624  0.5629 -0.4494
  130OSM    C3S13939  -0.190   4.982   6.553 -0.8727  0.4131 -0.6432
  130OSM    H3S13940  -0.256   4.893   6.553 -0.2969 -0.0165 -1.0031
  130OSM     O313941  -0.248   5.074   6.452 -0.6078  0.0128 -0.6487
  130OSM    HO313942  -0.203   5.060   6.368  0.7165 -2.4638  0.3586
  130OSM    C4S13943  -0.196   5.053   6.691 -0.4055  0.6016  0.5016
  130OSM    H4S13944  -0.171   5.160   6.693 -0.3337  0.5984 -0.0670
  130OSM    C5S13945  -0.252   5.003   6.803 -0.4223 -0.7780  0.5410
  130OSM    H5S13946  -0.281   4.897   6.797 -0.1344 -0.9225  1.4597
  130OSM    C6S13947  -0.261   5.088   6.932 -0.8557 -0.3199  0.1943
  130OSM    H6S13948  -0.364   5.127   6.946  0.2106  2.2544  1.4881
  130OSM    H6T13949  -0.198   5.179   6.925  2.3475 -2.1128  2.7531
  130OSM    C7S13950  -0.216   5.007   7.058 -0.2110  0.5723  0.4674
  130OSM    H7S13951  -0.118   4.959   7.038  0.4776  1.7062  1.0481
  130OSM    H7T13952  -0.279   4.917   7.077  0.8272 -0.2409  0.1501
  130OSM    C8S13953  -0.221   5.097   7.185  0.8378  0.0866 -0.0588
  130OSM    H8S13954  -0.325   5.116   7.221  1.0757  0.7701  0.2842
  130OSM    H8T13955  -0.170   5.193   7.160 -1.4414  0.8016 -2.4207
  130OSM    C9S13956  -0.135   5.043   7.299 -0.5603 -0.1742 -0.4686
  130OSM    H9S13957  -0.042   5.013   7.247  0.2737 -1.2700  1.5716
  130OSM    H9T13958  -0.190   4.957   7.342 -3.9296  0.4171 -3.1323
  130OSM   C10S13959  -0.111   5.155   7.399  1.0471 -0.3396 -0.0514
  130OSM   H10S13960  -0.207   5.201   7.430  0.9794 -0.3191 -0.2833
  130OSM   H10T13961  -0.057   5.240   7.353 -2.8182  1.5653 -1.5645
  130OSM   C11S13962  -0.038   5.099   7.519 -0.1344 -0.8158  0.1183
  130OSM   H11S13963  -0.008   5.191   7.575 -1.0710  0.4338 -1.3653
  130OSM   H11T13964   0.056   5.042   7.502  0.5851 -0.1865  1.7018
  130OSM   C12S13965  -0.121   5.015   7.613 -0.1366  0.5377 -0.0300
  130OSM   H12S13966  -0.128   4.908   7.582  0.7341 -0.5837  3.2618
  130OSM   H12T13967  -0.218   5.069   7.624 -0.2964  0.2499 -0.0033
  130OSM   C13S13968  -0.074   5.012   7.765 -0.4011 -0.2931 -0.0455
  130OSM   H13S13969  -0.061   5.117   7.800 -0.2975  1.3588 -4.4306
  130OSM   H13T13970   0.025   4.961   7.765  0.0338  0.4122 -2.7807
  130OSM   C14S13971  -0.163   4.931   7.855  0.2707  0.3176 -0.4213
  130OSM   H14S13972  -0.165   4.828   7.814 -0.1017  0.7728 -1.5765
  130OSM   H14T13973  -0.265   4.974   7.853  0.6231  1.5511  2.3459
  130OSM   C15S13974  -0.101   4.917   8.003  0.1250 -0.2746  0.0805
  130OSM   H15S13975  -0.190   4.886   8.062  0.3880  1.4597  1.5070
  130OSM   H15T13976  -0.069   5.020   8.032  1.0068 -0.3730 -0.5188
  130OSM   C16S13977   0.015   4.821   8.005  0.4210  0.7928 -0.1998
  130OSM   H16S13978   0.118   4.859   7.986 -0.2312  3.3474  0.8557
  130OSM   H16T13979  -0.014   4.740   7.935  2.9441 -2.1701  1.8977
  130OSM   C17S13980   0.027   4.738   8.137 -0.1737  0.2145 -1.0297
  130OSM   H17S13981  -0.068   4.686   8.160 -0.2000  1.8973  3.6774
  130OSM   H17T13982   0.024   4.810   8.222 -3.6399 -0.1024 -0.7285
  130OSM   C18S13983   0.144   4.638   8.129 -0.2487 -0.3646  0.1132
  130OSM   H18S13984   0.238   4.694   8.150 -0.0529  0.1706 -1.9886
  130OSM   H18T13985   0.157   4.593   8.028 -0.5327  0.5378 -0.3343
  130OSM   H18U13986   0.130   4.559   8.205 -1.8523 -0.7420 -0.5520
  130OSM    C1F13987   0.151   4.849   6.629  0.1564 -0.4623 -0.4158
  130OSM     OF13988   0.208   4.899   6.535 -0.1821 -0.1261 -0.3570
  130OSM    C2F13989   0.225   4.772   6.741 -0.0251  0.9015  0.3222
  130OSM    H2F13990   0.311   4.832   6.776  0.6437 -1.2166  2.6294
  130OSM    H2G13991   0.265   4.677   6.699  1.3406  1.2692  0.7603
  130OSM    C3F13992   0.147   4.738   6.870  0.2028 -0.0132 -0.0520
  130OSM    H3F13993   0.076   4.655   6.847  0.1615  0.4423 -1.6718
  130OSM    H3G13994   0.088   4.827   6.899 -0.1710 -0.0945 -0.5538
  130OSM    C4F13995   0.232   4.685   6.991  0.1224 -0.3637  0.1470
  130OSM    H4F13996   0.301   4.769   7.012  0.6604 -0.0825 -2.3956
  130OSM    H4G13997   0.296   4.608   6.942 -0.8378 -0.8450 -0.3738
  130OSM    C5F13998   0.156   4.627   7.108  0.9574  0.3613 -0.3912
  130OSM    H5F13999   0.089   4.549   7.066  1.5966  0.4303 -1.5987
  130OSM    H5G14000   0.084   4.703   7.146 -0.6689 -1.8708  1.2147
  130OSM    C6F14001   0.239   4.584   7.233 -0.2348  0.6242  0.1019
  130OSM    H6F14002   0.286   4.490   7.197 -0.5072  0.6209 -0.2450
  130OSM    H6G14003   0.173   4.552   7.317  0.8263 -0.8120  0.4113
  130OSM    C7F14004   0.337   4.683   7.291  0.1812 -0.9337  0.0477
  130OSM    H7F14005   0.409   4.696   7.207 -1.0425 -1.1508 -1.0685
  130OSM    H7G14006   0.385   4.644   7.383  1.3693 -0.0833 -0.1941
  130OSM    C8F14007   0.274   4.816   7.313  0.2638 -1.2361  0.5883
  130OSM    H8F14008   0.217   4.846   7.222  1.5018  1.6386  0.6554
  130OSM    H8G14009   0.346   4.896   7.339 -0.4238 -0.4920  0.2281
  130OSM    C9F14010   0.164   4.798   7.419  0.1993 -0.2410  0.3483
  130OSM    H9F14011   0.061   4.793   7.381  0.0168  1.0430  0.6182
  130OSM   C10F14012   0.175   4.812   7.549  0.5071 -0.0871 -0.0898
  130OSM   H10F14013   0.092   4.772   7.608 -0.5579 -0.8448 -2.0097
  130OSM   C11F14014   0.298   4.839   7.631  0.3390 -0.5500 -0.1460
  130OSM   H11F14015   0.292   4.943   7.670 -2.6736  0.0816 -1.9839
  130OSM   H11G14016   0.388   4.848   7.566 -0.6747  1.0964 -1.4193
  130OSM   C12F14017   0.317   4.740   7.749 -0.2695 -0.3504  0.3763
  130OSM   H12F14018   0.303   4.633   7.722 -0.1891 -0.7846  1.9529
  130OSM   H12G14019   0.236   4.759   7.823  1.0186  1.7377  1.3483
  130OSM   C13F14020   0.455   4.752   7.808 -0.5133  0.1031 -0.1775
  130OSM   H13F14021   0.462   4.858   7.841  3.3497  0.0097 -0.1694
  130OSM   H13G14022   0.535   4.734   7.733  1.2679 -0.4646  1.7581
  130OSM   C14F14023   0.479   4.661   7.927  0.2749  0.0995  0.1804
  130OSM   H14F14024   0.454   4.556   7.899  0.5655  0.0704  0.0290
  130OSM   H14G14025   0.410   4.685   8.010  0.3418  0.1188  0.2299
  130OSM   C15F14026   0.618   4.685   7.986  0.2259 -0.6598 -0.1633
  130OSM   H15F14027   0.606   4.789   8.024  0.1598  0.1353 -2.2007
  130OSM   H15G14028   0.690   4.688   7.901  1.8145 -0.0173  1.1607
  130OSM   C16F14029   0.659   4.590   8.103  0.0880  0.3308  1.1356
  130OSM   H16F14030   0.759   4.637   8.114  0.7033 -1.1952  2.3722
  130OSM   H16G14031   0.663   4.490   8.056  2.1755 -1.6618  5.0471
  130OSM   C17F14032   0.573   4.605   8.230 -0.3793 -0.3306  0.8469
  130OSM   H17F14033   0.610   4.526   8.299  1.1436  0.7208  1.2705
  130OSM   H17G14034   0.472   4.571   8.198 -0.3420 -0.3544  0.7534
  130OSM   C18F14035   0.564   4.741   8.295  0.1171  0.1610 -0.6949
  130OSM   H18F14036   0.666   4.784   8.305  0.4717 -0.8089  0.0354
  130OSM   H18G14037   0.516   4.732   8.394  1.4283 -0.6723 -0.1124
  130OSM   H18H14038   0.509   4.818   8.236  0.6956  0.2033 -1.1949
  131OSM      N14039   6.834   3.087   5.799  0.9356 -0.5721  0.4315
  131OSM    C1514040   6.793   3.229   5.774 -0.4794  0.0983 -0.3154
  131OSM   H15A14041   6.706   3.223   5.711 -0.5799 -0.3455 -0.1410
  131OSM   H15B14042   6.864   3.298   5.730 -1.2779  0.1528 -1.5507
  131OSM   H15C14043   6.773   3.279   5.868  1.2312 -1.4152  0.9238
  131OSM    C1414044   6.832   2.997   5.676 -0.5987  0.7785  0.0423
  131OSM   H14A14045   6.733   2.983   5.635  0.3080 -2.1256 -1.3985
  131OSM   H14B14046   6.873   2.904   5.713  1.3125  1.9790  1.1544
  131OSM   H14C14047   6.908   3.024   5.605  0.2455  0.0451  0.6391
  131OSM    C1314048   6.965   3.090   5.863  0.1014 -0.3570 -0.6337
  131OSM   H13A14049   6.962   3.160   5.945 -2.2060  2.5377 -2.9386
  131OSM   H13B14050   7.042   3.137   5.803  1.1879  0.4426  1.3188
  131OSM   H13C14051   6.992   2.991   5.896  1.8057 -0.0935 -1.1584
  131OSM    C1214052   6.731   3.034   5.898 -0.2975  0.3269  0.6999
  131OSM   H12A14053   6.724   2.927   5.885 -0.5747  0.3423  0.7326
  131OSM   H12B14054   6.638   3.080   5.869 -0.0755  0.1456 -0.3735
  131OSM    C1114055   6.751   3.063   6.048 -0.3060 -0.4886  1.2496
  131OSM   H11A14056   6.835   2.994   6.074 -0.0181 -1.6883 -2.2887
  131OSM   H11B14057   6.662   3.032   6.106 -2.6014  1.8788 -0.7802
  131OSM      P14058   6.689   3.316   6.098  0.2912 -0.4114 -0.3767
  131OSM    O1314059   6.735   3.427   6.013  0.1230  0.0456  0.0293
  131OSM    O1414060   6.553   3.265   6.072 -0.1508  0.2739 -0.0412
  131OSM    O1114061   6.699   3.356   6.252 -0.0595 -0.3417  0.7805
  131OSM    O1214062   6.794   3.201   6.078  0.4773  0.3372  0.5211
  131OSM    C1S14063   6.818   3.327   6.333 -0.5859  0.0570  0.2919
  131OSM    H1S14064   6.853   3.425   6.371  3.9378 -0.7347 -1.3086
  131OSM    H1T14065   6.906   3.283   6.282  0.3652  0.4985  1.5129
  131OSM     NF14066   6.892   3.237   6.554 -0.2528  1.2247  0.2749
  131OSM    HNF14067   6.947   3.154   6.555  0.2962  1.5565  1.9419
  131OSM    C2S14068   6.781   3.242   6.459 -0.3772  0.0740 -0.1679
  131OSM    H2S14069   6.700   3.296   6.513 -0.0792 -0.1371  0.5039
  131OSM    C3S14070   6.729   3.104   6.417 -0.5376  0.0162  0.4000
  131OSM    H3S14071   6.803   3.049   6.355  0.7877  1.3344  0.7459
  131OSM     O314072   6.610   3.097   6.347  1.1401  0.3880  0.0089
  131OSM    HO314073   6.609   3.176   6.292 -0.9667  1.2312  1.1630
  131OSM    C4S14074   6.719   3.016   6.538  0.3585 -0.3257 -0.5560
  131OSM    H4S14075   6.775   2.922   6.526  0.9165  0.1708 -2.1219
  131OSM    C5S14076   6.630   3.040   6.637  0.3338 -0.3973 -0.1418
  131OSM    H5S14077   6.564   3.128   6.631 -1.3799 -1.4810  1.6544
  131OSM    C6S14078   6.611   2.950   6.758  0.0685  0.1066  0.8838
  131OSM    H6S14079   6.534   2.871   6.743 -1.4148  1.4219  1.3329
  131OSM    H6T14080   6.578   3.020   6.838  3.5734  2.5120  0.4563
  131OSM    C7S14081   6.739   2.862   6.790 -0.2084  0.1055 -0.1953
  131OSM    H7S14082   6.832   2.923   6.784 -0.0580 -0.1438 -0.4227
  131OSM    H7T14083   6.735   2.781   6.714  0.9753 -0.9368  0.8004
  131OSM    C8S14084   6.734   2.797   6.926 -0.0205  0.1353  0.1859
  131OSM    H8S14085   6.817   2.723   6.934 -1.1031 -0.9495  2.2315
  131OSM    H8T14086   6.646   2.731   6.912  0.0820  0.4326 -2.3839
  131OSM    C9S14087   6.735   2.890   7.041 -0.2484  0.3226  0.2190
  131OSM    H9S14088   6.647   2.957   7.049 -0.0028  0.6845 -0.0551
  131OSM    H9T14089   6.822   2.959   7.033 -0.2887  0.5607  1.5450
  131OSM   C10S14090   6.760   2.819   7.178 -0.4791 -0.1297 -0.6914
  131OSM   H10S14091   6.818   2.729   7.150 -0.1481  0.4488 -1.9566
  131OSM   H10T14092   6.666   2.790   7.230  1.1781  0.8294  3.2202
  131OSM   C11S14093   6.847   2.907   7.280  0.6113  0.6660  0.4460
  131OSM   H11S14094   6.795   3.003   7.304  0.8255  1.1233 -0.8399
  131OSM   H11T14095   6.945   2.929   7.234 -0.4208 -0.5416 -2.5361
  131OSM   C12S14096   6.868   2.837   7.414  0.5549 -0.0607 -0.2470
  131OSM   H12S14097   6.965   2.878   7.452  0.9237 -1.4596  0.4008
  131OSM   H12T14098   6.866   2.726   7.407  0.3563  0.0461 -2.3930
  131OSM   C13S14099   6.754   2.880   7.517  0.4094  0.1808 -0.4274
  131OSM   H13S14100   6.653   2.846   7.485  0.0657 -0.2264  1.0200
  131OSM   H13T14101   6.755   2.991   7.524  0.6443  0.0927  1.4463
  131OSM   C14S14102   6.777   2.823   7.661 -0.2870 -0.4185 -0.2281
  131OSM   H14S14103   6.822   2.722   7.652 -0.8586 -0.8652  1.5605
  131OSM   H14T14104   6.682   2.805   7.715 -0.5313  2.4068  0.4651
  131OSM   C15S14105   6.862   2.915   7.754 -0.7171  0.0856 -0.0128
  131OSM   H15S14106   6.818   3.017   7.757 -0.0697  0.3778 -0.3230
  131OSM   H15T14107   6.964   2.923   7.712 -0.0991 -0.7428  1.2485
  131OSM   C16S14108   6.885   2.870   7.897 -0.0834 -0.6003 -0.2494
  131OSM   H16S14109   6.960   2.787   7.899 -0.9619 -1.4007  0.1014
  131OSM   H16T14110   6.792   2.828   7.940  0.2039  0.4205  1.4207
  131OSM   C17S14111   6.953   2.983   7.983 -0.2042 -0.4056  0.1090
  131OSM   H17S14112   6.903   3.082   7.973 -0.4981 -0.3649  1.7398
  131OSM   H17T14113   7.052   2.997   7.936 -0.1450  0.1117  0.3794
  131OSM   C18S14114   6.975   2.943   8.131  0.1452 -0.1460 -0.4189
  131OSM   H18S14115   7.043   3.017   8.180 -1.6369  0.0673  1.9539
  131OSM   H18T14116   7.015   2.841   8.146  0.5386  0.1940  1.0652
  131OSM   H18U14117   6.879   2.966   8.183  0.9303  0.9115  0.6139
  131OSM    C1F14118   6.937   3.346   6.622 -0.1767 -0.2018 -0.4868
  131OSM     OF14119   6.911   3.459   6.598  0.7135 -0.4954  0.0551
  131OSM    C2F14120   7.024   3.307   6.739 -0.2402 -0.5540 -0.3746
  131OSM    H2F14121   7.032   3.401   6.798  2.3478 -0.4409 -0.8063
  131OSM    H2G14122   7.121   3.301   6.686  1.1862 -0.5370  2.0765
  131OSM    C3F14123   6.988   3.184   6.815 -0.4214  0.0341 -0.2935
  131OSM    H3F14124   7.050   3.103   6.772 -0.3186 -0.4938  0.8163
  131OSM    H3G14125   6.879   3.164   6.806 -0.7938  1.7853 -0.2046
  131OSM    C4F14126   7.018   3.194   6.963 -0.3214 -0.3148 -0.6124
  131OSM    H4F14127   7.124   3.228   6.968 -0.4879  0.0574  0.7388
  131OSM    H4G14128   7.008   3.092   7.006 -0.5874 -0.8886 -1.9535
  131OSM    C5F14129   6.923   3.295   7.030  0.7893  0.3178 -0.3331
  131OSM    H5F14130   6.815   3.273   7.016  0.0420  2.3075  1.6640
  131OSM    H5G14131   6.943   3.396   6.987  1.2651 -0.3169 -1.6602
  131OSM    C6F14132   6.928   3.304   7.185  0.6060 -0.3885 -0.6685
  131OSM    H6F14133   6.897   3.206   7.227 -1.7538  1.5672  2.6505
  131OSM    H6G14134   6.854   3.377   7.222  0.1832 -1.1153 -0.0453
  131OSM    C7F14135   7.061   3.354   7.245  1.0275  0.4365 -0.3253
  131OSM    H7F14136   7.074   3.457   7.205  0.3079  1.0883  1.0574
  131OSM    H7G14137   7.137   3.279   7.214  0.9572 -0.0414  0.6201
  131OSM    C8F14138   7.065   3.370   7.396  0.1894 -0.3240  0.1890
  131OSM    H8F14139   7.010   3.462   7.427 -1.0403 -2.2707  4.4858
  131OSM    H8G14140   7.170   3.400   7.416 -0.0973  0.8828  0.0011
  131OSM    C9F14141   7.026   3.246   7.479  0.4714 -0.0453 -0.7863
  131OSM    H9F14142   7.031   3.149   7.427 -1.7326 -1.9830  2.2989
  131OSM   C10F14143   6.976   3.255   7.607 -0.0148 -0.0729  0.0089
  131OSM   H10F14144   6.938   3.166   7.659  0.9318  0.1279  1.0691
  131OSM   C11F14145   6.964   3.383   7.685 -0.1175 -0.1469  0.1119
  131OSM   H11F14146   6.892   3.449   7.633  1.3338  1.9785  0.6737
  131OSM   H11G14147   7.061   3.436   7.685  1.0133 -2.0924 -1.2794
  131OSM   C12F14148   6.931   3.369   7.834  0.2729  1.3242  0.6144
  131OSM   H12F14149   6.846   3.298   7.844  1.6735 -0.5626 -0.1743
  131OSM   H12G14150   6.880   3.459   7.873 -1.7880  0.3875  0.2120
  131OSM   C13F14151   7.055   3.338   7.923 -0.0146  1.0250  1.3161
  131OSM   H13F14152   7.146   3.395   7.894  0.8928 -0.4112  1.2296
  131OSM   H13G14153   7.077   3.231   7.905 -1.5609  0.8679  0.1433
  131OSM   C14F14154   7.029   3.361   8.070 -0.5533 -0.6220 -0.9923
  131OSM   H14F14155   6.943   3.296   8.097 -0.8019  0.4275  0.9511
  131OSM   H14G14156   6.984   3.463   8.077 -1.0980 -0.9658  1.3649
  131OSM   C15F14157   7.146   3.348   8.166 -0.2932  0.5584  0.9852
  131OSM   H15F14158   7.193   3.446   8.188  0.2062  0.6878 -0.5367
  131OSM   H15G14159   7.229   3.281   8.135 -0.8622  0.8958 -1.4832
  131OSM   C16F14160   7.096   3.295   8.304 -0.9116 -0.0036 -0.4151
  131OSM   H16F14161   7.186   3.253   8.354  0.1643  1.6326 -0.8672
  131OSM   H16G14162   7.028   3.210   8.285  1.0504 -1.1657 -2.7636
  131OSM   C17F14163   7.033   3.407   8.388 -0.5378 -0.0644  0.2057
  131OSM   H17F14164   6.956   3.451   8.322 -0.2941 -1.7512 -1.2718
  131OSM   H17G14165   7.101   3.496   8.395 -1.2354  0.3425  2.6937
  131OSM   C18F14166   6.972   3.359   8.521 -0.5899 -0.3148 -0.0149
  131OSM   H18F14167   6.952   3.444   8.590  0.4176 -0.5294  0.5731
  131OSM   H18G14168   7.049   3.287   8.557  1.0584  0.2515 -2.1605
  131OSM   H18H14169   6.881   3.300   8.500  0.8395 -1.8490 -2.4010
  132OSM      N14170   3.271   6.724   5.986 -0.0158 -0.2403 -0.4598
  132OSM    C1514171   3.351   6.601   6.002  0.2813 -0.0597  0.0582
  132OSM   H15A14172   3.283   6.518   6.015 -0.7555  0.7522 -0.0011
  132OSM   H15B14173   3.422   6.624   6.079  1.0046 -0.1976 -0.5529
  132OSM   H15C14174   3.400   6.584   5.907  0.3086  1.5576 -0.2595
  132OSM    C1414175   3.367   6.842   5.957 -0.1359 -0.2149 -0.1186
  132OSM   H14A14176   3.425   6.861   6.047 -0.3531 -1.0746  0.2197
  132OSM   H14B14177   3.316   6.932   5.928  1.2679  0.4433 -0.6337
  132OSM   H14C14178   3.432   6.809   5.878  0.9353 -1.2128  1.1239
  132OSM    C1314179   3.169   6.703   5.883  0.6488  0.1413  0.3449
  132OSM   H13A14180   3.207   6.694   5.782  0.2845  1.1881  0.0980
  132OSM   H13B14181   3.103   6.789   5.892  1.7901  1.1214 -0.3449
  132OSM   H13C14182   3.113   6.613   5.904  1.2617 -0.5849 -0.9544
  132OSM    C1214183   3.192   6.762   6.112  0.2587 -0.0275  0.6460
  132OSM   H12A14184   3.118   6.688   6.136  0.0239  0.7327  2.4221
  132OSM   H12B14185   3.148   6.860   6.104  0.0631 -0.1363  0.3838
  132OSM    C1114186   3.261   6.760   6.242  0.5270  0.2345 -0.8467
  132OSM   H11A14187   3.315   6.664   6.254  2.5036  1.0591 -2.4233
  132OSM   H11B14188   3.184   6.772   6.321 -0.7442  2.0139 -2.2758
  132OSM      P14189   3.382   6.957   6.374 -0.1741 -0.3602  0.4582
  132OSM    O1314190   3.517   6.936   6.424  0.4809  0.4763  0.2793
  132OSM    O1414191   3.350   7.095   6.326  0.2962 -0.0645  0.7300
  132OSM    O1114192   3.278   6.921   6.483 -0.5897 -0.4928  0.9106
  132OSM    O1214193   3.367   6.861   6.252  0.1409 -0.7807  0.6402
  132OSM    C1S14194   3.309   6.823   6.583  0.1830  0.0795  0.8069
  132OSM    H1S14195   3.350   6.728   6.544 -3.3083 -1.3726  0.2423
  132OSM    H1T14196   3.216   6.772   6.616  2.3630 -2.7139  3.1157
  132OSM     NF14197   3.394   6.775   6.810 -0.1905  0.3935  0.7671
  132OSM    HNF14198   3.323   6.761   6.879 -0.6266 -1.5614  0.0094
  132OSM    C2S14199   3.369   6.884   6.712 -0.2286  0.5476 -0.5180
  132OSM    H2S14200   3.461   6.937   6.678  0.4809 -0.0111  0.4803
  132OSM    C3S14201   3.277   6.995   6.769  0.9066 -0.6322  0.6665
  132OSM    H3S14202   3.186   6.940   6.800  0.0001 -0.3976 -1.4228
  132OSM     O314203   3.225   7.087   6.674  0.2628 -0.2372 -0.1723
  132OSM    HO314204   3.209   7.034   6.595 -0.7132  0.3127 -0.3585
  132OSM    C4S14205   3.344   7.052   6.896  0.1954 -0.7367  0.0769
  132OSM    H4S14206   3.299   6.999   6.981 -0.6072 -2.1066 -1.1497
  132OSM    C5S14207   3.427   7.159   6.906  0.1926  0.2172  0.1354
  132OSM    H5S14208   3.440   7.219   6.814  2.6649 -2.5563 -1.5024
  132OSM    C6S14209   3.477   7.202   7.043 -1.1400  0.1511  0.0155
  132OSM    H6S14210   3.451   7.309   7.058 -1.4546  0.2074 -0.8920
  132OSM    H6T14211   3.588   7.190   7.041 -1.3487 -2.1254 -1.2088
  132OSM    C7S14212   3.436   7.130   7.171 -1.1041 -0.5076  0.2192
  132OSM    H7S14213   3.441   7.021   7.148 -3.1568 -1.2387  2.8697
  132OSM    H7T14214   3.332   7.149   7.204 -1.3791  2.4649 -1.9613
  132OSM    C8S14215   3.532   7.167   7.290  0.0525  0.3459 -0.5570
  132OSM    H8S14216   3.543   7.274   7.317 -0.8897  0.3436 -0.1197
  132OSM    H8T14217   3.637   7.141   7.262 -0.1549  0.0022 -1.0236
  132OSM    C9S14218   3.509   7.094   7.415 -0.3810 -0.7946 -0.6505
  132OSM    H9S14219   3.489   6.988   7.387 -0.8199 -1.0709  0.6253
  132OSM    H9T14220   3.415   7.137   7.456  0.7437 -0.6899  2.0095
  132OSM   C10S14221   3.631   7.117   7.509  0.1906 -0.0010  0.6176
  132OSM   H10S14222   3.653   7.225   7.514  2.0286 -0.2558 -0.6691
  132OSM   H10T14223   3.720   7.065   7.466  0.1100 -0.0405  0.4960
  132OSM   C11S14224   3.600   7.088   7.657 -0.2518  0.4687  0.1168
  132OSM   H11S14225   3.519   7.016   7.681  1.1246 -0.5553  1.9896
  132OSM   H11T14226   3.566   7.184   7.700  0.1600  0.8102 -0.3092
  132OSM   C12S14227   3.726   7.048   7.725 -0.6284 -0.1333  0.3339
  132OSM   H12S14228   3.812   7.112   7.695 -0.6524  0.1925  0.9427
  132OSM   H12T14229   3.752   6.946   7.689  1.4614  1.0057 -1.6709
  132OSM   C13S14230   3.733   7.046   7.878  0.1352  0.5541  0.1466
  132OSM   H13S14231   3.666   7.123   7.921 -0.3570  0.3017 -0.1531
  132OSM   H13T14232   3.836   7.067   7.915  0.2598 -1.2859  0.9726
  132OSM   C14S14233   3.696   6.918   7.952  0.0775 -0.1461 -0.1512
  132OSM   H14S14234   3.754   6.924   8.046 -0.8380 -0.8842  0.4771
  132OSM   H14T14235   3.726   6.827   7.896  0.4228 -0.0513 -0.1211
  132OSM   C15S14236   3.546   6.914   7.978  0.5850  0.7165 -0.4994
  132OSM   H15S14237   3.491   6.902   7.883 -1.4790 -1.2569  0.8457
  132OSM   H15T14238   3.505   7.006   8.025 -4.4743 -0.8222 -1.3783
  132OSM   C16S14239   3.520   6.792   8.066 -0.1248  0.7128  0.6252
  132OSM   H16S14240   3.551   6.699   8.014  1.3986  1.4051  0.2302
  132OSM   H16T14241   3.410   6.786   8.081 -0.5316 -0.7602 -2.3124
  132OSM   C17S14242   3.592   6.794   8.206  0.2917  0.0871  0.5038
  132OSM   H17S14243   3.618   6.895   8.241  0.1416 -1.2501  5.0606
  132OSM   H17T14244   3.686   6.738   8.186  0.5346  0.6551  0.0366
  132OSM   C18S14245   3.512   6.727   8.319 -0.0237 -0.4703 -0.4629
  132OSM   H18S14246   3.547   6.755   8.421  0.6300 -0.3895 -0.7045
  132OSM   H18T14247   3.524   6.616   8.310  1.7540 -0.5910  2.0014
  132OSM   H18U14248   3.410   6.770   8.327  0.2214  0.1603 -0.7080
  132OSM    C1F14249   3.492   6.679   6.801  0.2638  0.5115 -0.0255
  132OSM     OF14250   3.552   6.647   6.699  0.1092  0.3756 -0.3562
  132OSM    C2F14251   3.509   6.593   6.924  0.4792 -0.4198  0.3324
  132OSM    H2F14252   3.462   6.494   6.906  1.9144 -1.2168  0.7758
  132OSM    H2G14253   3.450   6.636   7.008 -2.8114  1.6705 -2.7279
  132OSM    C3F14254   3.656   6.593   6.983  0.0247  0.7067 -0.2987
  132OSM    H3F14255   3.720   6.562   6.898  0.2677 -1.5370  0.6269
  132OSM    H3G14256   3.664   6.507   7.054 -1.3840  0.5879 -0.2449
  132OSM    C4F14257   3.707   6.722   7.044 -0.2299  0.6954 -0.0404
  132OSM    H4F14258   3.708   6.815   6.983  1.2315  0.9719  0.3757
  132OSM    H4G14259   3.812   6.711   7.078 -0.4055  0.4072  0.4100
  132OSM    C5F14260   3.623   6.762   7.168 -0.7361 -0.2865  0.0544
  132OSM    H5F14261   3.518   6.771   7.132 -0.6996  1.7738  0.3490
  132OSM    H5G14262   3.666   6.852   7.217  0.3479 -0.9882  0.4278
  132OSM    C6F14263   3.628   6.664   7.287 -0.4270  0.6893 -0.1653
  132OSM    H6F14264   3.733   6.629   7.299 -0.9561 -1.1787 -0.6712
  132OSM    H6G14265   3.569   6.573   7.264  2.5008 -1.1027 -1.1661
  132OSM    C7F14266   3.576   6.698   7.427 -0.2180 -1.0055 -0.3420
  132OSM    H7F14267   3.466   6.713   7.420 -0.2627 -1.0721  0.1269
  132OSM    H7G14268   3.626   6.795   7.448 -1.4369 -0.6066  0.8482
  132OSM    C8F14269   3.604   6.588   7.529  0.4211  0.2743  0.9001
  132OSM    H8F14270   3.715   6.581   7.530  0.4931  1.2782  2.1588
  132OSM    H8G14271   3.566   6.489   7.496 -1.7020  0.8183  1.5840
  132OSM    C9F14272   3.559   6.628   7.668 -0.3002  0.8079 -0.0488
  132OSM    H9F14273   3.598   6.730   7.686  1.6351  0.4398 -1.7556
  132OSM   C10F14274   3.477   6.562   7.751  0.7504  0.4706  0.0132
  132OSM   H10F14275   3.437   6.610   7.841 -2.0753  0.9834 -1.3805
  132OSM   C11F14276   3.407   6.431   7.729  0.5009 -0.3101 -0.1883
  132OSM   H11F14277   3.484   6.353   7.745  0.2201 -0.3399  1.0618
  132OSM   H11G14278   3.369   6.425   7.625 -1.6325 -3.1293  0.6375
  132OSM   C12F14279   3.292   6.402   7.827 -0.5924  0.4855 -0.7296
  132OSM   H12F14280   3.260   6.300   7.797 -1.0151 -0.4832  2.5199
  132OSM   H12G14281   3.206   6.468   7.803  0.2485  0.8783 -2.8483
  132OSM   C13F14282   3.343   6.399   7.974  0.0209  0.3489 -0.9712
  132OSM   H13F14283   3.343   6.504   8.010 -1.5320  0.3420 -0.9026
  132OSM   H13G14284   3.448   6.363   7.975  0.1808  0.7271 -2.0715
  132OSM   C14F14285   3.245   6.318   8.072  0.0921  0.4293 -0.1923
  132OSM   H14F14286   3.254   6.210   8.047  2.8080  0.8265 -1.3501
  132OSM   H14G14287   3.143   6.354   8.048  0.1584  1.7790  1.4129
  132OSM   C15F14288   3.262   6.343   8.221 -0.7373  0.0342 -0.6636
  132OSM   H15F14289   3.186   6.277   8.269 -0.2208 -0.3290 -0.3312
  132OSM   H15G14290   3.225   6.444   8.250 -1.3162  0.7638 -3.6224
  132OSM   C16F14291   3.405   6.322   8.262 -0.1709  0.2314  0.0911
  132OSM   H16F14292   3.465   6.406   8.220 -0.6094  0.6420  0.2786
  132OSM   H16G14293   3.448   6.234   8.210  1.3018  0.9459  0.0210
  132OSM   C17F14294   3.431   6.328   8.419  0.1296 -0.0211  0.9642
  132OSM   H17F14295   3.368   6.406   8.468 -1.3349  0.6111 -1.7688
  132OSM   H17G14296   3.536   6.366   8.427  0.2827 -0.7254  2.9935
  132OSM   C18F14297   3.396   6.200   8.485  0.2032  0.7852 -0.3194
  132OSM   H18F14298   3.406   6.212   8.595  1.9258 -0.9925 -0.2183
  132OSM   H18G14299   3.467   6.118   8.459 -0.5704 -0.3639  1.0389
  132OSM   H18H14300   3.293   6.162   8.469  1.0781 -2.6281  1.2341
  133SAPE     N14301   2.710   6.240  10.790  0.2813 -0.7324 -0.1222
  133SAPE   HN114302   2.753   6.228  10.884  1.9959 -1.3940 -0.9518
  133SAPE   HN214303   2.756   6.169  10.730  4.6008 -0.2558  2.2329
  133SAPE   HN314304   2.754   6.332  10.768 -0.4333 -0.2166  0.5381
  133SAPE   C1214305   2.558   6.241  10.795 -0.5042  0.0156  0.6217
  133SAPE  H12A14306   2.520   6.319  10.865  0.9969  1.3563 -0.0014
  133SAPE  H12B14307   2.539   6.140  10.836 -0.9355 -0.2199 -0.1340
  133SAPE   C1114308   2.489   6.252  10.653 -0.4640 -0.1196  0.5897
  133SAPE  H11A14309   2.388   6.205  10.654  0.4637 -2.6142 -2.8366
  133SAPE  H11B14310   2.548   6.198  10.575  0.8618  0.8837  0.8690
  133SAPE     P14311   2.373   6.487  10.579 -0.2751 -0.1069 -0.2177
  133SAPE   O1314312   2.300   6.486  10.708  0.5305 -0.2837  0.9130
  133SAPE   O1414313   2.438   6.610  10.538  0.0383 -0.4593  0.2373
  133SAPE   O1214314   2.489   6.386  10.599 -0.1657  0.2503  0.5761
  133SAPE   O1114315   2.292   6.431  10.456  0.2155  0.0783 -0.8019
  133SAPE    C114316   2.232   6.304  10.435 -0.4329 -0.3455 -0.3542
  133SAPE    HA14317   2.200   6.258  10.530  0.6595  0.1907  0.2861
  133SAPE    HB14318   2.139   6.316  10.374 -1.2688 -1.9488  0.5601
  133SAPE    C214319   2.318   6.207  10.357  0.1839  0.1299  0.2837
  133SAPE    HS14320   2.425   6.215  10.388 -0.0801 -0.1472  1.3024
  133SAPE   O2114321   2.311   6.242  10.219 -0.7697  0.4754  0.1465
  133SAPE   C2114322   2.415   6.209  10.143  0.4685 -0.1489 -0.2266
  133SAPE   O2214323   2.504   6.135  10.171 -0.4942  0.4351 -0.3284
  133SAPE   C2214324   2.391   6.260  10.000  0.1086  0.2342  0.2894
  133SAPE   H2R14325   2.283   6.240   9.986  0.5244 -2.1189  0.0628
  133SAPE   H2S14326   2.407   6.370  10.004 -0.1529  0.2216  2.9324
  133SAPE    C314327   2.267   6.060  10.393 -0.3028  0.8269  0.6066
  133SAPE    HX14328   2.317   6.024  10.485 -1.3765 -0.4978  0.7106
  133SAPE    HY14329   2.310   5.990  10.319  1.4821  2.1758  0.3031
  133SAPE   O3114330   2.126   6.048  10.412  0.0741 -0.2926  0.2304
  133SAPE   C3114331   2.074   5.917  10.412  0.4557 -0.7941  0.3300
  133SAPE   O3214332   2.146   5.821  10.416 -0.0006  0.1393  0.1688
  133SAPE   C3214333   1.923   5.925  10.424 -0.2235  1.0608 -0.6683
  133SAPE   H2X14334   1.899   6.029  10.455  0.7690  1.3540 -0.8499
  133SAPE   H2Y14335   1.890   5.852  10.502  3.3670 -0.0671 -0.0471
  133SAPE   C2314336   2.464   6.195   9.881  0.5268  0.7180  0.0783
  133SAPE   H3R14337   2.506   6.098   9.916 -2.3832  0.2638  2.7440
  133SAPE   H3S14338   2.544   6.267   9.852  0.4674  1.7018  2.1956
  133SAPE   C2414339   2.363   6.158   9.763  0.0154 -0.4106 -0.7571
  133SAPE   H4R14340   2.338   6.252   9.710 -2.6620 -1.0601 -0.8005
  133SAPE   H4S14341   2.268   6.120   9.806  0.0612 -2.6615 -2.4579
  133SAPE   C2514342   2.432   6.058   9.670 -0.0149  0.3872 -0.3680
  133SAPE   H5R14343   2.419   5.949   9.682  1.2287  0.3427  0.6840
  133SAPE   C2614344   2.496   6.087   9.551  0.5600  0.2558 -0.3654
  133SAPE   H6R14345   2.537   6.008   9.486  1.7619  0.4742  0.0936
  133SAPE   C2714346   2.511   6.228   9.493 -0.6866 -0.2114  0.0095
  133SAPE   H7R14347   2.604   6.265   9.541 -0.0100  2.2104 -2.8091
  133SAPE   H7S14348   2.428   6.296   9.523 -0.7678 -0.8471  1.2866
  133SAPE   C2814349   2.514   6.244   9.345 -0.3554  0.6113 -0.2552
  133SAPE   H8R14350   2.605   6.297   9.311 -1.5872  2.2073 -1.1916
  133SAPE   C2914351   2.455   6.168   9.248  0.5302  0.3081  0.5886
  133SAPE   H9R14352   2.481   6.198   9.145 -0.7750 -0.9605 -0.1349
  133SAPE  C21014353   2.348   6.058   9.269 -0.3626  0.2011 -0.2606
  133SAPE  H10R14354   2.246   6.082   9.232 -0.5310  1.3141  0.8347
  133SAPE  H10S14355   2.335   6.049   9.379  3.5042  0.5493  0.3720
  133SAPE  C21114356   2.404   5.937   9.197  0.7380  0.0821 -0.3044
  133SAPE  H11R14357   2.426   5.958   9.092 -0.0416  1.3943 -0.2301
  133SAPE  C21214358   2.421   5.808   9.243  0.5788  0.0762  0.1202
  133SAPE  H12R14359   2.462   5.730   9.177  3.1396  0.2554  1.3869
  133SAPE  C21314360   2.389   5.765   9.387  0.3740 -0.3276 -0.3921
  133SAPE  H13R14361   2.324   5.848   9.424  2.2070  1.0633 -0.1573
  133SAPE  H13S14362   2.475   5.776   9.457  0.1233 -0.0240 -0.1247
  133SAPE  C21414363   2.320   5.630   9.411 -0.1505  0.5510 -0.3245
  133SAPE  H14R14364   2.347   5.559   9.332  0.3381  0.8706 -0.4509
  133SAPE  C21514365   2.231   5.601   9.512  0.1493  0.3736 -0.0139
  133SAPE  H15R14366   2.191   5.499   9.519 -3.4976  1.4729 -1.9936
  133SAPE  C21614367   2.182   5.695   9.619 -0.6410  0.1675  0.0341
  133SAPE  H16R14368   2.076   5.666   9.635 -0.6980 -0.2162 -0.9694
  133SAPE  H16S14369   2.186   5.797   9.576 -0.8985 -0.4066 -1.4139
  133SAPE  C21714370   2.252   5.684   9.751  0.6066 -0.2958 -0.9661
  133SAPE  H17R14371   2.361   5.703   9.760  0.5645  0.1887 -1.4422
  133SAPE  H17S14372   2.226   5.580   9.780  0.7476 -0.0373  0.1141
  133SAPE  C21814373   2.185   5.785   9.849  0.6491 -0.7183  0.5057
  133SAPE  H18R14374   2.074   5.777   9.841  0.8320 -2.3708 -0.8371
  133SAPE  H18S14375   2.213   5.885   9.809  2.9455 -1.5486 -0.1153
  133SAPE  C21914376   2.240   5.768   9.991  0.2233  0.1270 -0.8839
  133SAPE  H19R14377   2.225   5.864  10.046 -1.8076  0.3324 -1.7228
  133SAPE  H19S14378   2.350   5.753   9.993  0.2983  0.4426 -2.0437
  133SAPE  C22014379   2.181   5.659  10.071  0.4982 -0.2843 -0.1997
  133SAPE  H20R14380   2.075   5.637  10.046  0.4573  0.2060 -0.4721
  133SAPE  H20S14381   2.186   5.683  10.180  1.3457 -0.8491 -0.1083
  133SAPE  H20T14382   2.232   5.562  10.057  0.1421 -0.3377 -1.1527
  133SAPE   C3314383   1.851   5.879  10.294  0.2097 -0.1933 -0.2482
  133SAPE   H3X14384   1.744   5.860  10.320  0.9416 -1.9169  1.7839
  133SAPE   H3Y14385   1.881   5.777  10.262 -0.0307 -0.4614  0.3707
  133SAPE   C3414386   1.849   5.984  10.187 -0.4075  0.2148 -0.1213
  133SAPE   H4X14387   1.954   6.007  10.159 -0.4856 -1.4206 -1.9610
  133SAPE   H4Y14388   1.789   6.072  10.219  1.4435  2.2646 -1.9186
  133SAPE   C3514389   1.797   5.945  10.047 -1.4136 -0.5486 -0.4065
  133SAPE   H5X14390   1.689   5.919  10.043 -1.1231 -1.6683 -1.2400
  133SAPE   H5Y14391   1.859   5.865  10.002  0.2717  0.3860  0.1648
  133SAPE   C3614392   1.819   6.067   9.954 -0.5129 -0.7505 -0.4399
  133SAPE   H6X14393   1.926   6.095   9.962 -0.5314 -0.7485 -0.1882
  133SAPE   H6Y14394   1.753   6.144  10.001 -0.5787 -1.6781  1.0645
  133SAPE   C3714395   1.776   6.037   9.811 -0.0005  0.8293  0.5288
  133SAPE   H7X14396   1.742   6.130   9.762  0.5928 -0.0072 -1.6265
  133SAPE   H7Y14397   1.688   5.969   9.813  0.9235 -0.4291 -0.2588
  133SAPE   C3814398   1.883   5.963   9.722 -1.0720  0.1210  0.0260
  133SAPE   H8X14399   1.911   5.861   9.756  1.5189  0.9431  0.5523
  133SAPE   H8Y14400   1.975   6.022   9.742 -0.2741 -0.2840 -2.2633
  133SAPE   C3914401   1.861   5.976   9.572  0.8626  0.0180 -0.8311
  133SAPE   H9X14402   1.825   6.078   9.545  0.4466 -0.2770 -1.4163
  133SAPE   H9Y14403   1.778   5.909   9.543  1.2885 -0.5994 -0.6252
  133SAPE  C31014404   1.975   5.940   9.477  0.1006  0.3839  0.2356
  133SAPE  H10X14405   1.993   5.832   9.461 -1.4682  0.3055 -1.2672
  133SAPE  H10Y14406   2.057   6.006   9.514 -0.1274  0.7919  0.0248
  133SAPE  C31114407   1.920   6.003   9.345  0.0167  0.3941  0.0870
  133SAPE  H11X14408   2.020   6.017   9.298  0.5444 -0.5319  0.8945
  133SAPE  H11Y14409   1.890   6.108   9.365 -0.5970  0.0395  1.0994
  133SAPE  C31214410   1.817   5.913   9.268  0.0043  0.5387  0.1104
  133SAPE  H12X14411   1.715   5.900   9.312  0.5450  1.1534  1.6202
  133SAPE  H12Y14412   1.861   5.812   9.253 -0.3847  0.2088  1.0797
  133SAPE  C31314413   1.790   5.959   9.121 -0.1176 -0.9932 -0.1697
  133SAPE  H13X14414   1.878   5.951   9.053 -2.0043 -0.7197 -2.8233
  133SAPE  H13Y14415   1.756   6.064   9.133  0.5309 -0.8676  0.6106
  133SAPE  C31414416   1.670   5.884   9.069  0.4803  0.1667 -0.3370
  133SAPE  H14X14417   1.605   5.853   9.153 -0.1292  2.8060  0.2506
  133SAPE  H14Y14418   1.704   5.786   9.028 -1.1410  0.4353 -2.4940
  133SAPE  C31514419   1.599   5.961   8.955 -0.5056  0.5159  0.2191
  133SAPE  H15X14420   1.566   6.060   8.992  0.6798  1.1059 -0.2568
  133SAPE  H15Y14421   1.500   5.912   8.942 -1.2574  1.5823  1.5580
  133SAPE  C31614422   1.678   5.970   8.826  0.3340  0.3768  0.6536
  133SAPE  H16X14423   1.775   6.020   8.846  1.6450 -1.4225 -0.7252
  133SAPE  H16Y14424   1.623   6.019   8.743 -0.3192 -0.3620  0.6315
  133SAPE  C31714425   1.723   5.832   8.770  0.4078 -0.2630 -0.1591
  133SAPE  H17X14426   1.631   5.769   8.763  0.8166 -0.7636 -1.3815
  133SAPE  H17Y14427   1.799   5.781   8.833  2.0628  2.8907  0.5835
  133SAPE  C31814428   1.774   5.860   8.625 -0.4520 -1.0288  0.3132
  133SAPE  H18X14429   1.875   5.905   8.629 -0.3680 -1.0874 -0.9196
  133SAPE  H18Y14430   1.697   5.912   8.563 -0.1400 -0.7554  0.1510
  133SAPE  H18Z14431   1.790   5.761   8.577 -2.1436 -1.5100  0.6547
  134SAPE     N14432   5.377   0.602  10.472  0.1466 -0.6663 -0.3155
  134SAPE   HN114433   5.278   0.598  10.503  0.4057 -1.1004  0.4780
  134SAPE   HN214434   5.394   0.524  10.406 -0.3271  0.8757 -2.3757
  134SAPE   HN314435   5.438   0.589  10.555 -1.6475 -2.9303  0.7598
  134SAPE   C1214436   5.414   0.738  10.417 -0.4977 -0.0678 -0.4340
  134SAPE  H12A14437   5.338   0.745  10.336 -1.6054 -4.8702 -0.1171
  134SAPE  H12B14438   5.517   0.724  10.379 -0.2672 -0.2499  0.2359
  134SAPE   C1114439   5.406   0.848  10.522  0.1517  0.5345  0.1463
  134SAPE  H11A14440   5.467   0.932  10.480  0.6138  0.2076  0.1593
  134SAPE  H11B14441   5.462   0.822  10.614  0.6057  2.1945  0.3715
  134SAPE     P14442   5.186   0.814  10.659 -0.0121 -0.0736  0.3395
  134SAPE   O1314443   5.274   0.781  10.778  0.1537 -0.4150  0.2413
  134SAPE   O1414444   5.065   0.894  10.682  0.3281  0.7555  0.1442
  134SAPE   O1214445   5.273   0.889  10.550  0.4570 -0.5990  0.6186
  134SAPE   O1114446   5.151   0.675  10.586 -0.3716 -0.6794  0.2476
  134SAPE    C114447   5.030   0.654  10.509 -1.0711  0.1656 -0.4836
  134SAPE    HA14448   4.995   0.554  10.542 -0.6642  0.7909  2.0597
  134SAPE    HB14449   4.948   0.726  10.529 -0.4281  1.2373 -1.6221
  134SAPE    C214450   5.049   0.667  10.350 -0.7072  0.5293 -0.8358
  134SAPE    HS14451   4.949   0.635  10.314 -0.5710 -1.7656  0.5804
  134SAPE   O2114452   5.147   0.576  10.304  0.4987  0.5236 -0.2119
  134SAPE   C2114453   5.103   0.447  10.280 -0.0702  1.0337  0.0474
  134SAPE   O2214454   4.992   0.405  10.303 -0.4294 -0.3525 -0.7078
  134SAPE   C2214455   5.204   0.382  10.186  0.2909  0.2085  0.1461
  134SAPE   H2R14456   5.251   0.464  10.128  2.0608 -0.6001  0.3547
  134SAPE   H2S14457   5.274   0.319  10.245 -1.4690 -1.5806  0.4393
  134SAPE    C314458   5.076   0.816  10.305  0.8861  0.8189  0.2124
  134SAPE    HX14459   5.177   0.858  10.324  0.5355  1.7558  0.0710
  134SAPE    HY14460   5.011   0.884  10.364 -2.8469 -0.6098 -1.9114
  134SAPE   O3114461   5.033   0.823  10.163 -0.4217 -0.0485  0.0639
  134SAPE   C3114462   5.130   0.807  10.069  0.0157 -0.2634 -0.0512
  134SAPE   O3214463   5.245   0.796  10.087 -1.1977 -0.4133  0.3027
  134SAPE   C3214464   5.054   0.792   9.936 -0.5091 -0.0698  0.0624
  134SAPE   H2X14465   4.945   0.805   9.950 -0.6269 -0.0915 -0.7888
  134SAPE   H2Y14466   5.090   0.691   9.904  1.1400  0.4519  0.1559
  134SAPE   C2314467   5.134   0.288  10.084 -0.4500  0.7348 -0.5235
  134SAPE   H3R14468   5.074   0.211  10.135  3.4883 -2.5237 -0.3101
  134SAPE   H3S14469   5.210   0.226  10.031  0.1677  0.1917  0.9405
  134SAPE   C2414470   5.055   0.362   9.971 -0.1651  0.6552 -1.1579
  134SAPE   H4R14471   5.131   0.431   9.928 -0.0154  0.7823 -0.6852
  134SAPE   H4S14472   4.970   0.420  10.015 -0.8350 -0.8705 -0.3649
  134SAPE   C2514473   4.989   0.272   9.871  0.9790 -0.7777  0.1988
  134SAPE   H5R14474   4.962   0.173   9.911  0.2556 -1.6588 -2.3142
  134SAPE   C2614475   4.993   0.288   9.736 -0.1533  0.1464 -0.4527
  134SAPE   H6R14476   4.931   0.215   9.681 -0.1184 -1.2507  1.2589
  134SAPE   C2714477   5.056   0.396   9.652  0.1991 -0.2671  0.0460
  134SAPE   H7R14478   5.145   0.444   9.698 -0.0527 -1.0640  1.4180
  134SAPE   H7S14479   4.987   0.482   9.640  2.6884  2.0770  1.4593
  134SAPE   C2814480   5.103   0.344   9.522 -0.7514 -0.4154  0.2510
  134SAPE   H8R14481   5.193   0.280   9.528 -1.1402 -1.0064 -0.0914
  134SAPE   C2914482   5.069   0.376   9.395 -0.8508 -0.5882 -0.2907
  134SAPE   H9R14483   5.111   0.320   9.310 -3.0470 -0.9032 -1.2285
  134SAPE  C21014484   4.961   0.474   9.357 -0.4791 -0.0097  0.2920
  134SAPE  H10R14485   4.988   0.565   9.298  0.2024 -0.6087 -0.3457
  134SAPE  H10S14486   4.911   0.519   9.446 -1.1767  0.4009 -0.3042
  134SAPE  C21114487   4.860   0.399   9.272 -0.8454  0.2088 -0.8016
  134SAPE  H11R14488   4.797   0.339   9.339  0.9532  0.3379  1.0964
  134SAPE  C21214489   4.845   0.391   9.135 -0.0684  0.5842 -0.2867
  134SAPE  H12R14490   4.765   0.328   9.093 -1.0775  1.3819  0.3770
  134SAPE  C21314491   4.928   0.462   9.028  0.4051 -0.4533 -0.3320
  134SAPE  H13R14492   4.929   0.395   8.939  0.3166 -0.1014 -0.5970
  134SAPE  H13S14493   5.031   0.489   9.058  0.9319 -0.2713 -2.1749
  134SAPE  C21414494   4.862   0.592   8.993 -0.1977  0.5149  0.7150
  134SAPE  H14R14495   4.781   0.625   9.060  0.2386 -2.4099  2.8743
  134SAPE  C21514496   4.889   0.661   8.874 -0.2053 -0.1822  0.0792
  134SAPE  H15R14497   4.846   0.760   8.855  1.0350  0.2430 -0.6278
  134SAPE  C21614498   4.995   0.613   8.786  0.2818  0.3739  0.3651
  134SAPE  H16R14499   5.063   0.534   8.823 -0.3099 -0.5462 -0.4606
  134SAPE  H16S14500   5.063   0.695   8.757  1.0928 -0.4129 -0.0068
  134SAPE  C21714501   4.948   0.570   8.648 -0.5624  0.0315 -0.2373
  134SAPE  H17R14502   5.032   0.554   8.577 -0.6027 -0.0658 -0.2621
  134SAPE  H17S14503   4.877   0.643   8.604 -0.7386 -1.3621 -2.3901
  134SAPE  C21814504   4.870   0.436   8.647  0.4780  0.1638 -0.3997
  134SAPE  H18R14505   4.771   0.456   8.692  1.0284  2.1152  0.0080
  134SAPE  H18S14506   4.933   0.371   8.712 -0.7266  1.5550  2.3188
  134SAPE  C21914507   4.854   0.382   8.503  0.0936  0.0383 -0.5408
  134SAPE  H19R14508   4.837   0.458   8.424 -1.7362  0.8477  0.5582
  134SAPE  H19S14509   4.771   0.310   8.492  2.0520 -2.1400 -2.1408
  134SAPE  C22014510   4.971   0.303   8.449 -0.2078 -0.0588  0.2525
  134SAPE  H20R14511   4.984   0.221   8.523  0.5361 -0.0663  0.1232
  134SAPE  H20S14512   5.065   0.361   8.434 -1.0963  1.8563  1.7708
  134SAPE  H20T14513   4.944   0.244   8.359 -1.1434 -0.6476  0.9060
  134SAPE   C3314514   5.107   0.895   9.830  0.1022  0.2680  0.0707
  134SAPE   H3X14515   5.195   0.851   9.779  0.2072  1.5374 -0.9182
  134SAPE   H3Y14516   5.129   0.997   9.870 -0.9653  0.2230  0.8066
  134SAPE   C3414517   5.013   0.897   9.708  0.4627  0.0017  0.6029
  134SAPE   H4X14518   4.914   0.930   9.745  0.9164  3.2970 -0.7918
  134SAPE   H4Y14519   5.010   0.791   9.674 -0.8013 -0.4452  2.0169
  134SAPE   C3514520   5.055   0.990   9.597  0.7855 -0.3946 -0.3856
  134SAPE   H5X14521   5.159   0.990   9.555 -0.0938  0.9404 -2.8007
  134SAPE   H5Y14522   5.045   1.094   9.635 -0.5536 -1.0235  1.0632
  134SAPE   C3614523   4.954   0.989   9.484  0.0762  0.8304 -0.3917
  134SAPE   H6X14524   4.855   1.022   9.521  0.1001 -1.9133  2.6044
  134SAPE   H6Y14525   4.945   0.884   9.450  0.1176  0.8065 -0.3293
  134SAPE   C3714526   4.997   1.066   9.369  0.4173 -0.3760  0.0305
  134SAPE   H7X14527   5.102   1.039   9.345 -0.6436 -3.7850 -1.3413
  134SAPE   H7Y14528   4.993   1.174   9.395 -1.0616 -0.1238 -1.1326
  134SAPE   C3814529   4.906   1.049   9.251 -0.8358 -0.0284 -0.2372
  134SAPE   H8X14530   4.827   1.121   9.281 -2.0570 -0.4934 -2.1377
  134SAPE   H8Y14531   4.846   0.957   9.236 -0.4327 -0.1198 -1.4745
  134SAPE   C3914532   4.968   1.106   9.125 -0.6795 -0.4741 -0.0769
  134SAPE   H9X14533   5.071   1.070   9.107 -1.2466 -2.5575  0.5643
  134SAPE   H9Y14534   4.966   1.215   9.146 -0.6919 -0.9585  2.8499
  134SAPE  C31014535   4.894   1.060   9.001 -0.1095 -0.9280  0.3912
  134SAPE  H10X14536   4.786   1.052   9.023 -0.1270  1.2169  1.3956
  134SAPE  H10Y14537   4.932   0.958   8.979  0.3144 -0.7687  0.3651
  134SAPE  C31114538   4.926   1.148   8.880 -0.2245  0.1464 -0.0173
  134SAPE  H11X14539   5.025   1.110   8.845 -1.5556 -2.6465 -1.0798
  134SAPE  H11Y14540   4.927   1.256   8.906  0.4767  1.0554 -3.3773
  134SAPE  C31214541   4.818   1.134   8.768  0.1389 -0.4656 -0.7357
  134SAPE  H12X14542   4.723   1.166   8.816  0.2847 -0.3441 -0.5250
  134SAPE  H12Y14543   4.810   1.027   8.738 -1.8907  0.0351 -2.2004
  134SAPE  C31314544   4.842   1.219   8.651  0.3255 -0.4466 -0.1037
  134SAPE  H13X14545   4.938   1.196   8.598  0.6135  0.2038  0.1233
  134SAPE  H13Y14546   4.847   1.326   8.681  3.8698 -0.0821 -1.4509
  134SAPE  C31414547   4.726   1.200   8.550 -0.4898  0.2828 -0.9436
  134SAPE  H14X14548   4.628   1.206   8.601 -1.2714 -0.8616 -2.2429
  134SAPE  H14Y14549   4.740   1.095   8.515 -0.5885 -0.3062  0.6817
  134SAPE  C31514550   4.710   1.308   8.444 -0.7337 -0.3360 -0.1291
  134SAPE  H15X14551   4.786   1.292   8.365  1.8657 -0.9917  2.3210
  134SAPE  H15Y14552   4.729   1.407   8.491 -0.5304  0.1397 -1.1879
  134SAPE  C31614553   4.563   1.302   8.391 -0.0364 -0.0050 -0.1603
  134SAPE  H16X14554   4.500   1.304   8.482  0.1164 -0.6664 -0.0314
  134SAPE  H16Y14555   4.551   1.207   8.334 -1.3303  0.3599 -0.5179
  134SAPE  C31714556   4.530   1.417   8.298  0.1015 -0.3534  0.2691
  134SAPE  H17X14557   4.609   1.414   8.220 -0.6887  1.6056 -0.6743
  134SAPE  H17Y14558   4.540   1.518   8.345  2.6855 -0.1708 -0.5048
  134SAPE  C31814559   4.393   1.404   8.236 -0.3726  0.8194  0.0323
  134SAPE  H18X14560   4.370   1.323   8.163 -0.0600  1.8678 -1.2754
  134SAPE  H18Y14561   4.379   1.490   8.168  1.0966  0.5436 -0.6566
  134SAPE  H18Z14562   4.307   1.412   8.306  0.2199 -1.3896  1.1100
  135SAPE     N14563   0.360   5.229  10.631  0.0564 -0.3791 -0.2419
  135SAPE   HN114564   0.316   5.160  10.695 -2.1247  0.0434 -1.1842
  135SAPE   HN214565   0.443   5.272  10.676  0.0952  0.3779 -0.9950
  135SAPE   HN314566   0.288   5.304  10.623 -0.8047 -1.3318 -1.9106
  135SAPE   C1214567   0.394   5.179  10.493 -0.2173  0.5004 -0.4364
  135SAPE  H12A14568   0.472   5.100  10.502 -1.0249 -0.1829  0.8992
  135SAPE  H12B14569   0.444   5.259  10.434 -0.3975  0.7590 -0.2392
  135SAPE   C1114570   0.279   5.127  10.403  0.4100 -0.1436  0.0015
  135SAPE  H11A14571   0.307   5.079  10.307 -1.8639  1.5952 -1.6229
  135SAPE  H11B14572   0.232   5.222  10.370  0.7575  0.1051  0.2312
  135SAPE     P14573   0.176   4.885  10.488  0.3014  0.0355 -0.1122
  135SAPE   O1314574   0.313   4.834  10.512  0.9041  0.6133 -0.6549
  135SAPE   O1414575   0.081   4.860  10.602 -0.3097 -0.5220  1.1194
  135SAPE   O1214576   0.192   5.045  10.475 -0.3369 -0.0567 -0.2168
  135SAPE   O1114577   0.125   4.834  10.353 -0.7110 -0.1755  0.1981
  135SAPE    C114578   0.011   4.892  10.286 -0.3921  0.5608 -0.3478
  135SAPE    HA14579  -0.014   4.993  10.326 -3.1961 -0.4403  0.6777
  135SAPE    HB14580   0.047   4.902  10.181  0.7763  0.6043  0.0378
  135SAPE    C214581  -0.127   4.812  10.300 -0.4582 -0.1019 -0.2653
  135SAPE    HS14582  -0.152   4.820  10.408 -0.9816  0.8782 -0.4508
  135SAPE   O2114583  -0.106   4.678  10.256  0.0860 -0.2751  0.1896
  135SAPE   C2114584  -0.202   4.595  10.275  0.4924  0.8804  0.3624
  135SAPE   O2214585  -0.298   4.623  10.346  0.1548 -0.4061 -0.1115
  135SAPE   C2214586  -0.169   4.464  10.192  0.9343  0.0889 -0.3328
  135SAPE   H2R14587  -0.069   4.425  10.219  1.4423  1.9754  0.6263
  135SAPE   H2S14588  -0.251   4.394  10.219  0.3122  1.2980  1.0388
  135SAPE    C314589  -0.232   4.887  10.209 -0.9130  0.4878  0.3358
  135SAPE    HX14590  -0.238   4.990  10.250  1.7027  1.4012 -1.3731
  135SAPE    HY14591  -0.330   4.836  10.225  0.5076 -1.6884  3.0369
  135SAPE   O3114592  -0.189   4.903  10.068  0.4489 -0.5671 -0.9116
  135SAPE   C3114593  -0.248   4.844   9.969  0.3441 -0.8812 -0.3037
  135SAPE   O3214594  -0.352   4.778   9.981  0.2020  0.2773  0.1641
  135SAPE   C3214595  -0.181   4.877   9.842 -0.3900  0.3463 -0.1119
  135SAPE   H2X14596  -0.071   4.861   9.846 -0.2198  0.1262 -3.1483
  135SAPE   H2Y14597  -0.197   4.986   9.823 -1.4270 -0.0253 -1.5284
  135SAPE   C2314598  -0.188   4.489  10.041  0.0875 -0.3403  0.0645
  135SAPE   H3R14599  -0.274   4.558  10.027 -0.4918 -1.3685 -1.8369
  135SAPE   H3S14600  -0.214   4.392   9.994  0.2626 -0.0067 -0.7374
  135SAPE   C2414601  -0.067   4.568   9.979  1.1991 -0.2254  0.1429
  135SAPE   H4R14602  -0.022   4.643  10.047  0.9575  0.4522 -0.4239
  135SAPE   H4S14603  -0.115   4.615   9.889 -0.3750 -2.3732 -0.2133
  135SAPE   C2514604   0.042   4.476   9.952  0.4709 -0.0178  0.6911
  135SAPE   H5R14605   0.086   4.424  10.039  2.2661 -0.5322 -0.4617
  135SAPE   C2614606   0.085   4.442   9.829 -0.5019 -0.0781  0.4298
  135SAPE   H6R14607   0.158   4.360   9.824  1.0298  1.0873  2.4191
  135SAPE   C2714608   0.021   4.487   9.696  0.1347  0.1881  0.6712
  135SAPE   H7R14609  -0.045   4.575   9.710  2.8395  2.2608  1.2200
  135SAPE   H7S14610  -0.045   4.406   9.657 -0.8202  1.8429 -1.3553
  135SAPE   C2814611   0.118   4.517   9.585 -0.8943 -0.0851 -0.1666
  135SAPE   H8R14612   0.163   4.616   9.589 -1.4674  0.4556 -3.6498
  135SAPE   C2914613   0.149   4.445   9.474  0.0735  0.5720 -0.5435
  135SAPE   H9R14614   0.236   4.470   9.412  0.7825 -1.4453 -0.4322
  135SAPE  C21014615   0.100   4.311   9.432  0.1963  0.0464 -0.0372
  135SAPE  H10R14616   0.089   4.246   9.522  0.5692  0.8004  0.5587
  135SAPE  H10S14617   0.175   4.250   9.378  2.6355  1.9513  1.0220
  135SAPE  C21114618  -0.021   4.302   9.346 -0.0907  0.3864  0.3327
  135SAPE  H11R14619  -0.109   4.256   9.393  0.4459 -1.3857 -0.2962
  135SAPE  C21214620  -0.033   4.347   9.222  0.1001 -0.1238 -0.2357
  135SAPE  H12R14621  -0.120   4.322   9.160  1.1928  0.5497 -2.1401
  135SAPE  C21314622   0.068   4.413   9.133 -0.6772  0.3068  0.4278
  135SAPE  H13R14623   0.150   4.452   9.197  0.6801 -2.4326  0.4975
  135SAPE  H13S14624   0.017   4.500   9.085 -2.2286 -0.1659  1.1457
  135SAPE  C21414625   0.123   4.316   9.030  0.4687  0.2615  0.7201
  135SAPE  H14R14626   0.225   4.276   9.038  0.3947 -0.4424 -1.3289
  135SAPE  C21514627   0.061   4.258   8.926 -0.2223 -0.2898 -0.3947
  135SAPE  H15R14628   0.123   4.194   8.862 -1.0245 -1.6412  0.1344
  135SAPE  C21614629  -0.081   4.292   8.888 -0.8048  0.1707 -0.6449
  135SAPE  H16R14630  -0.085   4.326   8.782 -0.0979 -0.0617 -0.7547
  135SAPE  H16S14631  -0.127   4.377   8.942 -0.0387  1.1556 -1.4775
  135SAPE  C21714632  -0.168   4.165   8.900 -0.4447 -0.1403  1.0649
  135SAPE  H17R14633  -0.268   4.200   8.868  0.0612 -1.0427 -1.7390
  135SAPE  H17S14634  -0.169   4.133   9.007 -0.2198  0.0930  1.1369
  135SAPE  C21814635  -0.116   4.052   8.809 -0.3664  0.3640  0.6318
  135SAPE  H18R14636  -0.014   4.017   8.836  0.3099  1.7450  0.0081
  135SAPE  H18S14637  -0.110   4.099   8.708 -2.4857 -0.8154 -0.0945
  135SAPE  C21914638  -0.206   3.930   8.801  0.1596 -0.0069  0.2309
  135SAPE  H19R14639  -0.210   3.868   8.893  1.1314 -1.4948 -0.7014
  135SAPE  H19S14640  -0.164   3.861   8.726  2.2182 -0.0813  1.3885
  135SAPE  C22014641  -0.350   3.975   8.764 -0.2058 -1.0008  0.4698
  135SAPE  H20R14642  -0.408   4.012   8.852 -0.4801 -2.0405  0.7440
  135SAPE  H20S14643  -0.411   3.901   8.708 -0.0012  0.1125 -1.2826
  135SAPE  H20T14644  -0.352   4.059   8.691 -1.4065 -0.9100  0.5951
  135SAPE   C3314645  -0.240   4.803   9.718 -0.5546 -0.1366 -0.6428
  135SAPE   H3X14646  -0.346   4.835   9.703 -0.5645  0.3596  0.4194
  135SAPE   H3Y14647  -0.249   4.692   9.731 -1.2677  0.1060  1.3890
  135SAPE   C3414648  -0.154   4.824   9.594  0.9532 -0.7008 -0.4089
  135SAPE   H4X14649  -0.085   4.738   9.608 -0.8829 -2.0422  0.9174
  135SAPE   H4Y14650  -0.102   4.922   9.587 -0.7324  0.1255 -3.0201
  135SAPE   C3514651  -0.223   4.824   9.456  0.0831  0.4709 -0.4631
  135SAPE   H5X14652  -0.320   4.878   9.448 -0.4318 -0.5044 -0.8594
  135SAPE   H5Y14653  -0.246   4.716   9.446 -1.8657  0.8722 -0.6924
  135SAPE   C3614654  -0.127   4.861   9.345 -0.9315 -0.0888 -0.5989
  135SAPE   H6X14655  -0.040   4.793   9.343  1.0537  2.1578  2.1410
  135SAPE   H6Y14656  -0.094   4.967   9.353  2.8386 -1.2242  0.5406
  135SAPE   C3714657  -0.197   4.856   9.210  0.1923  0.0173 -0.1538
  135SAPE   H7X14658  -0.302   4.890   9.225  0.1197  0.3519 -1.3300
  135SAPE   H7Y14659  -0.202   4.746   9.196 -0.3351 -0.2203  1.6455
  135SAPE   C3814660  -0.130   4.937   9.103  0.2700 -0.3035 -0.2343
  135SAPE   H8X14661  -0.024   4.904   9.106  0.2685 -0.2244  1.6517
  135SAPE   H8Y14662  -0.126   5.042   9.138 -0.8331 -0.2464 -0.2438
  135SAPE   C3914663  -0.184   4.896   8.968 -0.1692  0.2810 -0.0463
  135SAPE   H9X14664  -0.294   4.912   8.958 -0.8277 -3.5939 -0.5765
  135SAPE   H9Y14665  -0.177   4.785   8.961  0.8408  0.1196  2.5216
  135SAPE  C31014666  -0.110   4.963   8.843  0.1906 -0.4033 -0.3574
  135SAPE  H10X14667  -0.000   4.944   8.847 -0.0002 -1.6023 -0.4757
  135SAPE  H10Y14668  -0.139   5.070   8.837  1.1615 -0.0988  0.0800
  135SAPE  C31114669  -0.153   4.909   8.706 -0.0301 -0.1750  0.4302
  135SAPE  H11X14670  -0.263   4.900   8.713 -0.2471 -1.2516 -2.9219
  135SAPE  H11Y14671  -0.112   4.808   8.686  2.2794  0.9565 -0.8808
  135SAPE  C31214672  -0.113   5.009   8.586  0.1361  0.3655 -0.2025
  135SAPE  H12X14673  -0.197   5.081   8.583 -0.6514 -0.5195  0.1497
  135SAPE  H12Y14674  -0.119   4.958   8.487  2.3666  2.0120 -1.2736
  135SAPE  C31314675   0.008   5.096   8.601  0.6840  0.4701 -0.4874
  135SAPE  H13X14676   0.097   5.030   8.612 -1.1413 -2.1493 -0.3744
  135SAPE  H13Y14677   0.007   5.168   8.685 -2.3823  0.4389 -0.3744
  135SAPE  C31414678   0.033   5.189   8.474  0.1245  0.7121  0.8165
  135SAPE  H14X14679   0.038   5.126   8.383  1.5850 -1.6324  2.3977
  135SAPE  H14Y14680   0.129   5.244   8.483 -0.1661  1.2796  0.5076
  135SAPE  C31514681  -0.073   5.301   8.453  0.1430  0.0293 -0.2548
  135SAPE  H15X14682  -0.047   5.388   8.516 -0.4356  1.4159 -1.8440
  135SAPE  H15Y14683  -0.174   5.259   8.474  0.0968 -0.7039 -1.7427
  135SAPE  C31614684  -0.064   5.359   8.308 -0.0212  0.1906  1.1116
  135SAPE  H16X14685  -0.058   5.279   8.232 -2.9348  0.4104  0.5584
  135SAPE  H16Y14686   0.030   5.419   8.305 -0.5479  0.9777 -0.1881
  135SAPE  C31714687  -0.182   5.452   8.269 -0.0302  0.1696  0.2488
  135SAPE  H17X14688  -0.174   5.551   8.319 -1.7698  0.6492 -0.3296
  135SAPE  H17Y14689  -0.281   5.411   8.297  0.4157  0.4483  2.4180
  135SAPE  C31814690  -0.180   5.471   8.116 -0.0508  0.4437  0.1747
  135SAPE  H18X14691  -0.269   5.532   8.090  0.0569  1.2824  1.6763
  135SAPE  H18Y14692  -0.180   5.375   8.059 -1.2000  0.8109 -0.4807
  135SAPE  H18Z14693  -0.094   5.535   8.087 -0.2344  1.0707  0.9675
  136SAPE     N14694   1.959   4.180  11.226 -0.0717 -0.1171 -0.1760
  136SAPE   HN114695   2.055   4.216  11.245 -0.2860 -0.2898  1.3584
  136SAPE   HN214696   1.906   4.261  11.188 -0.3707 -0.1909  0.0824
  136SAPE   HN314697   1.908   4.164  11.315 -0.6880 -2.8421 -0.9258
  136SAPE   C1214698   1.974   4.075  11.125 -0.0894 -0.7071  0.2907
  136SAPE  H12A14699   1.879   4.017  11.114  0.3652 -1.1423 -1.9290
  136SAPE  H12B14700   2.056   4.006  11.153  3.0934  1.9121 -1.8694
  136SAPE   C1114701   2.017   4.147  10.996  0.5913  0.1138  0.1691
  136SAPE  H11A14702   1.929   4.204  10.959  1.1177 -0.8315 -2.7576
  136SAPE  H11B14703   2.046   4.080  10.912  2.4536 -1.4883  1.9836
  136SAPE     P14704   2.145   4.360  10.933  0.1567  0.0180 -0.0840
  136SAPE   O1314705   2.027   4.449  10.934 -0.3025  0.1972  0.0814
  136SAPE   O1414706   2.278   4.423  10.967  0.3812  0.2052 -0.3680
  136SAPE   O1214707   2.122   4.231  11.016 -0.4523 -0.1980  0.3981
  136SAPE   O1114708   2.154   4.304  10.791 -0.5075 -0.3453 -0.1941
  136SAPE    C114709   2.085   4.325  10.671 -0.3986 -0.7078  0.3308
  136SAPE    HA14710   2.004   4.399  10.689 -0.8583 -0.9721 -0.5998
  136SAPE    HB14711   2.146   4.374  10.592  0.1703  2.1703  2.4137
  136SAPE    C214712   2.025   4.191  10.618  0.4556  0.7950  0.8176
  136SAPE    HS14713   1.986   4.127  10.699 -2.0265  0.6827 -0.3620
  136SAPE   O2114714   2.127   4.114  10.552 -0.0439  0.1651  0.3865
  136SAPE   C2114715   2.200   4.021  10.611  0.4464 -0.3171  0.0046
  136SAPE   O2214716   2.187   3.985  10.725 -0.2727 -0.3171 -0.2956
  136SAPE   C2214717   2.302   3.976  10.501  0.6818 -0.1885  0.0484
  136SAPE   H2R14718   2.255   3.889  10.451 -1.5788  0.4256  0.9970
  136SAPE   H2S14719   2.316   4.058  10.428  1.5772 -1.8563 -1.7591
  136SAPE    C314720   1.918   4.212  10.507  0.3871  0.3165 -0.8955
  136SAPE    HX14721   1.836   4.268  10.556 -0.3188 -0.6097 -0.9978
  136SAPE    HY14722   1.866   4.126  10.462 -0.3541  0.5254 -0.4515
  136SAPE   O3114723   1.975   4.285  10.390  0.6208 -0.1045  0.0780
  136SAPE   C3114724   2.006   4.217  10.283  0.0649  0.5252  0.1004
  136SAPE   O3214725   1.996   4.095  10.263  0.0578 -0.7961 -0.1907
  136SAPE   C3214726   2.057   4.320  10.178 -0.2735  0.2774 -0.4289
  136SAPE   H2X14727   2.144   4.368  10.229 -1.2370  1.5010  0.1198
  136SAPE   H2Y14728   1.969   4.388  10.172 -1.6230 -1.3110  0.4856
  136SAPE   C2314729   2.430   3.928  10.565 -0.4525 -0.0365 -0.3726
  136SAPE   H3R14730   2.407   3.859  10.649  0.5198  3.4778  3.0973
  136SAPE   H3S14731   2.477   4.018  10.611  0.0069 -0.4138 -0.0966
  136SAPE   C2414732   2.533   3.869  10.471  0.3851 -0.8624 -0.0782
  136SAPE   H4R14733   2.633   3.889  10.514 -0.3317  1.1067  0.8128
  136SAPE   H4S14734   2.532   3.920  10.373 -3.9196 -3.1806 -1.5173
  136SAPE   C2514735   2.514   3.722  10.451  0.8038 -0.1883  0.5485
  136SAPE   H5R14736   2.556   3.664  10.534 -0.5160 -1.1400  0.5949
  136SAPE   C2614737   2.447   3.659  10.352  0.2444 -0.6413 -0.3625
  136SAPE   H6R14738   2.463   3.550  10.354  1.7147 -0.4353  0.1386
  136SAPE   C2714739   2.374   3.721  10.237  0.4952 -0.6631  0.4462
  136SAPE   H7R14740   2.368   3.830  10.254  1.0026 -0.3615 -1.1588
  136SAPE   H7S14741   2.271   3.680  10.239  0.1735  0.0867 -0.4016
  136SAPE   C2814742   2.435   3.680  10.098 -0.1721  0.2599  0.4681
  136SAPE   H8R14743   2.360   3.619  10.046 -0.5166  0.1996  1.0313
  136SAPE   C2914744   2.562   3.697  10.051  0.3337 -0.8691 -0.2673
  136SAPE   H9R14745   2.594   3.677   9.948 -1.6664 -3.2272 -0.5103
  136SAPE  C21014746   2.667   3.775  10.125  0.8150 -0.2088  0.6160
  136SAPE  H10R14747   2.634   3.825  10.218  0.4238  0.2868  0.2151
  136SAPE  H10S14748   2.691   3.854  10.051  2.2837 -1.1133  0.0678
  136SAPE  C21114749   2.787   3.684  10.152 -0.1551  0.0319 -0.4143
  136SAPE  H11R14750   2.782   3.625  10.244  0.4906 -0.9350 -0.9756
  136SAPE  C21214751   2.910   3.691  10.098 -0.1515 -0.4815 -0.3069
  136SAPE  H12R14752   2.992   3.627  10.134 -0.3326  0.7526  2.6459
  136SAPE  C21314753   2.950   3.782   9.983 -0.4209 -0.0476  0.2880
  136SAPE  H13R14754   3.050   3.823  10.009 -0.6122  0.8840 -0.4039
  136SAPE  H13S14755   2.883   3.870   9.980 -1.8000 -1.0700  0.3638
  136SAPE  C21414756   2.952   3.704   9.852  0.2901 -0.1179  0.5308
  136SAPE  H14R14757   2.868   3.635   9.838 -2.1155  2.9306 -1.5997
  136SAPE  C21514758   3.019   3.747   9.735 -0.4870 -0.0409  0.0601
  136SAPE  H15R14759   2.986   3.699   9.641  0.5897  3.2233 -2.1661
  136SAPE  C21614760   3.111   3.868   9.729 -0.5454  0.3183 -0.3820
  136SAPE  H16R14761   3.216   3.833   9.720 -0.5483 -0.1374  1.0961
  136SAPE  H16S14762   3.110   3.934   9.819 -0.8991 -0.1075 -0.0728
  136SAPE  C21714763   3.090   3.966   9.607  0.4229  0.2999 -0.5819
  136SAPE  H17R14764   3.001   4.028   9.630  2.3577  2.5835  1.1996
  136SAPE  H17S14765   3.047   3.897   9.531 -2.1977  0.7096  0.4324
  136SAPE  C21814766   3.218   4.046   9.573 -0.4549 -0.1998 -0.0905
  136SAPE  H18R14767   3.309   3.983   9.576 -0.1207  0.2955  0.1798
  136SAPE  H18S14768   3.240   4.119   9.653  2.2728 -0.0867 -0.8511
  136SAPE  C21914769   3.211   4.123   9.440 -0.3798  0.3181 -0.0811
  136SAPE  H19R14770   3.313   4.164   9.422  0.1193 -1.3603 -1.2848
  136SAPE  H19S14771   3.131   4.197   9.460 -1.0627 -0.8922  1.9948
  136SAPE  C22014772   3.162   4.035   9.321 -0.3145 -0.5669  0.4870
  136SAPE  H20R14773   3.217   3.941   9.299 -0.3702 -0.4114 -0.3690
  136SAPE  H20S14774   3.164   4.082   9.220  0.5126 -1.1046  0.2357
  136SAPE  H20T14775   3.059   3.994   9.331 -0.6483  0.1790  0.1527
  136SAPE   C3314776   2.094   4.254  10.050  0.0719  0.8240  0.5994
  136SAPE   H3X14777   2.044   4.158  10.027  1.5330  0.0093  0.7301
  136SAPE   H3Y14778   2.198   4.217  10.044 -0.5063 -0.6610 -2.0771
  136SAPE   C3414779   2.070   4.350   9.935 -0.8215  0.7953  0.4498
  136SAPE   H4X14780   2.109   4.451   9.959  0.0824  1.0785 -1.8941
  136SAPE   H4Y14781   1.962   4.364   9.916 -0.5043  0.1220 -2.3332
  136SAPE   C3514782   2.125   4.299   9.797  0.3938  0.2254  0.0229
  136SAPE   H5X14783   2.084   4.196   9.793 -1.3634  0.8258  1.2269
  136SAPE   H5Y14784   2.235   4.286   9.797  0.4746  0.8618  0.0644
  136SAPE   C3614785   2.078   4.372   9.667  0.4050 -0.1681 -0.5045
  136SAPE   H6X14786   2.105   4.478   9.690 -1.5917  0.0945  0.9915
  136SAPE   H6Y14787   1.967   4.373   9.656  0.2099  1.4767  1.0648
  136SAPE   C3714788   2.140   4.319   9.543  0.4636 -0.4011  0.0577
  136SAPE   H7X14789   2.122   4.210   9.542  1.5078 -0.5822  0.2129
  136SAPE   H7Y14790   2.248   4.330   9.522  0.1822  1.5124 -0.5986
  136SAPE   C3814791   2.078   4.397   9.424 -0.4088  0.6747 -0.4332
  136SAPE   H8X14792   2.118   4.501   9.427  0.5423  0.3169 -0.3094
  136SAPE   H8Y14793   1.967   4.395   9.425 -0.4832  1.8894  2.4133
  136SAPE   C3914794   2.115   4.327   9.293 -0.0311 -0.5371 -0.2101
  136SAPE   H9X14795   2.069   4.227   9.276 -0.1947 -0.1691 -2.2377
  136SAPE   H9Y14796   2.225   4.315   9.288  0.1931  1.4508 -0.8928
  136SAPE  C31014797   2.082   4.410   9.169 -0.1569 -0.4737  0.2807
  136SAPE  H10X14798   2.158   4.491   9.167  0.4058 -0.9713  0.8782
  136SAPE  H10Y14799   1.979   4.450   9.177 -0.2495 -0.4964 -0.7168
  136SAPE  C31114800   2.086   4.323   9.043 -0.7390 -0.4523  0.5300
  136SAPE  H11X14801   2.031   4.384   8.968  1.1758  0.3711 -0.2779
  136SAPE  H11Y14802   2.034   4.227   9.064  0.6482 -1.1509  0.8927
  136SAPE  C31214803   2.222   4.313   8.999  0.3368 -0.3922 -0.3220
  136SAPE  H12X14804   2.279   4.236   9.055  1.7502 -0.3085 -1.5715
  136SAPE  H12Y14805   2.278   4.409   8.989  2.4596 -1.4437  0.7753
  136SAPE  C31314806   2.215   4.267   8.857  0.3467  0.5068  0.6665
  136SAPE  H13X14807   2.171   4.331   8.777 -1.0615 -1.6309 -0.3755
  136SAPE  H13Y14808   2.143   4.182   8.859  1.7890 -0.7846  0.1531
  136SAPE  C31414809   2.359   4.231   8.804 -0.1384  0.6467  0.0841
  136SAPE  H14X14810   2.373   4.121   8.812  2.2644  0.8444 -0.7183
  136SAPE  H14Y14811   2.440   4.286   8.857  0.9749 -0.8568 -0.0009
  136SAPE  C31514812   2.384   4.238   8.653 -0.1248  0.2342 -0.2081
  136SAPE  H15X14813   2.362   4.340   8.616 -0.4114  0.1559 -0.2534
  136SAPE  H15Y14814   2.311   4.169   8.606  1.1576 -1.9474  0.8511
  136SAPE  C31614815   2.530   4.198   8.608 -0.4466  0.7052 -0.1980
  136SAPE  H16X14816   2.536   4.089   8.629  2.2766  1.0262  1.2291
  136SAPE  H16Y14817   2.593   4.255   8.680 -0.7255 -1.8211  2.2499
  136SAPE  C31714818   2.562   4.239   8.462 -0.4694  0.9838  0.4227
  136SAPE  H17X14819   2.539   4.347   8.456 -1.8981  0.6358 -1.0264
  136SAPE  H17Y14820   2.496   4.192   8.386  0.8078  0.0446 -0.1369
  136SAPE  C31814821   2.705   4.218   8.423 -0.1382  0.2693 -0.4576
  136SAPE  H18X14822   2.756   4.249   8.516 -0.5994  0.0376 -0.1251
  136SAPE  H18Y14823   2.740   4.275   8.334  2.3817 -0.3648  0.0440
  136SAPE  H18Z14824   2.712   4.110   8.399 -1.4253 -0.6276  2.7322
  137SAPE     N14825   4.971   2.093  11.113 -0.6185 -0.3104  0.8128
  137SAPE   HN114826   4.876   2.051  11.107 -0.5241 -0.7709  2.2270
  137SAPE   HN214827   5.003   2.088  11.211 -1.4501  2.4960  1.3280
  137SAPE   HN314828   4.979   2.194  11.088 -0.7574 -0.6013 -0.4983
  137SAPE   C1214829   5.061   2.017  11.026  0.0200  0.5675 -0.2986
  137SAPE  H12A14830   5.031   1.911  11.030 -0.4901  0.7409  1.7198
  137SAPE  H12B14831   5.162   2.019  11.073 -1.5135  0.7958  3.3134
  137SAPE   C1114832   5.064   2.064  10.873 -0.4954  0.2404 -0.0043
  137SAPE  H11A14833   4.959   2.045  10.840 -1.2441  0.2759  2.1910
  137SAPE  H11B14834   5.140   2.006  10.818  1.0887  1.1943  1.0960
  137SAPE     P14835   5.242   2.248  10.823  0.1228  0.2773  0.1340
  137SAPE   O1314836   5.240   2.397  10.809  0.1048  0.1031  0.3704
  137SAPE   O1414837   5.332   2.202  10.925  0.4978  0.1599 -0.5991
  137SAPE   O1214838   5.095   2.205  10.871 -0.4061 -0.1539  0.5855
  137SAPE   O1114839   5.280   2.174  10.683 -0.1421 -0.4778  0.5180
  137SAPE    C114840   5.188   2.146  10.568 -0.0059 -0.3528 -0.5631
  137SAPE    HA14841   5.208   2.042  10.534 -0.0007 -0.1718 -1.1202
  137SAPE    HB14842   5.084   2.150  10.607 -0.0078  1.2246 -0.6775
  137SAPE    C214843   5.212   2.252  10.458  0.9538  0.6284  0.0733
  137SAPE    HS14844   5.220   2.352  10.506  1.7094  1.1294 -1.0629
  137SAPE   O2114845   5.105   2.252  10.363 -0.0220  0.1711 -0.4667
  137SAPE   C2114846   4.996   2.318  10.396  0.7155  1.1678 -0.7770
  137SAPE   O2214847   4.969   2.361  10.508  0.6520  0.2408 -0.2810
  137SAPE   C2214848   4.898   2.314  10.281  0.4047  0.3034  0.1423
  137SAPE   H2R14849   4.918   2.225  10.218  0.8820  0.7730 -0.3714
  137SAPE   H2S14850   4.793   2.311  10.319  0.0049 -0.4568 -0.9768
  137SAPE    C314851   5.341   2.215  10.383  0.3080 -0.1308  0.8345
  137SAPE    HX14852   5.326   2.113  10.342 -1.5864  1.5193 -3.2306
  137SAPE    HY14853   5.420   2.216  10.460  3.8149  0.4300 -2.4603
  137SAPE   O3114854   5.345   2.306  10.277 -0.3808 -0.0988 -0.1227
  137SAPE   C3114855   5.448   2.390  10.264  0.7006 -0.0120  0.3029
  137SAPE   O3214856   5.532   2.412  10.349 -0.0002 -0.7466 -0.2455
  137SAPE   C3214857   5.426   2.466  10.136 -0.2251  0.1958  0.0314
  137SAPE   H2X14858   5.322   2.454  10.098 -0.7561 -2.0909  1.9975
  137SAPE   H2Y14859   5.498   2.422  10.064  2.0427  1.8628  1.1472
  137SAPE   C2314860   4.912   2.449  10.202  0.1088 -0.0921  0.8631
  137SAPE   H3R14861   5.010   2.498  10.222  0.4041 -0.7080  0.9223
  137SAPE   H3S14862   4.839   2.528  10.232  1.1607  0.8334  1.0641
  137SAPE   C2414863   4.905   2.408  10.052 -0.1020  0.0246  1.0166
  137SAPE   H4R14864   4.817   2.344  10.030  0.6568 -0.0975 -2.2629
  137SAPE   H4S14865   4.999   2.353  10.031  0.9872  1.5463  1.7044
  137SAPE   C2514866   4.907   2.528   9.958 -0.2187  0.4738 -0.8042
  137SAPE   H5R14867   4.832   2.607   9.971 -0.6393 -0.0614  0.1140
  137SAPE   C2614868   4.990   2.547   9.852  0.0166  0.2265  0.3709
  137SAPE   H6R14869   4.966   2.634   9.790 -0.5463 -0.2175 -0.0562
  137SAPE   C2714870   5.105   2.468   9.788 -0.4670  0.9211  0.2356
  137SAPE   H7R14871   5.068   2.365   9.764 -2.9408  1.6923  0.4954
  137SAPE   H7S14872   5.186   2.455   9.862  0.7867  1.6907 -0.9569
  137SAPE   C2814873   5.169   2.540   9.669 -0.1203  0.1701 -0.3536
  137SAPE   H8R14874   5.230   2.627   9.697 -1.2066  1.1488 -0.8995
  137SAPE   C2914875   5.158   2.510   9.534  0.4445  1.4499 -0.3078
  137SAPE   H9R14876   5.205   2.574   9.458  0.1178  2.7244  0.5268
  137SAPE  C21014877   5.065   2.395   9.477  0.7024  0.1870 -0.0017
  137SAPE  H10R14878   5.086   2.308   9.543 -0.5574  0.4249  0.7409
  137SAPE  H10S14879   5.107   2.376   9.376  0.5542  2.5761 -0.5679
  137SAPE  C21114880   4.919   2.431   9.470 -0.0678  0.5808  0.2606
  137SAPE  H11R14881   4.863   2.403   9.560  0.9538 -0.0550  0.7086
  137SAPE  C21214882   4.850   2.479   9.362  0.4967  0.3142  0.2369
  137SAPE  H12R14883   4.743   2.490   9.387 -0.0698  2.8479 -2.6258
  137SAPE  C21314884   4.894   2.508   9.216  0.7813  0.2923  0.3384
  137SAPE  H13R14885   4.992   2.458   9.199 -0.2197 -1.1223 -1.7864
  137SAPE  H13S14886   4.904   2.618   9.218 -4.1504  1.0532 -2.1339
  137SAPE  C21414887   4.796   2.461   9.105 -0.7759  0.6349 -0.0651
  137SAPE  H14R14888   4.753   2.360   9.110  0.3774  0.1641  0.7145
  137SAPE  C21514889   4.738   2.546   9.019 -0.2623 -0.1304 -0.1088
  137SAPE  H15R14890   4.670   2.505   8.943 -0.1110 -1.0310  0.2318
  137SAPE  C21614891   4.760   2.696   9.001  0.5220  0.0669 -0.2916
  137SAPE  H16R14892   4.837   2.730   9.074  1.0391  0.0068 -0.8017
  137SAPE  H16S14893   4.662   2.746   9.008 -0.0638 -1.0271 -0.3994
  137SAPE  C21714894   4.810   2.733   8.860  0.4072  0.3913 -0.7035
  137SAPE  H17R14895   4.797   2.843   8.855  1.4968  0.6240  1.0743
  137SAPE  H17S14896   4.744   2.684   8.784 -0.1702  0.9067 -0.5424
  137SAPE  C21814897   4.963   2.709   8.825  0.0050  0.1411  0.4375
  137SAPE  H18R14898   4.985   2.608   8.864 -2.0673 -0.5079  0.0436
  137SAPE  H18S14899   5.034   2.771   8.884  2.0542 -0.9858 -0.7211
  137SAPE  C21914900   5.006   2.723   8.675 -0.5335 -0.0137 -0.2094
  137SAPE  H19R14901   4.978   2.824   8.638  0.2428  0.1602 -0.3248
  137SAPE  H19S14902   4.951   2.654   8.607  0.4686 -2.6189  1.4599
  137SAPE  C22014903   5.156   2.697   8.657 -0.2104  0.4055  0.4018
  137SAPE  H20R14904   5.190   2.724   8.554 -1.1703  2.9323  0.6741
  137SAPE  H20S14905   5.173   2.588   8.669  0.3636  0.4439  0.0051
  137SAPE  H20T14906   5.220   2.751   8.730  0.4177  0.5013 -0.2055
  137SAPE   C3314907   5.454   2.617  10.159  0.5171  0.1261  0.1643
  137SAPE   H3X14908   5.554   2.635  10.204  1.0592 -2.4686  0.1496
  137SAPE   H3Y14909   5.368   2.655  10.219 -0.3166 -1.9400  0.3837
  137SAPE   C3414910   5.453   2.693  10.020 -0.3202  0.4669  0.4192
  137SAPE   H4X14911   5.356   2.666   9.973  0.5041  1.6329 -2.1054
  137SAPE   H4Y14912   5.542   2.671   9.957 -0.8895  1.5503 -0.8172
  137SAPE   C3514913   5.467   2.848  10.034 -0.0192  0.5079 -0.2537
  137SAPE   H5X14914   5.542   2.867  10.114 -2.1332 -2.7864  2.8472
  137SAPE   H5Y14915   5.367   2.866  10.080 -0.2614 -1.1485 -0.0602
  137SAPE   C3614916   5.482   2.941   9.916  0.0799  0.4558  0.1299
  137SAPE   H6X14917   5.575   2.912   9.863  0.5471  0.7784  0.7642
  137SAPE   H6Y14918   5.472   3.047   9.947 -0.6938  0.2430  0.6314
  137SAPE   C3714919   5.363   2.936   9.813 -0.6243  1.5722  0.2327
  137SAPE   H7X14920   5.265   2.971   9.851 -1.2876  1.0472 -0.9176
  137SAPE   H7Y14921   5.350   2.826   9.805  0.6018  1.3311  1.3057
  137SAPE   C3814922   5.386   2.985   9.673  0.0947 -0.0434  0.5023
  137SAPE   H8X14923   5.494   3.000   9.653 -0.6625  3.5632 -1.7610
  137SAPE   H8Y14924   5.333   3.076   9.639 -0.4794 -0.3945  0.4345
  137SAPE   C3914925   5.338   2.890   9.556  0.1813  0.2594 -0.2331
  137SAPE   H9X14926   5.377   2.787   9.567 -1.6280 -0.3489  0.8326
  137SAPE   H9Y14927   5.384   2.923   9.460  0.3832  3.9255  0.9628
  137SAPE  C31014928   5.186   2.888   9.535  0.3313 -0.3238  0.2120
  137SAPE  H10X14929   5.142   2.979   9.582  0.9340 -0.2214  0.5853
  137SAPE  H10Y14930   5.146   2.805   9.597  0.7014 -0.7612 -0.1285
  137SAPE  C31114931   5.142   2.865   9.384  0.3578  0.0605  0.0478
  137SAPE  H11X14932   5.047   2.807   9.381 -1.3546  2.6140  1.1439
  137SAPE  H11Y14933   5.215   2.801   9.331  0.5664  0.2699  0.0806
  137SAPE  C31214934   5.130   3.000   9.316  0.4881 -0.0883 -1.2251
  137SAPE  H12X14935   5.233   3.039   9.333  0.3732 -0.2711 -0.0203
  137SAPE  H12Y14936   5.061   3.069   9.369  0.4134 -0.0542 -1.3673
  137SAPE  C31314937   5.091   2.999   9.165 -1.0060  0.5055  0.0623
  137SAPE  H13X14938   4.997   2.945   9.144 -0.2411 -0.7773 -0.1743
  137SAPE  H13Y14939   5.175   2.943   9.118 -0.0742 -1.7577  3.9333
  137SAPE  C31414940   5.074   3.132   9.099  0.2938 -1.1623 -0.2678
  137SAPE  H14X14941   5.164   3.196   9.114 -0.6692  0.5467 -1.4370
  137SAPE  H14Y14942   5.001   3.195   9.154  0.8568  0.4439 -1.2775
  137SAPE  C31514943   5.028   3.130   8.953  0.0056  0.5312  1.0407
  137SAPE  H15X14944   4.937   3.068   8.937  1.2767 -0.6236 -2.7933
  137SAPE  H15Y14945   5.107   3.095   8.883  1.7916  1.0009  2.7578
  137SAPE  C31614946   4.992   3.265   8.889 -0.1012  0.3072 -0.6523
  137SAPE  H16X14947   5.066   3.347   8.905 -0.3608  0.8347 -1.9896
  137SAPE  H16Y14948   4.899   3.293   8.943  0.1494  0.1439 -0.1318
  137SAPE  C31714949   4.967   3.262   8.736  0.2396  0.2477  0.1191
  137SAPE  H17X14950   5.070   3.241   8.699  0.2722  1.5865 -0.6331
  137SAPE  H17Y14951   4.943   3.363   8.696 -1.2891 -0.2515 -0.2746
  137SAPE  C31814952   4.861   3.168   8.690  0.0576  0.3592 -0.1170
  137SAPE  H18X14953   4.770   3.193   8.749 -0.4062 -1.5202  0.0249
  137SAPE  H18Y14954   4.906   3.075   8.731 -0.4536  0.2251  0.1512
  137SAPE  H18Z14955   4.847   3.175   8.580  1.2855  1.2677 -0.2405
  138SAPE     N14956   5.932   4.290  10.836  0.0256 -0.5354 -0.6611
  138SAPE   HN114957   6.030   4.263  10.814 -0.9076 -1.1986 -4.5891
  138SAPE   HN214958   5.895   4.335  10.750 -1.8002  0.9482  0.8139
  138SAPE   HN314959   5.945   4.363  10.909 -1.5691 -0.9658  0.0992
  138SAPE   C1214960   5.847   4.191  10.906  0.2966  0.1335 -0.2223
  138SAPE  H12A14961   5.762   4.246  10.951  0.3413  1.4212 -1.6103
  138SAPE  H12B14962   5.914   4.140  10.978  2.6196  1.6050 -1.1951
  138SAPE   C1114963   5.798   4.079  10.804 -0.0464 -0.3669 -0.6496
  138SAPE  H11A14964   5.881   4.061  10.733 -0.8193 -0.9666 -1.4311
  138SAPE  H11B14965   5.706   4.112  10.751 -1.3808 -0.2721  1.5994
  138SAPE     P14966   5.798   3.816  10.822 -0.1160  0.1294  0.1069
  138SAPE   O1314967   5.944   3.801  10.826 -0.7293  0.1049 -0.4037
  138SAPE   O1414968   5.721   3.714  10.893  0.0313  0.1396 -0.1223
  138SAPE   O1214969   5.764   3.960  10.876 -0.5291 -0.1792  0.1620
  138SAPE   O1114970   5.733   3.825  10.678  0.6651  0.4190 -0.0066
  138SAPE    C114971   5.602   3.872  10.650 -0.0223 -0.7714  0.0673
  138SAPE    HA14972   5.569   3.940  10.731  0.7439 -1.1635  0.7225
  138SAPE    HB14973   5.614   3.929  10.555 -1.3584 -1.3032 -0.4412
  138SAPE    C214974   5.503   3.757  10.630  0.9670  0.2372  0.4744
  138SAPE    HS14975   5.500   3.702  10.726 -2.5350 -1.1439 -0.2830
  138SAPE   O2114976   5.559   3.662  10.535  0.0617 -0.3082  0.1396
  138SAPE   C2114977   5.490   3.550  10.507  0.3625 -0.7701 -0.0223
  138SAPE   O2214978   5.395   3.513  10.573  0.0072  0.4085 -0.8785
  138SAPE   C2214979   5.548   3.492  10.369  0.2194 -0.5256  0.1419
  138SAPE   H2R14980   5.579   3.583  10.313  0.4879  0.3582  1.6447
  138SAPE   H2S14981   5.647   3.447  10.392  0.1765 -1.3879 -1.2479
  138SAPE    C314982   5.358   3.818  10.602 -0.2634  0.8052  0.0304
  138SAPE    HX14983   5.324   3.861  10.699 -2.5479 -1.5323  0.3769
  138SAPE    HY14984   5.286   3.736  10.582  1.7075 -1.1925  0.7950
  138SAPE   O3114985   5.352   3.928  10.501 -0.1050  0.0499 -0.6582
  138SAPE   C3114986   5.324   3.893  10.379 -0.1846  0.6513 -0.0356
  138SAPE   O3214987   5.294   3.781  10.341 -0.3344 -0.0975  0.3702
  138SAPE   C3214988   5.322   4.014  10.294 -0.4264  0.5036  0.5845
  138SAPE   H2X14989   5.404   4.083  10.326  0.4480 -0.4183  0.3765
  138SAPE   H2Y14990   5.231   4.069  10.326  0.3492  2.3093 -0.1294
  138SAPE   C2314991   5.458   3.416  10.281  0.1762 -0.5308  0.2739
  138SAPE   H3R14992   5.359   3.466  10.281 -0.1009 -1.0712  1.3122
  138SAPE   H3S14993   5.435   3.318  10.328 -2.0197  0.4982  1.5187
  138SAPE   C2414994   5.500   3.406  10.131 -0.2650 -0.8396  0.1594
  138SAPE   H4R14995   5.602   3.361  10.139  0.0213 -0.5227 -1.4311
  138SAPE   H4S14996   5.510   3.513  10.103 -1.3013 -0.7452  0.1141
  138SAPE   C2514997   5.398   3.325  10.062  0.1411 -1.2502  0.6023
  138SAPE   H5R14998   5.418   3.219  10.083  0.0882 -1.9184 -2.3284
  138SAPE   C2614999   5.296   3.372   9.983  0.0368 -0.3112 -0.2151
  138SAPE   H6R15000   5.224   3.304   9.936  1.6119 -1.5737 -0.8613
  138SAPE   C2715001   5.266   3.514   9.951 -0.0419  1.0304 -0.5647
  138SAPE   H7R15002   5.227   3.507   9.847 -0.7772 -0.2169 -0.2359
  138SAPE   H7S15003   5.361   3.572   9.953 -0.0483  1.0263  0.4258
  138SAPE   C2815004   5.177   3.593  10.050 -0.3935  0.0363  0.3707
  138SAPE   H8R15005   5.204   3.581  10.156  1.6707 -0.7305 -0.1915
  138SAPE   C2915006   5.081   3.673  10.004  0.3167 -0.5507 -0.2227
  138SAPE   H9R15007   5.019   3.717  10.084  0.9650 -0.8608  0.4606
  138SAPE  C21015008   5.044   3.701   9.860  0.4348  0.1174  0.3800
  138SAPE  H10R15009   4.941   3.743   9.854  0.8525  1.2063  0.6753
  138SAPE  H10S15010   5.033   3.605   9.805  0.9921  0.1395  0.2292
  138SAPE  C21115011   5.142   3.794   9.791  0.1417  0.5748  0.7086
  138SAPE  H11R15012   5.206   3.852   9.859  1.8376 -0.4209  0.0275
  138SAPE  C21215013   5.164   3.790   9.657  0.1452  0.0344  0.0855
  138SAPE  H12R15014   5.252   3.846   9.622 -0.3427  0.1627 -0.9915
  138SAPE  C21315015   5.110   3.699   9.546 -0.0704  0.6819  0.1838
  138SAPE  H13R15016   5.041   3.624   9.590 -0.5223  0.4530 -0.8796
  138SAPE  H13S15017   5.192   3.634   9.511 -1.4458 -1.4496  0.7632
  138SAPE  C21415018   5.029   3.750   9.429  0.0652 -0.5429 -0.6042
  138SAPE  H14R15019   4.935   3.801   9.455 -0.2163  1.4281 -4.7631
  138SAPE  C21515020   5.064   3.757   9.300  0.7276  0.1387 -0.3546
  138SAPE  H15R15021   4.988   3.792   9.228 -2.3060 -2.6133  1.2595
  138SAPE  C21615022   5.196   3.700   9.241  0.0014 -0.6637 -0.0254
  138SAPE  H16R15023   5.224   3.614   9.306 -1.9803 -1.9521 -0.7857
  138SAPE  H16S15024   5.272   3.780   9.255 -1.1359  0.2411  1.2708
  138SAPE  C21715025   5.178   3.643   9.100 -0.3029  0.1209 -0.5561
  138SAPE  H17R15026   5.099   3.564   9.098 -0.0956 -0.2866  2.4906
  138SAPE  H17S15027   5.267   3.584   9.071 -1.0169 -1.0983 -0.3276
  138SAPE  C21815028   5.158   3.756   8.994  0.2284 -0.1138  0.6762
  138SAPE  H18R15029   5.255   3.806   8.978 -1.8243  4.1829  0.2551
  138SAPE  H18S15030   5.086   3.825   9.042  0.8493  0.2098  1.1459
  138SAPE  C21915031   5.118   3.701   8.859  0.0133  0.4628  0.1291
  138SAPE  H19R15032   5.164   3.600   8.851  0.7890  0.5807  2.4769
  138SAPE  H19S15033   5.159   3.772   8.784  0.2263  2.1314  1.7791
  138SAPE  C22015034   4.967   3.708   8.832 -0.2201  0.5605  0.1992
  138SAPE  H20R15035   4.950   3.653   8.736 -1.8654 -0.8941  1.2673
  138SAPE  H20S15036   4.920   3.808   8.820 -0.9916  0.0194 -1.7529
  138SAPE  H20T15037   4.915   3.668   8.921 -1.7241  2.5042  0.2739
  138SAPE   C3315038   5.344   3.995  10.139  0.2409 -0.1634  0.9709
  138SAPE   H3X15039   5.352   4.096  10.093 -0.7400  0.2966  1.7793
  138SAPE   H3Y15040   5.268   3.940  10.078  0.3373 -0.2593  0.9369
  138SAPE   C3415041   5.481   3.934  10.095  0.3234  0.2698  0.5681
  138SAPE   H4X15042   5.510   3.861  10.173 -1.1863 -0.3816  0.5547
  138SAPE   H4Y15043   5.556   4.016  10.090 -0.6525  1.1022 -1.9315
  138SAPE   C3515044   5.480   3.866   9.955  0.4281 -0.1359  0.3162
  138SAPE   H5X15045   5.458   3.950   9.887 -0.8504 -2.1181 -1.8693
  138SAPE   H5Y15046   5.408   3.782   9.945  1.4594 -0.9744 -0.2900
  138SAPE   C3615047   5.617   3.805   9.909 -0.0941  0.5932  0.8224
  138SAPE   H6X15048   5.636   3.720   9.978  2.5028  0.0211 -0.5053
  138SAPE   H6Y15049   5.698   3.881   9.921  0.3213  0.6972 -2.0678
  138SAPE   C3715050   5.614   3.760   9.755 -0.3845 -0.0187 -0.4989
  138SAPE   H7X15051   5.720   3.732   9.737  0.0858  1.7702 -0.7146
  138SAPE   H7Y15052   5.581   3.846   9.692  0.8816  1.6274  1.0053
  138SAPE   C3815053   5.520   3.634   9.723 -0.5698  0.1289  0.3818
  138SAPE   H8X15054   5.416   3.652   9.757 -0.0473  0.1550  2.0571
  138SAPE   H8Y15055   5.550   3.546   9.783 -0.0211 -0.2251 -0.3988
  138SAPE   C3915056   5.534   3.599   9.575  0.3610  0.4593  0.1532
  138SAPE   H9X15057   5.641   3.584   9.552 -0.3036 -3.7498 -1.0895
  138SAPE   H9Y15058   5.499   3.686   9.516 -1.5819  0.1056  0.7052
  138SAPE  C31015059   5.456   3.468   9.550  0.5134  0.2384  0.3936
  138SAPE  H10X15060   5.348   3.474   9.574  0.3058  0.3702 -0.5353
  138SAPE  H10Y15061   5.493   3.381   9.609 -0.2642  1.2086  2.3616
  138SAPE  C31115062   5.464   3.428   9.401 -0.6240 -0.5834 -0.4778
  138SAPE  H11X15063   5.463   3.525   9.346 -2.5861  0.2603  0.9336
  138SAPE  H11Y15064   5.375   3.368   9.371 -0.2657 -0.1266 -2.6333
  138SAPE  C31215065   5.596   3.357   9.375 -0.2613 -0.2008  0.3728
  138SAPE  H12X15066   5.628   3.287   9.455  2.4318  1.6195  1.0111
  138SAPE  H12Y15067   5.671   3.438   9.373 -0.5714  0.0936  0.4471
  138SAPE  C31315068   5.601   3.277   9.238  0.4193 -0.1948 -0.2324
  138SAPE  H13X15069   5.525   3.196   9.233 -0.8076  0.8581  0.6580
  138SAPE  H13Y15070   5.701   3.234   9.218 -0.0338 -0.5060 -1.9868
  138SAPE  C31415071   5.565   3.364   9.109  0.1308  0.8340  0.5253
  138SAPE  H14X15072   5.650   3.433   9.093  1.7963 -1.0034  1.0265
  138SAPE  H14Y15073   5.472   3.423   9.120  0.5030  1.3309  1.1188
  138SAPE  C31515074   5.551   3.277   8.979  0.2669 -0.7766  0.3656
  138SAPE  H15X15075   5.472   3.202   9.001 -1.0784  0.7640  0.9818
  138SAPE  H15Y15076   5.647   3.229   8.950  0.7164  0.7374 -0.8345
  138SAPE  C31615077   5.491   3.346   8.852  0.2805 -0.6993 -0.3927
  138SAPE  H16X15078   5.563   3.396   8.784  0.2344 -0.9228 -0.6061
  138SAPE  H16Y15079   5.413   3.417   8.889 -0.0421 -0.4356 -1.5213
  138SAPE  C31715080   5.416   3.246   8.763  0.5395  0.2492 -0.3670
  138SAPE  H17X15081   5.340   3.198   8.827  0.2709  0.5641 -0.4448
  138SAPE  H17Y15082   5.476   3.168   8.712 -0.8070 -1.2419  0.2654
  138SAPE  C31815083   5.353   3.305   8.638 -0.3039  0.6636 -0.1256
  138SAPE  H18X15084   5.430   3.360   8.580 -0.1540  0.6393  0.0488
  138SAPE  H18Y15085   5.276   3.379   8.666  1.4929  2.3557  0.5822
  138SAPE  H18Z15086   5.291   3.235   8.578 -1.9094  0.1729  2.0159
  139SAPE     N15087   2.636   6.776  10.621  0.1786  0.5631  0.4031
  139SAPE   HN115088   2.581   6.690  10.604 -0.5487  1.2132 -0.7002
  139SAPE   HN215089   2.561   6.835  10.663 -0.1345  1.4156 -1.2488
  139SAPE   HN315090   2.660   6.815  10.528  0.0441 -0.5638 -0.1170
  139SAPE   C1215091   2.748   6.746  10.717 -0.0727  0.1245  0.6444
  139SAPE  H12A15092   2.734   6.803  10.811  1.0672  0.5565  0.5650
  139SAPE  H12B15093   2.850   6.774  10.681 -0.3563  0.1900 -0.1241
  139SAPE   C1115094   2.744   6.606  10.782 -0.1603  0.1942 -0.1320
  139SAPE  H11A15095   2.641   6.590  10.819 -0.7109  0.5672 -1.4448
  139SAPE  H11B15096   2.818   6.601  10.865  1.0197 -1.2245 -1.2216
  139SAPE     P15097   2.921   6.486  10.631  0.0971 -0.0424  0.6817
  139SAPE   O1315098   3.019   6.597  10.662  1.0438 -0.7537 -0.8350
  139SAPE   O1415099   2.971   6.351  10.659 -0.1842  0.2620 -0.0235
  139SAPE   O1215100   2.783   6.498  10.699  0.3540 -0.5383 -0.0357
  139SAPE   O1115101   2.884   6.492  10.478  0.0450  0.4547  0.5442
  139SAPE    C115102   2.797   6.388  10.420 -0.4671  0.4221 -0.5215
  139SAPE    HA15103   2.841   6.286  10.431 -0.6943  0.3016 -0.7334
  139SAPE    HB15104   2.697   6.378  10.468 -1.0720 -2.1137 -2.1057
  139SAPE    C215105   2.773   6.410  10.265  0.5209  0.1744 -0.1709
  139SAPE    HS15106   2.687   6.348  10.233  0.2575  0.6395 -0.3705
  139SAPE   O2115107   2.883   6.365  10.184 -0.8471 -0.4819 -0.6087
  139SAPE   C2115108   2.922   6.237  10.173  1.5403  0.3247  0.4500
  139SAPE   O2215109   2.878   6.142  10.239 -0.1022  0.2897  0.2762
  139SAPE   C2215110   3.034   6.228  10.063  0.3424 -0.3080  0.0994
  139SAPE   H2R15111   3.014   6.292   9.975 -2.8634 -1.3463 -0.0750
  139SAPE   H2S15112   3.129   6.254  10.114 -0.5875  0.1284  1.6958
  139SAPE    C315113   2.739   6.562  10.231 -0.3740  0.5657  0.1690
  139SAPE    HX15114   2.825   6.623  10.266 -0.1877  0.0738  0.5755
  139SAPE    HY15115   2.656   6.585  10.300 -1.4850 -2.1655 -0.1186
  139SAPE   O3115116   2.698   6.572  10.090 -0.3013  0.1009 -0.1292
  139SAPE   C3115117   2.801   6.603  10.009 -0.4293  0.6355 -0.3505
  139SAPE   O3215118   2.917   6.629  10.040  0.1006 -0.0923 -0.0860
  139SAPE   C3215119   2.759   6.584   9.862  0.5630 -0.1279  0.0006
  139SAPE   H2X15120   2.707   6.677   9.830  1.5717 -0.1239 -1.7408
  139SAPE   H2Y15121   2.682   6.504   9.865  1.4547 -0.9816  1.5301
  139SAPE   C2315122   3.041   6.077  10.024  0.1774  0.0877 -0.6004
  139SAPE   H3R15123   3.057   6.018  10.117  0.5938  0.5680 -0.3650
  139SAPE   H3S15124   3.132   6.066   9.960 -0.0497 -1.7469 -0.6592
  139SAPE   C2415125   2.919   6.019   9.939 -0.1157  0.7368 -0.0294
  139SAPE   H4R15126   2.832   6.040  10.004 -1.1255 -0.1372 -1.0590
  139SAPE   H4S15127   2.929   5.911   9.914 -0.4180  0.7160 -0.0643
  139SAPE   C2515128   2.906   6.090   9.811  0.2658  0.4497 -0.0673
  139SAPE   H5R15129   2.822   6.161   9.815 -0.1282 -0.0691  1.8459
  139SAPE   C2615130   2.973   6.082   9.691  0.2633 -0.5443  0.1974
  139SAPE   H6R15131   2.951   6.154   9.611  0.2551 -1.1927 -0.3871
  139SAPE   C2715132   3.091   5.995   9.662  0.3987 -0.0156  0.0293
  139SAPE   H7R15133   3.062   5.887   9.663  2.0630 -0.4934  0.9122
  139SAPE   H7S15134   3.173   5.999   9.737  0.4967 -1.5701  0.0498
  139SAPE   C2815135   3.140   6.016   9.519 -0.1582  0.6935  1.0145
  139SAPE   H8R15136   3.236   6.069   9.507 -0.2464  0.7687  0.6238
  139SAPE   C2915137   3.078   5.973   9.407  0.0279 -0.3207  0.8813
  139SAPE   H9R15138   3.133   5.998   9.315 -0.1661  1.9450  1.3276
  139SAPE  C21015139   2.951   5.891   9.391 -0.0297 -0.4974  0.0024
  139SAPE  H10R15140   2.917   5.846   9.487  1.1696 -2.6553 -0.5448
  139SAPE  H10S15141   2.965   5.802   9.326 -1.2388 -1.2867  0.7738
  139SAPE  C21115142   2.826   5.954   9.334  0.4614 -0.1556  0.0889
  139SAPE  H11R15143   2.746   5.970   9.407  0.0716 -0.0887 -0.3508
  139SAPE  C21215144   2.798   5.985   9.203  0.2131  0.1712 -1.1131
  139SAPE  H12R15145   2.698   6.021   9.173  0.0553  0.0372 -0.7457
  139SAPE  C21315146   2.888   5.962   9.079 -0.2889  0.1720  0.3735
  139SAPE  H13R15147   2.932   5.860   9.073  0.7714  0.6116  0.4032
  139SAPE  H13S15148   2.987   6.010   9.096  0.5970 -1.3334 -0.3367
  139SAPE  C21415149   2.839   5.994   8.939 -0.2445 -0.0002  0.0495
  139SAPE  H14R15150   2.900   6.069   8.887  0.7829 -0.1443  1.0058
  139SAPE  C21515151   2.730   5.941   8.883 -0.3772  0.0895 -0.9977
  139SAPE  H15R15152   2.706   5.964   8.778 -1.6940  3.1244 -0.1434
  139SAPE  C21615153   2.638   5.829   8.929 -0.4417 -0.5376  0.8211
  139SAPE  H16R15154   2.530   5.854   8.928 -0.6506 -1.3936  1.2247
  139SAPE  H16S15155   2.666   5.813   9.035  1.3413  1.2109  0.6690
  139SAPE  C21715156   2.646   5.698   8.836 -0.6018 -1.0629  0.1060
  139SAPE  H17R15157   2.565   5.633   8.875  0.2358 -1.1554  1.7492
  139SAPE  H17S15158   2.745   5.649   8.828 -0.3001 -0.9382  2.3786
  139SAPE  C21815159   2.589   5.723   8.690 -0.6673 -0.5187  0.2118
  139SAPE  H18R15160   2.662   5.733   8.606 -1.6977 -0.6760 -0.7231
  139SAPE  H18S15161   2.546   5.825   8.678 -0.0038 -0.2213  0.2821
  139SAPE  C21915162   2.492   5.613   8.641  0.3257 -0.5966 -0.1250
  139SAPE  H19R15163   2.451   5.627   8.539  1.6321 -0.0231 -0.5962
  139SAPE  H19S15164   2.408   5.607   8.713 -0.5774  1.7714 -0.8708
  139SAPE  C22015165   2.559   5.478   8.647  0.6328 -0.1477  0.3349
  139SAPE  H20R15166   2.650   5.474   8.584  1.9756  2.7397  1.9100
  139SAPE  H20S15167   2.494   5.396   8.610  0.4609  0.1647 -0.0597
  139SAPE  H20T15168   2.604   5.464   8.748  4.0352  1.1274 -0.8715
  139SAPE   C3315169   2.878   6.561   9.771 -1.0029 -0.2814 -0.7633
  139SAPE   H3X15170   2.927   6.463   9.789 -0.0807  0.2789 -0.1807
  139SAPE   H3Y15171   2.943   6.649   9.788 -1.6025 -0.0338  0.3885
  139SAPE   C3415172   2.825   6.555   9.626  0.2287  0.4688  0.2184
  139SAPE   H4X15173   2.779   6.649   9.588 -0.8364 -0.5397 -1.1138
  139SAPE   H4Y15174   2.741   6.482   9.629 -0.4509  1.2607  1.0835
  139SAPE   C3515175   2.930   6.505   9.526 -0.1473 -0.3429  0.1248
  139SAPE   H5X15176   3.001   6.424   9.555  0.7382  0.1231 -0.6662
  139SAPE   H5Y15177   2.993   6.593   9.499 -0.4176 -0.1849  0.0053
  139SAPE   C3615178   2.872   6.465   9.389  0.6567 -0.3098  0.2299
  139SAPE   H6X15179   2.814   6.549   9.343  0.0483 -1.3794 -1.0253
  139SAPE   H6Y15180   2.794   6.386   9.396  0.6680 -1.0340 -4.5555
  139SAPE   C3715181   2.975   6.421   9.291  0.6813 -0.2224  0.4642
  139SAPE   H7X15182   3.045   6.361   9.353 -0.6866 -2.1597  0.2421
  139SAPE   H7Y15183   3.034   6.505   9.248  0.9475 -0.4797  0.3211
  139SAPE   C3815184   2.931   6.353   9.162  0.6740  0.1457  0.6992
  139SAPE   H8X15185   2.836   6.306   9.194 -0.9799  2.1960 -0.8952
  139SAPE   H8Y15186   3.010   6.282   9.127 -0.6698 -1.5806  1.0392
  139SAPE   C3915187   2.897   6.450   9.047 -0.8102  0.6566  0.1284
  139SAPE   H9X15188   2.992   6.485   9.000 -1.2084  0.0223 -1.1911
  139SAPE   H9Y15189   2.845   6.534   9.097 -1.3427  0.8501 -0.7364
  139SAPE  C31015190   2.795   6.388   8.950  0.0059  0.3931 -0.6863
  139SAPE  H10X15191   2.706   6.365   9.011 -0.5698 -1.8581 -2.2176
  139SAPE  H10Y15192   2.836   6.293   8.909  1.8911  1.3875 -1.2516
  139SAPE  C31115193   2.762   6.495   8.847 -0.0460 -0.4279  0.0284
  139SAPE  H11X15194   2.846   6.508   8.776 -1.3558  0.8664 -1.3444
  139SAPE  H11Y15195   2.741   6.591   8.899  0.1844 -0.6321  0.5060
  139SAPE  C31215196   2.643   6.463   8.760  0.8301 -0.6907  0.2463
  139SAPE  H12X15197   2.633   6.532   8.675 -0.1982 -0.1812  0.7667
  139SAPE  H12Y15198   2.547   6.484   8.812  0.2886 -0.9307 -0.6420
  139SAPE  C31315199   2.648   6.316   8.697 -0.3458 -0.3092 -0.7735
  139SAPE  H13X15200   2.549   6.303   8.649  0.4998  0.9732 -3.0447
  139SAPE  H13Y15201   2.648   6.248   8.785  1.3446 -1.2808 -1.4738
  139SAPE  C31415202   2.767   6.298   8.607  0.5777 -0.2121 -0.3064
  139SAPE  H14X15203   2.863   6.327   8.655 -0.5222 -0.4444  2.1958
  139SAPE  H14Y15204   2.743   6.368   8.524 -2.4591  0.0828  0.7035
  139SAPE  C31515205   2.789   6.161   8.547  0.4332 -0.4449  0.1171
  139SAPE  H15X15206   2.696   6.122   8.500  1.2311 -0.5367 -1.4407
  139SAPE  H15Y15207   2.805   6.089   8.630  0.6961 -1.3962 -0.7383
  139SAPE  C31615208   2.907   6.151   8.452 -0.3035 -0.3052 -0.0094
  139SAPE  H16X15209   2.884   6.228   8.376 -0.3189 -0.4308 -0.1324
  139SAPE  H16Y15210   3.001   6.165   8.510  0.6597 -2.4906 -0.9145
  139SAPE  C31715211   2.917   6.008   8.401 -0.0160 -0.2428 -0.2443
  139SAPE  H17X15212   2.831   5.997   8.331  1.5456 -2.0940 -1.9909
  139SAPE  H17Y15213   2.909   5.922   8.471  1.4133  0.1074  0.3945
  139SAPE  C31815214   3.043   5.997   8.318  0.0578 -0.0261  0.0313
  139SAPE  H18X15215   3.044   5.907   8.254 -0.5279  0.7201 -1.0545
  139SAPE  H18Y15216   3.135   5.993   8.380  0.8535 -0.4132 -1.1455
  139SAPE  H18Z15217   3.049   6.081   8.246 -2.5095 -0.5721 -0.9073
  140SAPE     N15218   5.877   2.869  10.936 -0.3912 -0.0545  0.5370
  140SAPE   HN115219   5.774   2.868  10.940 -0.5339  1.6168 -1.1368
  140SAPE   HN215220   5.904   2.884  10.836 -0.0336 -1.2080  0.4551
  140SAPE   HN315221   5.908   2.773  10.958 -1.8950 -0.6313  0.2130
  140SAPE   C1215222   5.930   2.978  11.015 -0.5434  0.3241  0.1698
  140SAPE  H12A15223   6.040   2.961  11.009 -0.9514 -2.6887 -0.8969
  140SAPE  H12B15224   5.907   2.968  11.123  0.3025 -1.0421  0.2462
  140SAPE   C1115225   5.888   3.112  10.948 -0.5568  0.3180 -0.1925
  140SAPE  H11A15226   5.919   3.190  11.020 -0.6952  1.9451 -1.8182
  140SAPE  H11B15227   5.777   3.117  10.944 -0.7785 -0.4612  2.6126
  140SAPE     P15228   6.043   3.251  10.791 -0.1346 -0.7399  0.0293
  140SAPE   O1315229   5.993   3.380  10.844  0.1081 -0.4385 -0.1387
  140SAPE   O1415230   6.177   3.210  10.840  0.6746  0.1339 -0.6390
  140SAPE   O1215231   5.943   3.132  10.821  0.4037  0.2764 -0.0864
  140SAPE   O1115232   6.053   3.267  10.631  0.3872  0.4911  0.1820
  140SAPE    C115233   6.093   3.145  10.556  0.4232 -0.6807  0.2173
  140SAPE    HA15234   6.186   3.106  10.602  2.4857  2.1722 -1.3004
  140SAPE    HB15235   6.010   3.071  10.551 -2.1625  2.0762 -1.5208
  140SAPE    C215236   6.132   3.181  10.410  0.1052  0.2513  0.9841
  140SAPE    HS15237   6.217   3.252  10.423  0.2387 -0.1890  2.8913
  140SAPE   O2115238   6.022   3.245  10.344  0.3752 -0.0071 -0.5059
  140SAPE   C2115239   6.058   3.345  10.258  0.0401  0.7435  0.5514
  140SAPE   O2215240   6.170   3.373  10.223 -0.0244 -0.4664  0.0094
  140SAPE   C2215241   5.926   3.407  10.202 -0.2816 -0.6340  0.1652
  140SAPE   H2R15242   5.870   3.315  10.178  1.6270 -1.8429  0.1202
  140SAPE   H2S15243   5.883   3.466  10.287  2.2630 -0.9768  1.8062
  140SAPE    C315244   6.169   3.056  10.324 -0.2823 -0.2913  0.1789
  140SAPE    HX15245   6.080   2.989  10.320  1.7666 -3.1585 -0.5551
  140SAPE    HY15246   6.244   2.996  10.379  0.0542 -2.5120 -2.4516
  140SAPE   O3115247   6.208   3.092  10.188 -0.8983  0.2293  0.0698
  140SAPE   C3115248   6.342   3.128  10.169 -0.2545  0.1625 -0.5174
  140SAPE   O3215249   6.419   3.136  10.262 -0.3175  1.0480  0.1063
  140SAPE   C3215250   6.377   3.137  10.025  0.5569  0.6486 -0.7842
  140SAPE   H2X15251   6.309   3.205   9.969 -1.7503 -0.2181  0.8442
  140SAPE   H2Y15252   6.348   3.046   9.968 -1.0264  1.7080 -1.7549
  140SAPE   C2315253   5.938   3.489  10.069  0.9755  0.2807  0.0559
  140SAPE   H3R15254   6.036   3.542  10.069 -0.8768  4.0357  0.6108
  140SAPE   H3S15255   5.862   3.569  10.080  1.0731  0.2153  1.4222
  140SAPE   C2415256   5.918   3.411   9.930 -0.0462 -0.7157 -0.1049
  140SAPE   H4R15257   5.969   3.312   9.936  0.0348 -0.5837  2.6288
  140SAPE   H4S15258   5.964   3.473   9.850 -0.2011  0.2805  0.5619
  140SAPE   C2515259   5.768   3.385   9.906  0.2167  0.2544  0.2126
  140SAPE   H5R15260   5.707   3.473   9.931 -0.7867 -0.8075  1.6245
  140SAPE   C2615261   5.701   3.290   9.830 -0.7928  0.2254 -0.3607
  140SAPE   H6R15262   5.591   3.291   9.819 -0.8746 -2.4031 -0.3445
  140SAPE   C2715263   5.762   3.179   9.752 -0.3602  0.0023  0.8702
  140SAPE   H7R15264   5.684   3.105   9.721 -1.9609  1.3800  1.4827
  140SAPE   H7S15265   5.838   3.123   9.811  1.0859 -1.2073 -1.9411
  140SAPE   C2815266   5.832   3.212   9.621 -0.4626  0.0697 -0.1494
  140SAPE   H8R15267   5.850   3.321   9.616 -2.4583  0.4695  0.4544
  140SAPE   C2915268   5.859   3.141   9.514 -0.2881 -0.3777 -0.4412
  140SAPE   H9R15269   5.902   3.189   9.425  2.3179 -0.4887  0.6752
  140SAPE  C21015270   5.817   2.996   9.497 -0.1108  1.0552 -1.4309
  140SAPE  H10R15271   5.807   2.941   9.593 -1.1505  2.5713 -0.6296
  140SAPE  H10S15272   5.893   2.951   9.430  0.1102  1.1994 -1.2801
  140SAPE  C21115273   5.681   3.002   9.440  0.1425 -0.5343 -0.8130
  140SAPE  H11R15274   5.619   3.077   9.493 -0.5475 -1.9602  0.4739
  140SAPE  C21215275   5.631   2.936   9.336  0.1759  0.0919  0.3972
  140SAPE  H12R15276   5.529   2.940   9.297  0.9823  0.1648 -1.8421
  140SAPE  C21315277   5.707   2.831   9.261  0.2290  1.1569 -0.0261
  140SAPE  H13R15278   5.653   2.734   9.266 -0.0901  1.0650 -3.2807
  140SAPE  H13S15279   5.807   2.798   9.297  0.6454 -0.4881 -2.4691
  140SAPE  C21415280   5.727   2.899   9.120 -0.1575 -0.0551  0.1497
  140SAPE  H14R15281   5.821   2.951   9.094 -0.7831  1.5169  0.8794
  140SAPE  C21515282   5.632   2.906   9.020 -0.2840 -0.1273 -0.6283
  140SAPE  H15R15283   5.659   2.963   8.930 -2.2905  1.2065 -0.4675
  140SAPE  C21615284   5.484   2.862   9.014  0.2422 -0.1526 -0.1464
  140SAPE  H16R15285   5.452   2.836   8.911  0.3471  0.0858 -0.2402
  140SAPE  H16S15286   5.413   2.940   9.048 -0.6272 -1.3466  0.8566
  140SAPE  C21715287   5.424   2.740   9.101  0.0194  0.4225  0.5678
  140SAPE  H17R15288   5.313   2.730   9.106 -0.0948  0.2789 -1.2358
  140SAPE  H17S15289   5.458   2.758   9.205  0.7999 -0.1716  0.4205
  140SAPE  C21815290   5.482   2.605   9.057  0.2308 -0.4480 -0.0127
  140SAPE  H18R15291   5.591   2.612   9.037 -0.0496 -0.3585 -1.7075
  140SAPE  H18S15292   5.441   2.585   8.955 -0.8719  2.3556 -0.1994
  140SAPE  C21915293   5.460   2.491   9.162  0.2623 -1.0072  0.3571
  140SAPE  H19R15294   5.530   2.522   9.243 -0.8684  0.3013  0.8769
  140SAPE  H19S15295   5.502   2.395   9.124  2.0950 -0.2895  0.4593
  140SAPE  C22015296   5.312   2.479   9.214 -0.4701 -0.1192 -0.6472
  140SAPE  H20R15297   5.309   2.550   9.300  1.6879 -0.1898 -0.4619
  140SAPE  H20S15298   5.285   2.375   9.241 -1.4961  0.0589 -0.9402
  140SAPE  H20T15299   5.248   2.500   9.125  2.0239 -2.5815 -3.2602
  140SAPE   C3315300   6.520   3.177   9.981  0.4642  0.1222 -0.0340
  140SAPE   H3X15301   6.545   3.279  10.017 -1.8152  0.9102 -0.5638
  140SAPE   H3Y15302   6.519   3.175   9.870 -0.8620  0.1571 -0.0314
  140SAPE   C3415303   6.624   3.080  10.036  0.2674 -0.6161 -0.3875
  140SAPE   H4X15304   6.628   3.079  10.147  1.6548  0.7895 -0.3970
  140SAPE   H4Y15305   6.719   3.121   9.995 -0.2346  1.5199  0.4991
  140SAPE   C3515306   6.614   2.941   9.972 -0.4407 -0.3911  0.7013
  140SAPE   H5X15307   6.524   2.885  10.005 -0.4370 -1.2710 -0.6663
  140SAPE   H5Y15308   6.703   2.886  10.009  0.0142  0.4775  0.9190
  140SAPE   C3615309   6.621   2.929   9.817  0.0491 -0.1787 -0.2014
  140SAPE   H6X15310   6.706   2.991   9.780 -1.3779  1.9165 -0.1561
  140SAPE   H6Y15311   6.526   2.966   9.772 -0.4078 -3.6059 -2.4103
  140SAPE   C3715312   6.648   2.782   9.776  0.0948 -0.3635 -0.0783
  140SAPE   H7X15313   6.565   2.722   9.817  1.2172 -0.5958  2.0110
  140SAPE   H7Y15314   6.744   2.749   9.821 -0.2050  1.3855  2.0305
  140SAPE   C3815315   6.641   2.762   9.627  0.3965 -0.0618 -0.1475
  140SAPE   H8X15316   6.546   2.795   9.579  0.3703 -1.1745 -0.8846
  140SAPE   H8Y15317   6.649   2.654   9.605 -3.0596 -0.4718  0.0560
  140SAPE   C3915318   6.751   2.836   9.558  0.2795  0.1168 -0.4657
  140SAPE   H9X15319   6.855   2.826   9.594 -0.1948  0.8403  1.2297
  140SAPE   H9Y15320   6.725   2.942   9.578  0.4098  0.1484 -0.4646
  140SAPE  C31015321   6.751   2.802   9.411  0.6417 -0.4523  0.8864
  140SAPE  H10X15322   6.652   2.828   9.369  0.3303 -0.5622  1.5416
  140SAPE  H10Y15323   6.766   2.692   9.406 -0.6775 -0.7389  2.3342
  140SAPE  C31115324   6.865   2.887   9.339  0.2879  0.6011 -0.3319
  140SAPE  H11X15325   6.967   2.854   9.369 -0.0582 -0.7903 -0.6228
  140SAPE  H11Y15326   6.845   2.983   9.390  1.1193  0.1300  0.9259
  140SAPE  C31215327   6.858   2.874   9.190  0.5050 -0.7961 -0.3281
  140SAPE  H12X15328   6.756   2.904   9.158  0.8301 -1.1820 -1.8128
  140SAPE  H12Y15329   6.866   2.767   9.158  2.6707 -0.9493  0.6137
  140SAPE  C31315330   6.961   2.969   9.118 -0.2221 -0.1793 -0.2986
  140SAPE  H13X15331   7.062   2.945   9.158 -0.5470  1.4151  1.6420
  140SAPE  H13Y15332   6.933   3.066   9.164 -3.0898 -0.3023 -1.5702
  140SAPE  C31415333   6.956   2.962   8.969 -0.8012  0.1796  0.3690
  140SAPE  H14X15334   6.862   3.003   8.927  0.6134  2.2188 -1.0339
  140SAPE  H14Y15335   6.978   2.863   8.924  0.4535  1.5110 -2.2221
  140SAPE  C31515336   7.049   3.073   8.915 -0.4145  0.4934  1.0275
  140SAPE  H15X15337   7.154   3.042   8.936 -1.1639 -1.0146  2.8579
  140SAPE  H15Y15338   7.023   3.170   8.962  0.4149  1.2739 -0.0721
  140SAPE  C31615339   7.036   3.098   8.762  0.0616  0.6523 -0.3706
  140SAPE  H16X15340   7.122   3.154   8.718  0.8664  0.3476  0.7807
  140SAPE  H16Y15341   6.942   3.154   8.741 -0.3956 -0.3288 -0.9854
  140SAPE  C31715342   7.032   2.958   8.698 -0.4185 -0.4353  0.1345
  140SAPE  H17X15343   6.931   2.923   8.726 -1.3968  0.5079 -1.9570
  140SAPE  H17Y15344   7.111   2.892   8.738  0.4758  0.9173  0.6764
  140SAPE  C31815345   7.023   2.970   8.544 -0.3227  0.0888  0.1919
  140SAPE  H18X15346   6.932   3.021   8.506  1.5193  0.7629 -3.7795
  140SAPE  H18Y15347   7.022   2.871   8.494 -1.8076  0.6008 -0.8420
  140SAPE  H18Z15348   7.110   3.031   8.514  0.0172 -0.5900 -0.2270
  141SAPE     N15349   1.571   4.239  10.948 -0.4608  0.4086 -0.0240
  141SAPE   HN115350   1.600   4.327  10.902  0.8704  0.6379  1.1743
  141SAPE   HN215351   1.523   4.275  11.033  1.9632  1.1968  1.1089
  141SAPE   HN315352   1.659   4.195  10.983 -0.0858 -0.3722 -1.8067
  141SAPE   C1215353   1.498   4.140  10.872 -0.0169 -0.2720  0.7596
  141SAPE  H12A15354   1.409   4.192  10.832  0.4817  0.9269  1.1787
  141SAPE  H12B15355   1.472   4.057  10.940  0.3191 -0.2366  0.9340
  141SAPE   C1115356   1.581   4.080  10.751  0.5194 -0.3352  0.6734
  141SAPE  H11A15357   1.611   4.158  10.677 -1.7614 -0.0792 -0.0511
  141SAPE  H11B15358   1.510   4.011  10.701 -3.3338  0.6470  4.2067
  141SAPE     P15359   1.700   3.860  10.809  0.0637 -0.3260 -0.4232
  141SAPE   O1315360   1.836   3.817  10.863  0.1615 -0.3791  0.4562
  141SAPE   O1415361   1.584   3.825  10.903  0.3830 -0.1845  0.1140
  141SAPE   O1215362   1.698   4.014  10.788  0.0081  0.0630 -0.4181
  141SAPE   O1115363   1.672   3.795  10.673  0.4654 -0.1332 -0.8860
  141SAPE    C115364   1.727   3.837  10.550 -0.7708 -0.8501 -0.4966
  141SAPE    HA15365   1.708   3.946  10.541 -3.5163 -0.7718  3.5977
  141SAPE    HB15366   1.837   3.825  10.547 -0.5644 -1.1001  3.2144
  141SAPE    C215367   1.660   3.763  10.421  0.1314 -0.3626  0.3295
  141SAPE    HS15368   1.687   3.655  10.421  0.3392 -0.3096  0.4410
  141SAPE   O2115369   1.693   3.833  10.295  0.1818  0.3818  1.1355
  141SAPE   C2115370   1.809   3.793  10.258  0.0299  0.1487  0.0416
  141SAPE   O2215371   1.879   3.719  10.326  0.6819  0.6329 -0.1058
  141SAPE   C2215372   1.830   3.843  10.112  0.1203 -0.3519 -0.2067
  141SAPE   H2R15373   1.740   3.815  10.053 -0.0040  0.2297 -0.2992
  141SAPE   H2S15374   1.817   3.952  10.124 -2.0267 -0.2924 -2.2896
  141SAPE    C315375   1.510   3.761  10.432  0.1117  0.3449 -0.0956
  141SAPE    HX15376   1.469   3.862  10.451 -1.1698 -0.5796  2.6050
  141SAPE    HY15377   1.492   3.694  10.519 -0.4418 -1.4868 -1.5437
  141SAPE   O3115378   1.448   3.705  10.313 -0.6699 -0.0231  0.5155
  141SAPE   C3115379   1.375   3.784  10.234 -0.0216 -0.1341 -0.0750
  141SAPE   O3215380   1.351   3.901  10.253  0.3240  0.5327  0.2418
  141SAPE   C3215381   1.296   3.699  10.134 -0.0895  0.3056  0.9485
  141SAPE   H2X15382   1.186   3.715  10.143 -0.2555  0.5232 -1.0319
  141SAPE   H2Y15383   1.307   3.595  10.173 -1.1744 -0.3217 -0.3400
  141SAPE   C2315384   1.968   3.805  10.053  0.0220 -0.4813  0.0255
  141SAPE   H3R15385   1.970   3.694  10.041 -0.0601 -0.4908  0.0961
  141SAPE   H3S15386   2.046   3.834  10.126  0.9489 -1.0829 -0.6977
  141SAPE   C2415387   1.989   3.866   9.910 -0.4214 -0.2713 -0.2045
  141SAPE   H4R15388   1.941   3.966   9.913 -0.2413 -0.0137 -3.0701
  141SAPE   H4S15389   1.937   3.797   9.841  0.1640 -0.7687 -0.1578
  141SAPE   C2515390   2.138   3.892   9.879 -0.1920 -0.6013  0.3862
  141SAPE   H5R15391   2.179   3.966   9.950  0.2908 -1.1262  0.6674
  141SAPE   C2615392   2.213   3.849   9.777  0.2762 -0.5620  0.1066
  141SAPE   H6R15393   2.316   3.883   9.760  0.1416 -0.2075 -0.0175
  141SAPE   C2715394   2.162   3.757   9.668 -0.1312  0.5638  1.2088
  141SAPE   H7R15395   2.085   3.808   9.606 -0.0018 -1.1933 -0.5080
  141SAPE   H7S15396   2.110   3.668   9.709  0.2778 -0.4522 -0.3847
  141SAPE   C2815397   2.277   3.705   9.573 -0.6210  0.4024  0.0834
  141SAPE   H8R15398   2.375   3.680   9.616 -0.3360  1.6111  0.1646
  141SAPE   C2915399   2.270   3.711   9.438 -0.3913 -0.1348  0.1227
  141SAPE   H9R15400   2.368   3.687   9.394 -0.3060  0.6724 -0.1476
  141SAPE  C21015401   2.159   3.757   9.342 -0.4739 -0.1291  0.8253
  141SAPE  H10R15402   2.055   3.743   9.379 -0.4058 -0.4493  0.9028
  141SAPE  H10S15403   2.162   3.693   9.251  2.6988  1.2747 -0.2309
  141SAPE  C21115404   2.188   3.898   9.308 -0.4221  0.1633 -0.0994
  141SAPE  H11R15405   2.162   3.965   9.391 -1.1105  1.8304 -1.5999
  141SAPE  C21215406   2.241   3.947   9.197 -0.2668  0.7388 -0.3787
  141SAPE  H12R15407   2.262   4.055   9.193 -0.6346  0.8586  0.5752
  141SAPE  C21315408   2.282   3.862   9.071  0.8672  0.4296 -0.2099
  141SAPE  H13R15409   2.276   3.752   9.083 -0.0970  0.6206  1.4664
  141SAPE  H13S15410   2.387   3.894   9.051  0.9973 -0.8506 -1.7168
  141SAPE  C21415411   2.194   3.902   8.949 -0.4099 -0.1384  0.2590
  141SAPE  H14R15412   2.114   3.975   8.964  0.1487  0.7314 -0.8685
  141SAPE  C21515413   2.214   3.846   8.826  0.1427  0.1668  0.1399
  141SAPE  H15R15414   2.149   3.875   8.742 -0.8034  0.5868  0.9923
  141SAPE  C21615415   2.329   3.748   8.792 -0.9628 -0.6480 -0.6967
  141SAPE  H16R15416   2.389   3.726   8.883  1.1391  1.1308 -1.5649
  141SAPE  H16S15417   2.406   3.802   8.734 -0.4178  0.4030  0.9306
  141SAPE  C21715418   2.293   3.619   8.720  1.5267  0.3342 -0.0158
  141SAPE  H17R15419   2.386   3.562   8.698  2.2590  1.5296 -0.0811
  141SAPE  H17S15420   2.250   3.642   8.621  0.0145  4.4849  1.4203
  141SAPE  C21815421   2.192   3.540   8.811 -0.6868  0.3865  0.5657
  141SAPE  H18R15422   2.094   3.591   8.803 -0.4015  0.8387 -0.2237
  141SAPE  H18S15423   2.228   3.544   8.916  0.2515 -3.4672  0.5541
  141SAPE  C21915424   2.174   3.393   8.768  0.4477  0.5583 -0.5135
  141SAPE  H19R15425   2.161   3.316   8.847  1.7925 -2.4679 -3.0107
  141SAPE  H19S15426   2.260   3.354   8.709 -0.0164 -1.9984  0.3523
  141SAPE  C22015427   2.059   3.365   8.672 -0.2301 -0.5124  0.0752
  141SAPE  H20R15428   2.037   3.260   8.643 -2.1150 -0.0325 -0.3598
  141SAPE  H20S15429   2.075   3.425   8.579  0.5596  1.6406  1.5138
  141SAPE  H20T15430   1.957   3.398   8.703 -0.6937 -0.7227 -1.1358
  141SAPE   C3315431   1.353   3.704   9.989 -0.3001 -0.6653  0.3891
  141SAPE   H3X15432   1.291   3.632   9.933 -0.3718  0.4402 -1.0068
  141SAPE   H3Y15433   1.464   3.693   9.984  0.2765  3.1645  1.4624
  141SAPE   C3415434   1.322   3.843   9.921 -0.9669  0.5195 -0.7186
  141SAPE   H4X15435   1.358   3.926   9.986 -0.6787  0.9168 -1.3678
  141SAPE   H4Y15436   1.213   3.863   9.915 -1.0477  0.7176  1.0382
  141SAPE   C3515437   1.411   3.867   9.794  0.0377  0.0408  0.1321
  141SAPE   H5X15438   1.515   3.857   9.834 -0.6728  1.2184  2.4799
  141SAPE   H5Y15439   1.392   3.966   9.749 -1.1950 -1.2576 -2.4057
  141SAPE   C3615440   1.369   3.773   9.688 -0.9877  0.1088  0.0401
  141SAPE   H6X15441   1.259   3.761   9.672 -0.9851  0.8139 -0.5912
  141SAPE   H6Y15442   1.415   3.676   9.717  1.2443  1.0369 -0.1996
  141SAPE   C3715443   1.419   3.820   9.550 -0.4349  0.2981  0.7522
  141SAPE   H7X15444   1.526   3.793   9.560 -0.6575 -0.4357  1.2239
  141SAPE   H7Y15445   1.409   3.928   9.527 -1.0326  0.0108 -0.4055
  141SAPE   C3815446   1.359   3.736   9.436  0.5535  0.0158  0.3531
  141SAPE   H8X15447   1.258   3.780   9.423 -0.3199 -1.4920  1.6537
  141SAPE   H8Y15448   1.330   3.633   9.465  0.0748  0.2071  0.5587
  141SAPE   C3915449   1.434   3.728   9.297  0.4740  0.2483  0.3597
  141SAPE   H9X15450   1.524   3.662   9.294 -0.4424 -1.0007 -0.8138
  141SAPE   H9Y15451   1.469   3.833   9.283  1.4416 -0.3897 -2.8718
  141SAPE  C31015452   1.340   3.702   9.177  0.0082  0.0024  0.2630
  141SAPE  H10X15453   1.252   3.769   9.180  1.7399  2.4466 -0.5004
  141SAPE  H10Y15454   1.297   3.600   9.191  3.1980 -1.3658  1.1873
  141SAPE  C31115455   1.404   3.708   9.035  0.0479  0.5370  0.1503
  141SAPE  H11X15456   1.494   3.643   9.035 -0.8222 -0.8348  2.6557
  141SAPE  H11Y15457   1.444   3.805   9.000  3.9081 -1.1247 -0.5090
  141SAPE  C31215458   1.303   3.666   8.930  0.6646 -0.1359  1.0101
  141SAPE  H12X15459   1.217   3.737   8.928 -1.1296 -2.1976  1.5361
  141SAPE  H12Y15460   1.245   3.577   8.961 -1.2776  0.5881 -0.3005
  141SAPE  C31315461   1.360   3.652   8.791  0.7102 -0.4415  0.4096
  141SAPE  H13X15462   1.279   3.627   8.719  2.0968 -0.1250 -1.3395
  141SAPE  H13Y15463   1.423   3.561   8.801 -0.4224 -1.1135  1.9674
  141SAPE  C31415464   1.434   3.774   8.733 -0.0331 -0.0975  0.3729
  141SAPE  H14X15465   1.520   3.801   8.798  1.5851 -2.4732 -0.6636
  141SAPE  H14Y15466   1.378   3.870   8.727  0.6792  0.5225  2.5522
  141SAPE  C31515467   1.501   3.741   8.597 -0.3898 -0.0812  0.6170
  141SAPE  H15X15468   1.557   3.646   8.607 -0.5728 -0.3473 -0.7213
  141SAPE  H15Y15469   1.583   3.813   8.577  0.0279 -0.5062  0.7839
  141SAPE  C31615470   1.403   3.742   8.482 -0.3896 -0.2784  0.5004
  141SAPE  H16X15471   1.409   3.833   8.419  3.3374 -2.5858 -2.9481
  141SAPE  H16Y15472   1.301   3.731   8.524 -1.6581  0.3230 -2.2225
  141SAPE  C31715473   1.438   3.622   8.388 -0.2056  0.1621  0.5926
  141SAPE  H17X15474   1.404   3.527   8.436 -0.6174  0.5365  1.0430
  141SAPE  H17Y15475   1.547   3.624   8.367 -0.4125  0.3597 -0.5234
  141SAPE  C31815476   1.359   3.616   8.254  0.4664 -0.0698  0.7038
  141SAPE  H18X15477   1.408   3.686   8.183  0.2568  0.2433  0.8646
  141SAPE  H18Y15478   1.257   3.655   8.274  1.0860  0.4196  3.2798
  141SAPE  H18Z15479   1.354   3.517   8.204  0.1436  1.0993 -1.7691
  142SAPE     N15480   2.450   2.847  11.240 -0.1673 -0.2080 -0.3942
  142SAPE   HN115481   2.524   2.783  11.276  0.7061  0.4543 -0.9802
  142SAPE   HN215482   2.387   2.867  11.320  0.6293  1.2357 -0.1095
  142SAPE   HN315483   2.407   2.812  11.152  0.7812 -0.5611 -0.7274
  142SAPE   C1215484   2.504   2.982  11.206 -0.4525  0.4652  0.1892
  142SAPE  H12A15485   2.596   2.962  11.147 -0.0086 -0.1362  1.0667
  142SAPE  H12B15486   2.537   3.039  11.295 -1.9714  0.3158  0.8639
  142SAPE   C1115487   2.411   3.061  11.115  0.1270 -0.2501  0.0338
  142SAPE  H11A15488   2.319   3.091  11.170 -1.1484  1.7142 -2.9014
  142SAPE  H11B15489   2.380   3.003  11.025  1.5092 -1.7706  0.5004
  142SAPE     P15490   2.387   3.288  10.987  0.1999  0.0940  0.7115
  142SAPE   O1315491   2.252   3.322  11.033 -0.5186  0.2551 -0.0381
  142SAPE   O1415492   2.467   3.411  10.958  0.2952  0.0215  0.5291
  142SAPE   O1215493   2.465   3.188  11.077 -0.2464 -0.7803 -0.4957
  142SAPE   O1115494   2.369   3.198  10.861 -0.0190  0.3565  0.5146
  142SAPE    C115495   2.484   3.118  10.814  0.5481  0.3393  0.7196
  142SAPE    HA15496   2.568   3.114  10.888  0.7857  2.0277  0.5930
  142SAPE    HB15497   2.448   3.015  10.797 -2.2293  1.2633  0.5313
  142SAPE    C215498   2.539   3.168  10.679  0.4487 -0.9024  0.1183
  142SAPE    HS15499   2.561   3.273  10.708 -1.6764 -0.1094 -0.9306
  142SAPE   O2115500   2.440   3.154  10.571  0.8531  0.0355 -0.1516
  142SAPE   C2115501   2.418   3.264  10.506 -0.0971  0.2231 -0.4029
  142SAPE   O2215502   2.487   3.364  10.504 -0.3249  0.5455 -0.2643
  142SAPE   C2215503   2.290   3.255  10.422  0.2992  0.1416 -0.2086
  142SAPE   H2R15504   2.244   3.160  10.456  1.2318  0.4573  2.1796
  142SAPE   H2S15505   2.224   3.342  10.440  0.9209  0.8790 -1.3627
  142SAPE    C315506   2.676   3.102  10.638 -0.4780 -0.0684  0.1459
  142SAPE    HX15507   2.663   2.992  10.650 -1.6027  0.0929  0.5536
  142SAPE    HY15508   2.743   3.142  10.717 -0.6783  2.9891 -1.1092
  142SAPE   O3115509   2.721   3.136  10.502  0.1338  0.0164  0.8031
  142SAPE   C3115510   2.778   3.254  10.493  0.1029  0.7015 -0.0585
  142SAPE   O3215511   2.798   3.328  10.586 -0.0506  0.6987 -0.4378
  142SAPE   C3215512   2.810   3.291  10.346 -1.5891 -0.2108 -0.4483
  142SAPE   H2X15513   2.911   3.336  10.350 -0.8547 -1.8032 -0.3107
  142SAPE   H2Y15514   2.741   3.375  10.324 -2.7757 -0.7471  1.0126
  142SAPE   C2315515   2.306   3.247  10.270 -0.0459 -0.9054  0.2113
  142SAPE   H3R15516   2.258   3.152  10.237  0.1125 -2.0388  3.0038
  142SAPE   H3S15517   2.410   3.236  10.233 -0.9653 -0.5266 -2.7949
  142SAPE   C2415518   2.256   3.361  10.179  0.9956  0.6549  0.0527
  142SAPE   H4R15519   2.270   3.332  10.073 -0.5146 -0.1599  0.0477
  142SAPE   H4S15520   2.310   3.453  10.210 -0.8085  1.5342  0.7213
  142SAPE   C2515521   2.111   3.397  10.197  0.1682 -0.2219  0.2574
  142SAPE   H5R15522   2.089   3.442  10.294  2.3697  1.0326  0.2519
  142SAPE   C2615523   2.014   3.371  10.107 -0.7846  1.0622 -0.7288
  142SAPE   H6R15524   1.911   3.399  10.133 -0.8936  0.0243 -0.0009
  142SAPE   C2715525   2.020   3.300   9.975 -0.1255 -0.3274 -0.9147
  142SAPE   H7R15526   1.921   3.259   9.946 -0.3074 -1.2806  0.9116
  142SAPE   H7S15527   2.083   3.210   9.991  0.6085  0.2714 -0.3051
  142SAPE   C2815528   2.077   3.392   9.868  0.6443  0.5461 -0.4992
  142SAPE   H8R15529   2.070   3.500   9.888 -0.4052  0.3331  0.4133
  142SAPE   C2915530   2.138   3.339   9.757  0.4243  0.2968 -0.9092
  142SAPE   H9R15531   2.177   3.415   9.689 -1.5858  1.9226 -0.3647
  142SAPE  C21015532   2.151   3.189   9.717 -0.2728  0.6441  0.2021
  142SAPE  H10R15533   2.144   3.132   9.813 -1.4745  1.6117  0.7215
  142SAPE  H10S15534   2.257   3.166   9.692 -0.5522 -0.6991  0.1889
  142SAPE  C21115535   2.042   3.142   9.622 -0.1926  0.0072 -0.3316
  142SAPE  H11R15536   1.939   3.155   9.658 -1.1086 -3.6657 -1.1707
  142SAPE  C21215537   2.065   3.090   9.499  0.6040 -0.9721  0.3905
  142SAPE  H12R15538   1.973   3.063   9.447 -0.5517  0.6152  1.5130
  142SAPE  C21315539   2.201   3.064   9.439 -0.1787 -0.0330 -0.7575
  142SAPE  H13R15540   2.276   3.081   9.519 -0.2918  0.5870 -0.7759
  142SAPE  H13S15541   2.219   3.151   9.372  2.7497 -0.0225 -0.1146
  142SAPE  C21415542   2.205   2.934   9.370  0.5642  0.3076 -0.2108
  142SAPE  H14R15543   2.130   2.865   9.410 -0.0632 -0.0966 -2.0000
  142SAPE  C21515544   2.292   2.878   9.281 -0.5742  0.9003  0.2822
  142SAPE  H15R15545   2.267   2.789   9.222 -2.0203  0.3251  1.6735
  142SAPE  C21615546   2.411   2.946   9.232 -0.5301  0.1551  0.1855
  142SAPE  H16R15547   2.482   2.867   9.199 -0.1117  0.3497  0.6148
  142SAPE  H16S15548   2.465   2.992   9.318  0.5763 -1.4179  0.3818
  142SAPE  C21715549   2.389   3.059   9.128 -0.4202  0.0733 -0.1367
  142SAPE  H17R15550   2.424   3.157   9.167 -0.2060  0.7181 -1.8704
  142SAPE  H17S15551   2.281   3.059   9.099 -0.4282 -2.4135 -0.3439
  142SAPE  C21815552   2.463   3.031   8.997 -0.8754  0.3068  0.2395
  142SAPE  H18R15553   2.390   3.045   8.914 -0.6857  1.8135  0.2903
  142SAPE  H18S15554   2.507   2.929   8.988 -1.0668  0.0931  1.6217
  142SAPE  C21915555   2.569   3.140   8.965 -0.1957 -0.1024  1.5041
  142SAPE  H19R15556   2.648   3.093   8.901  0.0474  3.1570 -0.8636
  142SAPE  H19S15557   2.619   3.174   9.058  1.1056 -1.4155  1.3246
  142SAPE  C22015558   2.504   3.265   8.892  0.2621  0.5055 -0.0764
  142SAPE  H20R15559   2.584   3.328   8.847  2.6184 -2.8331 -0.9473
  142SAPE  H20S15560   2.437   3.327   8.955  0.4483 -1.0877  1.7860
  142SAPE  H20T15561   2.440   3.229   8.809 -2.2569  2.6794  0.7826
  142SAPE   C3315562   2.790   3.168  10.247  0.9196 -0.5864 -0.1532
  142SAPE   H3X15563   2.689   3.122  10.242  0.5019  0.3513 -0.8558
  142SAPE   H3Y15564   2.849   3.082  10.285 -1.2324 -2.1440 -0.1462
  142SAPE   C3415565   2.844   3.189  10.104  0.0707 -0.3985  0.7451
  142SAPE   H4X15566   2.828   3.097  10.045 -1.0228  0.1200  0.1995
  142SAPE   H4Y15567   2.951   3.218  10.111  0.1062 -0.4540  0.4288
  142SAPE   C3515568   2.764   3.295  10.025  0.0143  0.5819 -0.1490
  142SAPE   H5X15569   2.810   3.348   9.939 -0.3216  1.9227  0.4648
  142SAPE   H5Y15570   2.734   3.382  10.088  1.2425 -0.1269  1.4914
  142SAPE   C3615571   2.635   3.230   9.960  0.2118  0.6990  0.0985
  142SAPE   H6X15572   2.578   3.178  10.039  0.9599 -0.0625  0.1520
  142SAPE   H6Y15573   2.673   3.150   9.894  1.8618 -0.2861  2.1244
  142SAPE   C3715574   2.549   3.342   9.899 -0.2342  0.4273  0.2145
  142SAPE   H7X15575   2.537   3.419   9.978  1.5112  1.5003 -0.5034
  142SAPE   H7Y15576   2.453   3.291   9.876 -0.4543  0.6444  0.6535
  142SAPE   C3815577   2.590   3.407   9.763 -0.0407 -0.1610 -0.8856
  142SAPE   H8X15578   2.696   3.433   9.779 -0.0170 -2.2514  5.2240
  142SAPE   H8Y15579   2.535   3.501   9.742 -0.2758 -0.0607  0.0952
  142SAPE   C3915580   2.591   3.320   9.641  0.9487  0.3230 -0.3056
  142SAPE   H9X15581   2.487   3.296   9.609  1.3250 -3.0204  0.5885
  142SAPE   H9Y15582   2.643   3.222   9.647  0.1432 -0.0597  0.8114
  142SAPE  C31015583   2.661   3.391   9.532  0.7606 -0.9349 -0.4693
  142SAPE  H10X15584   2.756   3.433   9.571 -0.0127  0.7358 -0.3288
  142SAPE  H10Y15585   2.601   3.480   9.504  0.4623  0.0035  2.6795
  142SAPE  C31115586   2.683   3.308   9.399  0.4163  0.5679  0.3536
  142SAPE  H11X15587   2.710   3.380   9.318 -2.0227  0.0202 -1.0356
  142SAPE  H11Y15588   2.582   3.273   9.370  0.2410  2.8410 -2.3146
  142SAPE  C31215589   2.793   3.210   9.417  0.0569  0.1371 -0.4003
  142SAPE  H12X15590   2.762   3.123   9.479 -1.8465  0.3408 -1.0028
  142SAPE  H12Y15591   2.872   3.274   9.462  0.3036  0.9155 -1.8618
  142SAPE  C31315592   2.849   3.150   9.283 -0.3015 -0.6519 -0.4173
  142SAPE  H13X15593   2.959   3.132   9.287 -0.1788 -0.0775 -1.0208
  142SAPE  H13Y15594   2.823   3.207   9.191 -1.8594 -3.1804 -1.6583
  142SAPE  C31415595   2.774   3.017   9.253 -0.5187 -0.8461  0.3234
  142SAPE  H14X15596   2.679   3.037   9.199 -0.4593  1.1311  0.8590
  142SAPE  H14Y15597   2.748   2.971   9.351 -0.3165  0.9621  1.2697
  142SAPE  C31515598   2.870   2.919   9.183  0.5388 -0.6062 -0.4969
  142SAPE  H15X15599   2.955   2.900   9.252 -0.0381 -0.3055  0.3123
  142SAPE  H15Y15600   2.904   2.960   9.085 -0.0127  0.4908 -0.2469
  142SAPE  C31615601   2.807   2.781   9.153  0.0892  0.1724  0.6103
  142SAPE  H16X15602   2.714   2.803   9.096  0.0693  2.2911  1.3858
  142SAPE  H16Y15603   2.772   2.724   9.242 -0.6388 -0.8722 -0.3149
  142SAPE  C31715604   2.899   2.687   9.059  0.6783 -0.0620 -0.0821
  142SAPE  H17X15605   2.905   2.742   8.963 -0.2698  0.4341  0.1303
  142SAPE  H17Y15606   2.846   2.590   9.044  0.1262  0.3707 -0.9805
  142SAPE  C31815607   3.036   2.664   9.114 -0.0098  0.6658  0.2669
  142SAPE  H18X15608   3.089   2.599   9.041 -0.8742 -0.5346  0.6725
  142SAPE  H18Y15609   3.025   2.601   9.205  0.3519 -1.0285 -0.8191
  142SAPE  H18Z15610   3.099   2.752   9.139 -0.4436  1.8224 -2.3393
  143SAPE     N15611   1.570   5.539  10.925  1.1454 -0.2329  0.7270
  143SAPE   HN115612   1.580   5.528  11.028  1.2790  0.3249  0.7751
  143SAPE   HN215613   1.599   5.457  10.868  0.5893 -0.9634  1.4516
  143SAPE   HN315614   1.620   5.627  10.903 -0.0734  0.5185  0.8269
  143SAPE   C1215615   1.428   5.567  10.886  0.6771 -0.1029 -0.1217
  143SAPE  H12A15616   1.431   5.619  10.788 -2.1384 -0.5455 -0.5287
  143SAPE  H12B15617   1.378   5.637  10.956  1.3940 -1.0261  1.3641
  143SAPE   C1115618   1.341   5.440  10.878 -0.3002  0.2103  0.9280
  143SAPE  H11A15619   1.373   5.380  10.790 -2.5771  0.8263 -0.4107
  143SAPE  H11B15620   1.241   5.476  10.846  0.3069  2.4366  1.3743
  143SAPE     P15621   1.229   5.286  11.056 -0.3620 -0.0908 -0.2676
  143SAPE   O1315622   1.275   5.228  11.187  0.9544  0.2434 -0.1558
  143SAPE   O1415623   1.123   5.387  11.068 -0.4360 -0.2524  0.1046
  143SAPE   O1215624   1.351   5.359  10.996 -0.4378  0.3889 -0.0048
  143SAPE   O1115625   1.198   5.175  10.951 -0.1628 -0.3707 -0.1412
  143SAPE    C115626   1.288   5.065  10.942 -0.6171 -0.1602 -0.1719
  143SAPE    HA15627   1.341   5.045  11.038  0.3493 -1.2523 -0.9056
  143SAPE    HB15628   1.237   4.967  10.930  0.3266 -0.9215  1.5998
  143SAPE    C215629   1.398   5.075  10.834 -1.1680 -0.2800  0.0954
  143SAPE    HS15630   1.463   5.160  10.864  1.3207 -1.7693 -0.6902
  143SAPE   O2115631   1.342   5.079  10.702 -0.3919  0.0767 -0.2696
  143SAPE   C2115632   1.415   5.146  10.603 -0.0827 -0.8664  0.9148
  143SAPE   O2215633   1.519   5.206  10.624 -0.1130  0.1648 -0.3272
  143SAPE   C2215634   1.347   5.129  10.466 -0.1742 -0.5002  0.3076
  143SAPE   H2R15635   1.264   5.055  10.477  0.0465 -0.6786  0.7988
  143SAPE   H2S15636   1.300   5.227  10.444  0.8690 -0.1544 -0.4661
  143SAPE    C315637   1.498   4.957  10.845  0.6226 -0.2131 -0.1556
  143SAPE    HX15638   1.438   4.864  10.857  0.7565 -0.5100 -1.6016
  143SAPE    HY15639   1.549   4.958  10.943 -0.0859 -0.7049  0.2276
  143SAPE   O3115640   1.588   4.940  10.734  0.3312  0.5417 -0.4025
  143SAPE   C3115641   1.715   4.972  10.756  0.4505  0.0538 -0.2722
  143SAPE   O3215642   1.749   5.040  10.854 -0.2146 -0.2575 -0.1695
  143SAPE   C3215643   1.799   4.911  10.646 -0.5468  0.8438 -0.2477
  143SAPE   H2X15644   1.752   4.938  10.549 -1.0799 -1.0485 -0.5740
  143SAPE   H2Y15645   1.789   4.802  10.667 -1.9704  1.5313  3.2621
  143SAPE   C2315646   1.459   5.099  10.359  0.4610  0.0752  0.1774
  143SAPE   H3R15647   1.529   5.021  10.394 -0.7536 -2.0673 -1.8398
  143SAPE   H3S15648   1.516   5.190  10.330  1.7946 -0.2813  1.6128
  143SAPE   C2415649   1.401   5.029  10.236 -0.0126  0.6009  0.7775
  143SAPE   H4R15650   1.313   5.082  10.193  1.4174  1.1069 -1.7935
  143SAPE   H4S15651   1.361   4.935  10.278 -0.5906  0.6900  0.4307
  143SAPE   C2515652   1.513   5.001  10.134  0.3491 -0.3406  0.3839
  143SAPE   H5R15653   1.605   4.964  10.182  0.7478  0.0627 -0.0531
  143SAPE   C2615654   1.512   5.001  10.000  0.6368 -0.1455  0.5427
  143SAPE   H6R15655   1.608   4.968   9.955  0.4282  1.1435 -0.9624
  143SAPE   C2715656   1.407   5.031   9.890  0.1511 -0.6436 -0.6175
  143SAPE   H7R15657   1.436   5.123   9.835 -0.4884 -1.5791 -2.6132
  143SAPE   H7S15658   1.316   5.063   9.945 -0.6991 -2.2812 -1.0106
  143SAPE   C2815659   1.380   4.912   9.809  0.4378  0.3360 -0.4848
  143SAPE   H8R15660   1.344   4.831   9.873  0.5938  0.4567 -0.2444
  143SAPE   C2915661   1.400   4.891   9.673  0.3425 -0.5328 -0.5221
  143SAPE   H9R15662   1.382   4.792   9.629  0.9861 -1.5616  1.4188
  143SAPE  C21015663   1.447   4.984   9.571  0.2649  0.8167  0.0226
  143SAPE  H10R15664   1.523   4.929   9.512 -2.1454  0.4609 -3.0042
  143SAPE  H10S15665   1.493   5.075   9.614 -1.4861  0.6277  2.5343
  143SAPE  C21115666   1.321   5.018   9.488 -0.1038  0.0584 -1.0182
  143SAPE  H11R15667   1.241   5.067   9.547 -0.2416 -0.9462 -0.3506
  143SAPE  C21215668   1.299   4.999   9.361  0.1491 -0.6344  0.6373
  143SAPE  H12R15669   1.204   5.047   9.331 -0.6378 -1.7847  1.1996
  143SAPE  C21315670   1.389   4.926   9.267  0.4848 -0.4163 -1.0594
  143SAPE  H13R15671   1.427   4.839   9.325 -0.3077  0.3366  0.6469
  143SAPE  H13S15672   1.475   4.993   9.247  0.0081  0.7900  0.7195
  143SAPE  C21415673   1.316   4.872   9.146  0.3128  0.5742 -0.7674
  143SAPE  H14R15674   1.243   4.794   9.171  1.0601  0.0681 -0.1252
  143SAPE  C21515675   1.338   4.909   9.021  0.1526 -1.0725 -0.4008
  143SAPE  H15R15676   1.270   4.877   8.941 -3.1172 -0.7175  2.0439
  143SAPE  C21615677   1.437   5.006   8.962 -1.0403  0.0164 -0.4375
  143SAPE  H16R15678   1.529   4.958   8.922 -0.5324  0.6355 -0.0304
  143SAPE  H16S15679   1.475   5.078   9.038 -0.0612 -0.8632 -0.0548
  143SAPE  C21715680   1.375   5.098   8.849  0.2647  0.5135  0.1423
  143SAPE  H17R15681   1.291   5.160   8.888 -1.0241 -1.1879  0.1580
  143SAPE  H17S15682   1.337   5.024   8.775  1.2870 -0.3151  0.4354
  143SAPE  C21815683   1.480   5.192   8.785 -0.4633  0.1690 -0.7230
  143SAPE  H18R15684   1.582   5.153   8.806 -0.5094 -0.0456 -0.8949
  143SAPE  H18S15685   1.478   5.297   8.822 -0.7254  0.7402 -2.2921
  143SAPE  C21915686   1.461   5.187   8.634  0.2310  0.0643  0.0626
  143SAPE  H19R15687   1.380   5.253   8.595  0.2384  0.7886  1.2065
  143SAPE  H19S15688   1.435   5.084   8.603  0.0837  0.0487  0.2367
  143SAPE  C22015689   1.584   5.229   8.558 -0.9066  0.0406  0.1485
  143SAPE  H20R15690   1.673   5.207   8.622 -1.1227 -0.4210  0.2933
  143SAPE  H20S15691   1.582   5.337   8.534 -0.4760  0.9443  3.6331
  143SAPE  H20T15692   1.591   5.176   8.461 -2.5235  3.0480 -1.7753
  143SAPE   C3315693   1.947   4.950  10.664  0.4623 -0.2387  0.3780
  143SAPE   H3X15694   2.007   4.885  10.597  0.7261 -0.2480  0.6192
  143SAPE   H3Y15695   1.972   4.924  10.769  0.5606  1.4639  0.8099
  143SAPE   C3415696   1.986   5.100  10.627  0.3632  0.1008  0.3740
  143SAPE   H4X15697   2.096   5.112  10.633  0.7042 -1.9639 -0.7177
  143SAPE   H4Y15698   1.939   5.153  10.712  0.3690 -0.3814  0.6859
  143SAPE   C3515699   1.944   5.156  10.491 -0.7155 -0.0538  0.3256
  143SAPE   H5X15700   1.985   5.259  10.489 -0.1621 -0.1996  2.1241
  143SAPE   H5Y15701   1.833   5.158  10.493 -0.7471  0.4132 -0.9614
  143SAPE   C3615702   1.985   5.065  10.376 -0.6081 -0.2459 -0.1110
  143SAPE   H6X15703   1.961   4.957  10.385 -1.0276 -0.2788 -1.3906
  143SAPE   H6Y15704   2.095   5.074  10.370 -0.6719  0.5326 -0.3301
  143SAPE   C3715705   1.924   5.116  10.241  0.4914 -0.0304  0.4405
  143SAPE   H7X15706   1.925   5.227  10.237  0.0656 -0.0287  0.3517
  143SAPE   H7Y15707   1.814   5.101  10.250  0.3095  0.1280 -1.1857
  143SAPE   C3815708   1.972   5.040  10.109 -0.2920 -0.4167 -0.0393
  143SAPE   H8X15709   1.966   4.931  10.124 -2.5508 -0.6631 -2.1121
  143SAPE   H8Y15710   2.078   5.072  10.096  0.0990 -1.6822 -0.0731
  143SAPE   C3915711   1.899   5.084   9.983 -0.6905  0.3658  0.5913
  143SAPE   H9X15712   1.942   5.178   9.943 -0.2024  0.0537  0.3884
  143SAPE   H9Y15713   1.789   5.085   9.999 -0.5809 -1.3353  1.7244
  143SAPE  C31015714   1.923   4.977   9.871 -0.3993 -0.4797  0.6721
  143SAPE  H10X15715   1.880   4.881   9.909  0.0423  0.5222  4.0647
  143SAPE  H10Y15716   2.032   4.963   9.859 -0.6238 -1.9760  0.2082
  143SAPE  C31115717   1.862   5.028   9.740  0.0364  0.5735  0.0240
  143SAPE  H11X15718   1.889   5.136   9.737  2.9095 -0.0826 -2.7759
  143SAPE  H11Y15719   1.752   5.021   9.727 -0.0074  2.4028 -0.9381
  143SAPE  C31215720   1.941   4.987   9.613  0.3199  0.5409  0.2249
  143SAPE  H12X15721   1.952   4.877   9.609  1.0650  0.5538  1.3803
  143SAPE  H12Y15722   2.046   5.023   9.619  1.9903 -2.5946 -4.5319
  143SAPE  C31315723   1.880   5.041   9.486  0.1281  0.2093 -0.2393
  143SAPE  H13X15724   1.969   5.071   9.428  0.1930  0.7623  0.1405
  143SAPE  H13Y15725   1.799   5.115   9.503  0.3607  0.5271 -0.5279
  143SAPE  C31415726   1.812   4.916   9.411 -0.2156 -0.1646  0.3681
  143SAPE  H14X15727   1.750   4.862   9.485 -0.9333  2.1376  1.5413
  143SAPE  H14Y15728   1.899   4.853   9.383 -0.4375 -0.8431  1.1469
  143SAPE  C31515729   1.753   4.966   9.281  0.0814 -0.5240 -0.1733
  143SAPE  H15X15730   1.676   5.045   9.296  0.3591 -0.5332  1.5179
  143SAPE  H15Y15731   1.700   4.881   9.235  0.3864 -0.5880 -0.4086
  143SAPE  C31615732   1.856   5.011   9.188 -0.4273 -0.1159  0.1102
  143SAPE  H16X15733   1.929   4.928   9.181  2.1408  2.1100 -1.3912
  143SAPE  H16Y15734   1.905   5.099   9.234 -1.2331  0.8338 -0.8058
  143SAPE  C31715735   1.812   5.065   9.051  0.5960 -0.0536  0.4819
  143SAPE  H17X15736   1.880   5.148   9.023 -0.6838  0.8350 -0.1070
  143SAPE  H17Y15737   1.713   5.116   9.058 -0.5451 -2.2571  1.5241
  143SAPE  C31815738   1.814   4.965   8.939 -0.0284  0.2747 -0.0519
  143SAPE  H18X15739   1.784   5.016   8.845  0.5720  0.8916  0.0804
  143SAPE  H18Y15740   1.734   4.892   8.961 -0.5409 -0.0721 -2.6910
  143SAPE  H18Z15741   1.917   4.923   8.929  0.1808  1.1952 -2.3359
  144SAPE     N15742   5.376   2.596  10.922 -0.1864  0.1642 -0.3441
  144SAPE   HN115743   5.298   2.662  10.945  0.7068  0.7274  1.2231
  144SAPE   HN215744   5.334   2.509  10.883  0.1139  1.0011 -2.6939
  144SAPE   HN315745   5.421   2.572  11.013  0.1892  0.6656 -0.3919
  144SAPE   C1215746   5.468   2.658  10.819  0.3428  0.2408 -0.3305
  144SAPE  H12A15747   5.471   2.590  10.732  0.2261  0.4442 -0.4952
  144SAPE  H12B15748   5.571   2.656  10.860  0.3937  4.0284  0.0451
  144SAPE   C1115749   5.431   2.806  10.776 -0.4220  0.3750 -0.1671
  144SAPE  H11A15750   5.346   2.808  10.704 -0.7467  0.3860  0.2067
  144SAPE  H11B15751   5.514   2.847  10.715 -0.3556  0.5343  0.0308
  144SAPE     P15752   5.511   2.972  10.955  0.3237  0.2887  0.5105
  144SAPE   O1315753   5.447   3.063  11.051 -0.3552  0.1399  0.1336
  144SAPE   O1415754   5.614   2.882  11.012 -0.6547  0.1295 -0.2042
  144SAPE   O1215755   5.395   2.884  10.891  0.2782 -0.4650 -0.3420
  144SAPE   O1115756   5.569   3.057  10.833 -0.4281  0.5595 -0.5256
  144SAPE    C115757   5.500   3.153  10.750 -0.0569  0.0520  0.5458
  144SAPE    HA15758   5.390   3.140  10.752 -0.2125  0.4082 -1.9162
  144SAPE    HB15759   5.525   3.260  10.770  0.0088  0.3302 -0.9058
  144SAPE    C215760   5.539   3.131  10.595 -0.1407 -0.5331  0.1919
  144SAPE    HS15761   5.506   3.224  10.544 -2.1152 -2.0154 -1.4170
  144SAPE   O2115762   5.464   3.019  10.534  0.2037  0.1718 -0.5533
  144SAPE   C2115763   5.340   3.047  10.503 -0.0072  0.4350  0.5012
  144SAPE   O2215764   5.280   3.151  10.532 -0.1068 -0.1608 -0.5717
  144SAPE   C2215765   5.276   2.940  10.408 -0.2497 -0.4123 -0.8515
  144SAPE   H2R15766   5.331   2.952  10.312  2.3116 -0.8094  0.4665
  144SAPE   H2S15767   5.297   2.844  10.461  1.4400  0.6849  0.5440
  144SAPE    C315768   5.686   3.096  10.564 -0.1367 -0.5228  0.0375
  144SAPE    HX15769   5.714   3.001  10.616  2.2461  0.0418 -0.0849
  144SAPE    HY15770   5.757   3.176  10.595 -1.9157  0.9572  0.4327
  144SAPE   O3115771   5.697   3.075  10.423 -0.9949  0.2275 -1.1513
  144SAPE   C3115772   5.787   2.985  10.385 -0.1332  0.5413  0.5051
  144SAPE   O3215773   5.855   2.907  10.454 -0.1345 -0.0123  0.1921
  144SAPE   C3215774   5.792   2.975  10.237  0.5823  0.8991  0.3396
  144SAPE   H2X15775   5.859   3.051  10.193  0.7087 -0.0860 -1.2345
  144SAPE   H2Y15776   5.692   3.000  10.197 -0.3218  1.4873  2.8193
  144SAPE   C2315777   5.123   2.958  10.397  0.2777  0.8904  0.6287
  144SAPE   H3R15778   5.086   3.046  10.342 -2.0882 -0.7063 -0.4831
  144SAPE   H3S15779   5.080   2.962  10.499  0.9842 -3.2765  1.2810
  144SAPE   C2415780   5.060   2.829  10.332 -0.2760 -0.3605 -0.4799
  144SAPE   H4R15781   4.950   2.843  10.340 -0.3948 -1.3725 -0.1753
  144SAPE   H4S15782   5.086   2.741  10.395  0.5577  0.5642  0.5120
  144SAPE   C2515783   5.100   2.799  10.189  0.3177 -0.0695  0.1331
  144SAPE   H5R15784   5.197   2.747  10.181  0.2214 -0.1321 -0.6515
  144SAPE   C2615785   5.031   2.825  10.078  0.2498  0.3277 -0.3182
  144SAPE   H6R15786   5.074   2.810   9.978  0.9370 -2.6158  0.3336
  144SAPE   C2715787   4.894   2.888  10.079  0.1327 -0.6364 -0.4613
  144SAPE   H7R15788   4.895   2.976  10.146  0.0746  0.1664 -1.4856
  144SAPE   H7S15789   4.830   2.808  10.122  0.9553 -0.5801  0.9201
  144SAPE   C2815790   4.848   2.937   9.950 -0.0659 -0.2295 -0.3959
  144SAPE   H8R15791   4.749   2.896   9.923 -0.6740  0.0665  1.2620
  144SAPE   C2915792   4.896   3.036   9.867  0.2859 -0.7555  0.4431
  144SAPE   H9R15793   4.831   3.059   9.781  0.7633 -0.4246  0.1642
  144SAPE  C21015794   5.023   3.124   9.875 -0.6819 -0.2032 -0.3711
  144SAPE  H10R15795   5.100   3.083   9.807  0.1044  0.8155 -0.1213
  144SAPE  H10S15796   5.072   3.117   9.975  1.3022  2.1530 -1.0708
  144SAPE  C21115797   4.987   3.269   9.843  0.6461 -1.1130  0.8776
  144SAPE  H11R15798   5.018   3.345   9.916  0.0594 -0.0131  0.0196
  144SAPE  C21215799   4.959   3.320   9.717 -0.2963  0.0265 -0.0735
  144SAPE  H12R15800   4.921   3.423   9.707 -0.0272  0.6032  3.7167
  144SAPE  C21315801   4.950   3.251   9.587  0.2491 -0.5830  0.1545
  144SAPE  H13R15802   4.849   3.208   9.567  0.4794 -0.2220 -2.0065
  144SAPE  H13S15803   4.997   3.150   9.587  0.2275 -0.6515 -2.1070
  144SAPE  C21415804   5.003   3.335   9.472  0.2749  0.6251  0.3065
  144SAPE  H14R15805   5.106   3.374   9.483 -0.1973  1.5230  1.9328
  144SAPE  C21515806   4.939   3.377   9.361 -0.7992 -0.4702 -0.4291
  144SAPE  H15R15807   4.998   3.427   9.283 -1.5752  0.5110 -0.4026
  144SAPE  C21615808   4.789   3.346   9.322 -0.1987  0.4502 -0.3486
  144SAPE  H16R15809   4.738   3.282   9.398 -2.9230 -0.0035 -2.3908
  144SAPE  H16S15810   4.785   3.281   9.233  1.9834 -1.1106  0.6067
  144SAPE  C21715811   4.702   3.476   9.308 -0.3197  0.4112  0.3199
  144SAPE  H17R15812   4.706   3.536   9.401 -1.3942 -0.6757  1.1013
  144SAPE  H17S15813   4.598   3.438   9.304 -0.3385  0.3897  0.9184
  144SAPE  C21815814   4.724   3.554   9.179 -0.1604  0.2018 -0.0245
  144SAPE  H18R15815   4.729   3.485   9.092  0.3943 -0.1354  0.2675
  144SAPE  H18S15816   4.816   3.616   9.174 -0.6076  0.8965  0.2623
  144SAPE  C21915817   4.610   3.653   9.163 -0.1686  1.1588  0.2288
  144SAPE  H19R15818   4.520   3.617   9.218  0.2010 -2.8168 -1.4391
  144SAPE  H19S15819   4.578   3.652   9.056  0.2191 -2.5142  0.0105
  144SAPE  C22015820   4.641   3.788   9.218 -0.5646  0.1727  0.7943
  144SAPE  H20R15821   4.704   3.856   9.156  0.3208  1.2462  2.7794
  144SAPE  H20S15822   4.693   3.774   9.315  3.0256 -0.2674 -1.0071
  144SAPE  H20T15823   4.541   3.831   9.238 -1.3653 -0.0060 -2.2981
  144SAPE   C3315824   5.833   2.840  10.186  0.3779  0.3696 -0.3104
  144SAPE   H3X15825   5.771   2.755  10.219  2.0491 -0.4487  0.8806
  144SAPE   H3Y15826   5.923   2.807  10.242 -1.7729  0.6806  3.6473
  144SAPE   C3415827   5.857   2.854  10.035  0.4119  0.8834 -0.4558
  144SAPE   H4X15828   5.766   2.894   9.985 -1.4304 -1.1237  1.1035
  144SAPE   H4Y15829   5.875   2.753   9.994  0.6296  0.9575 -0.5482
  144SAPE   C3515830   5.977   2.939   9.983 -0.0677  0.0373  0.1610
  144SAPE   H5X15831   6.054   2.930  10.063  1.4496  0.5263 -1.1992
  144SAPE   H5Y15832   5.947   3.046   9.990 -1.3356 -0.3257  0.4506
  144SAPE   C3615833   6.031   2.884   9.852 -0.2751 -1.3418  0.8144
  144SAPE   H6X15834   5.942   2.870   9.787  1.6536  0.9943 -2.6753
  144SAPE   H6Y15835   6.078   2.785   9.872  0.6675 -1.6676 -2.3706
  144SAPE   C3715836   6.125   2.984   9.775  0.4252 -0.5199 -0.3988
  144SAPE   H7X15837   6.216   3.021   9.828 -0.4558  2.0706 -0.5339
  144SAPE   H7Y15838   6.055   3.070   9.764 -0.5746 -0.9344  1.9991
  144SAPE   C3815839   6.171   2.930   9.642  0.5134  0.4884 -0.4185
  144SAPE   H8X15840   6.089   2.883   9.583 -0.6221  4.6612 -2.5404
  144SAPE   H8Y15841   6.249   2.855   9.666 -0.0097  0.3559  0.9372
  144SAPE   C3915842   6.242   3.020   9.539  1.0750 -0.3912 -0.4804
  144SAPE   H9X15843   6.326   3.076   9.587  1.7803 -1.2049 -0.7429
  144SAPE   H9Y15844   6.183   3.101   9.492  1.8826  0.8612  0.5980
  144SAPE  C31015845   6.284   2.924   9.430  0.2468  0.7569 -0.0481
  144SAPE  H10X15846   6.302   2.820   9.464 -0.2782  0.9017  0.7181
  144SAPE  H10Y15847   6.385   2.961   9.402  0.5963  0.1177  0.3329
  144SAPE  C31115848   6.198   2.919   9.303  0.3774 -0.1686  0.5869
  144SAPE  H11X15849   6.184   3.014   9.247  1.1275  0.3491  1.2519
  144SAPE  H11Y15850   6.093   2.909   9.337  0.5498  1.3357  1.6900
  144SAPE  C31215851   6.242   2.805   9.200  0.6840 -0.2685 -1.1706
  144SAPE  H12X15852   6.236   2.705   9.249 -1.3049 -0.3858 -1.5708
  144SAPE  H12Y15853   6.347   2.825   9.167  0.9241  2.4097  0.9030
  144SAPE  C31315854   6.153   2.794   9.081  0.0460 -0.6735 -0.4232
  144SAPE  H13X15855   6.162   2.871   9.002 -0.8597  0.2242  0.3080
  144SAPE  H13Y15856   6.047   2.789   9.113  0.5176 -1.4659  1.1082
  144SAPE  C31415857   6.191   2.668   8.995  0.5415 -0.5534  0.0229
  144SAPE  H14X15858   6.190   2.572   9.050 -3.8720 -0.5622  0.2554
  144SAPE  H14Y15859   6.296   2.679   8.959  0.1243  1.5923 -0.6968
  144SAPE  C31515860   6.105   2.661   8.872  0.8886  0.9838  0.3813
  144SAPE  H15X15861   6.116   2.751   8.806  0.0049 -0.3712 -1.7351
  144SAPE  H15Y15862   5.996   2.659   8.895  0.3890  3.2619 -1.2964
  144SAPE  C31615863   6.144   2.550   8.762  0.3302  0.8215 -0.5081
  144SAPE  H16X15864   6.054   2.561   8.698  0.7657  2.4500 -0.8958
  144SAPE  H16Y15865   6.139   2.453   8.817  0.8467  1.3516  0.5038
  144SAPE  C31715866   6.280   2.569   8.690 -0.1586 -0.2555  0.8656
  144SAPE  H17X15867   6.302   2.477   8.632 -0.7795 -0.6110  1.1796
  144SAPE  H17Y15868   6.363   2.572   8.764 -0.1033  1.2700  0.7683
  144SAPE  C31815869   6.281   2.691   8.587 -0.5493 -0.2512 -0.9463
  144SAPE  H18X15870   6.278   2.785   8.646  1.0000 -2.1181  2.3880
  144SAPE  H18Y15871   6.193   2.677   8.521 -1.4267 -0.4146  0.2325
  144SAPE  H18Z15872   6.367   2.680   8.517 -0.2361 -0.6678 -0.4997
  145SAPE     N15873   2.108   2.187  11.393 -0.1248 -0.4100  0.4095
  145SAPE   HN115874   2.139   2.284  11.416  2.1593 -0.9823  0.0189
  145SAPE   HN215875   2.016   2.191  11.346 -0.6753 -4.0267  0.8611
  145SAPE   HN315876   2.098   2.129  11.479  0.2781 -3.1724 -1.2996
  145SAPE   C1215877   2.220   2.133  11.300 -0.0602  0.3332 -0.9486
  145SAPE  H12A15878   2.193   2.026  11.304 -1.0605  0.6061  1.3144
  145SAPE  H12B15879   2.311   2.159  11.358  0.1565 -0.8834 -0.7263
  145SAPE   C1115880   2.212   2.209  11.162 -0.2464 -0.0321 -0.7877
  145SAPE  H11A15881   2.109   2.193  11.123 -0.2390  0.6989 -1.1449
  145SAPE  H11B15882   2.286   2.174  11.087  2.1455  0.7729  1.0746
  145SAPE     P15883   2.361   2.422  11.164 -0.2833  0.4991 -0.1229
  145SAPE   O1315884   2.374   2.534  11.263  0.1830  0.3621 -0.8422
  145SAPE   O1415885   2.473   2.333  11.182  0.2776 -0.2466 -0.1254
  145SAPE   O1215886   2.226   2.347  11.179  0.2271 -0.5616  0.0131
  145SAPE   O1115887   2.357   2.485  11.020 -0.1935 -0.5892  0.4697
  145SAPE    C115888   2.410   2.414  10.909  0.0506 -0.3396 -0.3805
  145SAPE    HA15889   2.518   2.441  10.906 -0.2687  1.4099  1.2799
  145SAPE    HB15890   2.400   2.304  10.922  1.1538 -0.2583  1.5578
  145SAPE    C215891   2.345   2.450  10.774 -0.2156 -0.6216 -0.7516
  145SAPE    HS15892   2.384   2.387  10.692 -0.1223  1.2238 -2.1859
  145SAPE   O2115893   2.378   2.578  10.746  0.1840 -0.5445  1.0069
  145SAPE   C2115894   2.363   2.614  10.615 -0.1251 -0.4495  0.5179
  145SAPE   O2215895   2.347   2.538  10.523 -0.3946 -0.5452 -0.1311
  145SAPE   C2215896   2.361   2.767  10.606 -0.4684  0.1999 -0.1146
  145SAPE   H2R15897   2.255   2.799  10.595  0.3087  2.1894 -2.9204
  145SAPE   H2S15898   2.402   2.814  10.698  0.6145 -1.3416  0.2249
  145SAPE    C315899   2.190   2.422  10.788  0.7764  0.9509 -1.0128
  145SAPE    HX15900   2.145   2.455  10.884  1.9540 -0.0031 -0.0798
  145SAPE    HY15901   2.187   2.311  10.798  0.9741  0.8097 -2.3881
  145SAPE   O3115902   2.116   2.463  10.669  0.0627 -0.0601  0.4934
  145SAPE   C3115903   2.082   2.376  10.572  0.4696 -0.5622  0.1487
  145SAPE   O3215904   2.083   2.256  10.587  0.1198  0.1751  0.1430
  145SAPE   C3215905   2.009   2.449  10.458 -0.1024  0.3765 -0.5773
  145SAPE   H2X15906   1.982   2.552  10.489  2.8305  1.1059 -0.1741
  145SAPE   H2Y15907   1.921   2.383  10.445  1.5132 -2.1029  0.3054
  145SAPE   C2315908   2.446   2.817  10.484  0.6284 -0.5400 -0.0123
  145SAPE   H3R15909   2.539   2.757  10.475  1.3821  0.5423  0.2214
  145SAPE   H3S15910   2.483   2.920  10.507  0.1578 -0.0500 -1.3751
  145SAPE   C2415911   2.363   2.807  10.358 -0.4407  0.2754  0.1479
  145SAPE   H4R15912   2.258   2.831  10.385 -0.0046  2.6984 -0.1351
  145SAPE   H4S15913   2.361   2.704  10.315  1.7139  0.1062  0.3591
  145SAPE   C2515914   2.414   2.909  10.258  0.4961  0.7702 -0.8040
  145SAPE   H5R15915   2.442   3.004  10.307  1.2001  1.2405 -2.0663
  145SAPE   C2615916   2.435   2.907  10.128  0.4537 -0.0948 -0.4032
  145SAPE   H6R15917   2.474   2.999  10.083  3.5531 -0.0990  1.9437
  145SAPE   C2715918   2.414   2.791  10.033 -0.5988  0.5345 -0.6873
  145SAPE   H7R15919   2.372   2.706  10.091 -2.1099  1.1205 -0.8826
  145SAPE   H7S15920   2.511   2.761   9.988 -1.7998 -2.0550 -1.7161
  145SAPE   C2815921   2.308   2.828   9.929  0.3572  0.1287 -0.6539
  145SAPE   H8R15922   2.203   2.814   9.956  0.4209 -2.5729 -1.5238
  145SAPE   C2915923   2.341   2.874   9.803  0.8788  0.8406 -0.2684
  145SAPE   H9R15924   2.257   2.888   9.733  0.8041 -0.8984 -0.5681
  145SAPE  C21015925   2.480   2.901   9.751 -0.1957  0.0257  0.6151
  145SAPE  H10R15926   2.553   2.868   9.828  1.6880 -0.2709 -1.1956
  145SAPE  H10S15927   2.487   3.012   9.749 -0.9710  0.0725 -0.1279
  145SAPE  C21115928   2.511   2.836   9.623 -0.0124  0.4582 -0.5338
  145SAPE  H11R15929   2.429   2.798   9.561 -1.2692  2.4026 -0.1528
  145SAPE  C21215930   2.637   2.802   9.579 -0.3427 -0.4062 -0.4812
  145SAPE  H12R15931   2.653   2.745   9.486 -1.0730 -0.1794 -0.7541
  145SAPE  C21315932   2.765   2.840   9.644  0.0052  0.4040 -0.5013
  145SAPE  H13R15933   2.762   2.914   9.728 -1.6760  0.0866 -0.2580
  145SAPE  H13S15934   2.831   2.898   9.575  0.8930  1.4199  1.1160
  145SAPE  C21415935   2.833   2.718   9.683 -0.3509 -0.4891 -0.2461
  145SAPE  H14R15936   2.888   2.677   9.596 -1.5216  1.7403 -2.1483
  145SAPE  C21515937   2.849   2.667   9.811 -0.3130 -0.7757 -0.2248
  145SAPE  H15R15938   2.900   2.571   9.821  0.5299 -0.4708 -1.4533
  145SAPE  C21615939   2.800   2.721   9.941  0.7790  0.7291  0.3423
  145SAPE  H16R15940   2.719   2.654   9.977  1.3063  0.3985  0.9534
  145SAPE  H16S15941   2.752   2.820   9.927  0.8458  0.5165 -1.5953
  145SAPE  C21715942   2.903   2.718  10.055  0.1561 -0.4527  0.0603
  145SAPE  H17R15943   2.990   2.783  10.035  0.1278  0.3768  2.3411
  145SAPE  H17S15944   2.943   2.614  10.057  1.1033 -0.1713 -1.8407
  145SAPE  C21815945   2.842   2.751  10.193 -0.1950  0.0580 -0.1884
  145SAPE  H18R15946   2.742   2.704  10.185 -0.3249  0.4094 -0.7031
  145SAPE  H18S15947   2.825   2.859  10.213  2.1584  0.1956  1.4256
  145SAPE  C21915948   2.912   2.681  10.308 -0.4011  0.4157  0.1933
  145SAPE  H19R15949   3.014   2.726  10.299 -0.3781  0.8176  2.0845
  145SAPE  H19S15950   2.917   2.570  10.299 -0.7102  0.4381 -0.2932
  145SAPE  C22015951   2.857   2.732  10.439  0.0401 -0.2258 -0.2637
  145SAPE  H20R15952   2.758   2.688  10.461 -1.3016  2.6041 -0.2256
  145SAPE  H20S15953   2.838   2.841  10.445 -0.2177 -0.2057 -1.3496
  145SAPE  H20T15954   2.921   2.707  10.527 -2.3860 -1.0326  1.3527
  145SAPE   C3315955   2.098   2.450  10.339  0.2364  0.1376 -0.2900
  145SAPE   H3X15956   2.129   2.350  10.300 -0.7499  0.3977 -1.7955
  145SAPE   H3Y15957   2.186   2.514  10.364 -0.5234  1.1912 -0.2586
  145SAPE   C3415958   2.029   2.515  10.219 -0.1790 -0.6588  0.0881
  145SAPE   H4X15959   2.010   2.617  10.260  0.8033 -1.3764  2.5508
  145SAPE   H4Y15960   1.930   2.467  10.208 -1.3064  0.5327  3.6662
  145SAPE   C3515961   2.118   2.527  10.095 -0.2482 -0.1497 -0.7916
  145SAPE   H5X15962   2.190   2.444  10.081 -0.9346 -0.8574 -0.2432
  145SAPE   H5Y15963   2.176   2.621  10.089  0.5841 -0.6059 -0.0952
  145SAPE   C3615964   2.025   2.541   9.972  0.8543  0.4877 -0.8332
  145SAPE   H6X15965   1.968   2.637   9.976 -2.0124 -1.1782  1.0604
  145SAPE   H6Y15966   1.957   2.454   9.974 -1.1436  1.9885 -0.5155
  145SAPE   C3715967   2.106   2.532   9.847  0.4549  0.0277  0.9121
  145SAPE   H7X15968   2.137   2.425   9.839  2.4524  0.4851  1.8641
  145SAPE   H7Y15969   2.196   2.597   9.849  0.8516 -0.4723 -0.1368
  145SAPE   C3815970   2.028   2.577   9.716  0.2010  1.0558 -0.0128
  145SAPE   H8X15971   2.015   2.686   9.701 -1.2669  0.7167 -1.5510
  145SAPE   H8Y15972   1.925   2.535   9.706  0.1538  1.3600 -0.9499
  145SAPE   C3915973   2.115   2.529   9.599 -0.2488 -0.2607  0.0088
  145SAPE   H9X15974   2.160   2.428   9.610  1.7052  0.1335 -3.0324
  145SAPE   H9Y15975   2.212   2.583   9.603 -0.0393 -0.6631  0.4052
  145SAPE  C31015976   2.056   2.553   9.462 -1.4301 -0.4130  0.5848
  145SAPE  H10X15977   2.035   2.659   9.436  0.8520 -0.3411 -1.3414
  145SAPE  H10Y15978   1.971   2.485   9.443 -0.8293 -1.2507  0.8499
  145SAPE  C31115979   2.161   2.513   9.354 -0.1042 -1.3014 -0.2825
  145SAPE  H11X15980   2.184   2.405   9.368 -1.1382 -1.3593  1.2196
  145SAPE  H11Y15981   2.251   2.576   9.369  0.1577 -2.0969  1.9126
  145SAPE  C31215982   2.105   2.523   9.211 -0.1789 -1.0693 -0.1360
  145SAPE  H12X15983   2.044   2.615   9.201 -1.6226 -1.9763 -0.0000
  145SAPE  H12Y15984   2.033   2.440   9.194  0.5047 -1.5141 -0.9372
  145SAPE  C31315985   2.212   2.529   9.094  0.0409 -0.8724 -0.2778
  145SAPE  H13X15986   2.264   2.432   9.080 -1.2473 -1.6223 -0.0434
  145SAPE  H13Y15987   2.294   2.600   9.117 -0.4626  0.8312 -3.1906
  145SAPE  C31415988   2.166   2.595   8.960 -0.2389 -0.1237  0.3998
  145SAPE  H14X15989   2.091   2.670   8.993 -0.4427  0.2577 -0.8978
  145SAPE  H14Y15990   2.106   2.523   8.900 -1.1203  0.9020  0.0326
  145SAPE  C31515991   2.289   2.647   8.890  0.1394  0.1413 -0.4639
  145SAPE  H15X15992   2.348   2.707   8.963 -1.5226 -1.2827  2.2115
  145SAPE  H15Y15993   2.239   2.722   8.825  0.0569  0.6005  0.1268
  145SAPE  C31615994   2.377   2.544   8.816  0.2740 -0.1274  0.4294
  145SAPE  H16X15995   2.312   2.494   8.742  0.6379  1.9484 -1.4177
  145SAPE  H16Y15996   2.419   2.468   8.886 -1.9904 -4.3660 -2.4222
  145SAPE  C31715997   2.491   2.596   8.723 -0.0333 -0.0942  0.0933
  145SAPE  H17X15998   2.451   2.689   8.677 -1.9812 -0.3059  1.2438
  145SAPE  H17Y15999   2.526   2.524   8.646 -0.9273 -0.0129 -0.4101
  145SAPE  C31816000   2.617   2.626   8.802  0.9939  0.5829 -1.1540
  145SAPE  H18X16001   2.683   2.539   8.822 -1.3963 -0.7035  2.2800
  145SAPE  H18Y16002   2.584   2.654   8.904 -1.3632 -2.8379 -0.7970
  145SAPE  H18Z16003   2.672   2.702   8.743  0.2725  0.7380 -1.6381
  146SAPE     N16004   3.991   5.402  10.901  0.0801  0.4073  0.2291
  146SAPE   HN116005   4.035   5.426  10.810 -0.4494  1.0317  0.1355
  146SAPE   HN216006   3.892   5.376  10.883 -0.3517  1.1832  1.3817
  146SAPE   HN316007   3.999   5.474  10.976  2.2915  0.8914 -0.3990
  146SAPE   C1216008   4.060   5.274  10.940  0.2188  0.2519  0.3117
  146SAPE  H12A16009   4.010   5.236  11.031 -2.3740 -0.2011 -1.1778
  146SAPE  H12B16010   4.162   5.297  10.977 -0.1022 -2.4758  3.4166
  146SAPE   C1116011   4.078   5.174  10.827  0.6702  0.1569 -0.3005
  146SAPE  H11A16012   3.988   5.139  10.771  0.4274  2.2813 -1.3155
  146SAPE  H11B16013   4.095   5.083  10.889  0.1797  2.0583  2.8193
  146SAPE     P16014   4.187   5.303  10.628 -0.2717  0.0827 -0.0535
  146SAPE   O1316015   4.142   5.436  10.682  0.5374  0.3223  0.7676
  146SAPE   O1416016   4.321   5.300  10.569 -0.0169 -0.4335 -0.7355
  146SAPE   O1216017   4.186   5.192  10.740  0.7349 -0.6634  0.0296
  146SAPE   O1116018   4.085   5.250  10.520 -0.0828  0.2035  0.5145
  146SAPE    C116019   4.077   5.113  10.480  0.3637 -0.1913  0.3061
  146SAPE    HA16020   4.151   5.050  10.533  1.1179 -0.1258 -0.6361
  146SAPE    HB16021   3.976   5.071  10.499  0.6642 -0.7652  0.6450
  146SAPE    C216022   4.116   5.101  10.329  0.5258 -0.7897  0.2420
  146SAPE    HS16023   4.098   4.993  10.306  2.1934 -1.2060  0.7721
  146SAPE   O2116024   4.255   5.148  10.309 -0.0008 -0.1358  0.0111
  146SAPE   C2116025   4.343   5.056  10.334  0.2452  0.2699  0.3542
  146SAPE   O2216026   4.326   4.937  10.354 -0.3378 -0.8325 -0.6919
  146SAPE   C2216027   4.474   5.128  10.349  0.2987  0.3323 -0.7767
  146SAPE   H2R16028   4.450   5.236  10.351  1.7932  0.7109  1.9094
  146SAPE   H2S16029   4.529   5.097  10.441 -0.3382  0.8213 -0.2220
  146SAPE    C316030   4.012   5.179  10.234  0.2540 -0.3489 -0.2023
  146SAPE    HX16031   4.024   5.287  10.259 -2.0094  0.1270 -0.9808
  146SAPE    HY16032   3.907   5.153  10.257  0.1107 -1.4460 -1.9084
  146SAPE   O3116033   4.021   5.157  10.088 -0.4302  0.2976 -0.2368
  146SAPE   C3116034   3.975   5.037  10.046 -0.3576 -0.6015 -0.4522
  146SAPE   O3216035   3.912   4.956  10.115 -0.6237 -0.0320 -0.4092
  146SAPE   C3216036   4.020   5.009   9.901 -0.1132  0.0039 -0.5910
  146SAPE   H2X16037   4.129   4.989   9.898 -0.3057 -2.9499  3.4393
  146SAPE   H2Y16038   3.976   5.092   9.841  0.0050  2.7242  2.7969
  146SAPE   C2316039   4.577   5.075  10.239  0.4916 -0.5042 -0.5313
  146SAPE   H3R16040   4.607   4.968  10.244  0.3363 -0.4916  2.0894
  146SAPE   H3S16041   4.678   5.119  10.257 -0.3743  0.5928  2.3382
  146SAPE   C2416042   4.533   5.099  10.090  0.1361 -0.2677 -0.5180
  146SAPE   H4R16043   4.440   5.049  10.055 -0.3681  1.2283 -1.4077
  146SAPE   H4S16044   4.606   5.032  10.040  0.5641  0.2127 -0.5389
  146SAPE   C2516045   4.547   5.247  10.050  0.4857 -0.1944 -0.5781
  146SAPE   H5R16046   4.475   5.308  10.106  1.7835  0.2370  0.6763
  146SAPE   C2616047   4.639   5.303   9.973  0.6299  0.2595  0.5704
  146SAPE   H6R16048   4.630   5.408   9.942 -1.5722 -0.3641 -1.2393
  146SAPE   C2716049   4.749   5.218   9.901  0.0508 -0.7782  0.1912
  146SAPE   H7R16050   4.702   5.134   9.844 -0.6380  0.3512 -0.9811
  146SAPE   H7S16051   4.814   5.180   9.982 -0.1469  0.1044  0.7696
  146SAPE   C2816052   4.836   5.284   9.798  0.7322 -0.7453  0.2264
  146SAPE   H8R16053   4.935   5.315   9.833 -0.0403  1.4581  0.6067
  146SAPE   C2916054   4.786   5.299   9.669  0.3498  0.1971 -0.3362
  146SAPE   H9R16055   4.844   5.351   9.591 -1.7080  0.7055 -1.5936
  146SAPE  C21016056   4.656   5.252   9.620  0.5092  0.9656  0.4241
  146SAPE  H10R16057   4.621   5.320   9.539 -1.5929 -0.3422  0.1496
  146SAPE  H10S16058   4.580   5.265   9.700  0.4476 -0.1537  0.5645
  146SAPE  C21116059   4.647   5.106   9.580 -0.8936 -0.8800 -0.6827
  146SAPE  H11R16060   4.583   5.039   9.639  0.6436 -0.2367  1.8905
  146SAPE  C21216061   4.707   5.051   9.473  0.2815  0.1414  0.1993
  146SAPE  H12R16062   4.709   4.942   9.455  1.8687 -0.2572  2.3866
  146SAPE  C21316063   4.798   5.114   9.371  0.0564 -0.1099  0.1862
  146SAPE  H13R16064   4.905   5.090   9.388 -0.2623 -1.1884  0.7077
  146SAPE  H13S16065   4.782   5.224   9.370  1.8597  0.2147 -1.6555
  146SAPE  C21416066   4.759   5.069   9.226  0.5461  0.2987 -0.0983
  146SAPE  H14R16067   4.825   4.999   9.172  0.4216  1.3497 -1.6586
  146SAPE  C21516068   4.650   5.111   9.155  0.1711  0.0361  0.1947
  146SAPE  H15R16069   4.638   5.088   9.048  1.7423 -0.8035  0.1652
  146SAPE  C21616070   4.555   5.203   9.222 -0.3457 -0.7185 -0.1888
  146SAPE  H16R16071   4.582   5.309   9.199 -0.1592 -0.3431  1.6111
  146SAPE  H16S16072   4.546   5.190   9.332 -0.3653  0.0978 -0.0876
  146SAPE  C21716073   4.410   5.178   9.165  0.1036  0.0737 -0.1906
  146SAPE  H17R16074   4.337   5.229   9.231 -1.1527 -0.8777 -0.8231
  146SAPE  H17S16075   4.391   5.069   9.170  0.7600 -0.1202 -1.3427
  146SAPE  C21816076   4.383   5.223   9.021 -0.0820 -0.0315  0.0979
  146SAPE  H18R16077   4.449   5.165   8.954 -1.3198 -0.4409 -0.8136
  146SAPE  H18S16078   4.407   5.331   9.014 -0.3593  0.0074 -0.3311
  146SAPE  C21916079   4.237   5.194   8.982 -0.1815 -0.1152  0.5111
  146SAPE  H19R16080   4.220   5.224   8.877 -0.4279 -2.2503 -0.0965
  146SAPE  H19S16081   4.158   5.240   9.046  0.0318 -1.7713  2.0508
  146SAPE  C22016082   4.202   5.043   8.968  0.0571 -0.0093 -0.1193
  146SAPE  H20R16083   4.112   5.027   8.905  0.2143 -0.3000 -0.2691
  146SAPE  H20S16084   4.186   4.993   9.066 -1.8475  2.1452  0.7515
  146SAPE  H20T16085   4.284   4.995   8.911 -1.1280 -1.8837 -0.3352
  146SAPE   C3316086   3.955   4.875   9.852  0.1205  0.3776  0.7960
  146SAPE   H3X16087   3.845   4.888   9.862  0.1341  2.5710 -0.8938
  146SAPE   H3Y16088   3.974   4.798   9.930  0.2483 -2.1926 -1.6067
  146SAPE   C3416089   3.998   4.839   9.707 -0.5614  0.2930 -0.2950
  146SAPE   H4X16090   3.971   4.733   9.687 -0.8025  0.1285  0.8340
  146SAPE   H4Y16091   4.108   4.827   9.710 -0.7327 -1.3417  0.9882
  146SAPE   C3516092   3.927   4.921   9.604  0.2154  0.1068 -0.3014
  146SAPE   H5X16093   3.969   5.023   9.613  1.6674 -0.4443 -0.4793
  146SAPE   H5Y16094   3.819   4.923   9.629 -0.3796 -0.5582 -2.6449
  146SAPE   C3616095   3.935   4.867   9.461 -0.1600  0.2570  0.3159
  146SAPE   H6X16096   3.870   4.777   9.447 -0.3237  0.7723 -3.2391
  146SAPE   H6Y16097   4.037   4.835   9.430 -1.0103 -0.5599 -1.8505
  146SAPE   C3716098   3.902   4.972   9.363 -0.1905 -0.1457 -0.5265
  146SAPE   H7X16099   3.987   5.044   9.364  0.4049 -0.7852  2.2617
  146SAPE   H7Y16100   3.814   5.026   9.403 -0.6372 -3.1382  2.9319
  146SAPE   C3816101   3.877   4.921   9.225  0.0775 -0.0602  0.0838
  146SAPE   H8X16102   3.799   4.842   9.235  0.8545 -0.5726  2.9657
  146SAPE   H8Y16103   3.967   4.861   9.201  0.6617  0.2475  1.4702
  146SAPE   C3916104   3.846   5.025   9.118  0.1814  0.0210  0.0793
  146SAPE   H9X16105   3.842   4.982   9.015 -0.0496 -0.1166  0.1430
  146SAPE   H9Y16106   3.927   5.100   9.120 -0.9300  1.3043 -1.1917
  146SAPE  C31016107   3.711   5.093   9.142 -0.1553  0.3257 -0.3291
  146SAPE  H10X16108   3.708   5.161   9.230 -2.0938  0.7351 -0.6683
  146SAPE  H10Y16109   3.621   5.028   9.143 -0.1217  0.2405 -1.6707
  146SAPE  C31116110   3.688   5.185   9.023  0.0462 -0.1584 -0.5904
  146SAPE  H11X16111   3.657   5.121   8.938 -0.3688 -1.8056  0.7685
  146SAPE  H11Y16112   3.774   5.254   9.005  1.6381 -1.7590  0.5299
  146SAPE  C31216113   3.573   5.277   9.048  0.2880  0.1619 -0.2679
  146SAPE  H12X16114   3.583   5.313   9.152  1.2002 -1.4842  0.2452
  146SAPE  H12Y16115   3.483   5.213   9.059  0.7237 -0.3755  0.1915
  146SAPE  C31316116   3.556   5.381   8.940  0.7291 -0.6026 -0.1460
  146SAPE  H13X16117   3.641   5.450   8.925  0.6961 -0.5795 -0.2316
  146SAPE  H13Y16118   3.473   5.444   8.978  0.7677  0.4886 -1.7716
  146SAPE  C31416119   3.529   5.324   8.805  0.7144 -0.0064  0.4988
  146SAPE  H14X16120   3.464   5.234   8.807  1.6884 -0.8224 -1.6064
  146SAPE  H14Y16121   3.625   5.283   8.766  0.0523  0.1860 -1.4437
  146SAPE  C31516122   3.469   5.427   8.701 -0.2133  0.0887  0.4235
  146SAPE  H15X16123   3.536   5.511   8.672  0.5208 -1.6566 -3.7940
  146SAPE  H15Y16124   3.375   5.467   8.745 -0.1178  0.8464 -0.0332
  146SAPE  C31616125   3.424   5.361   8.565  0.5016 -0.6512  0.8056
  146SAPE  H16X16126   3.398   5.448   8.501 -0.2219 -2.4932 -1.5718
  146SAPE  H16Y16127   3.335   5.296   8.578 -0.1142 -0.1130 -0.5675
  146SAPE  C31716128   3.534   5.279   8.490 -0.0726  0.0361 -0.3084
  146SAPE  H17X16129   3.597   5.218   8.559 -0.8575 -0.4089  0.0295
  146SAPE  H17Y16130   3.606   5.353   8.448  1.1164 -0.8445  0.1438
  146SAPE  C31816131   3.482   5.191   8.379 -0.2184  1.2360 -0.3462
  146SAPE  H18X16132   3.562   5.124   8.342 -1.6306 -0.5004 -0.4212
  146SAPE  H18Y16133   3.442   5.244   8.290 -2.2225  1.3062  0.5346
  146SAPE  H18Z16134   3.405   5.121   8.418 -1.2069  0.7700 -2.9528
  147SAPE     N16135   4.897   6.158   6.133 -0.7698  0.5275 -0.4215
  147SAPE   HN116136   4.812   6.123   6.085  0.6396 -0.0985 -2.6370
  147SAPE   HN216137   4.894   6.261   6.147 -1.3068  0.3813  0.6072
  147SAPE   HN316138   4.975   6.124   6.072 -1.2791 -1.5003 -0.0274
  147SAPE   C1216139   4.895   6.079   6.265 -0.0326  0.0630  0.5227
  147SAPE  H12A16140   4.806   6.109   6.325  0.3565 -0.6772  1.5093
  147SAPE  H12B16141   4.975   6.110   6.336  1.4649  0.9136 -1.4458
  147SAPE   C1116142   4.881   5.928   6.249 -0.9188 -0.0742 -0.5969
  147SAPE  H11A16143   4.798   5.909   6.178 -2.4689  1.1218  0.8283
  147SAPE  H11B16144   4.862   5.882   6.348  2.1266 -0.8219 -0.2413
  147SAPE     P16145   5.033   5.797   6.078  0.2996  0.1626 -0.2343
  147SAPE   O1316146   4.940   5.840   5.972  0.0705  0.4363  0.3168
  147SAPE   O1416147   5.178   5.808   6.056 -0.1902 -0.0406 -0.3027
  147SAPE   O1216148   5.007   5.868   6.216  0.1058 -0.0176  0.3898
  147SAPE   O1116149   5.002   5.644   6.107 -0.1468 -0.0924  0.0467
  147SAPE    C116150   4.896   5.601   6.198  0.0855  0.0151  0.4637
  147SAPE    HA16151   4.820   5.679   6.222  0.3009  0.5593 -0.5561
  147SAPE    HB16152   4.846   5.513   6.151  0.0702  1.6615 -2.9236
  147SAPE    C216153   4.963   5.549   6.329  0.0742  0.0900 -0.8587
  147SAPE    HS16154   4.978   5.440   6.312 -3.5636 -0.9103  1.1780
  147SAPE   O2116155   4.861   5.570   6.439  0.1770 -0.2814  0.2722
  147SAPE   C2116156   4.784   5.466   6.469 -0.4026 -0.1098  0.0971
  147SAPE   O2216157   4.796   5.358   6.410  0.5218 -0.4074  0.2282
  147SAPE   C2216158   4.704   5.493   6.597  0.1455  0.3956  0.2197
  147SAPE   H2R16159   4.693   5.603   6.610 -0.6828  0.7628 -2.6421
  147SAPE   H2S16160   4.605   5.445   6.577 -1.2065  2.8040  0.7118
  147SAPE    C316161   5.093   5.619   6.376 -0.3230  0.1425 -0.0004
  147SAPE    HX16162   5.070   5.723   6.407  0.3158  0.3481 -0.1912
  147SAPE    HY16163   5.173   5.629   6.299 -1.4052 -0.6154 -1.2792
  147SAPE   O3116164   5.137   5.545   6.490  0.0468  0.6436 -0.0759
  147SAPE   C3116165   5.209   5.435   6.464 -0.8965  0.0938 -0.3011
  147SAPE   O3216166   5.251   5.405   6.350 -0.5903 -0.4066 -0.2381
  147SAPE   C3216167   5.215   5.351   6.591  0.1046 -0.1211 -0.8229
  147SAPE   H2X16168   5.106   5.346   6.612 -0.6243  4.7973 -2.1107
  147SAPE   H2Y16169   5.265   5.423   6.659 -1.5389  0.5445 -0.2471
  147SAPE   C2316170   4.747   5.432   6.727  0.1823  0.2711 -0.1719
  147SAPE   H3R16171   4.746   5.322   6.711 -1.8193  0.3111 -0.6071
  147SAPE   H3S16172   4.663   5.439   6.799 -2.8283 -2.7020 -3.0820
  147SAPE   C2416173   4.885   5.485   6.773  0.1684 -0.6427  0.4342
  147SAPE   H4R16174   4.878   5.595   6.785 -2.9616 -0.8436  1.0687
  147SAPE   H4S16175   4.952   5.461   6.688 -0.3660  1.0203 -0.5045
  147SAPE   C2516176   4.930   5.417   6.898 -0.2995  0.2823  0.7417
  147SAPE   H5R16177   4.939   5.308   6.889 -2.1196  0.0623  1.2973
  147SAPE   C2616178   4.926   5.465   7.025 -0.0725  0.7278 -0.3300
  147SAPE   H6R16179   4.952   5.402   7.111 -0.0748  0.1257 -0.7582
  147SAPE   C2716180   4.868   5.599   7.065 -0.2884 -0.2264 -0.2962
  147SAPE   H7R16181   4.827   5.662   6.984  2.6379 -0.1838 -1.8636
  147SAPE   H7S16182   4.956   5.654   7.105 -1.1533  1.6257 -0.8484
  147SAPE   C2816183   4.774   5.606   7.184  0.1685  0.4149  0.5845
  147SAPE   H8R16184   4.672   5.639   7.160  0.5493  0.0512 -1.8177
  147SAPE   C2916185   4.802   5.599   7.314 -0.2984  0.0776  0.0140
  147SAPE   H9R16186   4.722   5.604   7.390  1.5699 -0.8112  2.1571
  147SAPE  C21016187   4.940   5.580   7.367 -0.1242 -0.1174 -0.3808
  147SAPE  H10R16188   4.989   5.677   7.389 -1.2325 -0.0866  2.3143
  147SAPE  H10S16189   5.002   5.523   7.294 -2.4447 -3.4337 -0.0040
  147SAPE  C21116190   4.944   5.487   7.489 -0.2769  0.0026 -1.1006
  147SAPE  H11R16191   4.911   5.383   7.473  0.3475 -0.3800  0.0099
  147SAPE  C21216192   4.999   5.520   7.606  0.1238 -0.4386  0.0577
  147SAPE  H12R16193   4.987   5.453   7.692  0.8434  0.5311  0.9450
  147SAPE  C21316194   5.076   5.645   7.654 -0.0980  0.9163 -0.0049
  147SAPE  H13R16195   5.042   5.684   7.752 -1.4223  2.1905 -0.9167
  147SAPE  H13S16196   5.052   5.731   7.587 -0.7042  2.3747  2.0089
  147SAPE  C21416197   5.227   5.619   7.652  0.7594  0.8592  0.4770
  147SAPE  H14R16198   5.266   5.527   7.606 -1.0128 -0.6213  1.8021
  147SAPE  C21516199   5.313   5.704   7.714 -0.5653 -0.2704  0.7291
  147SAPE  H15R16200   5.419   5.675   7.723 -0.3703  0.0085 -0.5424
  147SAPE  C21616201   5.269   5.838   7.784  0.2667  0.2695 -0.5124
  147SAPE  H16R16202   5.159   5.845   7.783  0.2364 -0.1506 -1.6879
  147SAPE  H16S16203   5.307   5.919   7.718  0.8464  0.4628  0.0540
  147SAPE  C21716204   5.309   5.855   7.931 -0.9298  0.3377 -0.3592
  147SAPE  H17R16205   5.259   5.947   7.966 -0.4219  0.5376 -0.1495
  147SAPE  H17S16206   5.418   5.875   7.934 -1.0105  0.7757 -0.3660
  147SAPE  C21816207   5.269   5.741   8.024 -0.2893  0.3391  0.0477
  147SAPE  H18R16208   5.350   5.667   8.005 -0.3267  0.2827  0.1057
  147SAPE  H18S16209   5.183   5.692   7.974  0.4473 -0.8396 -0.1198
  147SAPE  C21916210   5.258   5.770   8.172  0.4079  0.0385  0.9115
  147SAPE  H19R16211   5.210   5.684   8.223  0.6294 -0.5827  0.1012
  147SAPE  H19S16212   5.203   5.866   8.180  0.1120  0.0050 -0.4619
  147SAPE  C22016213   5.395   5.794   8.229  0.7091  0.4637 -0.3468
  147SAPE  H20R16214   5.424   5.897   8.200  1.3118  0.4316  0.1123
  147SAPE  H20S16215   5.475   5.732   8.183 -0.5599 -0.9464 -0.7139
  147SAPE  H20T16216   5.388   5.769   8.337 -3.1693 -2.5021 -1.0481
  147SAPE   C3316217   5.283   5.209   6.594  1.0226  0.1713 -0.1935
  147SAPE   H3X16218   5.394   5.215   6.595  1.1186 -0.3398  3.0254
  147SAPE   H3Y16219   5.262   5.158   6.497  3.0165  2.0995 -1.7305
  147SAPE   C3416220   5.240   5.128   6.718  0.2652 -0.0400 -0.1657
  147SAPE   H4X16221   5.295   5.031   6.720  1.7256  0.6136 -3.1955
  147SAPE   H4Y16222   5.134   5.105   6.692 -0.6568  1.2912  2.1179
  147SAPE   C3516223   5.247   5.203   6.858  0.0165  0.6839  0.4430
  147SAPE   H5X16224   5.180   5.291   6.865  0.6098  1.0494  5.1541
  147SAPE   H5Y16225   5.350   5.245   6.862 -0.2763  1.3903  0.6338
  147SAPE   C3616226   5.222   5.108   6.971  0.1899 -0.0326 -0.4164
  147SAPE   H6X16227   5.285   5.017   6.959  1.0418  0.5595 -0.5321
  147SAPE   H6Y16228   5.119   5.067   6.968  1.4606 -3.4860 -1.6885
  147SAPE   C3716229   5.258   5.166   7.109  0.4522 -0.5973 -0.1542
  147SAPE   H7X16230   5.180   5.243   7.128  0.8831  0.2901 -1.7361
  147SAPE   H7Y16231   5.354   5.221   7.115 -0.7470  1.6747 -0.7249
  147SAPE   C3816232   5.261   5.058   7.219  0.2653 -0.1513  0.5763
  147SAPE   H8X16233   5.344   4.990   7.189 -1.4766 -1.2169 -2.1281
  147SAPE   H8Y16234   5.157   5.021   7.219  0.6580 -1.2950  0.7096
  147SAPE   C3916235   5.286   5.100   7.359  0.1375 -0.1782 -0.0959
  147SAPE   H9X16236   5.207   5.173   7.386 -1.5770 -1.6515 -0.9339
  147SAPE   H9Y16237   5.378   5.162   7.367  1.6748 -2.1469 -1.6010
  147SAPE  C31016238   5.275   4.987   7.466 -0.0162  0.2077 -0.4501
  147SAPE  H10X16239   5.358   4.921   7.433  0.4472  0.4332  0.2546
  147SAPE  H10Y16240   5.178   4.935   7.451  0.4013 -0.5255 -0.6503
  147SAPE  C31116241   5.305   5.035   7.611  0.7544  0.0749  0.3803
  147SAPE  H11X16242   5.393   5.102   7.607  1.5026 -0.9172 -1.5150
  147SAPE  H11Y16243   5.326   4.946   7.675 -0.4021 -0.5718 -0.0877
  147SAPE  C31216244   5.183   5.104   7.683  0.4230 -0.2551  0.2987
  147SAPE  H12X16245   5.099   5.034   7.664  0.9711 -1.5043  2.2206
  147SAPE  H12Y16246   5.144   5.197   7.637 -0.0811 -0.6381 -0.0724
  147SAPE  C31316247   5.220   5.132   7.827  0.3330 -0.6097 -0.1053
  147SAPE  H13X16248   5.259   5.043   7.881  3.5168  0.0319 -1.0894
  147SAPE  H13Y16249   5.124   5.167   7.870  0.8911  0.5118  0.2794
  147SAPE  C31416250   5.325   5.245   7.826 -0.5319 -0.5738 -0.0625
  147SAPE  H14X16251   5.295   5.314   7.745  0.3542 -1.3954 -1.1336
  147SAPE  H14Y16252   5.422   5.203   7.791 -0.8336 -0.6900 -0.7694
  147SAPE  C31516253   5.340   5.332   7.950 -0.4687 -0.0724 -0.3066
  147SAPE  H15X16254   5.240   5.375   7.972 -0.8193 -0.8532 -0.3074
  147SAPE  H15Y16255   5.420   5.408   7.939  0.1739 -0.5318  1.0023
  147SAPE  C31616256   5.368   5.255   8.077 -0.2708  0.1558 -0.3633
  147SAPE  H16X16257   5.463   5.200   8.063 -0.4504  0.5250 -3.8999
  147SAPE  H16Y16258   5.288   5.180   8.096  1.2181 -1.0576  1.4836
  147SAPE  C31716259   5.370   5.357   8.190 -0.9806  0.2618 -0.2537
  147SAPE  H17X16260   5.270   5.407   8.195 -0.0576  2.1354  0.5109
  147SAPE  H17Y16261   5.450   5.428   8.160 -2.0317  1.5447 -0.1240
  147SAPE  C31816262   5.396   5.280   8.319  0.1499  0.1079 -0.7309
  147SAPE  H18X16263   5.309   5.228   8.364  0.3056 -0.0665 -0.6279
  147SAPE  H18Y16264   5.428   5.362   8.387  4.4156 -0.8982 -1.2171
  147SAPE  H18Z16265   5.487   5.217   8.312 -0.7504 -1.3146 -0.0095
  148SAPE     N16266   2.846   5.909   6.554  0.2010  0.4637  0.6780
  148SAPE   HN116267   2.777   5.917   6.632  2.1159  1.0347  2.4338
  148SAPE   HN216268   2.850   6.009   6.526 -1.1737  0.7669  1.4830
  148SAPE   HN316269   2.815   5.847   6.477 -0.1414  0.0924  1.1038
  148SAPE   C1216270   2.985   5.862   6.600 -0.1518  0.5700 -0.5529
  148SAPE  H12A16271   2.966   5.763   6.648  1.7872  0.1187 -0.6539
  148SAPE  H12B16272   3.022   5.936   6.674 -0.0870 -1.0354  1.1136
  148SAPE   C1116273   3.081   5.837   6.487  0.6355 -0.1507  0.5663
  148SAPE  H11A16274   3.111   5.940   6.459 -0.1911 -0.7619 -2.9546
  148SAPE  H11B16275   3.031   5.785   6.403 -2.2824  1.5192  1.1193
  148SAPE     P16276   3.334   5.820   6.562 -0.0479 -0.0379 -0.1773
  148SAPE   O1316277   3.400   5.819   6.435 -0.0598 -0.3169  0.1377
  148SAPE   O1416278   3.329   5.944   6.638 -0.1953 -0.5776 -0.1349
  148SAPE   O1216279   3.187   5.757   6.528  0.4771  0.4416 -0.0660
  148SAPE   O1116280   3.400   5.710   6.653 -0.0458 -0.1034  0.0170
  148SAPE    C116281   3.352   5.578   6.679  0.7249  0.6673  0.4453
  148SAPE    HA16282   3.277   5.551   6.601 -0.6250  2.7669  0.9240
  148SAPE    HB16283   3.439   5.509   6.679 -0.2088 -0.8527  5.1659
  148SAPE    C216284   3.281   5.581   6.814 -0.3823  0.6686  0.9940
  148SAPE    HS16285   3.184   5.636   6.805 -1.0560 -0.7526 -1.2610
  148SAPE   O2116286   3.369   5.646   6.910  0.3723 -0.2881  0.1366
  148SAPE   C2116287   3.314   5.727   6.999 -0.2525 -0.6054  0.4175
  148SAPE   O2216288   3.199   5.760   6.998 -0.0139 -0.1502 -0.1709
  148SAPE   C2216289   3.409   5.771   7.110  0.1311 -1.4118  0.2092
  148SAPE   H2R16290   3.446   5.688   7.173  2.6434 -0.8193 -0.4038
  148SAPE   H2S16291   3.498   5.818   7.063 -0.1924 -1.1550 -0.1545
  148SAPE    C316292   3.238   5.446   6.867  0.3106  0.4315  0.1870
  148SAPE    HX16293   3.330   5.396   6.905 -0.0917 -1.0975 -0.7346
  148SAPE    HY16294   3.192   5.392   6.782 -1.9741  2.5536 -0.0522
  148SAPE   O3116295   3.138   5.472   6.973  0.1993 -0.2535  0.0127
  148SAPE   C3116296   3.098   5.367   7.030  0.3529  0.3604 -0.5884
  148SAPE   O3216297   3.124   5.254   6.995 -0.0719  0.2350  0.0750
  148SAPE   C3216298   3.020   5.407   7.157 -0.7171  0.1534 -0.1749
  148SAPE   H2X16299   2.927   5.347   7.149 -1.3037  1.1341 -0.8569
  148SAPE   H2Y16300   2.996   5.515   7.145  0.2368  0.3353 -0.5291
  148SAPE   C2316301   3.345   5.881   7.204  0.3823  0.3167  0.3265
  148SAPE   H3R16302   3.243   5.845   7.232  1.3144 -0.5876  2.8773
  148SAPE   H3S16303   3.337   5.981   7.157  1.8891 -0.5119 -1.8105
  148SAPE   C2416304   3.423   5.888   7.334 -0.1037  0.2505 -0.9651
  148SAPE   H4R16305   3.426   5.790   7.387 -0.4154  1.4958  1.4597
  148SAPE   H4S16306   3.375   5.959   7.404  3.3085  1.7521  0.0449
  148SAPE   C2516307   3.562   5.944   7.313 -0.2701 -0.1086 -0.3873
  148SAPE   H5R16308   3.585   5.959   7.207 -1.1987 -2.5149 -0.9854
  148SAPE   C2616309   3.648   5.986   7.410  0.1139 -0.0745 -0.2588
  148SAPE   H6R16310   3.747   6.022   7.381  2.0799 -3.6208  1.3731
  148SAPE   C2716311   3.624   5.977   7.557  0.1513  0.4149  0.7836
  148SAPE   H7R16312   3.711   5.916   7.588  0.9613  1.3738  0.4488
  148SAPE   H7S16313   3.532   5.916   7.566  0.3109  0.2068  0.9969
  148SAPE   C2816314   3.624   6.107   7.616  0.0711  0.0902 -0.8442
  148SAPE   H8R16315   3.571   6.190   7.568 -0.9002 -0.3111 -0.4939
  148SAPE   C2916316   3.671   6.130   7.745 -0.1059 -0.0292  0.0630
  148SAPE   H9R16317   3.646   6.230   7.784  0.4781  0.9238 -1.8319
  148SAPE  C21016318   3.730   6.020   7.831  0.0916 -0.3240 -0.0841
  148SAPE  H10R16319   3.839   6.026   7.810 -0.0031 -1.6818 -1.0427
  148SAPE  H10S16320   3.700   5.923   7.787  2.2535 -1.0797  0.0226
  148SAPE  C21116321   3.694   6.022   7.971 -0.6303 -0.5907 -0.2149
  148SAPE  H11R16322   3.595   6.066   7.991 -0.5055  0.4334 -1.7045
  148SAPE  C21216323   3.769   5.984   8.075  0.0256  1.0306  0.3029
  148SAPE  H12R16324   3.724   5.980   8.176 -0.9984  1.0485 -0.1427
  148SAPE  C21316325   3.908   5.926   8.081  0.0526  0.4191  0.9291
  148SAPE  H13R16326   3.955   5.916   7.980  0.3357 -0.0115  1.0986
  148SAPE  H13S16327   3.897   5.819   8.109 -3.1237  0.3422 -0.2614
  148SAPE  C21416328   4.000   5.994   8.176  0.5715  0.1873 -0.2666
  148SAPE  H14R16329   4.068   6.066   8.127  0.4176  0.2166 -0.4386
  148SAPE  C21516330   4.028   5.945   8.295  0.0582 -0.0873 -0.4674
  148SAPE  H15R16331   4.066   6.020   8.366 -3.4735  3.0024 -1.4708
  148SAPE  C21616332   3.987   5.821   8.374  0.7431 -0.1309  0.5366
  148SAPE  H16R16333   4.077   5.765   8.406  0.7000 -0.5127  0.0035
  148SAPE  H16S16334   3.930   5.752   8.309 -1.0964  1.4179  0.3960
  148SAPE  C21716335   3.887   5.863   8.489  0.1555 -0.7711  0.2781
  148SAPE  H17R16336   3.806   5.927   8.451  0.5872 -1.0931 -1.2592
  148SAPE  H17S16337   3.952   5.924   8.555 -0.0077  0.5223 -0.7175
  148SAPE  C21816338   3.821   5.743   8.556 -0.2343 -0.1488 -0.5153
  148SAPE  H18R16339   3.781   5.687   8.469  0.6770 -0.0065 -1.0369
  148SAPE  H18S16340   3.736   5.776   8.620  0.8201 -0.1988  0.9645
  148SAPE  C21916341   3.903   5.653   8.652 -0.9233 -0.3749  0.2433
  148SAPE  H19R16342   3.913   5.682   8.759 -0.1819  0.1983  0.0268
  148SAPE  H19S16343   4.008   5.644   8.617 -0.5811 -0.8498  1.3478
  148SAPE  C22016344   3.848   5.513   8.653 -0.1367  0.4431  0.2641
  148SAPE  H20R16345   3.924   5.438   8.687 -1.2870  0.0052  1.9958
  148SAPE  H20S16346   3.810   5.476   8.556  0.5686  0.3196  0.0251
  148SAPE  H20T16347   3.771   5.507   8.733 -1.4029 -1.6494 -1.0143
  148SAPE   C3316348   3.097   5.378   7.290  0.2731 -0.6209 -0.0999
  148SAPE   H3X16349   3.115   5.271   7.314  1.8791 -0.1603  0.8651
  148SAPE   H3Y16350   3.030   5.418   7.369 -0.2053  0.7128 -1.1428
  148SAPE   C3416351   3.236   5.452   7.298  0.1013 -0.2494  0.5584
  148SAPE   H4X16352   3.236   5.558   7.267  1.0660 -0.5327 -0.4828
  148SAPE   H4Y16353   3.297   5.388   7.230 -1.0183 -1.1520  0.3614
  148SAPE   C3516354   3.310   5.449   7.435  0.1664 -0.1859  0.3555
  148SAPE   H5X16355   3.408   5.487   7.398 -0.4853 -1.1729 -2.7183
  148SAPE   H5Y16356   3.323   5.346   7.472 -3.1552 -0.9077 -0.1922
  148SAPE   C3616357   3.232   5.542   7.538  0.2899  0.5617  0.0252
  148SAPE   H6X16358   3.137   5.487   7.551  0.4013  0.3603 -0.0029
  148SAPE   H6Y16359   3.218   5.640   7.489 -3.3632  0.0876 -0.1221
  148SAPE   C3716360   3.302   5.563   7.674  0.8405  0.3632 -0.2601
  148SAPE   H7X16361   3.296   5.476   7.743  0.4567  1.9573  1.8386
  148SAPE   H7Y16362   3.240   5.647   7.711  0.2508  0.0968 -0.6312
  148SAPE   C3816363   3.450   5.602   7.655  0.7172 -0.1593  0.2992
  148SAPE   H8X16364   3.463   5.659   7.561  1.1229 -1.0222 -0.1822
  148SAPE   H8Y16365   3.501   5.505   7.633 -1.4940 -0.9057 -1.9134
  148SAPE   C3916366   3.507   5.669   7.774 -0.6684  0.2821 -0.4407
  148SAPE   H9X16367   3.443   5.754   7.806 -0.4035  1.3117 -2.5471
  148SAPE   H9Y16368   3.609   5.709   7.757 -0.6821  1.0784  1.1385
  148SAPE  C31016369   3.516   5.557   7.885  0.1943 -0.0064 -0.5980
  148SAPE  H10X16370   3.593   5.499   7.829  1.3278  1.2938 -0.4428
  148SAPE  H10Y16371   3.417   5.506   7.890  1.6773 -2.9771  2.2443
  148SAPE  C31116372   3.573   5.605   8.018  0.2841  0.4622 -0.3538
  148SAPE  H11X16373   3.647   5.687   8.010  0.3867  0.9419  3.4290
  148SAPE  H11Y16374   3.621   5.516   8.065 -1.3507 -0.5749 -0.5378
  148SAPE  C31216375   3.458   5.644   8.112  0.3330 -0.1099 -0.3168
  148SAPE  H12X16376   3.375   5.569   8.112  0.6718 -0.5210  1.1029
  148SAPE  H12Y16377   3.395   5.728   8.077 -0.6726 -0.5695  0.3533
  148SAPE  C31316378   3.504   5.678   8.254  0.7683 -0.4816 -0.8085
  148SAPE  H13X16379   3.578   5.758   8.235 -0.3985  0.6704 -0.6380
  148SAPE  H13Y16380   3.556   5.596   8.308  0.5149 -0.8802 -1.1591
  148SAPE  C31416381   3.396   5.729   8.348 -0.3434  0.6594 -0.0387
  148SAPE  H14X16382   3.316   5.654   8.361 -0.7066  1.1425  0.6104
  148SAPE  H14Y16383   3.340   5.818   8.312 -1.7045 -0.0657  0.2462
  148SAPE  C31516384   3.457   5.772   8.487 -0.1021  0.1167  0.4555
  148SAPE  H15X16385   3.536   5.846   8.463 -1.5766  1.6572  0.1758
  148SAPE  H15Y16386   3.504   5.686   8.540  0.4506 -2.1510 -3.3796
  148SAPE  C31616387   3.349   5.848   8.571 -0.3015 -0.0096 -0.2983
  148SAPE  H16X16388   3.304   5.929   8.509  0.3041 -0.9545 -2.0326
  148SAPE  H16Y16389   3.400   5.892   8.660 -0.9529 -1.9346  1.0909
  148SAPE  C31716390   3.235   5.755   8.607  0.3328  0.0428 -1.1516
  148SAPE  H17X16391   3.277   5.666   8.657 -1.8792  0.0871  1.0191
  148SAPE  H17Y16392   3.178   5.729   8.515 -1.6249  0.0092  0.0070
  148SAPE  C31816393   3.130   5.811   8.705  0.0500  0.8926 -0.2919
  148SAPE  H18X16394   3.165   5.820   8.810  0.8727 -0.6581 -0.4083
  148SAPE  H18Y16395   3.045   5.740   8.706  0.8674 -0.1554  1.8412
  148SAPE  H18Z16396   3.098   5.912   8.671  1.2744  1.5395  0.3975
  149SAPE     N16397   1.435   4.570   6.585 -0.4836 -0.4742 -0.3802
  149SAPE   HN116398   1.355   4.570   6.652  2.1980  0.1830  3.1187
  149SAPE   HN216399   1.521   4.592   6.638 -0.7669 -1.0479  0.3265
  149SAPE   HN316400   1.426   4.643   6.511  0.2959 -1.2684 -1.2757
  149SAPE   C1216401   1.444   4.448   6.501  0.1545  0.2718  0.2884
  149SAPE  H12A16402   1.392   4.366   6.556  0.3989 -0.8605 -1.0893
  149SAPE  H12B16403   1.552   4.432   6.478 -0.8397 -2.5802 -3.5991
  149SAPE   C1116404   1.368   4.469   6.367 -0.2271  0.6746  0.1664
  149SAPE  H11A16405   1.384   4.390   6.291 -0.4600 -1.9914  2.7033
  149SAPE  H11B16406   1.409   4.562   6.323  1.0310 -0.8864 -2.1412
  149SAPE     P16407   1.134   4.509   6.287  0.3837 -0.0653 -0.0985
  149SAPE   O1316408   1.196   4.601   6.190 -0.0324  0.2672 -0.1215
  149SAPE   O1416409   1.074   4.385   6.229 -0.4385 -0.1676  0.4100
  149SAPE   O1216410   1.229   4.477   6.404 -0.2505  0.1345 -0.3085
  149SAPE   O1116411   1.013   4.587   6.358  0.3172 -0.0413  0.3228
  149SAPE    C116412   0.966   4.558   6.490  0.2310  0.4059 -0.3056
  149SAPE    HA16413   0.856   4.541   6.489 -0.0968  2.2070  0.4749
  149SAPE    HB16414   1.019   4.469   6.529  0.0582  1.2187  1.8839
  149SAPE    C216415   1.015   4.670   6.582 -0.4279 -0.6377 -0.1336
  149SAPE    HS16416   1.121   4.691   6.557 -0.5115 -1.2217 -1.0087
  149SAPE   O2116417   0.998   4.633   6.718  0.2353  0.2802  0.0655
  149SAPE   C2116418   1.101   4.570   6.771  0.2759 -0.4117 -1.0050
  149SAPE   O2216419   1.197   4.530   6.710  1.1242 -0.3386 -0.4397
  149SAPE   C2216420   1.080   4.560   6.926  0.0278  0.1133  0.5453
  149SAPE   H2R16421   1.076   4.662   6.970 -0.6404 -0.0944  0.9836
  149SAPE   H2S16422   0.981   4.512   6.940  0.1940 -0.4572 -0.1851
  149SAPE    C316423   0.941   4.805   6.568  0.7983 -0.7319 -0.6936
  149SAPE    HX16424   0.840   4.792   6.612 -0.3957  0.9558 -2.7336
  149SAPE    HY16425   0.926   4.828   6.460 -1.1488 -1.5182 -0.6314
  149SAPE   O3116426   0.995   4.905   6.645 -0.3738 -0.3223  0.1292
  149SAPE   C3116427   1.076   4.985   6.583 -0.5395  0.0180 -0.2455
  149SAPE   O3216428   1.114   4.980   6.470  0.0127 -0.7322  0.2287
  149SAPE   C3216429   1.112   5.092   6.674  1.2648  0.4982  0.1961
  149SAPE   H2X16430   1.180   5.164   6.623 -1.9547  1.9812 -2.4049
  149SAPE   H2Y16431   1.153   5.043   6.765  0.2207 -2.3593 -0.7373
  149SAPE   C2316432   1.182   4.478   7.003  0.1467  0.7880 -0.9463
  149SAPE   H3R16433   1.269   4.532   7.046  1.1466 -2.2914  1.2641
  149SAPE   H3S16434   1.228   4.399   6.939  0.8711  0.3526  0.0904
  149SAPE   C2416435   1.116   4.399   7.126  0.4251  0.1381  0.2351
  149SAPE   H4R16436   1.188   4.341   7.188  0.2658 -1.8565 -1.3378
  149SAPE   H4S16437   1.053   4.325   7.071 -0.4638  0.8047  0.3380
  149SAPE   C2516438   1.035   4.487   7.214 -0.4367  0.1500 -0.3296
  149SAPE   H5R16439   0.958   4.539   7.156  0.3748  0.4816 -1.1376
  149SAPE   C2616440   1.053   4.514   7.346 -0.8360  0.3934  0.1338
  149SAPE   H6R16441   0.984   4.584   7.395 -0.1555  0.1568  1.4744
  149SAPE   C2716442   1.150   4.444   7.432  0.4566 -0.2281 -0.4257
  149SAPE   H7R16443   1.235   4.515   7.440 -0.4426  0.9503 -1.0764
  149SAPE   H7S16444   1.185   4.346   7.392 -1.5023 -0.0762 -2.7472
  149SAPE   C2816445   1.089   4.425   7.571  0.0474  0.3373  0.4412
  149SAPE   H8R16446   0.979   4.425   7.576  0.0102 -0.4245 -0.1707
  149SAPE   C2916447   1.150   4.420   7.693 -0.3099  0.2996  0.6069
  149SAPE   H9R16448   1.078   4.416   7.776 -1.1838 -0.6619 -0.1788
  149SAPE  C21016449   1.304   4.428   7.703 -0.0414  0.4136 -0.4728
  149SAPE  H10R16450   1.334   4.533   7.723  2.2943  0.0722 -1.7931
  149SAPE  H10S16451   1.350   4.406   7.605  2.5513  3.2805 -0.0322
  149SAPE  C21116452   1.342   4.333   7.815 -0.5571 -0.7940  0.1196
  149SAPE  H11R16453   1.329   4.226   7.791  0.5957 -1.1307  0.9097
  149SAPE  C21216454   1.406   4.368   7.927 -0.7639 -0.2086 -0.3031
  149SAPE  H12R16455   1.443   4.290   7.995  0.5152  2.1712  1.8715
  149SAPE  C21316456   1.453   4.501   7.975 -0.3766  0.6206 -0.4459
  149SAPE  H13R16457   1.399   4.574   7.911  0.5812  0.0677 -1.9233
  149SAPE  H13S16458   1.560   4.520   7.949 -0.2286 -0.4497 -0.6386
  149SAPE  C21416459   1.423   4.529   8.119  0.3036 -0.5128 -0.1013
  149SAPE  H14R16460   1.317   4.540   8.146  0.6585 -1.6250  2.0052
  149SAPE  C21516461   1.505   4.530   8.223  0.2549  0.3918 -0.9916
  149SAPE  H15R16462   1.460   4.540   8.322  3.1180  0.0717  0.4449
  149SAPE  C21616463   1.654   4.527   8.227 -1.0167  0.2124 -0.2240
  149SAPE  H16R16464   1.701   4.491   8.133  0.5483  1.2475  0.1047
  149SAPE  H16S16465   1.691   4.459   8.306  1.3227 -1.1165 -2.3107
  149SAPE  C21716466   1.734   4.655   8.244 -0.6000 -0.2035 -0.5036
  149SAPE  H17R16467   1.709   4.714   8.153  2.0512  0.3043 -0.9783
  149SAPE  H17S16468   1.842   4.641   8.222 -0.4031  1.2568 -0.5401
  149SAPE  C21816469   1.714   4.711   8.380  0.0400 -0.2804  0.8335
  149SAPE  H18R16470   1.738   4.630   8.452  1.7141  0.3996  1.0650
  149SAPE  H18S16471   1.611   4.753   8.390 -0.1562  0.0531 -1.9415
  149SAPE  C21916472   1.794   4.834   8.414  0.2493  0.5948  0.6914
  149SAPE  H19R16473   1.895   4.810   8.453  0.7257  0.1048 -0.8005
  149SAPE  H19S16474   1.748   4.882   8.503 -1.5118  2.3627 -1.0684
  149SAPE  C22016475   1.815   4.948   8.314  0.2643  0.6801  0.0260
  149SAPE  H20R16476   1.723   5.011   8.317  0.2593  0.6392  1.1999
  149SAPE  H20S16477   1.839   4.917   8.210  0.0680  1.0853 -0.1424
  149SAPE  H20T16478   1.901   5.014   8.338  0.5824  1.2751 -2.4852
  149SAPE   C3316479   0.986   5.180   6.719 -0.1319  0.0833 -0.7822
  149SAPE   H3X16480   0.907   5.111   6.757  1.6102 -1.9920 -0.7823
  149SAPE   H3Y16481   0.951   5.237   6.630  1.3948  1.9354 -0.2529
  149SAPE   C3416482   1.035   5.269   6.830 -0.3387 -0.4226  0.4263
  149SAPE   H4X16483   1.101   5.348   6.790 -2.1542  1.0124  0.1443
  149SAPE   H4Y16484   1.091   5.207   6.904  0.8513  1.4459  1.1586
  149SAPE   C3516485   0.921   5.348   6.905  0.4185  0.2539 -0.4390
  149SAPE   H5X16486   0.847   5.275   6.943  1.8352  0.3505  2.8123
  149SAPE   H5Y16487   0.877   5.414   6.827  1.9565 -0.2911 -1.8286
  149SAPE   C3616488   0.965   5.421   7.029 -0.2265  0.1045 -0.0643
  149SAPE   H6X16489   0.884   5.489   7.064  0.8078  0.2762  2.1851
  149SAPE   H6Y16490   1.057   5.479   7.007 -0.0189 -0.8601 -1.9519
  149SAPE   C3716491   0.998   5.332   7.157  0.0330  0.6888  0.8368
  149SAPE   H7X16492   1.088   5.277   7.123 -0.1049  1.0866 -0.2090
  149SAPE   H7Y16493   0.906   5.271   7.167  0.9301 -0.8948 -0.1626
  149SAPE   C3816494   1.046   5.413   7.284 -0.4700  0.4690  0.2164
  149SAPE   H8X16495   0.962   5.483   7.297 -3.1376 -1.5876 -3.7323
  149SAPE   H8Y16496   1.142   5.462   7.254 -0.5171  0.2542 -0.3044
  149SAPE   C3916497   1.059   5.332   7.406 -0.3008  0.3423  0.2377
  149SAPE   H9X16498   1.144   5.260   7.396 -0.8855 -0.3518  0.1238
  149SAPE   H9Y16499   0.961   5.285   7.426 -0.4559 -0.7692 -2.5813
  149SAPE  C31016500   1.106   5.429   7.511  0.4011  0.3982  0.5977
  149SAPE  H10X16501   1.052   5.526   7.506 -1.6139 -0.7354 -0.7717
  149SAPE  H10Y16502   1.213   5.451   7.489 -0.2509  1.5832 -1.7649
  149SAPE  C31116503   1.089   5.371   7.656 -0.3522  0.3393 -0.8473
  149SAPE  H11X16504   1.114   5.262   7.654  0.0768  0.4420 -1.5189
  149SAPE  H11Y16505   0.984   5.380   7.690 -0.1394 -0.3087  0.0238
  149SAPE  C31216506   1.192   5.436   7.749 -0.4693  0.0993 -0.2121
  149SAPE  H12X16507   1.156   5.540   7.762 -0.6905 -0.0498  0.4256
  149SAPE  H12Y16508   1.292   5.439   7.700  0.2697  1.4568  1.2927
  149SAPE  C31316509   1.192   5.376   7.882 -0.3947  0.3258 -0.8037
  149SAPE  H13X16510   1.229   5.271   7.876  0.2932  0.3081  2.1914
  149SAPE  H13Y16511   1.093   5.382   7.931  1.0721 -0.4046  2.5143
  149SAPE  C31416512   1.279   5.457   7.978 -0.2053 -0.3721  0.2350
  149SAPE  H14X16513   1.248   5.562   7.966 -2.5875 -1.0542 -0.0508
  149SAPE  H14Y16514   1.378   5.456   7.927 -0.2734  2.0227 -0.0510
  149SAPE  C31516515   1.277   5.429   8.124  0.6762 -1.0015 -0.0705
  149SAPE  H15X16516   1.346   5.498   8.176 -1.6615  1.0109  0.5802
  149SAPE  H15Y16517   1.298   5.321   8.139  1.3682 -1.1896 -2.1033
  149SAPE  C31616518   1.141   5.463   8.201 -0.2013 -0.6012  0.5011
  149SAPE  H16X16519   1.074   5.375   8.185 -1.1191  0.3543 -1.2764
  149SAPE  H16Y16520   1.104   5.558   8.155  0.4050  0.4710  2.1508
  149SAPE  C31716521   1.157   5.484   8.353  0.3530 -0.4468  0.1860
  149SAPE  H17X16522   1.237   5.560   8.367 -0.3207  0.4410 -0.5907
  149SAPE  H17Y16523   1.187   5.382   8.385  0.2206 -1.0401 -1.4734
  149SAPE  C31816524   1.020   5.525   8.415 -0.0321 -0.5386 -0.5512
  149SAPE  H18X16525   0.933   5.486   8.358  0.6124 -1.5771 -0.8593
  149SAPE  H18Y16526   1.029   5.635   8.401  3.6872 -0.6829 -0.4666
  149SAPE  H18Z16527   1.025   5.497   8.522 -0.8227  0.1755 -0.3193
  150SAPE     N16528   2.838   5.374   5.973 -0.0121 -0.1200 -0.4531
  150SAPE   HN116529   2.888   5.448   5.920  0.0121 -0.3730 -0.7838
  150SAPE   HN216530   2.909   5.298   5.978  0.0039 -0.0904 -0.2092
  150SAPE   HN316531   2.761   5.337   5.915  0.6568  0.3811 -1.6945
  150SAPE   C1216532   2.803   5.416   6.112  0.7900  0.2732 -0.1646
  150SAPE  H12A16533   2.778   5.330   6.177  0.5755  1.1667  0.9766
  150SAPE  H12B16534   2.707   5.471   6.109  2.0261  2.6177  0.3551
  150SAPE   C1116535   2.916   5.499   6.177  0.1876 -0.1598 -0.6385
  150SAPE  H11A16536   2.920   5.605   6.146 -0.9292  0.1463  0.1984
  150SAPE  H11B16537   3.007   5.446   6.140  0.7789  1.5560 -1.7500
  150SAPE     P16538   2.812   5.560   6.406 -0.3308 -0.6283 -0.1719
  150SAPE   O1316539   2.797   5.695   6.354 -0.4231 -1.2623  0.2181
  150SAPE   O1416540   2.691   5.475   6.422  0.2433 -0.0182 -0.4718
  150SAPE   O1216541   2.918   5.488   6.317  0.1085 -0.0805  0.2480
  150SAPE   O1116542   2.878   5.558   6.547  0.5404 -0.1097  0.0402
  150SAPE    C116543   2.907   5.435   6.608 -0.5111 -0.2586  0.1266
  150SAPE    HA16544   2.897   5.343   6.546  0.4481 -0.0789 -0.3186
  150SAPE    HB16545   3.013   5.448   6.639  0.1819 -0.8174 -1.8524
  150SAPE    C216546   2.804   5.422   6.725  0.0079 -0.1911  0.7225
  150SAPE    HS16547   2.705   5.447   6.682  0.5991 -1.1305 -1.2798
  150SAPE   O2116548   2.840   5.517   6.821 -0.1774  0.3105 -0.6630
  150SAPE   C2116549   2.751   5.585   6.894 -0.3719 -0.7453  0.3521
  150SAPE   O2216550   2.630   5.586   6.875  0.3643  0.1911  0.4349
  150SAPE   C2216551   2.823   5.688   6.980 -0.2051 -0.8452  0.2697
  150SAPE   H2R16552   2.930   5.657   6.986 -0.0058 -1.0020 -2.5756
  150SAPE   H2S16553   2.818   5.787   6.931  0.4582 -0.3676  1.1474
  150SAPE    C316554   2.800   5.278   6.791  0.0128  0.1224  0.1497
  150SAPE    HX16555   2.903   5.240   6.811 -0.5953 -1.0983  1.1043
  150SAPE    HY16556   2.766   5.208   6.712  1.7243  0.4337 -0.9215
  150SAPE   O3116557   2.720   5.273   6.910 -0.2584 -0.7334  0.4615
  150SAPE   C3116558   2.593   5.258   6.890  0.3189 -0.0254  0.7615
  150SAPE   O3216559   2.538   5.246   6.780  0.1304  0.3859  0.4257
  150SAPE   C3216560   2.522   5.247   7.029  0.5076  0.4618  0.8510
  150SAPE   H2X16561   2.586   5.192   7.102 -0.8231 -0.2831  1.4848
  150SAPE   H2Y16562   2.424   5.197   7.014 -1.1804  3.0047  2.5651
  150SAPE   C2316563   2.739   5.710   7.103 -0.4819  0.0580 -0.0058
  150SAPE   H3R16564   2.733   5.611   7.153  0.7424 -0.6595 -1.1975
  150SAPE   H3S16565   2.634   5.736   7.076 -0.1648  0.3209 -1.0451
  150SAPE   C2416566   2.795   5.825   7.189 -0.4396 -0.4594  0.5453
  150SAPE   H4R16567   2.713   5.835   7.264 -1.2419 -0.3031 -0.3355
  150SAPE   H4S16568   2.788   5.917   7.127  1.4471  0.5333  1.7090
  150SAPE   C2516569   2.927   5.804   7.258 -1.0817 -0.2880 -0.2009
  150SAPE   H5R16570   3.004   5.820   7.181 -2.5734 -0.3852 -1.7583
  150SAPE   C2616571   2.958   5.764   7.385  0.0442  0.0218  0.5411
  150SAPE   H6R16572   3.065   5.766   7.410  0.1867  3.9805  0.2544
  150SAPE   C2716573   2.852   5.723   7.484 -0.1776  0.4049 -0.2305
  150SAPE   H7R16574   2.750   5.726   7.440 -0.1237 -0.3546 -0.4233
  150SAPE   H7S16575   2.848   5.796   7.568 -0.0153 -0.2552  0.3678
  150SAPE   C2816576   2.861   5.587   7.547 -0.1522  0.6132 -0.1101
  150SAPE   H8R16577   2.866   5.501   7.479  1.2259  0.4115  0.2210
  150SAPE   C2916578   2.857   5.555   7.682 -0.4300 -0.1302  0.5802
  150SAPE   H9R16579   2.870   5.451   7.713  1.2135  0.0838  0.7154
  150SAPE  C21016580   2.844   5.651   7.802 -0.9789  1.1114  0.6846
  150SAPE  H10R16581   2.758   5.606   7.856 -0.7939 -0.7701 -0.5035
  150SAPE  H10S16582   2.823   5.757   7.779  0.5702  1.0459 -1.3112
  150SAPE  C21116583   2.961   5.641   7.900  0.2619 -0.7906  0.1525
  150SAPE  H11R16584   2.968   5.548   7.959 -1.3547  0.0598  1.7658
  150SAPE  C21216585   3.052   5.737   7.935  0.4390 -0.2895  0.3447
  150SAPE  H12R16586   3.128   5.710   8.010  0.1555  1.1439  1.1805
  150SAPE  C21316587   3.062   5.881   7.871  0.8114  0.0076 -0.9113
  150SAPE  H13R16588   3.022   5.952   7.947  3.6249  0.2132  0.4961
  150SAPE  H13S16589   2.987   5.889   7.789 -0.4464 -0.3497  0.1662
  150SAPE  C21416590   3.199   5.920   7.847 -0.4180 -0.2403  0.5520
  150SAPE  H14R16591   3.276   5.881   7.914 -0.7536 -1.7822  0.0835
  150SAPE  C21516592   3.256   5.956   7.726  0.6961  0.1889 -0.1740
  150SAPE  H15R16593   3.363   5.976   7.710  1.1263 -2.1941 -0.6504
  150SAPE  C21616594   3.181   5.977   7.594 -0.3064 -0.3806 -1.2882
  150SAPE  H16R16595   3.073   5.962   7.611  0.2140 -1.6633  1.3460
  150SAPE  H16S16596   3.221   5.904   7.520 -0.1940 -0.3956 -1.2130
  150SAPE  C21716597   3.216   6.127   7.562  0.2561  0.5267 -0.7517
  150SAPE  H17R16598   3.327   6.130   7.562  0.2885  0.4905  1.0673
  150SAPE  H17S16599   3.185   6.198   7.642 -1.0998 -0.0927 -0.7028
  150SAPE  C21816600   3.143   6.170   7.431 -0.5831 -0.1166 -0.4262
  150SAPE  H18R16601   3.040   6.129   7.423 -0.7767 -0.0039  1.1020
  150SAPE  H18S16602   3.198   6.129   7.344  1.2414 -2.1287  1.5813
  150SAPE  C21916603   3.140   6.327   7.415  0.3044  0.5103  0.2345
  150SAPE  H19R16604   3.135   6.348   7.305 -1.5962 -0.5684  0.0694
  150SAPE  H19S16605   3.236   6.360   7.460 -0.6383  0.3656  2.4673
  150SAPE  C22016606   3.014   6.384   7.480  0.4212 -0.3728 -0.2242
  150SAPE  H20R16607   3.007   6.376   7.591 -3.6184  1.4906 -0.1342
  150SAPE  H20S16608   2.919   6.337   7.447  0.1596 -1.9250  2.4375
  150SAPE  H20T16609   3.003   6.491   7.454 -1.8940 -0.4888  0.0033
  150SAPE   C3316610   2.499   5.385   7.084 -0.5116  0.0915 -0.0669
  150SAPE   H3X16611   2.460   5.454   7.007  0.1472  2.1623  1.3683
  150SAPE   H3Y16612   2.595   5.436   7.106 -1.1984  0.4373  2.4744
  150SAPE   C3416613   2.409   5.379   7.214 -0.5572  0.2404  0.3934
  150SAPE   H4X16614   2.320   5.315   7.202  1.5819 -2.8016 -0.3613
  150SAPE   H4Y16615   2.375   5.484   7.232  0.2669  0.9379 -1.7107
  150SAPE   C3516616   2.498   5.329   7.335 -0.4270  0.2959  0.2618
  150SAPE   H5X16617   2.594   5.385   7.340 -0.3089  0.3011 -1.4052
  150SAPE   H5Y16618   2.522   5.225   7.304 -0.1524  0.4842 -0.1694
  150SAPE   C3616619   2.432   5.333   7.465 -0.7459  0.3286  0.0939
  150SAPE   H6X16620   2.345   5.265   7.452 -1.3944  0.9526  1.0192
  150SAPE   H6Y16621   2.393   5.437   7.481 -1.6153  0.1465 -0.7082
  150SAPE   C3716622   2.513   5.300   7.587 -0.2593  0.3275 -0.2273
  150SAPE   H7X16623   2.452   5.284   7.678  3.3278 -0.1787  2.3122
  150SAPE   H7Y16624   2.590   5.378   7.607  0.4038 -0.1529 -0.8780
  150SAPE   C3816625   2.595   5.171   7.572  1.1292 -0.3265  0.1850
  150SAPE   H8X16626   2.669   5.194   7.492 -1.1222  1.0474 -1.5987
  150SAPE   H8Y16627   2.522   5.089   7.552  1.6060 -1.3041  2.1428
  150SAPE   C3916628   2.674   5.153   7.707 -0.5792  0.5132 -0.4031
  150SAPE   H9X16629   2.731   5.245   7.733 -0.3614  0.1885  0.3040
  150SAPE   H9Y16630   2.758   5.081   7.707  0.1185  1.0714  3.5897
  150SAPE  C31016631   2.588   5.109   7.830 -0.3848  0.2783  0.5835
  150SAPE  H10X16632   2.515   5.033   7.795  0.0526  0.9321 -1.9197
  150SAPE  H10Y16633   2.533   5.197   7.869 -1.8047  0.7909 -2.3426
  150SAPE  C31116634   2.665   5.058   7.948 -0.0085 -0.0542 -0.2795
  150SAPE  H11X16635   2.753   5.116   7.980  0.9849 -0.6329 -1.8282
  150SAPE  H11Y16636   2.705   4.957   7.924 -1.0741 -0.6058  0.2013
  150SAPE  C31216637   2.574   5.025   8.069 -0.3206 -0.1685 -0.7682
  150SAPE  H12X16638   2.487   4.965   8.037 -1.0177 -0.8396  2.1109
  150SAPE  H12Y16639   2.533   5.121   8.107 -0.7052 -0.6905  0.1537
  150SAPE  C31316640   2.639   4.946   8.181  0.8665 -0.6403  0.5694
  150SAPE  H13X16641   2.674   4.848   8.144  1.5571 -0.5630  1.0025
  150SAPE  H13Y16642   2.559   4.946   8.258  0.1978  1.1342 -0.0610
  150SAPE  C31416643   2.766   5.011   8.250  0.1554  1.1437  0.0216
  150SAPE  H14X16644   2.736   5.118   8.262 -0.7053  0.8988  0.1405
  150SAPE  H14Y16645   2.849   5.006   8.176 -0.0417  0.6805 -0.1720
  150SAPE  C31516646   2.799   4.943   8.387 -0.1289 -0.2726  0.1143
  150SAPE  H15X16647   2.841   4.844   8.361 -2.6917 -1.1170 -1.0915
  150SAPE  H15Y16648   2.709   4.933   8.450  0.7182 -1.1608  1.2375
  150SAPE  C31616649   2.884   5.022   8.483 -0.1425  0.4142 -0.0643
  150SAPE  H16X16650   2.853   5.129   8.474 -0.5515  0.3025  0.0129
  150SAPE  H16Y16651   2.991   5.030   8.452  0.4816  0.7505  1.9970
  150SAPE  C31716652   2.876   4.985   8.635  0.0742 -0.5347  0.7823
  150SAPE  H17X16653   2.923   4.884   8.630 -0.5228 -0.7648 -2.8770
  150SAPE  H17Y16654   2.771   4.957   8.659 -0.1474 -0.1098  0.3449
  150SAPE  C31816655   2.928   5.087   8.730 -1.2500  0.0886 -0.1560
  150SAPE  H18X16656   3.034   5.116   8.717 -1.2593  0.7618  1.0925
  150SAPE  H18Y16657   2.914   5.048   8.833 -0.2304  0.8155  0.2687
  150SAPE  H18Z16658   2.865   5.178   8.725 -0.4010  0.6543 -0.6811
  151SAPE     N16659   4.247   3.911   6.165  0.3657 -0.3299  0.3720
  151SAPE   HN116660   4.247   3.959   6.073 -1.7066 -1.5949 -0.3709
  151SAPE   HN216661   4.338   3.863   6.175  0.2774 -0.5726  0.0240
  151SAPE   HN316662   4.170   3.841   6.156 -0.0868  0.1236  0.6631
  151SAPE   C1216663   4.232   4.006   6.281  0.5844 -0.2035  0.0623
  151SAPE  H12A16664   4.126   4.005   6.314  0.3395  0.3776 -0.6806
  151SAPE  H12B16665   4.263   4.106   6.246 -0.2799 -0.3886 -1.3474
  151SAPE   C1116666   4.324   3.968   6.395 -0.0304 -0.4092  0.8894
  151SAPE  H11A16667   4.322   4.045   6.475 -3.5329  0.8401 -0.2256
  151SAPE  H11B16668   4.429   3.969   6.359 -0.7817  1.4223 -1.4842
  151SAPE     P16669   4.277   3.774   6.567 -0.3436  0.1388 -0.4113
  151SAPE   O1316670   4.142   3.805   6.615 -0.0179 -0.6411 -0.2293
  151SAPE   O1416671   4.319   3.628   6.566 -0.0768  0.5410  0.0141
  151SAPE   O1216672   4.294   3.834   6.424  0.6341  0.2185  0.0692
  151SAPE   O1116673   4.367   3.857   6.673  0.6854 -0.1323  0.0565
  151SAPE    C116674   4.510   3.851   6.679  0.2467 -0.1992  0.5171
  151SAPE    HA16675   4.557   3.760   6.636  0.6148  0.2319 -0.0091
  151SAPE    HB16676   4.558   3.939   6.633  1.3093 -0.7341  0.5734
  151SAPE    C216677   4.563   3.831   6.830 -0.0363 -0.2532 -0.0738
  151SAPE    HS16678   4.538   3.725   6.849  1.2566 -0.6427 -0.4278
  151SAPE   O2116679   4.505   3.932   6.913 -0.9817 -0.0324 -0.9122
  151SAPE   C2116680   4.430   3.888   7.011  0.1680 -0.4399  0.2430
  151SAPE   O2216681   4.398   3.770   7.022 -0.0288 -0.3191 -0.2519
  151SAPE   C2216682   4.393   3.999   7.105 -0.3257  0.4154 -0.3478
  151SAPE   H2R16683   4.372   4.093   7.050  0.6038  0.2740 -0.9646
  151SAPE   H2S16684   4.295   3.966   7.145 -1.3210  3.5476  0.0954
  151SAPE    C316685   4.716   3.843   6.841 -0.0744 -0.3021  0.4699
  151SAPE    HX16686   4.736   3.948   6.813 -1.9938 -0.2519 -0.8581
  151SAPE    HY16687   4.757   3.778   6.761 -0.2889 -0.0674  0.1697
  151SAPE   O3116688   4.768   3.824   6.974  0.6445  0.1576 -0.2717
  151SAPE   C3116689   4.786   3.698   7.006  0.4022  0.7501 -0.3809
  151SAPE   O3216690   4.761   3.601   6.934 -0.1052 -0.4328  0.0366
  151SAPE   C3216691   4.826   3.701   7.156  0.2595  0.8398 -0.4885
  151SAPE   H2X16692   4.767   3.782   7.204  0.9363  0.5836  0.8027
  151SAPE   H2Y16693   4.935   3.721   7.160  0.5134 -0.0090 -2.1179
  151SAPE   C2316694   4.500   4.034   7.218 -0.1069 -0.0102 -0.1406
  151SAPE   H3R16695   4.477   4.130   7.268 -1.7987 -0.7582  0.5869
  151SAPE   H3S16696   4.599   4.044   7.167  0.2795  1.5306  0.8529
  151SAPE   C2416697   4.510   3.923   7.321 -0.4285 -0.7346 -0.2428
  151SAPE   H4R16698   4.524   3.826   7.270  2.9257 -0.5994  0.1773
  151SAPE   H4S16699   4.410   3.912   7.368 -0.2288 -1.9333 -0.0590
  151SAPE   C2516700   4.626   3.950   7.419 -0.0619 -0.1926  0.4345
  151SAPE   H5R16701   4.711   3.993   7.366 -2.1049  2.1521 -1.1620
  151SAPE   C2616702   4.637   3.903   7.545  0.4752  0.0521  0.2567
  151SAPE   H6R16703   4.728   3.933   7.601  2.6840 -1.9613 -2.0188
  151SAPE   C2716704   4.528   3.832   7.611  0.3215  0.2169 -0.1684
  151SAPE   H7R16705   4.459   3.793   7.533  0.8432  1.2451 -1.1743
  151SAPE   H7S16706   4.465   3.910   7.659 -0.0931 -1.3577  1.9980
  151SAPE   C2816707   4.565   3.717   7.703  0.2082  0.4380  0.2425
  151SAPE   H8R16708   4.610   3.631   7.653 -0.8756  0.9151 -1.6720
  151SAPE   C2916709   4.535   3.723   7.836 -0.1891  0.1758  0.0780
  151SAPE   H9R16710   4.562   3.633   7.895  1.1670  1.2773  1.2198
  151SAPE  C21016711   4.480   3.841   7.916 -0.1554 -0.6257 -0.4458
  151SAPE  H10R16712   4.370   3.850   7.905 -0.0697  2.0235  0.3209
  151SAPE  H10S16713   4.521   3.932   7.869  0.2492 -0.4259  0.2833
  151SAPE  C21116714   4.512   3.833   8.063 -0.1474 -0.3498 -0.2447
  151SAPE  H11R16715   4.593   3.903   8.089  0.3246 -0.1852 -2.0299
  151SAPE  C21216716   4.451   3.769   8.172 -1.3569  0.6683  0.3545
  151SAPE  H12R16717   4.496   3.783   8.271 -1.7390  0.9946  0.4871
  151SAPE  C21316718   4.336   3.678   8.160  0.4710 -0.2701 -0.3028
  151SAPE  H13R16719   4.346   3.633   8.059 -0.7277  1.9244 -1.4823
  151SAPE  H13S16720   4.251   3.747   8.141  2.6100  2.3762 -0.9368
  151SAPE  C21416721   4.323   3.576   8.263 -0.1685  0.1418 -0.0357
  151SAPE  H14R16722   4.394   3.493   8.274 -2.3028 -1.4796  4.2033
  151SAPE  C21516723   4.213   3.562   8.345 -0.1755 -0.0143 -0.1006
  151SAPE  H15R16724   4.222   3.496   8.433 -0.0575 -0.9354 -0.7817
  151SAPE  C21616725   4.091   3.656   8.353 -0.1307 -0.3897  0.1632
  151SAPE  H16R16726   4.074   3.709   8.256 -1.6286  0.8463  1.0491
  151SAPE  H16S16727   4.111   3.735   8.429 -0.7424  1.1331 -1.1923
  151SAPE  C21716728   3.959   3.584   8.389 -0.1170 -0.2371  0.5500
  151SAPE  H17R16729   3.975   3.519   8.478  0.3197 -0.5885  0.2211
  151SAPE  H17S16730   3.937   3.513   8.306  0.0454  0.6716 -0.2870
  151SAPE  C21816731   3.851   3.690   8.392 -0.4083  0.6361 -0.1205
  151SAPE  H18R16732   3.867   3.759   8.306  1.7198  2.1367  1.3678
  151SAPE  H18S16733   3.872   3.760   8.476 -2.0882  0.1910  0.7015
  151SAPE  C21916734   3.711   3.624   8.404  0.2184  0.8045 -0.1386
  151SAPE  H19R16735   3.688   3.558   8.317 -2.5680 -1.0620  1.8286
  151SAPE  H19S16736   3.639   3.707   8.388 -2.2228 -1.7072 -3.8031
  151SAPE  C22016737   3.679   3.551   8.533 -0.5705 -0.0313  0.2572
  151SAPE  H20R16738   3.695   3.619   8.619  0.4056  0.4521 -0.2816
  151SAPE  H20S16739   3.572   3.523   8.529 -0.0138 -2.2352 -1.2922
  151SAPE  H20T16740   3.743   3.461   8.547 -0.3419  0.3085  1.4888
  151SAPE   C3316741   4.808   3.570   7.247  0.8609 -0.1661 -0.0441
  151SAPE   H3X16742   4.866   3.483   7.210  0.5625 -0.6347  0.5687
  151SAPE   H3Y16743   4.699   3.549   7.255  0.8086  0.7339  3.1683
  151SAPE   C3416744   4.855   3.600   7.386  0.2470  0.2081 -1.1662
  151SAPE   H4X16745   4.809   3.683   7.443  1.9517 -1.6746  3.4750
  151SAPE   H4Y16746   4.963   3.625   7.388  0.1415  0.6188  0.1951
  151SAPE   C3516747   4.841   3.476   7.481 -0.1960 -0.1142 -0.5750
  151SAPE   H5X16748   4.891   3.386   7.442  0.5403 -0.6497  1.4833
  151SAPE   H5Y16749   4.736   3.439   7.480 -0.4189  0.4999 -0.5513
  151SAPE   C3616750   4.871   3.503   7.629 -0.0378 -0.7541  0.1846
  151SAPE   H6X16751   4.827   3.596   7.672  1.4042 -0.1202  0.3637
  151SAPE   H6Y16752   4.980   3.523   7.640 -0.3296  2.2099 -1.1681
  151SAPE   C3716753   4.823   3.400   7.734  0.2595  0.9790  0.0165
  151SAPE   H7X16754   4.861   3.300   7.702 -1.2976  0.4170 -0.1743
  151SAPE   H7Y16755   4.714   3.379   7.740  0.5610 -0.3355  1.8578
  151SAPE   C3816756   4.865   3.427   7.873 -0.7084 -0.3893  0.4122
  151SAPE   H8X16757   4.833   3.527   7.909  1.4084  0.4591  0.1032
  151SAPE   H8Y16758   4.975   3.413   7.886 -0.6308 -3.3989 -2.1351
  151SAPE   C3916759   4.800   3.334   7.972  0.0306 -0.3319  0.2990
  151SAPE   H9X16760   4.831   3.234   7.934 -0.3402  0.3692 -1.9865
  151SAPE   H9Y16761   4.690   3.324   7.960  0.2757 -1.5249 -1.2002
  151SAPE  C31016762   4.843   3.351   8.114  0.2894 -0.4580 -0.0191
  151SAPE  H10X16763   4.953   3.360   8.108  0.3616 -1.4916 -0.5865
  151SAPE  H10Y16764   4.809   3.258   8.165  1.0839 -1.4384 -1.2372
  151SAPE  C31116765   4.770   3.466   8.179  1.3279 -0.1429 -0.0092
  151SAPE  H11X16766   4.662   3.438   8.180  1.9117 -2.7897 -1.6120
  151SAPE  H11Y16767   4.774   3.561   8.121 -1.8902  0.3751  0.4008
  151SAPE  C31216768   4.806   3.472   8.331 -0.2122 -0.7798  0.1958
  151SAPE  H12X16769   4.913   3.497   8.349 -0.2085 -2.1216  2.2826
  151SAPE  H12Y16770   4.802   3.370   8.374 -0.3083 -0.9041 -0.1062
  151SAPE  C31316771   4.713   3.567   8.400  0.1691 -0.8080  0.1255
  151SAPE  H13X16772   4.616   3.562   8.347  0.1109  1.1496 -0.0374
  151SAPE  H13Y16773   4.743   3.673   8.383  1.4955 -1.0790  0.6244
  151SAPE  C31416774   4.679   3.535   8.546 -0.0699 -0.2037 -0.8337
  151SAPE  H14X16775   4.770   3.534   8.609  2.2172 -1.4962 -3.9116
  151SAPE  H14Y16776   4.625   3.438   8.551 -1.4709  0.5775 -0.3156
  151SAPE  C31516777   4.575   3.637   8.596 -0.2805 -0.3863 -0.2800
  151SAPE  H15X16778   4.486   3.637   8.529 -0.8096  1.7953  0.3632
  151SAPE  H15Y16779   4.612   3.741   8.590 -2.1530  0.7918  4.1838
  151SAPE  C31616780   4.518   3.615   8.735  0.5609  0.6387  0.7648
  151SAPE  H16X16781   4.601   3.584   8.802 -0.7684 -0.9658  1.7708
  151SAPE  H16Y16782   4.448   3.529   8.728 -1.7605  2.5712 -1.5610
  151SAPE  C31716783   4.439   3.734   8.795  0.1633 -0.4701 -0.4387
  151SAPE  H17X16784   4.431   3.695   8.899  1.7993 -0.7240 -0.3872
  151SAPE  H17Y16785   4.337   3.750   8.754 -0.3405  0.5878  1.1112
  151SAPE  C31816786   4.517   3.868   8.806 -0.2765  0.6511 -0.6161
  151SAPE  H18X16787   4.469   3.944   8.870 -0.9641 -0.2102 -0.0780
  151SAPE  H18Y16788   4.533   3.921   8.710  2.2620  2.2963  0.6164
  151SAPE  H18Z16789   4.617   3.849   8.852 -0.2127  0.8522 -0.6736
  152SAPE     N16790   1.237   2.603   5.866  0.2337  0.5054 -0.4085
  152SAPE   HN116791   1.196   2.512   5.895  0.8885  0.7483  1.4192
  152SAPE   HN216792   1.181   2.632   5.784 -0.6194  0.0224 -0.0165
  152SAPE   HN316793   1.338   2.586   5.849  0.3198 -0.1532  0.6283
  152SAPE   C1216794   1.211   2.692   5.983  0.4428 -0.1490 -0.4093
  152SAPE  H12A16795   1.123   2.640   6.026  0.4777 -0.6537 -0.9353
  152SAPE  H12B16796   1.188   2.793   5.944 -2.0725 -0.9144 -1.1395
  152SAPE   C1116797   1.334   2.685   6.080  0.1361  0.1060 -0.1145
  152SAPE  H11A16798   1.284   2.720   6.173 -0.1534 -0.0627 -0.2040
  152SAPE  H11B16799   1.410   2.756   6.042 -1.3923  2.5276  1.1083
  152SAPE     P16800   1.452   2.498   6.223  0.2571  0.1123  0.1665
  152SAPE   O1316801   1.478   2.354   6.217 -0.5862  0.2999  1.0180
  152SAPE   O1416802   1.563   2.591   6.245 -0.1191 -0.4640 -0.5871
  152SAPE   O1216803   1.379   2.549   6.092 -0.0088 -0.0075 -0.3502
  152SAPE   O1116804   1.356   2.524   6.339  0.6631  0.1566  0.3846
  152SAPE    C116805   1.222   2.481   6.338 -0.4090  0.1240 -0.5284
  152SAPE    HA16806   1.171   2.535   6.255  1.2442 -0.8803 -2.2842
  152SAPE    HB16807   1.211   2.372   6.316  0.2541 -0.0805  0.1316
  152SAPE    C216808   1.139   2.527   6.465 -0.7614  0.2857 -0.0907
  152SAPE    HS16809   1.035   2.521   6.427 -0.4888  1.6580 -1.1228
  152SAPE   O2116810   1.174   2.665   6.484  0.4935 -0.0188 -0.0807
  152SAPE   C2116811   1.089   2.742   6.552  0.0281 -0.5284  0.3038
  152SAPE   O2216812   0.973   2.716   6.574  0.1351  0.2496 -0.2356
  152SAPE   C2216813   1.161   2.872   6.584  0.3495  0.5412 -0.7462
  152SAPE   H2R16814   1.256   2.834   6.628  0.1363  1.1792  0.3058
  152SAPE   H2S16815   1.188   2.937   6.498  0.5908 -0.1239 -1.1827
  152SAPE    C316816   1.163   2.445   6.593 -0.8791  0.1175  0.4063
  152SAPE    HX16817   1.272   2.430   6.608 -1.2273 -1.1381  1.9814
  152SAPE    HY16818   1.132   2.339   6.594  1.2066 -0.5450  1.4010
  152SAPE   O3116819   1.099   2.511   6.705  0.3369  0.8961  0.3973
  152SAPE   C3116820   0.986   2.450   6.756 -0.5363  0.9395 -0.2753
  152SAPE   O3216821   0.954   2.334   6.729  0.4404  0.2767 -0.3467
  152SAPE   C3216822   0.910   2.536   6.857 -0.0380  0.6568  0.1167
  152SAPE   H2X16823   0.806   2.531   6.816  0.5522  1.1957 -1.5371
  152SAPE   H2Y16824   0.954   2.637   6.866 -2.0531  1.4339  2.3246
  152SAPE   C2316825   1.084   2.955   6.692  0.2090  0.1195 -0.3885
  152SAPE   H3R16826   1.054   2.894   6.780  2.7291  0.8831  1.1268
  152SAPE   H3S16827   0.988   2.987   6.647  2.2577  1.3029 -4.4632
  152SAPE   C2416828   1.166   3.073   6.741 -0.2516  0.3751 -0.5206
  152SAPE   H4R16829   1.204   3.119   6.648  0.0565  1.7571  0.2708
  152SAPE   H4S16830   1.254   3.027   6.791 -0.9356 -1.9037 -1.2885
  152SAPE   C2516831   1.107   3.177   6.827  0.5425 -0.1806 -0.1773
  152SAPE   H5R16832   1.112   3.277   6.782  0.0509 -0.4677 -0.8725
  152SAPE   C2616833   1.054   3.164   6.956 -0.4337 -0.4063  0.2739
  152SAPE   H6R16834   0.999   3.245   7.007 -2.9896 -3.0228  1.9721
  152SAPE   C2716835   1.060   3.035   7.034 -0.0402  0.0009  0.8984
  152SAPE   H7R16836   1.130   3.041   7.120 -0.6966 -2.6094  1.7190
  152SAPE   H7S16837   1.104   2.949   6.979  0.0767  0.2720  0.5717
  152SAPE   C2816838   0.928   2.984   7.080 -0.1252  0.2670  0.8535
  152SAPE   H8R16839   0.867   2.970   6.989 -0.5403  1.3990  0.9387
  152SAPE   C2916840   0.885   2.950   7.203 -0.1793  0.2731  0.3507
  152SAPE   H9R16841   0.783   2.918   7.230 -0.0858  0.3242  0.7719
  152SAPE  C21016842   0.973   2.952   7.331 -0.0063  0.1955 -0.0095
  152SAPE  H10R16843   1.073   2.909   7.309 -0.2288 -0.5774  0.4481
  152SAPE  H10S16844   0.922   2.885   7.403  1.2845 -0.1116  0.6469
  152SAPE  C21116845   1.004   3.091   7.389  0.8722  0.1938 -0.3759
  152SAPE  H11R16846   1.027   3.163   7.309 -1.4591  0.8768 -0.4929
  152SAPE  C21216847   1.003   3.129   7.521 -0.6238 -0.1425 -0.8417
  152SAPE  H12R16848   1.033   3.230   7.553 -0.4418 -0.9796  1.8653
  152SAPE  C21316849   0.975   3.039   7.633  0.2242  0.2710 -0.8130
  152SAPE  H13R16850   1.062   2.973   7.613 -1.2416 -1.5054 -1.5524
  152SAPE  H13S16851   0.878   2.987   7.617  0.4827 -1.3540  2.1995
  152SAPE  C21416852   0.977   3.108   7.768  0.1178  0.2309  0.6431
  152SAPE  H14R16853   0.968   3.217   7.772 -1.7941  0.2413 -1.6106
  152SAPE  C21516854   0.963   3.040   7.888  0.3429 -0.3482  0.9347
  152SAPE  H15R16855   0.980   3.103   7.977 -0.3764  1.4629 -0.1622
  152SAPE  C21616856   0.966   2.892   7.886  0.2557 -0.0080 -0.1107
  152SAPE  H16R16857   0.906   2.853   7.801  1.6777  0.3046 -1.3081
  152SAPE  H16S16858   0.918   2.852   7.977  1.8935 -0.5290  0.5590
  152SAPE  C21716859   1.108   2.835   7.877 -0.3167 -0.1770 -0.5697
  152SAPE  H17R16860   1.167   2.901   7.811  0.6641 -0.7839 -0.3091
  152SAPE  H17S16861   1.110   2.726   7.854  1.3353 -1.1260  3.2372
  152SAPE  C21816862   1.175   2.836   8.013 -0.2282  0.6419 -0.5125
  152SAPE  H18R16863   1.119   2.785   8.095 -0.5553  1.9256  0.0810
  152SAPE  H18S16864   1.186   2.941   8.048  2.6048  0.3395 -0.2892
  152SAPE  C21916865   1.321   2.780   8.013  0.7617  0.8408  0.5420
  152SAPE  H19R16866   1.345   2.706   7.933  1.2559 -0.3576  1.7536
  152SAPE  H19S16867   1.333   2.714   8.101  2.0756  0.2626 -0.0404
  152SAPE  C22016868   1.424   2.893   8.007 -0.0114  0.3620 -0.0553
  152SAPE  H20R16869   1.391   2.970   8.080 -2.1108 -0.9428  0.4704
  152SAPE  H20S16870   1.431   2.924   7.901 -0.1763  2.4357  0.4962
  152SAPE  H20T16871   1.524   2.851   8.031  0.9055  1.4210 -1.8646
  152SAPE   C3316872   0.920   2.471   6.999 -0.1722 -0.0263  0.2125
  152SAPE   H3X16873   1.026   2.451   7.027  0.4373 -0.4956 -2.1943
  152SAPE   H3Y16874   0.871   2.371   7.000  1.5769 -0.9189  0.1309
  152SAPE   C3416875   0.873   2.575   7.110 -0.2722 -0.0950 -0.0186
  152SAPE   H4X16876   0.762   2.575   7.105 -0.2938 -0.3443  0.3941
  152SAPE   H4Y16877   0.906   2.676   7.077  0.7587 -0.7778 -1.1162
  152SAPE   C3516878   0.916   2.539   7.248  1.2424 -0.5554 -0.2006
  152SAPE   H5X16879   0.877   2.438   7.272  0.2215  0.3699  2.3429
  152SAPE   H5Y16880   0.871   2.605   7.326  3.1419  2.1890 -1.2452
  152SAPE   C3616881   1.061   2.550   7.283  0.5655 -0.0095  0.2096
  152SAPE   H6X16882   1.069   2.658   7.259  0.4534  0.2910  1.4848
  152SAPE   H6Y16883   1.117   2.487   7.210 -2.1909 -0.7880 -1.3818
  152SAPE   C3716884   1.100   2.512   7.431  1.0708  0.2144 -0.0727
  152SAPE   H7X16885   1.196   2.560   7.458  0.6563 -0.0090  2.0358
  152SAPE   H7Y16886   1.112   2.401   7.436  0.4828  0.1914  1.2674
  152SAPE   C3816887   0.992   2.550   7.533  0.1645 -0.0424 -0.1782
  152SAPE   H8X16888   0.894   2.503   7.508  0.8372 -1.6650  0.0856
  152SAPE   H8Y16889   0.980   2.660   7.537  2.0499  0.1527  1.9373
  152SAPE   C3916890   1.031   2.500   7.679 -0.1431  0.0064  0.5003
  152SAPE   H9X16891   1.126   2.549   7.709 -0.2072  0.9615 -0.7774
  152SAPE   H9Y16892   1.050   2.391   7.667 -2.2793 -0.3475 -0.1226
  152SAPE  C31016893   0.926   2.520   7.784  0.6270  0.5736 -0.0013
  152SAPE  H10X16894   0.834   2.465   7.755  1.3160 -1.1319  0.8980
  152SAPE  H10Y16895   0.906   2.629   7.793  1.7834  0.7041  1.1914
  152SAPE  C31116896   0.970   2.455   7.920  0.2471 -0.4303  0.4102
  152SAPE  H11X16897   1.058   2.517   7.948 -0.8786  0.9855  0.9515
  152SAPE  H11Y16898   1.012   2.354   7.904  1.6539  0.4715 -2.0657
  152SAPE  C31216899   0.868   2.472   8.035 -0.7599  0.0077  0.0478
  152SAPE  H12X16900   0.775   2.419   8.005 -1.1460  1.2952 -1.1622
  152SAPE  H12Y16901   0.844   2.580   8.042  0.2368  0.2987 -0.7713
  152SAPE  C31316902   0.929   2.412   8.165 -0.2398 -0.6761  0.3423
  152SAPE  H13X16903   0.935   2.301   8.165  0.9617 -0.6519 -1.7116
  152SAPE  H13Y16904   0.858   2.437   8.248 -0.6222  0.0328 -0.1893
  152SAPE  C31416905   1.046   2.494   8.208 -0.5871  0.1090 -0.4347
  152SAPE  H14X16906   1.017   2.600   8.191 -0.9810 -0.2867 -2.5045
  152SAPE  H14Y16907   1.130   2.484   8.135  1.0794 -1.3060  1.5701
  152SAPE  C31516908   1.093   2.454   8.347 -0.3479 -0.0796 -0.0749
  152SAPE  H15X16909   1.119   2.346   8.340  2.0627  0.2891  1.6130
  152SAPE  H15Y16910   1.019   2.468   8.428 -0.3353 -1.0668  0.1162
  152SAPE  C31616911   1.225   2.524   8.395  0.1515 -0.1886  0.3732
  152SAPE  H16X16912   1.308   2.509   8.324 -0.3342 -0.8867 -0.0580
  152SAPE  H16Y16913   1.250   2.472   8.490  0.6105 -0.8161 -0.0883
  152SAPE  C31716914   1.203   2.670   8.428 -0.0087 -0.6594 -0.3501
  152SAPE  H17X16915   1.114   2.686   8.492 -0.2623 -1.0597 -0.5987
  152SAPE  H17Y16916   1.178   2.710   8.327 -2.7763 -2.7669 -0.5999
  152SAPE  C31816917   1.316   2.739   8.494  0.0408  0.0558  0.4843
  152SAPE  H18X16918   1.346   2.680   8.584 -1.5142 -2.3920 -0.5128
  152SAPE  H18Y16919   1.287   2.836   8.540 -0.6932 -0.0235  0.2020
  152SAPE  H18Z16920   1.399   2.765   8.426 -1.5397 -0.9404 -1.9372
  153SAPE     N16921   6.352   5.420   5.921 -0.0472  0.2313 -0.1346
  153SAPE   HN116922   6.393   5.328   5.893 -0.9630 -0.2188 -0.0445
  153SAPE   HN216923   6.248   5.417   5.923 -0.0496  0.3508 -0.0400
  153SAPE   HN316924   6.382   5.485   5.846  2.0313  0.3011  0.6779
  153SAPE   C1216925   6.386   5.451   6.066 -0.5544  0.8489 -0.2160
  153SAPE  H12A16926   6.494   5.429   6.079 -0.7727 -1.3843 -1.5990
  153SAPE  H12B16927   6.333   5.379   6.132 -0.0842 -1.7840 -2.5226
  153SAPE   C1116928   6.374   5.593   6.097 -0.4048  0.3382  0.2513
  153SAPE  H11A16929   6.446   5.652   6.037  0.9942 -0.0458  1.4759
  153SAPE  H11B16930   6.408   5.616   6.200  1.6330  0.9477 -0.5098
  153SAPE     P16931   6.152   5.717   6.166 -0.2365  0.0414  0.4295
  153SAPE   O1316932   6.130   5.840   6.094 -0.1217 -0.3755  0.0820
  153SAPE   O1416933   6.033   5.644   6.211  0.0625 -1.1702  0.4448
  153SAPE   O1216934   6.234   5.621   6.076 -0.3020  0.3420 -0.3767
  153SAPE   O1116935   6.240   5.748   6.300  0.6846 -0.6913  0.4501
  153SAPE    C116936   6.235   5.666   6.414  0.4900 -0.7348 -0.1729
  153SAPE    HA16937   6.249   5.557   6.396 -0.4417 -0.9492  0.2993
  153SAPE    HB16938   6.321   5.691   6.479  0.6254 -2.5061  0.4027
  153SAPE    C216939   6.105   5.709   6.503  0.2345  0.0812  0.8930
  153SAPE    HS16940   6.017   5.665   6.452  1.1958 -1.1898  0.2818
  153SAPE   O2116941   6.097   5.853   6.510 -0.2696  0.8287 -0.4756
  153SAPE   C2116942   5.996   5.911   6.575 -0.5933  0.3707 -0.1040
  153SAPE   O2216943   5.885   5.860   6.595 -0.2542 -0.2820  0.2926
  153SAPE   C2216944   6.041   6.052   6.603  0.1880 -0.3892  0.1582
  153SAPE   H2R16945   6.147   6.049   6.636 -0.2070 -0.7216  1.4526
  153SAPE   H2S16946   6.050   6.107   6.507  2.1027  1.3829  1.2715
  153SAPE    C316947   6.103   5.644   6.642 -1.1372  0.0533  0.2823
  153SAPE    HX16948   6.106   5.537   6.613  0.1673  0.2462 -0.3528
  153SAPE    HY16949   6.002   5.656   6.688 -1.0472 -0.0657  0.5127
  153SAPE   O3116950   6.214   5.671   6.730 -0.2621 -0.1521  0.2400
  153SAPE   C3116951   6.187   5.755   6.834 -0.4662  0.1059 -0.2946
  153SAPE   O3216952   6.088   5.816   6.853  0.5704 -0.3295  0.0110
  153SAPE   C3216953   6.316   5.761   6.912  0.1945  0.9074 -0.1342
  153SAPE   H2X16954   6.402   5.753   6.842  1.0445  1.8784  0.7599
  153SAPE   H2Y16955   6.326   5.669   6.972  1.7916  0.9535 -0.2712
  153SAPE   C2316956   5.947   6.111   6.713  0.1337  0.0891 -0.0506
  153SAPE   H3R16957   5.926   6.051   6.803  1.0725 -3.8288 -2.2209
  153SAPE   H3S16958   5.852   6.129   6.657 -0.0464  0.7723  0.4535
  153SAPE   C2416959   5.991   6.255   6.759  0.0144 -0.4150  0.2249
  153SAPE   H4R16960   5.901   6.306   6.801  1.3438  2.1518  0.1591
  153SAPE   H4S16961   6.012   6.315   6.668 -3.5619  0.7400 -0.0160
  153SAPE   C2516962   6.105   6.249   6.854 -1.1509  0.3354  0.3688
  153SAPE   H5R16963   6.199   6.236   6.798 -1.8135 -0.4535 -0.5695
  153SAPE   C2616964   6.110   6.256   6.986 -0.2344 -0.2845 -0.1126
  153SAPE   H6R16965   6.207   6.250   7.039  0.7516 -0.9532 -1.9079
  153SAPE   C2716966   5.989   6.283   7.077  0.8910 -0.3665 -0.5374
  153SAPE   H7R16967   5.893   6.293   7.022  0.1861  2.0135  1.0245
  153SAPE   H7S16968   5.996   6.384   7.122 -0.2980 -0.9021  0.9485
  153SAPE   C2816969   5.973   6.172   7.182 -0.1895  0.3615  0.2716
  153SAPE   H8R16970   5.926   6.078   7.150  0.4271  0.0709  0.2062
  153SAPE   C2916971   6.038   6.170   7.298 -0.4447  0.9753  0.5509
  153SAPE   H9R16972   6.040   6.076   7.355  2.4729 -0.2472 -1.3109
  153SAPE  C21016973   6.137   6.273   7.351 -0.2614  0.2981  0.1107
  153SAPE  H10R16974   6.151   6.354   7.276  0.1945  0.6686  0.5888
  153SAPE  H10S16975   6.236   6.226   7.368  0.5204  2.1320  0.9831
  153SAPE  C21116976   6.105   6.327   7.485 -0.3919 -0.3863  0.4684
  153SAPE  H11R16977   6.004   6.370   7.485 -1.1239 -2.0112 -0.3072
  153SAPE  C21216978   6.176   6.306   7.608  0.7254  0.1379 -0.0768
  153SAPE  H12R16979   6.132   6.352   7.697 -0.4542  1.7612 -1.4333
  153SAPE  C21316980   6.295   6.226   7.634 -0.6916  0.4563  0.0872
  153SAPE  H13R16981   6.342   6.195   7.538  0.7961  1.8514  0.3065
  153SAPE  H13S16982   6.278   6.155   7.717 -1.2317  1.7416  1.1206
  153SAPE  C21416983   6.402   6.314   7.690 -0.3067  0.1149  0.5979
  153SAPE  H14R16984   6.461   6.370   7.615 -1.1771  2.7129  1.7556
  153SAPE  C21516985   6.439   6.343   7.818  0.2404 -0.3165  0.3812
  153SAPE  H15R16986   6.529   6.405   7.832  2.2672 -2.8487 -0.6471
  153SAPE  C21616987   6.358   6.294   7.938 -0.6333 -0.3309  0.4739
  153SAPE  H16R16988   6.255   6.265   7.908 -1.8715  3.6167  0.2663
  153SAPE  H16S16989   6.344   6.375   8.014  0.0479 -0.4814  0.7703
  153SAPE  C21716990   6.435   6.167   8.001  0.7304 -0.5671  0.4858
  153SAPE  H17R16991   6.475   6.093   7.928  3.9316 -0.0956  1.5713
  153SAPE  H17S16992   6.368   6.114   8.072 -1.0675  0.8127 -0.1198
  153SAPE  C21816993   6.567   6.204   8.069  0.9189  0.0736 -0.2098
  153SAPE  H18R16994   6.541   6.284   8.141 -0.1446 -0.9956  0.6194
  153SAPE  H18S16995   6.643   6.244   7.999  1.8025 -0.3052  0.5088
  153SAPE  C21916996   6.621   6.079   8.135  0.0535 -0.0307 -0.1766
  153SAPE  H19R16997   6.722   6.106   8.174 -0.5103 -2.4901  3.4930
  153SAPE  H19S16998   6.633   5.992   8.067 -1.1431 -0.1320 -0.2760
  153SAPE  C22016999   6.555   6.027   8.262  0.4633  0.2678  0.4900
  153SAPE  H20R17000   6.568   6.091   8.351  0.0477 -0.3812  1.0235
  153SAPE  H20S17001   6.601   5.928   8.279 -2.3909 -1.3791 -0.5444
  153SAPE  H20T17002   6.447   5.998   8.258  1.0416 -2.4480  2.3001
  153SAPE   C3317003   6.327   5.896   6.991  0.5105  0.5131 -0.0598
  153SAPE   H3X17004   6.243   5.900   7.063 -0.0138 -1.0625 -0.5646
  153SAPE   H3Y17005   6.304   5.976   6.917 -0.3409  2.1453  1.8674
  153SAPE   C3417006   6.461   5.920   7.062 -0.0963 -0.6384 -0.7252
  153SAPE   H4X17007   6.553   5.929   6.999 -0.0412 -0.7794 -0.6646
  153SAPE   H4Y17008   6.472   5.838   7.136  1.0754  0.6752  0.5905
  153SAPE   C3517009   6.458   6.048   7.146  0.4056  0.0586  0.1213
  153SAPE   H5X17010   6.370   6.063   7.211  0.1085  1.6759 -0.6216
  153SAPE   H5Y17011   6.449   6.128   7.070  0.1298 -2.2531 -2.4331
  153SAPE   C3617012   6.585   6.069   7.231 -0.2351  0.1805  0.1981
  153SAPE   H6X17013   6.606   6.165   7.283  2.4223 -2.1716  3.9162
  153SAPE   H6Y17014   6.670   6.056   7.160 -3.0489  0.6644 -3.6139
  153SAPE   C3717015   6.590   5.973   7.346 -0.1778 -0.3606  0.7225
  153SAPE   H7X17016   6.628   5.874   7.314  1.4154  0.5512 -0.3324
  153SAPE   H7Y17017   6.489   5.953   7.389 -0.3580 -3.1627 -0.7581
  153SAPE   C3817018   6.675   6.027   7.461  0.1801  0.3440 -0.1237
  153SAPE   H8X17019   6.626   6.120   7.497 -0.6670 -0.8059  1.8703
  153SAPE   H8Y17020   6.774   6.052   7.418  1.6982  0.1170  2.9954
  153SAPE   C3917021   6.683   5.928   7.575 -0.2874  0.3431 -0.1049
  153SAPE   H9X17022   6.737   5.836   7.545 -0.9594  0.9709 -3.6151
  153SAPE   H9Y17023   6.580   5.895   7.598 -1.3093 -0.4364 -4.7532
  153SAPE  C31017024   6.768   5.984   7.693  0.5990  0.6524 -0.2658
  153SAPE  H10X17025   6.701   6.056   7.745  1.2096  1.4432 -0.5422
  153SAPE  H10Y17026   6.847   6.043   7.641 -2.6678  1.9213 -4.3653
  153SAPE  C31117027   6.822   5.882   7.796  0.2529  0.2973  0.0344
  153SAPE  H11X17028   6.895   5.816   7.745 -1.7211 -0.9810 -1.2835
  153SAPE  H11Y17029   6.739   5.819   7.832  0.7912 -0.2665  0.2951
  153SAPE  C31217030   6.899   5.954   7.905 -0.5725 -0.6563  0.7822
  153SAPE  H12X17031   6.855   6.043   7.955 -1.8814 -1.2542  0.7294
  153SAPE  H12Y17032   6.987   5.987   7.845 -0.3806  1.0693  1.9413
  153SAPE  C31317033   6.937   5.856   8.016 -0.8890  0.5699  0.4050
  153SAPE  H13X17034   6.993   5.770   7.974 -0.0284  0.9220  0.8250
  153SAPE  H13Y17035   6.843   5.824   8.066 -1.1490  0.4635 -0.1451
  153SAPE  C31417036   7.020   5.914   8.123 -0.1761 -0.3729 -0.0707
  153SAPE  H14X17037   6.966   6.001   8.165  2.1057  1.6720 -1.1131
  153SAPE  H14Y17038   7.108   5.968   8.080 -1.7306  1.4546 -1.1066
  153SAPE  C31517039   7.059   5.811   8.229  0.1680 -0.4206 -0.4068
  153SAPE  H15X17040   6.973   5.741   8.234 -2.3659  2.3744 -1.8963
  153SAPE  H15Y17041   7.066   5.851   8.332  1.8428 -0.8455 -0.3132
  153SAPE  C31617042   7.193   5.741   8.197  0.7705 -0.1758  0.4229
  153SAPE  H16X17043   7.276   5.808   8.166  0.7524 -0.4096 -0.1595
  153SAPE  H16Y17044   7.175   5.688   8.100 -0.1037 -0.2028  0.5868
  153SAPE  C31717045   7.234   5.647   8.306  0.4718  0.8375  0.7134
  153SAPE  H17X17046   7.234   5.711   8.397 -2.5020  1.4751  0.3453
  153SAPE  H17Y17047   7.338   5.613   8.289 -0.7729 -1.7125 -2.7933
  153SAPE  C31817048   7.135   5.531   8.318  0.3069 -0.0240 -0.1881
  153SAPE  H18X17049   7.039   5.563   8.365  0.7319 -1.9472  2.1942
  153SAPE  H18Y17050   7.172   5.459   8.395 -0.9468 -0.2497  0.2276
  153SAPE  H18Z17051   7.120   5.477   8.223  0.4498  0.5733 -0.5552
  154SAPE     N17052   5.533   6.272   5.894  0.2629  0.7389 -0.4533
  154SAPE   HN117053   5.503   6.354   5.951  0.3145 -0.6023  1.5670
  154SAPE   HN217054   5.632   6.245   5.912 -0.4737 -1.4917  0.6026
  154SAPE   HN317055   5.529   6.307   5.796  0.6282 -3.1197 -1.9988
  154SAPE   C1217056   5.440   6.154   5.917  0.7446  0.2718  0.1042
  154SAPE  H12A17057   5.480   6.075   5.850 -0.5951 -0.7803  0.5172
  154SAPE  H12B17058   5.343   6.181   5.872  0.2879 -0.7894  0.4236
  154SAPE   C1117059   5.434   6.112   6.066  0.2043 -0.3614 -0.7587
  154SAPE  H11A17060   5.538   6.084   6.094  0.3904  2.1961  1.6017
  154SAPE  H11B17061   5.369   6.023   6.079  1.2044 -0.9816  0.2594
  154SAPE     P17062   5.242   6.265   6.163 -0.1445  0.1810 -0.0523
  154SAPE   O1317063   5.214   6.410   6.145  0.4376 -0.0089 -0.1537
  154SAPE   O1417064   5.160   6.181   6.071 -0.5284  0.0656  0.2713
  154SAPE   O1217065   5.393   6.233   6.142 -0.3620  0.1395  0.1922
  154SAPE   O1117066   5.200   6.221   6.303 -0.5713  0.0624 -0.2322
  154SAPE    C117067   5.187   6.298   6.422  0.3468 -0.9767 -0.0689
  154SAPE    HA17068   5.218   6.403   6.403 -0.8650 -0.7441 -0.8194
  154SAPE    HB17069   5.081   6.292   6.455  1.0036  1.9757  3.2520
  154SAPE    C217070   5.254   6.232   6.541  0.0010 -0.2739 -0.1008
  154SAPE    HS17071   5.361   6.219   6.511  0.5078  0.6750  1.1841
  154SAPE   O2117072   5.195   6.105   6.565  0.6955  0.4084 -0.1504
  154SAPE   C2117073   5.279   6.020   6.612 -0.6342  0.4312  0.2340
  154SAPE   O2217074   5.398   6.033   6.623 -0.6158 -0.3790 -0.5266
  154SAPE   C2217075   5.208   5.894   6.677  0.1528  0.1157  1.0784
  154SAPE   H2R17076   5.135   5.941   6.746 -2.2459 -0.6896 -0.8164
  154SAPE   H2S17077   5.161   5.848   6.588 -1.4059  0.5718  1.6485
  154SAPE    C317078   5.248   6.321   6.663 -0.0714  0.1591 -0.6800
  154SAPE    HX17079   5.139   6.325   6.685  0.0183  2.9274 -0.3708
  154SAPE    HY17080   5.293   6.420   6.641 -0.6493  1.0779  1.8581
  154SAPE   O3117081   5.313   6.266   6.782 -0.6390 -0.6339  0.3642
  154SAPE   C3117082   5.443   6.284   6.801  0.4821  0.1464  0.5717
  154SAPE   O3217083   5.515   6.369   6.743  0.0750  0.2426 -0.0430
  154SAPE   C3217084   5.492   6.185   6.914  0.0039  0.0027 -0.5618
  154SAPE   H2X17085   5.569   6.119   6.870  0.1647  0.0852 -0.4049
  154SAPE   H2Y17086   5.406   6.122   6.947  0.9772 -0.1245  1.9981
  154SAPE   C2317087   5.306   5.799   6.750  0.8460  0.5012 -0.8622
  154SAPE   H3R17088   5.375   5.859   6.813  0.8343  1.5101 -1.7685
  154SAPE   H3S17089   5.373   5.750   6.675 -0.4957  0.0732 -1.8269
  154SAPE   C2417090   5.239   5.699   6.844 -0.3051  0.2590  1.0111
  154SAPE   H4R17091   5.144   5.656   6.804 -0.5040  0.2597  1.4794
  154SAPE   H4S17092   5.202   5.757   6.931 -1.7861  2.0010 -0.6967
  154SAPE   C2517093   5.333   5.591   6.889 -0.7424 -0.7265 -0.3247
  154SAPE   H5R17094   5.378   5.531   6.809  2.1244 -0.5597  1.0541
  154SAPE   C2617095   5.355   5.554   7.014 -0.0665 -0.5718  1.1001
  154SAPE   H6R17096   5.435   5.481   7.031  0.2414 -1.1604 -2.1910
  154SAPE   C2717097   5.276   5.599   7.133  0.3769 -1.4992 -0.5082
  154SAPE   H7R17098   5.166   5.603   7.122  0.1631 -0.8706  1.4021
  154SAPE   H7S17099   5.305   5.707   7.140 -0.4346 -0.9208 -4.2438
  154SAPE   C2817100   5.312   5.528   7.260 -0.0094 -0.0769  0.0862
  154SAPE   H8R17101   5.234   5.456   7.288 -0.1432 -0.0087 -0.1069
  154SAPE   C2917102   5.419   5.515   7.344  0.1922 -0.6710  0.4902
  154SAPE   H9R17103   5.415   5.444   7.428  0.5447 -2.2769 -0.8039
  154SAPE  C21017104   5.549   5.585   7.330  0.4064  0.1595 -0.2106
  154SAPE  H10R17105   5.540   5.647   7.239 -0.3677 -0.4900 -0.5906
  154SAPE  H10S17106   5.624   5.508   7.301  0.8932  0.2453  0.7711
  154SAPE  C21117107   5.593   5.662   7.452 -0.4578  0.0318  0.0697
  154SAPE  H11R17108   5.561   5.766   7.469 -0.4483  0.0649 -0.1090
  154SAPE  C21217109   5.688   5.625   7.536  0.3024 -0.5793  0.0276
  154SAPE  H12R17110   5.708   5.696   7.618 -1.3402  1.3303 -1.1440
  154SAPE  C21317111   5.759   5.490   7.531  0.1631 -0.0953  0.1632
  154SAPE  H13R17112   5.867   5.515   7.542 -0.3921  2.4924  0.3462
  154SAPE  H13S17113   5.758   5.438   7.433  0.8974 -2.1420  1.1727
  154SAPE  C21417114   5.715   5.386   7.630  0.0926  0.2896 -0.6024
  154SAPE  H14R17115   5.659   5.297   7.598 -0.3652 -0.1369  1.2328
  154SAPE  C21517116   5.746   5.399   7.765 -0.3991 -0.6165 -0.3543
  154SAPE  H15R17117   5.698   5.334   7.840 -1.8632 -0.4675 -1.1379
  154SAPE  C21617118   5.822   5.512   7.833  0.9074  0.6429  0.0555
  154SAPE  H16R17119   5.754   5.598   7.850 -2.6908 -1.8396 -0.5504
  154SAPE  H16S17120   5.908   5.542   7.771  1.9577  0.3020  1.3078
  154SAPE  C21717121   5.882   5.471   7.965 -0.5380 -0.0994  0.9350
  154SAPE  H17R17122   5.957   5.548   7.994  0.4482 -0.9886  0.7704
  154SAPE  H17S17123   5.927   5.370   7.957  1.6387  0.9765 -1.7749
  154SAPE  C21817124   5.778   5.459   8.076 -0.2558 -0.7148  0.0014
  154SAPE  H18R17125   5.691   5.394   8.052 -3.5545  2.7724  1.5779
  154SAPE  H18S17126   5.732   5.560   8.076 -0.0537 -0.6034 -1.6082
  154SAPE  C21917127   5.834   5.429   8.212 -0.1212  0.3236  0.1799
  154SAPE  H19R17128   5.908   5.510   8.228 -1.8265  2.1660 -0.7897
  154SAPE  H19S17129   5.894   5.336   8.209  0.5955  0.7788 -2.4727
  154SAPE  C22017130   5.743   5.426   8.332  0.7710  0.5460 -0.3035
  154SAPE  H20R17131   5.701   5.325   8.348 -0.4415  0.6463 -2.4672
  154SAPE  H20S17132   5.666   5.505   8.334  0.1038 -0.1049  0.1306
  154SAPE  H20T17133   5.796   5.445   8.428 -0.0227 -2.4827  0.8407
  154SAPE   C3317134   5.555   6.258   7.038 -0.1576  0.1365 -0.3183
  154SAPE   H3X17135   5.575   6.366   7.018 -0.0239  0.4483  1.3746
  154SAPE   H3Y17136   5.653   6.210   7.055  0.1803  1.4597  1.9009
  154SAPE   C3417137   5.457   6.255   7.159 -0.0052  0.7701  0.6405
  154SAPE   H4X17138   5.430   6.152   7.190  2.3006  0.1439  0.7643
  154SAPE   H4Y17139   5.361   6.303   7.131 -2.6798 -4.3717 -0.0432
  154SAPE   C3517140   5.530   6.318   7.283 -0.2448  0.1591 -0.0324
  154SAPE   H5X17141   5.449   6.329   7.359  0.0307  3.8194 -0.1049
  154SAPE   H5Y17142   5.553   6.425   7.262 -1.2643  0.1333 -1.4571
  154SAPE   C3617143   5.651   6.242   7.333  0.7407 -0.9712 -0.0369
  154SAPE   H6X17144   5.689   6.294   7.424  1.8473  2.1824 -2.1254
  154SAPE   H6Y17145   5.736   6.253   7.262  1.3660 -2.9134  0.3638
  154SAPE   C3717146   5.613   6.108   7.375  0.1140 -0.0394 -0.0412
  154SAPE   H7X17147   5.621   6.040   7.288  1.9045  1.2864 -0.9960
  154SAPE   H7Y17148   5.508   6.107   7.410 -0.2577 -0.4661 -1.1242
  154SAPE   C3817149   5.695   6.056   7.494 -0.2944 -0.1911 -0.2667
  154SAPE   H8X17150   5.795   6.105   7.488  0.6997 -2.1611 -0.4480
  154SAPE   H8Y17151   5.706   5.951   7.462 -0.2737 -0.5425  0.8521
  154SAPE   C3917152   5.643   6.075   7.633  0.7519  0.0956 -0.3207
  154SAPE   H9X17153   5.537   6.042   7.640  0.7635  0.3313  1.5757
  154SAPE   H9Y17154   5.636   6.184   7.655  0.7441  0.1833 -0.7580
  154SAPE  C31017155   5.723   6.010   7.754  0.4711 -0.4463 -0.5077
  154SAPE  H10X17156   5.692   5.906   7.774  0.1178 -0.2162  0.1497
  154SAPE  H10Y17157   5.681   6.058   7.845  0.3936 -0.8766 -0.3140
  154SAPE  C31117158   5.876   6.027   7.751  0.1885  0.7703  0.5309
  154SAPE  H11X17159   5.905   6.124   7.706 -1.4343 -0.2656 -3.0913
  154SAPE  H11Y17160   5.902   5.945   7.681 -2.9854 -0.4307  0.5663
  154SAPE  C31217161   5.947   6.004   7.881 -0.5638  0.3499 -0.0116
  154SAPE  H12X17162   5.898   6.076   7.950  0.7669  0.6266  0.6908
  154SAPE  H12Y17163   6.051   6.042   7.865 -1.0911  3.0044  2.0871
  154SAPE  C31317164   5.945   5.864   7.945  0.2726  0.0413 -0.4079
  154SAPE  H13X17165   5.994   5.797   7.872  0.1143  0.2297 -0.6861
  154SAPE  H13Y17166   5.843   5.822   7.960  1.4967 -2.8889  0.3703
  154SAPE  C31417167   6.006   5.865   8.082  0.5694 -0.2824  0.4842
  154SAPE  H14X17168   6.092   5.936   8.091  0.7360  0.2316 -3.3814
  154SAPE  H14Y17169   6.034   5.765   8.121 -2.0587 -1.1921  0.2043
  154SAPE  C31517170   5.898   5.918   8.186 -0.5927 -0.5651  0.6222
  154SAPE  H15X17171   5.800   5.867   8.174 -1.5393  1.6472 -2.4499
  154SAPE  H15Y17172   5.885   6.028   8.174 -1.0731 -0.5705  1.1075
  154SAPE  C31617173   5.933   5.892   8.337  0.2673 -0.8771  0.0325
  154SAPE  H16X17174   6.040   5.921   8.348  0.4917 -1.2903 -0.9220
  154SAPE  H16Y17175   5.933   5.784   8.359  1.8837 -0.9524 -0.1835
  154SAPE  C31717176   5.854   5.971   8.445  0.5483  0.1056 -0.4465
  154SAPE  H17X17177   5.881   6.078   8.434 -1.7799  0.7577 -0.4108
  154SAPE  H17Y17178   5.884   5.935   8.546  0.1598  2.3597  0.5253
  154SAPE  C31817179   5.700   5.967   8.447 -0.5888 -0.5151 -0.0827
  154SAPE  H18X17180   5.652   5.867   8.452 -1.0749 -0.2703  0.1464
  154SAPE  H18Y17181   5.664   6.016   8.355  2.5389 -1.0945 -1.7812
  154SAPE  H18Z17182   5.670   6.030   8.534  1.5302  1.6008 -0.7739
  155SAPE     N17183   2.940   1.043   6.524  0.5234  0.1552 -0.4464
  155SAPE   HN117184   3.031   1.048   6.575  1.9535 -2.1956 -2.4933
  155SAPE   HN217185   2.898   0.950   6.541  1.8666 -0.0915  2.0223
  155SAPE   HN317186   2.957   1.060   6.423 -0.4979  0.5097 -0.5681
  155SAPE   C1217187   2.835   1.142   6.577  0.3016 -0.8164 -0.2856
  155SAPE  H12A17188   2.871   1.246   6.574 -2.9211  0.4665  0.8020
  155SAPE  H12B17189   2.806   1.114   6.681 -0.8402 -1.7732 -0.8351
  155SAPE   C1117190   2.714   1.148   6.486  0.1860  0.1824 -0.0243
  155SAPE  H11A17191   2.750   1.210   6.401  0.4013  0.2661  0.1270
  155SAPE  H11B17192   2.644   1.220   6.533  0.4074 -0.8095  1.9411
  155SAPE     P17193   2.514   1.005   6.419  0.1386 -0.0807  0.0497
  155SAPE   O1317194   2.473   1.124   6.339  0.2577 -0.1139  0.4678
  155SAPE   O1417195   2.480   0.872   6.360  0.6667  0.0921 -0.7048
  155SAPE   O1217196   2.665   1.021   6.452  0.4779 -0.3940 -0.0399
  155SAPE   O1117197   2.450   1.014   6.564 -0.6558 -0.2198 -0.0726
  155SAPE    C117198   2.484   0.943   6.681 -0.0003  0.6362 -0.1955
  155SAPE    HA17199   2.470   0.833   6.666  0.4614  0.5174  0.2149
  155SAPE    HB17200   2.592   0.960   6.700 -0.2059  1.3382  0.3646
  155SAPE    C217201   2.394   0.982   6.805 -1.0904  0.0405 -0.1565
  155SAPE    HS17202   2.421   0.924   6.896 -2.3319 -0.3614 -0.0294
  155SAPE   O2117203   2.257   0.971   6.768  0.1734  0.0706 -0.1033
  155SAPE   C2117204   2.206   0.851   6.778 -0.8211  0.0063  0.2840
  155SAPE   O2217205   2.265   0.751   6.826  0.0034 -0.2803 -0.4060
  155SAPE   C2217206   2.065   0.844   6.716 -0.4675  0.1007  0.0025
  155SAPE   H2R17207   2.050   0.922   6.638 -1.6707  0.7007  0.7904
  155SAPE   H2S17208   2.052   0.749   6.659 -0.4153  2.2661 -3.9276
  155SAPE    C317209   2.418   1.130   6.864 -0.1727  0.4633  0.9371
  155SAPE    HX17210   2.395   1.204   6.784 -2.8261 -0.1816  1.0079
  155SAPE    HY17211   2.527   1.134   6.884 -0.0326  2.1379 -0.0341
  155SAPE   O3117212   2.321   1.146   6.969 -0.0606  0.2079  0.1687
  155SAPE   C3117213   2.261   1.268   6.970  0.3532  0.2526 -0.4009
  155SAPE   O3217214   2.291   1.360   6.898 -0.3376  0.3080  0.1969
  155SAPE   C3217215   2.153   1.276   7.071 -0.7891 -0.3662 -0.3398
  155SAPE   H2X17216   2.067   1.213   7.040 -0.8680 -0.1933 -0.4713
  155SAPE   H2Y17217   2.119   1.381   7.074 -0.0204 -0.1184 -0.0699
  155SAPE   C2317218   1.953   0.866   6.817  0.0618  0.5462  0.0920
  155SAPE   H3R17219   1.986   0.931   6.901  0.8830  0.4082 -0.1117
  155SAPE   H3S17220   1.933   0.765   6.858 -0.2525  1.0271  1.1523
  155SAPE   C2417221   1.838   0.917   6.744 -0.4178  0.2452  0.1407
  155SAPE   H4R17222   1.745   0.909   6.805 -0.4760  0.0814  0.0321
  155SAPE   H4S17223   1.813   0.843   6.665  0.6756  0.2440 -0.2116
  155SAPE   C2517224   1.840   1.057   6.698  0.1044  0.5537 -0.1247
  155SAPE   H5R17225   1.877   1.065   6.595  0.9181 -0.9540  0.0154
  155SAPE   C2617226   1.786   1.158   6.772 -0.5730  0.3873  0.1542
  155SAPE   H6R17227   1.800   1.259   6.733  0.7473 -0.6241 -2.1858
  155SAPE   C2717228   1.733   1.157   6.913  0.0696  0.6166 -0.5019
  155SAPE   H7R17229   1.760   1.059   6.956  0.8597  0.2599 -1.7448
  155SAPE   H7S17230   1.623   1.161   6.903 -0.0626  3.3013  1.0128
  155SAPE   C2817231   1.769   1.265   7.006 -0.3874 -0.2464  0.0786
  155SAPE   H8R17232   1.804   1.362   6.967 -1.7209  0.6136  0.9428
  155SAPE   C2917233   1.755   1.254   7.138 -0.6983 -0.0027  0.4679
  155SAPE   H9R17234   1.774   1.345   7.197  0.3818 -1.8717  3.2139
  155SAPE  C21017235   1.708   1.134   7.226  0.0026 -0.1025 -0.1770
  155SAPE  H10R17236   1.727   1.157   7.333 -0.4103  2.5477 -0.6056
  155SAPE  H10S17237   1.780   1.053   7.200  0.6015  0.4511 -0.2505
  155SAPE  C21117238   1.572   1.071   7.200  0.3710 -0.2266 -0.3343
  155SAPE  H11R17239   1.552   1.053   7.094 -0.4334  0.8513 -0.3819
  155SAPE  C21217240   1.480   1.017   7.282  0.2218  0.1121  0.5046
  155SAPE  H12R17241   1.390   0.963   7.247  0.4860 -0.0161  0.0060
  155SAPE  C21317242   1.480   1.013   7.429 -0.0528 -1.0574 -0.8253
  155SAPE  H13R17243   1.375   1.002   7.466  0.6320  1.7406  2.5419
  155SAPE  H13S17244   1.516   1.107   7.477  1.2097 -1.3507 -1.1668
  155SAPE  C21417245   1.545   0.889   7.480  0.5015  0.5572  0.6219
  155SAPE  H14R17246   1.624   0.853   7.412 -1.6800  0.4239 -2.0447
  155SAPE  C21517247   1.516   0.818   7.588 -0.5196 -0.4117 -0.2855
  155SAPE  H15R17248   1.577   0.728   7.601 -0.2029 -0.5125 -2.2780
  155SAPE  C21617249   1.420   0.854   7.695  0.4774 -0.1063  0.3554
  155SAPE  H16R17250   1.324   0.802   7.676  0.8727 -1.1550  1.1548
  155SAPE  H16S17251   1.392   0.962   7.690 -0.2591 -0.3345 -0.9194
  155SAPE  C21717252   1.465   0.836   7.841  0.2483  0.9364  0.4348
  155SAPE  H17R17253   1.539   0.915   7.867  2.1175 -0.1329 -1.3189
  155SAPE  H17S17254   1.513   0.737   7.859 -0.4637  0.5468  0.1992
  155SAPE  C21817255   1.349   0.824   7.941 -0.6934  0.2957 -0.0102
  155SAPE  H18R17256   1.293   0.735   7.905 -1.1387  0.7842 -0.5577
  155SAPE  H18S17257   1.287   0.916   7.933  0.2855  0.8156 -2.5684
  155SAPE  C21917258   1.379   0.791   8.090 -0.2730  0.3864 -0.6295
  155SAPE  H19R17259   1.479   0.744   8.099 -0.1728  0.4187 -1.5131
  155SAPE  H19S17260   1.314   0.719   8.144  0.4113 -1.5835 -2.3062
  155SAPE  C22017261   1.394   0.922   8.177 -0.6130 -0.4053 -0.6515
  155SAPE  H20R17262   1.303   0.986   8.169  0.7193  1.7267  0.2434
  155SAPE  H20S17263   1.479   0.984   8.141 -1.2514 -0.7921 -3.0303
  155SAPE  H20T17264   1.418   0.906   8.284 -2.5605  1.0075  0.0587
  155SAPE   C3317265   2.204   1.238   7.222 -0.7564  0.3153  0.4238
  155SAPE   H3X17266   2.267   1.318   7.267 -1.3062  0.5305  0.8282
  155SAPE   H3Y17267   2.262   1.144   7.212  1.1088  1.2306  1.9744
  155SAPE   C3417268   2.088   1.226   7.323  0.4367  0.0974 -0.0436
  155SAPE   H4X17269   1.999   1.182   7.273  0.9577  2.0648 -2.9805
  155SAPE   H4Y17270   2.058   1.326   7.360 -0.4803 -0.6295  1.2353
  155SAPE   C3517271   2.114   1.138   7.443 -0.0140 -0.6777  0.4814
  155SAPE   H5X17272   2.199   1.169   7.507  0.3620 -0.2793 -0.1974
  155SAPE   H5Y17273   2.126   1.033   7.412 -0.3753 -0.9797  1.3274
  155SAPE   C3617274   1.992   1.105   7.532 -0.0037 -0.2831  0.2841
  155SAPE   H6X17275   2.023   1.028   7.605 -0.1688  0.3051  0.9808
  155SAPE   H6Y17276   1.916   1.070   7.458  1.1971 -1.4528 -0.4300
  155SAPE   C3717277   1.941   1.234   7.610 -0.3792 -0.5887  0.0456
  155SAPE   H7X17278   1.967   1.327   7.554 -3.2193  0.4803  0.2889
  155SAPE   H7Y17279   2.002   1.235   7.703 -1.3719 -0.9176  0.7190
  155SAPE   C3817280   1.790   1.236   7.650 -0.0043 -0.3208  0.5368
  155SAPE   H8X17281   1.733   1.231   7.555  1.9914  0.8390 -0.7977
  155SAPE   H8Y17282   1.757   1.327   7.704 -4.3307 -0.1958 -1.8985
  155SAPE   C3917283   1.752   1.106   7.724  0.8264 -0.5981 -0.0922
  155SAPE   H9X17284   1.764   1.026   7.649  0.9147  0.0879 -0.8295
  155SAPE   H9Y17285   1.641   1.105   7.732  0.6834  1.2311 -1.2332
  155SAPE  C31017286   1.793   1.074   7.866  0.0133 -0.1539 -0.3254
  155SAPE  H10X17287   1.903   1.058   7.875 -0.0108 -0.3499 -0.3825
  155SAPE  H10Y17288   1.738   0.981   7.891 -1.1675  0.2929 -1.1821
  155SAPE  C31117289   1.753   1.176   7.969 -0.6161  0.1245  0.3396
  155SAPE  H11X17290   1.643   1.189   7.977 -0.4700  0.0776  3.1575
  155SAPE  H11Y17291   1.795   1.273   7.934  1.3456 -1.6943 -2.8576
  155SAPE  C31217292   1.801   1.151   8.112 -0.2120 -0.3689 -0.4046
  155SAPE  H12X17293   1.911   1.143   8.099 -0.1700  1.1981 -1.3303
  155SAPE  H12Y17294   1.783   1.050   8.154  0.1707 -0.4236 -0.3709
  155SAPE  C31317295   1.777   1.264   8.214 -0.7816 -0.6079 -0.6242
  155SAPE  H13X17296   1.674   1.263   8.256 -0.8491 -0.1889 -0.7806
  155SAPE  H13Y17297   1.795   1.360   8.161  1.8615 -0.3826  0.5013
  155SAPE  C31417298   1.869   1.242   8.334  0.3378  0.1825 -0.0977
  155SAPE  H14X17299   1.975   1.243   8.301 -0.0267  2.2567 -1.3819
  155SAPE  H14Y17300   1.840   1.142   8.373  0.1145 -0.5804 -2.1087
  155SAPE  C31517301   1.866   1.347   8.440 -0.0057  0.3703 -0.3342
  155SAPE  H15X17302   1.764   1.353   8.484 -0.5049 -1.7538 -1.0920
  155SAPE  H15Y17303   1.892   1.443   8.391  0.8749 -0.1676 -0.9432
  155SAPE  C31617304   1.958   1.334   8.563 -0.1058 -0.0572  0.3634
  155SAPE  H16X17305   1.933   1.247   8.626 -0.9152  0.6330  1.0125
  155SAPE  H16Y17306   1.952   1.427   8.623 -1.1015 -0.2567  0.5792
  155SAPE  C31717307   2.106   1.300   8.524 -0.0516  0.0093 -0.2333
  155SAPE  H17X17308   2.149   1.354   8.437  0.6729 -2.1587 -1.2984
  155SAPE  H17Y17309   2.101   1.193   8.494  0.2858  0.8961 -3.8583
  155SAPE  C31817310   2.200   1.308   8.645 -0.1785 -0.5753  0.5545
  155SAPE  H18X17311   2.156   1.244   8.724  1.0590 -0.9727  0.9440
  155SAPE  H18Y17312   2.200   1.412   8.684 -1.7581  0.0056 -0.9040
  155SAPE  H18Z17313   2.305   1.284   8.617 -0.2244 -0.4156  0.2457
  156SAPE     N17314   0.414   0.461   6.145 -0.1547 -0.1922 -0.6428
  156SAPE   HN117315   0.410   0.500   6.049  1.5960 -0.6072 -0.9060
  156SAPE   HN217316   0.475   0.378   6.134  2.0327  1.3891 -1.1467
  156SAPE   HN317317   0.316   0.431   6.166 -0.2697  1.4427  1.5022
  156SAPE   C1217318   0.474   0.550   6.254 -0.3605  0.0719  0.2484
  156SAPE  H12A17319   0.436   0.653   6.243 -2.9901 -0.5419  2.4788
  156SAPE  H12B17320   0.585   0.555   6.249 -0.2944 -1.8605 -1.2674
  156SAPE   C1117321   0.427   0.498   6.394  0.1803  0.2033 -0.1883
  156SAPE  H11A17322   0.492   0.533   6.476  2.2273 -1.6548 -0.9140
  156SAPE  H11B17323   0.437   0.387   6.397 -1.3921  0.0179 -0.6256
  156SAPE     P17324   0.155   0.492   6.362  0.7470  0.1968  0.4106
  156SAPE   O1317325   0.186   0.392   6.255  0.5958  0.0171 -0.2661
  156SAPE   O1417326   0.048   0.455   6.455 -0.1463  0.5969  0.0265
  156SAPE   O1217327   0.294   0.520   6.440  0.1589  0.0218  0.1346
  156SAPE   O1117328   0.106   0.627   6.295 -0.0206 -0.0673 -0.4448
  156SAPE    C117329   0.137   0.752   6.355  0.3708 -0.0607 -0.0510
  156SAPE    HA17330   0.237   0.766   6.402  1.0906 -0.5382 -1.4001
  156SAPE    HB17331   0.132   0.830   6.276  2.2299 -0.2667 -0.3999
  156SAPE    C217332   0.026   0.812   6.446 -0.6886 -0.4021  0.2069
  156SAPE    HS17333   0.032   0.921   6.426 -0.6723 -0.4744 -0.1881
  156SAPE   O2117334   0.070   0.791   6.584  0.4384 -0.1730 -0.6878
  156SAPE   C2117335   0.037   0.895   6.664  0.5938  0.1224 -0.5508
  156SAPE   O2217336  -0.020   0.997   6.629  0.0392  0.4171  0.4324
  156SAPE   C2217337   0.095   0.865   6.797 -0.1086  0.0295  0.1819
  156SAPE   H2R17338   0.060   0.767   6.836  1.4201 -1.0496 -1.0483
  156SAPE   H2S17339   0.206   0.858   6.801 -0.1113  0.3995  1.9198
  156SAPE    C317340  -0.116   0.756   6.404 -0.3792  0.2545  0.4797
  156SAPE    HX17341  -0.127   0.652   6.443 -1.5845 -0.8952 -2.5970
  156SAPE    HY17342  -0.117   0.749   6.293 -1.0228  2.1622  0.3291
  156SAPE   O3117343  -0.223   0.841   6.445 -0.5718  0.0222  0.4742
  156SAPE   C3117344  -0.337   0.795   6.495 -0.5371  0.0365  0.6376
  156SAPE   O3217345  -0.361   0.677   6.513 -0.2056 -0.6765  0.4316
  156SAPE   C3217346  -0.436   0.909   6.514 -0.0543 -0.5152 -0.7681
  156SAPE   H2X17347  -0.533   0.863   6.542  1.5275 -3.1035  0.9557
  156SAPE   H2Y17348  -0.448   0.967   6.420  1.1614  0.7053 -0.2027
  156SAPE   C2317349   0.051   0.969   6.903 -0.4824  0.1583  0.5213
  156SAPE   H3R17350  -0.059   0.988   6.898 -0.2840  1.0140 -1.6485
  156SAPE   H3S17351   0.089   1.069   6.875 -2.7126  1.2214  1.0284
  156SAPE   C2417352   0.091   0.920   7.041 -0.3698  0.9670 -0.5524
  156SAPE   H4R17353   0.104   1.014   7.098  1.1331  0.6384 -0.3045
  156SAPE   H4S17354   0.190   0.870   7.044 -0.8706 -0.0452  2.7964
  156SAPE   C2517355  -0.000   0.826   7.116  0.5470 -0.0553  0.2567
  156SAPE   H5R17356  -0.095   0.808   7.063  0.7662  0.8641 -0.4656
  156SAPE   C2617357   0.026   0.781   7.240  0.5319  0.0484  0.1903
  156SAPE   H6R17358  -0.049   0.713   7.283 -0.9448  0.8445 -1.0048
  156SAPE   C2717359   0.143   0.802   7.334 -0.2386 -0.3696 -0.7454
  156SAPE   H7R17360   0.238   0.778   7.281  0.8005 -1.3327  1.4371
  156SAPE   H7S17361   0.145   0.730   7.419 -1.1979  1.2295  0.6835
  156SAPE   C2817362   0.142   0.946   7.391  0.5066  0.0740  0.2758
  156SAPE   H8R17363   0.148   1.025   7.315 -2.1337 -0.4714 -0.5971
  156SAPE   C2917364   0.155   0.982   7.521  0.5062  1.0497 -0.3790
  156SAPE   H9R17365   0.141   1.088   7.548 -2.3353  0.1449  2.2202
  156SAPE  C21017366   0.166   0.873   7.629 -0.4356 -0.0979  0.1011
  156SAPE  H10R17367   0.263   0.821   7.614  0.7631  1.6600  1.2352
  156SAPE  H10S17368   0.085   0.798   7.627  0.4294 -1.0853  0.6966
  156SAPE  C21117369   0.190   0.935   7.767 -0.0077 -0.2824 -0.4942
  156SAPE  H11R17370   0.175   1.044   7.769 -0.3755 -0.3016 -1.4499
  156SAPE  C21217371   0.226   0.876   7.887  0.0670  0.0887  0.9260
  156SAPE  H12R17372   0.236   0.941   7.975 -0.9984  1.4356  0.1058
  156SAPE  C21317373   0.240   0.725   7.906  0.4356  0.1751  0.2224
  156SAPE  H13R17374   0.345   0.700   7.933 -0.0685 -1.5206  0.7592
  156SAPE  H13S17375   0.224   0.682   7.805 -0.4852  1.7346 -0.3374
  156SAPE  C21417376   0.130   0.679   8.012 -0.8139 -0.3028  0.4921
  156SAPE  H14R17377   0.023   0.675   7.988 -0.8075 -2.4560  0.6467
  156SAPE  C21517378   0.170   0.658   8.142 -0.5906 -0.7657  0.4921
  156SAPE  H15R17379   0.085   0.631   8.206  0.0286 -1.7900  0.9005
  156SAPE  C21617380   0.304   0.677   8.207 -0.4635 -0.0678  0.7310
  156SAPE  H16R17381   0.388   0.676   8.134  0.0249  2.7271  1.1196
  156SAPE  H16S17382   0.320   0.596   8.281  0.8170 -1.1804 -0.7101
  156SAPE  C21717383   0.324   0.810   8.284 -0.3353 -0.3552 -0.3409
  156SAPE  H17R17384   0.242   0.827   8.356 -0.3867  4.9541 -1.2580
  156SAPE  H17S17385   0.301   0.893   8.214  0.2069  0.1060  0.0157
  156SAPE  C21817386   0.463   0.832   8.345 -0.2214 -0.8340 -0.0867
  156SAPE  H18R17387   0.471   0.923   8.409 -1.1767 -2.4108  2.3956
  156SAPE  H18S17388   0.539   0.845   8.265 -2.1635  1.6598 -1.6875
  156SAPE  C21917389   0.515   0.720   8.443 -0.0099 -0.9334 -0.5209
  156SAPE  H19R17390   0.509   0.622   8.391  0.2752 -1.7492  0.9369
  156SAPE  H19S17391   0.451   0.728   8.534 -0.1893 -0.9550 -0.6424
  156SAPE  C22017392   0.650   0.745   8.492 -0.7881 -0.4116 -0.0074
  156SAPE  H20R17393   0.672   0.675   8.575  0.6085 -1.3840 -1.1457
  156SAPE  H20S17394   0.644   0.845   8.541 -2.1732 -0.9480  0.9830
  156SAPE  H20T17395   0.736   0.742   8.421 -1.1795 -1.3991 -0.4595
  156SAPE   C3317396  -0.395   1.009   6.621 -0.1161  0.0316 -0.0878
  156SAPE   H3X17397  -0.477   1.084   6.632  0.6686  1.0480 -0.9084
  156SAPE   H3Y17398  -0.302   1.065   6.596  0.8547 -1.0952  0.9244
  156SAPE   C3417399  -0.367   0.947   6.758  0.1087  0.5423  0.3064
  156SAPE   H4X17400  -0.260   0.918   6.769  0.7090  1.8578 -1.6515
  156SAPE   H4Y17401  -0.428   0.857   6.781 -0.1528  1.4796  4.0056
  156SAPE   C3517402  -0.410   1.035   6.878 -0.4354  0.3027  0.2005
  156SAPE   H5X17403  -0.518   1.049   6.855 -0.6331 -0.5507  0.5749
  156SAPE   H5Y17404  -0.370   1.139   6.880  0.3382 -0.0051  1.3372
  156SAPE   C3617405  -0.379   0.966   7.007 -0.1873  0.0560 -0.1973
  156SAPE   H6X17406  -0.270   0.949   7.016 -0.2366 -0.1233  0.0710
  156SAPE   H6Y17407  -0.425   0.866   6.999  0.8079 -0.4257  0.0072
  156SAPE   C3717408  -0.406   1.036   7.144 -0.2858  0.5804 -0.7760
  156SAPE   H7X17409  -0.514   1.051   7.164 -0.3447 -0.3292 -0.3286
  156SAPE   H7Y17410  -0.359   1.136   7.131  0.8703  0.2740  0.8036
  156SAPE   C3817411  -0.327   0.979   7.264  1.1966 -0.0107 -0.1696
  156SAPE   H8X17412  -0.220   0.967   7.237  0.6096  0.0866 -2.7232
  156SAPE   H8Y17413  -0.364   0.877   7.288  1.3791 -0.2907 -1.0448
  156SAPE   C3917414  -0.328   1.073   7.386  0.4975  0.7376 -0.3112
  156SAPE   H9X17415  -0.433   1.068   7.422  1.3168 -0.4647  2.0892
  156SAPE   H9Y17416  -0.305   1.177   7.352 -3.5798  2.0173  0.3162
  156SAPE  C31017417  -0.233   1.023   7.496 -0.0690  0.1536  0.0284
  156SAPE  H10X17418  -0.131   1.009   7.453  0.3542 -0.9224  1.3142
  156SAPE  H10Y17419  -0.272   0.921   7.516  1.5251 -0.3178  0.9500
  156SAPE  C31117420  -0.211   1.122   7.615  0.2708  0.1193  0.6738
  156SAPE  H11X17421  -0.162   1.210   7.569 -0.2871 -1.2865 -2.9622
  156SAPE  H11Y17422  -0.142   1.077   7.689  1.7112  0.7343 -0.2342
  156SAPE  C31217423  -0.340   1.172   7.682  0.2153  0.1616  0.8204
  156SAPE  H12X17424  -0.403   1.217   7.603  0.7011  1.3157  1.0706
  156SAPE  H12Y17425  -0.324   1.257   7.751 -0.0764  2.3033 -1.6151
  156SAPE  C31317426  -0.421   1.056   7.738  0.5852 -0.1265  0.0137
  156SAPE  H13X17427  -0.362   1.005   7.817 -0.5092 -3.6220 -1.2478
  156SAPE  H13Y17428  -0.450   0.974   7.669 -2.1689  0.6128  0.1638
  156SAPE  C31417429  -0.545   1.106   7.800  0.4344  0.3440 -0.4108
  156SAPE  H14X17430  -0.620   1.142   7.725 -0.4792 -1.4779 -0.4155
  156SAPE  H14Y17431  -0.517   1.192   7.864  1.4788 -0.4872  0.2810
  156SAPE  C31517432  -0.624   1.001   7.885 -0.3723 -0.3841 -0.9192
  156SAPE  H15X17433  -0.562   0.973   7.973 -0.9545 -2.2519 -1.0758
  156SAPE  H15Y17434  -0.626   0.912   7.819 -0.1515 -2.9714  2.2947
  156SAPE  C31617435  -0.767   1.035   7.926 -0.2599 -0.0038 -0.0736
  156SAPE  H16X17436  -0.826   1.063   7.836  0.9231  1.3331 -0.4646
  156SAPE  H16Y17437  -0.763   1.112   8.006 -1.0667 -0.7401  0.7160
  156SAPE  C31717438  -0.841   0.912   7.976  0.4521 -0.0555  0.5796
  156SAPE  H17X17439  -0.935   0.950   8.020  0.2365  1.3654 -1.0163
  156SAPE  H17Y17440  -0.777   0.882   8.062 -0.6241  0.8124  1.7154
  156SAPE  C31817441  -0.867   0.799   7.881 -0.5128 -0.5898  0.1802
  156SAPE  H18X17442  -0.905   0.832   7.782  1.0172 -0.1716 -0.2793
  156SAPE  H18Y17443  -0.943   0.736   7.934  1.2728 -2.2377  0.9127
  156SAPE  H18Z17444  -0.781   0.730   7.870  0.7429  1.0566 -0.5827
  157SAPE     N17445   5.677   0.832   6.352  0.5475  0.1203  0.0551
  157SAPE   HN117446   5.615   0.775   6.290  1.3138  0.0552 -0.6696
  157SAPE   HN217447   5.676   0.789   6.447 -2.0142  0.2201  0.1548
  157SAPE   HN317448   5.639   0.928   6.363  0.2995  0.3546 -2.3959
  157SAPE   C1217449   5.809   0.821   6.292 -0.4493 -0.0953 -0.5663
  157SAPE  H12A17450   5.876   0.896   6.338 -0.7580  0.8585 -1.6234
  157SAPE  H12B17451   5.809   0.848   6.184  2.5595 -1.3298 -0.9673
  157SAPE   C1117452   5.870   0.680   6.308  0.2956  0.4465 -0.2702
  157SAPE  H11A17453   5.885   0.662   6.416  0.1061 -0.0864 -0.3303
  157SAPE  H11B17454   5.971   0.670   6.263  0.1637 -0.4790 -0.3818
  157SAPE     P17455   5.823   0.436   6.237  0.1556  0.2524  0.0806
  157SAPE   O1317456   5.736   0.367   6.141  0.1445 -0.2844 -0.4913
  157SAPE   O1417457   5.970   0.421   6.227  0.1261 -0.0635  0.0841
  157SAPE   O1217458   5.784   0.588   6.241  0.3723 -0.0976 -0.3552
  157SAPE   O1117459   5.782   0.393   6.387  0.2206  0.3191  0.8142
  157SAPE    C117460   5.653   0.420   6.435  0.2161 -0.2898 -0.7443
  157SAPE    HA17461   5.615   0.520   6.405 -0.2598 -0.0944  0.4525
  157SAPE    HB17462   5.580   0.356   6.381 -1.9740  1.6365 -0.2567
  157SAPE    C217463   5.638   0.414   6.593  0.3369 -0.8590  0.3831
  157SAPE    HS17464   5.539   0.450   6.629  1.2155  0.6356  1.3942
  157SAPE   O2117465   5.742   0.480   6.660 -0.5052  0.2585 -0.6984
  157SAPE   C2117466   5.747   0.608   6.649  0.3293  0.0718  0.0526
  157SAPE   O2217467   5.682   0.681   6.579 -0.2654 -0.2674  0.0634
  157SAPE   C2217468   5.863   0.650   6.744 -0.3264 -0.2551 -0.0110
  157SAPE   H2R17469   5.826   0.632   6.847  1.3163  2.2397  1.1299
  157SAPE   H2S17470   5.946   0.576   6.737  0.3378  0.6116 -3.8075
  157SAPE    C317471   5.637   0.263   6.631  0.7125  0.0354  0.3740
  157SAPE    HX17472   5.733   0.213   6.607  0.2487 -0.8359  0.2867
  157SAPE    HY17473   5.553   0.218   6.573  0.8529  0.0810  0.1357
  157SAPE   O3117474   5.609   0.259   6.773 -0.4152  0.4247  0.1130
  157SAPE   C3117475   5.713   0.250   6.863  0.6221  0.5361  0.0859
  157SAPE   O3217476   5.830   0.260   6.833 -0.0701  0.1802  0.0668
  157SAPE   C3217477   5.661   0.233   7.011 -0.0186  0.2462 -0.0874
  157SAPE   H2X17478   5.636   0.125   7.017 -0.7864 -0.0899 -4.9503
  157SAPE   H2Y17479   5.576   0.304   7.018 -1.0611 -1.0379  0.5089
  157SAPE   C2317480   5.917   0.787   6.701 -0.5141 -0.1173 -0.2851
  157SAPE   H3R17481   5.833   0.859   6.692 -0.5644 -0.0482  0.6490
  157SAPE   H3S17482   5.962   0.779   6.600  1.7105 -1.8241  0.7453
  157SAPE   C2417483   6.035   0.824   6.795  0.0468  0.2309 -0.4089
  157SAPE   H4R17484   6.100   0.890   6.734  1.4195 -2.3479 -1.8494
  157SAPE   H4S17485   6.100   0.741   6.828  1.9292  2.1381  0.9076
  157SAPE   C2517486   5.986   0.908   6.914  0.7110 -0.2520  1.2124
  157SAPE   H5R17487   5.957   0.841   6.996  2.7358  0.8772  2.9798
  157SAPE   C2617488   5.982   1.045   6.931  0.4861 -0.0456  0.7204
  157SAPE   H6R17489   5.965   1.082   7.033 -3.0973  1.7044 -0.3483
  157SAPE   C2717490   6.008   1.159   6.842 -0.8379 -0.4400 -0.6112
  157SAPE   H7R17491   6.119   1.161   6.837 -0.6030  0.1833  2.6654
  157SAPE   H7S17492   5.980   1.248   6.901 -0.6476 -1.3804  0.9700
  157SAPE   C2817493   5.926   1.157   6.708 -0.2204  0.0562 -0.5772
  157SAPE   H8R17494   5.979   1.112   6.623  2.7083 -1.5648  1.8640
  157SAPE   C2917495   5.801   1.207   6.689 -0.1645  0.3613 -0.5708
  157SAPE   H9R17496   5.760   1.206   6.587 -0.4424 -0.2576 -0.4586
  157SAPE  C21017497   5.720   1.280   6.793  0.0099 -0.5343  0.3293
  157SAPE  H10R17498   5.699   1.381   6.752 -3.1560 -1.4879 -0.6947
  157SAPE  H10S17499   5.773   1.309   6.886 -0.7141 -0.0578  0.6004
  157SAPE  C21117500   5.577   1.237   6.819  0.1218  0.2249  0.0455
  157SAPE  H11R17501   5.548   1.169   6.738  2.4767  0.1617 -0.8093
  157SAPE  C21217502   5.493   1.260   6.927 -0.9087  0.0478 -0.2491
  157SAPE  H12R17503   5.392   1.216   6.919 -0.4738 -0.7581 -1.6739
  157SAPE  C21317504   5.530   1.333   7.052  0.0479  0.0483 -1.0951
  157SAPE  H13R17505   5.485   1.432   7.034  0.8051  0.7210  0.5199
  157SAPE  H13S17506   5.639   1.353   7.062 -0.0493  0.3510 -0.5875
  157SAPE  C21417507   5.498   1.257   7.177  0.0522  0.4667 -0.1301
  157SAPE  H14R17508   5.540   1.156   7.178  2.7140  1.4370 -1.8240
  157SAPE  C21517509   5.452   1.314   7.289 -0.3519 -0.0154 -0.9259
  157SAPE  H15R17510   5.442   1.247   7.376 -0.1312  0.9711 -0.1150
  157SAPE  C21617511   5.413   1.460   7.302 -0.0782 -0.3641 -0.0987
  157SAPE  H16R17512   5.454   1.527   7.223  0.7160 -1.0219 -0.2500
  157SAPE  H16S17513   5.454   1.504   7.396 -1.3525  1.3304 -0.2729
  157SAPE  C21717514   5.255   1.471   7.306 -0.2615  0.1758 -0.4669
  157SAPE  H17R17515   5.204   1.420   7.221 -0.7395  0.1847 -0.1891
  157SAPE  H17S17516   5.228   1.578   7.290 -0.1676  0.0272 -1.7423
  157SAPE  C21817517   5.200   1.430   7.443  0.2361 -0.5591 -0.3193
  157SAPE  H18R17518   5.245   1.501   7.517 -1.0377 -1.5925  1.5237
  157SAPE  H18S17519   5.234   1.330   7.475 -0.0089 -0.6351 -0.2994
  157SAPE  C21917520   5.046   1.423   7.465 -0.2409  0.2331  0.4834
  157SAPE  H19R17521   4.996   1.359   7.390  1.1821 -0.6467  0.2393
  157SAPE  H19S17522   5.011   1.526   7.445  0.4882  0.6812  1.3912
  157SAPE  C22017523   5.003   1.398   7.610  0.3224 -0.3748  0.8215
  157SAPE  H20R17524   5.066   1.440   7.691  1.3652  1.9661 -1.0601
  157SAPE  H20S17525   4.999   1.289   7.633 -0.4048 -0.2126  1.4845
  157SAPE  H20T17526   4.903   1.439   7.631  0.3171  1.0428 -1.6259
  157SAPE   C3317527   5.768   0.270   7.110 -0.8297 -0.2235 -0.6645
  157SAPE   H3X17528   5.793   0.378   7.101 -1.6041  0.0227  0.0540
  157SAPE   H3Y17529   5.861   0.210   7.098  0.6614  1.4136  1.7382
  157SAPE   C3417530   5.713   0.256   7.256 -0.1934 -0.0906  0.2802
  157SAPE   H4X17531   5.664   0.156   7.254  0.9468 -0.6687 -1.7284
  157SAPE   H4Y17532   5.631   0.332   7.263 -0.4044  0.0160 -2.2958
  157SAPE   C3517533   5.816   0.272   7.366 -0.0270 -0.6691  0.3729
  157SAPE   H5X17534   5.873   0.367   7.352  0.9811 -1.2864  0.1940
  157SAPE   H5Y17535   5.886   0.188   7.349 -1.0750 -1.2181 -1.5872
  157SAPE   C3617536   5.751   0.278   7.506 -0.1879  0.4318  0.1495
  157SAPE   H6X17537   5.697   0.182   7.522  0.4401 -0.1902 -1.3399
  157SAPE   H6Y17538   5.674   0.358   7.500  0.8922  1.4350 -0.9656
  157SAPE   C3717539   5.853   0.295   7.613  0.4190  0.4043 -0.0597
  157SAPE   H7X17540   5.929   0.373   7.592  0.2570  0.5898  0.0347
  157SAPE   H7Y17541   5.912   0.201   7.614 -0.5891 -0.2980 -1.6895
  157SAPE   C3817542   5.791   0.322   7.752 -0.2975  0.4469 -0.2452
  157SAPE   H8X17543   5.743   0.230   7.792  0.4498 -0.1964 -0.7794
  157SAPE   H8Y17544   5.725   0.411   7.756 -0.7403  0.2538 -2.2622
  157SAPE   C3917545   5.895   0.362   7.858  1.0846 -0.4949 -0.2354
  157SAPE   H9X17546   5.828   0.381   7.945  0.9652  1.8599 -0.7686
  157SAPE   H9Y17547   5.921   0.465   7.826 -0.8962 -0.5368 -2.2550
  157SAPE  C31017548   6.004   0.252   7.880  0.1948 -0.0203 -0.3963
  157SAPE  H10X17549   6.098   0.275   7.824  0.4386  2.2279  0.7969
  157SAPE  H10Y17550   5.967   0.153   7.847  0.8394  0.0070 -1.2470
  157SAPE  C31117551   6.041   0.248   8.031  0.4306  0.0150 -0.4283
  157SAPE  H11X17552   5.948   0.213   8.080 -0.2082  0.1004 -1.5638
  157SAPE  H11Y17553   6.063   0.353   8.060  3.2627 -0.7832  0.6877
  157SAPE  C31217554   6.166   0.169   8.076 -0.6623 -0.0557  0.2069
  157SAPE  H12X17555   6.253   0.210   8.021 -0.8839 -2.2468 -1.8832
  157SAPE  H12Y17556   6.152   0.063   8.049 -3.2140  0.3897 -0.4674
  157SAPE  C31317557   6.209   0.187   8.229  0.2253 -0.0495 -0.0668
  157SAPE  H13X17558   6.210   0.296   8.251 -1.8212  0.4956 -2.2234
  157SAPE  H13Y17559   6.308   0.151   8.263  1.1215  2.4490  0.1711
  157SAPE  C31417560   6.099   0.137   8.323 -0.1881  0.9643 -0.0422
  157SAPE  H14X17561   6.001   0.179   8.292 -0.7374 -0.7838 -0.8219
  157SAPE  H14Y17562   6.109   0.187   8.422  0.6201  0.6662  0.0339
  157SAPE  C31517563   6.097  -0.020   8.337 -0.0115  0.1291 -0.3248
  157SAPE  H15X17564   6.204  -0.048   8.352 -0.4034 -1.6897 -0.6442
  157SAPE  H15Y17565   6.054  -0.074   8.249 -1.0498  2.7259 -1.5212
  157SAPE  C31617566   6.033  -0.072   8.466 -0.1674  0.3804  0.6421
  157SAPE  H16X17567   5.923  -0.076   8.448 -0.1472  0.3971  0.5122
  157SAPE  H16Y17568   6.066  -0.007   8.549  0.0932 -1.8233  2.3747
  157SAPE  C31717569   6.085  -0.220   8.499  0.1061 -0.4536  0.1943
  157SAPE  H17X17570   6.107  -0.265   8.400  0.3289 -0.0236  0.0462
  157SAPE  H17Y17571   6.005  -0.279   8.548  2.7581 -2.1397  2.8279
  157SAPE  C31817572   6.212  -0.203   8.582  0.0614  0.1584 -0.4356
  157SAPE  H18X17573   6.293  -0.148   8.531 -0.5156  1.0511 -0.4142
  157SAPE  H18Y17574   6.246  -0.308   8.595 -0.2995  0.0414 -0.3969
  157SAPE  H18Z17575   6.203  -0.163   8.685 -1.8044 -1.7447  0.2398
  158SAPE     N17576   1.799   2.710   6.194  0.0257  0.5984  0.2766
  158SAPE   HN117577   1.719   2.685   6.256 -0.6583  3.2781  0.5801
  158SAPE   HN217578   1.799   2.658   6.104  0.0279  0.5204  0.3218
  158SAPE   HN317579   1.893   2.704   6.237  0.2784  2.8306  0.1187
  158SAPE   C1217580   1.783   2.859   6.169  0.2726  0.2649 -0.1540
  158SAPE  H12A17581   1.705   2.866   6.089 -1.1463 -1.7661  0.9611
  158SAPE  H12B17582   1.880   2.888   6.123  0.0838 -1.3298 -1.6716
  158SAPE   C1117583   1.756   2.926   6.302 -0.0610  0.7330  0.2130
  158SAPE  H11A17584   1.850   2.934   6.361  1.4248 -2.9494 -1.3674
  158SAPE  H11B17585   1.681   2.866   6.359 -0.8248  1.1997 -0.2845
  158SAPE     P17586   1.661   3.156   6.388 -0.6203 -0.1554 -0.2401
  158SAPE   O1317587   1.777   3.237   6.431 -0.3311 -0.0124  0.0432
  158SAPE   O1417588   1.542   3.231   6.360  0.1948 -0.4036 -0.0953
  158SAPE   O1217589   1.698   3.054   6.275 -0.1787 -0.1272 -0.0121
  158SAPE   O1117590   1.607   3.052   6.505 -0.3601 -0.0455  0.4211
  158SAPE    C117591   1.582   3.103   6.636  0.1760 -0.1123 -0.0169
  158SAPE    HA17592   1.661   3.167   6.681  1.0231 -1.8601  1.1127
  158SAPE    HB17593   1.491   3.166   6.648  1.2840  1.4048  0.7988
  158SAPE    C217594   1.569   2.984   6.739 -0.7473 -0.0876  0.1461
  158SAPE    HS17595   1.481   2.929   6.700  0.1093 -1.4967  0.1381
  158SAPE   O2117596   1.532   3.041   6.872 -0.0840  1.1603  0.1464
  158SAPE   C2117597   1.472   2.953   6.953 -0.1460 -0.1031  0.2965
  158SAPE   O2217598   1.433   2.841   6.930 -0.0492 -0.0080 -0.3984
  158SAPE   C2217599   1.478   3.014   7.093  0.5549 -0.0282  0.6899
  158SAPE   H2R17600   1.582   3.003   7.132 -0.1666 -3.1471  2.0847
  158SAPE   H2S17601   1.465   3.123   7.082  0.9650 -0.1138 -0.8678
  158SAPE    C317602   1.696   2.897   6.746 -0.6130 -0.2382  0.0274
  158SAPE    HX17603   1.702   2.867   6.640 -0.4575  0.9608 -0.3180
  158SAPE    HY17604   1.679   2.801   6.800 -0.5953 -0.3796 -0.2198
  158SAPE   O3117605   1.814   2.966   6.797 -0.4043 -0.5805 -0.1063
  158SAPE   C3117606   1.832   2.957   6.925 -0.4079  0.0823 -0.6094
  158SAPE   O3217607   1.759   2.907   7.010 -0.3366 -0.0264  0.1661
  158SAPE   C3217608   1.962   3.033   6.960 -0.5043 -0.0935 -0.1970
  158SAPE   H2X17609   2.029   3.038   6.872  0.5647 -0.6535  0.5655
  158SAPE   H2Y17610   2.004   2.966   7.038  0.1796  1.9749  1.2858
  158SAPE   C2317611   1.397   2.948   7.212 -0.9852  0.9272  0.5084
  158SAPE   H3R17612   1.302   2.898   7.183 -1.3521  0.8270  1.8254
  158SAPE   H3S17613   1.384   3.023   7.293  0.2689  0.6677  0.9705
  158SAPE   C2417614   1.489   2.843   7.278 -0.5237 -0.2134  0.3481
  158SAPE   H4R17615   1.579   2.891   7.323 -0.7884  0.9167 -0.2644
  158SAPE   H4S17616   1.524   2.785   7.190  1.2473 -0.1755  0.9740
  158SAPE   C2517617   1.433   2.765   7.389 -0.3543  0.4205  0.1385
  158SAPE   H5R17618   1.390   2.669   7.357 -0.0592  0.9947 -2.1927
  158SAPE   C2617619   1.430   2.807   7.518 -0.3486 -0.5711  0.0243
  158SAPE   H6R17620   1.391   2.747   7.602 -0.5475 -0.4437  0.0217
  158SAPE   C2717621   1.481   2.938   7.574  0.2487 -0.8495  0.0414
  158SAPE   H7R17622   1.547   2.997   7.506 -2.0019 -0.4328 -1.9104
  158SAPE   H7S17623   1.545   2.929   7.664  1.6506 -1.7426 -1.0049
  158SAPE   C2817624   1.358   3.028   7.585 -0.0051 -0.3834 -0.3522
  158SAPE   H8R17625   1.269   2.988   7.534 -1.1124 -0.6332  1.6828
  158SAPE   C2917626   1.341   3.136   7.664  0.2486 -0.4675 -0.0280
  158SAPE   H9R17627   1.257   3.205   7.647  0.7335  0.0715 -0.2833
  158SAPE  C21017628   1.453   3.193   7.750 -0.2477  0.4807  0.1660
  158SAPE  H10R17629   1.510   3.273   7.698 -0.7172  1.0701  0.5492
  158SAPE  H10S17630   1.526   3.114   7.776 -0.6855  0.4597  1.3818
  158SAPE  C21117631   1.381   3.240   7.873  0.4219  0.4357  0.2490
  158SAPE  H11R17632   1.326   3.166   7.933 -0.7254  1.4937  0.5459
  158SAPE  C21217633   1.369   3.368   7.919 -0.4406  0.1430  0.0171
  158SAPE  H12R17634   1.304   3.387   8.006 -1.5059  0.4807 -0.8242
  158SAPE  C21317635   1.422   3.487   7.840  0.3077  0.2783  0.5029
  158SAPE  H13R17636   1.368   3.581   7.864  0.4475  0.4123  0.2971
  158SAPE  H13S17637   1.423   3.472   7.730  0.5170  0.2216  0.5114
  158SAPE  C21417638   1.564   3.514   7.875  0.2751 -0.7277  0.1406
  158SAPE  H14R17639   1.594   3.485   7.977  0.3277 -0.4582  0.2031
  158SAPE  C21517640   1.661   3.564   7.792  0.2340  0.2703 -0.2498
  158SAPE  H15R17641   1.759   3.564   7.841 -0.3089 -2.1062  0.9424
  158SAPE  C21617642   1.654   3.603   7.645  0.4198 -0.3735 -0.6892
  158SAPE  H16R17643   1.677   3.711   7.637  0.7559 -0.2481  1.5140
  158SAPE  H16S17644   1.549   3.596   7.609 -0.6744 -1.1496  2.3662
  158SAPE  C21717645   1.757   3.533   7.556 -0.2160 -0.3820 -0.6949
  158SAPE  H17R17646   1.718   3.558   7.455 -0.1591  0.0816 -0.6024
  158SAPE  H17S17647   1.759   3.422   7.559  0.2156 -0.4192 -1.8500
  158SAPE  C21817648   1.895   3.572   7.595 -0.6384  0.2160 -0.0281
  158SAPE  H18R17649   1.917   3.536   7.697 -1.4920 -0.1434  0.0331
  158SAPE  H18S17650   1.902   3.683   7.599  0.7365  0.1801 -0.5469
  158SAPE  C21917651   2.001   3.531   7.492 -1.0056  0.1516 -0.1611
  158SAPE  H19R17652   1.987   3.573   7.390 -0.2788 -0.9916 -0.7503
  158SAPE  H19S17653   2.002   3.422   7.471  0.7881 -0.1742  1.3456
  158SAPE  C22017654   2.149   3.563   7.532 -0.3235  0.7757 -0.4689
  158SAPE  H20R17655   2.163   3.671   7.554  3.1027  0.4931 -0.6223
  158SAPE  H20S17656   2.214   3.537   7.445  0.2383 -1.3208  0.5098
  158SAPE  H20T17657   2.184   3.502   7.618  0.6910 -1.1128 -2.1383
  158SAPE   C3317658   1.925   3.176   7.008  0.0240  0.2425  0.1975
  158SAPE   H3X17659   1.868   3.221   6.924 -2.4788 -0.1823  1.5631
  158SAPE   H3Y17660   2.019   3.234   7.019  0.1082  0.7003 -2.3875
  158SAPE   C3417661   1.859   3.185   7.148  0.1907  0.8823  1.0890
  158SAPE   H4X17662   1.748   3.174   7.137 -0.1258  2.3866  2.4126
  158SAPE   H4Y17663   1.885   3.285   7.189  0.9095  0.5873  1.3669
  158SAPE   C3517664   1.913   3.092   7.257  0.6775  0.0526 -0.3132
  158SAPE   H5X17665   2.022   3.113   7.261  0.6171  1.1450 -2.6493
  158SAPE   H5Y17666   1.882   2.986   7.240  2.8793 -0.4396 -1.5798
  158SAPE   C3617667   1.854   3.143   7.388  0.2332  0.7220  0.0459
  158SAPE   H6X17668   1.745   3.157   7.373 -0.3666 -2.6454  0.5368
  158SAPE   H6Y17669   1.892   3.246   7.407 -1.8821  1.3491  1.1277
  158SAPE   C3717670   1.876   3.055   7.513  0.1751  0.3270 -0.3636
  158SAPE   H7X17671   1.803   2.971   7.511  1.3513 -0.7053 -1.6086
  158SAPE   H7Y17672   1.967   2.993   7.511 -1.0228 -1.4899 -1.1018
  158SAPE   C3817673   1.865   3.139   7.641 -0.2570  0.5125  0.0981
  158SAPE   H8X17674   1.771   3.198   7.639 -1.2665 -1.0206 -2.4656
  158SAPE   H8Y17675   1.947   3.213   7.630  0.3481 -0.3251 -1.3388
  158SAPE   C3917676   1.888   3.063   7.778 -0.0518  0.3182 -0.0096
  158SAPE   H9X17677   1.972   2.993   7.758 -0.7889 -0.0329 -2.2144
  158SAPE   H9Y17678   1.800   3.007   7.815 -0.1429  1.7076  2.0112
  158SAPE  C31017679   1.929   3.157   7.880 -0.0714  0.1151 -0.3579
  158SAPE  H10X17680   2.001   3.223   7.828 -0.2718  1.9808  1.5763
  158SAPE  H10Y17681   1.974   3.107   7.969  0.4770 -0.2548 -0.8447
  158SAPE  C31117682   1.812   3.237   7.948 -0.3012  0.2081 -0.4510
  158SAPE  H11X17683   1.725   3.177   7.980  0.3396  0.2049  1.4298
  158SAPE  H11Y17684   1.776   3.316   7.879 -3.5960 -0.5940  0.2192
  158SAPE  C31217685   1.852   3.327   8.068  0.1354  0.5532  1.4353
  158SAPE  H12X17686   1.876   3.422   8.016  1.2548 -1.5898 -2.3839
  158SAPE  H12Y17687   1.952   3.295   8.105  0.9240  0.9825 -0.2144
  158SAPE  C31317688   1.756   3.333   8.182 -0.4939  0.2435 -0.2158
  158SAPE  H13X17689   1.723   3.232   8.212 -3.0796  1.1144  0.0698
  158SAPE  H13Y17690   1.670   3.390   8.141 -0.4918  0.6856  0.3711
  158SAPE  C31417691   1.816   3.398   8.311 -0.3678  0.8159  0.6179
  158SAPE  H14X17692   1.912   3.351   8.342  1.8308  2.4463 -2.9988
  158SAPE  H14Y17693   1.753   3.390   8.402  0.8977 -0.2362  1.4371
  158SAPE  C31517694   1.849   3.545   8.286 -0.2002 -0.0012 -0.0024
  158SAPE  H15X17695   1.752   3.589   8.252 -0.0283 -0.2113 -0.7882
  158SAPE  H15Y17696   1.931   3.553   8.211  0.0141 -1.8539 -0.0159
  158SAPE  C31617697   1.886   3.623   8.417 -0.4330 -0.3568 -1.3518
  158SAPE  H16X17698   1.968   3.567   8.468 -2.7053 -1.3653  1.5083
  158SAPE  H16Y17699   1.799   3.607   8.485 -0.2800  1.3898 -0.6893
  158SAPE  C31717700   1.924   3.770   8.407  0.0973 -0.6113 -0.3272
  158SAPE  H17X17701   1.834   3.823   8.369  0.5334  0.6540  0.3488
  158SAPE  H17Y17702   2.002   3.803   8.335 -0.1369 -2.0183 -1.2632
  158SAPE  C31817703   1.940   3.838   8.537  0.7789 -0.0541  0.3031
  158SAPE  H18X17704   1.844   3.834   8.593 -0.2810  2.1625 -1.1974
  158SAPE  H18Y17705   1.957   3.947   8.521 -4.0742  0.7557 -1.0014
  158SAPE  H18Z17706   2.007   3.778   8.602 -0.4231 -0.7793  0.9073
  159SAPE     N17707   5.299   2.971   5.924 -0.0311 -0.0695 -1.2118
  159SAPE   HN117708   5.370   3.000   5.853  1.8743  1.3382  1.0879
  159SAPE   HN217709   5.313   3.040   6.001  1.8010 -1.3779 -0.3088
  159SAPE   HN317710   5.334   2.882   5.965 -2.8591 -0.2815  1.0468
  159SAPE   C1217711   5.154   2.962   5.892 -0.1938  0.2085  0.0194
  159SAPE  H12A17712   5.131   2.861   5.852 -2.0122  0.7161 -0.3174
  159SAPE  H12B17713   5.131   3.052   5.830 -1.3909  0.2921  0.5613
  159SAPE   C1117714   5.083   2.964   6.032  0.1359  0.5504  0.3236
  159SAPE  H11A17715   5.127   2.888   6.101  0.2104  1.7688  1.6670
  159SAPE  H11B17716   4.976   2.942   6.011  0.0649 -0.0402  1.2348
  159SAPE     P17717   5.188   3.163   6.181  0.0119  0.6313  0.1670
  159SAPE   O1317718   5.320   3.155   6.112  0.2458 -0.8700 -0.7008
  159SAPE   O1417719   5.138   3.295   6.229 -0.0820 -0.2376  0.2700
  159SAPE   O1217720   5.078   3.094   6.086 -0.2733 -0.0285 -0.0854
  159SAPE   O1117721   5.188   3.066   6.310  0.0402  0.6747  0.2157
  159SAPE    C117722   5.124   3.097   6.432  0.3129  0.4140 -0.6138
  159SAPE    HA17723   5.043   3.172   6.417  0.2628  0.1652 -1.6031
  159SAPE    HB17724   5.069   3.005   6.461 -0.4533  0.3914 -2.0666
  159SAPE    C217725   5.214   3.143   6.555 -1.0085 -0.5546  0.6124
  159SAPE    HS17726   5.284   3.059   6.577 -0.0428 -0.1226 -0.6391
  159SAPE   O2117727   5.129   3.164   6.666  0.2000  0.1199  0.2581
  159SAPE   C2117728   5.104   3.058   6.736 -0.3617  0.3526  0.0270
  159SAPE   O2217729   5.140   2.944   6.710 -0.0655 -0.1420  0.3182
  159SAPE   C2217730   5.030   3.093   6.862  0.9426  0.0951 -0.3934
  159SAPE   H2R17731   5.020   3.203   6.850 -0.9292 -0.2806 -3.0497
  159SAPE   H2S17732   4.940   3.028   6.869  2.6828 -2.3587  0.8377
  159SAPE    C317733   5.299   3.264   6.524 -0.6238 -0.1025 -0.0275
  159SAPE    HX17734   5.230   3.351   6.529 -0.0027  0.4089 -0.1964
  159SAPE    HY17735   5.332   3.256   6.419 -0.2439 -0.0200  0.0835
  159SAPE   O3117736   5.406   3.277   6.616 -0.4779 -0.1837  0.9094
  159SAPE   C3117737   5.462   3.396   6.603  0.0776 -0.8148 -0.4829
  159SAPE   O3217738   5.437   3.479   6.524  0.1310 -0.5096  0.2485
  159SAPE   C3217739   5.559   3.392   6.721 -0.4073  0.1712  0.3155
  159SAPE   H2X17740   5.629   3.309   6.701 -1.9964 -0.9781 -0.6896
  159SAPE   H2Y17741   5.505   3.358   6.811  0.1901 -2.0830 -0.1316
  159SAPE   C2317742   5.110   3.064   6.992 -0.0166  0.2516  0.0748
  159SAPE   H3R17743   5.055   3.087   7.086 -1.6962 -0.0900 -0.7737
  159SAPE   H3S17744   5.206   3.120   6.997  0.2467 -0.2369  0.7560
  159SAPE   C2417745   5.140   2.910   7.002 -0.3721  0.1655  0.2939
  159SAPE   H4R17746   5.201   2.878   7.089  1.0796  3.0608  0.4756
  159SAPE   H4S17747   5.195   2.872   6.913 -0.6383  2.1481 -0.7977
  159SAPE   C2517748   5.011   2.834   6.996 -0.9580 -0.5989  0.0952
  159SAPE   H5R17749   4.985   2.797   6.897  0.8951 -2.0975  0.1153
  159SAPE   C2617750   4.930   2.799   7.097 -0.0204  0.5686 -0.6264
  159SAPE   H6R17751   4.839   2.741   7.077  1.5716 -2.7451  0.8754
  159SAPE   C2717752   4.934   2.826   7.242  0.3137 -0.6404 -0.1129
  159SAPE   H7R17753   4.829   2.837   7.276  0.0079 -2.0696 -0.5313
  159SAPE   H7S17754   4.994   2.919   7.259 -0.6752  0.1410 -0.8007
  159SAPE   C2817755   4.983   2.716   7.328  0.4499 -0.1227 -0.0981
  159SAPE   H8R17756   5.043   2.641   7.274  1.7016  0.8025 -0.0178
  159SAPE   C2917757   4.947   2.698   7.461 -0.2836  0.3822  0.2630
  159SAPE   H9R17758   4.983   2.603   7.504  0.9414  0.3268 -0.8055
  159SAPE  C21017759   4.861   2.795   7.541 -0.2643 -0.3293  0.7749
  159SAPE  H10R17760   4.764   2.748   7.571 -1.3309  0.8686 -0.6504
  159SAPE  H10S17761   4.812   2.875   7.481 -2.2400 -2.2071 -0.2513
  159SAPE  C21117762   4.929   2.857   7.665 -0.4018 -0.3935 -0.1386
  159SAPE  H11R17763   4.936   2.965   7.646  3.3076  0.0340  2.5630
  159SAPE  C21217764   4.977   2.795   7.776 -0.8924 -0.3690  0.7079
  159SAPE  H12R17765   5.034   2.847   7.854  2.4392 -1.4450 -0.8458
  159SAPE  C21317766   4.972   2.646   7.797  0.2719 -0.5147 -0.0944
  159SAPE  H13R17767   5.076   2.608   7.793  0.0959 -0.9178 -1.2737
  159SAPE  H13S17768   4.911   2.595   7.719  1.1415  0.2537 -1.3229
  159SAPE  C21417769   4.897   2.606   7.924  0.0492 -0.5588 -0.2919
  159SAPE  H14R17770   4.788   2.609   7.917  0.0470  1.1440  0.0389
  159SAPE  C21517771   4.955   2.602   8.044 -0.6746  0.2804 -0.0875
  159SAPE  H15R17772   4.892   2.579   8.131 -0.9385 -1.0994 -0.6208
  159SAPE  C21617773   5.100   2.628   8.072 -0.3388 -0.4978 -0.2488
  159SAPE  H16R17774   5.152   2.684   7.992 -0.7877  2.9713  1.7226
  159SAPE  H16S17775   5.153   2.532   8.091 -2.9823 -2.6396 -2.6876
  159SAPE  C21717776   5.123   2.717   8.198  0.4180  0.3479 -0.2088
  159SAPE  H17R17777   5.232   2.718   8.224  0.3905  0.4858 -0.0970
  159SAPE  H17S17778   5.075   2.676   8.290  0.5065 -1.4038 -0.8951
  159SAPE  C21817779   5.076   2.865   8.186  0.4764 -1.0332  0.1041
  159SAPE  H18R17780   4.973   2.853   8.146  0.6065  0.5614 -0.7751
  159SAPE  H18S17781   5.134   2.912   8.104  0.1826 -1.3527 -0.2920
  159SAPE  C21917782   5.092   2.958   8.308  0.5119 -0.2493  0.2174
  159SAPE  H19R17783   5.196   2.993   8.326 -0.8308  2.9754  2.9109
  159SAPE  H19S17784   5.055   2.904   8.397 -0.1887  0.2472  0.2416
  159SAPE  C22017785   4.996   3.079   8.301 -0.2818 -0.2519 -0.5363
  159SAPE  H20R17786   4.892   3.044   8.281 -0.0853 -1.6529  0.6986
  159SAPE  H20S17787   5.030   3.145   8.218  0.1824 -0.7753 -0.7664
  159SAPE  H20T17788   4.989   3.127   8.401 -0.2009  1.3398 -1.2683
  159SAPE   C3317789   5.632   3.517   6.750 -0.2261 -0.5108 -0.0554
  159SAPE   H3X17790   5.556   3.575   6.807 -0.6916 -1.7895  0.6483
  159SAPE   H3Y17791   5.673   3.568   6.660  1.5677  2.0504  2.0330
  159SAPE   C3417792   5.753   3.489   6.848  0.1222  0.4140 -0.1184
  159SAPE   H4X17793   5.810   3.584   6.849 -1.1759  1.2384 -0.9748
  159SAPE   H4Y17794   5.801   3.404   6.794 -0.8671  1.1413 -2.2552
  159SAPE   C3517795   5.701   3.449   6.989  0.4794 -0.0442  0.5668
  159SAPE   H5X17796   5.622   3.371   6.992  0.7149 -0.3769 -0.9713
  159SAPE   H5Y17797   5.651   3.541   7.026 -1.0327 -0.8617  0.6400
  159SAPE   C3617798   5.819   3.426   7.079  0.2670 -0.0146 -0.3895
  159SAPE   H6X17799   5.906   3.490   7.057  0.1208  0.6421  0.8551
  159SAPE   H6Y17800   5.853   3.321   7.065 -2.4200 -1.1592  0.8927
  159SAPE   C3717801   5.769   3.420   7.224  0.2145 -0.6015  1.2475
  159SAPE   H7X17802   5.665   3.381   7.228  0.4475 -1.7911 -1.6452
  159SAPE   H7Y17803   5.761   3.525   7.261  2.1737 -0.2054  0.6316
  159SAPE   C3817804   5.864   3.336   7.299  0.4354  0.1137  0.0442
  159SAPE   H8X17805   5.966   3.377   7.284  0.7863 -1.1622 -1.2317
  159SAPE   H8Y17806   5.873   3.232   7.261 -2.2884 -0.8477  1.7253
  159SAPE   C3917807   5.817   3.316   7.447  0.0747  0.1320  0.3239
  159SAPE   H9X17808   5.731   3.245   7.447 -0.3108  0.5711  1.6588
  159SAPE   H9Y17809   5.781   3.414   7.485 -1.2215 -0.8402  1.7714
  159SAPE  C31017810   5.925   3.249   7.540 -0.2606 -0.3717 -0.2821
  159SAPE  H10X17811   5.998   3.329   7.566  0.7282 -0.4653 -2.4973
  159SAPE  H10Y17812   5.972   3.175   7.471 -0.3894 -0.1499 -0.6087
  159SAPE  C31117813   5.868   3.195   7.679 -0.2146 -0.2194 -0.0619
  159SAPE  H11X17814   5.944   3.141   7.740 -0.0451  1.3068  1.1389
  159SAPE  H11Y17815   5.787   3.127   7.645 -0.8708  1.0917 -1.2230
  159SAPE  C31217816   5.802   3.310   7.762 -1.1285  0.7456 -0.1986
  159SAPE  H12X17817   5.691   3.302   7.757 -0.9775 -0.8066 -1.9482
  159SAPE  H12Y17818   5.825   3.403   7.706 -1.1563  0.7420 -0.2159
  159SAPE  C31317819   5.841   3.319   7.912  0.5256 -0.4653  0.2724
  159SAPE  H13X17820   5.951   3.318   7.928  0.4469 -0.3707  0.8546
  159SAPE  H13Y17821   5.799   3.228   7.958 -0.8130  0.6498  1.3492
  159SAPE  C31417822   5.767   3.429   7.985 -0.3230  0.4820  0.1298
  159SAPE  H14X17823   5.658   3.412   7.975 -0.2747  1.0260 -1.5719
  159SAPE  H14Y17824   5.791   3.518   7.924  0.4007 -1.1386 -2.0756
  159SAPE  C31517825   5.825   3.417   8.127  0.8895 -0.2159 -0.2348
  159SAPE  H15X17826   5.932   3.447   8.121  0.0235  2.8925 -3.3334
  159SAPE  H15Y17827   5.817   3.315   8.170 -0.0387 -0.5209 -1.1123
  159SAPE  C31617828   5.757   3.525   8.215  0.1604 -0.5241 -0.0339
  159SAPE  H16X17829   5.648   3.502   8.218 -0.0892  0.3148 -1.6065
  159SAPE  H16Y17830   5.762   3.626   8.169  2.1353 -0.9239 -0.8262
  159SAPE  C31717831   5.808   3.515   8.360  0.0255  0.6530 -0.5326
  159SAPE  H17X17832   5.913   3.550   8.352  1.0429 -2.0515  0.0110
  159SAPE  H17Y17833   5.819   3.410   8.395 -0.4246  0.4524 -0.9746
  159SAPE  C31817834   5.723   3.593   8.457  0.7664  0.0204 -0.2513
  159SAPE  H18X17835   5.724   3.703   8.438 -1.1554 -0.1074 -1.3557
  159SAPE  H18Y17836   5.740   3.572   8.565 -0.1413 -0.4507 -0.1855
  159SAPE  H18Z17837   5.615   3.569   8.450  1.0606 -1.6487  0.5211
  160SAPE     N17838   2.529   3.993   6.413  0.5899  0.0078  0.9666
  160SAPE   HN117839   2.497   3.922   6.345 -0.1197  2.6682 -1.7044
  160SAPE   HN217840   2.504   4.093   6.397  1.2729  0.3141  1.7236
  160SAPE   HN317841   2.633   3.991   6.418  0.7078  0.3787 -0.7322
  160SAPE   C1217842   2.475   3.960   6.548 -0.0965 -0.1619 -0.1772
  160SAPE  H12A17843   2.527   4.032   6.615 -1.1338  0.5286 -0.0986
  160SAPE  H12B17844   2.508   3.858   6.574  0.8643 -0.5715 -2.7028
  160SAPE   C1117845   2.319   3.962   6.544 -0.3888  0.9553 -0.1311
  160SAPE  H11A17846   2.277   3.947   6.645 -0.4731  0.1775 -0.2737
  160SAPE  H11B17847   2.282   3.873   6.489 -3.0655  2.9535 -1.7895
  160SAPE     P17848   2.196   4.194   6.538  0.0995 -0.0127 -0.0475
  160SAPE   O1317849   2.263   4.316   6.502 -0.2327 -0.1213 -0.7881
  160SAPE   O1417850   2.057   4.181   6.484 -0.5319 -0.1745  0.0658
  160SAPE   O1217851   2.273   4.074   6.476 -0.2525 -0.4540 -0.0184
  160SAPE   O1117852   2.204   4.158   6.692  0.0200  0.7001  0.0650
  160SAPE    C117853   2.294   4.228   6.782 -0.4381  0.7292 -0.2719
  160SAPE    HA17854   2.399   4.225   6.747 -0.3880 -1.1942 -0.0331
  160SAPE    HB17855   2.258   4.332   6.801 -0.6840  0.2070  2.4892
  160SAPE    C217856   2.305   4.172   6.922 -0.2760  0.7915 -0.9156
  160SAPE    HS17857   2.358   4.254   6.974 -1.5030  0.0048  1.7433
  160SAPE   O2117858   2.378   4.053   6.917 -0.8084 -0.2918 -0.2959
  160SAPE   C2117859   2.428   4.004   7.025  0.4826 -0.1930 -0.5545
  160SAPE   O2217860   2.433   4.067   7.134 -0.2508 -0.1628  0.7649
  160SAPE   C2217861   2.474   3.867   7.004 -0.6356 -0.0266 -0.0542
  160SAPE   H2R17862   2.381   3.807   6.998 -0.8805  0.2302  0.9531
  160SAPE   H2S17863   2.526   3.869   6.906 -0.4494  0.7614  0.0521
  160SAPE    C317864   2.160   4.149   6.972  0.3559 -0.0577 -0.0249
  160SAPE    HX17865   2.137   4.053   6.920  1.9977 -0.4636 -0.0732
  160SAPE    HY17866   2.108   4.231   6.918 -0.1419 -1.3486 -1.5942
  160SAPE   O3117867   2.141   4.153   7.116 -0.0082  0.1317 -0.4489
  160SAPE   C3117868   2.137   4.034   7.183 -0.3217  0.8329  1.4134
  160SAPE   O3217869   2.121   3.924   7.135  1.0110  0.5556  0.3020
  160SAPE   C3217870   2.155   4.055   7.330  0.1842 -0.2327 -0.1964
  160SAPE   H2X17871   2.234   4.128   7.358 -1.3003  0.5016  2.3723
  160SAPE   H2Y17872   2.188   3.955   7.365 -0.5494 -0.1515  0.7535
  160SAPE   C2317873   2.552   3.790   7.113  0.0563  0.0749 -0.7334
  160SAPE   H3R17874   2.636   3.855   7.147 -1.5553  2.5497 -1.2127
  160SAPE   H3S17875   2.595   3.701   7.064 -3.0190 -0.9998 -1.6519
  160SAPE   C2417876   2.455   3.729   7.225 -0.0902 -0.2394 -0.0608
  160SAPE   H4R17877   2.381   3.662   7.175  0.6267 -0.1764 -1.2615
  160SAPE   H4S17878   2.390   3.808   7.267 -0.4338 -1.0583  0.9792
  160SAPE   C2517879   2.542   3.663   7.329 -0.2698 -0.3686 -0.6372
  160SAPE   H5R17880   2.595   3.575   7.291  0.5573 -0.3118  0.3426
  160SAPE   C2617881   2.563   3.702   7.456 -0.1196  0.3496 -0.0629
  160SAPE   H6R17882   2.629   3.635   7.512 -1.8501 -2.4712 -1.2222
  160SAPE   C2717883   2.491   3.812   7.530 -0.4668 -0.7256 -0.5526
  160SAPE   H7R17884   2.398   3.853   7.485 -1.0487 -0.5523  0.7788
  160SAPE   H7S17885   2.561   3.897   7.542 -0.8874 -0.6784  2.2266
  160SAPE   C2817886   2.460   3.761   7.667  0.3348 -0.3191 -0.5263
  160SAPE   H8R17887   2.408   3.664   7.658 -0.1652  0.0470 -1.7356
  160SAPE   C2917888   2.500   3.813   7.786 -1.0745  0.3327  0.5595
  160SAPE   H9R17889   2.479   3.758   7.879  1.8057 -0.6335  0.7673
  160SAPE  C21017890   2.594   3.928   7.800 -0.0509  0.1019  0.6115
  160SAPE  H10R17891   2.589   4.010   7.724  0.9893  1.0945  1.5704
  160SAPE  H10S17892   2.692   3.883   7.773  0.2463  0.4445  1.1066
  160SAPE  C21117893   2.588   3.999   7.932 -0.2487  0.5403  0.4788
  160SAPE  H11R17894   2.496   4.048   7.965 -0.2670  0.5478  0.4165
  160SAPE  C21217895   2.687   3.998   8.025 -0.3416  0.3455 -0.6304
  160SAPE  H12R17896   2.673   4.055   8.118  1.5790 -1.9631  1.1914
  160SAPE  C21317897   2.824   3.930   8.004  0.3924 -0.0391  0.4703
  160SAPE  H13R17898   2.903   3.991   8.053  0.7858  0.9212 -1.2860
  160SAPE  H13S17899   2.845   3.922   7.895 -2.5336 -3.3493 -0.0502
  160SAPE  C21417900   2.816   3.788   8.065  0.8936  0.4703 -0.5799
  160SAPE  H14R17901   2.744   3.720   8.017 -0.0511  1.1586 -0.1670
  160SAPE  C21517902   2.896   3.737   8.159 -0.1478 -0.2650 -0.5525
  160SAPE  H15R17903   2.860   3.643   8.204 -1.8565  0.8083  0.4137
  160SAPE  C21617904   3.018   3.795   8.225  0.3551 -0.3905  0.2775
  160SAPE  H16R17905   3.004   3.811   8.335 -0.3334  0.5216  0.0739
  160SAPE  H16S17906   3.047   3.898   8.194 -2.2328  0.6026  0.8856
  160SAPE  C21717907   3.148   3.717   8.210 -0.4222  0.3479  0.0916
  160SAPE  H17R17908   3.132   3.610   8.236  2.4464 -0.0044  0.6932
  160SAPE  H17S17909   3.214   3.758   8.289 -0.4671 -0.2631  0.4526
  160SAPE  C21817910   3.220   3.724   8.078 -0.1393 -0.2306 -0.1734
  160SAPE  H18R17911   3.260   3.827   8.069 -1.5026  0.3998  0.6693
  160SAPE  H18S17912   3.138   3.727   8.004 -1.8837  3.4618  1.6247
  160SAPE  C21917913   3.339   3.628   8.059 -0.3617  0.5655  0.3874
  160SAPE  H19R17914   3.382   3.623   7.956  1.9872  1.4623  1.2615
  160SAPE  H19S17915   3.304   3.525   8.080  0.9395 -0.0830 -0.4742
  160SAPE  C22017916   3.458   3.678   8.142 -0.3089  0.2662 -0.3346
  160SAPE  H20R17917   3.549   3.660   8.081 -0.1712  0.5647 -0.2176
  160SAPE  H20S17918   3.463   3.620   8.237 -0.4897 -1.3930 -1.3068
  160SAPE  H20T17919   3.445   3.787   8.158  0.7118  0.3898 -0.3053
  160SAPE   C3317920   2.023   4.088   7.410  0.1376 -0.8945  0.7569
  160SAPE   H3X17921   1.934   4.022   7.393  0.7290 -1.1483 -1.6940
  160SAPE   H3Y17922   1.985   4.187   7.377 -1.4928 -1.1421  1.7456
  160SAPE   C3417923   2.041   4.087   7.560  0.2852 -0.7279 -0.2636
  160SAPE   H4X17924   1.951   4.127   7.611  1.5646  1.2968  0.5480
  160SAPE   H4Y17925   2.118   4.153   7.606  0.4758 -2.7031  2.4767
  160SAPE   C3517926   2.066   3.953   7.624 -0.2580  0.2033  0.2317
  160SAPE   H5X17927   2.171   3.932   7.594  0.0571  0.1865  1.3161
  160SAPE   H5Y17928   2.005   3.872   7.580  0.2490  0.3059 -0.6947
  160SAPE   C3617929   2.041   3.947   7.769  0.0586 -0.1022  0.4799
  160SAPE   H6X17930   1.933   3.955   7.792 -0.1878 -0.2564 -0.5434
  160SAPE   H6Y17931   2.088   4.037   7.813 -0.2632  0.2984  0.0066
  160SAPE   C3717932   2.096   3.822   7.841  0.2207  0.6568 -0.0350
  160SAPE   H7X17933   2.207   3.819   7.836  0.2377 -0.8573  0.6903
  160SAPE   H7Y17934   2.050   3.733   7.792  0.9836 -0.1704  0.7227
  160SAPE   C3817935   2.062   3.840   7.986 -0.1421 -0.2890  0.2155
  160SAPE   H8X17936   1.967   3.786   8.007 -0.2043  0.5450  2.3594
  160SAPE   H8Y17937   2.055   3.946   8.017  2.1773 -0.0169 -0.0052
  160SAPE   C3917938   2.162   3.776   8.087 -0.7362  0.1458  0.2758
  160SAPE   H9X17939   2.181   3.672   8.053 -2.9536  0.1293 -1.0860
  160SAPE   H9Y17940   2.119   3.775   8.190  0.1333  0.8796  0.6715
  160SAPE  C31017941   2.293   3.853   8.110 -0.5803 -0.1382 -0.6934
  160SAPE  H10X17942   2.298   3.951   8.163  2.1625  0.6937 -2.2934
  160SAPE  H10Y17943   2.330   3.878   8.008  0.9333 -0.0138 -0.1326
  160SAPE  C31117944   2.388   3.758   8.182  0.1851  0.1243 -0.4507
  160SAPE  H11X17945   2.482   3.815   8.204 -0.6545  1.3457  0.0868
  160SAPE  H11Y17946   2.396   3.666   8.120 -0.7650 -0.1870 -0.1227
  160SAPE  C31217947   2.337   3.696   8.308  0.0825  0.4364 -0.0925
  160SAPE  H12X17948   2.251   3.628   8.293  1.7839 -1.9271  0.2408
  160SAPE  H12Y17949   2.310   3.768   8.388 -1.9722 -1.9882  1.5583
  160SAPE  C31317950   2.435   3.595   8.377 -0.1495 -0.0405  0.1119
  160SAPE  H13X17951   2.476   3.516   8.312  3.3858  1.9916 -0.3911
  160SAPE  H13Y17952   2.376   3.546   8.458 -0.3019  0.3802  0.2601
  160SAPE  C31417953   2.548   3.665   8.449 -0.2702 -0.6063 -0.4755
  160SAPE  H14X17954   2.506   3.736   8.524 -1.2973 -1.4402 -0.2399
  160SAPE  H14Y17955   2.609   3.726   8.379  0.9303  0.5628  1.4923
  160SAPE  C31517956   2.643   3.568   8.519  0.0831  0.2419 -0.7336
  160SAPE  H15X17957   2.721   3.546   8.444  1.5908 -0.9244  1.0658
  160SAPE  H15Y17958   2.593   3.470   8.533  0.4365 -0.1547 -2.1677
  160SAPE  C31617959   2.704   3.622   8.654  0.6329  0.0258  0.1651
  160SAPE  H16X17960   2.642   3.572   8.731  0.3712  0.1085  0.0099
  160SAPE  H16Y17961   2.689   3.732   8.657  0.0687 -0.0636  0.9190
  160SAPE  C31717962   2.857   3.605   8.679 -0.0707  0.4869 -0.6023
  160SAPE  H17X17963   2.875   3.498   8.701 -1.0056  0.3934 -0.2507
  160SAPE  H17Y17964   2.871   3.665   8.771 -4.5068 -1.2607  1.4782
  160SAPE  C31817965   2.947   3.651   8.568  0.2073 -0.1964  0.2752
  160SAPE  H18X17966   2.931   3.759   8.547  1.7168 -0.1202 -0.6420
  160SAPE  H18Y17967   2.944   3.581   8.482 -0.1751 -2.8932  2.3488
  160SAPE  H18Z17968   3.056   3.649   8.589  0.5622  2.6063 -0.7969
  161SOPE     N17969   0.213   6.589  10.594 -0.5320 -0.3813  0.1609
  161SOPE   HN117970   0.173   6.523  10.525  2.3926 -2.3452  0.1424
  161SOPE   HN217971   0.225   6.684  10.554  1.9109 -0.4693  0.5353
  161SOPE   HN317972   0.304   6.538  10.604 -0.5473 -0.8024 -1.5507
  161SOPE   C1217973   0.145   6.591  10.727 -0.5278 -0.2652 -0.3373
  161SOPE  H12A17974   0.200   6.666  10.788  1.6387 -2.1254  0.1435
  161SOPE  H12B17975   0.157   6.487  10.765  0.3035 -0.5274 -1.2662
  161SOPE   C1117976  -0.005   6.639  10.710 -0.4361 -1.0989  0.4655
  161SOPE  H11A17977  -0.042   6.643  10.814 -0.6625 -2.2469  0.4461
  161SOPE  H11B17978  -0.057   6.558  10.655  0.1791 -1.1184 -0.1105
  161SOPE     P17979  -0.160   6.812  10.591  0.3560 -0.0648 -0.1966
  161SOPE   O1317980  -0.195   6.941  10.667  0.3002  0.2147  0.0316
  161SOPE   O1417981  -0.259   6.706  10.604  0.1492  0.3201 -0.4130
  161SOPE   O1217982  -0.025   6.767  10.650  0.2558 -0.3971  0.4480
  161SOPE   O1117983  -0.123   6.837  10.440  0.4176 -0.4285 -0.5286
  161SOPE    C117984  -0.061   6.733  10.364 -0.4708  0.1469  0.8071
  161SOPE    HA17985  -0.072   6.627  10.394  1.7878 -0.2806  0.3470
  161SOPE    HB17986   0.049   6.747  10.356 -0.3973 -1.0002 -0.7018
  161SOPE    C217987  -0.114   6.734  10.216  0.0025  0.6884 -0.1834
  161SOPE    HS17988  -0.078   6.643  10.163  0.3634  0.6750  0.0786
  161SOPE   O2117989  -0.074   6.849  10.140 -0.2057 -0.2392  0.1585
  161SOPE   C2117990   0.053   6.859  10.111  0.1283 -0.0974 -0.3940
  161SOPE   O2217991   0.138   6.774  10.116 -0.1359 -0.0758 -0.2135
  161SOPE   C2217992   0.079   6.994  10.040 -0.1692  0.1158  0.2540
  161SOPE   H2R17993   0.105   7.068  10.119  1.9375 -0.8954  0.5740
  161SOPE   H2S17994  -0.012   7.032   9.989  0.3764 -0.7056 -1.3907
  161SOPE    C317995  -0.268   6.717  10.218  0.5201 -0.9972 -0.3844
  161SOPE    HX17996  -0.312   6.803  10.273 -0.1908 -1.4819 -0.1664
  161SOPE    HY17997  -0.297   6.628  10.279 -3.3503  1.0679  1.1272
  161SOPE   O3117998  -0.321   6.711  10.084  0.6880 -0.0210  0.5081
  161SOPE   C3117999  -0.295   6.602  10.005 -0.7643 -0.7976 -0.0875
  161SOPE   O3218000  -0.257   6.496  10.048  0.3050 -0.5112 -0.2786
  161SOPE   C3218001  -0.317   6.623   9.861  0.6297  0.1021 -0.0311
  161SOPE   H2X18002  -0.399   6.698   9.860  1.9229  1.6136  0.7857
  161SOPE   H2Y18003  -0.347   6.525   9.818  0.5432  0.2183 -0.2378
  161SOPE   C2318004   0.201   6.984   9.942  0.0585 -0.3392  0.8387
  161SOPE   H3R18005   0.285   6.930   9.991  1.2090  1.3259  0.7783
  161SOPE   H3S18006   0.238   7.086   9.921 -1.3548 -0.2642 -1.6404
  161SOPE   C2418007   0.155   6.905   9.819  0.1343  0.3014  0.6062
  161SOPE   H4R18008   0.141   6.798   9.847  1.5937  0.0532  0.4761
  161SOPE   H4S18009   0.052   6.935   9.790  1.2142  2.1666 -1.6755
  161SOPE   C2518010   0.234   6.933   9.692 -0.3548 -0.4550 -0.7956
  161SOPE   H5R18011   0.210   7.040   9.671  0.8600  0.5941  2.5189
  161SOPE   H5S18012   0.341   6.929   9.723 -0.9498  0.9309  1.7790
  161SOPE   C2618013   0.217   6.835   9.574  0.3491 -0.0649  0.2280
  161SOPE   H6R18014   0.319   6.803   9.545  0.1262 -2.1474  1.5460
  161SOPE   H6S18015   0.163   6.747   9.614 -1.4696  1.9585  2.6106
  161SOPE   C2718016   0.140   6.890   9.454  0.0304 -0.6018 -0.1952
  161SOPE   H7R18017   0.039   6.924   9.486  0.0065 -1.1852  0.3799
  161SOPE   H7S18018   0.189   6.980   9.411 -2.1640  0.6583 -0.1881
  161SOPE   C2818019   0.135   6.784   9.344  0.4114  0.5623 -0.2011
  161SOPE   H8R18020   0.121   6.685   9.392 -1.2559  1.1585  0.5971
  161SOPE   H8S18021   0.036   6.795   9.297  0.5334 -0.1978 -0.6420
  161SOPE   C2918022   0.251   6.781   9.254 -0.3614  0.5506 -0.4964
  161SOPE   H9118023   0.348   6.782   9.306 -1.2959  1.4353  1.3399
  161SOPE  C21018024   0.255   6.771   9.119  0.3607 -0.3706  0.0895
  161SOPE  H10118025   0.354   6.770   9.071  0.9621 -0.2985  1.2836
  161SOPE  C21118026   0.137   6.762   9.032  1.0802 -0.0292  0.1497
  161SOPE  H11R18027   0.106   6.864   8.999  2.5641  0.0618 -1.1018
  161SOPE  H11S18028   0.050   6.716   9.083  0.5957 -0.1518 -0.7619
  161SOPE  C21218029   0.162   6.690   8.899 -0.0327 -0.8435 -0.2304
  161SOPE  H12R18030   0.069   6.637   8.869 -0.5919 -1.6102  2.5477
  161SOPE  H12S18031   0.235   6.607   8.912  0.6536 -0.6444 -2.4413
  161SOPE  C21318032   0.203   6.785   8.785 -0.1802  0.0322  1.1069
  161SOPE  H13R18033   0.255   6.874   8.827  1.1671 -0.2231  0.0368
  161SOPE  H13S18034   0.119   6.822   8.721  0.3728 -0.2452  0.1908
  161SOPE  C21418035   0.296   6.723   8.678 -0.7258  0.0526 -0.1628
  161SOPE  H14R18036   0.258   6.640   8.616  1.1450 -0.0649 -1.2230
  161SOPE  H14S18037   0.378   6.682   8.740 -0.7311  0.6555  0.2550
  161SOPE  C21518038   0.359   6.816   8.573  0.6501  0.1960 -0.3813
  161SOPE  H15R18039   0.287   6.832   8.491 -1.4616 -0.4147  1.2675
  161SOPE  H15S18040   0.445   6.758   8.533  2.6275  2.8197 -0.2337
  161SOPE  C21618041   0.406   6.951   8.632  0.0380  0.5155  0.3169
  161SOPE  H16R18042   0.481   6.937   8.713 -0.3542  1.0166  0.7694
  161SOPE  H16S18043   0.318   7.007   8.668 -0.6485 -0.5289  0.3123
  161SOPE  C21718044   0.474   7.041   8.526 -0.0584 -0.2085 -0.1446
  161SOPE  H17R18045   0.396   7.056   8.449 -1.2391 -1.5221  0.7434
  161SOPE  H17S18046   0.560   6.982   8.489  0.0373 -0.3453  0.2820
  161SOPE  C21818047   0.526   7.169   8.601 -0.2099 -0.3500  0.4237
  161SOPE  H18R18048   0.588   7.138   8.689 -1.6768 -0.5781  1.4080
  161SOPE  H18S18049   0.434   7.222   8.634 -0.0298  0.1337  0.1668
  161SOPE  H18T18050   0.576   7.233   8.525 -2.4267  0.4982 -0.3742
  161SOPE   C3318051  -0.202   6.682   9.791 -0.7517  0.1918  0.2958
  161SOPE   H3X18052  -0.166   6.764   9.856  1.2820 -0.7035  0.4063
  161SOPE   H3Y18053  -0.242   6.728   9.698  0.6505 -2.2061 -1.6471
  161SOPE   C3418054  -0.081   6.582   9.745  0.0557 -0.3623 -0.2342
  161SOPE   H4X18055  -0.055   6.525   9.837  1.4089  0.3701 -0.1481
  161SOPE   H4Y18056   0.000   6.654   9.723 -0.9653  1.2071  0.8734
  161SOPE   C3518057  -0.118   6.495   9.620  0.7842 -0.5900  0.4781
  161SOPE   H5X18058  -0.182   6.412   9.657  0.3145  0.1098  1.2821
  161SOPE   H5Y18059  -0.030   6.453   9.567  3.1285  1.4523  2.5311
  161SOPE   C3618060  -0.195   6.571   9.510  0.3038 -0.4112 -0.6325
  161SOPE   H6X18061  -0.137   6.662   9.482 -1.1524  0.8117  0.1434
  161SOPE   H6Y18062  -0.301   6.595   9.536 -0.3820  0.0279 -3.5105
  161SOPE   C3718063  -0.192   6.483   9.384 -0.5032 -0.2807 -0.8456
  161SOPE   H7X18064  -0.247   6.387   9.396  1.2052 -1.0530  1.4768
  161SOPE   H7Y18065  -0.089   6.450   9.358  0.7228  1.1674  1.8320
  161SOPE   C3818066  -0.261   6.551   9.264 -0.1154  0.3349 -0.4181
  161SOPE   H8X18067  -0.219   6.652   9.248 -1.9471  1.4317  1.1909
  161SOPE   H8Y18068  -0.368   6.573   9.286  0.2508  2.5755 -0.6577
  161SOPE   C3918069  -0.249   6.460   9.137 -0.3512  0.6350  0.7760
  161SOPE   H9X18070  -0.285   6.363   9.177  2.6061  0.6215  3.8964
  161SOPE   H9Y18071  -0.141   6.449   9.113 -0.9305  1.0926 -2.5230
  161SOPE  C31018072  -0.320   6.509   9.009  0.1323  0.5668  0.0476
  161SOPE  H10X18073  -0.262   6.596   8.971 -0.0649  1.0070  0.7272
  161SOPE  H10Y18074  -0.423   6.542   9.034 -1.5714 -1.3005 -3.8075
  161SOPE  C31118075  -0.338   6.400   8.899  0.2582  1.3409  0.1177
  161SOPE  H11X18076  -0.249   6.335   8.892 -0.5678  0.2872 -0.9077
  161SOPE  H11Y18077  -0.369   6.437   8.799 -0.7105 -1.0893 -0.5539
  161SOPE  C31218078  -0.448   6.305   8.951 -0.1694  0.3951  0.3523
  161SOPE  H12X18079  -0.540   6.367   8.955  1.2948  2.8525 -1.2502
  161SOPE  H12Y18080  -0.422   6.267   9.052  2.4747 -0.3670 -0.5335
  161SOPE  C31318081  -0.471   6.179   8.865 -0.2458  0.6145 -0.6387
  161SOPE  H13X18082  -0.509   6.100   8.933 -1.6882  2.7300  1.1350
  161SOPE  H13Y18083  -0.373   6.139   8.832  1.4257  1.8686  2.3835
  161SOPE  C31418084  -0.577   6.185   8.755  0.2597 -0.0166 -0.3732
  161SOPE  H14X18085  -0.558   6.281   8.701  0.9418  0.0012 -0.1053
  161SOPE  H14Y18086  -0.674   6.191   8.809  0.0443 -0.3129 -0.7264
  161SOPE  C31518087  -0.576   6.060   8.668 -0.4644  0.5714 -0.0418
  161SOPE  H15X18088  -0.626   5.977   8.723 -0.3585  0.1128 -0.6267
  161SOPE  H15Y18089  -0.472   6.034   8.637 -0.4864  0.5222 -0.0765
  161SOPE  C31618090  -0.647   6.073   8.532 -0.4150 -0.0994 -0.5444
  161SOPE  H16X18091  -0.756   6.080   8.554 -0.4370  0.9164 -0.9546
  161SOPE  H16Y18092  -0.634   5.975   8.481 -0.1863  1.0285 -2.7846
  161SOPE  C31718093  -0.594   6.180   8.440  0.7364 -0.0213 -0.4973
  161SOPE  H17X18094  -0.488   6.164   8.412  0.0597 -1.9425 -2.2404
  161SOPE  H17Y18095  -0.612   6.274   8.496  0.4178  0.0111 -0.6532
  161SOPE  C31818096  -0.667   6.186   8.305 -0.1438  0.5363 -0.5857
  161SOPE  H18X18097  -0.650   6.087   8.258 -1.3469  0.0425 -0.0199
  161SOPE  H18Y18098  -0.614   6.264   8.246  0.0426  0.6979 -0.2078
  161SOPE  H18Z18099  -0.775   6.210   8.312  0.0210  0.7859  2.0783
  162SOPE     N18100   5.610   5.748  10.810 -0.5279 -0.3007 -0.4330
  162SOPE   HN118101   5.646   5.805  10.889 -0.8535 -0.7861  0.0716
  162SOPE   HN218102   5.549   5.673  10.849 -0.5809 -1.0201 -1.8335
  162SOPE   HN318103   5.688   5.698  10.763 -0.8050  0.0121 -1.2469
  162SOPE   C1218104   5.525   5.833  10.717 -0.1406  0.2957 -0.1726
  162SOPE  H12A18105   5.477   5.760  10.648  0.4162 -0.0225 -0.2268
  162SOPE  H12B18106   5.601   5.891  10.660 -0.8931 -0.0544 -1.5710
  162SOPE   C1118107   5.418   5.923  10.786  0.2124 -0.1478  0.2872
  162SOPE  H11A18108   5.353   5.865  10.854  1.7123 -0.6715  1.3380
  162SOPE  H11B18109   5.360   5.981  10.712 -0.3830 -0.1996  0.7125
  162SOPE     P18110   5.470   6.150  10.911  0.2533  0.2662  0.1399
  162SOPE   O1318111   5.602   6.205  10.960  0.4489 -0.4514 -0.1198
  162SOPE   O1418112   5.356   6.136  11.001 -0.5039 -0.1512 -0.7389
  162SOPE   O1218113   5.498   6.007  10.862  0.3161  0.1271 -0.1578
  162SOPE   O1118114   5.424   6.221  10.778 -0.2101  0.2684 -0.2762
  162SOPE    C118115   5.482   6.347  10.739  0.0928  0.1652  0.1353
  162SOPE    HA18116   5.549   6.399  10.812  0.4558  0.7398 -0.5978
  162SOPE    HB18117   5.402   6.423  10.730 -0.2446 -0.4008 -2.0528
  162SOPE    C218118   5.553   6.326  10.603  0.0814  0.3016  0.1691
  162SOPE    HS18119   5.618   6.415  10.594  1.1690 -0.6781 -2.7745
  162SOPE   O2118120   5.447   6.315  10.507 -0.2986  0.0638 -0.4281
  162SOPE   C2118121   5.468   6.375  10.397 -0.0670  0.2706  0.2992
  162SOPE   O2218122   5.573   6.428  10.363  0.0202 -0.4204  0.5614
  162SOPE   C2218123   5.339   6.357  10.317 -0.0363 -0.5880 -0.0552
  162SOPE   H2R18124   5.264   6.316  10.388  0.3116 -0.8114  0.1930
  162SOPE   H2S18125   5.358   6.275  10.245  1.3788 -1.4553  1.2464
  162SOPE    C318126   5.640   6.193  10.615  0.3787 -0.0164  0.2643
  162SOPE    HX18127   5.572   6.107  10.629 -0.5020  0.3974 -1.2565
  162SOPE    HY18128   5.711   6.204  10.700 -0.3986  0.5848  0.8459
  162SOPE   O3118129   5.700   6.155  10.494  0.2044 -0.2158  0.1159
  162SOPE   C3118130   5.812   6.235  10.461 -0.1892  0.1802 -0.4180
  162SOPE   O3218131   5.868   6.305  10.547 -0.4428  0.2544  0.1640
  162SOPE   C3218132   5.858   6.207  10.317  0.1278  0.3547  0.4132
  162SOPE   H2X18133   5.836   6.292  10.249  2.5448 -0.3905 -1.4458
  162SOPE   H2Y18134   5.818   6.112  10.277  1.0996  0.2365 -0.3300
  162SOPE   C2318135   5.279   6.488  10.257 -0.5006 -0.1636 -1.4617
  162SOPE   H3R18136   5.367   6.552  10.234  0.4323 -0.4476  1.0057
  162SOPE   H3S18137   5.214   6.546  10.326  2.1887  1.6723 -0.2842
  162SOPE   C2418138   5.208   6.454  10.127 -0.1088  0.0575  0.4221
  162SOPE   H4R18139   5.277   6.402  10.057  0.4737 -1.0604  1.7613
  162SOPE   H4S18140   5.129   6.377  10.140  0.5281 -0.9481 -1.3295
  162SOPE   C2518141   5.149   6.577  10.053 -0.2920  1.1709 -0.3266
  162SOPE   H5R18142   5.098   6.648  10.121 -1.0370  0.6260 -0.3083
  162SOPE   H5S18143   5.232   6.638  10.012  0.6061 -0.1702 -0.5682
  162SOPE   C2618144   5.057   6.532   9.932  0.4847 -0.4075  0.0996
  162SOPE   H6R18145   5.109   6.471   9.856  1.9344  0.9400 -0.0444
  162SOPE   H6S18146   4.984   6.468   9.985  1.4353  0.5167  2.6890
  162SOPE   C2718147   5.003   6.657   9.858 -0.3678  0.1557  0.1427
  162SOPE   H7R18148   4.928   6.692   9.932 -1.6518 -2.1955  0.0496
  162SOPE   H7S18149   5.087   6.729   9.850  0.5179 -0.7810  0.7000
  162SOPE   C2818150   4.930   6.647   9.716 -0.3365  0.6232  0.2616
  162SOPE   H8R18151   4.847   6.575   9.734  0.8828 -0.9401 -0.1585
  162SOPE   H8S18152   4.883   6.744   9.691 -0.3220  0.0979 -2.0601
  162SOPE   C2918153   5.013   6.591   9.605 -0.0710 -0.0658 -0.2247
  162SOPE   H9118154   5.085   6.512   9.631  1.6412  1.3388 -0.5562
  162SOPE  C21018155   5.020   6.624   9.479 -0.2228 -0.0810  0.4230
  162SOPE  H10118156   5.088   6.568   9.413  1.9238  0.2104  2.2848
  162SOPE  C21118157   4.941   6.741   9.410  0.3418  0.1747 -0.1046
  162SOPE  H11R18158   5.001   6.835   9.409  0.0849  0.3399  0.0106
  162SOPE  H11S18159   4.844   6.740   9.464 -0.3719 -2.1640 -1.2801
  162SOPE  C21218160   4.906   6.711   9.261 -0.5039 -0.0778  0.1256
  162SOPE  H12R18161   4.820   6.779   9.240 -1.0541  0.3050  3.1463
  162SOPE  H12S18162   4.863   6.610   9.247  0.0106 -0.0712 -1.7654
  162SOPE  C21318163   5.022   6.728   9.162  0.4054  0.1859 -0.6548
  162SOPE  H13R18164   5.095   6.648   9.186 -0.5556 -0.7632 -0.8626
  162SOPE  H13S18165   5.075   6.824   9.181  2.5414 -0.9581 -0.4244
  162SOPE  C21418166   4.979   6.712   9.012  0.1761  0.2754  0.0127
  162SOPE  H14R18167   4.901   6.789   8.995  1.0347  1.0619 -0.4408
  162SOPE  H14S18168   4.945   6.608   8.992  1.3071 -0.1096  0.0322
  162SOPE  C21518169   5.102   6.734   8.914 -0.3987 -0.4885  0.4866
  162SOPE  H15R18170   5.153   6.826   8.951  1.3770 -1.3269  0.2529
  162SOPE  H15S18171   5.065   6.754   8.811  0.9887  0.3155  0.1186
  162SOPE  C21618172   5.216   6.623   8.902 -0.1929  0.4077  0.0542
  162SOPE  H16R18173   5.191   6.532   8.843  3.0500 -1.5614  1.3963
  162SOPE  H16S18174   5.227   6.573   9.001 -0.1718  1.5202  0.6234
  162SOPE  C21718175   5.351   6.682   8.854 -0.1701  0.4199  0.1358
  162SOPE  H17R18176   5.392   6.751   8.930 -0.7579 -0.3272  1.1638
  162SOPE  H17S18177   5.334   6.751   8.769  2.0502 -0.4154 -1.0460
  162SOPE  C21818178   5.455   6.583   8.799 -0.1297  0.2773  0.8054
  162SOPE  H18R18179   5.408   6.514   8.726  1.9577  0.6230 -0.9687
  162SOPE  H18S18180   5.510   6.525   8.877 -0.1752 -1.3952 -0.3472
  162SOPE  H18T18181   5.537   6.633   8.744 -0.2639  0.8523  1.1236
  162SOPE   C3318182   6.011   6.185  10.303 -0.1896  0.1581 -0.2541
  162SOPE   H3X18183   6.040   6.111  10.380 -1.5840 -0.4136 -0.2549
  162SOPE   H3Y18184   6.068   6.281  10.310  0.0740  0.1570 -1.9072
  162SOPE   C3418185   6.061   6.138  10.166  0.6948 -0.6578  1.2652
  162SOPE   H4X18186   6.054   6.028  10.151  2.0505 -0.7228  1.0156
  162SOPE   H4Y18187   6.169   6.161  10.155  0.6776 -1.3503 -0.6551
  162SOPE   C3518188   5.986   6.184  10.043  0.3290  1.0340 -0.4330
  162SOPE   H5X18189   5.990   6.293  10.066  1.3311  1.0009 -0.3998
  162SOPE   H5Y18190   5.886   6.136  10.047  1.6456 -1.8023  1.7718
  162SOPE   C3618191   6.046   6.159   9.903 -0.2754 -0.5329 -0.1001
  162SOPE   H6X18192   6.032   6.049   9.891 -0.3459 -0.8062  2.1116
  162SOPE   H6Y18193   6.154   6.183   9.891  0.0917 -2.0749 -0.1354
  162SOPE   C3718194   5.965   6.216   9.792  0.4138  0.6933  0.0103
  162SOPE   H7X18195   5.935   6.323   9.791  0.2244  0.6530 -1.2516
  162SOPE   H7Y18196   5.870   6.160   9.804  0.6954  0.0961 -0.4686
  162SOPE   C3818197   6.021   6.167   9.649 -1.0946  0.0048 -1.8418
  162SOPE   H8X18198   6.086   6.079   9.664  1.3686  1.9549 -0.4637
  162SOPE   H8Y18199   6.094   6.242   9.613  2.1959 -1.6783  0.7575
  162SOPE   C3918200   5.916   6.139   9.547  0.4376  0.0937 -0.6050
  162SOPE   H9X18201   5.859   6.233   9.529 -1.0769 -1.0591 -2.2083
  162SOPE   H9Y18202   5.838   6.064   9.574 -0.9450  1.7489  0.2000
  162SOPE  C31018203   5.968   6.104   9.414 -0.1052 -0.4815  0.2751
  162SOPE  H10X18204   6.014   6.004   9.427 -0.8593 -0.7891  0.6181
  162SOPE  H10Y18205   6.038   6.181   9.375 -1.5437  1.5370  1.4587
  162SOPE  C31118206   5.856   6.090   9.314 -1.3951  0.1676 -0.5214
  162SOPE  H11X18207   5.814   6.190   9.291 -2.2748 -0.1720 -0.4260
  162SOPE  H11Y18208   5.779   6.024   9.359 -2.6996  1.9601  0.0142
  162SOPE  C31218209   5.910   6.030   9.184 -0.6426 -0.5760  0.2894
  162SOPE  H12X18210   5.954   5.928   9.196  1.7611  0.6203  2.7344
  162SOPE  H12Y18211   5.991   6.096   9.147  2.4220 -3.4552  1.3061
  162SOPE  C31318212   5.806   6.024   9.073  0.1507 -0.5727 -0.2663
  162SOPE  H13X18213   5.775   6.130   9.061  0.9430 -0.2289  0.6210
  162SOPE  H13Y18214   5.719   5.959   9.098  1.3478 -2.3026 -0.4238
  162SOPE  C31418215   5.874   5.976   8.943  0.1684  0.2654  1.1889
  162SOPE  H14X18216   5.920   5.876   8.963 -0.6452 -0.4939 -0.5016
  162SOPE  H14Y18217   5.958   6.044   8.919  1.5665 -1.6844  0.3371
  162SOPE  C31518218   5.783   5.958   8.827  0.0550 -0.5754 -0.2094
  162SOPE  H15X18219   5.844   5.981   8.737 -1.7866  1.3284 -1.0592
  162SOPE  H15Y18220   5.708   6.039   8.816  0.0923 -0.5884 -0.6046
  162SOPE  C31618221   5.711   5.828   8.806 -0.0828  0.3158 -0.1765
  162SOPE  H16X18222   5.632   5.850   8.731 -0.0033 -1.2651 -0.7719
  162SOPE  H16Y18223   5.657   5.800   8.899 -1.8985  0.2840 -1.1910
  162SOPE  C31718224   5.784   5.703   8.754  0.0548  0.6047 -0.5114
  162SOPE  H17X18225   5.861   5.681   8.831 -0.2323  1.1493 -0.0624
  162SOPE  H17Y18226   5.831   5.729   8.657 -0.2573  1.6142 -0.3998
  162SOPE  C31818227   5.696   5.581   8.722 -0.2682  0.2774 -0.2747
  162SOPE  H18X18228   5.643   5.541   8.811  1.1157  0.5964  0.7323
  162SOPE  H18Y18229   5.770   5.508   8.684 -0.5659  0.0886 -0.4949
  162SOPE  H18Z18230   5.623   5.617   8.647  0.3729  1.5705 -0.3189
  163SOPE     N18231   4.598   2.544  10.547 -0.4036  1.1318  0.1715
  163SOPE   HN118232   4.575   2.549  10.446  0.3202 -1.4205 -0.2135
  163SOPE   HN218233   4.699   2.565  10.556  0.0094  0.0731 -1.4833
  163SOPE   HN318234   4.584   2.445  10.575 -0.2095  0.4381 -1.9857
  163SOPE   C1218235   4.494   2.621  10.626 -0.0394 -0.1615 -0.6834
  163SOPE  H12A18236   4.406   2.630  10.558 -1.2115 -0.5920  0.7107
  163SOPE  H12B18237   4.538   2.719  10.655 -0.6268 -0.1393  0.1698
  163SOPE   C1118238   4.433   2.543  10.746  0.0941 -0.0986 -0.5857
  163SOPE  H11A18239   4.355   2.611  10.786 -0.2447 -0.4207 -0.6867
  163SOPE  H11B18240   4.507   2.522  10.826 -1.6226 -1.8849  0.6231
  163SOPE     P18241   4.297   2.335  10.819 -0.3324  0.2887  0.0988
  163SOPE   O1318242   4.248   2.432  10.919  0.2555  0.5887 -0.2965
  163SOPE   O1418243   4.376   2.219  10.869  0.0621 -0.3365 -0.0942
  163SOPE   O1218244   4.380   2.411  10.704 -0.2068  0.3629 -0.4173
  163SOPE   O1118245   4.179   2.267  10.747  0.0529  0.2910 -0.0190
  163SOPE    C118246   4.213   2.183  10.631 -0.6582 -0.2042 -0.3954
  163SOPE    HA18247   4.138   2.102  10.646 -1.0177  0.4571  1.7537
  163SOPE    HB18248   4.309   2.127  10.640  0.4250  1.6972  0.6119
  163SOPE    C218249   4.200   2.261  10.497  0.2314  1.0642 -0.1850
  163SOPE    HS18250   4.295   2.317  10.483  1.8446 -1.1333  1.2745
  163SOPE   O2118251   4.093   2.352  10.513  0.4810 -0.6025  0.3246
  163SOPE   C2118252   4.097   2.456  10.421  0.5454  1.0325 -0.0564
  163SOPE   O2218253   4.190   2.490  10.357  0.0792  0.4407  0.4978
  163SOPE   C2218254   3.969   2.537  10.432 -0.4286  0.1565 -0.5571
  163SOPE   H2R18255   4.014   2.637  10.415  0.1193 -0.0957 -0.6160
  163SOPE   H2S18256   3.947   2.530  10.541  0.9606 -0.6334 -0.3068
  163SOPE    C318257   4.179   2.157  10.380  0.4109 -0.6162 -0.3078
  163SOPE    HX18258   4.080   2.109  10.382 -0.8849  1.8235 -1.0940
  163SOPE    HY18259   4.238   2.065  10.397  0.0973 -0.5176  1.4017
  163SOPE   O3118260   4.195   2.209  10.250  0.1434  0.2719  0.3032
  163SOPE   C3118261   4.319   2.238  10.207  0.0881 -0.1018 -0.6686
  163SOPE   O3218262   4.414   2.223  10.277 -0.7406 -0.0413 -0.2897
  163SOPE   C3218263   4.307   2.300  10.065 -1.1279 -0.9471  0.3051
  163SOPE   H2X18264   4.222   2.372  10.059  1.2160  1.8879 -2.3856
  163SOPE   H2Y18265   4.293   2.215   9.995 -1.3954  0.4461 -1.3977
  163SOPE   C2318266   3.868   2.487  10.331  0.2823 -0.5072  0.2755
  163SOPE   H3R18267   3.768   2.534  10.348 -0.9489 -2.3586 -1.2839
  163SOPE   H3S18268   3.840   2.379  10.335 -2.0669  0.0264 -0.0329
  163SOPE   C2418269   3.899   2.531  10.192 -0.8362 -0.3333 -0.2074
  163SOPE   H4R18270   3.943   2.633  10.198 -2.0036  0.1604  0.3844
  163SOPE   H4S18271   3.979   2.467  10.149 -0.3961 -0.0598  0.1895
  163SOPE   C2518272   3.778   2.536  10.093 -0.4165  0.7341 -0.2037
  163SOPE   H5R18273   3.748   2.429  10.094  0.6609  0.4157  0.7838
  163SOPE   H5S18274   3.688   2.594  10.122 -2.8010 -0.4451 -4.4014
  163SOPE   C2618275   3.833   2.574   9.953  0.1747  0.6015  0.7161
  163SOPE   H6R18276   3.868   2.678   9.963  0.8626  0.7516 -2.1624
  163SOPE   H6S18277   3.924   2.514   9.931 -0.2836  0.0796  0.2015
  163SOPE   C2718278   3.742   2.554   9.829  0.9506 -0.6110 -0.0244
  163SOPE   H7R18279   3.720   2.450   9.795  0.5739  0.5346 -3.7244
  163SOPE   H7S18280   3.640   2.587   9.858 -0.1707 -2.5777 -1.4590
  163SOPE   C2818281   3.776   2.639   9.708 -0.4543 -0.1047  0.0104
  163SOPE   H8R18282   3.694   2.607   9.640 -0.3514 -2.1087  0.7729
  163SOPE   H8S18283   3.768   2.748   9.731 -1.3155 -0.2823  0.5910
  163SOPE   C2918284   3.912   2.611   9.657  0.6026  0.4134  0.9001
  163SOPE   H9118285   3.996   2.631   9.724  2.4031  2.1685 -1.7007
  163SOPE  C21018286   3.932   2.554   9.539 -0.5511  0.6998  0.7291
  163SOPE  H10118287   4.032   2.528   9.502 -1.0043  1.7597 -1.4150
  163SOPE  C21118288   3.825   2.521   9.439  0.1147 -0.4602 -0.4042
  163SOPE  H11R18289   3.737   2.586   9.454  1.1613  0.6870  0.9588
  163SOPE  H11S18290   3.794   2.418   9.468 -0.8883  0.1698  0.8373
  163SOPE  C21218291   3.872   2.518   9.292 -0.1853 -0.3375 -0.0335
  163SOPE  H12R18292   3.973   2.478   9.270  0.1354  1.1288 -1.4257
  163SOPE  H12S18293   3.883   2.626   9.273 -0.9336  0.0350  1.4643
  163SOPE  C21318294   3.772   2.436   9.204 -0.1368 -0.9663 -0.0933
  163SOPE  H13R18295   3.672   2.484   9.210  1.1859  1.8731  1.4219
  163SOPE  H13S18296   3.756   2.340   9.259  0.0113 -0.6497  0.5145
  163SOPE  C21418297   3.818   2.415   9.058  0.3401  0.0279 -0.5860
  163SOPE  H14R18298   3.792   2.316   9.014  0.8465 -0.0347 -0.7520
  163SOPE  H14S18299   3.927   2.402   9.075 -0.0672 -0.2551  2.3379
  163SOPE  C21518300   3.778   2.532   8.971  0.2378  0.2107 -0.3116
  163SOPE  H15R18301   3.834   2.522   8.875 -0.2761 -1.9248 -0.4492
  163SOPE  H15S18302   3.798   2.630   9.018  0.8197 -0.7880  1.6112
  163SOPE  C21618303   3.625   2.533   8.941 -0.0710  0.1430  0.1853
  163SOPE  H16R18304   3.574   2.548   9.038  0.5509  1.9502  0.2637
  163SOPE  H16S18305   3.594   2.436   8.897 -1.0130  0.6789 -0.3950
  163SOPE  C21718306   3.586   2.649   8.842  0.6030 -0.7864  0.4445
  163SOPE  H17R18307   3.661   2.644   8.760  1.1506  2.2600  0.6230
  163SOPE  H17S18308   3.598   2.747   8.894  0.0213 -2.4127  3.9503
  163SOPE  C21818309   3.437   2.639   8.788 -0.2560  0.6717 -0.2089
  163SOPE  H18R18310   3.432   2.535   8.748  0.4738  1.1440 -1.6128
  163SOPE  H18S18311   3.422   2.706   8.700 -1.5574 -0.5633 -0.9710
  163SOPE  H18T18312   3.357   2.657   8.863 -0.7471 -0.9792 -0.3032
  163SOPE   C3318313   4.442   2.376  10.027  0.1377  0.2267 -0.5288
  163SOPE   H3X18314   4.525   2.305  10.006 -2.0585 -2.3945 -0.9243
  163SOPE   H3Y18315   4.462   2.453  10.104 -0.0481 -0.1425 -0.1036
  163SOPE   C3418316   4.426   2.447   9.893  0.1228  0.0105 -0.1100
  163SOPE   H4X18317   4.342   2.519   9.906 -0.4489 -0.9218  1.7334
  163SOPE   H4Y18318   4.400   2.371   9.816  1.6095 -0.2195 -0.4215
  163SOPE   C3518319   4.547   2.528   9.851  0.8594 -0.6060 -0.2022
  163SOPE   H5X18320   4.637   2.463   9.848  2.0248  0.9320  0.1201
  163SOPE   H5Y18321   4.548   2.612   9.924 -0.2929  1.8436 -2.8516
  163SOPE   C3618322   4.529   2.585   9.713 -0.7852 -0.1698 -0.2219
  163SOPE   H6X18323   4.433   2.641   9.711 -0.2175  0.8991  1.1398
  163SOPE   H6Y18324   4.515   2.500   9.643 -1.7946 -0.2050  0.0141
  163SOPE   C3718325   4.653   2.668   9.667 -1.1652  0.3753  0.4492
  163SOPE   H7X18326   4.736   2.595   9.652 -2.4464 -1.3283  1.2012
  163SOPE   H7Y18327   4.686   2.741   9.743  1.3604 -0.3256  0.1087
  163SOPE   C3818328   4.623   2.750   9.543  1.2570  0.3641 -0.5903
  163SOPE   H8X18329   4.531   2.812   9.557  0.5757 -0.6001 -0.7483
  163SOPE   H8Y18330   4.609   2.680   9.458 -0.5690 -1.3772  1.0129
  163SOPE   C3918331   4.738   2.846   9.501  0.6758 -0.7361 -0.4550
  163SOPE   H9X18332   4.837   2.804   9.527  1.1685  0.1296 -0.8691
  163SOPE   H9Y18333   4.732   2.935   9.567 -0.9092 -1.3160  0.2303
  163SOPE  C31018334   4.740   2.901   9.356  1.1595 -0.5064  0.0408
  163SOPE  H10X18335   4.767   2.822   9.283  3.4319  1.3735 -1.2719
  163SOPE  H10Y18336   4.817   2.980   9.354  0.6559  0.0588  1.4877
  163SOPE  C31118337   4.617   2.977   9.305 -0.0486  1.4028 -0.0063
  163SOPE  H11X18338   4.605   3.066   9.370  1.1189  0.3025  1.8064
  163SOPE  H11Y18339   4.524   2.921   9.328  0.3781  0.5345 -0.3364
  163SOPE  C31218340   4.628   3.019   9.156  0.0468  0.6315 -0.0766
  163SOPE  H12X18341   4.619   2.931   9.089  1.9161 -0.9636  1.6665
  163SOPE  H12Y18342   4.734   3.046   9.136  0.1533 -1.0608 -2.1884
  163SOPE  C31318343   4.527   3.122   9.100 -0.2581 -0.0629 -0.5474
  163SOPE  H13X18344   4.535   3.210   9.167  0.1537  0.8883 -1.7958
  163SOPE  H13Y18345   4.427   3.074   9.112  0.1349 -0.6855  0.2849
  163SOPE  C31418346   4.537   3.170   8.957 -0.6069  0.8271 -0.1808
  163SOPE  H14X18347   4.499   3.098   8.881  1.1782  0.1201 -0.4759
  163SOPE  H14Y18348   4.646   3.167   8.936 -0.8878  2.1253 -2.1447
  163SOPE  C31518349   4.481   3.303   8.927  0.3614 -0.6314  0.3212
  163SOPE  H15X18350   4.496   3.340   8.824  2.1620 -1.6984  0.1589
  163SOPE  H15Y18351   4.525   3.377   8.998 -0.8474 -0.4737  0.9437
  163SOPE  C31618352   4.326   3.306   8.945  0.0369  0.2421  0.0379
  163SOPE  H16X18353   4.295   3.403   8.990 -2.0790 -0.4544  0.1897
  163SOPE  H16Y18354   4.290   3.235   9.023 -1.3175  1.4804  0.5901
  163SOPE  C31718355   4.248   3.297   8.815 -0.2476  0.4184 -0.5038
  163SOPE  H17X18356   4.254   3.194   8.774 -1.2789 -0.2535  0.9490
  163SOPE  H17Y18357   4.280   3.370   8.738 -2.0897  1.3920 -0.4167
  163SOPE  C31818358   4.094   3.328   8.828 -0.3595  0.1932  0.2082
  163SOPE  H18X18359   4.050   3.312   8.727  1.3902 -3.5266 -0.1461
  163SOPE  H18Y18360   4.078   3.430   8.869  0.0348  0.1069  0.5870
  163SOPE  H18Z18361   4.047   3.258   8.900  0.5925  1.0486  1.6954
  164SOPE     N18362   6.493   0.733  10.709 -0.3128 -0.0769 -0.3244
  164SOPE   HN118363   6.401   0.743  10.755  1.3271  1.1004  3.0852
  164SOPE   HN218364   6.563   0.791  10.760  0.9708 -0.7850 -1.2085
  164SOPE   HN318365   6.478   0.772  10.614 -0.3649  4.2764  1.2552
  164SOPE   C1218366   6.532   0.584  10.702  0.1962 -0.4951  0.1292
  164SOPE  H12A18367   6.545   0.547  10.806 -1.5371  0.3708  0.6922
  164SOPE  H12B18368   6.634   0.591  10.658  0.7479 -0.9899  1.2668
  164SOPE   C1118369   6.420   0.511  10.628  0.5547  0.1743  0.6595
  164SOPE  H11A18370   6.449   0.407  10.600  1.8878  0.9571 -1.0541
  164SOPE  H11B18371   6.415   0.556  10.527 -0.6242 -1.3730 -0.0117
  164SOPE     P18372   6.161   0.496  10.618  0.2225  0.0609 -0.1485
  164SOPE   O1318373   6.051   0.510  10.719 -0.5231  0.0114  0.8260
  164SOPE   O1418374   6.153   0.377  10.533  0.0505  0.6041  0.3141
  164SOPE   O1218375   6.299   0.498  10.695 -0.4183  0.4222 -0.5926
  164SOPE   O1118376   6.181   0.627  10.545  0.0776 -0.2303 -0.0081
  164SOPE    C118377   6.088   0.732  10.536  0.4037 -0.4495 -1.1767
  164SOPE    HA18378   6.124   0.828  10.579  0.5081 -0.3142 -1.5692
  164SOPE    HB18379   5.998   0.712  10.597  1.2346 -0.4671  0.0961
  164SOPE    C218380   6.058   0.773  10.393 -0.7513 -0.9944 -0.2355
  164SOPE    HS18381   5.962   0.828  10.383 -0.8177 -1.5256 -3.6828
  164SOPE   O2118382   6.051   0.668  10.300 -0.3966 -0.5676 -0.0210
  164SOPE   C2118383   5.962   0.573  10.331  0.2119  0.2159  0.7855
  164SOPE   O2218384   5.877   0.571  10.414  0.3115 -0.3345 -0.2165
  164SOPE   C2218385   5.975   0.466  10.219 -0.4755 -0.9826 -0.4729
  164SOPE   H2R18386   6.073   0.485  10.170  0.5988 -0.4064  1.7695
  164SOPE   H2S18387   5.898   0.480  10.140  0.3316  0.2077 -1.0867
  164SOPE    C318388   6.168   0.875  10.341  0.1176  0.3170  0.0031
  164SOPE    HX18389   6.269   0.828  10.349  0.8102  0.7932 -3.8421
  164SOPE    HY18390   6.162   0.962  10.410 -2.1619 -0.2350  0.5985
  164SOPE   O3118391   6.136   0.913  10.207  0.0556 -0.1633  0.2336
  164SOPE   C3118392   6.195   0.842  10.115 -0.4883 -0.2742 -0.1667
  164SOPE   O3218393   6.285   0.765  10.133 -0.2528  0.2132 -0.0504
  164SOPE   C3218394   6.128   0.873   9.983 -1.0802  0.1013 -0.7181
  164SOPE   H2X18395   6.145   0.982   9.966 -2.6734  0.3163 -1.0609
  164SOPE   H2Y18396   6.021   0.846   9.984 -1.4242  1.3919  1.5220
  164SOPE   C2318397   5.993   0.322  10.274 -0.2300 -0.1032 -0.4856
  164SOPE   H3R18398   5.955   0.325  10.378 -3.1724 -0.1721 -1.4838
  164SOPE   H3S18399   6.101   0.295  10.270 -0.2328 -0.1899  0.0069
  164SOPE   C2418400   5.914   0.232  10.185 -0.1188 -0.2915 -0.2401
  164SOPE   H4R18401   5.901   0.133  10.234 -1.8515  1.4195  3.1894
  164SOPE   H4S18402   5.808   0.265  10.183 -0.2329 -0.7027 -1.1538
  164SOPE   C2518403   5.978   0.229  10.041  0.4693 -0.3399 -0.6748
  164SOPE   H5R18404   6.012   0.331  10.011  0.0033  0.1137  0.3021
  164SOPE   H5S18405   6.067   0.165  10.056  0.3694 -0.1628  0.8102
  164SOPE   C2618406   5.889   0.166   9.929 -0.4502 -0.6235 -0.3860
  164SOPE   H6R18407   5.839   0.071   9.958 -0.1614 -0.7894 -0.4359
  164SOPE   H6S18408   5.800   0.230   9.906 -0.4942 -0.3545  0.4641
  164SOPE   C2718409   5.975   0.134   9.809 -0.0425 -0.0806  0.1042
  164SOPE   H7R18410   6.079   0.104   9.835  0.1383  0.5853  0.1889
  164SOPE   H7S18411   5.921   0.047   9.766 -0.2008  0.0024  0.1326
  164SOPE   C2818412   5.968   0.253   9.703  1.0765 -0.2181 -0.0045
  164SOPE   H8R18413   5.959   0.349   9.757  1.3351 -0.8329  1.1601
  164SOPE   H8S18414   6.067   0.246   9.653  0.5226 -2.7993 -0.9074
  164SOPE   C2918415   5.851   0.259   9.607  0.1820  0.0743 -0.3158
  164SOPE   H9118416   5.754   0.275   9.655  0.3798 -0.2415  0.2119
  164SOPE  C21018417   5.853   0.238   9.475 -0.2078  0.4037 -0.2222
  164SOPE  H10118418   5.770   0.268   9.410  0.3791  0.8866 -0.7703
  164SOPE  C21118419   5.973   0.185   9.405 -0.4997 -0.2732 -0.6436
  164SOPE  H11R18420   6.046   0.143   9.477  1.3771 -0.8543 -2.7777
  164SOPE  H11S18421   6.024   0.259   9.339 -1.3320  0.2556 -0.7177
  164SOPE  C21218422   5.943   0.073   9.309  0.3810  0.2376 -0.2358
  164SOPE  H12R18423   5.858   0.018   9.354  0.4963  1.3662  1.4530
  164SOPE  H12S18424   6.020  -0.004   9.288 -1.5862 -1.5579 -1.1748
  164SOPE  C21318425   5.900   0.128   9.175 -0.2336 -0.4848  0.8098
  164SOPE  H13R18426   5.993   0.171   9.133 -0.7889  0.9780  1.0324
  164SOPE  H13S18427   5.829   0.212   9.190 -0.2739 -0.4745  0.5729
  164SOPE  C21418428   5.850   0.022   9.078  0.4177  0.1094  0.0652
  164SOPE  H14R18429   5.760  -0.019   9.128 -0.3614  1.4497 -0.1902
  164SOPE  H14S18430   5.919  -0.066   9.072 -0.0429 -0.3062  0.7434
  164SOPE  C21518431   5.814   0.073   8.938  0.2556 -0.4374 -0.1926
  164SOPE  H15R18432   5.901   0.117   8.886 -0.5397 -1.1591 -2.2519
  164SOPE  H15S18433   5.733   0.150   8.940  1.2039  0.6480 -1.6153
  164SOPE  C21618434   5.769  -0.041   8.845  0.1196 -0.0365  0.8660
  164SOPE  H16R18435   5.675  -0.088   8.879 -0.2003 -0.4696 -0.5732
  164SOPE  H16S18436   5.845  -0.121   8.836  2.0157  1.8831 -1.6683
  164SOPE  C21718437   5.763   0.002   8.698  0.3275 -0.4352  0.1464
  164SOPE  H17R18438   5.746  -0.088   8.635 -3.0850  0.8026 -0.9216
  164SOPE  H17S18439   5.864   0.030   8.660 -0.3048 -0.9842 -2.0928
  164SOPE  C21818440   5.655   0.100   8.655  0.9653  0.1205 -0.2653
  164SOPE  H18R18441   5.676   0.139   8.553  0.3630 -5.4490 -2.8974
  164SOPE  H18S18442   5.645   0.176   8.736 -0.0806 -1.5572  1.2517
  164SOPE  H18T18443   5.559   0.045   8.662  1.0401 -0.1072 -0.9784
  164SOPE   C3318444   6.192   0.786   9.869  0.5553  0.2269 -0.3928
  164SOPE   H3X18445   6.211   0.683   9.905  2.5323  0.3809 -0.8728
  164SOPE   H3Y18446   6.293   0.832   9.865  0.5036  0.2668 -1.5966
  164SOPE   C3418447   6.124   0.810   9.729  0.3974  0.0136  0.1152
  164SOPE   H4X18448   6.135   0.915   9.693  1.3615  0.4632  1.5974
  164SOPE   H4Y18449   6.014   0.796   9.736  0.0197  2.3266 -0.1518
  164SOPE   C3518450   6.185   0.724   9.627 -0.1685  0.1806 -0.4867
  164SOPE   H5X18451   6.171   0.620   9.664  1.1270  0.1967  0.1289
  164SOPE   H5Y18452   6.291   0.757   9.624 -0.3376  0.6950 -0.7547
  164SOPE   C3618453   6.129   0.733   9.486  0.4374 -0.1663 -0.1517
  164SOPE   H6X18454   6.146   0.835   9.445 -0.4877  0.4764  1.0012
  164SOPE   H6Y18455   6.018   0.736   9.486  0.3575  2.0176  3.2829
  164SOPE   C3718456   6.164   0.612   9.395 -0.2980 -0.1672 -0.1372
  164SOPE   H7X18457   6.162   0.525   9.465 -0.2951  1.8033  2.4769
  164SOPE   H7Y18458   6.270   0.614   9.363  0.2028  0.3533  1.4374
  164SOPE   C3818459   6.067   0.601   9.277  0.5818  0.0085  0.0940
  164SOPE   H8X18460   6.032   0.705   9.260 -2.1352 -0.8912 -0.3353
  164SOPE   H8Y18461   5.976   0.553   9.319  0.4932 -1.1346 -1.3047
  164SOPE   C3918462   6.100   0.533   9.146 -0.3997 -0.2601  0.2869
  164SOPE   H9X18463   6.168   0.446   9.160  1.6696  1.5012  1.9082
  164SOPE   H9Y18464   6.166   0.609   9.098 -0.7790  1.6943  2.6762
  164SOPE  C31018465   5.971   0.502   9.071 -0.4513 -0.0092 -0.0991
  164SOPE  H10X18466   5.920   0.600   9.056 -0.5160 -0.1416 -0.7750
  164SOPE  H10Y18467   5.907   0.432   9.129 -1.2391  1.1405  0.4470
  164SOPE  C31118468   6.004   0.446   8.935  0.1177 -0.3517  0.8682
  164SOPE  H11X18469   6.065   0.353   8.935  1.2527  0.3552 -0.3956
  164SOPE  H11Y18470   6.064   0.525   8.886  1.1320 -0.7908  1.3817
  164SOPE  C31218471   5.878   0.419   8.845 -0.5235  0.1836 -0.3016
  164SOPE  H12X18472   5.795   0.367   8.898  1.0462 -2.6393 -0.3824
  164SOPE  H12Y18473   5.908   0.345   8.768 -1.2192 -1.5800  1.0526
  164SOPE  C31318474   5.818   0.546   8.797  0.4945  0.3123 -0.3881
  164SOPE  H13X18475   5.891   0.609   8.742  3.5947 -0.9156  2.0050
  164SOPE  H13Y18476   5.794   0.604   8.889  0.2744  0.0448 -0.2771
  164SOPE  C31418477   5.695   0.526   8.712  0.0783  0.2839  0.1975
  164SOPE  H14X18478   5.666   0.634   8.709  0.2286  0.3152 -0.1807
  164SOPE  H14Y18479   5.615   0.466   8.759 -1.7131  0.5887 -2.2668
  164SOPE  C31518480   5.710   0.479   8.574  0.1755  0.4286  0.0263
  164SOPE  H15X18481   5.714   0.368   8.566  0.1337  0.5622 -2.9334
  164SOPE  H15Y18482   5.807   0.510   8.530  0.4378 -1.5857 -0.9345
  164SOPE  C31618483   5.601   0.527   8.485 -0.0924 -0.3872 -0.1340
  164SOPE  H16X18484   5.623   0.635   8.469 -0.4892 -0.1958  0.5993
  164SOPE  H16Y18485   5.500   0.521   8.530 -0.0615 -3.5205 -0.2507
  164SOPE  C31718486   5.605   0.437   8.361  0.1891 -0.3940 -0.8971
  164SOPE  H17X18487   5.600   0.333   8.398 -3.1818 -0.0119  0.0962
  164SOPE  H17Y18488   5.696   0.459   8.301  0.3052 -0.9201 -0.9139
  164SOPE  C31818489   5.484   0.455   8.280 -0.4729  0.1386  0.0213
  164SOPE  H18X18490   5.473   0.372   8.207 -3.7313  0.1988  0.2887
  164SOPE  H18Y18491   5.482   0.548   8.219  3.0401  0.5573  0.3442
  164SOPE  H18Z18492   5.391   0.460   8.341  0.2584  1.5422  1.0831
  165SOPE     N18493   6.249   1.508  10.856 -0.4635 -0.7434  0.8947
  165SOPE   HN118494   6.195   1.470  10.936  0.7431  0.8354  2.5294
  165SOPE   HN218495   6.349   1.492  10.877 -0.3322  1.0424  1.8589
  165SOPE   HN318496   6.225   1.610  10.858 -2.9870 -1.2675  2.1778
  165SOPE   C1218497   6.212   1.448  10.729  0.0382  0.4009  0.0203
  165SOPE  H12A18498   6.105   1.417  10.728  0.2110 -0.1901 -0.0155
  165SOPE  H12B18499   6.272   1.355  10.725  0.1032  0.4535 -0.2910
  165SOPE   C1118500   6.265   1.529  10.615 -0.0685 -0.4454  0.0762
  165SOPE  H11A18501   6.250   1.491  10.512  2.4325 -1.2565 -0.0633
  165SOPE  H11B18502   6.375   1.516  10.624  0.3385  2.7958  0.9805
  165SOPE     P18503   6.113   1.738  10.568  0.5276  0.1342  0.2825
  165SOPE   O1318504   6.126   1.882  10.578  0.2916 -0.0764  0.0062
  165SOPE   O1418505   5.983   1.683  10.617 -0.2702  0.2295 -0.2708
  165SOPE   O1218506   6.244   1.670  10.636 -0.2791 -0.9723 -0.0665
  165SOPE   O1118507   6.139   1.705  10.410 -0.0295 -0.7543  0.3196
  165SOPE    C118508   6.263   1.733  10.350 -0.3561 -0.1745  0.5596
  165SOPE    HA18509   6.331   1.648  10.375 -0.4755  0.0370  1.6262
  165SOPE    HB18510   6.321   1.822  10.381  0.5860 -0.0982 -1.2437
  165SOPE    C218511   6.255   1.743  10.204  1.2479  0.5228  0.4486
  165SOPE    HS18512   6.361   1.731  10.173  0.5440  0.1861 -2.0105
  165SOPE   O2118513   6.196   1.872  10.168 -0.0084 -1.0984  0.1272
  165SOPE   C2118514   6.283   1.969  10.176 -0.1585  0.9093 -0.8855
  165SOPE   O2218515   6.401   1.960  10.207 -0.6444 -0.7229 -0.5570
  165SOPE   C2218516   6.215   2.099  10.132  0.2806  1.0632 -0.3165
  165SOPE   H2R18517   6.241   2.174  10.211  2.7151 -0.6084  0.5803
  165SOPE   H2S18518   6.104   2.092  10.139  0.1084  3.6482  0.5709
  165SOPE    C318519   6.172   1.639  10.130  0.6537  0.4965  0.0413
  165SOPE    HX18520   6.066   1.633  10.163 -0.4668 -0.0029 -3.2569
  165SOPE    HY18521   6.224   1.543  10.151  0.9419  0.8121  0.7848
  165SOPE   O3118522   6.173   1.657   9.980  0.1927  0.8398  0.1492
  165SOPE   C3118523   6.061   1.681   9.922 -0.0638 -0.2699 -0.9627
  165SOPE   O3218524   5.949   1.673   9.973 -0.4089  0.3742 -0.4660
  165SOPE   C3218525   6.082   1.718   9.774  0.0318  0.1638  0.0900
  165SOPE   H2X18526   6.182   1.766   9.765 -0.5813  1.7440  1.1419
  165SOPE   H2Y18527   6.004   1.791   9.746 -1.3385 -1.7363 -1.2618
  165SOPE   C2318528   6.270   2.147   9.988 -0.3281 -0.9585 -0.5737
  165SOPE   H3R18529   6.380   2.166   9.993 -0.8117  2.1752  0.4120
  165SOPE   H3S18530   6.227   2.249   9.976 -1.1732 -1.0819  1.1265
  165SOPE   C2418531   6.234   2.054   9.882 -0.4095  0.2737  0.4177
  165SOPE   H4R18532   6.290   1.959   9.897  0.0719  0.7094  1.4423
  165SOPE   H4S18533   6.126   2.027   9.878 -0.0534 -1.1011 -0.4189
  165SOPE   C2518534   6.267   2.107   9.734  0.7181 -0.1033  0.1019
  165SOPE   H5R18535   6.179   2.155   9.685 -0.0870 -1.0910  0.5296
  165SOPE   H5S18536   6.345   2.183   9.753  0.6381  0.0449 -0.1650
  165SOPE   C2618537   6.323   1.994   9.644 -0.1248 -0.3799 -0.0006
  165SOPE   H6R18538   6.390   1.944   9.716  0.6185  0.9143  0.2332
  165SOPE   H6S18539   6.241   1.926   9.611 -0.4414 -0.1519  0.3098
  165SOPE   C2718540   6.393   2.034   9.511  0.8874 -0.3634  0.4350
  165SOPE   H7R18541   6.466   2.112   9.545  2.1244 -0.3437 -2.0464
  165SOPE   H7S18542   6.452   1.949   9.471  0.0558 -0.2060 -1.1699
  165SOPE   C2818543   6.300   2.090   9.397 -0.2798  0.8191 -0.0744
  165SOPE   H8R18544   6.224   2.147   9.455  0.8365  2.0565  0.2415
  165SOPE   H8S18545   6.360   2.147   9.323 -1.4104  1.3500 -0.6090
  165SOPE   C2918546   6.241   1.969   9.327 -0.2518 -0.6418  0.5306
  165SOPE   H9118547   6.159   1.919   9.381  0.0298 -1.4632  0.2198
  165SOPE  C21018548   6.293   1.918   9.212 -0.0067  0.6640  1.1034
  165SOPE  H10118549   6.251   1.834   9.155  2.9838 -0.4371  0.3076
  165SOPE  C21118550   6.409   1.965   9.135 -0.9031 -0.1894  0.8258
  165SOPE  H11R18551   6.478   1.883   9.109 -1.7135  0.1081 -2.7108
  165SOPE  H11S18552   6.474   2.038   9.189 -2.0704 -0.2728  2.4199
  165SOPE  C21218553   6.375   2.042   9.006 -0.1764 -0.0396 -0.2454
  165SOPE  H12R18554   6.328   2.139   9.032 -0.9474 -0.2583 -0.7685
  165SOPE  H12S18555   6.296   1.988   8.947 -0.8235  0.2325  0.3637
  165SOPE  C21318556   6.490   2.062   8.903  0.3853 -0.4895 -0.3548
  165SOPE  H13R18557   6.549   1.968   8.891 -0.2541 -1.0018  0.3805
  165SOPE  H13S18558   6.556   2.143   8.940  1.1183 -1.1746 -0.1408
  165SOPE  C21418559   6.437   2.105   8.765 -0.4212  1.6688  0.6246
  165SOPE  H14R18560   6.381   2.198   8.789 -0.4618  1.3677  1.7673
  165SOPE  H14S18561   6.364   2.031   8.726 -0.4432  1.5070  0.9717
  165SOPE  C21518562   6.553   2.141   8.666 -0.1603  0.1670  0.2668
  165SOPE  H15R18563   6.608   2.047   8.642  1.4275  1.2048 -0.2225
  165SOPE  H15S18564   6.626   2.212   8.708  1.8015 -0.8286 -1.3077
  165SOPE  C21618565   6.481   2.195   8.539 -0.0304 -0.7600  0.2011
  165SOPE  H16R18566   6.408   2.277   8.558 -0.6335 -1.0501 -0.7735
  165SOPE  H16S18567   6.427   2.111   8.491 -0.0353 -1.2565  1.0710
  165SOPE  C21718568   6.591   2.261   8.451  0.0503 -0.7587 -0.1099
  165SOPE  H17R18569   6.671   2.189   8.424  0.7181 -0.5428  1.2213
  165SOPE  H17S18570   6.640   2.333   8.519 -1.8073  1.6812 -1.2007
  165SOPE  C21818571   6.540   2.344   8.331 -0.3241  0.0262 -0.3549
  165SOPE  H18R18572   6.478   2.430   8.366  0.5763  0.2154  0.8537
  165SOPE  H18S18573   6.477   2.275   8.271  2.0343 -2.1300 -0.4995
  165SOPE  H18T18574   6.617   2.379   8.259  0.9940 -1.7121  0.1473
  165SOPE   C3318575   6.064   1.600   9.684  0.2512  1.2115  0.2833
  165SOPE   H3X18576   5.964   1.552   9.693  0.1307  1.6636  1.5409
  165SOPE   H3Y18577   6.141   1.529   9.718 -0.2796  0.7354  0.5031
  165SOPE   C3418578   6.095   1.619   9.535 -0.2280 -0.2631  0.2827
  165SOPE   H4X18579   6.196   1.666   9.537 -0.3848  0.0482  1.4645
  165SOPE   H4Y18580   6.029   1.697   9.491  1.6441  0.9184 -0.5731
  165SOPE   C3518581   6.079   1.489   9.457  0.2465 -0.7930 -0.6152
  165SOPE   H5X18582   5.984   1.438   9.481 -0.7307  1.5623  0.8588
  165SOPE   H5Y18583   6.155   1.409   9.475  0.1558 -1.1043 -1.5639
  165SOPE   C3618584   6.067   1.525   9.311 -0.2877  0.2307  0.1019
  165SOPE   H6X18585   5.981   1.595   9.298 -0.7452 -0.3715 -0.1928
  165SOPE   H6Y18586   6.030   1.430   9.267  1.8502 -0.0025 -1.3596
  165SOPE   C3718587   6.196   1.571   9.248  0.2627  0.0574 -0.0307
  165SOPE   H7X18588   6.269   1.493   9.276 -0.0218 -0.6343 -1.1482
  165SOPE   H7Y18589   6.227   1.670   9.289 -2.4802  1.3503 -0.8619
  165SOPE   C3818590   6.198   1.580   9.095 -0.4962 -0.0314 -0.6171
  165SOPE   H8X18591   6.305   1.598   9.071 -1.0403  0.7425 -2.7230
  165SOPE   H8Y18592   6.131   1.662   9.060 -0.2402 -0.6513 -2.7457
  165SOPE   C3918593   6.176   1.449   9.028  0.2307 -0.3728  0.0035
  165SOPE   H9X18594   6.080   1.411   9.070  0.8561 -0.7470  1.1309
  165SOPE   H9Y18595   6.253   1.374   9.055 -0.4956 -0.9625  0.4797
  165SOPE  C31018596   6.159   1.439   8.871 -0.2248  0.5762 -0.1254
  165SOPE  H10X18597   6.246   1.487   8.822 -0.1936  0.5893 -0.0568
  165SOPE  H10Y18598   6.073   1.505   8.845 -0.2737  0.4319 -0.3289
  165SOPE  C31118599   6.147   1.297   8.832  0.0700 -0.2791  0.3600
  165SOPE  H11X18600   6.052   1.249   8.866 -0.2250  0.1646  0.1731
  165SOPE  H11Y18601   6.226   1.239   8.885 -0.5760 -0.3042  1.3284
  165SOPE  C31218602   6.172   1.263   8.684 -0.3798 -0.1537 -0.1586
  165SOPE  H12X18603   6.246   1.339   8.650 -0.6228 -0.1907 -0.7761
  165SOPE  H12Y18604   6.079   1.285   8.628 -0.5407  1.6309  0.7246
  165SOPE  C31318605   6.211   1.118   8.645  0.3682 -0.4277  0.6493
  165SOPE  H13X18606   6.134   1.053   8.691 -1.6207  0.4582 -1.2428
  165SOPE  H13Y18607   6.306   1.089   8.696  0.4128 -2.5230 -0.5398
  165SOPE  C31418608   6.213   1.101   8.494  0.1764  0.2750 -0.5656
  165SOPE  H14X18609   6.145   1.177   8.450 -0.9849 -0.6095 -0.3242
  165SOPE  H14Y18610   6.185   1.000   8.458  1.2741  0.2462 -1.4097
  165SOPE  C31518611   6.357   1.136   8.448  0.6174 -0.0503  0.5693
  165SOPE  H15X18612   6.426   1.052   8.474  1.2529  0.1673 -0.3412
  165SOPE  H15Y18613   6.383   1.228   8.503 -0.2268  1.3557 -1.2675
  165SOPE  C31618614   6.365   1.174   8.295 -0.3151  0.2752  0.3729
  165SOPE  H16X18615   6.309   1.267   8.273 -0.1534 -0.2931 -2.8697
  165SOPE  H16Y18616   6.324   1.086   8.241 -0.9323  0.9968 -0.3433
  165SOPE  C31718617   6.504   1.184   8.239  0.0026 -0.2622  0.5356
  165SOPE  H17X18618   6.557   1.087   8.236 -2.5690 -1.7596  0.1754
  165SOPE  H17Y18619   6.564   1.262   8.290 -0.8274  0.6560  0.1428
  165SOPE  C31818620   6.497   1.217   8.087 -0.9733  0.2918 -1.1987
  165SOPE  H18X18621   6.591   1.195   8.033  0.3185  1.6247  0.4136
  165SOPE  H18Y18622   6.475   1.324   8.068 -1.3419  0.4397 -0.0578
  165SOPE  H18Z18623   6.409   1.164   8.045 -0.8799 -0.0935 -0.9134
  166SOPE     N18624   3.834   3.173  11.083 -0.3360  0.4373  0.3652
  166SOPE   HN118625   3.853   3.253  11.146 -1.3100  1.3020 -0.3958
  166SOPE   HN218626   3.733   3.172  11.055 -0.2597  0.5121  0.0792
  166SOPE   HN318627   3.845   3.088  11.141 -3.3185  0.8611  1.7614
  166SOPE   C1218628   3.921   3.162  10.963  0.2590  0.3009 -0.3133
  166SOPE  H12A18629   3.908   3.254  10.902 -1.0221 -0.5792 -1.4340
  166SOPE  H12B18630   3.876   3.080  10.902 -0.1912  2.1709 -2.6820
  166SOPE   C1118631   4.062   3.118  10.985  0.4109 -1.0323  0.3964
  166SOPE  H11A18632   4.065   3.029  11.051 -0.0092 -1.0182  0.4382
  166SOPE  H11B18633   4.110   3.205  11.034 -1.9691  0.7081 -0.1926
  166SOPE     P18634   4.256   3.029  10.852 -0.6428  0.0902 -0.4672
  166SOPE   O1318635   4.242   2.886  10.881  0.3933  0.0025  0.3638
  166SOPE   O1418636   4.354   3.100  10.936  0.5575  0.2042  0.1442
  166SOPE   O1218637   4.117   3.098  10.854 -0.2830 -0.1178  0.4684
  166SOPE   O1118638   4.297   3.051  10.706 -0.3074 -0.1474  0.1392
  166SOPE    C118639   4.248   3.160  10.622  0.0755  0.0419 -0.0043
  166SOPE    HA18640   4.334   3.216  10.579 -1.5093  3.5005  0.9783
  166SOPE    HB18641   4.184   3.236  10.671 -1.1486  0.5372 -2.2208
  166SOPE    C218642   4.165   3.098  10.510 -0.0368 -0.6664 -0.0685
  166SOPE    HS18643   4.143   3.186  10.446 -1.5053  1.1550  2.7418
  166SOPE   O2118644   4.055   3.023  10.551  0.3101  0.9939 -0.7206
  166SOPE   C2118645   3.946   3.097  10.589 -0.3078  0.6584  0.1100
  166SOPE   O2218646   3.946   3.216  10.610 -0.0286 -0.3381 -0.7228
  166SOPE   C2218647   3.827   3.001  10.618 -0.5441 -0.4885 -0.3925
  166SOPE   H2R18648   3.756   3.052  10.687  0.9102  0.6536  0.3283
  166SOPE   H2S18649   3.860   2.909  10.671  1.9641  0.8803  0.5929
  166SOPE    C318650   4.255   3.009  10.428 -0.6800  0.0394  0.0605
  166SOPE    HX18651   4.257   2.909  10.477  0.0285  0.0101 -0.0062
  166SOPE    HY18652   4.361   3.044  10.431 -1.3668  2.2299  1.4754
  166SOPE   O3118653   4.201   3.005  10.298 -0.0827 -0.0383 -0.1266
  166SOPE   C3118654   4.254   2.910  10.218 -0.3046  1.0973  0.6501
  166SOPE   O3218655   4.334   2.827  10.258  0.8705 -0.1921 -0.3180
  166SOPE   C3218656   4.192   2.913  10.075 -0.2372 -0.3436 -0.4580
  166SOPE   H2X18657   4.220   3.011  10.029  2.0722 -1.3759 -1.4394
  166SOPE   H2Y18658   4.083   2.899  10.086 -0.0472 -0.2522  1.9323
  166SOPE   C2318659   3.760   2.955  10.498  0.5007  0.3524  0.3625
  166SOPE   H3R18660   3.667   2.899  10.522  1.4482 -0.7863  1.5173
  166SOPE   H3S18661   3.821   2.878  10.446 -0.8204  1.5586 -3.3610
  166SOPE   C2418662   3.722   3.061  10.393 -0.0794 -0.0756  0.0960
  166SOPE   H4R18663   3.628   3.023  10.346  0.5036 -2.7054  0.9088
  166SOPE   H4S18664   3.708   3.154  10.452  0.4119 -0.0965  0.2478
  166SOPE   C2518665   3.818   3.075  10.277 -0.7080 -0.6617  0.5469
  166SOPE   H5R18666   3.819   3.180  10.240  1.0557 -0.5593  0.8264
  166SOPE   H5S18667   3.916   3.050  10.322  0.8678  2.6895 -0.6692
  166SOPE   C2618668   3.805   2.972  10.166  0.2711  0.4056 -0.1891
  166SOPE   H6R18669   3.864   3.012  10.081 -1.1830  1.4639 -0.7470
  166SOPE   H6S18670   3.844   2.877  10.208 -0.5455  1.0752  2.2527
  166SOPE   C2718671   3.668   2.930  10.112  0.4055 -0.0804 -0.4042
  166SOPE   H7R18672   3.701   2.859  10.034  0.2491 -0.7608  0.1340
  166SOPE   H7S18673   3.610   2.872  10.188  1.4805 -0.6241  0.0223
  166SOPE   C2818674   3.586   3.045  10.041  0.5136  0.2345  0.3031
  166SOPE   H8R18675   3.516   3.090  10.114 -1.1262 -0.4703 -0.7874
  166SOPE   H8S18676   3.659   3.128  10.028  0.2804  0.7166  1.8102
  166SOPE   C2918677   3.498   3.007   9.927  0.4585 -0.6403  0.3134
  166SOPE   H9118678   3.393   2.988   9.953  0.0797  1.3131  0.4107
  166SOPE  C21018679   3.535   2.992   9.798  0.1958  0.6434 -0.2255
  166SOPE  H10118680   3.464   2.953   9.723  2.1812 -3.8174 -0.0538
  166SOPE  C21118681   3.674   3.025   9.742  0.0320  0.2332 -0.7038
  166SOPE  H11R18682   3.699   2.962   9.655 -0.8913 -1.4773  0.2159
  166SOPE  H11S18683   3.743   3.004   9.826  1.1641  3.0618 -0.7930
  166SOPE  C21218684   3.680   3.170   9.701 -0.5821 -0.0042  0.1138
  166SOPE  H12R18685   3.617   3.224   9.774 -1.4386 -0.3290 -0.3729
  166SOPE  H12S18686   3.624   3.184   9.606  0.7932  3.3507 -0.3321
  166SOPE  C21318687   3.816   3.227   9.688 -0.4711 -0.3146  0.2259
  166SOPE  H13R18688   3.827   3.311   9.616  2.1912  0.5919  1.5319
  166SOPE  H13S18689   3.875   3.143   9.647 -0.3816  0.3333 -1.0276
  166SOPE  C21418690   3.877   3.266   9.820 -0.7561  0.1860  0.1213
  166SOPE  H14R18691   3.882   3.173   9.879  0.0921  0.2014  0.0900
  166SOPE  H14S18692   3.817   3.343   9.872 -0.6921  0.7886 -0.6720
  166SOPE  C21518693   4.020   3.323   9.799 -0.4412  0.2647  0.4805
  166SOPE  H15R18694   4.011   3.386   9.708  0.5746 -0.6685 -0.2963
  166SOPE  H15S18695   4.087   3.236   9.781 -0.3446  0.2822  0.7521
  166SOPE  C21618696   4.064   3.416   9.913 -0.0405  0.1495  1.2516
  166SOPE  H16R18697   4.004   3.509   9.911  0.4449  0.4850  2.1910
  166SOPE  H16S18698   4.170   3.438   9.893 -0.7094  0.5259 -2.6316
  166SOPE  C21718699   4.056   3.357  10.056  0.4470 -0.1178  0.7712
  166SOPE  H17R18700   3.982   3.277  10.075  0.8559 -0.3990  1.1942
  166SOPE  H17S18701   4.027   3.442  10.121  0.6838  1.1900 -0.7635
  166SOPE  C21818702   4.187   3.317  10.118 -0.1548  0.4752 -0.0173
  166SOPE  H18R18703   4.252   3.407  10.112 -1.4832  1.5184  0.5879
  166SOPE  H18S18704   4.227   3.231  10.061 -2.9859 -1.6098  0.9302
  166SOPE  H18T18705   4.171   3.286  10.224 -2.1191 -0.8829 -0.6522
  166SOPE   C3318706   4.249   2.807   9.981  0.4263  0.5928  0.3103
  166SOPE   H3X18707   4.256   2.708  10.030 -1.6194  1.2444  2.0705
  166SOPE   H3Y18708   4.354   2.835   9.960  0.1038  0.7750 -1.1428
  166SOPE   C3418709   4.177   2.798   9.847  0.5859 -1.5864 -0.4778
  166SOPE   H4X18710   4.067   2.795   9.852  0.4884 -0.1768 -1.0434
  166SOPE   H4Y18711   4.222   2.710   9.796  1.6990 -0.1584 -2.0892
  166SOPE   C3518712   4.207   2.916   9.756  0.0407 -0.2361 -0.3039
  166SOPE   H5X18713   4.303   2.966   9.781  0.8564 -1.7189 -0.3644
  166SOPE   H5Y18714   4.127   2.993   9.765 -0.7214 -0.6895 -2.5984
  166SOPE   C3618715   4.217   2.894   9.605 -0.2635  0.1468  0.3887
  166SOPE   H6X18716   4.246   2.788   9.587 -1.0843 -0.2614  1.3650
  166SOPE   H6Y18717   4.298   2.958   9.565  0.2013 -2.2381 -2.8956
  166SOPE   C3718718   4.080   2.913   9.531  0.4440  0.0998  0.6556
  166SOPE   H7X18719   4.053   3.018   9.553  0.2446  0.4245 -0.9987
  166SOPE   H7Y18720   4.010   2.841   9.579 -1.9476  0.9616 -1.3447
  166SOPE   C3818721   4.095   2.878   9.383  0.6606  0.5173  0.5232
  166SOPE   H8X18722   4.145   2.779   9.384 -0.0551  0.1555  1.6521
  166SOPE   H8Y18723   4.169   2.949   9.339 -0.1771 -0.1377 -2.1164
  166SOPE   C3918724   3.957   2.876   9.312  0.6957  0.4509  0.4129
  166SOPE   H9X18725   3.900   2.801   9.371  1.8517 -0.5175  0.3311
  166SOPE   H9Y18726   3.960   2.846   9.205 -0.1745  1.2864  0.1341
  166SOPE  C31018727   3.885   3.015   9.313 -0.8271 -0.0635  0.3798
  166SOPE  H10X18728   3.935   3.077   9.235 -0.5124 -0.8170 -0.0261
  166SOPE  H10Y18729   3.910   3.068   9.407  2.7502 -0.1598 -0.3473
  166SOPE  C31118730   3.737   2.997   9.301  0.7041  0.1183  0.9793
  166SOPE  H11X18731   3.686   2.960   9.393  0.6192 -1.3534  0.3628
  166SOPE  H11Y18732   3.718   2.913   9.230  0.9077  0.2941  0.7164
  166SOPE  C31218733   3.667   3.123   9.262  0.4530 -0.1328 -0.1512
  166SOPE  H12X18734   3.725   3.149   9.172 -0.7316  0.3923 -0.7870
  166SOPE  H12Y18735   3.685   3.196   9.344 -1.2023  0.8528 -0.6118
  166SOPE  C31318736   3.519   3.112   9.229  0.4146 -0.2700 -0.4322
  166SOPE  H13X18737   3.472   3.212   9.230 -1.7692 -1.2190 -1.4121
  166SOPE  H13Y18738   3.479   3.046   9.308  0.3794 -0.5718 -0.6974
  166SOPE  C31418739   3.500   3.045   9.088  0.2954 -0.1957  0.5322
  166SOPE  H14X18740   3.589   2.984   9.061 -0.5924 -1.6261  0.7169
  166SOPE  H14Y18741   3.492   3.126   9.013 -0.0231 -1.1014 -0.4406
  166SOPE  C31518742   3.376   2.958   9.106  0.7554  0.0617  0.0631
  166SOPE  H15X18743   3.398   2.885   9.187  1.1783 -0.0575 -0.1578
  166SOPE  H15Y18744   3.368   2.898   9.013  3.0501 -0.9956  0.4803
  166SOPE  C31618745   3.237   3.035   9.106  0.2545  0.3384 -1.0787
  166SOPE  H16X18746   3.221   3.075   9.209  0.4589 -2.3528  0.0827
  166SOPE  H16Y18747   3.156   2.966   9.077 -0.1642  1.5021 -2.7893
  166SOPE  C31718748   3.221   3.143   9.002 -0.3205  0.3837 -0.4650
  166SOPE  H17X18749   3.255   3.085   8.914  1.5053 -3.2171  2.3595
  166SOPE  H17Y18750   3.290   3.229   9.016 -0.2741  0.5543 -1.6280
  166SOPE  C31818751   3.085   3.201   8.984 -0.0889 -0.2822 -0.2752
  166SOPE  H18X18752   3.080   3.293   8.923  0.6855  1.4478  2.1422
  166SOPE  H18Y18753   3.061   3.243   9.084  0.4650  0.7231 -0.5507
  166SOPE  H18Z18754   3.011   3.122   8.957 -1.4116  0.0420  2.1639
  167SOPE     N18755   5.127   6.656   6.153  0.0734 -0.2794 -0.2084
  167SOPE   HN118756   5.181   6.568   6.165  1.5021  0.7097  0.8866
  167SOPE   HN218757   5.195   6.730   6.177 -0.1922  0.9037 -2.7501
  167SOPE   HN318758   5.050   6.652   6.223  2.1799 -2.3565  2.1565
  167SOPE   C1218759   5.100   6.673   6.004  0.6971 -0.5972 -1.0266
  167SOPE  H12A18760   5.015   6.603   5.985  0.0647  0.2949 -1.5585
  167SOPE  H12B18761   5.199   6.662   5.955  0.9495 -1.4633 -0.3437
  167SOPE   C1118762   5.045   6.819   5.973 -0.5288  0.0479  0.3284
  167SOPE  H11A18763   5.036   6.823   5.862 -1.3121 -0.8787  0.3429
  167SOPE  H11B18764   5.121   6.891   6.009  1.2326 -1.5166 -0.0893
  167SOPE     P18765   4.852   6.989   6.026 -0.0267  0.0732  0.1519
  167SOPE   O1318766   4.715   6.969   6.088  0.1497 -0.4043 -0.1443
  167SOPE   O1418767   4.856   7.050   5.893  0.1671 -0.3942  1.0884
  167SOPE   O1218768   4.922   6.844   6.034  0.4699  0.0387  0.0067
  167SOPE   O1118769   4.927   7.085   6.138  0.4331 -0.3247  0.1927
  167SOPE    C118770   4.985   7.030   6.258 -0.5763  0.1459  0.3187
  167SOPE    HA18771   5.047   7.107   6.309 -1.3475  1.7323 -1.0120
  167SOPE    HB18772   5.059   6.952   6.229 -0.8325  0.1878 -0.4662
  167SOPE    C218773   4.885   6.979   6.356 -0.1054 -0.6972 -1.0504
  167SOPE    HS18774   4.820   6.899   6.315 -1.3361  0.4935 -1.5053
  167SOPE   O2118775   4.805   7.093   6.389  0.1196  0.0197 -0.1787
  167SOPE   C2118776   4.677   7.079   6.412 -0.1779 -0.0554 -0.7892
  167SOPE   O2218777   4.608   6.981   6.397  0.5981 -0.0809  0.3660
  167SOPE   C2218778   4.619   7.213   6.452  0.3117 -0.6709  0.0371
  167SOPE   H2R18779   4.510   7.198   6.471 -0.0002  0.2883 -0.8512
  167SOPE   H2S18780   4.622   7.294   6.376  1.4226  0.6626  1.4355
  167SOPE    C318781   4.940   6.912   6.488 -0.6688  0.1330  0.3106
  167SOPE    HX18782   4.993   6.992   6.543  0.1290 -0.4151  0.3579
  167SOPE    HY18783   5.011   6.828   6.466 -2.3254 -0.7840 -1.9439
  167SOPE   O3118784   4.836   6.861   6.573 -0.2324  0.0014 -0.0779
  167SOPE   C3118785   4.862   6.834   6.694 -0.3741  0.2988  0.0314
  167SOPE   O3218786   4.967   6.870   6.745 -0.1818  0.2951  0.2951
  167SOPE   C3218787   4.743   6.749   6.750  0.1314  0.3482 -0.9535
  167SOPE   H2X18788   4.686   6.706   6.664  0.0035  0.9250 -1.1629
  167SOPE   H2Y18789   4.674   6.817   6.804  2.2804  2.3914 -0.6146
  167SOPE   C2318790   4.679   7.285   6.580 -0.1066 -0.6298 -0.2930
  167SOPE   H3R18791   4.632   7.383   6.602  0.9265  0.3371 -2.1754
  167SOPE   H3S18792   4.788   7.293   6.560 -0.3341  0.0036 -1.3285
  167SOPE   C2418793   4.659   7.192   6.708  0.5304 -0.1853  0.1740
  167SOPE   H4R18794   4.550   7.171   6.712 -0.0597  2.2748 -1.0491
  167SOPE   H4S18795   4.714   7.098   6.684  0.7922 -0.0065  0.0624
  167SOPE   C2518796   4.713   7.255   6.840 -1.0960  0.2465  0.0008
  167SOPE   H5R18797   4.820   7.282   6.833 -1.0857  0.1296 -0.3266
  167SOPE   H5S18798   4.660   7.350   6.860  1.4439  1.7035  0.1815
  167SOPE   C2618799   4.708   7.167   6.964  0.0561 -0.3842  0.1364
  167SOPE   H6R18800   4.770   7.079   6.940  1.4005  0.8621 -1.1456
  167SOPE   H6S18801   4.751   7.215   7.055 -0.5586  0.1732  0.1403
  167SOPE   C2718802   4.566   7.132   7.021 -0.2301 -0.2835  0.0143
  167SOPE   H7R18803   4.500   7.220   7.006  0.0581 -0.4396 -2.6593
  167SOPE   H7S18804   4.527   7.049   6.958  0.3590  0.6781 -1.6912
  167SOPE   C2818805   4.564   7.098   7.167  0.3060  0.6263  0.2235
  167SOPE   H8R18806   4.571   7.198   7.215 -1.3575  1.8135 -1.8057
  167SOPE   H8S18807   4.462   7.059   7.188  1.5210 -1.7488  2.1599
  167SOPE   C2918808   4.674   6.995   7.214 -0.6143 -0.6576  1.2813
  167SOPE   H9118809   4.646   6.893   7.182 -3.0570  0.7797 -1.6108
  167SOPE  C21018810   4.777   7.022   7.301 -0.4354  0.0704  0.7254
  167SOPE  H10118811   4.853   6.944   7.313 -0.7675 -0.6035 -1.1313
  167SOPE  C21118812   4.808   7.158   7.354  0.0740 -0.4313 -0.7501
  167SOPE  H11R18813   4.770   7.233   7.281 -0.2891 -1.9381 -2.1746
  167SOPE  H11S18814   4.917   7.165   7.373 -0.2010  0.6076  0.6337
  167SOPE  C21218815   4.732   7.181   7.485 -0.1645  0.7151  0.4548
  167SOPE  H12R18816   4.781   7.122   7.566 -0.0625  0.4861  0.2310
  167SOPE  H12S18817   4.622   7.171   7.472  0.0238 -0.7153 -0.2424
  167SOPE  C21318818   4.763   7.325   7.533  0.2188 -0.3454 -0.1051
  167SOPE  H13R18819   4.730   7.394   7.452  0.0296 -0.4147 -0.0858
  167SOPE  H13S18820   4.872   7.334   7.555  0.9287 -2.0840 -2.4503
  167SOPE  C21418821   4.693   7.351   7.660  0.1486 -0.0233 -0.2924
  167SOPE  H14R18822   4.739   7.285   7.737 -0.5024  0.4069  0.4809
  167SOPE  H14S18823   4.584   7.333   7.648  0.0763 -1.6802  2.1395
  167SOPE  C21518824   4.702   7.496   7.714  0.2025 -0.2163  0.3462
  167SOPE  H15R18825   4.687   7.564   7.627 -1.6725 -0.9698  0.0161
  167SOPE  H15S18826   4.804   7.502   7.756  0.7905 -0.2607 -1.0321
  167SOPE  C21618827   4.582   7.535   7.809  0.2761  0.1133 -0.0532
  167SOPE  H16R18828   4.486   7.545   7.754  0.2450 -2.1500 -0.4738
  167SOPE  H16S18829   4.607   7.641   7.833  1.2564  0.2029 -1.3202
  167SOPE  C21718830   4.572   7.454   7.936 -0.2688  0.1554 -0.2536
  167SOPE  H17R18831   4.669   7.471   7.987 -0.3980 -1.9812  0.8199
  167SOPE  H17S18832   4.565   7.347   7.906  1.8887  0.5064 -2.3362
  167SOPE  C21818833   4.458   7.484   8.028 -0.4253  0.1066 -0.6811
  167SOPE  H18R18834   4.460   7.591   8.059  1.4873  0.6313 -2.4549
  167SOPE  H18S18835   4.475   7.427   8.122  0.5316  0.8968 -0.3538
  167SOPE  H18T18836   4.358   7.460   7.987 -0.5652 -1.2005  0.3584
  167SOPE   C3318837   4.785   6.637   6.848 -0.1047  0.1542  0.6751
  167SOPE   H3X18838   4.865   6.580   6.796 -0.3253  0.4888 -0.0348
  167SOPE   H3Y18839   4.694   6.573   6.851 -0.3805  0.1267 -3.2827
  167SOPE   C3418840   4.826   6.680   6.982  0.4055 -0.5517  0.2760
  167SOPE   H4X18841   4.761   6.758   7.026  2.4880  1.7451 -0.4540
  167SOPE   H4Y18842   4.926   6.728   6.976 -0.1204  0.9598  2.3688
  167SOPE   C3518843   4.832   6.570   7.083  0.0216 -0.4276 -0.3195
  167SOPE   H5X18844   4.898   6.486   7.053  0.2784 -0.9481  1.5562
  167SOPE   H5Y18845   4.726   6.535   7.087 -0.6210  0.9934 -2.8482
  167SOPE   C3618846   4.872   6.621   7.225 -0.2921 -0.4573 -0.4313
  167SOPE   H6X18847   4.860   6.732   7.223 -0.2026 -0.4399 -0.0555
  167SOPE   H6Y18848   4.981   6.624   7.245 -0.0959 -0.6052 -1.4316
  167SOPE   C3718849   4.809   6.549   7.345  0.1191  0.4670  0.3783
  167SOPE   H7X18850   4.860   6.451   7.356  0.6982  0.5899 -1.0133
  167SOPE   H7Y18851   4.703   6.533   7.316 -0.6900  0.1384  3.2024
  167SOPE   C3818852   4.831   6.629   7.469 -0.6107  0.6457  0.2195
  167SOPE   H8X18853   4.760   6.714   7.456  1.4431  2.6846  1.4293
  167SOPE   H8Y18854   4.934   6.672   7.472 -1.4029  2.6406  0.7457
  167SOPE   C3918855   4.785   6.563   7.600  0.5310 -0.1153  0.4522
  167SOPE   H9X18856   4.835   6.464   7.607 -2.6213 -1.8444  0.7481
  167SOPE   H9Y18857   4.678   6.534   7.587  0.6981  0.0682 -1.7440
  167SOPE  C31018858   4.822   6.637   7.723 -1.0902 -0.7023 -0.3188
  167SOPE  H10X18859   4.791   6.743   7.706 -1.7966 -1.1687 -2.3077
  167SOPE  H10Y18860   4.932   6.628   7.738 -0.9432  0.2869 -0.7251
  167SOPE  C31118861   4.759   6.557   7.840 -0.0496  0.3597  0.2069
  167SOPE  H11X18862   4.676   6.498   7.794  0.0043 -0.0642  0.6427
  167SOPE  H11Y18863   4.732   6.638   7.911  0.4777  1.0818 -0.4052
  167SOPE  C31218864   4.846   6.437   7.899  0.7242  0.7743  0.6471
  167SOPE  H12X18865   4.947   6.472   7.929  0.9547  0.1292  0.6343
  167SOPE  H12Y18866   4.856   6.362   7.819  0.3442  0.8713  0.5040
  167SOPE  C31318867   4.776   6.373   8.020  0.0083  0.1641 -0.1772
  167SOPE  H13X18868   4.820   6.273   8.043  2.5218  0.7839 -1.8626
  167SOPE  H13Y18869   4.668   6.359   8.002 -0.0039  0.6055 -0.4583
  167SOPE  C31418870   4.807   6.468   8.143  0.1756 -0.4064  0.1471
  167SOPE  H14X18871   4.721   6.458   8.212 -0.2323  1.2729 -0.0618
  167SOPE  H14Y18872   4.810   6.572   8.105 -1.7741 -0.0604  0.7970
  167SOPE  C31518873   4.935   6.434   8.215  0.1926 -0.3336  0.1660
  167SOPE  H15X18874   5.016   6.423   8.141 -0.6994  0.6322 -1.0021
  167SOPE  H15Y18875   4.919   6.335   8.262  0.1166 -0.3964  0.0073
  167SOPE  C31618876   4.977   6.539   8.323 -0.0888  0.2851  0.4306
  167SOPE  H16X18877   5.009   6.634   8.276 -0.9631  0.3475 -0.0679
  167SOPE  H16Y18878   5.071   6.506   8.372 -0.6470 -0.5644  0.9620
  167SOPE  C31718879   4.870   6.578   8.415  0.4467 -0.1483 -0.8344
  167SOPE  H17X18880   4.815   6.488   8.449 -0.5908  0.3296 -1.2109
  167SOPE  H17Y18881   4.791   6.635   8.362 -0.1850 -0.8252 -0.6371
  167SOPE  C31818882   4.923   6.658   8.537  0.6656  0.4294  0.3655
  167SOPE  H18X18883   4.832   6.691   8.592 -0.0359 -0.2310 -0.3760
  167SOPE  H18Y18884   4.974   6.741   8.484 -0.9376  0.8885 -0.5262
  167SOPE  H18Z18885   4.990   6.589   8.592 -0.5779 -1.4795 -0.3988
  168SOPE     N18886   5.011   1.761   6.316  0.3113  0.3629  0.9481
  168SOPE   HN118887   5.006   1.754   6.420 -1.0199 -0.6288  0.8410
  168SOPE   HN218888   4.913   1.750   6.282  1.6764 -2.3225 -2.6917
  168SOPE   HN318889   5.052   1.673   6.280  0.3883  0.2539  1.2970
  168SOPE   C1218890   5.083   1.883   6.267  0.2939 -0.2083 -0.5286
  168SOPE  H12A18891   5.027   1.976   6.286  0.2232 -0.7115  1.9778
  168SOPE  H12B18892   5.104   1.866   6.159  0.5783 -1.7177 -0.2669
  168SOPE   C1118893   5.222   1.880   6.339 -0.5556 -0.0230 -0.8931
  168SOPE  H11A18894   5.201   1.883   6.448 -1.4924 -2.7881 -0.8998
  168SOPE  H11B18895   5.283   1.971   6.323  0.0289  0.0077  1.3022
  168SOPE     P18896   5.412   1.762   6.196  0.1060  0.1917  0.0461
  168SOPE   O1318897   5.367   1.825   6.075 -0.3517 -0.3283 -0.1931
  168SOPE   O1418898   5.475   1.623   6.192  0.2156  0.1999 -0.0974
  168SOPE   O1218899   5.299   1.760   6.314 -0.1776 -0.3411 -0.6008
  168SOPE   O1118900   5.513   1.862   6.251  0.3080  0.9448  0.0728
  168SOPE    C118901   5.606   1.811   6.342  0.2745 -0.2460  0.0958
  168SOPE    HA18902   5.685   1.889   6.344 -0.6320  0.9698 -3.6996
  168SOPE    HB18903   5.670   1.731   6.298 -0.1162 -0.8725  0.6380
  168SOPE    C218904   5.554   1.782   6.485  0.2470  0.2761 -0.7556
  168SOPE    HS18905   5.474   1.705   6.490  1.1063 -0.5803  2.9296
  168SOPE   O2118906   5.519   1.907   6.541  0.1581  0.5714 -0.4713
  168SOPE   C2118907   5.424   1.917   6.630 -0.1929  0.0006 -0.2051
  168SOPE   O2218908   5.360   1.827   6.673  0.0657  0.3282 -0.8086
  168SOPE   C2218909   5.387   2.059   6.641 -0.2901  0.1084  0.3028
  168SOPE   H2R18910   5.311   2.078   6.562  1.5451  0.2387 -1.5110
  168SOPE   H2S18911   5.473   2.128   6.630 -1.2637  1.4136  0.7292
  168SOPE    C318912   5.669   1.719   6.568  0.2383 -0.7309  0.6121
  168SOPE    HX18913   5.753   1.792   6.567  0.8842 -1.4642  0.7541
  168SOPE    HY18914   5.718   1.637   6.512  0.5409 -0.8034  0.9808
  168SOPE   O3118915   5.629   1.679   6.695 -0.1496  0.4353  0.3557
  168SOPE   C3118916   5.725   1.680   6.780 -0.5859  0.5543 -0.1434
  168SOPE   O3218917   5.844   1.703   6.752 -0.6377  0.5191 -0.0156
  168SOPE   C3218918   5.667   1.654   6.920  0.4694  0.2081  1.2909
  168SOPE   H2X18919   5.613   1.558   6.916  2.1541 -0.7720 -1.6366
  168SOPE   H2Y18920   5.602   1.740   6.948 -2.0079 -0.1337 -2.6210
  168SOPE   C2318921   5.324   2.092   6.775 -0.4909  0.2477 -0.8198
  168SOPE   H3R18922   5.249   2.012   6.789 -0.9243 -0.0082 -3.8193
  168SOPE   H3S18923   5.276   2.192   6.769  1.1207  1.1256  0.1600
  168SOPE   C2418924   5.423   2.090   6.888 -0.3819 -0.2166  0.2761
  168SOPE   H4R18925   5.381   2.142   6.977 -2.9233 -2.7875  0.7136
  168SOPE   H4S18926   5.456   1.990   6.924  4.9408  1.2233  0.2202
  168SOPE   C2518927   5.557   2.161   6.860  0.0652 -0.3204 -0.4928
  168SOPE   H5R18928   5.617   2.092   6.797 -0.3761  0.6432 -2.0198
  168SOPE   H5S18929   5.540   2.254   6.802  2.7156 -0.0417 -0.9346
  168SOPE   C2618930   5.636   2.196   6.986 -0.6042  0.4691 -0.0235
  168SOPE   H6R18931   5.738   2.234   6.965 -0.4019  0.1446  0.3612
  168SOPE   H6S18932   5.581   2.280   7.034  1.0162  1.3492  0.3581
  168SOPE   C2718933   5.653   2.092   7.098 -0.0514  0.2196  0.8777
  168SOPE   H7R18934   5.561   2.034   7.118  0.3082 -0.8702 -0.5161
  168SOPE   H7S18935   5.722   2.018   7.053  0.0298  1.2082 -0.7076
  168SOPE   C2818936   5.694   2.144   7.237 -0.1850 -0.3729 -0.1749
  168SOPE   H8R18937   5.788   2.202   7.223  0.3244 -0.6670  1.8453
  168SOPE   H8S18938   5.619   2.220   7.269 -0.6971 -0.2353 -1.6117
  168SOPE   C2918939   5.718   2.042   7.342  0.0473  0.0021  0.3065
  168SOPE   H9118940   5.719   1.941   7.298  1.7522  0.5577 -1.0514
  168SOPE  C21018941   5.724   2.058   7.473 -0.2527  0.3225  1.2359
  168SOPE  H10118942   5.757   1.968   7.527 -1.3917 -1.3922 -0.7718
  168SOPE  C21118943   5.724   2.184   7.550 -0.7856  0.3447  0.5536
  168SOPE  H11R18944   5.619   2.220   7.558 -0.7273  0.9630 -1.0758
  168SOPE  H11S18945   5.799   2.256   7.511 -2.8065  1.2758 -1.9155
  168SOPE  C21218946   5.767   2.155   7.692  0.2642 -0.3477  0.7656
  168SOPE  H12R18947   5.778   2.256   7.737 -0.2075 -0.8793  2.1488
  168SOPE  H12S18948   5.865   2.107   7.710  1.2875  1.9717  1.9043
  168SOPE  C21318949   5.659   2.086   7.784  0.0184  0.7786 -1.4079
  168SOPE  H13R18950   5.641   1.985   7.741  1.0993 -0.5709  1.0619
  168SOPE  H13S18951   5.565   2.145   7.783 -0.9619 -0.6529  0.3645
  168SOPE  C21418952   5.711   2.082   7.933  0.0685  0.1549 -0.0745
  168SOPE  H14R18953   5.713   2.185   7.974  1.6845  0.8243 -1.7007
  168SOPE  H14S18954   5.815   2.046   7.944  0.0571 -0.9707 -2.8703
  168SOPE  C21518955   5.624   1.999   8.021  0.6890 -0.1986 -0.8519
  168SOPE  H15R18956   5.604   1.899   7.976 -1.1865 -0.4764  0.4921
  168SOPE  H15S18957   5.521   2.038   8.013  1.4066  1.9035 -0.4365
  168SOPE  C21618958   5.660   2.002   8.172  0.2222 -0.0265 -0.7717
  168SOPE  H16R18959   5.668   2.103   8.217 -0.1963 -0.0516 -0.6414
  168SOPE  H16S18960   5.762   1.959   8.180  1.4221  2.8395  0.9349
  168SOPE  C21718961   5.564   1.927   8.265  0.9388 -0.4915 -0.1084
  168SOPE  H17R18962   5.542   1.825   8.229 -0.1486  0.0138 -0.9414
  168SOPE  H17S18963   5.466   1.980   8.258  0.0886 -2.0622 -0.7040
  168SOPE  C21818964   5.611   1.923   8.411  0.7951 -0.0365  0.0895
  168SOPE  H18R18965   5.704   1.866   8.434  0.4215  0.8078  4.6134
  168SOPE  H18S18966   5.531   1.882   8.476  0.2514  1.4734  0.4045
  168SOPE  H18T18967   5.629   2.025   8.452  0.8749  0.1988 -0.5152
  168SOPE   C3318968   5.786   1.635   7.027 -0.2777 -0.2883 -0.5245
  168SOPE   H3X18969   5.863   1.716   7.030  0.7304 -1.2502  1.0301
  168SOPE   H3Y18970   5.828   1.538   6.993  0.4524  0.1938 -1.0495
  168SOPE   C3418971   5.733   1.644   7.170 -0.3413 -0.6158  1.0787
  168SOPE   H4X18972   5.672   1.553   7.187 -1.5481 -0.0665 -0.1264
  168SOPE   H4Y18973   5.691   1.746   7.179  1.2373  0.6078 -3.0568
  168SOPE   C3518974   5.844   1.630   7.274 -0.7394 -0.5773  0.3560
  168SOPE   H5X18975   5.923   1.708   7.273  1.1694 -2.4051  0.3549
  168SOPE   H5Y18976   5.890   1.528   7.271  1.4787  0.2812  1.9157
  168SOPE   C3618977   5.797   1.656   7.412  0.0179 -0.5663  0.2464
  168SOPE   H6X18978   5.707   1.600   7.444  0.7894 -1.9751  0.0385
  168SOPE   H6Y18979   5.774   1.765   7.419 -1.9033 -0.7295 -2.2014
  168SOPE   C3718980   5.906   1.614   7.520  0.3004 -0.2560 -0.7547
  168SOPE   H7X18981   6.001   1.650   7.475 -1.1153  1.8524 -2.2010
  168SOPE   H7Y18982   5.901   1.503   7.520 -1.6518 -0.2234  0.1420
  168SOPE   C3818983   5.896   1.678   7.661 -0.0223  0.3055 -0.1521
  168SOPE   H8X18984   5.843   1.776   7.656  1.9111  1.4920  1.1198
  168SOPE   H8Y18985   5.998   1.700   7.699  0.9845 -2.6372 -0.8611
  168SOPE   C3918986   5.822   1.601   7.771  0.4158 -0.4082  0.3051
  168SOPE   H9X18987   5.881   1.511   7.797 -0.1572 -0.9471 -0.2079
  168SOPE   H9Y18988   5.737   1.554   7.716 -0.2508 -0.1434  1.0795
  168SOPE  C31018989   5.786   1.680   7.900  0.0083  0.6437  0.2992
  168SOPE  H10X18990   5.740   1.779   7.877 -1.0191 -0.0446 -0.6671
  168SOPE  H10Y18991   5.875   1.690   7.967  0.9326 -0.8516 -0.6669
  168SOPE  C31118992   5.675   1.605   7.977  0.3838  0.4212  0.2962
  168SOPE  H11X18993   5.592   1.588   7.905  1.5752 -0.5759 -0.8970
  168SOPE  H11Y18994   5.637   1.667   8.061 -1.3046  0.3977 -0.4189
  168SOPE  C31218995   5.707   1.475   8.057  0.2081 -0.2817  0.1369
  168SOPE  H12X18996   5.788   1.495   8.130  0.4818 -1.1567  0.0805
  168SOPE  H12Y18997   5.746   1.388   8.001 -1.5873 -2.6254  2.3035
  168SOPE  C31318998   5.574   1.436   8.129  0.3041  0.3373 -0.2373
  168SOPE  H13X18999   5.506   1.437   8.041  0.2932 -0.0951 -0.2355
  168SOPE  H13Y19000   5.549   1.519   8.199  1.8626  3.1874 -2.7962
  168SOPE  C31419001   5.567   1.294   8.197 -0.2858 -0.1490 -0.1787
  168SOPE  H14X19002   5.463   1.294   8.237  0.6529  4.1270  2.9938
  168SOPE  H14Y19003   5.628   1.297   8.289 -2.4622  1.9441  1.3281
  168SOPE  C31519004   5.595   1.170   8.113  0.3988  1.0127 -0.3227
  168SOPE  H15X19005   5.701   1.177   8.083  1.5312  0.5234  3.1170
  168SOPE  H15Y19006   5.522   1.163   8.029 -1.1197  0.4641  0.9893
  168SOPE  C31619007   5.573   1.037   8.191  0.9076 -0.0093  0.5465
  168SOPE  H16X19008   5.473   1.033   8.239 -0.6612  0.2559 -2.4800
  168SOPE  H16Y19009   5.643   1.038   8.277  1.0958  1.2854  0.3964
  168SOPE  C31719010   5.583   0.903   8.110 -0.3265 -0.7777 -0.2400
  168SOPE  H17X19011   5.606   0.818   8.177 -2.2727 -2.1732 -1.2168
  168SOPE  H17Y19012   5.666   0.913   8.037 -0.2655 -1.5000 -0.2731
  168SOPE  C31819013   5.459   0.877   8.024  0.3069  0.3222 -0.0135
  168SOPE  H18X19014   5.441   0.771   7.999 -0.6800  0.6869 -0.9320
  168SOPE  H18Y19015   5.461   0.937   7.930  3.5341 -0.3872 -0.5275
  168SOPE  H18Z19016   5.374   0.907   8.090  1.2780  0.9263  1.0026
  169SOPE     N19017   6.007   3.748   6.142 -0.2950  0.7711  0.6787
  169SOPE   HN119018   5.966   3.652   6.136  0.0201  0.6339  0.7398
  169SOPE   HN219019   6.041   3.769   6.238  0.9932  1.0190  0.1789
  169SOPE   HN319020   5.937   3.813   6.100 -0.3577  0.3217  0.0635
  169SOPE   C1219021   6.134   3.749   6.064 -0.0223 -1.0236  0.7345
  169SOPE  H12A19022   6.107   3.708   5.964 -0.3844  0.8180  0.0354
  169SOPE  H12B19023   6.213   3.686   6.110 -0.3065 -0.7425  1.6222
  169SOPE   C1119024   6.170   3.896   6.043 -0.5534  0.7373 -0.4261
  169SOPE  H11A19025   6.084   3.941   5.989 -0.6940 -1.6422 -2.3998
  169SOPE  H11B19026   6.256   3.906   5.974 -1.0989  1.2411 -1.0410
  169SOPE     P19027   6.329   3.970   6.240  0.5518  0.3085  0.0237
  169SOPE   O1319028   6.421   4.049   6.161 -0.2373 -0.1119 -0.0403
  169SOPE   O1419029   6.371   3.829   6.263 -0.2737 -0.4144 -0.5847
  169SOPE   O1219030   6.187   3.954   6.168  0.0389 -0.5398  0.1311
  169SOPE   O1119031   6.300   4.029   6.383  0.2335  0.0320 -0.1599
  169SOPE    C119032   6.246   4.158   6.396  0.5362 -0.3160  0.5493
  169SOPE    HA19033   6.145   4.148   6.440  0.4532 -3.0915 -0.0889
  169SOPE    HB19034   6.237   4.221   6.304 -0.8317  2.1945  2.2971
  169SOPE    C219035   6.328   4.248   6.489 -0.2041 -0.4575 -0.2412
  169SOPE    HS19036   6.423   4.268   6.435 -0.0644  3.2420  1.0566
  169SOPE   O2119037   6.352   4.176   6.613 -0.1582 -0.2454  0.6091
  169SOPE   C2119038   6.455   4.211   6.678  0.1598 -0.7955  0.2481
  169SOPE   O2219039   6.538   4.297   6.642  0.3899  0.6635  0.0710
  169SOPE   C2219040   6.474   4.114   6.797 -0.1000 -0.6474  0.4179
  169SOPE   H2R19041   6.459   4.010   6.759  0.5619 -0.6709  0.2000
  169SOPE   H2S19042   6.394   4.143   6.868  2.4452  1.2147  2.7683
  169SOPE    C319043   6.265   4.387   6.520  0.0932 -0.0172 -0.2617
  169SOPE    HX19044   6.257   4.441   6.423 -1.6931 -0.7713 -0.5685
  169SOPE    HY19045   6.340   4.443   6.580 -1.3245  2.1304 -0.3805
  169SOPE   O3119046   6.136   4.375   6.582  0.1194 -0.6392  0.3193
  169SOPE   C3119047   6.146   4.403   6.706  0.4493  0.2191 -0.2702
  169SOPE   O3219048   6.248   4.416   6.773 -0.4177 -0.7615 -0.6491
  169SOPE   C3219049   6.004   4.397   6.766  0.2109 -0.4656  0.2187
  169SOPE   H2X19050   5.969   4.291   6.764 -0.1086 -0.3478 -0.3768
  169SOPE   H2Y19051   5.937   4.451   6.696 -0.4387 -2.6663 -0.9755
  169SOPE   C2319052   6.600   4.143   6.881  1.0530 -0.5857  0.2461
  169SOPE   H3R19053   6.611   4.252   6.897 -0.7524 -0.2694 -0.4487
  169SOPE   H3S19054   6.682   4.103   6.818  1.2963  0.0354  0.1596
  169SOPE   C2419055   6.598   4.065   7.016  0.2246 -0.3943  0.2621
  169SOPE   H4R19056   6.680   4.105   7.079 -0.6413  1.8627  0.0485
  169SOPE   H4S19057   6.500   4.071   7.068 -0.4673 -2.2106 -0.7333
  169SOPE   C2519058   6.649   3.912   6.999  0.5910  0.2661 -0.1680
  169SOPE   H5R19059   6.581   3.866   6.925 -1.0742  0.4946  1.1660
  169SOPE   H5S19060   6.753   3.919   6.959  1.1510  0.9343  1.3026
  169SOPE   C2619061   6.636   3.825   7.129 -0.2716 -0.8904 -0.4895
  169SOPE   H6R19062   6.535   3.837   7.175  0.1606  0.7653  0.0928
  169SOPE   H6S19063   6.638   3.719   7.098  0.1829 -1.2850  0.7957
  169SOPE   C2719064   6.740   3.860   7.238  0.5223 -0.1250 -0.7677
  169SOPE   H7R19065   6.838   3.874   7.186  0.4781  0.1321 -0.7850
  169SOPE   H7S19066   6.707   3.959   7.276 -0.6885 -1.4393  1.8827
  169SOPE   C2819067   6.753   3.761   7.356  0.6585  0.9570 -0.1594
  169SOPE   H8R19068   6.656   3.730   7.400  1.6459 -0.1130  1.3561
  169SOPE   H8S19069   6.795   3.663   7.326  0.1843  1.1174 -1.4103
  169SOPE   C2919070   6.845   3.806   7.467  0.5471 -0.7103 -0.0851
  169SOPE   H9119071   6.937   3.855   7.433  0.8307 -1.9657 -1.2559
  169SOPE  C21019072   6.817   3.805   7.599  0.2855  0.4752 -0.2504
  169SOPE  H10119073   6.900   3.844   7.661  1.2656 -2.0349  0.1394
  169SOPE  C21119074   6.693   3.753   7.668 -0.1324  0.2004  0.1835
  169SOPE  H11R19075   6.663   3.661   7.612  0.9643  0.1753 -0.3799
  169SOPE  H11S19076   6.607   3.822   7.657 -0.3359  0.1682  1.4232
  169SOPE  C21219077   6.706   3.729   7.825  0.6121 -0.3182  0.5865
  169SOPE  H12R19078   6.801   3.676   7.848  0.8328 -1.9072 -3.1820
  169SOPE  H12S19079   6.629   3.656   7.858  1.2613 -1.7962 -1.0190
  169SOPE  C21319080   6.689   3.854   7.908  0.0249 -0.3915  0.4223
  169SOPE  H13R19081   6.587   3.896   7.899  0.7832  1.4832  0.0936
  169SOPE  H13S19082   6.767   3.926   7.876 -0.2699 -0.7938 -1.2737
  169SOPE  C21419083   6.704   3.824   8.054 -0.6972  0.0602 -0.6696
  169SOPE  H14R19084   6.804   3.779   8.071 -0.7615 -0.5065 -1.7504
  169SOPE  H14S19085   6.631   3.747   8.086  0.1831 -0.0747  1.1681
  169SOPE  C21519086   6.692   3.944   8.156  0.3064 -0.2176  0.9512
  169SOPE  H15R19087   6.584   3.966   8.172  0.4694  1.4690 -0.1084
  169SOPE  H15S19088   6.740   4.031   8.108 -1.4537  0.5466  0.5210
  169SOPE  C21619089   6.762   3.920   8.287 -0.0488 -0.4780 -0.7440
  169SOPE  H16R19090   6.760   4.005   8.359  0.0805 -2.3395  1.5850
  169SOPE  H16S19091   6.869   3.893   8.274  0.1953 -0.3183  0.7164
  169SOPE  C21719092   6.698   3.796   8.359 -0.3204  0.4260 -0.0147
  169SOPE  H17R19093   6.770   3.774   8.441  2.1426  0.4383 -2.0252
  169SOPE  H17S19094   6.691   3.705   8.295 -0.2785 -0.5648  1.3582
  169SOPE  C21819095   6.560   3.825   8.422  0.5682 -0.2570 -0.6478
  169SOPE  H18R19096   6.569   3.893   8.510  0.8161  1.7194 -2.1293
  169SOPE  H18S19097   6.512   3.731   8.456  0.8456  0.3812  1.7512
  169SOPE  H18T19098   6.497   3.873   8.344  1.3726  0.4749 -0.8686
  169SOPE   C3319099   6.009   4.451   6.912 -0.0107 -0.3363  0.1283
  169SOPE   H3X19100   6.056   4.551   6.899  0.0035  0.2135  3.4916
  169SOPE   H3Y19101   6.065   4.370   6.962 -0.0005 -1.7271 -2.0003
  169SOPE   C3419102   5.870   4.460   6.980  0.4262 -0.5114  0.1175
  169SOPE   H4X19103   5.834   4.357   7.003 -0.0967 -0.4493 -0.4147
  169SOPE   H4Y19104   5.800   4.512   6.912  0.8213  2.1763  1.6180
  169SOPE   C3519105   5.860   4.543   7.112 -0.5865  0.0439  0.2122
  169SOPE   H5X19106   5.756   4.538   7.151 -2.2724 -0.0002 -3.8308
  169SOPE   H5Y19107   5.888   4.649   7.093 -1.6252  0.4808  0.9909
  169SOPE   C3619108   5.950   4.481   7.220 -0.1355  0.2760 -0.2897
  169SOPE   H6X19109   6.055   4.493   7.187 -0.2480 -1.5726 -1.4517
  169SOPE   H6Y19110   5.916   4.375   7.227 -0.8576  0.5707  1.0687
  169SOPE   C3719111   5.918   4.536   7.357 -0.2187 -0.1418 -0.0028
  169SOPE   H7X19112   5.809   4.527   7.374 -0.4508  1.1755 -0.6614
  169SOPE   H7Y19113   5.960   4.639   7.355  1.4812 -0.7984 -0.2474
  169SOPE   C3819114   5.992   4.449   7.469 -0.2004  0.8192  1.2941
  169SOPE   H8X19115   5.971   4.345   7.437 -1.6299  1.9255 -1.9026
  169SOPE   H8Y19116   6.100   4.472   7.458  0.1645 -1.7889 -2.2923
  169SOPE   C3919117   5.932   4.477   7.604 -0.2828  0.1516  0.5477
  169SOPE   H9X19118   5.822   4.465   7.596  0.0959 -2.8230 -2.6426
  169SOPE   H9Y19119   5.941   4.586   7.619  0.3040  0.1513  0.2474
  169SOPE  C31019120   6.004   4.406   7.721  0.8085 -0.1334 -0.0245
  169SOPE  H10X19121   6.112   4.404   7.695  1.1693 -1.6257  1.4119
  169SOPE  H10Y19122   5.979   4.298   7.727 -0.4769  0.2003  1.2771
  169SOPE  C31119123   5.997   4.482   7.850  0.7162  0.1601 -0.2817
  169SOPE  H11X19124   6.031   4.586   7.835  0.8957  0.0497 -0.6545
  169SOPE  H11Y19125   6.064   4.425   7.918 -0.2079 -2.4124 -1.3697
  169SOPE  C31219126   5.863   4.482   7.927  0.2445  0.5064  0.8585
  169SOPE  H12X19127   5.844   4.374   7.938 -2.1185  0.6586 -0.9413
  169SOPE  H12Y19128   5.786   4.519   7.856  2.2919  0.0756 -1.7506
  169SOPE  C31319129   5.855   4.539   8.067 -0.9273  0.7550 -0.8745
  169SOPE  H13X19130   5.901   4.471   8.142 -0.3657  2.1618  0.1185
  169SOPE  H13Y19131   5.748   4.547   8.096 -1.1823 -2.2788 -0.7285
  169SOPE  C31419132   5.947   4.666   8.090  0.0953 -0.1741  0.4793
  169SOPE  H14X19133   5.903   4.716   8.179 -2.0844 -2.1050  0.5671
  169SOPE  H14Y19134   5.936   4.743   8.011  0.4765  0.2219  0.8001
  169SOPE  C31519135   6.095   4.634   8.113 -0.4519  0.0368 -0.4405
  169SOPE  H15X19136   6.131   4.549   8.052 -1.4924  1.3986 -3.1699
  169SOPE  H15Y19137   6.099   4.606   8.220 -1.4660  0.8382 -0.1701
  169SOPE  C31619138   6.181   4.751   8.074  0.4075  0.1085 -0.0970
  169SOPE  H16X19139   6.134   4.834   8.131 -3.8088 -1.8542 -0.2880
  169SOPE  H16Y19140   6.158   4.771   7.967  0.4183  0.3280 -0.0598
  169SOPE  C31719141   6.330   4.734   8.094  0.3472 -0.6985  0.1451
  169SOPE  H17X19142   6.375   4.827   8.055  1.1756 -1.3408 -0.4532
  169SOPE  H17Y19143   6.377   4.661   8.025  0.8738  0.1479 -0.4116
  169SOPE  C31819144   6.369   4.717   8.237 -0.0829  0.4519 -0.0441
  169SOPE  H18X19145   6.366   4.608   8.258  1.1371  0.0324 -1.7837
  169SOPE  H18Y19146   6.297   4.777   8.296 -0.7348 -0.4886  0.1241
  169SOPE  H18Z19147   6.474   4.751   8.252 -0.1533  1.0021 -0.7284
  170SOPE     N19148   2.377   3.585   5.828  0.5454 -0.3709 -0.2034
  170SOPE   HN119149   2.400   3.485   5.841  0.5205 -0.1336  2.1912
  170SOPE   HN219150   2.360   3.606   5.728  3.5755  2.5880 -0.2724
  170SOPE   HN319151   2.448   3.651   5.866 -0.8329  1.7009 -1.0474
  170SOPE   C1219152   2.247   3.605   5.908 -0.4578 -0.2472 -0.0251
  170SOPE  H12A19153   2.158   3.563   5.857 -1.7628  0.9509  1.1858
  170SOPE  H12B19154   2.217   3.712   5.904 -0.9974 -0.4059 -0.4024
  170SOPE   C1119155   2.265   3.555   6.048  0.1009 -0.0983 -0.0677
  170SOPE  H11A19156   2.284   3.445   6.040 -1.0898 -0.1987 -2.1762
  170SOPE  H11B19157   2.170   3.567   6.104  0.0277  2.9155 -0.7058
  170SOPE     P19158   2.326   3.746   6.213  0.2915 -0.1369 -0.7446
  170SOPE   O1319159   2.280   3.859   6.136  0.3120  0.6166 -0.2421
  170SOPE   O1419160   2.436   3.775   6.310 -0.2042 -0.7075 -0.0905
  170SOPE   O1219161   2.365   3.619   6.122  0.7072 -0.4518 -0.2590
  170SOPE   O1119162   2.211   3.692   6.297  0.2945  0.3242 -0.9761
  170SOPE    C119163   2.226   3.602   6.409  0.1711 -0.9429  0.5630
  170SOPE    HA19164   2.309   3.632   6.478 -0.5671 -2.0203  1.9598
  170SOPE    HB19165   2.250   3.507   6.358  0.0696  0.2033 -1.7594
  170SOPE    C219166   2.104   3.613   6.504  0.2614  0.3931  0.0446
  170SOPE    HS19167   2.013   3.602   6.443  0.9716  1.9294 -1.3620
  170SOPE   O2119168   2.103   3.744   6.573 -0.4463  0.1646  0.8440
  170SOPE   C2119169   1.996   3.751   6.651 -0.0605  0.6732 -0.4325
  170SOPE   O2219170   1.896   3.682   6.628  0.1017 -0.4293  0.6077
  170SOPE   C2219171   2.009   3.859   6.760 -0.6385 -0.2625  0.4106
  170SOPE   H2R19172   2.038   3.960   6.723 -0.1103 -0.0491  1.3842
  170SOPE   H2S19173   2.092   3.827   6.826  0.6731  1.9920 -0.0291
  170SOPE    C319174   2.111   3.489   6.605 -0.5815  0.2367 -0.4910
  170SOPE    HX19175   2.143   3.397   6.552 -1.2659 -0.8319  0.8959
  170SOPE    HY19176   2.003   3.474   6.625 -0.7601  1.6827 -0.2299
  170SOPE   O3119177   2.187   3.515   6.723  0.0683 -0.3214  0.5235
  170SOPE   C3119178   2.287   3.443   6.752  0.3617  0.5661 -0.5647
  170SOPE   O3219179   2.330   3.343   6.692  0.5334  0.2719 -0.1690
  170SOPE   C3219180   2.363   3.506   6.870 -0.4975  0.2908  0.8093
  170SOPE   H2X19181   2.305   3.584   6.924 -2.2431 -0.6821  0.4195
  170SOPE   H2Y19182   2.446   3.560   6.819 -1.1504  1.6631  1.1469
  170SOPE   C2319183   1.879   3.867   6.835  0.1649 -0.2465  0.2561
  170SOPE   H3R19184   1.851   3.773   6.888 -0.9333 -0.0166  0.0979
  170SOPE   H3S19185   1.801   3.877   6.757 -0.6355  0.0611  1.0797
  170SOPE   C2419186   1.865   3.998   6.909  0.7256 -0.5238  0.8764
  170SOPE   H4R19187   1.941   3.995   6.990  2.9155  0.3664 -1.0247
  170SOPE   H4S19188   1.891   4.087   6.847  1.0260 -1.7072 -0.7433
  170SOPE   C2519189   1.722   4.009   6.961 -0.0471 -0.4666 -0.4329
  170SOPE   H5R19190   1.692   4.105   7.009 -2.9401 -1.9719  1.0578
  170SOPE   H5S19191   1.656   3.988   6.875  0.6178 -0.5161 -0.9394
  170SOPE   C2619192   1.684   3.907   7.076  0.0203  0.1697  0.4336
  170SOPE   H6R19193   1.578   3.875   7.073  0.2929 -0.9440  1.5174
  170SOPE   H6S19194   1.753   3.822   7.057  0.4598  0.5536  0.2637
  170SOPE   C2719195   1.723   3.951   7.217  0.1389  0.1008  0.7644
  170SOPE   H7R19196   1.833   3.971   7.218  0.3126 -0.8315  1.3544
  170SOPE   H7S19197   1.678   4.052   7.233 -1.1827  0.0489 -2.0958
  170SOPE   C2819198   1.692   3.839   7.334  0.1745  0.6785 -0.5798
  170SOPE   H8R19199   1.720   3.740   7.292 -0.1113  0.0601  0.6561
  170SOPE   H8S19200   1.759   3.867   7.417 -1.2609  1.7847  0.2474
  170SOPE   C2919201   1.550   3.837   7.395 -0.5158 -0.2182 -0.0525
  170SOPE   H9119202   1.489   3.746   7.384  0.0909 -0.7059  0.5911
  170SOPE  C21019203   1.502   3.931   7.476  0.2112 -0.2451  0.0847
  170SOPE  H10119204   1.393   3.932   7.492  0.1101 -0.0008 -0.5655
  170SOPE  C21119205   1.570   4.055   7.526  0.0716  0.2495  0.4985
  170SOPE  H11R19206   1.544   4.154   7.482  0.8290  0.5607  0.7277
  170SOPE  H11S19207   1.675   4.043   7.492 -0.8227 -0.6189 -2.2159
  170SOPE  C21219208   1.568   4.076   7.677  0.3186 -0.0352 -0.2871
  170SOPE  H12R19209   1.468   4.117   7.701 -0.2436 -0.2543 -2.0649
  170SOPE  H12S19210   1.648   4.151   7.697  0.8791 -1.4551  3.3803
  170SOPE  C21319211   1.570   3.951   7.768  0.5957 -0.0333 -0.2005
  170SOPE  H13R19212   1.677   3.925   7.782  0.5801  0.1898  0.3559
  170SOPE  H13S19213   1.514   3.863   7.730  0.1714 -0.9988  2.4537
  170SOPE  C21419214   1.512   3.979   7.910 -0.3989 -0.1029  0.4335
  170SOPE  H14R19215   1.402   3.998   7.903 -0.5005 -1.1693 -1.6461
  170SOPE  H14S19216   1.561   4.072   7.944 -0.1961 -0.3122  0.7084
  170SOPE  C21519217   1.533   3.866   8.023 -0.4467 -0.9155  0.2112
  170SOPE  H15R19218   1.501   3.771   7.976  1.5388 -0.9699 -1.1466
  170SOPE  H15S19219   1.470   3.898   8.109  1.1506 -0.9753  1.4457
  170SOPE  C21619220   1.677   3.846   8.077  0.4382 -0.4897  0.8186
  170SOPE  H16R19221   1.748   3.806   8.001  1.4332 -0.6531  1.8204
  170SOPE  H16S19222   1.670   3.758   8.144  1.0192 -2.9756 -2.1569
  170SOPE  C21719223   1.743   3.975   8.135 -0.0774  0.0926  0.1136
  170SOPE  H17R19224   1.775   4.049   8.059  0.5118 -1.2176 -0.9687
  170SOPE  H17S19225   1.839   3.933   8.172 -0.0616  0.5262  0.5696
  170SOPE  C21819226   1.673   4.052   8.244 -0.1110  0.5175  0.0918
  170SOPE  H18R19227   1.655   3.987   8.333 -1.3270 -0.2829 -0.7134
  170SOPE  H18S19228   1.574   4.085   8.206 -0.7834 -0.1882  1.1656
  170SOPE  H18T19229   1.723   4.149   8.263 -0.3675  0.8209 -0.7508
  170SOPE   C3319230   2.418   3.400   6.971  0.0528  0.2163  0.1049
  170SOPE   H3X19231   2.487   3.457   7.038 -0.1825  1.2680 -0.5207
  170SOPE   H3Y19232   2.477   3.318   6.924  1.7357 -0.9263  3.8359
  170SOPE   C3419233   2.300   3.342   7.049  0.0643  0.3906  0.2453
  170SOPE   H4X19234   2.241   3.275   6.984 -0.7655 -0.0381  1.4071
  170SOPE   H4Y19235   2.228   3.419   7.087 -0.2765 -1.3686  3.5498
  170SOPE   C3519236   2.340   3.247   7.169  0.1036  0.5914 -0.0991
  170SOPE   H5X19237   2.421   3.175   7.143 -0.7279 -0.5041  0.2496
  170SOPE   H5Y19238   2.247   3.191   7.195 -1.0174  1.9225 -1.0961
  170SOPE   C3619239   2.376   3.320   7.295 -0.5050 -0.0203 -0.8653
  170SOPE   H6X19240   2.318   3.414   7.296 -0.5219  0.0046  1.6766
  170SOPE   H6Y19241   2.481   3.354   7.281  0.0467 -1.3938 -0.3020
  170SOPE   C3719242   2.357   3.246   7.423 -0.4758  0.4149  0.1261
  170SOPE   H7X19243   2.390   3.141   7.406 -2.3550  0.1021 -2.0877
  170SOPE   H7Y19244   2.248   3.243   7.444 -0.8754  1.6573 -1.5472
  170SOPE   C3819245   2.421   3.306   7.548 -0.9852 -0.7254  0.0468
  170SOPE   H8X19246   2.407   3.416   7.551  2.7587 -0.1288  0.9283
  170SOPE   H8Y19247   2.531   3.293   7.547 -0.7316  1.0303  0.8712
  170SOPE   C3919248   2.367   3.240   7.676 -0.1333  0.8868 -0.4537
  170SOPE   H9X19249   2.413   3.140   7.690 -1.0436  0.7123  1.7098
  170SOPE   H9Y19250   2.257   3.223   7.668 -0.5153  1.5879  2.2593
  170SOPE  C31019251   2.400   3.317   7.804  0.8044 -0.7283  0.0460
  170SOPE  H10X19252   2.388   3.426   7.785  3.6447 -0.1774  0.8910
  170SOPE  H10Y19253   2.507   3.309   7.833  0.7989  0.8664  0.6499
  170SOPE  C31119254   2.313   3.269   7.918  0.8504  0.2823 -0.0550
  170SOPE  H11X19255   2.313   3.161   7.942 -2.4945 -0.2839 -1.9155
  170SOPE  H11Y19256   2.205   3.289   7.901  0.6275  0.2139  1.2494
  170SOPE  C31219257   2.341   3.338   8.049 -0.4217 -0.7702 -0.0593
  170SOPE  H12X19258   2.320   3.447   8.042 -0.1030 -0.7016  0.0292
  170SOPE  H12Y19259   2.448   3.322   8.073 -0.8584 -2.9263  0.7066
  170SOPE  C31319260   2.254   3.278   8.167  0.2100  0.2372 -0.0828
  170SOPE  H13X19261   2.149   3.286   8.131  0.7248 -0.4558 -1.8520
  170SOPE  H13Y19262   2.254   3.346   8.255 -2.9854  2.5916 -1.6982
  170SOPE  C31419263   2.283   3.137   8.206 -0.8799  0.8437  0.0447
  170SOPE  H14X19264   2.285   3.068   8.119 -2.1932  0.1149  0.5668
  170SOPE  H14Y19265   2.202   3.101   8.272 -1.6182  1.5674 -0.4387
  170SOPE  C31519266   2.413   3.110   8.275 -0.7898  0.8687  0.8623
  170SOPE  H15X19267   2.498   3.109   8.204 -1.4305  2.6791 -0.0163
  170SOPE  H15Y19268   2.411   3.006   8.313 -0.9172 -0.0780 -1.5431
  170SOPE  C31619269   2.436   3.199   8.398 -0.3925  0.0591  0.8669
  170SOPE  H16X19270   2.403   3.304   8.383 -0.4282  0.0548  0.9159
  170SOPE  H16Y19271   2.545   3.206   8.416 -0.1336 -0.5486 -0.3742
  170SOPE  C31719272   2.362   3.159   8.521 -0.1091  0.2753  0.0339
  170SOPE  H17X19273   2.256   3.164   8.490  0.2888 -1.9375 -1.8804
  170SOPE  H17Y19274   2.376   3.231   8.605 -0.7785 -1.7549  1.9582
  170SOPE  C31819275   2.393   3.026   8.592  0.3872 -0.2671 -0.1828
  170SOPE  H18X19276   2.342   3.024   8.691  4.0851 -0.9532  1.9012
  170SOPE  H18Y19277   2.497   3.008   8.626 -0.4309 -2.1603  1.4842
  170SOPE  H18Z19278   2.358   2.942   8.528 -1.4663  1.9340 -2.2653
  171SOPE     N19279   1.391   1.992   6.596  0.4779  0.1596  0.3383
  171SOPE   HN119280   1.375   2.085   6.552  0.5926 -0.8488 -1.9851
  171SOPE   HN219281   1.335   1.926   6.538  0.3549  2.1086 -1.8749
  171SOPE   HN319282   1.355   1.982   6.693 -1.4164  0.7345 -0.2675
  171SOPE   C1219283   1.538   1.967   6.579 -0.2777  1.0441  0.0140
  171SOPE  H12A19284   1.555   1.875   6.639  3.3393  0.9113 -0.9732
  171SOPE  H12B19285   1.588   2.054   6.626 -0.8709  0.4999  1.7409
  171SOPE   C1119286   1.564   1.946   6.434 -0.3947  1.0971 -0.1574
  171SOPE  H11A19287   1.519   2.035   6.385 -2.5355 -0.0739 -0.4267
  171SOPE  H11B19288   1.511   1.858   6.393  4.4688 -3.3681  1.9517
  171SOPE     P19289   1.783   1.805   6.448  0.0141 -0.0560  0.5988
  171SOPE   O1319290   1.850   1.834   6.575  0.2485  0.0187  0.7712
  171SOPE   O1419291   1.866   1.760   6.334  0.0873 -0.7776  0.1103
  171SOPE   O1219292   1.700   1.936   6.404 -0.6660  0.1526 -0.4943
  171SOPE   O1119293   1.669   1.687   6.462  0.1455 -0.5356 -0.2869
  171SOPE    C119294   1.706   1.560   6.462 -0.1987  0.2749 -0.1826
  171SOPE    HA19295   1.798   1.530   6.517  1.1984  2.6838 -1.0395
  171SOPE    HB19296   1.714   1.528   6.355 -2.2368  2.2769 -1.0096
  171SOPE    C219297   1.590   1.466   6.513 -0.2902 -0.4891  0.2781
  171SOPE    HS19298   1.495   1.513   6.477  0.3197  0.7762  0.2465
  171SOPE   O2119299   1.586   1.462   6.658 -0.6702 -0.2483 -0.1562
  171SOPE   C2119300   1.517   1.560   6.716  1.0456 -0.4893  0.2512
  171SOPE   O2219301   1.456   1.652   6.660 -0.3812 -0.5242  0.3929
  171SOPE   C2219302   1.523   1.539   6.862 -0.9683 -0.2786  0.0904
  171SOPE   H2R19303   1.592   1.614   6.906 -1.8008 -0.4192  1.7489
  171SOPE   H2S19304   1.576   1.448   6.895  0.4743 -0.0244 -1.4145
  171SOPE    C319305   1.609   1.325   6.462 -0.5603  0.4491  0.2891
  171SOPE    HX19306   1.712   1.291   6.486 -0.3130  1.7396  1.1161
  171SOPE    HY19307   1.602   1.323   6.351  1.3430 -1.7746  0.1205
  171SOPE   O3119308   1.524   1.231   6.532 -0.7674 -0.3549 -0.1661
  171SOPE   C3119309   1.514   1.108   6.489 -0.3779 -0.1640 -0.4947
  171SOPE   O3219310   1.574   1.071   6.388 -0.7759 -0.0671  0.3155
  171SOPE   C3219311   1.415   1.030   6.571 -0.4567 -1.3029 -0.5922
  171SOPE   H2X19312   1.453   0.931   6.606  0.8878 -0.3236  0.9038
  171SOPE   H2Y19313   1.331   1.012   6.501 -1.8841  2.5653 -0.1061
  171SOPE   C2319314   1.386   1.565   6.926  0.4641  0.1062  0.6709
  171SOPE   H3R19315   1.316   1.485   6.895  1.2727 -1.0230  1.6487
  171SOPE   H3S19316   1.340   1.664   6.909 -0.1269 -0.3480 -0.4806
  171SOPE   C2419317   1.397   1.571   7.075  0.1929 -0.4518  0.4675
  171SOPE   H4R19318   1.468   1.649   7.110  0.2001 -0.1446 -0.2187
  171SOPE   H4S19319   1.303   1.614   7.115  1.0629  0.4048  1.6654
  171SOPE   C2519320   1.411   1.429   7.132  0.1720 -0.1347 -0.8583
  171SOPE   H5R19321   1.329   1.365   7.093 -2.0493  1.2821  1.2592
  171SOPE   H5S19322   1.512   1.393   7.102  0.6920  1.0624 -0.6051
  171SOPE   C2619323   1.402   1.417   7.286  0.2359 -0.3600 -0.5305
  171SOPE   H6R19324   1.296   1.418   7.320  0.5349 -0.2512  0.4432
  171SOPE   H6S19325   1.442   1.317   7.312  0.8039  0.2642  1.1730
  171SOPE   C2719326   1.477   1.527   7.358  0.1330  0.7602 -0.3311
  171SOPE   H7R19327   1.568   1.539   7.295  0.6184 -0.2976  0.1462
  171SOPE   H7S19328   1.422   1.621   7.336 -1.0980  0.2073  0.2623
  171SOPE   C2819329   1.500   1.499   7.507  0.5100  0.1296  0.2136
  171SOPE   H8R19330   1.549   1.400   7.519 -0.1430 -0.1645  0.4977
  171SOPE   H8S19331   1.577   1.575   7.533 -0.7122  2.3602 -2.2847
  171SOPE   C2919332   1.382   1.521   7.588 -0.1396  0.1957  0.4100
  171SOPE   H9119333   1.328   1.616   7.572 -0.1289  0.0034 -0.9031
  171SOPE  C21019334   1.348   1.432   7.687 -0.0438  0.0554 -0.4707
  171SOPE  H10119335   1.266   1.449   7.758  1.9019  3.7159  1.2439
  171SOPE  C21119336   1.422   1.303   7.718 -0.0761 -0.3045  0.2780
  171SOPE  H11R19337   1.532   1.318   7.707 -0.2840  0.5121 -0.7532
  171SOPE  H11S19338   1.400   1.225   7.643  1.6452 -0.6305  0.0817
  171SOPE  C21219339   1.400   1.251   7.859 -0.9359 -0.7040  0.5089
  171SOPE  H12R19340   1.469   1.165   7.866 -0.4498 -0.4345 -0.7768
  171SOPE  H12S19341   1.298   1.213   7.880 -1.2637  0.8693  2.0405
  171SOPE  C21319342   1.420   1.355   7.969  0.0094 -0.0806  0.0086
  171SOPE  H13R19343   1.353   1.441   7.946 -0.0826 -0.1304  0.0905
  171SOPE  H13S19344   1.524   1.394   7.975 -0.3222  1.3451 -2.2810
  171SOPE  C21419345   1.389   1.298   8.114 -0.0058  0.3836  0.6608
  171SOPE  H14R19346   1.466   1.220   8.132 -0.7953 -0.4036  0.6707
  171SOPE  H14S19347   1.286   1.255   8.116  0.5649 -1.1013 -0.3642
  171SOPE  C21519348   1.403   1.405   8.222  0.1005 -0.1713 -0.4958
  171SOPE  H15R19349   1.334   1.488   8.194  0.6179  0.3595 -0.2155
  171SOPE  H15S19350   1.506   1.445   8.233 -0.3265  0.3169  3.1325
  171SOPE  C21619351   1.350   1.355   8.359 -0.2153  0.4954  0.1326
  171SOPE  H16R19352   1.397   1.257   8.384  0.9746  0.7882 -0.8860
  171SOPE  H16S19353   1.240   1.338   8.356  0.1703 -2.9971  0.8450
  171SOPE  C21719354   1.391   1.449   8.476 -0.3216  0.0520 -0.7088
  171SOPE  H17R19355   1.501   1.462   8.468 -0.4616  1.4184 -0.5550
  171SOPE  H17S19356   1.359   1.408   8.574 -0.8097 -1.9356 -1.6419
  171SOPE  C21819357   1.325   1.590   8.467 -0.2216 -0.5073  0.0851
  171SOPE  H18R19358   1.216   1.590   8.486  0.0057  2.5283  2.1917
  171SOPE  H18S19359   1.350   1.630   8.366  1.1023  0.0919  0.6184
  171SOPE  H18T19360   1.372   1.657   8.543  0.7916 -1.6502  0.5049
  171SOPE   C3319361   1.364   1.097   6.701 -0.4601 -0.7509  0.0884
  171SOPE   H3X19362   1.295   1.180   6.677 -1.6936 -1.6511  0.3932
  171SOPE   H3Y19363   1.453   1.135   6.755  0.5326  1.4740 -2.8536
  171SOPE   C3419364   1.293   1.001   6.803 -0.3678  0.0658  0.2110
  171SOPE   H4X19365   1.370   0.923   6.823  0.7221  0.2750 -2.7024
  171SOPE   H4Y19366   1.204   0.953   6.759 -0.3268 -2.1115  2.2874
  171SOPE   C3519367   1.256   1.090   6.920 -0.8641  0.6861  0.5332
  171SOPE   H5X19368   1.217   1.184   6.877  0.9394  0.3423 -2.1214
  171SOPE   H5Y19369   1.344   1.123   6.979 -1.1270  1.9816  0.2274
  171SOPE   C3619370   1.150   1.027   7.014 -0.3585 -0.1012 -0.0608
  171SOPE   H6X19371   1.184   0.931   7.058 -2.1692 -0.2286  1.1813
  171SOPE   H6Y19372   1.064   1.002   6.948  0.1694  0.2894 -0.9099
  171SOPE   C3719373   1.107   1.124   7.125 -0.0249 -0.0308 -1.0174
  171SOPE   H7X19374   1.024   1.191   7.094  0.5872  0.9443 -0.6104
  171SOPE   H7Y19375   1.195   1.183   7.160 -0.5712 -0.0224  0.3907
  171SOPE   C3819376   1.062   1.045   7.252  0.9611 -0.0672 -0.0917
  171SOPE   H8X19377   1.156   1.003   7.293  1.0887  1.0887  0.8582
  171SOPE   H8Y19378   0.994   0.971   7.206 -0.3048  1.2674 -0.4538
  171SOPE   C3919379   1.008   1.147   7.357  0.5027  0.7687  0.0596
  171SOPE   H9X19380   0.900   1.159   7.336  0.6354  0.2499 -1.0003
  171SOPE   H9Y19381   1.058   1.245   7.344 -1.2268  1.4763 -1.7304
  171SOPE  C31019382   1.029   1.089   7.497  0.0764 -0.4227  0.8749
  171SOPE  H10X19383   1.139   1.085   7.513  0.6248  3.0347 -1.0202
  171SOPE  H10Y19384   0.989   0.985   7.499 -1.3541  0.0764 -0.1751
  171SOPE  C31119385   0.979   1.172   7.614 -0.2927 -0.1113  0.0952
  171SOPE  H11X19386   0.869   1.184   7.621 -0.0622  1.0434  2.4623
  171SOPE  H11Y19387   1.029   1.271   7.617 -1.0568  0.2613  0.8610
  171SOPE  C31219388   1.018   1.103   7.740 -0.3001 -0.9490  0.2783
  171SOPE  H12X19389   1.126   1.083   7.749 -0.4624 -1.4381  1.2459
  171SOPE  H12Y19390   0.981   0.999   7.749 -0.4716 -0.7650  2.3115
  171SOPE  C31319391   0.989   1.191   7.869 -0.2535 -0.1266  0.2964
  171SOPE  H13X19392   0.882   1.220   7.855 -0.1213 -0.0568 -0.6151
  171SOPE  H13Y19393   1.053   1.282   7.870  0.2057 -0.4490  0.4639
  171SOPE  C31419394   1.004   1.120   8.005 -0.0377 -0.3720 -0.0767
  171SOPE  H14X19395   1.114   1.105   8.012  0.7745  2.8565 -3.3124
  171SOPE  H14Y19396   0.960   1.018   8.000 -0.0816 -0.3312 -0.5195
  171SOPE  C31519397   0.921   1.191   8.116 -0.5490 -0.3504 -0.5267
  171SOPE  H15X19398   0.825   1.230   8.076 -2.3992 -2.6981  1.2905
  171SOPE  H15Y19399   0.982   1.276   8.154 -1.3435 -0.0417  0.0701
  171SOPE  C31619400   0.901   1.100   8.244  0.0370  0.0794 -0.1808
  171SOPE  H16X19401   1.001   1.057   8.267 -0.3361 -0.5675  0.2586
  171SOPE  H16Y19402   0.837   1.023   8.197 -1.0806  0.3789  0.8082
  171SOPE  C31719403   0.839   1.164   8.362 -0.0125  0.0251  0.2230
  171SOPE  H17X19404   0.781   1.089   8.420 -1.5765 -0.1711 -1.5060
  171SOPE  H17Y19405   0.764   1.244   8.346  1.5425  1.9819  2.0272
  171SOPE  C31819406   0.941   1.235   8.448 -0.4436 -0.2060 -0.3696
  171SOPE  H18X19407   1.018   1.163   8.484 -0.1356  1.3373  2.2594
  171SOPE  H18Y19408   0.904   1.271   8.546 -0.0646  0.4910 -0.4767
  171SOPE  H18Z19409   0.994   1.320   8.399 -0.7417  0.5014  0.5354
  172SOPE     N19410   3.796   0.217   6.141 -0.3775  0.1673 -0.3750
  172SOPE   HN119411   3.772   0.189   6.044  0.5794  1.0600 -0.9008
  172SOPE   HN219412   3.727   0.283   6.182 -0.6118 -0.8366  0.9114
  172SOPE   HN319413   3.896   0.247   6.138  0.3050 -1.8398  0.6392
  172SOPE   C1219414   3.788   0.102   6.239  0.0343 -0.4788 -0.5913
  172SOPE  H12A19415   3.694   0.044   6.220 -0.0308 -0.4620 -0.3351
  172SOPE  H12B19416   3.773   0.135   6.344  0.3461 -3.8356  0.6481
  172SOPE   C1119417   3.902  -0.001   6.218 -0.2172  0.0868  0.3645
  172SOPE  H11A19418   3.889  -0.033   6.113  1.7755  0.7245 -0.1237
  172SOPE  H11B19419   3.876  -0.083   6.289 -0.4207 -0.2331 -0.0770
  172SOPE     P19420   4.167  -0.040   6.255 -0.1280 -0.3516 -0.0203
  172SOPE   O1319421   4.285   0.021   6.188  0.4054  0.3610  0.3158
  172SOPE   O1419422   4.139  -0.180   6.216  0.0865 -0.1260  0.3932
  172SOPE   O1219423   4.037   0.057   6.235 -0.2323  0.4899 -0.1234
  172SOPE   O1119424   4.198  -0.039   6.407 -0.2525  0.2293  0.4140
  172SOPE    C119425   4.242   0.078   6.480  0.5987 -0.8847 -0.1055
  172SOPE    HA19426   4.234   0.174   6.424 -1.3249 -0.7096  0.3884
  172SOPE    HB19427   4.348   0.069   6.513 -0.1095 -2.1754  1.9902
  172SOPE    C219428   4.151   0.106   6.603 -0.5194  0.0952  0.6674
  172SOPE    HS19429   4.175   0.203   6.652 -2.1376  1.4022 -1.0163
  172SOPE   O2119430   4.162   0.004   6.699  0.7433  0.1699  0.3016
  172SOPE   C2119431   4.263   0.012   6.782  0.1120 -0.9470  0.4274
  172SOPE   O2219432   4.354   0.092   6.771 -1.0642  0.5216  0.1994
  172SOPE   C2219433   4.226  -0.082   6.906  0.0120 -0.2022  0.7240
  172SOPE   H2R19434   4.210  -0.185   6.867 -0.4705  0.6606 -1.5491
  172SOPE   H2S19435   4.123  -0.047   6.929 -0.8957 -0.6548 -2.1966
  172SOPE    C319436   4.003   0.133   6.571 -0.2528 -0.0244 -0.1251
  172SOPE    HX19437   3.947   0.037   6.567  3.2032 -2.2333  0.1853
  172SOPE    HY19438   4.006   0.168   6.465  1.1957  0.4725  0.0570
  172SOPE   O3119439   3.943   0.237   6.660 -0.0680 -0.1238 -0.6523
  172SOPE   C3119440   3.870   0.191   6.760 -0.5809 -0.9938  0.1544
  172SOPE   O3219441   3.831   0.081   6.787 -0.0467 -0.4286  0.3828
  172SOPE   C3219442   3.840   0.305   6.857 -0.2554 -0.3528 -0.5088
  172SOPE   H2X19443   3.740   0.341   6.826 -0.1110 -0.5849 -1.2676
  172SOPE   H2Y19444   3.899   0.395   6.830  1.7612 -1.1871  0.8591
  172SOPE   C2319445   4.323  -0.076   7.023  0.0001  0.5251  0.5647
  172SOPE   H3R19446   4.297  -0.003   7.103  2.2841  2.1564 -0.0752
  172SOPE   H3S19447   4.422  -0.048   6.981  0.5800 -1.2350  0.6767
  172SOPE   C2419448   4.320  -0.208   7.106  0.1019 -0.4771 -0.1693
  172SOPE   H4R19449   4.216  -0.240   7.126  0.3584 -0.1676  2.0024
  172SOPE   H4S19450   4.377  -0.270   7.033  0.2675 -1.3261  0.6517
  172SOPE   C2519451   4.394  -0.204   7.237 -0.9729  0.3511 -0.2767
  172SOPE   H5R19452   4.424  -0.306   7.267 -0.9402  0.6182  0.6255
  172SOPE   H5S19453   4.485  -0.146   7.211 -1.4729  0.2127 -2.5239
  172SOPE   C2619454   4.307  -0.146   7.350  0.4436  0.1146  0.6336
  172SOPE   H6R19455   4.291  -0.037   7.338 -1.4612 -0.1161  0.7557
  172SOPE   H6S19456   4.213  -0.202   7.333  1.6737 -2.1461  0.8150
  172SOPE   C2719457   4.363  -0.179   7.497  1.1563  0.0530  0.5849
  172SOPE   H7R19458   4.272  -0.157   7.559  0.1526  2.0656 -1.4581
  172SOPE   H7S19459   4.412  -0.278   7.504 -1.9665 -1.6629 -0.0813
  172SOPE   C2819460   4.471  -0.073   7.533  0.1546  0.0561  0.3715
  172SOPE   H8R19461   4.514  -0.112   7.627 -0.3061 -0.5355  0.3443
  172SOPE   H8S19462   4.539  -0.074   7.445 -1.2000  0.9696 -0.7327
  172SOPE   C2919463   4.405   0.063   7.557 -0.2222 -0.3009  0.4661
  172SOPE   H9119464   4.328   0.084   7.480  0.7268 -0.2711 -0.4961
  172SOPE  C21019465   4.437   0.141   7.662  0.1879 -0.3683  1.2242
  172SOPE  H10119466   4.380   0.235   7.663  0.5403 -0.1318  0.2927
  172SOPE  C21119467   4.538   0.127   7.769  0.6013  0.2381 -0.2647
  172SOPE  H11R19468   4.624   0.195   7.749  1.5673 -0.5153  1.1957
  172SOPE  H11S19469   4.579   0.024   7.761  0.4481  0.2768 -2.2249
  172SOPE  C21219470   4.483   0.172   7.907 -0.1733  0.2877  0.5630
  172SOPE  H12R19471   4.432   0.270   7.891 -1.2708 -0.4408 -0.7241
  172SOPE  H12S19472   4.574   0.183   7.969 -0.2870 -0.0457  0.7890
  172SOPE  C21319473   4.377   0.081   7.973 -0.1319  1.0127 -1.3673
  172SOPE  H13R19474   4.279   0.096   7.923 -1.1670  3.0524  1.0825
  172SOPE  H13S19475   4.361   0.115   8.078  0.5955 -0.3853 -0.7825
  172SOPE  C21419476   4.416  -0.068   7.985  0.6471 -0.0768 -0.0608
  172SOPE  H14R19477   4.415  -0.121   7.887  0.8980 -0.5909  0.2135
  172SOPE  H14S19478   4.335  -0.114   8.046  1.1664  0.2446  0.8795
  172SOPE  C21519479   4.545  -0.100   8.056 -0.0232 -0.1642  0.8323
  172SOPE  H15R19480   4.613  -0.044   7.988 -2.5914  1.0122 -0.9386
  172SOPE  H15S19481   4.567  -0.208   8.046  2.1338  0.3677 -1.2076
  172SOPE  C21619482   4.562  -0.046   8.198 -0.8502 -0.3587  0.0417
  172SOPE  H16R19483   4.524   0.058   8.199  0.2546  0.0542 -0.2272
  172SOPE  H16S19484   4.670  -0.023   8.208 -0.7822  0.6710 -2.4009
  172SOPE  C21719485   4.510  -0.148   8.301 -0.6746  0.6356 -0.8969
  172SOPE  H17R19486   4.567  -0.243   8.295 -1.9449 -0.1465 -0.8389
  172SOPE  H17S19487   4.407  -0.170   8.264 -0.9115 -0.3742  0.3285
  172SOPE  C21819488   4.515  -0.096   8.446 -0.0216  0.6465 -0.8925
  172SOPE  H18R19489   4.469   0.002   8.469  1.9371  1.1722  1.0906
  172SOPE  H18S19490   4.623  -0.081   8.466 -0.1719  0.6201 -0.0445
  172SOPE  H18T19491   4.484  -0.174   8.519 -2.3250  1.9119 -0.4342
  172SOPE   C3319492   3.849   0.276   7.004  0.2548 -0.0312  0.0216
  172SOPE   H3X19493   3.778   0.204   7.052  0.5705 -0.3552  0.0079
  172SOPE   H3Y19494   3.837   0.377   7.048 -0.1890 -0.7077  1.5423
  172SOPE   C3419495   3.987   0.234   7.046  0.1463  0.2753 -0.3945
  172SOPE   H4X19496   4.070   0.293   7.002  0.1577  0.7683  0.2655
  172SOPE   H4Y19497   4.007   0.128   7.020  1.2450  0.5748 -0.8187
  172SOPE   C3519498   4.016   0.245   7.198 -0.3891  0.0362 -0.2035
  172SOPE   H5X19499   3.995   0.348   7.236  0.6610  0.0563  0.3557
  172SOPE   H5Y19500   4.124   0.222   7.212 -0.0643  0.9784 -1.0267
  172SOPE   C3619501   3.935   0.146   7.284 -0.2668  0.0204  0.0998
  172SOPE   H6X19502   3.940   0.046   7.238 -1.2427 -1.3762  2.7891
  172SOPE   H6Y19503   3.825   0.165   7.288 -0.0978  0.9264  1.3237
  172SOPE   C3719504   3.984   0.137   7.432  0.1922  0.0801  0.6811
  172SOPE   H7X19505   3.960   0.231   7.486 -0.0511  0.0895  0.5588
  172SOPE   H7Y19506   4.094   0.125   7.429  0.0454 -1.2073 -0.1863
  172SOPE   C3819507   3.938   0.011   7.495  0.0137 -0.4453 -0.7191
  172SOPE   H8X19508   3.963  -0.081   7.438  1.1173  0.9576 -2.6158
  172SOPE   H8Y19509   3.829   0.024   7.514  0.2765 -1.5583  2.0415
  172SOPE   C3919510   4.001   0.001   7.634  0.2095 -0.5681  0.5459
  172SOPE   H9X19511   3.989   0.095   7.692 -0.0438 -1.2749  1.6700
  172SOPE   H9Y19512   4.111  -0.014   7.624  0.7086  1.9996  1.3929
  172SOPE  C31019513   3.952  -0.120   7.702 -0.3745  0.2152 -0.0765
  172SOPE  H10X19514   3.979  -0.215   7.650  0.5242 -0.2421  1.1860
  172SOPE  H10Y19515   3.841  -0.117   7.707 -0.3442 -0.7214  1.9648
  172SOPE  C31119516   4.019  -0.133   7.841 -0.4153  0.2525  0.2744
  172SOPE  H11X19517   4.020  -0.041   7.902 -0.9364  0.2640  0.2706
  172SOPE  H11Y19518   4.122  -0.169   7.819 -0.6760 -0.2717 -0.1278
  172SOPE  C31219519   3.971  -0.255   7.933 -0.6435 -0.2841  1.2427
  172SOPE  H12X19520   3.973  -0.343   7.864  0.1465  1.3510 -0.9173
  172SOPE  H12Y19521   3.865  -0.235   7.960 -0.9546  1.8946 -1.2099
  172SOPE  C31319522   4.049  -0.278   8.059  0.2936 -0.2987 -0.0040
  172SOPE  H13X19523   4.054  -0.178   8.109 -1.4105  0.6615 -1.6102
  172SOPE  H13Y19524   4.152  -0.298   8.024  0.2653  1.5814 -1.3274
  172SOPE  C31419525   3.989  -0.384   8.155 -0.0766 -0.4867  0.2881
  172SOPE  H14X19526   4.004  -0.481   8.104  0.3568  0.7236 -2.0245
  172SOPE  H14Y19527   3.878  -0.374   8.149  0.0306  0.5787 -5.1697
  172SOPE  C31519528   4.037  -0.371   8.301  0.1425 -0.3392  0.2465
  172SOPE  H15X19529   3.976  -0.285   8.336 -0.9672 -0.9901 -0.0786
  172SOPE  H15Y19530   4.146  -0.348   8.306  0.2300 -0.9569  1.7039
  172SOPE  C31619531   4.016  -0.496   8.384  0.2115  0.2618 -0.1058
  172SOPE  H16X19532   4.083  -0.571   8.339 -0.8992  0.4110 -2.1361
  172SOPE  H16Y19533   3.915  -0.530   8.352  0.7658  1.2720 -3.1570
  172SOPE  C31719534   4.027  -0.480   8.537  0.7509  0.1352  0.2640
  172SOPE  H17X19535   3.962  -0.398   8.575  4.8755  4.0368 -0.2867
  172SOPE  H17Y19536   4.132  -0.450   8.556  1.0992 -1.0478  0.2728
  172SOPE  C31819537   4.006  -0.608   8.609  0.0910  0.2405 -0.3065
  172SOPE  H18X19538   4.088  -0.675   8.574 -0.0793  0.6187 -1.5044
  172SOPE  H18Y19539   3.907  -0.651   8.583  0.8581 -2.2006  0.5133
  172SOPE  H18Z19540   4.002  -0.600   8.719  0.2911 -0.1424 -0.2694
  173SAPI   C1219541   2.587   4.521  10.822  0.2992  0.1418 -0.0112
  173SAPI    H219542   2.525   4.473  10.743  2.1875 -1.7880 -0.4306
  173SAPI    O219543   2.547   4.464  10.952 -0.0605 -0.7577  0.3694
  173SAPI   HO219544   2.455   4.492  10.959  0.2384 -0.0220  1.6259
  173SAPI   C1319545   2.734   4.485  10.792  0.5838  0.1418 -0.2804
  173SAPI    H319546   2.765   4.534  10.697  1.5560  0.3659  0.1457
  173SAPI    O319547   2.750   4.345  10.786 -0.2577  0.5765  0.1466
  173SAPI   HO319548   2.836   4.323  10.749 -0.5270 -1.6859  0.6815
  173SAPI   C1419549   2.827   4.543  10.899  0.3675 -0.6466  0.2500
  173SAPI    H419550   2.806   4.507  11.001  0.5216  0.8559  0.8415
  173SAPI    O419551   2.965   4.518  10.871 -0.0302  0.1405 -0.2349
  173SAPI   HO419552   2.986   4.438  10.919 -0.7838 -0.8657 -1.5052
  173SAPI   C1519553   2.798   4.694  10.908  0.5161  0.7486  0.1837
  173SAPI    H519554   2.817   4.743  10.810  0.3681  0.4849  0.0247
  173SAPI    O519555   2.890   4.749  11.001  0.3632 -0.2463 -0.8712
  173SAPI   HO519556   2.930   4.828  10.964  0.2105  0.5538  0.5879
  173SAPI   C1619557   2.652   4.732  10.936 -0.3566  0.4621  0.4233
  173SAPI    H619558   2.635   4.687  11.036 -0.3444 -0.2539  0.1056
  173SAPI    O619559   2.634   4.875  10.940 -0.1978  1.0266 -0.3116
  173SAPI   HO619560   2.562   4.898  10.880 -2.3813 -0.1419  1.6979
  173SAPI   C1119561   2.565   4.664  10.827  0.6886  0.0321  0.1364
  173SAPI    H119562   2.606   4.705  10.732  3.9838 -1.8871  0.5740
  173SAPI     P19563   2.345   4.821  10.791  0.1725 -0.1631  0.2810
  173SAPI   O1319564   2.427   4.944  10.797 -0.7485  0.3773  0.0660
  173SAPI   O1419565   2.221   4.830  10.870  1.4018  0.4746 -0.1499
  173SAPI   O1219566   2.428   4.687  10.842 -0.6094  0.3833 -0.8816
  173SAPI   O1119567   2.322   4.766  10.641  0.0072  0.2430  0.1122
  173SAPI    C119568   2.257   4.642  10.611  0.3489 -0.0475  0.3256
  173SAPI    HA19569   2.317   4.556  10.649  1.1107 -0.3446 -1.4357
  173SAPI    HB19570   2.159   4.641  10.664 -0.5351  2.6001 -1.0609
  173SAPI    C219571   2.237   4.617  10.457 -0.0693  0.1408  0.0363
  173SAPI    HS19572   2.167   4.533  10.439 -0.2695  0.3251 -0.0413
  173SAPI   O2119573   2.366   4.590  10.392 -0.5332  0.6005  0.3364
  173SAPI   C2119574   2.422   4.473  10.417 -0.2929 -0.5637 -0.1492
  173SAPI   O2219575   2.370   4.376  10.473 -0.0930 -0.1526  0.4783
  173SAPI   C2219576   2.554   4.464  10.339  0.1502 -0.3991 -0.3856
  173SAPI   H2R19577   2.615   4.550  10.373 -0.6163 -0.5137  1.3653
  173SAPI   H2S19578   2.597   4.369  10.375  0.2959 -0.4521 -0.6942
  173SAPI    C319579   2.164   4.743  10.400  0.2500  0.2816 -0.6170
  173SAPI    HX19580   2.213   4.836  10.435  1.1730 -0.0873 -0.8968
  173SAPI    HY19581   2.063   4.740  10.445  1.1151 -1.4943  1.3779
  173SAPI   O3119582   2.156   4.734  10.255  0.6056  0.3180 -0.5144
  173SAPI   C3119583   2.256   4.789  10.184 -0.6832  0.2181  0.8795
  173SAPI   O3219584   2.351   4.847  10.227  0.3741  0.4437 -0.6924
  173SAPI   C3219585   2.223   4.764  10.033 -0.8321 -0.5336  0.4208
  173SAPI   H2X19586   2.158   4.846   9.994 -1.0666 -1.3352 -0.9478
  173SAPI   H2Y19587   2.185   4.661  10.021 -0.2148 -0.5326 -2.3120
  173SAPI   C2319588   2.535   4.476  10.189 -0.7013 -0.3275  0.4188
  173SAPI   H3R19589   2.642   4.497  10.164 -1.1090  0.0610 -1.1283
  173SAPI   H3S19590   2.483   4.569  10.159 -0.6898 -0.7186 -0.9069
  173SAPI   C2419591   2.497   4.352  10.116  0.5824  0.2543  0.4529
  173SAPI   H4R19592   2.395   4.319  10.143  0.9409 -1.1333  0.1924
  173SAPI   H4S19593   2.574   4.280  10.149  2.2453  2.3443  1.4003
  173SAPI   C2519594   2.494   4.376   9.971  0.4688 -0.3256 -0.1267
  173SAPI   H5R19595   2.406   4.436   9.942 -0.9306 -2.3805 -0.3263
  173SAPI   C2619596   2.556   4.308   9.871 -1.0657  0.0401  0.0811
  173SAPI   H6R19597   2.545   4.343   9.768 -1.3532  2.4888  0.8814
  173SAPI   C2719598   2.648   4.191   9.889  0.6291 -0.0574 -0.0138
  173SAPI   H7R19599   2.710   4.203   9.980 -1.3341 -0.1256  1.3918
  173SAPI   H7S19600   2.717   4.187   9.802 -0.1631  0.3799 -0.6758
  173SAPI   C2819601   2.557   4.080   9.900  0.3875  0.5795  0.1142
  173SAPI   H8R19602   2.484   4.077   9.982 -0.1235 -0.4551 -0.3616
  173SAPI   C2919603   2.560   3.981   9.810  0.2229  1.1689 -0.1470
  173SAPI   H9R19604   2.491   3.900   9.838  1.6312 -0.4498 -1.1042
  173SAPI  C21019605   2.646   3.954   9.691 -0.3061  0.2036  0.2467
  173SAPI  H10R19606   2.726   3.890   9.734  0.4204  1.9812  1.6217
  173SAPI  H10S19607   2.691   4.052   9.666 -1.7213  0.8966  0.2971
  173SAPI  C21119608   2.591   3.891   9.563 -0.6941 -0.1729 -0.1869
  173SAPI  H11R19609   2.494   3.844   9.585 -0.6611  0.3025  1.0518
  173SAPI  C21219610   2.637   3.893   9.438 -0.4459  0.7620  0.7878
  173SAPI  H12R19611   2.574   3.844   9.362 -3.0374  3.0162  1.3060
  173SAPI  C21319612   2.764   3.954   9.376  0.6792  0.2084 -0.0826
  173SAPI  H13R19613   2.837   3.880   9.336  1.7922  0.6663  1.0323
  173SAPI  H13S19614   2.809   4.020   9.453 -0.7692  2.3650 -0.9855
  173SAPI  C21419615   2.713   4.048   9.267  0.5746 -0.2312 -0.5494
  173SAPI  H14R19616   2.686   4.150   9.298 -0.2803 -0.0630 -1.7556
  173SAPI  C21519617   2.688   4.011   9.133  0.0667 -0.1390  0.1837
  173SAPI  H15R19618   2.646   4.081   9.059 -0.1932  0.2781  0.7283
  173SAPI  C21619619   2.718   3.877   9.062  0.0896  0.1005 -0.1993
  173SAPI  H16R19620   2.639   3.838   8.994 -0.2247  1.3516 -0.5804
  173SAPI  H16S19621   2.731   3.796   9.137  0.7763 -0.1292 -0.5630
  173SAPI  C21719622   2.850   3.888   8.981 -0.0681 -0.0996 -0.3068
  173SAPI  H17R19623   2.869   3.787   8.939  0.5156  0.3102 -1.0484
  173SAPI  H17S19624   2.928   3.907   9.058  0.1772  3.5722 -1.2950
  173SAPI  C21819625   2.856   4.001   8.883 -0.0181 -0.5943  0.5585
  173SAPI  H18R19626   2.851   4.099   8.935 -0.9266 -0.0361 -0.5359
  173SAPI  H18S19627   2.775   4.017   8.809  0.7028  1.4367  0.1512
  173SAPI  C21919628   2.991   3.986   8.810  0.0490 -0.5707 -0.4250
  173SAPI  H19R19629   2.991   3.896   8.745  0.0080  0.9215 -2.6149
  173SAPI  H19S19630   3.068   3.967   8.888  1.9130  0.8503 -1.8173
  173SAPI  C22019631   3.025   4.100   8.718  0.0169 -0.8057 -0.3494
  173SAPI  H20R19632   3.062   4.185   8.779 -1.1330 -0.2141 -0.4464
  173SAPI  H20S19633   2.932   4.135   8.668 -0.1849 -0.0856  0.4980
  173SAPI  H20T19634   3.104   4.069   8.647  0.3861 -0.7636  0.0405
  173SAPI   C3319635   2.357   4.773   9.956 -0.9991 -0.0427  0.1115
  173SAPI   H3X19636   2.423   4.712  10.020 -2.5738  0.7600  2.6333
  173SAPI   H3Y19637   2.407   4.872   9.962  1.5166 -1.1539 -1.0980
  173SAPI   C3419638   2.356   4.711   9.822  0.7708  0.4425  0.2066
  173SAPI   H4X19639   2.322   4.605   9.821  0.0582  0.6553 -1.4278
  173SAPI   H4Y19640   2.458   4.699   9.779 -0.0511  0.7500 -1.9583
  173SAPI   C3519641   2.295   4.793   9.716 -0.6643 -0.0040  0.1510
  173SAPI   H5X19642   2.325   4.898   9.733  0.0295 -0.0181 -0.8547
  173SAPI   H5Y19643   2.184   4.790   9.718 -0.6967 -2.8576 -0.5280
  173SAPI   C3619644   2.341   4.752   9.577  0.2786 -0.0876 -0.4724
  173SAPI   H6X19645   2.338   4.641   9.581 -1.9203 -0.0682 -0.6509
  173SAPI   H6Y19646   2.442   4.790   9.550 -0.0333  0.8270 -0.3731
  173SAPI   C3719647   2.229   4.798   9.482 -0.0662 -1.0743  0.4352
  173SAPI   H7X19648   2.224   4.908   9.496 -3.4720 -0.7011 -2.2137
  173SAPI   H7Y19649   2.126   4.767   9.513 -0.0158 -0.3489  1.3904
  173SAPI   C3819650   2.255   4.767   9.333  0.2574  0.5458 -0.4633
  173SAPI   H8X19651   2.175   4.815   9.273  0.3752  0.4758 -0.6774
  173SAPI   H8Y19652   2.264   4.656   9.327  0.7078  0.4403  1.4652
  173SAPI   C3919653   2.388   4.828   9.282  0.2891  0.7239 -0.0870
  173SAPI   H9X19654   2.477   4.770   9.314  0.1632  0.9619  0.7136
  173SAPI   H9Y19655   2.394   4.933   9.318 -0.2940  1.0075 -0.7884
  173SAPI  C31019656   2.393   4.838   9.122  0.5088  0.8261  0.1065
  173SAPI  H10X19657   2.484   4.894   9.093  1.6506 -0.6041  0.7676
  173SAPI  H10Y19658   2.300   4.891   9.093  1.2322  2.0467 -0.0538
  173SAPI  C31119659   2.398   4.690   9.055  0.2472  0.2927 -0.3070
  173SAPI  H11X19660   2.295   4.651   9.070  1.3966 -2.5221  1.0727
  173SAPI  H11Y19661   2.468   4.629   9.117  0.0261 -0.1959 -0.5328
  173SAPI  C31219662   2.438   4.694   8.911 -0.2506 -0.5124  0.2971
  173SAPI  H12X19663   2.368   4.758   8.853 -0.9572 -1.7755 -0.2676
  173SAPI  H12Y19664   2.430   4.592   8.868  1.2117 -0.0254 -1.2105
  173SAPI  C31319665   2.571   4.769   8.883 -0.4764 -0.1069  0.3481
  173SAPI  H13X19666   2.559   4.877   8.906 -0.5017 -0.0063 -0.1373
  173SAPI  H13Y19667   2.607   4.774   8.778  3.0152  0.0490  1.4523
  173SAPI  C31419668   2.686   4.719   8.974  0.6558 -0.4546  0.3174
  173SAPI  H14X19669   2.676   4.608   8.967 -1.7420 -0.2032 -4.4879
  173SAPI  H14Y19670   2.668   4.752   9.078 -0.4034 -2.5610  0.8609
  173SAPI  C31519671   2.826   4.748   8.905 -0.4760 -0.4222  0.1023
  173SAPI  H15X19672   2.830   4.858   8.889  0.0695 -0.3482  0.7003
  173SAPI  H15Y19673   2.836   4.687   8.814  0.7012 -0.2941  0.1299
  173SAPI  C31619674   2.941   4.704   9.004  0.0786 -0.4946 -0.7667
  173SAPI  H16X19675   2.934   4.753   9.104  3.4752 -0.5848 -0.3604
  173SAPI  H16Y19676   3.039   4.726   8.956 -0.9955  0.4519 -2.6264
  173SAPI  C31719677   2.942   4.552   9.033 -0.5444  0.3891  0.1759
  173SAPI  H17X19678   2.930   4.494   8.939 -0.0934  1.2135 -0.4054
  173SAPI  H17Y19679   2.861   4.517   9.101 -0.6567  0.2270 -0.0391
  173SAPI  C31819680   3.078   4.516   9.110 -0.0707  0.1546 -0.7843
  173SAPI  H18X19681   3.065   4.564   9.209  2.2486 -1.9213  0.6299
  173SAPI  H18Y19682   3.183   4.528   9.074  0.7842  1.7389  1.9105
  173SAPI  H18Z19683   3.070   4.411   9.145  0.2922  0.0197 -1.0995
  174SAPI   C1219684   5.600   1.017  10.853  0.0635 -0.2121 -1.0437
  174SAPI    H219685   5.639   0.914  10.841 -0.6126 -1.0853  2.9184
  174SAPI    O219686   5.466   1.027  10.805 -0.5727 -0.0654 -0.3099
  174SAPI   HO219687   5.426   0.940  10.793  1.1444 -0.5620 -3.5992
  174SAPI   C1319688   5.605   1.051  11.006 -0.5213 -0.4364 -0.4343
  174SAPI    H319689   5.712   1.037  11.031 -0.1105  3.2277  0.4422
  174SAPI    O319690   5.528   0.948  11.074 -0.0577 -0.3090 -0.1354
  174SAPI   HO319691   5.436   0.963  11.050  1.1633  3.6701 -3.4800
  174SAPI   C1419692   5.561   1.193  11.025  0.5367  0.1751 -0.2789
  174SAPI    H419693   5.455   1.190  10.992 -0.6844 -1.2473  3.2193
  174SAPI    O419694   5.554   1.216  11.163 -0.0773  0.0647  0.3873
  174SAPI   HO419695   5.643   1.197  11.195 -0.1227 -0.2000  0.3556
  174SAPI   C1519696   5.651   1.286  10.950  0.4619 -0.1427  0.3951
  174SAPI    H519697   5.755   1.283  10.990  0.2004 -0.4908  1.0548
  174SAPI    O519698   5.608   1.422  10.969 -0.2069 -0.1202 -0.4557
  174SAPI   HO519699   5.523   1.425  10.923  0.4174 -0.9521 -1.7287
  174SAPI   C1619700   5.649   1.250  10.798 -0.1874  0.0442  0.4778
  174SAPI    H619701   5.547   1.274  10.761 -0.6228 -0.1342  1.5181
  174SAPI    O619702   5.734   1.341  10.728  0.2376 -0.2957 -0.2510
  174SAPI   HO619703   5.737   1.307  10.638  1.7979 -1.2781  0.1174
  174SAPI   C1119704   5.694   1.112  10.774 -0.4511 -0.3999 -0.6041
  174SAPI    H119705   5.794   1.092  10.817 -0.7911 -2.3401 -0.6580
  174SAPI     P19706   5.771   0.958  10.575  0.1325  0.1554 -0.0856
  174SAPI   O1319707   5.719   0.934  10.432  0.1762 -0.6881  0.0803
  174SAPI   O1419708   5.779   0.842  10.667 -0.2235  0.3381 -0.2671
  174SAPI   O1219709   5.682   1.088  10.636 -0.3464  0.7276 -0.0600
  174SAPI   O1119710   5.922   1.011  10.570  0.2910  0.4201 -0.6982
  174SAPI    C119711   5.960   1.147  10.557 -0.2082  0.7746 -0.9137
  174SAPI    HA19712   5.942   1.198  10.655 -0.4666 -1.7437  0.4232
  174SAPI    HB19713   6.070   1.152  10.544 -0.0512  0.4638  0.1816
  174SAPI    C219714   5.910   1.220  10.428  0.1262  0.5162  0.3396
  174SAPI    HS19715   5.806   1.248  10.453 -0.2972 -0.1456 -0.6223
  174SAPI   O2119716   5.918   1.123  10.319 -0.0990 -0.3749 -0.2918
  174SAPI   C2119717   5.836   1.160  10.224  0.3335 -0.7230  0.4129
  174SAPI   O2219718   5.749   1.248  10.231  0.1729 -0.3223 -0.4130
  174SAPI   C2219719   5.873   1.070  10.105 -0.2553 -0.2255  0.0287
  174SAPI   H2R19720   5.976   1.092  10.070  0.7161 -2.7133  1.0377
  174SAPI   H2S19721   5.888   0.967  10.145 -2.1518  0.3206  2.3824
  174SAPI    C319722   5.997   1.351  10.407 -0.4732 -0.4293 -0.1756
  174SAPI    HX19723   5.993   1.400  10.507 -1.3270  0.3125 -0.5589
  174SAPI    HY19724   5.945   1.424  10.341 -1.3429 -1.2125 -0.3618
  174SAPI   O3119725   6.141   1.326  10.379 -0.1226  0.3885 -0.1185
  174SAPI   C3119726   6.161   1.307  10.259 -0.2618  0.8232  1.8437
  174SAPI   O3219727   6.082   1.330  10.166  0.7103 -0.0174 -0.3711
  174SAPI   C3219728   6.307   1.257  10.241 -0.7816 -0.2026  0.5756
  174SAPI   H2X19729   6.309   1.146  10.241  1.2974 -0.3320 -3.2258
  174SAPI   H2Y19730   6.371   1.292  10.325 -0.6825  0.5708  0.1859
  174SAPI   C2319731   5.776   1.069   9.984  0.1598  0.1297 -0.3867
  174SAPI   H3R19732   5.675   1.060  10.029 -0.0133 -2.0013 -1.0768
  174SAPI   H3S19733   5.781   0.972   9.930  0.3357 -0.8690  1.3372
  174SAPI   C2419734   5.767   1.198   9.904 -0.2349 -0.8328  0.2537
  174SAPI   H4R19735   5.758   1.278   9.981 -3.3712 -0.1701 -0.6776
  174SAPI   H4S19736   5.677   1.195   9.839 -0.1794 -1.0042  0.1856
  174SAPI   C2519737   5.893   1.215   9.821  0.5027  1.0370  0.3214
  174SAPI   H5R19738   5.985   1.237   9.877  2.4264 -1.5801 -1.5760
  174SAPI   C2619739   5.909   1.202   9.684 -0.4255  0.5067 -0.3140
  174SAPI   H6R19740   6.011   1.222   9.646  0.5229  1.0242  2.2561
  174SAPI   C2719741   5.804   1.168   9.587 -0.7554  0.1335 -0.0115
  174SAPI   H7R19742   5.799   1.245   9.508  1.6512  2.1196  1.6214
  174SAPI   H7S19743   5.702   1.167   9.632  0.1548  0.0231  2.1897
  174SAPI   C2819744   5.825   1.025   9.526 -0.2278 -0.7048 -0.0124
  174SAPI   H8R19745   5.784   0.941   9.584  0.2856 -1.0507 -0.1493
  174SAPI   C2919746   5.871   0.996   9.403 -0.0929  0.4108  0.3737
  174SAPI   H9R19747   5.899   0.893   9.380  3.0157  1.2055  0.1241
  174SAPI  C21019748   5.922   1.090   9.295  0.1459 -0.3660  0.5341
  174SAPI  H10R19749   5.984   1.025   9.228 -0.6895  1.1592 -1.8702
  174SAPI  H10S19750   5.986   1.176   9.325 -1.3405  0.7283  0.6545
  174SAPI  C21119751   5.803   1.138   9.214 -0.6161 -0.8845  0.5677
  174SAPI  H11R19752   5.716   1.188   9.259 -0.2424  0.6578 -0.3310
  174SAPI  C21219753   5.798   1.127   9.080  0.0633 -0.5368  0.5566
  174SAPI  H12R19754   5.707   1.160   9.028  0.5434 -1.8960 -1.2641
  174SAPI  C21319755   5.891   1.069   8.977 -0.6012 -0.6796  0.3668
  174SAPI  H13R19756   5.997   1.056   9.007  0.0719  1.4147 -0.8654
  174SAPI  H13S19757   5.892   1.142   8.893  0.3815 -1.6319 -0.4830
  174SAPI  C21419758   5.849   0.934   8.925  0.6101  0.0489  0.1271
  174SAPI  H14R19759   5.885   0.845   8.979  0.9977  0.5526  0.7155
  174SAPI  C21519760   5.769   0.919   8.815 -0.1935  0.8637  0.6073
  174SAPI  H15R19761   5.728   0.819   8.793  3.1495 -0.5825  0.2868
  174SAPI  C21619762   5.722   1.026   8.721  0.0365  0.1232 -0.4664
  174SAPI  H16R19763   5.736   1.125   8.768  0.7473  0.7159 -1.8630
  174SAPI  H16S19764   5.616   1.006   8.694  0.0761  2.0877 -2.2587
  174SAPI  C21719765   5.796   1.020   8.579  0.4699  0.2550 -0.3265
  174SAPI  H17R19766   5.896   1.067   8.573  1.1133 -1.1475 -1.1685
  174SAPI  H17S19767   5.738   1.091   8.517 -1.1983  0.4485  1.3567
  174SAPI  C21819768   5.803   0.879   8.516 -0.1279  0.8516  0.0348
  174SAPI  H18R19769   5.702   0.850   8.479  0.1857 -0.0063 -0.1554
  174SAPI  H18S19770   5.833   0.806   8.594  2.4457 -1.0854 -2.5622
  174SAPI  C21919771   5.908   0.874   8.404  0.7205 -0.1711  0.1206
  174SAPI  H19R19772   6.010   0.900   8.438  0.8990 -0.7059 -0.0059
  174SAPI  H19S19773   5.884   0.958   8.335 -0.7396  0.0579  0.8634
  174SAPI  C22019774   5.913   0.746   8.311  0.0073 -0.2540 -0.4801
  174SAPI  H20R19775   6.000   0.760   8.244 -0.9420 -0.7780 -1.8722
  174SAPI  H20S19776   5.825   0.745   8.243 -0.1968 -0.0947 -0.2218
  174SAPI  H20T19777   5.922   0.654   8.372  0.8685  0.2974  0.2535
  174SAPI   C3319778   6.384   1.297  10.107  0.0249 -0.9669 -0.1600
  174SAPI   H3X19779   6.491   1.278  10.129  0.5083  2.3331  0.8565
  174SAPI   H3Y19780   6.377   1.405  10.083  2.5564 -0.7164 -0.0523
  174SAPI   C3419781   6.330   1.218   9.987 -0.3477 -0.1670  0.5263
  174SAPI   H4X19782   6.226   1.252   9.966  0.0104  0.1666 -0.7655
  174SAPI   H4Y19783   6.325   1.112  10.019 -1.4039 -0.0191  0.9002
  174SAPI   C3519784   6.404   1.231   9.856  0.1668 -0.5192  0.0593
  174SAPI   H5X19785   6.502   1.180   9.859  0.3393 -0.3163 -1.6103
  174SAPI   H5Y19786   6.427   1.338   9.838 -3.0281  0.7085  2.2990
  174SAPI   C3619787   6.325   1.179   9.742 -0.6444 -0.5180  0.4815
  174SAPI   H6X19788   6.242   1.252   9.726 -3.0876 -3.2629 -0.2995
  174SAPI   H6Y19789   6.274   1.084   9.770 -0.4970 -0.5695  0.5741
  174SAPI   C3719790   6.425   1.160   9.624  0.3513  0.1609 -0.1787
  174SAPI   H7X19791   6.502   1.082   9.643 -2.3285 -2.4714  0.5514
  174SAPI   H7Y19792   6.481   1.256   9.627 -1.0943  1.0018  1.2907
  174SAPI   C3819793   6.346   1.143   9.490 -0.3353  0.2848  0.3648
  174SAPI   H8X19794   6.303   1.239   9.453  1.4327  0.0934 -2.5156
  174SAPI   H8Y19795   6.264   1.069   9.499  0.6185 -0.9699 -0.8058
  174SAPI   C3919796   6.445   1.096   9.376  0.7449  0.6835  0.1980
  174SAPI   H9X19797   6.504   1.012   9.417  2.5259  1.7616 -0.0132
  174SAPI   H9Y19798   6.511   1.184   9.359  2.7918 -0.5940  1.2152
  174SAPI  C31019799   6.379   1.063   9.241  0.1338 -0.1564 -0.0792
  174SAPI  H10X19800   6.463   1.060   9.168 -1.3020 -0.2415 -1.7974
  174SAPI  H10Y19801   6.323   1.156   9.219 -1.5420 -0.9902  0.4984
  174SAPI  C31119802   6.273   0.954   9.236  0.3612 -0.7534 -0.2873
  174SAPI  H11X19803   6.188   0.996   9.294  0.7915  1.1600 -0.9450
  174SAPI  H11Y19804   6.324   0.869   9.286  1.4679 -0.6506 -1.1900
  174SAPI  C31219805   6.233   0.904   9.093 -0.1072 -0.3235 -0.5873
  174SAPI  H12X19806   6.172   0.984   9.045 -0.7080 -1.2483 -1.3949
  174SAPI  H12Y19807   6.172   0.813   9.110 -0.2568 -0.3169 -1.0882
  174SAPI  C31319808   6.346   0.870   9.001 -0.0940  1.0549  0.2359
  174SAPI  H13X19809   6.413   0.792   9.042 -1.0735  0.4513  0.7109
  174SAPI  H13Y19810   6.418   0.952   8.977  1.6773 -0.2125  1.0170
  174SAPI  C31419811   6.290   0.820   8.867  0.2090  0.0911 -0.0064
  174SAPI  H14X19812   6.243   0.912   8.826 -0.7858 -0.5017 -0.2082
  174SAPI  H14Y19813   6.222   0.738   8.898 -1.8496  2.1868  1.2577
  174SAPI  C31519814   6.410   0.772   8.773  0.7962  0.0994  0.2809
  174SAPI  H15X19815   6.487   0.736   8.844 -0.3249  0.4854  1.7467
  174SAPI  H15Y19816   6.446   0.871   8.738 -2.3714  1.1952 -0.1788
  174SAPI  C31619817   6.374   0.683   8.657 -0.6663 -0.1281 -0.8380
  174SAPI  H16X19818   6.469   0.650   8.609  0.2784  1.0412  0.1444
  174SAPI  H16Y19819   6.309   0.741   8.588 -1.4635  0.0130  0.0087
  174SAPI  C31719820   6.291   0.560   8.691 -0.0997  0.1118 -0.1994
  174SAPI  H17X19821   6.263   0.501   8.602 -2.0903  1.2951 -0.4021
  174SAPI  H17Y19822   6.193   0.601   8.725 -1.6926 -2.4635 -1.4187
  174SAPI  C31819823   6.353   0.473   8.810 -0.9176 -1.0090 -0.1872
  174SAPI  H18X19824   6.290   0.382   8.816  0.6238 -2.0461  0.8681
  174SAPI  H18Y19825   6.349   0.516   8.912 -0.4725  1.1037 -1.0169
  174SAPI  H18Z19826   6.455   0.438   8.784 -0.5680 -0.6424  0.6705
  175SAPI   C1219827   4.144   4.632   6.402  0.4005  0.2029 -0.1431
  175SAPI    H219828   4.115   4.697   6.488  0.4495 -1.0261  0.8300
  175SAPI    O219829   4.277   4.602   6.420  0.1946 -0.2715 -0.0578
  175SAPI   HO219830   4.331   4.679   6.441 -0.2633 -0.0344  0.2679
  175SAPI   C1319831   4.059   4.508   6.405  0.6622  1.1869  0.5669
  175SAPI    H319832   3.950   4.523   6.390  0.9465  0.7193 -2.7749
  175SAPI    O319833   4.071   4.435   6.527 -0.3566 -0.2420 -0.2220
  175SAPI   HO319834   4.165   4.433   6.545  0.0339  4.0376 -0.7316
  175SAPI   C1419835   4.108   4.423   6.285  0.6353 -0.7949 -0.2315
  175SAPI    H419836   4.218   4.415   6.294  0.6237 -1.7447 -0.8641
  175SAPI    O419837   4.062   4.285   6.298  0.0935  0.5594 -0.6912
  175SAPI   HO419838   4.075   4.267   6.391 -1.0618  1.0498 -0.4208
  175SAPI   C1519839   4.082   4.492   6.147  0.4921 -0.0185 -0.7199
  175SAPI    H519840   3.976   4.521   6.134  0.0076 -0.9235  1.0273
  175SAPI    O519841   4.116   4.405   6.040 -0.5119 -0.0354 -0.1649
  175SAPI   HO519842   4.107   4.315   6.072 -1.9173  0.4416  0.9043
  175SAPI   C1619843   4.165   4.621   6.151  0.2422  0.1181 -0.5317
  175SAPI    H619844   4.274   4.614   6.166  0.4612  3.1095 -0.0491
  175SAPI    O619845   4.155   4.696   6.030 -0.1145  0.1842 -0.3414
  175SAPI   HO619846   4.066   4.730   6.015  0.8563  1.9241 -2.8684
  175SAPI   C1119847   4.117   4.706   6.266 -0.2655  0.4346  0.3830
  175SAPI    H119848   4.007   4.719   6.262 -0.3879 -0.2742  1.0515
  175SAPI     P19849   4.125   4.960   6.339 -0.4313 -0.2607  0.2549
  175SAPI   O1319850   3.982   4.967   6.298  0.1103 -0.1115  0.0268
  175SAPI   O1419851   4.199   5.083   6.319 -0.7101  0.0262  1.0650
  175SAPI   O1219852   4.196   4.828   6.279  0.7409 -0.1161  0.7439
  175SAPI   O1119853   4.139   4.926   6.493 -0.8386  0.6292  0.5993
  175SAPI    C119854   4.061   5.006   6.585  0.2372  0.0304  0.0231
  175SAPI    HA19855   4.072   5.115   6.567 -2.0619  0.0387 -1.8667
  175SAPI    HB19856   3.952   4.981   6.588  0.2613 -0.0295  1.6834
  175SAPI    C219857   4.111   4.967   6.735 -0.1146  0.2034  0.7227
  175SAPI    HS19858   4.067   5.041   6.805 -0.9557  1.6085 -1.1797
  175SAPI   O2119859   4.256   4.980   6.740 -0.0863  0.0172 -0.2104
  175SAPI   C2119860   4.300   5.106   6.753  0.3520 -1.0251 -0.5056
  175SAPI   O2219861   4.220   5.192   6.773 -0.4917  0.3617  0.8122
  175SAPI   C2219862   4.450   5.114   6.766  0.0422 -0.6616  0.2218
  175SAPI   H2R19863   4.479   5.013   6.800 -0.4157 -0.9099 -0.1102
  175SAPI   H2S19864   4.493   5.140   6.667 -1.7945 -0.0843 -0.4866
  175SAPI    C319865   4.064   4.825   6.767 -0.2953  0.1660  0.3226
  175SAPI    HX19866   4.096   4.756   6.685 -1.2793 -0.3256  0.3333
  175SAPI    HY19867   3.952   4.824   6.767 -0.3241 -1.9305 -0.3013
  175SAPI   O3119868   4.114   4.778   6.891  0.8111  0.6896  0.0291
  175SAPI   C3119869   4.238   4.725   6.881  0.3073 -0.1904 -0.1743
  175SAPI   O3219870   4.291   4.694   6.773  0.0776  0.4047 -0.8052
  175SAPI   C3219871   4.295   4.692   7.022 -0.2796  0.0992  0.2167
  175SAPI   H2X19872   4.230   4.742   7.097  0.2432  1.0529  0.0451
  175SAPI   H2Y19873   4.393   4.743   7.028 -0.5130  0.6071 -0.1756
  175SAPI   C2319874   4.497   5.220   6.867 -0.0062 -0.0325 -0.2778
  175SAPI   H3R19875   4.447   5.317   6.845 -0.6564 -0.3591 -0.2370
  175SAPI   H3S19876   4.608   5.222   6.860 -0.0690 -0.0418 -1.4673
  175SAPI   C2419877   4.462   5.176   7.006 -0.1783  0.6499 -0.3690
  175SAPI   H4R19878   4.482   5.068   7.027 -1.6274  0.1478 -1.3824
  175SAPI   H4S19879   4.352   5.180   7.019 -0.4059 -1.2349 -1.4028
  175SAPI   C2519880   4.524   5.275   7.108  0.2821  0.3734 -0.2496
  175SAPI   H5R19881   4.492   5.378   7.085  2.3226  0.7061 -1.8452
  175SAPI   C2619882   4.598   5.240   7.213  0.1306 -0.1210  0.6738
  175SAPI   H6R19883   4.622   5.315   7.290  0.1453 -1.1644  1.7090
  175SAPI   C2719884   4.637   5.097   7.242  0.1578  0.3346  0.3164
  175SAPI   H7R19885   4.745   5.091   7.268 -0.1078 -0.9767  1.2672
  175SAPI   H7S19886   4.640   5.033   7.151  0.2924 -0.4409  0.8479
  175SAPI   C2819887   4.561   5.024   7.347 -0.8049 -0.1268 -0.5708
  175SAPI   H8R19888   4.461   4.994   7.314 -0.9403 -0.6778  0.3180
  175SAPI   C2919889   4.600   4.992   7.473  0.1171 -0.7582 -0.5920
  175SAPI   H9R19890   4.525   4.945   7.538 -0.4789 -0.5066 -1.0804
  175SAPI  C21019891   4.727   5.019   7.543  0.2323  0.4864 -0.2172
  175SAPI  H10R19892   4.807   5.058   7.475 -0.2371  0.3260 -0.8744
  175SAPI  H10S19893   4.771   4.926   7.583 -2.6204 -1.7932 -2.0075
  175SAPI  C21119894   4.695   5.122   7.650  0.3123  0.1064 -1.1533
  175SAPI  H11R19895   4.655   5.220   7.618  1.0310 -0.2149 -3.1711
  175SAPI  C21219896   4.734   5.110   7.780 -0.0827  0.8636 -0.4596
  175SAPI  H12R19897   4.691   5.180   7.853 -0.9799  0.0307 -0.1761
  175SAPI  C21319898   4.820   5.004   7.848  0.2816  0.1084  0.3148
  175SAPI  H13R19899   4.900   4.985   7.772 -1.2438 -1.7800 -0.9140
  175SAPI  H13S19900   4.764   4.909   7.839  0.6634 -0.0699 -0.2671
  175SAPI  C21419901   4.874   5.020   7.990 -0.6692  0.1191  0.2180
  175SAPI  H14R19902   4.876   5.120   8.034  1.2950  0.9895 -1.6805
  175SAPI  C21519903   4.945   4.925   8.058 -0.7345  0.2453 -0.0326
  175SAPI  H15R19904   4.975   4.944   8.162 -1.8789 -0.0603  0.3560
  175SAPI  C21619905   4.976   4.785   8.015  0.8753  0.1706  0.6039
  175SAPI  H16R19906   4.917   4.773   7.922 -2.3399  1.2121  2.3917
  175SAPI  H16S19907   4.941   4.714   8.093  2.0499  0.4256  1.3944
  175SAPI  C21719908   5.128   4.769   7.990  0.1366 -0.4728 -0.1848
  175SAPI  H17R19909   5.153   4.845   7.914 -1.9001 -0.3589 -0.7989
  175SAPI  H17S19910   5.165   4.670   7.956 -0.2955 -0.7061  0.0125
  175SAPI  C21819911   5.211   4.805   8.111 -0.7097 -0.5697  0.4646
  175SAPI  H18R19912   5.210   4.720   8.183  0.7710  0.7327  2.1279
  175SAPI  H18S19913   5.182   4.895   8.168  0.4893  2.0530 -2.7617
  175SAPI  C21919914   5.365   4.828   8.087 -0.5185 -0.4527  0.9771
  175SAPI  H19R19915   5.416   4.853   8.182 -0.0568 -1.8986  1.1445
  175SAPI  H19S19916   5.378   4.919   8.025  0.9564 -0.4085  1.3171
  175SAPI  C22019917   5.439   4.706   8.022  0.1368 -0.0395  0.2932
  175SAPI  H20R19918   5.393   4.672   7.926  1.5202 -1.3711  0.0411
  175SAPI  H20S19919   5.428   4.617   8.087 -0.3269  1.2475  2.0308
  175SAPI  H20T19920   5.549   4.716   8.011 -0.0015  1.2787 -0.0373
  175SAPI   C3319921   4.306   4.544   7.059  0.4196 -0.2171 -0.4678
  175SAPI   H3X19922   4.390   4.521   7.129 -0.0351 -2.1435 -0.4902
  175SAPI   H3Y19923   4.317   4.486   6.964  2.2408  2.2555 -1.8927
  175SAPI   C3419924   4.183   4.483   7.137  0.3197  0.1185 -0.0681
  175SAPI   H4X19925   4.085   4.527   7.107 -0.3981 -0.8715  0.7464
  175SAPI   H4Y19926   4.190   4.520   7.242  2.0390 -0.5407  0.0734
  175SAPI   C3519927   4.175   4.329   7.140 -1.2913 -0.7246  0.4637
  175SAPI   H5X19928   4.278   4.307   7.105 -0.6618  3.2528 -0.7260
  175SAPI   H5Y19929   4.098   4.292   7.068  0.2215 -1.4254 -0.8522
  175SAPI   C3619930   4.134   4.269   7.272  0.1410 -0.1882 -0.1950
  175SAPI   H6X19931   4.109   4.163   7.249 -0.3897  0.2582 -1.8395
  175SAPI   H6Y19932   4.038   4.320   7.290  0.9696  1.7060 -0.9103
  175SAPI   C3719933   4.234   4.279   7.383  0.3945 -0.3856  0.1088
  175SAPI   H7X19934   4.288   4.376   7.373 -0.5106  0.1389  0.2806
  175SAPI   H7Y19935   4.310   4.199   7.368  0.0620 -0.3486 -2.2307
  175SAPI   C3819936   4.178   4.256   7.522 -0.1625 -0.0344 -0.1692
  175SAPI   H8X19937   4.116   4.166   7.541  0.1453 -0.2281 -0.0774
  175SAPI   H8Y19938   4.114   4.342   7.555  0.0284  1.0478 -2.4344
  175SAPI   C3919939   4.298   4.246   7.618 -0.3094  0.0472  0.4512
  175SAPI   H9X19940   4.357   4.340   7.606  0.8641 -0.7889 -0.5541
  175SAPI   H9Y19941   4.365   4.160   7.596 -2.7752 -1.5839 -1.1222
  175SAPI  C31019942   4.265   4.211   7.762  0.6113  0.0774  0.5611
  175SAPI  H10X19943   4.225   4.107   7.765  3.2107 -1.0264 -0.2142
  175SAPI  H10Y19944   4.179   4.275   7.793  1.5153  1.4112  0.3995
  175SAPI  C31119945   4.381   4.217   7.859  0.3943 -0.0478 -0.2951
  175SAPI  H11X19946   4.424   4.320   7.858  0.4319 -0.0651 -1.0339
  175SAPI  H11Y19947   4.462   4.149   7.825  0.4612 -0.4833  0.7063
  175SAPI  C31219948   4.342   4.172   7.999  0.3301  0.3249  0.7208
  175SAPI  H12X19949   4.330   4.062   8.003 -1.4635  0.5142  2.4518
  175SAPI  H12Y19950   4.242   4.219   8.015 -2.3349 -3.4693 -2.8860
  175SAPI  C31319951   4.446   4.203   8.104 -0.2656 -0.3676 -0.3755
  175SAPI  H13X19952   4.465   4.312   8.110  0.0784 -0.3807 -1.1610
  175SAPI  H13Y19953   4.545   4.158   8.083  0.7050  1.1759  0.6400
  175SAPI  C31419954   4.410   4.163   8.250 -0.7589  0.4078  0.2041
  175SAPI  H14X19955   4.372   4.058   8.256  1.9447 -0.7716 -1.3150
  175SAPI  H14Y19956   4.323   4.225   8.277 -0.7481 -0.2301  1.8127
  175SAPI  C31519957   4.529   4.193   8.348  0.3365 -0.0124 -1.2580
  175SAPI  H15X19958   4.555   4.301   8.351  0.5573 -0.0776  1.6472
  175SAPI  H15Y19959   4.621   4.143   8.311  1.6427  1.6839 -0.4447
  175SAPI  C31619960   4.498   4.129   8.488  0.0346 -0.5794  0.7081
  175SAPI  H16X19961   4.558   4.037   8.504 -1.4619 -1.7664 -0.1814
  175SAPI  H16Y19962   4.394   4.094   8.472 -0.9307  0.9679  2.9856
  175SAPI  C31719963   4.505   4.223   8.605  0.1119 -0.4567  0.0615
  175SAPI  H17X19964   4.606   4.269   8.608  0.2349 -0.6963 -0.3271
  175SAPI  H17Y19965   4.479   4.167   8.698  2.3504  0.4512  1.3182
  175SAPI  C31819966   4.411   4.342   8.597  0.0928 -0.1250 -0.2957
  175SAPI  H18X19967   4.303   4.318   8.598  0.0736 -0.0992  1.1601
  175SAPI  H18Y19968   4.437   4.412   8.515  0.7404 -0.7379 -0.6192
  175SAPI  H18Z19969   4.427   4.396   8.694 -0.9472  1.0917 -0.7686
  176SAPI   C1219970   2.146   5.681   6.399  0.5545  0.0308 -0.0340
  176SAPI    H219971   2.224   5.608   6.430  2.4012  1.4276 -1.2069
  176SAPI    O219972   2.117   5.768   6.503  0.0880 -0.7548 -0.2351
  176SAPI   HO219973   2.057   5.723   6.563  0.8269 -1.0320  0.3200
  176SAPI   C1319974   2.211   5.745   6.276 -0.2156  0.9641 -0.3424
  176SAPI    H319975   2.206   5.675   6.191 -1.7732  1.6121 -0.8210
  176SAPI    O319976   2.348   5.780   6.300 -0.4462  0.4382 -0.1890
  176SAPI   HO319977   2.384   5.741   6.380 -1.7583 -1.3622 -0.4109
  176SAPI   C1419978   2.133   5.862   6.232  0.3060  0.2624 -0.5440
  176SAPI    H419979   2.120   5.925   6.323  4.0034 -1.1032  1.1299
  176SAPI    O419980   2.195   5.941   6.130 -0.2136 -0.3764 -0.0700
  176SAPI   HO419981   2.127   5.996   6.092  0.5817  2.0753  1.8052
  176SAPI   C1519982   1.999   5.805   6.188  0.0334 -0.4623 -0.4123
  176SAPI    H519983   2.020   5.737   6.102 -0.4874 -0.6551 -0.3874
  176SAPI    O519984   1.911   5.908   6.137  0.0497 -0.2669  1.1887
  176SAPI   HO519985   1.918   5.920   6.042 -0.9102 -2.1740  0.8383
  176SAPI   C1619986   1.927   5.727   6.295  0.2216 -0.2502 -0.2070
  176SAPI    H619987   1.892   5.791   6.378 -1.1485 -3.3763  1.8223
  176SAPI    O619988   1.815   5.660   6.246  0.2336  0.2009  0.0341
  176SAPI   HO619989   1.768   5.627   6.323 -2.2778  0.7741 -1.1673
  176SAPI   C1119990   2.024   5.620   6.347 -0.6348  0.5488  0.7089
  176SAPI    H119991   2.042   5.563   6.253  1.5489  1.2406  0.6558
  176SAPI     P19992   2.005   5.385   6.480 -0.1998  0.2675 -0.0167
  176SAPI   O1319993   2.057   5.315   6.364  0.6503  0.8957  0.7170
  176SAPI   O1419994   1.894   5.320   6.555 -0.3234  0.4736 -0.4498
  176SAPI   O1219995   1.958   5.537   6.448  0.3605 -0.5143  0.2024
  176SAPI   O1119996   2.125   5.417   6.578  0.1746  0.3300  0.5851
  176SAPI    C119997   2.106   5.500   6.692 -0.0319  0.4315 -0.5115
  176SAPI    HA19998   2.206   5.535   6.724  0.0128  0.6119 -0.8453
  176SAPI    HB19999   2.042   5.590   6.672  0.0736  0.2796 -1.6096
  176SAPI    C220000   2.056   5.417   6.821  0.0118  0.4918 -0.6086
  176SAPI    HS20001   1.961   5.370   6.786  1.2609 -3.0467  0.3305
  176SAPI   O2120002   2.041   5.509   6.934 -0.5725 -0.2038  0.0499
  176SAPI   C2120003   1.935   5.470   7.006 -0.1268 -0.8281  0.2602
  176SAPI   O2220004   1.858   5.385   6.971  0.3754 -0.2456 -0.1004
  176SAPI   C2220005   1.929   5.557   7.139  0.2110  0.4288  1.1031
  176SAPI   H2R20006   2.034   5.581   7.167  0.0259  1.4433  0.9645
  176SAPI   H2S20007   1.865   5.642   7.106 -0.4730 -1.4187 -2.8780
  176SAPI    C320008   2.154   5.301   6.851  0.9678  0.3737  0.1699
  176SAPI    HX20009   2.257   5.342   6.857  0.1584  2.9988 -2.0186
  176SAPI    HY20010   2.153   5.226   6.769 -2.0696 -2.3321  2.3842
  176SAPI   O3120011   2.124   5.234   6.978 -0.1944 -0.8497  0.5481
  176SAPI   C3120012   2.043   5.133   6.977  0.0552 -0.0325  0.7059
  176SAPI   O3220013   1.995   5.080   6.876  0.2203  0.1411 -0.6072
  176SAPI   C3220014   2.016   5.086   7.120  0.2749  0.1715  0.6430
  176SAPI   H2X20015   1.919   5.031   7.120 -0.2018  0.9834  0.5477
  176SAPI   H2Y20016   1.993   5.170   7.190  1.9012 -1.2449  3.0007
  176SAPI   C2320017   1.862   5.487   7.253 -0.6274 -0.3264 -0.1638
  176SAPI   H3R20018   1.929   5.400   7.265 -0.9577 -0.2539  3.0632
  176SAPI   H3S20019   1.765   5.444   7.219 -0.0663  0.9107 -3.7883
  176SAPI   C2420020   1.858   5.573   7.383 -0.1856  0.2375 -0.2155
  176SAPI   H4R20021   1.793   5.662   7.364 -1.2477 -0.7662 -1.4813
  176SAPI   H4S20022   1.963   5.594   7.413 -0.2781 -0.2199  0.4258
  176SAPI   C2520023   1.788   5.492   7.496 -0.0705  1.2772  0.3079
  176SAPI   H5R20024   1.685   5.462   7.471 -0.4988  3.1147 -0.3036
  176SAPI   C2620025   1.835   5.467   7.621 -0.4001  0.1680  0.3221
  176SAPI   H6R20026   1.778   5.406   7.691 -0.4165  1.7091  1.7085
  176SAPI   C2720027   1.970   5.505   7.677  0.2366 -0.0255  0.7915
  176SAPI   H7R20028   1.957   5.505   7.788 -1.2443 -0.4507  0.6405
  176SAPI   H7S20029   1.996   5.609   7.647  0.0106  0.0381  0.8089
  176SAPI   C2820030   2.078   5.410   7.635  0.3598 -0.4937  0.2021
  176SAPI   H8R20031   2.085   5.401   7.526  0.0129 -0.0773  0.1474
  176SAPI   C2920032   2.166   5.351   7.716 -0.1608 -0.0736  0.5794
  176SAPI   H9R20033   2.234   5.277   7.670  0.5716  0.1264  1.3222
  176SAPI  C21020034   2.163   5.351   7.865  0.6858 -0.1927  0.1764
  176SAPI  H10R20035   2.059   5.354   7.903  0.1315 -0.1768 -1.3093
  176SAPI  H10S20036   2.224   5.425   7.921  3.5391 -2.4981  0.3869
  176SAPI  C21120037   2.232   5.222   7.918  0.0211  0.1475 -1.4763
  176SAPI  H11R20038   2.269   5.150   7.843 -2.0075 -1.7811 -0.7199
  176SAPI  C21220039   2.240   5.192   8.049  0.1368 -0.8893 -0.5047
  176SAPI  H12R20040   2.288   5.103   8.092 -1.1651 -1.2309  0.2908
  176SAPI  C21320041   2.200   5.284   8.168  0.1171  0.9881  0.1706
  176SAPI  H13R20042   2.131   5.356   8.121 -1.1544 -0.4087 -0.1779
  176SAPI  H13S20043   2.290   5.324   8.218  0.6786 -0.9241  0.7962
  176SAPI  C21420044   2.118   5.207   8.268 -0.2386  0.1670 -0.6231
  176SAPI  H14R20045   2.098   5.100   8.253 -0.2741  0.2237 -0.9928
  176SAPI  C21520046   2.046   5.266   8.362  0.1095  0.0995 -0.5196
  176SAPI  H15R20047   2.013   5.201   8.444  0.3115 -1.1714 -1.4190
  176SAPI  C21620048   2.053   5.419   8.376 -0.5934 -0.1977  0.2876
  176SAPI  H16R20049   2.003   5.467   8.289  1.3961  0.7302 -0.3965
  176SAPI  H16S20050   2.157   5.456   8.375 -1.0287  1.0515 -0.3475
  176SAPI  C21720051   1.978   5.467   8.502 -0.5131  0.2203 -0.3120
  176SAPI  H17R20052   1.876   5.423   8.503 -0.8170  0.8166 -2.1843
  176SAPI  H17S20053   1.962   5.577   8.503 -1.3872  0.1385  1.9931
  176SAPI  C21820054   2.059   5.447   8.625 -1.0592 -0.1865 -0.2421
  176SAPI  H18R20055   2.160   5.492   8.618 -1.0064 -0.1582  0.6057
  176SAPI  H18S20056   2.078   5.338   8.637  1.3176 -0.2389 -3.3406
  176SAPI  C21920057   1.983   5.494   8.749 -0.0943  0.7981 -0.2461
  176SAPI  H19R20058   1.941   5.596   8.738 -0.5261  1.0961  2.9976
  176SAPI  H19S20059   2.056   5.492   8.833  0.2308  0.3224 -0.5328
  176SAPI  C22020060   1.872   5.403   8.796  0.8001 -0.8193 -0.7036
  176SAPI  H20R20061   1.838   5.426   8.899  2.0335 -1.7127 -0.0633
  176SAPI  H20S20062   1.909   5.298   8.792  0.2699 -1.0214 -0.3461
  176SAPI  H20T20063   1.790   5.398   8.721  0.7273  0.5533 -0.7264
  176SAPI   C3320064   2.110   4.989   7.185 -0.3351 -0.1840  0.7393
  176SAPI   H3X20065   2.216   5.018   7.168 -0.8323  1.4399  0.2692
  176SAPI   H3Y20066   2.092   4.897   7.125 -0.6662  0.2675  0.1444
  176SAPI   C3420067   2.075   4.969   7.328  0.3272  0.2489  0.0391
  176SAPI   H4X20068   2.114   4.868   7.354 -0.4194 -0.0267  0.1119
  176SAPI   H4Y20069   1.966   4.952   7.320  0.4943 -0.2931 -1.7037
  176SAPI   C3520070   2.108   5.063   7.438 -0.4195  0.1392  1.0268
  176SAPI   H5X20071   2.063   5.162   7.417 -1.2302 -0.6894 -1.4041
  176SAPI   H5Y20072   2.216   5.086   7.425 -0.8328  1.1363 -0.9632
  176SAPI   C3620073   2.084   5.019   7.582 -0.4006 -0.1068  0.5347
  176SAPI   H6X20074   1.980   4.978   7.580 -0.6838  0.4981 -2.7712
  176SAPI   H6Y20075   2.079   5.111   7.645  1.2687 -0.3669  1.0818
  176SAPI   C3720076   2.192   4.914   7.632  0.1752 -1.0000 -0.1771
  176SAPI   H7X20077   2.294   4.957   7.625 -1.0253  2.0967 -0.6671
  176SAPI   H7Y20078   2.184   4.822   7.571  0.6511 -2.1156  1.3981
  176SAPI   C3820079   2.162   4.875   7.776 -0.0169 -0.4576  0.1446
  176SAPI   H8X20080   2.075   4.806   7.784 -1.0681  0.4357 -2.3566
  176SAPI   H8Y20081   2.146   4.974   7.824  0.0606 -0.2232 -0.3067
  176SAPI   C3920082   2.280   4.802   7.842  0.4888 -0.2868 -0.2031
  176SAPI   H9X20083   2.364   4.874   7.834 -0.0555  0.8383  2.7840
  176SAPI   H9Y20084   2.301   4.707   7.788  0.2741 -0.4886  0.0654
  176SAPI  C31020085   2.237   4.778   7.989 -0.5445 -0.0839 -0.5363
  176SAPI  H10X20086   2.143   4.719   7.980 -1.2862  1.0065 -0.0200
  176SAPI  H10Y20087   2.226   4.881   8.028  1.6208 -0.0779  0.1885
  176SAPI  C31120088   2.343   4.695   8.069 -0.3747 -0.6906 -0.5044
  176SAPI  H11X20089   2.442   4.746   8.070 -2.3170  3.5791  1.8177
  176SAPI  H11Y20090   2.358   4.593   8.030 -1.9219 -1.1260 -0.0391
  176SAPI  C31220091   2.311   4.676   8.216 -0.9350  0.2238  0.2860
  176SAPI  H12X20092   2.218   4.616   8.227 -1.5693  1.0573 -0.3891
  176SAPI  H12Y20093   2.282   4.777   8.253 -2.3380  0.0867 -0.3566
  176SAPI  C31320094   2.438   4.624   8.299  0.9612  0.8713  0.4634
  176SAPI  H13X20095   2.504   4.714   8.299  0.2900  1.3702  0.2735
  176SAPI  H13Y20096   2.483   4.533   8.254 -0.0236  0.4488  0.3042
  176SAPI  C31420097   2.401   4.579   8.434 -0.4155 -0.0418  0.4213
  176SAPI  H14X20098   2.498   4.546   8.476  1.0440  0.3879 -2.3788
  176SAPI  H14Y20099   2.330   4.495   8.421 -0.6053  0.3839 -1.6124
  176SAPI  C31520100   2.328   4.680   8.526  0.4364 -0.0861  0.1485
  176SAPI  H15X20101   2.297   4.767   8.465  1.1909  1.6956  2.1974
  176SAPI  H15Y20102   2.400   4.729   8.595  0.7299 -1.0049  0.5175
  176SAPI  C31620103   2.208   4.615   8.585  0.0643  1.1036 -0.0570
  176SAPI  H16X20104   2.231   4.515   8.628  1.2563  1.0183 -0.8584
  176SAPI  H16Y20105   2.144   4.595   8.497  2.4295  3.5269 -2.5494
  176SAPI  C31720106   2.117   4.696   8.686  0.0328 -0.3837 -0.1394
  176SAPI  H17X20107   2.063   4.782   8.641  1.5929  1.3556  1.1904
  176SAPI  H17Y20108   2.189   4.751   8.750  0.3744 -1.2116  0.2002
  176SAPI  C31820109   2.023   4.619   8.782 -0.5669  0.7252  0.3711
  176SAPI  H18X20110   1.963   4.546   8.724  2.7954 -2.3531  0.4547
  176SAPI  H18Y20111   1.961   4.700   8.827  0.3810  0.4514  2.2728
  176SAPI  H18Z20112   2.079   4.570   8.864  0.4722  0.5630 -0.4173
  177SLPC     N20113   0.855   1.472  11.246 -0.0130  0.8817 -0.7559
  177SLPC   C1320114   0.717   1.453  11.187  0.2246 -0.7542  0.2775
  177SLPC  H13A20115   0.643   1.400  11.245 -2.0529  1.0782 -0.7862
  177SLPC  H13B20116   0.670   1.550  11.180  1.2570 -0.2858 -0.3798
  177SLPC  H13C20117   0.730   1.414  11.087 -0.3317  0.4401 -0.2741
  177SLPC   C1420118   0.914   1.335  11.252  0.0776  0.2367 -0.4824
  177SLPC  H14A20119   1.016   1.333  11.285 -0.3434 -0.0692  0.8759
  177SLPC  H14B20120   0.852   1.275  11.318 -2.6797  0.6284 -2.5179
  177SLPC  H14C20121   0.897   1.291  11.154 -1.3450 -1.0368  0.2860
  177SLPC   C1520122   0.862   1.539  11.377 -0.0286 -0.6518 -0.2429
  177SLPC  H15A20123   0.968   1.550  11.397  0.0802 -2.5219  0.4195
  177SLPC  H15B20124   0.814   1.634  11.395 -0.7103 -1.0314 -0.0201
  177SLPC  H15C20125   0.815   1.481  11.455 -0.3306  2.2222  1.8801
  177SLPC   C1220126   0.943   1.539  11.143  0.2736 -0.4357 -0.1053
  177SLPC  H12A20127   1.037   1.565  11.188  0.1345 -1.6183  0.8894
  177SLPC  H12B20128   0.896   1.633  11.117  0.4413 -1.0539 -2.9982
  177SLPC   C1120129   0.972   1.482  11.002  0.2955  0.5143 -0.0950
  177SLPC  H11A20130   1.050   1.405  11.022 -0.1076  0.4643  1.3788
  177SLPC  H11B20131   1.024   1.564  10.947  0.4826  0.9561  0.7287
  177SLPC     P20132   0.800   1.490  10.812  0.6168 -0.0583  0.1301
  177SLPC   O1320133   0.703   1.393  10.763 -0.5791  0.6999 -0.2288
  177SLPC   O1420134   0.753   1.620  10.868 -0.2081 -0.7429  0.2667
  177SLPC   O1220135   0.865   1.415  10.938 -0.2938 -0.8711  0.1995
  177SLPC   O1120136   0.915   1.521  10.708 -0.0772  0.4343  0.4216
  177SLPC    C120137   1.005   1.421  10.679 -0.3440  0.1210  1.1389
  177SLPC    HA20138   1.093   1.435  10.745 -1.2402 -1.6484  2.8280
  177SLPC    HB20139   0.968   1.319  10.703 -1.7781 -0.1051 -1.6099
  177SLPC    C220140   1.055   1.422  10.531  0.0013 -0.2562 -0.6327
  177SLPC    HS20141   1.089   1.525  10.511  0.5338 -0.0821  1.0208
  177SLPC   O2120142   0.940   1.367  10.458  0.5589  0.3375 -0.3612
  177SLPC   C2120143   0.931   1.432  10.340 -0.1910  0.8599  0.3573
  177SLPC   O2220144   0.996   1.529  10.312 -0.6546  0.4504  0.6438
  177SLPC   C2220145   0.836   1.360  10.243 -0.3536  0.0351  0.2498
  177SLPC   H2R20146   0.886   1.271  10.201 -0.4282 -0.3650  0.9962
  177SLPC   H2S20147   0.750   1.326  10.305 -0.9023 -1.3769 -1.1998
  177SLPC    C320148   1.176   1.337  10.520  0.4484  0.4640 -0.2358
  177SLPC    HX20149   1.160   1.231  10.551  1.0212  0.2763 -0.5559
  177SLPC    HY20150   1.259   1.372  10.586 -0.2778  1.7674  0.0174
  177SLPC   O3120151   1.226   1.314  10.396  0.1047  0.1841 -0.1629
  177SLPC   C3120152   1.305   1.415  10.342  0.0628 -0.0479 -0.0915
  177SLPC   O3220153   1.330   1.519  10.399  0.2043  0.0634 -0.9654
  177SLPC   C3220154   1.353   1.373  10.202  0.2543  0.0020 -0.7305
  177SLPC   H2X20155   1.270   1.325  10.146  0.2190 -0.3185 -0.4091
  177SLPC   H2Y20156   1.428   1.292  10.214  0.0247  0.0436  1.3351
  177SLPC   C2320157   0.795   1.454  10.128  0.4673  0.1278 -0.4259
  177SLPC   H3R20158   0.743   1.540  10.175 -1.2363 -0.6709 -0.7930
  177SLPC   H3S20159   0.716   1.399  10.073  0.3169  0.9977 -1.1145
  177SLPC   C2420160   0.900   1.506  10.024 -0.5057  0.0558 -0.2390
  177SLPC   H4R20161   0.958   1.584  10.078 -1.4192  0.3793  0.2954
  177SLPC   H4S20162   0.859   1.558   9.934  0.5821  0.6816 -0.3941
  177SLPC   C2520163   0.982   1.392   9.969  0.2290  0.1226 -0.4222
  177SLPC   H5R20164   1.025   1.322  10.045 -1.4385 -0.7833 -0.2736
  177SLPC   H5S20165   1.071   1.438   9.920 -0.4410 -0.1718 -1.9555
  177SLPC   C2620166   0.907   1.307   9.863 -0.5856  0.7152 -0.1541
  177SLPC   H6R20167   0.819   1.355   9.815  0.2385  1.4527 -0.9573
  177SLPC   H6S20168   0.857   1.218   9.907 -0.4047  0.3207 -0.7395
  177SLPC   C2720169   1.008   1.260   9.752  0.5016 -0.2675 -0.5193
  177SLPC   H7R20170   1.084   1.196   9.801 -1.9275 -0.5959  3.2177
  177SLPC   H7S20171   1.064   1.346   9.708 -0.4123 -0.4520 -2.1217
  177SLPC   C2820172   0.927   1.192   9.650  0.0237  0.5531 -0.1083
  177SLPC   H8R20173   0.854   1.266   9.613  1.2649  0.8553 -2.0981
  177SLPC   H8S20174   0.883   1.101   9.696  0.0938  1.7872  2.5797
  177SLPC   C2920175   1.001   1.151   9.525 -0.2307  0.6350 -0.5221
  177SLPC   H9R20176   1.092   1.093   9.547  0.3960  1.9283  0.4225
  177SLPC  C21020177   0.969   1.180   9.399  0.1413  0.7165  0.3866
  177SLPC  H10R20178   1.027   1.135   9.317 -0.0880 -0.5582  0.9052
  177SLPC  C21120179   0.845   1.260   9.357  0.2396  0.2906 -0.6147
  177SLPC  H11R20180   0.765   1.187   9.333  0.5635 -0.0555 -0.6555
  177SLPC  H11S20181   0.809   1.328   9.437  1.6084  0.0077  0.2600
  177SLPC  C21220182   0.859   1.360   9.244  0.5309 -0.0478  0.1928
  177SLPC  H12R20183   0.945   1.427   9.261  0.2264  0.1200  1.1131
  177SLPC  C21320184   0.777   1.379   9.138 -0.6225 -0.6483 -0.2673
  177SLPC  H13R20185   0.813   1.447   9.059 -0.4617 -1.4168 -0.8795
  177SLPC  C21420186   0.646   1.306   9.106 -0.3378 -1.1804 -0.0774
  177SLPC  H14R20187   0.571   1.385   9.084  1.0596  0.3019  0.3158
  177SLPC  H14S20188   0.610   1.255   9.198 -0.6862  1.2786  1.2535
  177SLPC  C21520189   0.648   1.206   8.990 -0.9833 -0.4204 -0.9580
  177SLPC  H15R20190   0.545   1.165   8.991 -1.6369  1.1123  0.0029
  177SLPC  H15S20191   0.720   1.123   9.008 -0.0532  0.7068  0.8534
  177SLPC  C21620192   0.664   1.275   8.852  0.6358  0.0215  0.6709
  177SLPC  H16R20193   0.770   1.306   8.850  1.1518 -1.6525  0.8089
  177SLPC  H16S20194   0.606   1.370   8.849  1.0470  0.2762 -2.6479
  177SLPC  C21720195   0.625   1.184   8.735  0.0985 -0.4284 -0.1611
  177SLPC  H17R20196   0.631   1.235   8.637  1.2950  0.6676  0.4463
  177SLPC  H17S20197   0.521   1.144   8.733 -0.4281  0.9218 -1.6537
  177SLPC  C21820198   0.734   1.075   8.736  0.1984 -0.6276  0.1156
  177SLPC  H18R20199   0.724   1.012   8.644  2.8557 -1.9648  0.6507
  177SLPC  H18S20200   0.722   1.008   8.824 -0.3379 -2.8082 -1.5040
  177SLPC  H18T20201   0.832   1.125   8.750 -1.1396  2.0508  0.6321
  177SLPC   C3320202   1.424   1.488  10.134  0.6159 -0.3471 -0.4025
  177SLPC   H3X20203   1.498   1.534  10.203  1.2575 -0.7358 -0.8161
  177SLPC   H3Y20204   1.351   1.569  10.114  0.0973 -0.4068  1.1691
  177SLPC   C3420205   1.496   1.453  10.003  0.5256 -0.6568  0.0361
  177SLPC   H4X20206   1.554   1.360  10.018 -1.2441 -2.3835 -2.8330
  177SLPC   H4Y20207   1.561   1.540   9.982  0.6131 -0.5765  0.6323
  177SLPC   C3520208   1.394   1.438   9.888  0.4854  0.4698 -0.1586
  177SLPC   H5X20209   1.359   1.543   9.876  0.6067  0.3979 -1.2530
  177SLPC   H5Y20210   1.304   1.374   9.903  0.0123  0.4901 -2.4999
  177SLPC   C3620211   1.457   1.397   9.751  0.3198 -0.4882  0.0313
  177SLPC   H6X20212   1.463   1.286   9.750  1.2245 -0.4612  1.2770
  177SLPC   H6Y20213   1.559   1.440   9.743  1.2505 -2.5467  0.1893
  177SLPC   C3720214   1.365   1.441   9.633 -0.2995  0.3224  0.4726
  177SLPC   H7X20215   1.363   1.552   9.631  1.7536  0.3974 -1.4696
  177SLPC   H7Y20216   1.262   1.404   9.651 -0.6702  0.1465 -1.7152
  177SLPC   C3820217   1.414   1.380   9.496 -0.0939 -0.3246  0.8928
  177SLPC   H8X20218   1.433   1.271   9.504 -0.0326 -0.6074 -2.1550
  177SLPC   H8Y20219   1.516   1.425   9.488 -0.5938  1.4302  3.2293
  177SLPC   C3920220   1.327   1.403   9.371 -0.4113 -0.5292  0.0272
  177SLPC   H9X20221   1.307   1.510   9.348  2.8870  0.1121 -0.3191
  177SLPC   H9Y20222   1.231   1.358   9.405 -0.0608 -0.5738  1.0064
  177SLPC  C31020223   1.371   1.338   9.246 -0.0612 -0.9588 -0.6011
  177SLPC  H10X20224   1.280   1.314   9.187 -2.6755  1.3110  2.1650
  177SLPC  H10Y20225   1.422   1.245   9.278  3.3481  1.1325  0.6303
  177SLPC  C31120226   1.464   1.421   9.154 -0.4016  0.4642 -0.4108
  177SLPC  H11X20227   1.553   1.464   9.205 -0.1797  0.3756 -0.7240
  177SLPC  H11Y20228   1.409   1.513   9.125 -0.8543  0.7277  1.1877
  177SLPC  C31220229   1.505   1.349   9.023  0.2465  0.5255  0.0616
  177SLPC  H12X20230   1.412   1.336   8.963  0.0696  0.5699  0.3252
  177SLPC  H12Y20231   1.552   1.251   9.047 -2.7536 -1.0688 -0.1394
  177SLPC  C31320232   1.607   1.421   8.935  0.2144 -0.1277  0.6407
  177SLPC  H13X20233   1.577   1.524   8.906  1.4537 -0.0754 -0.5768
  177SLPC  H13Y20234   1.648   1.367   8.847  2.2044  3.2395 -0.7153
  177SLPC  C31420235   1.737   1.449   9.017  0.0051 -0.3924 -0.4564
  177SLPC  H14X20236   1.757   1.363   9.085 -0.8803 -0.6818 -0.5535
  177SLPC  H14Y20237   1.731   1.538   9.083 -1.1325 -1.0453  0.3579
  177SLPC  C31520238   1.862   1.476   8.927  0.2341  0.5335  0.0703
  177SLPC  H15X20239   1.845   1.570   8.870  0.1539  0.0019 -0.8030
  177SLPC  H15Y20240   1.874   1.398   8.849 -0.2662  1.7335 -1.2611
  177SLPC  C31620241   1.996   1.504   9.002  0.1618  0.2685 -0.2621
  177SLPC  H16X20242   1.984   1.605   9.048  1.0186  0.6339 -0.8059
  177SLPC  H16Y20243   2.071   1.507   8.920 -0.9749  0.8769 -1.3153
  177SLPC  C31720244   2.033   1.405   9.109 -0.4307  0.7835 -0.2894
  177SLPC  H17X20245   2.049   1.304   9.064 -0.6360  1.3617 -1.6948
  177SLPC  H17Y20246   1.955   1.392   9.188 -0.8484 -0.5756 -0.8870
  177SLPC  C31820247   2.162   1.443   9.188  0.3225 -0.1036  0.5924
  177SLPC  H18X20248   2.242   1.431   9.112 -1.2369  2.3047 -1.6013
  177SLPC  H18Y20249   2.197   1.372   9.266  2.6954  0.5761  0.2337
  177SLPC  H18Z20250   2.158   1.546   9.230 -3.7936  0.1847 -0.1444
  178SLPC     N20251   2.852   4.098  11.453  0.5648 -0.9882 -0.0878
  178SLPC   C1320252   2.784   4.060  11.576  0.7004  0.9906 -0.0243
  178SLPC  H13A20253   2.680   4.086  11.576  0.1922 -0.9104  0.1263
  178SLPC  H13B20254   2.792   3.953  11.590  2.5340  1.3028  1.8418
  178SLPC  H13C20255   2.830   4.099  11.666 -0.6305  0.2487  1.0099
  178SLPC   C1420256   3.002   4.101  11.478  0.0018 -0.7593  1.0280
  178SLPC  H14A20257   3.012   4.172  11.559 -2.2685  0.4831  0.3250
  178SLPC  H14B20258   3.042   4.007  11.512  2.7151 -0.0019  0.1988
  178SLPC  H14C20259   3.045   4.130  11.383  1.4613  2.9133  2.6035
  178SLPC   C1520260   2.788   4.227  11.410  0.5054 -0.3341 -0.9280
  178SLPC  H15A20261   2.812   4.307  11.479 -0.3936 -0.9285  0.1092
  178SLPC  H15B20262   2.819   4.258  11.311  0.5608  0.5232 -0.6567
  178SLPC  H15C20263   2.680   4.221  11.405  0.3481 -0.7152  1.3904
  178SLPC   C1220264   2.818   4.001  11.330  0.2686  0.3009 -0.3128
  178SLPC  H12A20265   2.727   4.038  11.286 -0.1965  1.8298  1.7854
  178SLPC  H12B20266   2.776   3.910  11.371 -1.3573  0.3327 -1.7809
  178SLPC   C1120267   2.922   3.984  11.220  0.0229  0.1782  0.5676
  178SLPC  H11A20268   2.880   3.914  11.144 -0.7276  2.0239 -0.8044
  178SLPC  H11B20269   3.008   3.922  11.254 -0.1348 -0.9185 -0.9182
  178SLPC     P20270   2.923   4.195  11.051  0.2618  0.4099 -0.1717
  178SLPC   O1320271   2.779   4.219  11.063  0.3406 -0.2003 -0.3318
  178SLPC   O1420272   3.011   4.314  11.040 -0.1785  0.0508 -0.0220
  178SLPC   O1220273   2.970   4.113  11.178  0.2573  0.6650  0.2001
  178SLPC   O1120274   2.947   4.085  10.938 -0.2039 -0.2221 -0.1945
  178SLPC    C120275   3.078   4.045  10.905  0.1134 -0.1945 -0.5827
  178SLPC    HA20276   3.151   4.049  10.988  1.7879  1.6846 -2.0423
  178SLPC    HB20277   3.071   3.938  10.877 -2.0019  0.0585 -1.2054
  178SLPC    C220278   3.142   4.115  10.783 -0.0378  0.2833  0.2425
  178SLPC    HS20279   3.140   4.226  10.788  0.0615  0.4660 -2.4506
  178SLPC   O2120280   3.053   4.073  10.681 -0.3035  0.3505 -0.1899
  178SLPC   C2120281   2.978   4.154  10.619 -0.6300  0.0575  0.0827
  178SLPC   O2220282   2.974   4.272  10.650  0.1414 -0.5879 -0.1154
  178SLPC   C2220283   2.893   4.073  10.513  0.8502 -0.4433  0.2831
  178SLPC   H2R20284   2.963   4.027  10.439 -0.7813 -3.1411  0.2811
  178SLPC   H2S20285   2.830   3.996  10.562 -1.3764  0.1116 -1.5425
  178SLPC    C320286   3.291   4.069  10.747 -0.0679  0.8944 -0.2477
  178SLPC    HX20287   3.298   3.959  10.735  2.0841  1.0823 -1.1840
  178SLPC    HY20288   3.350   4.086  10.839  1.0639  1.5766 -1.0743
  178SLPC   O3120289   3.338   4.152  10.638  0.0667  0.1590  0.1069
  178SLPC   C3120290   3.471   4.183  10.645  0.0152  0.1943 -0.8508
  178SLPC   O3220291   3.539   4.173  10.744  0.2903 -0.5531  0.0815
  178SLPC   C3220292   3.516   4.236  10.510  0.3759  0.2530  0.0113
  178SLPC   H2X20293   3.621   4.271  10.519  0.2850  0.5368 -0.0284
  178SLPC   H2Y20294   3.448   4.321  10.485  0.4468  1.8066  4.2980
  178SLPC   C2320295   2.803   4.178  10.441  0.0700  0.6405  0.2722
  178SLPC   H3R20296   2.739   4.240  10.507  1.0476 -0.7986  2.7294
  178SLPC   H3S20297   2.731   4.120  10.379  1.1084 -0.5841  0.1677
  178SLPC   C2420298   2.875   4.279  10.350  0.1870 -0.2325 -0.6022
  178SLPC   H4R20299   2.952   4.324  10.416 -0.0803 -2.2365  1.2129
  178SLPC   H4S20300   2.798   4.356  10.328  0.2066 -0.2114 -0.5976
  178SLPC   C2520301   2.927   4.210  10.226 -0.5062  0.3070  0.1251
  178SLPC   H5R20302   2.837   4.160  10.183  0.2369 -0.0542 -1.0668
  178SLPC   H5S20303   3.008   4.135  10.242  0.7280  1.4099 -0.7302
  178SLPC   C2620304   2.973   4.308  10.116 -0.2729 -0.5862  0.6215
  178SLPC   H6R20305   3.046   4.385  10.151 -0.3303  0.3358 -1.1427
  178SLPC   H6S20306   2.890   4.368  10.073 -1.1305 -1.9004  0.3817
  178SLPC   C2720307   3.035   4.240  10.001 -0.0437 -0.2817  0.3183
  178SLPC   H7R20308   2.956   4.175   9.958 -0.5121  0.5197 -0.0651
  178SLPC   H7S20309   3.121   4.179  10.035 -0.2172 -0.6865  0.0301
  178SLPC   C2820310   3.076   4.320   9.878 -0.9597 -0.5888  0.2629
  178SLPC   H8R20311   2.984   4.348   9.821 -0.2281  0.5955 -0.3701
  178SLPC   H8S20312   3.138   4.259   9.809 -0.8089 -0.4803  0.3025
  178SLPC   C2920313   3.159   4.436   9.915  0.6003  0.1222  0.1584
  178SLPC   H9R20314   3.227   4.400   9.993 -0.3678 -0.4110  0.7751
  178SLPC  C21020315   3.143   4.563   9.874 -0.1993 -0.1583 -0.1384
  178SLPC  H10R20316   3.212   4.643   9.905 -0.9939  0.1433  0.9157
  178SLPC  C21120317   3.052   4.629   9.779  0.0195  0.0858  0.2292
  178SLPC  H11R20318   3.027   4.730   9.818 -0.8146 -0.0096 -0.0393
  178SLPC  H11S20319   2.958   4.572   9.768  0.2437 -0.0851 -0.9592
  178SLPC  C21220320   3.114   4.620   9.637 -0.3790 -0.7085 -0.1700
  178SLPC  H12R20321   3.222   4.620   9.617 -0.8396 -0.5541 -2.9554
  178SLPC  C21320322   3.043   4.597   9.527  0.2534  0.7001  0.3191
  178SLPC  H13R20323   3.098   4.605   9.432 -1.4052  0.3732 -0.7245
  178SLPC  C21420324   2.891   4.590   9.515  0.2484 -0.0037  0.5035
  178SLPC  H14R20325   2.852   4.637   9.422 -0.7375 -2.0897 -0.1957
  178SLPC  H14S20326   2.854   4.645   9.604  0.9790 -0.4322  1.0859
  178SLPC  C21520327   2.838   4.440   9.513 -0.0710  0.5120  0.0276
  178SLPC  H15R20328   2.874   4.379   9.599  1.6684 -1.8795 -2.2207
  178SLPC  H15S20329   2.882   4.396   9.421 -0.8252  0.9593 -0.5570
  178SLPC  C21620330   2.689   4.424   9.509  0.6131  0.0522 -0.5691
  178SLPC  H16R20331   2.652   4.456   9.609  0.4358  2.3453 -1.3124
  178SLPC  H16S20332   2.664   4.316   9.504 -1.0834  0.3175  1.0954
  178SLPC  C21720333   2.612   4.507   9.406 -0.4431 -0.0975  0.3308
  178SLPC  H17R20334   2.664   4.496   9.308 -2.3917 -0.1455 -0.7521
  178SLPC  H17S20335   2.614   4.616   9.428 -0.6641  0.2717 -1.3218
  178SLPC  C21820336   2.471   4.455   9.374 -0.4251  0.0154  0.0392
  178SLPC  H18R20337   2.413   4.506   9.294  0.9116  1.0123 -0.3406
  178SLPC  H18S20338   2.423   4.457   9.474  2.0895  0.0549  1.3278
  178SLPC  H18T20339   2.479   4.348   9.342  3.8021  0.6302 -1.6787
  178SLPC   C3320340   3.514   4.125  10.397  0.1837 -0.0706 -1.2195
  178SLPC   H3X20341   3.418   4.070  10.408  1.2520 -1.6310  1.3052
  178SLPC   H3Y20342   3.597   4.053  10.413 -0.0309  0.0218  0.4931
  178SLPC   C3420343   3.520   4.176  10.255 -0.1443  0.4295  0.0555
  178SLPC   H4X20344   3.618   4.223  10.231  0.3788 -0.1626  0.9542
  178SLPC   H4Y20345   3.441   4.254  10.254  0.8304  1.6429  3.0820
  178SLPC   C3520346   3.494   4.058  10.153 -0.1577 -0.1491 -0.3202
  178SLPC   H5X20347   3.404   4.012  10.200 -0.5906  0.4808 -0.5221
  178SLPC   H5Y20348   3.584   3.994  10.163  0.2054  0.1431 -1.5418
  178SLPC   C3620349   3.472   4.089  10.008 -0.2115  0.8658  0.4519
  178SLPC   H6X20350   3.424   4.188   9.991  0.1258  0.9563  0.0046
  178SLPC   H6Y20351   3.391   4.020   9.977 -1.2915  1.7718  1.1697
  178SLPC   C3720352   3.598   4.070   9.919 -0.9153 -0.0781  0.2800
  178SLPC   H7X20353   3.660   3.981   9.946  1.1459  1.6367  1.5499
  178SLPC   H7Y20354   3.671   4.151   9.941  0.3043 -1.4423  1.5778
  178SLPC   C3820355   3.558   4.057   9.768 -0.5747 -0.0597 -0.4228
  178SLPC   H8X20356   3.518   4.158   9.745  2.9060  1.5676  0.0682
  178SLPC   H8Y20357   3.468   3.991   9.765  0.5657 -1.9897  2.6116
  178SLPC   C3920358   3.678   4.016   9.677 -0.3025 -0.2882  0.1677
  178SLPC   H9X20359   3.681   3.905   9.691 -2.0240 -0.4200 -0.2219
  178SLPC   H9Y20360   3.774   4.061   9.708  0.1270 -0.3250 -1.0734
  178SLPC  C31020361   3.642   4.049   9.530 -0.2715  0.1878 -0.2655
  178SLPC  H10X20362   3.626   4.157   9.514  3.0690  1.0418  1.4491
  178SLPC  H10Y20363   3.548   3.992   9.510  0.8093 -1.4216 -0.9935
  178SLPC  C31120364   3.758   4.019   9.442  0.0343  0.5003 -0.0157
  178SLPC  H11X20365   3.798   3.915   9.444  0.0297  0.4985 -0.0355
  178SLPC  H11Y20366   3.837   4.086   9.484 -0.7959  0.7015  1.2953
  178SLPC  C31220367   3.723   4.073   9.301 -0.3261  0.1864 -0.3401
  178SLPC  H12X20368   3.817   4.106   9.251 -0.3133  0.2652 -0.2625
  178SLPC  H12Y20369   3.660   4.164   9.311 -0.3528  0.0232  1.1248
  178SLPC  C31320370   3.660   3.957   9.219  0.0005  0.1343  0.2014
  178SLPC  H13X20371   3.567   3.947   9.279  1.7502  1.3591  3.3604
  178SLPC  H13Y20372   3.720   3.867   9.240 -1.0540 -0.2286  1.8979
  178SLPC  C31420373   3.632   3.968   9.069 -0.3046 -0.7273 -0.1323
  178SLPC  H14X20374   3.712   3.985   8.994  0.2122  3.1517  1.0404
  178SLPC  H14Y20375   3.556   4.050   9.059  0.3877 -0.1140 -0.4862
  178SLPC  C31520376   3.557   3.836   9.034 -0.0273 -0.3153  0.3240
  178SLPC  H15X20377   3.601   3.737   9.060 -0.2922 -0.2982  0.8452
  178SLPC  H15Y20378   3.461   3.840   9.089 -1.3526  1.7365 -1.9339
  178SLPC  C31620379   3.520   3.832   8.889 -0.4658  0.9456 -0.3991
  178SLPC  H16X20380   3.621   3.843   8.843  0.2196  1.9622  1.2413
  178SLPC  H16Y20381   3.470   3.929   8.872  0.7321  1.7442  0.4543
  178SLPC  C31720382   3.442   3.713   8.844 -0.0022 -0.0121  0.5768
  178SLPC  H17X20383   3.438   3.637   8.925 -2.2426  0.7300  1.2271
  178SLPC  H17Y20384   3.489   3.654   8.763 -2.7160 -2.1253  0.4057
  178SLPC  C31820385   3.296   3.737   8.799 -0.6507  0.1231 -0.1378
  178SLPC  H18X20386   3.245   3.638   8.794  0.3769 -0.6077  2.2691
  178SLPC  H18Y20387   3.283   3.791   8.703  1.9319 -1.3021 -1.3903
  178SLPC  H18Z20388   3.245   3.797   8.878 -0.8461 -0.1886 -0.0258
  179SLPC     N20389   3.151   6.728  10.333 -0.0534 -0.1168  0.2300
  179SLPC   C1320390   3.125   6.581  10.336 -0.0344 -0.2481  0.7541
  179SLPC  H13A20391   3.177   6.542  10.423 -0.2463  0.0046  0.9975
  179SLPC  H13B20392   3.024   6.547  10.322 -0.0285  0.8384 -2.8023
  179SLPC  H13C20393   3.173   6.543  10.247  1.7221  1.5091  0.8626
  179SLPC   C1420394   3.072   6.783  10.448  0.1229  0.2784 -0.6650
  179SLPC  H14A20395   3.106   6.746  10.543  0.4970 -1.0060 -1.2689
  179SLPC  H14B20396   3.076   6.889  10.429 -0.6793  0.2437 -1.0608
  179SLPC  H14C20397   2.971   6.746  10.438  0.6850 -1.2722 -1.0111
  179SLPC   C1520398   3.115   6.788  10.202 -0.1180  0.6318  1.2372
  179SLPC  H15A20399   3.021   6.747  10.169  1.4062 -0.9605 -1.5326
  179SLPC  H15B20400   3.120   6.893  10.180  3.1174  0.5116  0.8664
  179SLPC  H15C20401   3.184   6.750  10.128 -0.2182  1.9125  0.4517
  179SLPC   C1220402   3.297   6.742  10.342  0.6826 -0.2492 -0.2093
  179SLPC  H12A20403   3.328   6.738  10.446 -0.1908 -1.1371  0.0414
  179SLPC  H12B20404   3.332   6.842  10.323  3.1188 -0.4635  2.3660
  179SLPC   C1120405   3.394   6.658  10.254 -0.3591  0.5172 -0.4064
  179SLPC  H11A20406   3.495   6.698  10.278 -1.2819  1.5953  2.0400
  179SLPC  H11B20407   3.383   6.673  10.145 -0.1642  2.1837 -0.2228
  179SLPC     P20408   3.481   6.484  10.427 -0.0642  0.0872 -0.4681
  179SLPC   O1320409   3.453   6.585  10.529 -0.8615 -0.6824 -0.3067
  179SLPC   O1420410   3.448   6.348  10.475 -0.0146  1.0367 -0.0024
  179SLPC   O1220411   3.404   6.519  10.292  0.4752  0.7315 -0.5274
  179SLPC   O1120412   3.631   6.488  10.393 -0.6776  1.0038  0.0894
  179SLPC    C120413   3.694   6.492  10.269  0.4379 -0.0201  0.0337
  179SLPC    HA20414   3.631   6.546  10.195  0.9816 -0.6225 -0.8974
  179SLPC    HB20415   3.782   6.556  10.291  0.3855 -0.2420  0.9163
  179SLPC    C220416   3.737   6.353  10.220 -0.3842 -0.2904  0.1967
  179SLPC    HS20417   3.820   6.369  10.148  1.0526 -3.1024  1.1097
  179SLPC   O2120418   3.628   6.282  10.151 -0.2678  0.0607  0.1157
  179SLPC   C2120419   3.610   6.311  10.020 -0.0718 -0.5521 -0.0779
  179SLPC   O2220420   3.691   6.356   9.945  0.1881 -0.3135 -0.3002
  179SLPC   C2220421   3.475   6.264   9.980  0.1276 -0.6882 -0.2953
  179SLPC   H2R20422   3.499   6.163   9.938 -0.2263 -0.3915 -1.2261
  179SLPC   H2S20423   3.412   6.251  10.071 -0.2149 -0.9695 -0.5722
  179SLPC    C320424   3.803   6.255  10.318  0.3765 -0.6137  0.0840
  179SLPC    HX20425   3.735   6.220  10.399  0.5022 -0.8943  0.0728
  179SLPC    HY20426   3.883   6.307  10.374  1.2054  0.0676 -1.6632
  179SLPC   O3120427   3.869   6.144  10.248  0.6027  0.5077 -0.5342
  179SLPC   C3120428   3.800   6.038  10.218  0.0573  0.0713  0.2728
  179SLPC   O3220429   3.681   6.014  10.248 -0.3210  0.5299  0.1189
  179SLPC   C3220430   3.888   5.945  10.141 -0.1482  0.3143 -0.1311
  179SLPC   H2X20431   3.843   5.843  10.144  0.2817  0.1298  2.1693
  179SLPC   H2Y20432   3.979   5.942  10.204 -0.6419  1.9414  0.7116
  179SLPC   C2320433   3.410   6.348   9.866  0.1354 -0.3244  0.4192
  179SLPC   H3R20434   3.332   6.289   9.813 -1.1847  1.5641  0.1766
  179SLPC   H3S20435   3.486   6.383   9.794  1.0931  1.6682  2.2660
  179SLPC   C2420436   3.334   6.472   9.929 -0.2013  0.4642 -0.1913
  179SLPC   H4R20437   3.396   6.511  10.013  0.2943  1.1025 -0.8413
  179SLPC   H4S20438   3.247   6.427   9.981  1.4056 -2.6959 -0.0029
  179SLPC   C2520439   3.279   6.577   9.826 -0.3652 -0.0328  0.0611
  179SLPC   H5R20440   3.207   6.648   9.873 -0.1151  0.4803 -0.3258
  179SLPC   H5S20441   3.214   6.527   9.752 -0.4685 -2.5975  1.7396
  179SLPC   C2620442   3.383   6.673   9.778 -0.0981  0.7523  0.6839
  179SLPC   H6R20443   3.464   6.626   9.718 -0.9113  1.9698 -1.4910
  179SLPC   H6S20444   3.428   6.731   9.861  0.5160  2.4155 -0.7520
  179SLPC   C2720445   3.332   6.777   9.682  1.1551  0.4779  0.9228
  179SLPC   H7R20446   3.402   6.860   9.659 -0.1032  0.7612 -2.3569
  179SLPC   H7S20447   3.246   6.827   9.732 -1.0501 -0.7847 -1.3920
  179SLPC   C2820448   3.283   6.715   9.548  0.1481  0.7057  0.0980
  179SLPC   H8R20449   3.201   6.647   9.580 -0.3420  1.6380  0.8901
  179SLPC   H8S20450   3.368   6.652   9.516 -1.6775 -1.0943 -1.5381
  179SLPC   C2920451   3.238   6.814   9.453  0.7108 -0.0152  0.1581
  179SLPC   H9R20452   3.167   6.884   9.500  0.8237 -0.1654  0.5543
  179SLPC  C21020453   3.291   6.832   9.331  0.1853 -0.0240  0.4187
  179SLPC  H10R20454   3.227   6.897   9.270 -1.6800 -2.5935 -0.5742
  179SLPC  C21120455   3.408   6.758   9.256 -0.0374  0.2042 -0.4039
  179SLPC  H11R20456   3.425   6.789   9.151 -3.7267  1.0619 -0.8945
  179SLPC  H11S20457   3.399   6.647   9.261  0.9653  0.1093 -0.5507
  179SLPC  C21220458   3.545   6.779   9.314  0.4075 -0.3938 -0.0634
  179SLPC  H12R20459   3.549   6.868   9.378  0.6392  0.4889 -1.2654
  179SLPC  C21320460   3.655   6.698   9.296 -0.2699 -0.1864  0.7563
  179SLPC  H13R20461   3.752   6.729   9.337 -1.0460  1.6230  1.3253
  179SLPC  C21420462   3.663   6.566   9.215  0.1076 -0.0528 -0.0815
  179SLPC  H14R20463   3.565   6.547   9.166  1.1183  0.0594 -2.2413
  179SLPC  H14S20464   3.680   6.482   9.285  0.1417 -0.8791 -1.0640
  179SLPC  C21520465   3.776   6.562   9.113  0.6466 -0.0145 -0.5709
  179SLPC  H15R20466   3.868   6.548   9.172 -0.0605 -1.9263  0.1605
  179SLPC  H15S20467   3.778   6.665   9.070 -0.6503  0.2489 -0.0514
  179SLPC  C21620468   3.780   6.449   9.020  0.5098  0.8041  0.3355
  179SLPC  H16R20469   3.771   6.369   9.096 -5.0429  2.7026  2.1821
  179SLPC  H16S20470   3.881   6.447   8.974  1.2150  0.2077  1.8613
  179SLPC  C21720471   3.654   6.428   8.929  0.1900  0.1842  0.0486
  179SLPC  H17R20472   3.637   6.522   8.872  1.6800  1.9021  2.2312
  179SLPC  H17S20473   3.574   6.419   9.006  1.0546 -0.3746  0.9067
  179SLPC  C21820474   3.664   6.306   8.836 -0.0418  0.0393 -0.1493
  179SLPC  H18R20475   3.669   6.209   8.889  1.3920 -1.0463 -2.1504
  179SLPC  H18S20476   3.762   6.302   8.783  0.1519 -0.0181  0.2103
  179SLPC  H18T20477   3.583   6.305   8.761  0.0301 -0.0010 -0.2262
  179SLPC   C3320478   3.924   5.992   9.996  0.1407 -0.5778 -0.1450
  179SLPC   H3X20479   3.998   6.074   9.999  0.6336 -1.0462  1.2547
  179SLPC   H3Y20480   3.842   6.038   9.936  0.2542 -1.2629 -0.8390
  179SLPC   C3420481   3.993   5.884   9.920  0.7509 -0.0047  0.1040
  179SLPC   H4X20482   3.928   5.796   9.901 -0.4850  1.1973 -1.5436
  179SLPC   H4Y20483   4.079   5.849   9.981 -0.8466 -1.3967  1.6757
  179SLPC   C3520484   4.055   5.932   9.788  0.4063 -0.2591 -0.5907
  179SLPC   H5X20485   4.113   5.847   9.745  0.9055 -0.0146 -0.4107
  179SLPC   H5Y20486   4.137   6.001   9.816  0.4858  0.0834 -1.6111
  179SLPC   C3620487   3.955   5.989   9.684  0.4773  0.4593  0.9760
  179SLPC   H6X20488   3.914   6.079   9.734  0.8942  1.8805 -1.0773
  179SLPC   H6Y20489   3.867   5.924   9.663  1.8618 -1.3761  0.5661
  179SLPC   C3720490   4.026   6.023   9.549  0.1275 -0.3409 -0.5236
  179SLPC   H7X20491   4.074   5.935   9.503 -1.7888 -0.9969 -1.4019
  179SLPC   H7Y20492   4.095   6.106   9.576 -1.1801  0.1114  1.7625
  179SLPC   C3820493   3.927   6.063   9.443  0.6662  0.0256  0.4938
  179SLPC   H8X20494   3.848   6.135   9.474  0.0917 -0.2731 -0.2535
  179SLPC   H8Y20495   3.864   5.975   9.419  0.2248  0.1704  1.1204
  179SLPC   C3920496   4.001   6.110   9.316 -0.3467  0.2686  0.4745
  179SLPC   H9X20497   4.086   6.041   9.300 -1.5720 -1.3212  0.6201
  179SLPC   H9Y20498   4.040   6.213   9.332 -0.0655  0.2000  0.2221
  179SLPC  C31020499   3.922   6.109   9.184 -0.1631 -0.4453 -0.5605
  179SLPC  H10X20500   3.942   6.204   9.130 -0.3303 -1.1290 -1.8791
  179SLPC  H10Y20501   3.813   6.108   9.204 -0.1168 -1.4638 -0.2963
  179SLPC  C31120502   3.966   5.992   9.099  0.1159 -0.2327 -0.4221
  179SLPC  H11X20503   3.886   5.967   9.025  1.1065 -1.0555 -1.2481
  179SLPC  H11Y20504   3.978   5.905   9.166 -0.6659  0.5953  0.8197
  179SLPC  C31220505   4.096   6.001   9.013 -0.4900 -0.3170  0.4356
  179SLPC  H12X20506   4.182   5.955   9.067 -0.1127 -0.2268 -0.0767
  179SLPC  H12Y20507   4.122   6.109   9.003  0.8602 -0.5027  1.6477
  179SLPC  C31320508   4.084   5.939   8.872 -0.0908  0.6386  0.3157
  179SLPC  H13X20509   3.995   5.984   8.822 -0.8358 -1.0631  0.0449
  179SLPC  H13Y20510   4.058   5.834   8.897 -2.1150  0.5469 -1.7825
  179SLPC  C31420511   4.213   5.951   8.786  0.1895  0.0922 -0.0375
  179SLPC  H14X20512   4.247   6.053   8.814 -1.8449  0.7439  0.2656
  179SLPC  H14Y20513   4.188   5.946   8.678  2.2378 -1.2628 -0.5080
  179SLPC  C31520514   4.326   5.842   8.805  0.5763 -0.2271 -0.6194
  179SLPC  H15X20515   4.293   5.740   8.775  0.5745  0.1457 -1.9607
  179SLPC  H15Y20516   4.348   5.844   8.914  0.7378 -2.1581 -0.5760
  179SLPC  C31620517   4.462   5.879   8.732  0.2508  0.6903  0.3969
  179SLPC  H16X20518   4.465   5.989   8.747 -0.9324  0.9702 -1.1521
  179SLPC  H16Y20519   4.458   5.871   8.621  0.3183  0.6966  0.3937
  179SLPC  C31720520   4.585   5.805   8.786  0.0019 -0.2363 -0.1689
  179SLPC  H17X20521   4.599   5.833   8.893 -0.7023 -1.8199  0.3598
  179SLPC  H17Y20522   4.675   5.844   8.734  0.6928 -0.6839  0.6582
  179SLPC  C31820523   4.583   5.660   8.780  0.0815  0.2805  0.6517
  179SLPC  H18X20524   4.676   5.620   8.824  0.4675  1.7813  1.2571
  179SLPC  H18Y20525   4.585   5.618   8.678 -0.9795  0.1509  0.6683
  179SLPC  H18Z20526   4.500   5.621   8.844 -1.3574  0.3171 -1.1100
  180SLPC     N20527   5.962   5.380  11.102  0.2967  0.3351 -0.2752
  180SLPC   C1320528   5.906   5.254  11.164 -0.1470  0.2715  0.3823
  180SLPC  H13A20529   5.854   5.291  11.251 -0.1982  0.3921  0.3016
  180SLPC  H13B20530   5.835   5.199  11.105 -1.1270 -0.9815  2.6191
  180SLPC  H13C20531   5.985   5.184  11.186 -1.1798 -1.1469 -0.2969
  180SLPC   C1420532   6.062   5.435  11.203 -0.0440 -0.2489 -0.3976
  180SLPC  H14A20533   6.150   5.373  11.199  0.9776  1.0841  0.4145
  180SLPC  H14B20534   6.092   5.533  11.169  0.2065  0.0359  0.6129
  180SLPC  H14C20535   6.021   5.451  11.302 -0.4178  0.1205 -0.6100
  180SLPC   C1520536   5.845   5.468  11.086  0.3371  0.0246 -0.1622
  180SLPC  H15A20537   5.784   5.477  11.175  2.8858  2.8224  1.4889
  180SLPC  H15B20538   5.869   5.571  11.064 -1.8766  1.2094  2.3429
  180SLPC  H15C20539   5.779   5.435  11.008 -2.3261  4.0688  0.0440
  180SLPC   C1220540   6.027   5.344  10.969  0.5890  0.3550  0.8972
  180SLPC  H12A20541   6.114   5.284  10.991 -0.3716 -1.6433 -0.5099
  180SLPC  H12B20542   6.074   5.431  10.924  1.5798 -0.7973 -0.3864
  180SLPC   C1120543   5.957   5.261  10.856 -0.3715  0.6913  0.6584
  180SLPC  H11A20544   5.931   5.172  10.917  0.8542  0.7374  1.2757
  180SLPC  H11B20545   6.024   5.231  10.773 -1.3777 -3.4031  1.1247
  180SLPC     P20546   5.843   5.442  10.694  0.1282  0.2201  0.0814
  180SLPC   O1320547   5.707   5.495  10.674 -0.2438 -0.1581  0.3315
  180SLPC   O1420548   5.947   5.544  10.719 -0.5028 -0.2932 -0.4599
  180SLPC   O1220549   5.841   5.323  10.801  0.6035  0.1171 -0.0287
  180SLPC   O1120550   5.884   5.361  10.562  0.1771 -0.1013 -0.6494
  180SLPC    C120551   5.797   5.252  10.523 -0.4846 -0.8573 -0.5918
  180SLPC    HA20552   5.835   5.156  10.564 -0.2373 -0.5984 -0.2111
  180SLPC    HB20553   5.694   5.269  10.563 -0.4573 -2.0755  0.0664
  180SLPC    C220554   5.779   5.244  10.373  0.6302 -0.0774  0.0849
  180SLPC    HS20555   5.697   5.172  10.349 -0.5436  0.7150  1.5122
  180SLPC   O2120556   5.902   5.200  10.320  0.6566  0.1756 -0.0610
  180SLPC   C2120557   5.933   5.075  10.336  0.1452  0.4512 -0.3666
  180SLPC   O2220558   5.877   4.992  10.401  0.3555  0.2360 -0.2363
  180SLPC   C2220559   6.064   5.051  10.253  0.3388 -0.7978 -0.4316
  180SLPC   H2R20560   6.067   5.130  10.174  1.0756  0.7103  1.0373
  180SLPC   H2S20561   6.159   5.060  10.310  1.4912  0.9649 -2.4810
  180SLPC    C320562   5.738   5.374  10.311  0.5002 -0.0518  0.3622
  180SLPC    HX20563   5.819   5.450  10.307 -1.1967  1.8689 -3.1915
  180SLPC    HY20564   5.654   5.406  10.376  0.5203  1.9929 -0.5549
  180SLPC   O3120565   5.705   5.356  10.171 -0.0061  0.1549  0.1496
  180SLPC   C3120566   5.642   5.461  10.129 -0.1383  0.0839  0.6967
  180SLPC   O3220567   5.627   5.567  10.184 -0.8298 -0.5093  0.1499
  180SLPC   C3220568   5.600   5.434   9.977  0.0119  0.2356 -0.1358
  180SLPC   H2X20569   5.574   5.326   9.971  2.3333 -0.3480 -0.7647
  180SLPC   H2Y20570   5.687   5.442   9.909 -0.6545  0.9665 -0.9215
  180SLPC   C2320571   6.067   4.912  10.180 -0.0926 -0.5206 -0.3635
  180SLPC   H3R20572   5.959   4.889  10.165 -1.3555  3.0661  1.9506
  180SLPC   H3S20573   6.117   4.826  10.230  2.4213 -0.2106 -2.2000
  180SLPC   C2420574   6.128   4.936  10.044 -0.1858 -0.3777 -1.0488
  180SLPC   H4R20575   6.234   4.969  10.042  0.3129 -1.9342 -0.9807
  180SLPC   H4S20576   6.077   5.021   9.993 -0.5972 -1.7406 -3.0076
  180SLPC   C2520577   6.112   4.827   9.938  0.0544  0.0187  0.4812
  180SLPC   H5R20578   6.009   4.788   9.931 -0.1509  0.4334  1.0992
  180SLPC   H5S20579   6.177   4.743   9.970 -0.3957 -0.4851  0.0816
  180SLPC   C2620580   6.153   4.872   9.797  0.2948  0.4030 -0.4714
  180SLPC   H6R20581   6.260   4.903   9.802  0.2746  1.0947 -3.0739
  180SLPC   H6S20582   6.079   4.949   9.764  1.1487  0.3451 -2.6703
  180SLPC   C2720583   6.140   4.749   9.703 -0.1705  0.6487  0.5979
  180SLPC   H7R20584   6.034   4.720   9.719 -0.2391  1.3733  1.5100
  180SLPC   H7S20585   6.202   4.662   9.735 -1.0454  0.2918  1.3445
  180SLPC   C2820586   6.186   4.792   9.559  0.3034  0.5229 -0.5116
  180SLPC   H8R20587   6.294   4.819   9.565  0.8114 -1.3467 -0.5858
  180SLPC   H8S20588   6.133   4.889   9.547  1.6188  1.2336 -0.7959
  180SLPC   C2920589   6.157   4.684   9.455 -0.6304  0.0971 -0.0847
  180SLPC   H9R20590   6.116   4.591   9.497  0.3304 -0.8763 -1.2207
  180SLPC  C21020591   6.176   4.696   9.320  0.2994  0.5777 -0.3038
  180SLPC  H10R20592   6.159   4.608   9.256  0.6818 -2.4951  3.4576
  180SLPC  C21120593   6.218   4.832   9.264 -0.7615 -0.3628  0.2529
  180SLPC  H11R20594   6.328   4.836   9.244 -0.5121  1.0409  1.7174
  180SLPC  H11S20595   6.202   4.910   9.341  1.7420 -0.4797  0.9754
  180SLPC  C21220596   6.141   4.862   9.141  0.0289 -0.5602 -0.1182
  180SLPC  H12R20597   6.056   4.930   9.155  0.2674  0.2686 -2.2185
  180SLPC  C21320598   6.176   4.818   9.013 -0.0453 -0.5128 -0.5751
  180SLPC  H13R20599   6.111   4.841   8.926 -0.0110 -0.3759 -0.5654
  180SLPC  C21420600   6.287   4.732   8.971  0.2141  0.5386  0.5072
  180SLPC  H14R20601   6.352   4.710   9.059 -0.6018  2.4071  1.6341
  180SLPC  H14S20602   6.343   4.791   8.896 -0.7326 -0.0180 -0.6881
  180SLPC  C21520603   6.233   4.601   8.928 -0.2727 -0.1849  0.1177
  180SLPC  H15R20604   6.182   4.554   9.015  0.6812 -0.5696  0.4892
  180SLPC  H15S20605   6.316   4.533   8.897 -1.3521 -0.8035 -1.5740
  180SLPC  C21620606   6.132   4.600   8.808 -0.6363  0.1153 -0.0479
  180SLPC  H16R20607   6.043   4.663   8.830 -0.9026 -0.6472  1.1193
  180SLPC  H16S20608   6.084   4.499   8.811 -0.1747 -0.0923  2.3298
  180SLPC  C21720609   6.203   4.622   8.678 -0.3915 -0.3446 -0.4418
  180SLPC  H17R20610   6.281   4.542   8.674 -0.1922 -0.1878  0.1947
  180SLPC  H17S20611   6.259   4.717   8.691 -0.0484 -0.9490  3.6003
  180SLPC  C21820612   6.123   4.603   8.550 -0.1812 -0.0966  0.4020
  180SLPC  H18R20613   6.176   4.638   8.460  1.2910 -0.9928  0.8881
  180SLPC  H18S20614   6.025   4.655   8.559 -0.0079  0.1854  0.7112
  180SLPC  H18T20615   6.097   4.497   8.528  0.1178 -0.2746  0.8809
  180SLPC   C3320616   5.485   5.525   9.936  0.5121  0.5492  0.0768
  180SLPC   H3X20617   5.501   5.539   9.827 -0.1187 -0.9792 -0.2462
  180SLPC   H3Y20618   5.496   5.627   9.980  0.7933  0.0435  1.2221
  180SLPC   C3420619   5.350   5.470   9.962  0.7612 -0.5240 -0.0985
  180SLPC   H4X20620   5.351   5.413  10.057 -0.3751  1.0389  0.9039
  180SLPC   H4Y20621   5.326   5.392   9.887  1.2190 -0.2817 -0.5031
  180SLPC   C3520622   5.230   5.569   9.965 -0.1705  0.1792 -0.3213
  180SLPC   H5X20623   5.263   5.653  10.030 -0.3744 -0.0548  0.0921
  180SLPC   H5Y20624   5.142   5.517  10.008  0.6852 -1.4001 -0.3831
  180SLPC   C3620625   5.199   5.631   9.832  0.3696  0.3546 -0.4143
  180SLPC   H6X20626   5.285   5.700   9.818 -1.9044  3.3023 -0.9116
  180SLPC   H6Y20627   5.107   5.691   9.849 -0.8402 -1.9196  1.7694
  180SLPC   C3720628   5.176   5.530   9.713  0.2758 -0.8364 -0.8018
  180SLPC   H7X20629   5.083   5.472   9.727  1.3661 -2.5239 -0.2364
  180SLPC   H7Y20630   5.256   5.453   9.713  1.4091  0.3014 -0.1921
  180SLPC   C3820631   5.158   5.601   9.581 -0.6770  0.9581 -0.0299
  180SLPC   H8X20632   5.184   5.530   9.499 -0.5495 -0.5920  1.3046
  180SLPC   H8Y20633   5.227   5.688   9.569  1.1428 -0.3314  0.7026
  180SLPC   C3920634   5.022   5.652   9.561  0.3181 -0.0632 -0.0250
  180SLPC   H9X20635   4.985   5.701   9.653  1.4169  2.2865 -0.7769
  180SLPC   H9Y20636   4.954   5.564   9.548 -3.2451  2.6023 -1.1252
  180SLPC  C31020637   4.994   5.758   9.447 -0.6036 -0.1756  0.0882
  180SLPC  H10X20638   5.053   5.852   9.456 -2.4960  0.9510  1.5793
  180SLPC  H10Y20639   4.887   5.788   9.454 -0.6981 -0.6521  0.8802
  180SLPC  C31120640   5.024   5.711   9.305  0.1602 -0.4203  0.3109
  180SLPC  H11X20641   5.133   5.695   9.293  0.1062 -0.6912  0.1856
  180SLPC  H11Y20642   4.999   5.794   9.236 -1.5848  0.4307  1.8753
  180SLPC  C31220643   4.940   5.588   9.254 -0.5622 -0.5377  0.2042
  180SLPC  H12X20644   4.832   5.609   9.272 -0.7779  0.3343 -1.7971
  180SLPC  H12Y20645   4.973   5.503   9.317  0.4419 -0.0157  0.4109
  180SLPC  C31320646   4.967   5.551   9.109  0.1318  0.7641 -0.8424
  180SLPC  H13X20647   5.069   5.507   9.109 -0.1161  0.1232  0.8873
  180SLPC  H13Y20648   4.963   5.641   9.044 -0.8736  1.2544 -0.1277
  180SLPC  C31420649   4.867   5.447   9.059 -0.2091  0.2942 -0.5502
  180SLPC  H14X20650   4.763   5.470   9.091  0.0364  0.8680 -0.1504
  180SLPC  H14Y20651   4.888   5.352   9.112 -0.9092  0.2547 -0.3294
  180SLPC  C31520652   4.887   5.426   8.907 -0.2447  0.3644  0.4066
  180SLPC  H15X20653   4.994   5.400   8.893 -0.4785 -0.1325 -0.5274
  180SLPC  H15Y20654   4.871   5.525   8.859 -0.2374  0.2495  0.1654
  180SLPC  C31620655   4.802   5.314   8.850 -1.0414  0.1019 -0.3205
  180SLPC  H16X20656   4.691   5.323   8.854 -0.8990  5.2126 -1.2414
  180SLPC  H16Y20657   4.837   5.222   8.901  0.1739  0.6050 -0.2222
  180SLPC  C31720658   4.842   5.284   8.701  0.4485 -0.1203  0.0761
  180SLPC  H17X20659   4.860   5.388   8.665  0.0059  0.7833  2.2737
  180SLPC  H17Y20660   4.749   5.250   8.652 -0.1984  2.4850 -0.6578
  180SLPC  C31820661   4.962   5.195   8.680  0.0110  0.2256 -0.3234
  180SLPC  H18X20662   4.981   5.156   8.578  1.2933 -1.9701  0.6894
  180SLPC  H18Y20663   4.941   5.102   8.736  0.6685 -0.0668 -0.5485
  180SLPC  H18Z20664   5.046   5.254   8.722 -0.0654  0.2828 -0.2511
  181SLPC     N20665   4.143   1.408  10.928  0.2133  0.0316  0.2679
  181SLPC   C1320666   4.249   1.323  10.987  0.1013  0.0689  0.0074
  181SLPC  H13A20667   4.264   1.378  11.079 -0.6255  1.0424 -0.4443
  181SLPC  H13B20668   4.216   1.226  11.020 -2.5968  0.7410 -0.4909
  181SLPC  H13C20669   4.340   1.321  10.929 -0.8119 -0.5654 -1.4602
  181SLPC   C1420670   4.044   1.416  11.044  0.1316  0.4617 -0.0349
  181SLPC  H14A20671   3.997   1.513  11.045  4.3317  2.7290 -0.0982
  181SLPC  H14B20672   3.975   1.333  11.039  2.0133 -1.3284  1.6842
  181SLPC  H14C20673   4.096   1.403  11.137 -0.5381 -0.9108  0.1717
  181SLPC   C1520674   4.068   1.342  10.814 -0.4314 -0.4480  0.3398
  181SLPC  H15A20675   4.129   1.347  10.724 -0.1292  2.1572  0.6116
  181SLPC  H15B20676   4.038   1.241  10.834  2.6046 -1.3684  0.6604
  181SLPC  H15C20677   3.978   1.392  10.781  0.5839  0.6244 -0.9469
  181SLPC   C1220678   4.196   1.540  10.892 -0.1569 -0.2938  0.3003
  181SLPC  H12A20679   4.281   1.523  10.828 -1.2916 -1.8146 -0.8549
  181SLPC  H12B20680   4.239   1.588  10.979  1.4584 -3.6070  1.5107
  181SLPC   C1120681   4.096   1.636  10.817 -0.0945  0.8071  0.5263
  181SLPC  H11A20682   4.092   1.597  10.713  0.2680  0.1760  0.7345
  181SLPC  H11B20683   4.129   1.741  10.826 -0.2038  0.8167  0.8054
  181SLPC     P20684   3.856   1.728  10.889 -0.1101 -0.1801  0.1096
  181SLPC   O1320685   3.733   1.651  10.925  0.0697 -0.3557 -0.1795
  181SLPC   O1420686   3.901   1.837  10.981  0.2879  0.7118  0.2884
  181SLPC   O1220687   3.969   1.626  10.871 -0.8223 -0.0831 -0.1534
  181SLPC   O1120688   3.844   1.788  10.744 -0.4816  0.1921 -0.0652
  181SLPC    C120689   3.888   1.921  10.707  0.9161 -0.2217 -0.4375
  181SLPC    HA20690   3.844   2.003  10.769 -0.0100 -1.2375  0.2842
  181SLPC    HB20691   3.997   1.938  10.697  0.9527  0.6516  1.0964
  181SLPC    C220692   3.816   1.956  10.573  0.6541  0.1244  0.5254
  181SLPC    HS20693   3.710   1.931  10.594  1.3606 -3.7655  0.2239
  181SLPC   O2120694   3.868   1.881  10.462  0.2967 -0.2115  0.0958
  181SLPC   C2120695   3.767   1.827  10.382  0.9656 -0.5373 -0.4075
  181SLPC   O2220696   3.647   1.848  10.404 -0.5230  0.4126  0.1104
  181SLPC   C2220697   3.829   1.757  10.259  0.1192  0.2596 -0.0075
  181SLPC   H2R20698   3.874   1.660  10.288  0.1049 -0.2458 -1.5444
  181SLPC   H2S20699   3.746   1.739  10.186  2.0782  1.0511 -2.5985
  181SLPC    C320700   3.830   2.108  10.542  0.0369 -0.0785 -0.5519
  181SLPC    HX20701   3.932   2.150  10.556 -0.1879 -0.1431  1.6502
  181SLPC    HY20702   3.777   2.155  10.627  2.6897  0.6791  0.7928
  181SLPC   O3120703   3.774   2.139  10.415 -0.0361 -0.2964  0.0575
  181SLPC   C3120704   3.647   2.179  10.417 -0.0710 -0.6660  0.4118
  181SLPC   O3220705   3.570   2.171  10.511 -0.0132  0.8131 -0.2891
  181SLPC   C3220706   3.603   2.212  10.270 -0.2213  0.5252  0.1569
  181SLPC   H2X20707   3.597   2.321  10.249  0.0804  0.2999 -1.1781
  181SLPC   H2Y20708   3.497   2.179  10.261  0.2898 -0.6949 -2.4190
  181SLPC   C2320709   3.925   1.849  10.185 -1.0251 -0.7450  0.1026
  181SLPC   H3R20710   3.993   1.886  10.265 -2.1230 -2.1174  1.7171
  181SLPC   H3S20711   3.882   1.937  10.131 -0.2223  0.8613  1.9485
  181SLPC   C2420712   4.012   1.775  10.080 -0.8523 -0.3852  0.4242
  181SLPC   H4R20713   3.947   1.771   9.990 -1.1246  0.7087  0.5548
  181SLPC   H4S20714   4.052   1.678  10.117  1.6850 -0.1575 -1.4512
  181SLPC   C2520715   4.141   1.847  10.033 -0.2903 -0.1470  0.4225
  181SLPC   H5R20716   4.225   1.839  10.106 -0.5106  1.1023  0.8263
  181SLPC   H5S20717   4.111   1.953  10.023  1.6935  0.4326  0.2157
  181SLPC   C2620718   4.183   1.796   9.892  0.1759 -0.3460 -0.7494
  181SLPC   H6R20719   4.259   1.865   9.849 -0.1949  0.8579  0.4494
  181SLPC   H6S20720   4.095   1.796   9.824 -0.1984 -4.2302 -0.4817
  181SLPC   C2720721   4.244   1.658   9.905  0.4436 -0.0583  0.4775
  181SLPC   H7R20722   4.164   1.590   9.940  0.5711 -0.4797 -0.0426
  181SLPC   H7S20723   4.328   1.666   9.977  1.3863  1.2500 -0.6995
  181SLPC   C2820724   4.277   1.608   9.766  0.2511  0.0975  0.4131
  181SLPC   H8R20725   4.186   1.594   9.703  0.3343  0.8101  0.1313
  181SLPC   H8S20726   4.310   1.506   9.798 -1.1069 -0.2830  0.6628
  181SLPC   C2920727   4.395   1.663   9.707  0.0160  0.4231  0.4911
  181SLPC   H9R20728   4.480   1.678   9.775  0.7425  1.4121 -0.5890
  181SLPC  C21020729   4.412   1.697   9.580  0.7840  0.1065 -0.3643
  181SLPC  H10R20730   4.508   1.737   9.545  0.7631  0.7258  0.2784
  181SLPC  C21120731   4.306   1.682   9.470  0.3126  0.1487 -0.0427
  181SLPC  H11R20732   4.287   1.783   9.430  0.2473  0.2793  0.3129
  181SLPC  H11S20733   4.207   1.642   9.500 -0.7085  1.0323 -2.0831
  181SLPC  C21220734   4.353   1.587   9.366  0.0103 -0.0367  0.2432
  181SLPC  H12R20735   4.366   1.480   9.388 -0.2084 -0.1816 -0.3167
  181SLPC  C21320736   4.394   1.627   9.242  0.5822 -0.2062  0.2389
  181SLPC  H13R20737   4.436   1.560   9.165  1.0990  1.4569 -0.9720
  181SLPC  C21420738   4.375   1.764   9.182 -0.2554 -0.2836  0.8361
  181SLPC  H14R20739   4.434   1.782   9.090  0.8523  0.5541  1.6846
  181SLPC  H14S20740   4.404   1.844   9.253  0.0473 -0.8913  1.4151
  181SLPC  C21520741   4.224   1.784   9.138 -0.1213 -0.5780 -0.0042
  181SLPC  H15R20742   4.154   1.726   9.201 -0.5043  0.1367  0.2312
  181SLPC  H15S20743   4.213   1.733   9.040  0.2760 -1.7166  0.5124
  181SLPC  C21620744   4.192   1.935   9.133  0.0442 -0.2262  0.1492
  181SLPC  H16R20745   4.243   1.981   9.220  0.1303  1.3519 -0.7015
  181SLPC  H16S20746   4.083   1.952   9.145  0.2216 -0.0192  1.7377
  181SLPC  C21720747   4.239   2.003   9.003  0.5362 -0.1495  0.3143
  181SLPC  H17R20748   4.187   1.958   8.915  0.3066  0.7904 -0.0401
  181SLPC  H17S20749   4.347   1.985   8.983  0.9612  2.1547  0.2796
  181SLPC  C21820750   4.206   2.152   8.982 -0.7896  0.0346  0.8108
  181SLPC  H18R20751   4.098   2.177   8.983 -0.3849  2.1899 -1.1705
  181SLPC  H18S20752   4.254   2.182   8.886 -1.1533  0.7543  0.8520
  181SLPC  H18T20753   4.241   2.218   9.064  0.3233 -1.0522  1.2552
  181SLPC   C3320754   3.673   2.144  10.147 -0.7118 -0.9750 -0.6820
  181SLPC   H3X20755   3.702   2.039  10.172  0.9654 -0.7919 -1.7222
  181SLPC   H3Y20756   3.759   2.213  10.134 -1.9898  1.1787  1.5158
  181SLPC   C3420757   3.587   2.137  10.018 -0.0863 -0.1766 -0.3919
  181SLPC   H4X20758   3.558   2.241   9.994 -0.3500  0.6131  2.9006
  181SLPC   H4Y20759   3.495   2.078  10.040  0.1534  0.2954  2.1571
  181SLPC   C3520760   3.673   2.074   9.909 -0.7080  0.3372 -0.6655
  181SLPC   H5X20761   3.603   2.062   9.823 -0.4277 -1.1428 -0.7033
  181SLPC   H5Y20762   3.710   1.974   9.938  0.7620  0.5567 -1.6632
  181SLPC   C3620763   3.795   2.154   9.871  0.0183  0.2315  0.2386
  181SLPC   H6X20764   3.870   2.162   9.953  0.6437  1.8753 -0.4386
  181SLPC   H6Y20765   3.754   2.253   9.842 -0.0610  1.2645  3.4629
  181SLPC   C3720766   3.880   2.092   9.755 -0.0087 -0.8751 -0.2312
  181SLPC   H7X20767   3.816   2.075   9.666  1.9119 -3.2628 -1.2764
  181SLPC   H7Y20768   3.928   1.994   9.775  0.4599 -0.6978 -0.4708
  181SLPC   C3820769   3.996   2.182   9.715 -0.0606 -0.1122 -0.0242
  181SLPC   H8X20770   4.063   2.217   9.796  0.8401  1.8534 -1.5105
  181SLPC   H8Y20771   3.945   2.272   9.674 -0.7100 -0.2933  0.3826
  181SLPC   C3920772   4.085   2.130   9.594  0.5400  0.4089 -0.1391
  181SLPC   H9X20773   4.021   2.106   9.506 -0.2215 -0.8727  0.7211
  181SLPC   H9Y20774   4.131   2.033   9.622 -0.0920  0.1652  0.0881
  181SLPC  C31020775   4.207   2.229   9.580  0.5627 -0.5174 -0.0897
  181SLPC  H10X20776   4.292   2.212   9.650  1.2348  1.7872 -0.2588
  181SLPC  H10Y20777   4.165   2.332   9.579 -0.1605 -0.7989 -1.1837
  181SLPC  C31120778   4.266   2.228   9.438 -0.5561 -0.7355 -0.2996
  181SLPC  H11X20779   4.178   2.247   9.372 -0.7258 -1.5178 -0.3112
  181SLPC  H11Y20780   4.297   2.129   9.397  0.4376 -0.6542  0.2294
  181SLPC  C31220781   4.366   2.343   9.408  0.1793  0.5294 -0.1069
  181SLPC  H12X20782   4.468   2.315   9.443  0.8048  1.5847 -0.9926
  181SLPC  H12Y20783   4.330   2.426   9.473 -4.8176 -2.3797  1.3118
  181SLPC  C31320784   4.376   2.392   9.259 -0.3702  0.8663 -0.3511
  181SLPC  H13X20785   4.361   2.299   9.201 -0.5085  0.7473 -0.1270
  181SLPC  H13Y20786   4.474   2.439   9.236 -0.1573  0.6322  0.0546
  181SLPC  C31420787   4.267   2.484   9.208  0.3617  0.0192  0.2837
  181SLPC  H14X20788   4.279   2.580   9.263  0.7451  1.3129 -1.9356
  181SLPC  H14Y20789   4.170   2.438   9.237 -0.9078  1.5857 -1.2608
  181SLPC  C31520790   4.264   2.515   9.061  0.4145  0.1243  0.1801
  181SLPC  H15X20791   4.164   2.510   9.013 -1.6385 -0.2934  4.0377
  181SLPC  H15Y20792   4.340   2.446   9.019  0.6522  1.5040 -1.7640
  181SLPC  C31620793   4.299   2.665   9.040 -0.1940 -0.1852 -0.6637
  181SLPC  H16X20794   4.390   2.704   9.090 -0.7989  2.5990 -1.6056
  181SLPC  H16Y20795   4.211   2.719   9.083  0.1113  0.6920 -1.1265
  181SLPC  C31720796   4.312   2.693   8.890 -0.2473 -0.1250  0.1128
  181SLPC  H17X20797   4.385   2.620   8.850 -0.0363  0.4755 -0.6398
  181SLPC  H17Y20798   4.352   2.797   8.881  0.4240 -0.4929 -1.4967
  181SLPC  C31820799   4.186   2.671   8.803 -0.2046  0.7920 -0.2480
  181SLPC  H18X20800   4.155   2.564   8.810  0.7510  0.4319 -1.1173
  181SLPC  H18Y20801   4.196   2.708   8.699  0.3449  0.1386 -0.4379
  181SLPC  H18Z20802   4.105   2.728   8.853 -0.2089 -0.3722  1.1309
  182SLPC     N20803   0.146   3.633  10.949 -0.2765 -0.5345 -0.3211
  182SLPC   C1320804   0.026   3.546  10.921 -0.0613  0.1659  0.3382
  182SLPC  H13A20805  -0.033   3.585  10.839 -1.9924 -1.5970  0.7955
  182SLPC  H13B20806   0.051   3.447  10.886 -1.8554 -0.3572  0.4295
  182SLPC  H13C20807  -0.046   3.546  11.001 -1.3514  0.8443 -0.7618
  182SLPC   C1420808   0.231   3.549  11.043 -0.2578 -0.6808 -0.2958
  182SLPC  H14A20809   0.305   3.602  11.101 -0.3848 -1.4574  0.6210
  182SLPC  H14B20810   0.166   3.495  11.111  0.4517 -0.9637  0.1681
  182SLPC  H14C20811   0.284   3.482  10.976  0.9473  1.0953 -1.1927
  182SLPC   C1520812   0.103   3.749  11.033 -0.4743 -0.0889 -0.1603
  182SLPC  H15A20813   0.187   3.810  11.063 -1.4636  1.1025  0.2741
  182SLPC  H15B20814   0.032   3.811  10.980  0.1279  0.5970 -0.1678
  182SLPC  H15C20815   0.058   3.707  11.122 -0.5119 -1.5952 -0.8576
  182SLPC   C1220816   0.218   3.687  10.826  0.0352 -0.7032 -0.2554
  182SLPC  H12A20817   0.306   3.743  10.854 -0.4530  0.4854 -1.0468
  182SLPC  H12B20818   0.149   3.753  10.776 -0.8680 -1.7821 -0.4624
  182SLPC   C1120819   0.256   3.573  10.718  0.5840 -0.4847  0.3592
  182SLPC  H11A20820   0.305   3.630  10.636  1.2187  1.1245  1.7938
  182SLPC  H11B20821   0.159   3.536  10.677 -0.8932  2.8136  0.5220
  182SLPC     P20822   0.496   3.485  10.752  0.2325 -0.0120 -0.2013
  182SLPC   O1320823   0.533   3.625  10.790 -0.4958 -0.0341 -0.2175
  182SLPC   O1420824   0.557   3.373  10.832  0.3712 -0.2531  0.8414
  182SLPC   O1220825   0.338   3.477  10.774 -0.1623 -0.0922  0.1679
  182SLPC   O1120826   0.513   3.465  10.599 -0.2684 -0.4875  0.6596
  182SLPC    C120827   0.459   3.352  10.524  0.0330 -0.5961  0.2116
  182SLPC    HA20828   0.349   3.361  10.534 -0.1120 -0.9158 -0.9281
  182SLPC    HB20829   0.485   3.359  10.416  0.5206  1.3324  0.4119
  182SLPC    C220830   0.500   3.211  10.569  0.4927 -0.4748 -1.4954
  182SLPC    HS20831   0.461   3.190  10.671 -0.6497  0.4215 -1.7366
  182SLPC   O2120832   0.641   3.208  10.570 -0.6903  0.1397 -0.1094
  182SLPC   C2120833   0.687   3.101  10.643  1.2032 -0.7665  0.0180
  182SLPC   O2220834   0.614   3.027  10.714 -0.3667 -0.2804  0.2496
  182SLPC   C2220835   0.841   3.098  10.618 -0.2398  0.1946  0.0153
  182SLPC   H2R20836   0.869   3.111  10.511  0.7444 -0.0106  0.2331
  182SLPC   H2S20837   0.872   3.186  10.679  0.0699 -1.5541  2.5334
  182SLPC    C320838   0.438   3.107  10.477  0.6373  0.3558  0.5308
  182SLPC    HX20839   0.331   3.132  10.467  0.7258  0.3963 -0.4544
  182SLPC    HY20840   0.444   3.004  10.519 -2.3992 -0.7815 -1.5314
  182SLPC   O3120841   0.489   3.107  10.342  0.1577 -0.3382 -0.8259
  182SLPC   C3120842   0.549   2.991  10.306  0.1651 -0.2754  0.6388
  182SLPC   O3220843   0.569   2.899  10.379 -0.1062  0.1978  0.1331
  182SLPC   C3220844   0.573   2.994  10.153 -0.0647 -0.2505 -0.7635
  182SLPC   H2X20845   0.636   3.085  10.144 -0.6508  0.1047 -1.3784
  182SLPC   H2Y20846   0.476   3.027  10.110 -0.3290  0.2006  0.1264
  182SLPC   C2320847   0.920   2.970  10.663  0.3518 -0.2951 -0.2602
  182SLPC   H3R20848   0.894   2.953  10.770  0.1047  0.8210 -0.1257
  182SLPC   H3S20849   1.029   2.992  10.656  0.8808 -2.5888 -0.1950
  182SLPC   C2420850   0.896   2.854  10.566  0.1772 -0.6622 -0.0004
  182SLPC   H4R20851   0.786   2.842  10.563  0.0178  0.8005 -0.6590
  182SLPC   H4S20852   0.939   2.761  10.612 -1.8132 -2.0181 -0.7465
  182SLPC   C2520853   0.937   2.867  10.420 -0.6073  0.3549  0.7763
  182SLPC   H5R20854   1.042   2.903  10.424 -0.5464  0.1468  1.1358
  182SLPC   H5S20855   0.873   2.947  10.378  1.6058  0.5902 -2.4538
  182SLPC   C2620856   0.920   2.738  10.346  0.7393 -0.2921  0.3394
  182SLPC   H6R20857   0.813   2.712  10.329  1.0091 -2.3492  1.4506
  182SLPC   H6S20858   0.954   2.650  10.404  0.3298 -2.2123 -2.1373
  182SLPC   C2720859   0.998   2.741  10.214  0.9735  0.5572 -0.2398
  182SLPC   H7R20860   1.102   2.738  10.250  1.1058 -1.2668 -0.7050
  182SLPC   H7S20861   0.977   2.833  10.154 -1.0295  0.4874  0.2845
  182SLPC   C2820862   0.980   2.610  10.134 -0.7833  0.7748 -0.6853
  182SLPC   H8R20863   1.069   2.587  10.072  0.1858  0.5211  0.7542
  182SLPC   H8S20864   0.906   2.619  10.052 -2.4355 -3.8714 -0.0455
  182SLPC   C2920865   0.944   2.482  10.214  0.5352 -0.2518 -0.4337
  182SLPC   H9R20866   0.991   2.461  10.311  2.5508 -1.1417 -1.5521
  182SLPC  C21020867   0.837   2.398  10.188 -0.0775 -0.2902 -0.4254
  182SLPC  H10R20868   0.823   2.307  10.249 -2.0496  0.2053 -0.0759
  182SLPC  C21120869   0.725   2.421  10.087  0.0347 -0.1392  0.6825
  182SLPC  H11R20870   0.738   2.513  10.025  1.7133 -1.8843 -1.7086
  182SLPC  H11S20871   0.624   2.414  10.134 -1.1709  1.7349 -1.3833
  182SLPC  C21220872   0.733   2.305   9.991 -0.7104  0.1071  0.0003
  182SLPC  H12R20873   0.673   2.217  10.020 -0.4645 -0.4385 -1.0996
  182SLPC  C21320874   0.803   2.292   9.877 -0.5782  0.2533  0.7292
  182SLPC  H13R20875   0.801   2.191   9.834 -1.8771  0.8340 -0.6544
  182SLPC  C21420876   0.887   2.394   9.809 -0.4009 -0.1951  0.3239
  182SLPC  H14R20877   0.991   2.356   9.811  0.4292  1.9766  0.6498
  182SLPC  H14S20878   0.892   2.492   9.862  0.0677  0.2547 -0.5307
  182SLPC  C21520879   0.838   2.401   9.663  0.2176  0.1399  0.4860
  182SLPC  H15R20880   0.898   2.484   9.621 -0.6042  0.1330 -0.7616
  182SLPC  H15S20881   0.730   2.427   9.667 -0.6983 -2.9179 -0.8865
  182SLPC  C21620882   0.853   2.268   9.583  0.5438  0.2233 -0.1280
  182SLPC  H16R20883   0.807   2.177   9.627  2.4091 -1.7019 -1.9376
  182SLPC  H16S20884   0.961   2.242   9.576  0.4424 -0.3504  0.3421
  182SLPC  C21720885   0.800   2.276   9.440  0.0808  0.0148  0.1451
  182SLPC  H17R20886   0.691   2.298   9.437  0.0053 -0.3640  0.0083
  182SLPC  H17S20887   0.823   2.176   9.397  2.3910  0.1113  1.0235
  182SLPC  C21820888   0.850   2.380   9.337 -0.4279 -0.5827 -0.0746
  182SLPC  H18R20889   0.801   2.479   9.349  2.1444  0.7540  0.1012
  182SLPC  H18S20890   0.842   2.341   9.234  2.3438 -1.4378 -0.0585
  182SLPC  H18T20891   0.961   2.386   9.348 -0.3472 -1.2002 -0.4816
  182SLPC   C3320892   0.622   2.862  10.095 -0.5677  0.0073 -0.5181
  182SLPC   H3X20893   0.547   2.788  10.132 -1.2251 -0.3559 -2.4720
  182SLPC   H3Y20894   0.724   2.836  10.129 -0.2103 -0.5602 -1.9583
  182SLPC   C3420895   0.600   2.834   9.946 -0.5354  0.0494  0.4497
  182SLPC   H4X20896   0.491   2.823   9.926 -0.0668 -1.5487 -1.4517
  182SLPC   H4Y20897   0.631   2.730   9.922  2.6905  0.5767  1.8418
  182SLPC   C3520898   0.662   2.940   9.863  0.7890 -0.7584  0.3041
  182SLPC   H5X20899   0.770   2.943   9.888  0.6577  1.5467  0.8248
  182SLPC   H5Y20900   0.613   3.037   9.885 -0.2749 -0.9757 -0.9654
  182SLPC   C3620901   0.648   2.911   9.722 -0.5611  0.3542 -0.2446
  182SLPC   H6X20902   0.549   2.887   9.678 -0.6251  0.8481 -0.3679
  182SLPC   H6Y20903   0.708   2.819   9.703  0.6761  1.2370 -0.6928
  182SLPC   C3720904   0.717   3.010   9.630 -0.4925 -0.4835  0.0551
  182SLPC   H7X20905   0.826   2.996   9.647 -0.5843  1.0625  2.3642
  182SLPC   H7Y20906   0.688   3.117   9.643  0.5566 -0.1435 -0.2924
  182SLPC   C3820907   0.696   2.978   9.476 -0.4716  0.9452 -0.2996
  182SLPC   H8X20908   0.587   2.983   9.458 -0.6820  2.4889  1.1554
  182SLPC   H8Y20909   0.722   2.870   9.466 -2.0398  0.4753  0.3074
  182SLPC   C3920910   0.758   3.068   9.382 -0.1515 -0.3983  0.9432
  182SLPC   H9X20911   0.869   3.080   9.386 -0.0728 -0.2949 -0.9170
  182SLPC   H9Y20912   0.720   3.169   9.407  0.2635 -0.6479  2.7994
  182SLPC  C31020913   0.732   3.035   9.238 -0.2457 -0.3911 -0.3572
  182SLPC  H10X20914   0.625   3.047   9.211 -0.5904  0.0602  1.1473
  182SLPC  H10Y20915   0.763   2.929   9.221  1.9755  0.3572 -1.3127
  182SLPC  C31120916   0.813   3.127   9.140 -0.7741  0.6712 -0.4498
  182SLPC  H11X20917   0.915   3.128   9.183 -1.2389  0.2535  0.7127
  182SLPC  H11Y20918   0.770   3.229   9.154 -1.0368  0.1235  5.1824
  182SLPC  C31220919   0.827   3.070   8.994 -0.1797 -0.1786  0.4001
  182SLPC  H12X20920   0.732   3.094   8.943 -1.6233 -0.7020  2.7039
  182SLPC  H12Y20921   0.833   2.959   8.990  2.1278 -0.0817 -0.9993
  182SLPC  C31320922   0.953   3.124   8.917  0.0729  0.2656 -0.1716
  182SLPC  H13X20923   1.040   3.094   8.981 -2.2931 -2.0186  2.2462
  182SLPC  H13Y20924   0.933   3.227   8.883 -0.6782  0.3986  0.6350
  182SLPC  C31420925   0.969   3.053   8.782 -0.3334 -0.4749  0.1701
  182SLPC  H14X20926   0.953   2.944   8.795 -1.7623 -0.0317  3.0192
  182SLPC  H14Y20927   1.059   3.092   8.730 -0.0185 -1.3289  0.0664
  182SLPC  C31520928   0.861   3.106   8.675 -0.4047 -0.5302  0.0137
  182SLPC  H15X20929   0.856   3.215   8.695  2.0710 -0.4358  0.3761
  182SLPC  H15Y20930   0.757   3.066   8.677  0.3096 -2.5805 -1.2836
  182SLPC  C31620931   0.914   3.089   8.533  0.0201 -1.0889  0.4172
  182SLPC  H16X20932   1.015   3.132   8.516 -0.7078  1.4709  1.8988
  182SLPC  H16Y20933   0.847   3.153   8.472 -0.0392 -1.4397  0.1156
  182SLPC  C31720934   0.901   2.948   8.466  0.4449 -0.1678 -0.5371
  182SLPC  H17X20935   0.796   2.914   8.458  0.0277  1.2434 -1.3654
  182SLPC  H17Y20936   0.958   2.885   8.538 -1.8526  0.5421  2.0519
  182SLPC  C31820937   0.969   2.941   8.327  0.0811  1.4053 -0.6731
  182SLPC  H18X20938   0.900   2.993   8.256 -1.2866 -2.3185 -2.3409
  182SLPC  H18Y20939   0.969   2.834   8.297 -1.4846  0.6329  1.8075
  182SLPC  H18Z20940   1.069   2.987   8.335  1.3586 -1.0431 -1.3905
  183SLPC     N20941   0.932   3.693  10.774  0.2319  0.6035  0.1247
  183SLPC   C1320942   0.927   3.668  10.916  0.0383  0.0926  0.3674
  183SLPC  H13A20943   0.904   3.757  10.972  2.2259  0.9522 -0.0025
  183SLPC  H13B20944   0.860   3.585  10.934 -0.4630 -0.0226 -1.6808
  183SLPC  H13C20945   1.020   3.627  10.952 -0.9009 -1.1180  1.4899
  183SLPC   C1420946   1.027   3.812  10.752  0.5710  0.4269 -0.4879
  183SLPC  H14A20947   1.037   3.839  10.648  0.6168  1.9821 -0.1141
  183SLPC  H14B20948   0.988   3.904  10.793  0.5885  0.4886 -0.6109
  183SLPC  H14C20949   1.126   3.797  10.794 -0.4635  0.0080  1.9740
  183SLPC   C1520950   0.800   3.730  10.725  0.4457  0.4074  0.6989
  183SLPC  H15A20951   0.797   3.760  10.621 -3.7974  2.7511  1.2778
  183SLPC  H15B20952   0.735   3.644  10.733 -0.9201  1.1277 -1.7887
  183SLPC  H15C20953   0.759   3.801  10.794  0.1637 -1.5701  2.6940
  183SLPC   C1220954   0.990   3.578  10.690 -0.0333  0.1692 -0.1154
  183SLPC  H12A20955   1.092   3.573  10.726  0.4667  0.3428 -1.4678
  183SLPC  H12B20956   0.986   3.605  10.586 -1.2651 -2.0795 -0.7231
  183SLPC   C1120957   0.929   3.435  10.705  0.1407  0.0736  0.0857
  183SLPC  H11A20958   0.955   3.374  10.617  1.9669  0.6256  0.1977
  183SLPC  H11B20959   0.819   3.450  10.711  0.2161  0.3029  1.3604
  183SLPC     P20960   1.107   3.319  10.846  0.6792  0.3539  0.6451
  183SLPC   O1320961   1.195   3.429  10.892  0.5065 -0.6169  0.4847
  183SLPC   O1420962   1.100   3.205  10.938  0.6091 -0.1826  0.8958
  183SLPC   O1220963   0.960   3.363  10.824 -0.0553 -0.2854 -0.0476
  183SLPC   O1120964   1.165   3.268  10.708  0.9327 -0.7103  0.0054
  183SLPC    C120965   1.283   3.188  10.691  0.8849 -0.0963 -0.0997
  183SLPC    HA20966   1.363   3.213  10.764  0.5565 -0.2172  0.3046
  183SLPC    HB20967   1.251   3.082  10.688  0.1999  0.0817  0.7072
  183SLPC    C220968   1.347   3.225  10.563 -0.7297 -0.9339  0.1019
  183SLPC    HS20969   1.371   3.333  10.575 -0.4559 -1.1975  2.3808
  183SLPC   O2120970   1.261   3.195  10.451 -0.5866  0.0480 -0.5241
  183SLPC   C2120971   1.205   3.300  10.394  0.2606 -0.2310 -0.0317
  183SLPC   O2220972   1.232   3.414  10.419 -0.7399  0.4568 -0.5154
  183SLPC   C2220973   1.098   3.252  10.286  0.1656  0.6972 -0.0032
  183SLPC   H2R20974   1.137   3.242  10.183 -1.8563  0.4507 -0.8021
  183SLPC   H2S20975   1.062   3.155  10.325 -1.5544  0.8099 -1.1965
  183SLPC    C320976   1.484   3.149  10.550  0.5079  0.2519 -0.1999
  183SLPC    HX20977   1.464   3.040  10.544 -2.6264  0.8287 -3.1103
  183SLPC    HY20978   1.553   3.166  10.636 -1.0775 -0.9243  1.3800
  183SLPC   O3120979   1.555   3.175  10.426  0.2869 -0.8642 -0.2751
  183SLPC   C3120980   1.645   3.276  10.433  0.3764  0.0884  0.1545
  183SLPC   O3220981   1.665   3.348  10.529 -0.0855 -0.3186  0.5454
  183SLPC   C3220982   1.704   3.301  10.292  0.2591  0.4884 -0.9590
  183SLPC   H2X20983   1.778   3.221  10.276 -0.4495 -0.1393 -1.1549
  183SLPC   H2Y20984   1.763   3.395  10.303  0.9818 -0.1618  0.9389
  183SLPC   C2320985   0.971   3.342  10.278 -0.1161  0.5024  0.0396
  183SLPC   H3R20986   0.989   3.435  10.219 -2.1523  0.2829 -1.0310
  183SLPC   H3S20987   0.958   3.378  10.382  2.0924  2.1503 -0.1750
  183SLPC   C2420988   0.847   3.270  10.212 -0.3869  0.2861 -0.2089
  183SLPC   H4R20989   0.765   3.343  10.218 -1.7850 -1.0019 -2.2749
  183SLPC   H4S20990   0.818   3.185  10.278  0.7317 -0.7392 -0.9850
  183SLPC   C2520991   0.870   3.223  10.066  0.2200  0.3949  1.0467
  183SLPC   H5R20992   0.772   3.178  10.038 -0.3863  1.1126  1.9327
  183SLPC   H5S20993   0.951   3.148  10.072 -1.4534 -1.8694 -1.9945
  183SLPC   C2620994   0.913   3.336   9.969  0.0853 -0.3166  0.7335
  183SLPC   H6R20995   1.009   3.380  10.002  0.8387  0.2702 -2.0082
  183SLPC   H6S20996   0.836   3.415   9.962  0.0102 -0.2600  1.9606
  183SLPC   C2720997   0.939   3.275   9.837 -0.2151  0.2274  0.4958
  183SLPC   H7R20998   0.848   3.221   9.802 -1.8330  1.7672  2.1097
  183SLPC   H7S20999   1.025   3.204   9.835 -0.8291 -0.5338 -1.4447
  183SLPC   C2821000   0.974   3.379   9.728 -0.5536  0.0834 -0.4453
  183SLPC   H8R21001   1.076   3.416   9.754 -1.1496  0.4949  1.5293
  183SLPC   H8S21002   0.914   3.472   9.733  0.6477  0.9778 -1.8064
  183SLPC   C2921003   0.967   3.333   9.588 -0.0162  0.5820  0.2317
  183SLPC   H9R21004   0.872   3.306   9.539  0.5695  0.5370 -0.8939
  183SLPC  C21021005   1.082   3.322   9.514 -0.0968 -0.2263  0.0558
  183SLPC  H10R21006   1.071   3.302   9.407 -0.6627  0.6759 -0.0598
  183SLPC  C21121007   1.229   3.338   9.541 -0.4771 -0.2496 -0.6427
  183SLPC  H11R21008   1.240   3.426   9.608  0.9188  0.8359 -2.2099
  183SLPC  H11S21009   1.273   3.368   9.443 -0.1961 -0.2390 -0.5121
  183SLPC  C21221010   1.309   3.216   9.588  0.0488  0.4969 -0.1087
  183SLPC  H12R21011   1.337   3.207   9.694 -0.2820 -1.2460 -0.1332
  183SLPC  C21321012   1.356   3.120   9.509  0.0784 -0.2971 -0.0343
  183SLPC  H13R21013   1.429   3.044   9.541 -1.0753 -1.8749 -1.0270
  183SLPC  C21421014   1.322   3.115   9.358  0.5751 -0.1361  0.5619
  183SLPC  H14R21015   1.235   3.176   9.328 -0.0153 -1.2491 -0.0245
  183SLPC  H14S21016   1.312   3.007   9.335  0.5102 -0.0555  0.2064
  183SLPC  C21521017   1.434   3.191   9.281 -0.5642  0.1097 -0.3641
  183SLPC  H15R21018   1.526   3.132   9.304  0.0108  1.1795  0.1675
  183SLPC  H15S21019   1.441   3.301   9.299  1.0387  0.3760 -2.2490
  183SLPC  C21621020   1.417   3.162   9.128 -0.8709  0.2708 -0.2560
  183SLPC  H16R21021   1.325   3.217   9.098 -0.2960  0.1740 -2.2984
  183SLPC  H16S21022   1.395   3.054   9.128 -1.0555  0.3047  0.1216
  183SLPC  C21721023   1.545   3.212   9.066 -0.2860 -0.2165  0.1021
  183SLPC  H17R21024   1.621   3.134   9.089  0.6341 -0.1626 -2.4497
  183SLPC  H17S21025   1.579   3.304   9.117  4.1536 -2.4681  1.7633
  183SLPC  C21821026   1.543   3.222   8.922  0.7039  0.0244 -0.7294
  183SLPC  H18R21027   1.513   3.122   8.882  2.9685 -1.1549  0.3639
  183SLPC  H18S21028   1.645   3.233   8.881  0.0006  1.7802 -2.1284
  183SLPC  H18T21029   1.485   3.311   8.890 -0.0627 -0.3507 -0.4096
  183SLPC   C3321030   1.596   3.311  10.187  0.9465 -0.7661  0.2807
  183SLPC   H3X21031   1.522   3.385  10.225  0.1950 -1.3009 -0.1165
  183SLPC   H3Y21032   1.543   3.214  10.172 -1.9852  0.7645 -0.1828
  183SLPC   C3421033   1.650   3.365  10.056  0.4938 -0.2470 -0.1135
  183SLPC   H4X21034   1.738   3.306  10.021  0.8296  0.5256 -0.6020
  183SLPC   H4Y21035   1.693   3.464  10.083 -1.1179  0.6856 -0.8072
  183SLPC   C3521036   1.545   3.378   9.941  0.1387  0.3489  1.0011
  183SLPC   H5X21037   1.459   3.438   9.978  0.0060  0.2388  0.8674
  183SLPC   H5Y21038   1.497   3.280   9.920 -1.3941  1.3846 -0.6888
  183SLPC   C3621039   1.590   3.429   9.802  0.8043 -0.9822 -0.1832
  183SLPC   H6X21040   1.635   3.531   9.806  0.2689 -0.7550  0.0436
  183SLPC   H6Y21041   1.497   3.437   9.742 -0.5359 -1.1113  1.8197
  183SLPC   C3721042   1.685   3.333   9.729  0.7308 -0.7732  0.4586
  183SLPC   H7X21043   1.638   3.233   9.737 -1.2810 -0.0971 -1.6838
  183SLPC   H7Y21044   1.781   3.321   9.784  0.5177 -0.7939  0.8287
  183SLPC   C3821045   1.713   3.365   9.582  0.2069  0.1625 -0.4323
  183SLPC   H8X21046   1.612   3.367   9.535  0.6251 -0.0661 -1.3708
  183SLPC   H8Y21047   1.770   3.277   9.545 -1.3770 -0.7204 -0.8776
  183SLPC   C3921048   1.784   3.502   9.560  0.9503 -0.4810 -0.3454
  183SLPC   H9X21049   1.869   3.508   9.632  0.6813  0.6389 -0.1090
  183SLPC   H9Y21050   1.727   3.594   9.582  1.1273 -0.6096  0.7266
  183SLPC  C31021051   1.848   3.546   9.426 -0.0172  0.4695  0.7449
  183SLPC  H10X21052   1.876   3.653   9.428 -0.4579  0.6829 -1.4691
  183SLPC  H10Y21053   1.771   3.536   9.346  2.5151 -1.9707 -1.6293
  183SLPC  C31121054   1.973   3.470   9.391  0.1257  0.2239 -0.7513
  183SLPC  H11X21055   1.952   3.362   9.409  1.2801 -0.1532 -1.5645
  183SLPC  H11Y21056   2.061   3.505   9.449 -0.2290  1.5791 -1.0129
  183SLPC  C31221057   2.003   3.485   9.238 -0.4073  0.3519 -0.0753
  183SLPC  H12X21058   2.109   3.458   9.218  0.6707  3.4291  1.0206
  183SLPC  H12Y21059   1.981   3.581   9.187  1.4253 -1.6111 -5.1895
  183SLPC  C31321060   1.924   3.381   9.146  0.1303 -0.1777 -0.1755
  183SLPC  H13X21061   1.960   3.423   9.050  0.2064 -0.1191 -0.1217
  183SLPC  H13Y21062   1.818   3.400   9.173  0.0528 -0.2376 -0.4384
  183SLPC  C31421063   1.958   3.232   9.151  0.2897 -0.1935 -0.2148
  183SLPC  H14X21064   1.899   3.180   9.229  0.4063 -0.9685 -0.6267
  183SLPC  H14Y21065   2.067   3.223   9.173  0.9025  3.3409 -1.1775
  183SLPC  C31521066   1.923   3.145   9.024 -0.2450 -1.4638  0.5284
  183SLPC  H15X21067   1.970   3.189   8.933 -0.8378  1.2434  1.4447
  183SLPC  H15Y21068   1.815   3.164   9.004  0.4167  1.6115 -0.7226
  183SLPC  C31621069   1.951   3.002   9.038 -0.3270  0.0320 -0.3176
  183SLPC  H16X21070   1.920   2.966   9.138  0.1343 -0.3806 -0.3198
  183SLPC  H16Y21071   2.060   2.982   9.034 -0.8809 -3.7532  0.0352
  183SLPC  C31721072   1.882   2.916   8.933 -0.2832  0.6794  0.4100
  183SLPC  H17X21073   1.772   2.919   8.948 -0.6088 -1.9795 -0.8946
  183SLPC  H17Y21074   1.906   2.810   8.955  1.7562  0.8195 -0.8581
  183SLPC  C31821075   1.901   2.970   8.789 -0.0046  0.5353  0.6051
  183SLPC  H18X21076   1.875   3.077   8.782 -1.2817  0.1158 -2.1504
  183SLPC  H18Y21077   1.824   2.914   8.733 -1.1201  0.5437  2.0700
  183SLPC  H18Z21078   1.995   2.944   8.735  0.0034  1.0078  0.3896
  184SLPC     N21079   3.156   0.503  10.822  0.1497 -0.6699 -0.0759
  184SLPC   C1321080   3.072   0.619  10.768  0.7379 -0.1907 -0.7237
  184SLPC  H13A21081   3.002   0.584  10.694 -0.9325  1.1217  0.1697
  184SLPC  H13B21082   3.021   0.681  10.840  3.1899  0.7745  0.2985
  184SLPC  H13C21083   3.125   0.689  10.705 -0.7186  2.6696  0.9904
  184SLPC   C1421084   3.066   0.408  10.897 -0.4857 -0.2256  1.1908
  184SLPC  H14A21085   3.000   0.458  10.967 -1.9895 -0.6579  0.1327
  184SLPC  H14B21086   2.999   0.367  10.823  2.5539 -1.4112 -1.1226
  184SLPC  H14C21087   3.117   0.324  10.941  0.8790 -0.5086 -0.7981
  184SLPC   C1521088   3.266   0.557  10.914  0.1011  0.5473 -0.3885
  184SLPC  H15A21089   3.310   0.637  10.856 -1.4323  0.5702 -1.5715
  184SLPC  H15B21090   3.220   0.603  11.000 -0.3711  0.1832 -0.4457
  184SLPC  H15C21091   3.341   0.484  10.941 -1.6611 -0.2528  2.8284
  184SLPC   C1221092   3.219   0.427  10.711  0.1151 -0.0509  0.2095
  184SLPC  H12A21093   3.149   0.353  10.676  0.1692  0.2258 -0.4994
  184SLPC  H12B21094   3.296   0.369  10.760  0.6538  0.2006 -0.3258
  184SLPC   C1121095   3.281   0.505  10.601 -0.5379 -0.3578  0.0419
  184SLPC  H11A21096   3.351   0.580  10.643 -0.4607 -0.2459 -0.2878
  184SLPC  H11B21097   3.208   0.562  10.540  0.7418  0.0329 -1.1703
  184SLPC     P21098   3.287   0.311  10.429  0.0175  0.2335 -0.1303
  184SLPC   O1321099   3.323   0.173  10.473 -0.0391 -0.0172 -0.5819
  184SLPC   O1421100   3.140   0.333  10.433  0.5660 -0.0595 -0.3443
  184SLPC   O1221101   3.361   0.411  10.523  0.4589  0.4003 -0.7045
  184SLPC   O1121102   3.346   0.328  10.286 -0.6536  0.1484 -0.0957
  184SLPC    C121103   3.427   0.435  10.244 -0.3184 -0.0510 -0.2450
  184SLPC    HA21104   3.370   0.522  10.204  0.7266  1.2043  0.9044
  184SLPC    HB21105   3.483   0.486  10.325 -0.7577 -0.3511  0.2560
  184SLPC    C221106   3.540   0.383  10.147  0.7356  0.2296  0.7000
  184SLPC    HS21107   3.629   0.449  10.146  1.4524 -0.7129  0.0207
  184SLPC   O2121108   3.483   0.371  10.006  0.0082  0.1633 -0.1034
  184SLPC   C2121109   3.462   0.482   9.950 -0.6210 -0.6877 -0.0057
  184SLPC   O2221110   3.502   0.594   9.982 -0.2253  0.0198 -0.0182
  184SLPC   C2221111   3.377   0.452   9.831  0.2449 -1.2566 -0.2454
  184SLPC   H2R21112   3.275   0.432   9.871  0.5895 -0.5231  1.0684
  184SLPC   H2S21113   3.379   0.546   9.771 -2.8666  0.4517  2.0230
  184SLPC    C321114   3.597   0.252  10.195  0.2327  0.2937 -0.2062
  184SLPC    HX21115   3.518   0.176  10.213  1.3886 -1.7352 -3.0040
  184SLPC    HY21116   3.642   0.275  10.294 -1.0751 -0.4844  0.5899
  184SLPC   O3121117   3.688   0.189  10.094  0.2710  0.2655  0.6023
  184SLPC   C3121118   3.637   0.091  10.018 -0.5596  0.2688 -0.4397
  184SLPC   O3221119   3.524   0.048  10.017  0.1592  0.0189  0.8378
  184SLPC   C3221120   3.749   0.024   9.944  0.1999  0.5497  0.1864
  184SLPC   H2X21121   3.701  -0.052   9.879  0.2002  1.5777 -1.0712
  184SLPC   H2Y21122   3.800  -0.032  10.024  0.2192  0.7407  0.3088
  184SLPC   C2321123   3.402   0.332   9.731 -0.4125 -0.1026 -0.2191
  184SLPC   H3R21124   3.366   0.235   9.773 -0.3878 -0.6772 -1.4961
  184SLPC   H3S21125   3.511   0.312   9.718 -0.2282  0.1548  0.7830
  184SLPC   C2421126   3.329   0.358   9.598  0.9721 -0.1089 -0.2137
  184SLPC   H4R21127   3.240   0.424   9.603  0.1191 -1.0503 -1.9383
  184SLPC   H4S21128   3.288   0.265   9.552 -2.1042  1.1953 -0.3761
  184SLPC   C2521129   3.421   0.418   9.490 -0.3098 -0.0095  0.5791
  184SLPC   H5R21130   3.511   0.354   9.475 -0.9598 -0.7337 -0.3517
  184SLPC   H5S21131   3.452   0.519   9.525 -0.1786 -0.7507  2.7678
  184SLPC   C2621132   3.339   0.417   9.356 -0.0443  0.2859  0.1884
  184SLPC   H6R21133   3.252   0.486   9.360  0.3444  0.7064  2.5932
  184SLPC   H6S21134   3.290   0.318   9.344 -2.0114  1.0381  1.5534
  184SLPC   C2721135   3.431   0.467   9.238  0.5070  0.7399 -0.3335
  184SLPC   H7R21136   3.513   0.392   9.231 -0.1346  0.0852 -1.0231
  184SLPC   H7S21137   3.478   0.562   9.273  0.6289 -0.0556  1.8178
  184SLPC   C2821138   3.363   0.475   9.105  0.3239 -0.3606  0.4063
  184SLPC   H8R21139   3.292   0.560   9.099  1.5746  0.6632 -0.6661
  184SLPC   H8S21140   3.297   0.385   9.106  1.0186 -0.9543 -1.5968
  184SLPC   C2921141   3.463   0.465   8.990 -0.4215  0.5154  0.5689
  184SLPC   H9R21142   3.503   0.564   8.964  0.2198 -0.0380 -0.6610
  184SLPC  C21021143   3.507   0.359   8.920 -0.3780 -0.1027 -0.6112
  184SLPC  H10R21144   3.580   0.373   8.839 -0.6670 -1.5404 -1.1566
  184SLPC  C21121145   3.464   0.216   8.941 -0.4542  1.2007 -0.5740
  184SLPC  H11R21146   3.359   0.205   8.907 -0.6896  1.0333  0.1661
  184SLPC  H11S21147   3.457   0.197   9.051  0.5982  1.0960 -0.5115
  184SLPC  C21221148   3.555   0.120   8.871  0.2230  0.6359  0.1946
  184SLPC  H12R21149   3.618   0.057   8.937 -2.0953 -1.4495  0.5642
  184SLPC  C21321150   3.565   0.098   8.738  0.0938  0.1853  0.3369
  184SLPC  H13R21151   3.641   0.022   8.714  1.8875  1.1508  2.6236
  184SLPC  C21421152   3.479   0.170   8.633 -0.0024  0.2399  0.1207
  184SLPC  H14R21153   3.416   0.250   8.677 -0.6461  0.2370 -0.7725
  184SLPC  H14S21154   3.415   0.095   8.582  1.7252  0.0099 -1.8134
  184SLPC  C21521155   3.583   0.218   8.526 -0.7587  0.5471  0.5264
  184SLPC  H15R21156   3.648   0.136   8.489 -0.0977  1.6223 -0.7697
  184SLPC  H15S21157   3.647   0.298   8.567 -1.5855  0.8838  1.1749
  184SLPC  C21621158   3.508   0.276   8.409 -0.8312 -0.2862 -0.5394
  184SLPC  H16R21159   3.448   0.359   8.451  1.8721  0.5972  1.8706
  184SLPC  H16S21160   3.449   0.203   8.349 -0.1615 -1.2176 -0.0951
  184SLPC  C21721161   3.609   0.334   8.299  0.3086  0.3937 -0.2844
  184SLPC  H17R21162   3.667   0.252   8.252  0.1197  0.0213  0.1248
  184SLPC  H17S21163   3.692   0.388   8.349  1.3389 -0.5202 -0.9635
  184SLPC  C21821164   3.544   0.430   8.202  0.3218  0.0905  0.4334
  184SLPC  H18R21165   3.462   0.382   8.144 -1.0289  4.5592 -1.8280
  184SLPC  H18S21166   3.612   0.475   8.127 -1.5058 -0.3044 -1.5756
  184SLPC  H18T21167   3.499   0.515   8.258 -2.2488  0.6444 -2.2319
  184SLPC   C3321168   3.841   0.117   9.862 -0.1145  0.4628  0.0705
  184SLPC   H3X21169   3.947   0.083   9.856  0.5055  2.3873 -0.9339
  184SLPC   H3Y21170   3.860   0.210   9.921 -0.0075  0.2930  0.3060
  184SLPC   C3421171   3.781   0.159   9.726 -0.3580  0.6456 -0.6551
  184SLPC   H4X21172   3.694   0.228   9.731 -0.4187  0.8141 -2.8767
  184SLPC   H4Y21173   3.755   0.066   9.670  0.2278  0.2559 -0.2791
  184SLPC   C3521174   3.888   0.230   9.637 -0.8002 -0.5604  0.4867
  184SLPC   H5X21175   3.985   0.175   9.626 -0.6604  0.0143 -1.7504
  184SLPC   H5Y21176   3.919   0.317   9.699  1.4102 -0.0627 -1.1580
  184SLPC   C3621177   3.819   0.263   9.505 -0.5232  0.5255 -0.4883
  184SLPC   H6X21178   3.728   0.324   9.527 -0.1563  0.8161  0.2445
  184SLPC   H6Y21179   3.787   0.171   9.452 -2.0108  1.3229 -1.0399
  184SLPC   C3721180   3.912   0.345   9.407  0.7039  0.0158 -0.7069
  184SLPC   H7X21181   4.006   0.289   9.390  1.9461  0.0055  4.5008
  184SLPC   H7Y21182   3.934   0.441   9.457  2.9492 -0.6375 -0.3606
  184SLPC   C3821183   3.841   0.370   9.276  0.3288  0.3818 -0.1087
  184SLPC   H8X21184   3.748   0.422   9.307  0.7129 -0.1211  2.0327
  184SLPC   H8Y21185   3.805   0.269   9.248  2.6517 -1.4321  2.8474
  184SLPC   C3921186   3.919   0.453   9.179  0.8922  0.7069  0.8205
  184SLPC   H9X21187   4.017   0.406   9.155  0.1697 -0.2486 -0.4280
  184SLPC   H9Y21188   3.944   0.548   9.230 -0.0612  1.4139  0.0242
  184SLPC  C31021189   3.835   0.472   9.056  0.7925 -0.1907  0.3404
  184SLPC  H10X21190   3.743   0.529   9.084  0.5965  0.2129 -1.0292
  184SLPC  H10Y21191   3.795   0.376   9.016  1.0357 -0.9510  1.8740
  184SLPC  C31121192   3.908   0.559   8.947 -0.0722 -0.2314 -0.4694
  184SLPC  H11X21193   3.977   0.630   8.999 -0.6781  1.0128 -1.3290
  184SLPC  H11Y21194   3.834   0.613   8.885  0.0286  0.6237  0.1274
  184SLPC  C31221195   3.998   0.478   8.848 -0.8384  0.5908 -0.6368
  184SLPC  H12X21196   4.054   0.401   8.905 -3.5784 -2.8565 -2.2011
  184SLPC  H12Y21197   4.065   0.552   8.799  1.2260  0.1340  1.3717
  184SLPC  C31321198   3.916   0.398   8.748 -0.7152 -0.4667 -0.2179
  184SLPC  H13X21199   3.858   0.477   8.695  1.5114  0.5205 -1.3250
  184SLPC  H13Y21200   3.845   0.324   8.789 -0.5928 -0.1897  0.5166
  184SLPC  C31421201   4.010   0.341   8.636  0.7654 -0.1216  0.2273
  184SLPC  H14X21202   4.095   0.283   8.678 -0.2835 -0.7310  1.6330
  184SLPC  H14Y21203   4.039   0.429   8.576 -1.0948 -0.5398 -1.3955
  184SLPC  C31521204   3.942   0.244   8.539 -0.5133  0.1607  0.9677
  184SLPC  H15X21205   3.854   0.296   8.498 -1.8247 -1.5770  1.4511
  184SLPC  H15Y21206   3.902   0.150   8.583 -1.2311 -0.0489 -0.1028
  184SLPC  C31621207   4.032   0.199   8.422  0.2697 -0.4291 -0.5407
  184SLPC  H16X21208   4.108   0.127   8.459  0.5125  0.2794  0.3739
  184SLPC  H16Y21209   4.090   0.281   8.373 -1.8236  1.6695  0.2696
  184SLPC  C31721210   3.955   0.126   8.309  0.9470  0.1348 -0.1080
  184SLPC  H17X21211   3.862   0.174   8.274  1.4725  0.6503 -0.8200
  184SLPC  H17Y21212   3.921   0.028   8.348 -1.4391  0.2016 -1.8145
  184SLPC  C31821213   4.037   0.108   8.179  0.7213 -0.3554 -0.1184
  184SLPC  H18X21214   4.134   0.058   8.199  0.2956 -1.3572 -0.4838
  184SLPC  H18Y21215   4.073   0.203   8.134  1.6538  0.0228  1.3358
  184SLPC  H18Z21216   3.982   0.042   8.109  0.5115 -0.8378  0.4881
  185SLPC     N21217   3.005   3.600   6.407 -0.1552  0.1298  0.9000
  185SLPC   C1321218   3.001   3.453   6.403 -0.2646  0.2129 -0.2752
  185SLPC  H13A21219   2.940   3.433   6.317  0.8156 -1.0887 -0.7744
  185SLPC  H13B21220   3.100   3.409   6.393 -0.4216  0.1185 -1.5460
  185SLPC  H13C21221   2.958   3.413   6.494  0.5681  1.8740  0.9232
  185SLPC   C1421222   3.087   3.642   6.525 -0.1925  0.0697  0.3251
  185SLPC  H14A21223   3.191   3.628   6.498 -0.7349 -1.8089 -0.9222
  185SLPC  H14B21224   3.084   3.750   6.537 -0.3634 -0.0620  1.5751
  185SLPC  H14C21225   3.062   3.585   6.613 -1.2592 -1.3727 -0.8698
  185SLPC   C1521226   2.874   3.665   6.430  1.1222  0.4394  0.3078
  185SLPC  H15A21227   2.823   3.645   6.523 -0.3830  3.1193  0.1748
  185SLPC  H15B21228   2.889   3.772   6.423 -0.3270  0.6619  0.1239
  185SLPC  H15C21229   2.794   3.646   6.359 -0.9407 -1.2982  2.8884
  185SLPC   C1221230   3.078   3.652   6.289 -0.0130  0.4199  0.6818
  185SLPC  H12A21231   3.096   3.756   6.312 -1.9296  1.7553 -3.0454
  185SLPC  H12B21232   3.007   3.662   6.209 -0.3330 -2.3946  0.5342
  185SLPC   C1121233   3.210   3.583   6.251 -0.3371 -0.3736 -0.6960
  185SLPC  H11A21234   3.252   3.652   6.174  0.3634 -0.4031 -0.3502
  185SLPC  H11B21235   3.183   3.495   6.189 -2.4599 -0.5004  0.3448
  185SLPC     P21236   3.418   3.456   6.336  0.0388  0.3142 -0.0700
  185SLPC   O1321237   3.377   3.363   6.228  0.0222 -0.4792  0.0824
  185SLPC   O1421238   3.540   3.532   6.310  0.0398  0.0918 -0.1024
  185SLPC   O1221239   3.304   3.559   6.359  0.1027 -0.3376 -0.6396
  185SLPC   O1121240   3.431   3.372   6.461 -0.2081 -0.3326 -0.5162
  185SLPC    C121241   3.328   3.281   6.502 -0.1602 -0.3385  0.1976
  185SLPC    HA21242   3.232   3.329   6.530  1.7460  3.1692  1.3862
  185SLPC    HB21243   3.315   3.203   6.424  0.3907 -1.5059  1.2402
  185SLPC    C221244   3.386   3.201   6.626  0.5095 -0.3598  0.3016
  185SLPC    HS21245   3.300   3.137   6.655  0.3070 -0.2258  0.0027
  185SLPC   O2121246   3.425   3.281   6.739  0.0838 -0.7781  0.6770
  185SLPC   C2121247   3.329   3.341   6.808 -0.5157  0.1851 -0.7197
  185SLPC   O2221248   3.210   3.329   6.784 -0.7662  0.0887 -0.3682
  185SLPC   C2221249   3.397   3.411   6.927  0.1265 -0.3916  0.3472
  185SLPC   H2R21250   3.493   3.360   6.948  0.2238  0.1085  1.1516
  185SLPC   H2S21251   3.419   3.518   6.906  1.2997 -1.1353 -2.9042
  185SLPC    C321252   3.494   3.098   6.581 -0.1137  0.3688 -0.3874
  185SLPC    HX21253   3.568   3.143   6.511  1.1849 -1.4496 -0.2642
  185SLPC    HY21254   3.449   3.015   6.523 -1.5209  1.7449 -1.3259
  185SLPC   O3121255   3.565   3.034   6.690 -0.4373 -1.1974 -0.5899
  185SLPC   C3121256   3.662   3.108   6.746  0.1139 -0.2611 -0.2130
  185SLPC   O3221257   3.698   3.217   6.705 -0.4119  0.1324  0.2094
  185SLPC   C3221258   3.724   3.029   6.853 -0.2926 -0.3086  0.2138
  185SLPC   H2X21259   3.812   3.083   6.893  0.6346  0.5440 -2.7382
  185SLPC   H2Y21260   3.767   2.939   6.805  2.6472  0.2761  1.5564
  185SLPC   C2321261   3.310   3.393   7.053  0.5991  0.4134  0.0146
  185SLPC   H3R21262   3.284   3.287   7.075  0.6882  0.1836 -0.9507
  185SLPC   H3S21263   3.226   3.460   7.024  1.2528 -0.0989 -3.4924
  185SLPC   C2421264   3.361   3.452   7.180  0.0649  0.0580  0.5246
  185SLPC   H4R21265   3.462   3.405   7.185  0.5866  1.0306 -0.5904
  185SLPC   H4S21266   3.295   3.411   7.260 -1.3393 -1.7993 -1.4602
  185SLPC   C2521267   3.368   3.603   7.169 -0.2683 -0.0288 -0.4776
  185SLPC   H5R21268   3.272   3.652   7.144 -0.3954 -0.2160 -0.3607
  185SLPC   H5S21269   3.449   3.623   7.095  0.1772  0.1241  0.0466
  185SLPC   C2621270   3.409   3.677   7.308  0.1477 -0.3967 -0.1803
  185SLPC   H6R21271   3.415   3.788   7.296  1.4667  0.0542  3.4352
  185SLPC   H6S21272   3.506   3.639   7.345 -0.8935 -1.7070  1.2977
  185SLPC   C2721273   3.290   3.664   7.406 -0.9281  0.1846 -0.6284
  185SLPC   H7R21274   3.286   3.557   7.437 -0.6790 -0.1323 -1.6490
  185SLPC   H7S21275   3.191   3.675   7.358 -1.6210 -3.2738 -0.2664
  185SLPC   C2821276   3.316   3.747   7.534 -0.6916 -0.1227 -0.4121
  185SLPC   H8R21277   3.231   3.729   7.603 -0.1281 -0.6059  0.1690
  185SLPC   H8S21278   3.325   3.856   7.511  1.7533 -0.1416  0.2515
  185SLPC   C2921279   3.439   3.689   7.596 -0.4673 -0.2210  0.1634
  185SLPC   H9R21280   3.465   3.591   7.552  2.4283  0.4448  0.1612
  185SLPC  C21021281   3.520   3.738   7.687 -0.4136  0.1241 -0.0175
  185SLPC  H10R21282   3.605   3.674   7.715 -1.3670 -0.6221  1.2752
  185SLPC  C21121283   3.513   3.876   7.748 -0.3735  0.1060 -0.9735
  185SLPC  H11R21284   3.530   3.861   7.857  0.8797  0.7969 -1.0586
  185SLPC  H11S21285   3.411   3.920   7.745 -0.4712 -0.0218  0.1184
  185SLPC  C21221286   3.615   3.977   7.696  0.6540  0.4524 -0.2883
  185SLPC  H12R21287   3.599   3.985   7.588 -0.5811 -0.4419 -0.1977
  185SLPC  C21321288   3.697   4.058   7.760  0.4158 -0.1685  0.3897
  185SLPC  H13R21289   3.774   4.113   7.704  0.5163  0.0342  0.7242
  185SLPC  C21421290   3.712   4.064   7.910  0.1331  0.0017 -0.3993
  185SLPC  H14R21291   3.658   3.984   7.965 -2.5228  0.8900 -1.5539
  185SLPC  H14S21292   3.657   4.154   7.946 -1.3001 -0.4121 -1.4472
  185SLPC  C21521293   3.858   4.062   7.944  0.1275 -0.1892 -0.2562
  185SLPC  H15R21294   3.912   4.155   7.916  0.2000 -0.7085 -1.9858
  185SLPC  H15S21295   3.908   3.979   7.888 -0.1149 -1.1318  0.8818
  185SLPC  C21621296   3.878   4.057   8.100 -0.3312  0.5548  0.8427
  185SLPC  H16R21297   3.799   3.996   8.149 -0.4578  0.6512  0.7609
  185SLPC  H16S21298   3.868   4.162   8.135 -0.8096  1.0816 -0.8145
  185SLPC  C21721299   4.011   4.014   8.158 -0.3802 -0.7363 -0.9538
  185SLPC  H17R21300   4.089   4.042   8.085 -0.4650 -1.2903 -1.2601
  185SLPC  H17S21301   4.004   3.906   8.181  0.9489 -0.0665  3.5977
  185SLPC  C21821302   4.037   4.082   8.298  0.1680  0.4131  0.2276
  185SLPC  H18R21303   3.936   4.090   8.344  0.6255 -0.8510  1.5495
  185SLPC  H18S21304   4.073   4.185   8.279  0.1877  0.4457  0.4383
  185SLPC  H18T21305   4.113   4.030   8.361  2.4742  0.8504 -2.0158
  185SLPC   C3321306   3.628   3.001   6.971 -0.3682 -0.0446  0.9084
  185SLPC   H3X21307   3.547   2.930   6.943 -0.1789 -0.9899  2.6025
  185SLPC   H3Y21308   3.582   3.094   7.011 -1.0446 -0.2599  0.6384
  185SLPC   C3421309   3.707   2.933   7.090 -0.1675  0.3039  0.1813
  185SLPC   H4X21310   3.817   2.945   7.092 -0.0226 -0.3306 -1.6345
  185SLPC   H4Y21311   3.702   2.823   7.072  1.4921  0.4203 -1.3091
  185SLPC   C3521312   3.658   2.969   7.227 -0.4136 -0.4969 -0.4660
  185SLPC   H5X21313   3.567   2.908   7.246  0.4402 -1.5295  0.4311
  185SLPC   H5Y21314   3.625   3.075   7.235 -1.8282 -0.9675  0.2596
  185SLPC   C3621315   3.756   2.943   7.344 -0.2775  0.5730 -0.2542
  185SLPC   H6X21316   3.831   3.020   7.316 -0.1776  1.0158  1.1716
  185SLPC   H6Y21317   3.801   2.842   7.342 -1.3250  0.0682  0.6863
  185SLPC   C3721318   3.691   2.961   7.484 -0.1931  0.2598  0.5272
  185SLPC   H7X21319   3.604   2.892   7.477  0.5159 -0.5447 -0.7888
  185SLPC   H7Y21320   3.657   3.066   7.490  1.5173  0.9223 -0.5577
  185SLPC   C3821321   3.779   2.919   7.610  0.6269 -0.3237  0.3500
  185SLPC   H8X21322   3.882   2.961   7.601  1.4171 -1.8033  2.0070
  185SLPC   H8Y21323   3.778   2.808   7.612 -1.0936 -0.3216  1.5174
  185SLPC   C3921324   3.718   2.965   7.744 -0.2857  0.6141 -0.4682
  185SLPC   H9X21325   3.618   2.920   7.760 -0.5621  2.0359  2.4005
  185SLPC   H9Y21326   3.717   3.072   7.775  3.6654  0.2398  1.6272
  185SLPC  C31021327   3.814   2.915   7.859  0.5074 -0.9233  0.6559
  185SLPC  H10X21328   3.907   2.969   7.831 -0.4055  1.3488  1.7424
  185SLPC  H10Y21329   3.812   2.804   7.854 -1.1922 -0.8585 -2.2620
  185SLPC  C31121330   3.767   2.959   8.002 -0.1148 -0.0265  0.4915
  185SLPC  H11X21331   3.663   2.919   8.002 -0.7782  1.6453  0.3207
  185SLPC  H11Y21332   3.773   3.068   8.022  2.6532 -0.0404  0.1067
  185SLPC  C31221333   3.849   2.895   8.112  0.2040  0.2452 -0.2454
  185SLPC  H12X21334   3.954   2.930   8.106  0.2716  0.0499 -0.2192
  185SLPC  H12Y21335   3.837   2.786   8.096 -1.6341  0.3020  0.5556
  185SLPC  C31321336   3.792   2.929   8.251  0.1380  0.6278  0.0747
  185SLPC  H13X21337   3.703   2.866   8.273  0.2913  0.5035  0.3448
  185SLPC  H13Y21338   3.743   3.029   8.259 -2.5781 -0.6655  0.7587
  185SLPC  C31421339   3.888   2.906   8.364 -0.4646 -0.5381 -0.2618
  185SLPC  H14X21340   3.966   2.984   8.360 -0.3235 -0.5636  1.4502
  185SLPC  H14Y21341   3.937   2.806   8.359  0.2434 -0.4304  2.9428
  185SLPC  C31521342   3.810   2.911   8.500 -0.1423 -0.3763  0.1463
  185SLPC  H15X21343   3.711   2.862   8.489  0.3208 -1.5683  1.1360
  185SLPC  H15Y21344   3.782   3.018   8.514 -0.0325 -0.1239 -1.3440
  185SLPC  C31621345   3.885   2.861   8.625 -0.2151 -0.1617  0.2138
  185SLPC  H16X21346   3.992   2.889   8.613 -0.4948  1.3640  1.0477
  185SLPC  H16Y21347   3.874   2.753   8.603 -0.6596  0.0286 -0.5229
  185SLPC  C31721348   3.815   2.898   8.750  0.2393  0.1391 -0.3519
  185SLPC  H17X21349   3.866   2.842   8.832 -1.0911 -0.7074 -0.0598
  185SLPC  H17Y21350   3.709   2.864   8.743 -0.6555  3.0587 -2.8619
  185SLPC  C31821351   3.808   3.048   8.788 -0.1718  0.4416 -0.4209
  185SLPC  H18X21352   3.737   3.110   8.729  0.2828  0.0916 -1.3547
  185SLPC  H18Y21353   3.909   3.091   8.770  0.1355 -0.8072 -1.8469
  185SLPC  H18Z21354   3.787   3.067   8.895  1.6350 -0.1604  0.0728
  186SLPC     N21355   3.612   6.168   6.498  0.1201  0.1575  0.4303
  186SLPC   C1321356   3.720   6.275   6.507  0.0296 -0.6317  0.6488
  186SLPC  H13A21357   3.683   6.372   6.475 -0.0127 -1.4099 -1.8410
  186SLPC  H13B21358   3.773   6.294   6.599  2.1747  2.1367 -0.9720
  186SLPC  H13C21359   3.790   6.242   6.431 -2.5750  1.5401 -3.0210
  186SLPC   C1421360   3.668   6.029   6.526  0.3567  0.0511 -0.0138
  186SLPC  H14A21361   3.738   5.998   6.450  0.3081 -1.0371  0.3772
  186SLPC  H14B21362   3.708   6.027   6.627  0.9753 -0.5086 -0.2620
  186SLPC  H14C21363   3.588   5.959   6.510 -0.9225  1.5792 -0.6261
  186SLPC   C1521364   3.565   6.170   6.357  0.5173  0.3083  0.3133
  186SLPC  H15A21365   3.641   6.131   6.292 -0.2631  0.2140 -0.5672
  186SLPC  H15B21366   3.475   6.111   6.345 -0.4578  1.5442  1.2848
  186SLPC  H15C21367   3.548   6.271   6.321  1.0789  0.3988  0.2887
  186SLPC   C1221368   3.499   6.190   6.593 -0.3330 -0.1470 -0.7838
  186SLPC  H12A21369   3.529   6.162   6.692  0.3094  0.0748 -0.9117
  186SLPC  H12B21370   3.425   6.117   6.563  0.2726 -0.8195 -0.6497
  186SLPC   C1121371   3.425   6.324   6.587  0.0679 -0.2456 -0.5287
  186SLPC  H11A21372   3.499   6.403   6.612  0.0350 -0.8700  1.7592
  186SLPC  H11B21373   3.360   6.331   6.677 -0.8035  0.4991 -1.2090
  186SLPC     P21374   3.223   6.295   6.432 -0.1810  0.0211  0.1886
  186SLPC   O1321375   3.159   6.377   6.326  0.8100 -0.4966  0.4633
  186SLPC   O1421376   3.252   6.149   6.405 -0.6500 -0.0911  0.0475
  186SLPC   O1221377   3.356   6.358   6.465 -0.6334 -0.4090  0.8657
  186SLPC   O1121378   3.145   6.301   6.573  0.2051  0.0478 -0.3102
  186SLPC    C121379   3.122   6.438   6.618 -0.1056 -0.2967 -0.1974
  186SLPC    HA21380   3.209   6.506   6.599 -1.6580  1.9491  0.2560
  186SLPC    HB21381   3.040   6.482   6.556 -0.1865 -2.0390 -1.3874
  186SLPC    C221382   3.077   6.466   6.763  0.1659  0.4768  0.6321
  186SLPC    HS21383   3.164   6.459   6.832 -0.7068 -0.4629  1.6664
  186SLPC   O2121384   2.980   6.371   6.800 -0.4517 -0.6122 -0.3066
  186SLPC   C2121385   2.978   6.335   6.937 -0.4689  0.2346 -0.3941
  186SLPC   O2221386   3.063   6.373   7.017  0.4896 -0.1691 -0.1760
  186SLPC   C2221387   2.858   6.247   6.974  0.3716  0.2030 -0.2457
  186SLPC   H2R21388   2.781   6.294   6.908  0.5967  1.2994  0.2461
  186SLPC   H2S21389   2.892   6.146   6.941 -0.4008 -0.6079  1.3492
  186SLPC    C321390   3.021   6.610   6.788  0.2142  0.7537 -0.0016
  186SLPC    HX21391   2.943   6.621   6.709  0.8935 -2.1797 -1.2079
  186SLPC    HY21392   3.100   6.686   6.772 -0.2995  2.2071  3.4862
  186SLPC   O3121393   2.962   6.629   6.918  0.1459  0.7929  0.1209
  186SLPC   C3121394   3.047   6.677   7.018  0.0929  0.2497  1.0135
  186SLPC   O3221395   3.157   6.720   6.996  0.1112 -0.3510 -0.7057
  186SLPC   C3221396   2.971   6.687   7.149 -0.1447  0.0635 -0.0671
  186SLPC   H2X21397   2.929   6.586   7.164  0.7141 -0.1887  0.6763
  186SLPC   H2Y21398   2.894   6.766   7.133 -1.1696 -0.5514  1.5949
  186SLPC   C2321399   2.810   6.260   7.120  0.2900  0.1785  0.0413
  186SLPC   H3R21400   2.818   6.368   7.147 -2.2703 -0.3165  3.3668
  186SLPC   H3S21401   2.874   6.194   7.182 -0.2921 -2.2173 -1.7929
  186SLPC   C2421402   2.661   6.224   7.130  0.2670 -0.0091  0.1062
  186SLPC   H4R21403   2.651   6.116   7.105  3.5471 -0.4084  0.0791
  186SLPC   H4S21404   2.591   6.278   7.063  0.1176 -1.3115 -0.8157
  186SLPC   C2521405   2.611   6.246   7.275 -0.6065 -0.1673 -0.1897
  186SLPC   H5R21406   2.501   6.235   7.264 -0.7420 -0.0776  0.9409
  186SLPC   H5S21407   2.647   6.347   7.302  2.0969 -0.4502 -2.3066
  186SLPC   C2621408   2.664   6.141   7.376  0.1263  0.1485 -0.2493
  186SLPC   H6R21409   2.775   6.148   7.384  0.2315 -1.9479  0.7307
  186SLPC   H6S21410   2.633   6.045   7.330 -0.5719  0.8731 -1.3397
  186SLPC   C2721411   2.602   6.154   7.516 -0.0455  0.1216  0.3393
  186SLPC   H7R21412   2.494   6.130   7.503  0.3343 -0.7688 -1.5897
  186SLPC   H7S21413   2.608   6.261   7.544  1.5400  0.7849 -2.2524
  186SLPC   C2821414   2.673   6.058   7.614 -0.5136 -0.2111  0.3922
  186SLPC   H8R21415   2.689   5.962   7.561  1.2154  0.3165 -0.1113
  186SLPC   H8S21416   2.603   6.041   7.698 -0.7442 -0.0771  0.2298
  186SLPC   C2921417   2.806   6.097   7.664  0.5219 -0.8414 -0.0504
  186SLPC   H9R21418   2.890   6.088   7.593  0.4628 -0.4962 -0.1676
  186SLPC  C21021419   2.846   6.139   7.784  1.0359 -0.0291 -0.5627
  186SLPC  H10R21420   2.952   6.167   7.794  0.6878  1.1597 -0.0069
  186SLPC  C21121421   2.768   6.157   7.911 -0.0026 -0.3634 -0.0653
  186SLPC  H11R21422   2.672   6.210   7.892 -1.1735 -2.0090  0.9454
  186SLPC  H11S21423   2.830   6.224   7.974  0.5802 -1.2229  0.2774
  186SLPC  C21221424   2.746   6.030   7.997 -1.0888 -0.6301 -0.0964
  186SLPC  H12R21425   2.833   5.963   8.004  0.8616  1.6985 -0.5174
  186SLPC  C21321426   2.644   6.011   8.080 -0.4023  0.5043  0.2953
  186SLPC  H13R21427   2.652   5.914   8.133  0.3908  0.1105 -0.5113
  186SLPC  C21421428   2.524   6.097   8.105  0.0122  0.3265  0.3741
  186SLPC  H14R21429   2.430   6.054   8.064  0.5046  0.0115 -0.4655
  186SLPC  H14S21430   2.531   6.190   8.045  0.0122  1.5236  2.1558
  186SLPC  C21521431   2.503   6.134   8.250 -0.2468  0.4899  0.5494
  186SLPC  H15R21432   2.411   6.196   8.263 -1.0675 -0.1698 -1.5496
  186SLPC  H15S21433   2.581   6.198   8.295 -2.3992  2.8743  1.1250
  186SLPC  C21621434   2.479   6.015   8.343 -0.5539  0.3482 -0.2168
  186SLPC  H16R21435   2.487   6.041   8.451  3.3693  0.5451 -0.4052
  186SLPC  H16S21436   2.565   5.947   8.327  0.6313  1.4674  1.1087
  186SLPC  C21721437   2.348   5.938   8.321 -0.8754  0.1823 -0.2329
  186SLPC  H17R21438   2.342   5.911   8.214 -0.5266 -0.6094 -0.0626
  186SLPC  H17S21439   2.266   6.007   8.351 -2.1345 -1.7610  0.9869
  186SLPC  C21821440   2.335   5.808   8.407 -0.6964 -0.9109  0.5790
  186SLPC  H18R21441   2.232   5.767   8.402 -0.4292 -1.5726  0.3639
  186SLPC  H18S21442   2.369   5.817   8.512  0.7929 -0.6323  0.0982
  186SLPC  H18T21443   2.392   5.732   8.349  2.0864  1.1457  0.4235
  186SLPC   C3321444   3.058   6.724   7.277  0.4856 -0.1254  0.1657
  186SLPC   H3X21445   3.150   6.663   7.290 -0.8980 -1.8986  2.4490
  186SLPC   H3Y21446   3.004   6.700   7.371  0.3987  1.0643  0.4386
  186SLPC   C3421447   3.108   6.873   7.287  0.3849 -0.0515  0.1760
  186SLPC   H4X21448   3.025   6.946   7.276 -0.1053 -0.1220  2.7403
  186SLPC   H4Y21449   3.182   6.877   7.204 -2.3610 -1.9887 -2.6215
  186SLPC   C3521450   3.190   6.900   7.410 -0.6488 -0.0896 -0.7091
  186SLPC   H5X21451   3.221   7.007   7.405  1.1759 -0.4993  0.7240
  186SLPC   H5Y21452   3.284   6.842   7.410 -0.3678  0.3631 -0.4316
  186SLPC   C3621453   3.099   6.896   7.534 -0.3709  0.7141 -0.0534
  186SLPC   H6X21454   3.031   6.809   7.543 -1.0439  1.3322  1.1025
  186SLPC   H6Y21455   3.049   6.993   7.552 -1.2063  0.5404 -1.3548
  186SLPC   C3721456   3.184   6.873   7.662 -0.1521  0.1550  0.0130
  186SLPC   H7X21457   3.251   6.961   7.662  0.6583 -0.4547  0.1133
  186SLPC   H7Y21458   3.248   6.784   7.646  0.3386  0.2989  1.0658
  186SLPC   C3821459   3.110   6.863   7.794 -0.0419  0.3129 -0.6051
  186SLPC   H8X21460   3.028   6.789   7.778 -1.8696  2.1425 -0.1204
  186SLPC   H8Y21461   3.057   6.956   7.825 -1.4320 -1.2960  2.2726
  186SLPC   C3921462   3.196   6.822   7.913 -0.5657 -0.2341  0.5440
  186SLPC   H9X21463   3.275   6.898   7.930 -1.5332  0.8279  0.4206
  186SLPC   H9Y21464   3.242   6.723   7.894  0.1318 -0.3009  2.4281
  186SLPC  C31021465   3.112   6.789   8.044  0.0758 -0.3769  0.4272
  186SLPC  H10X21466   3.162   6.726   8.121  2.9241  2.1449  0.8429
  186SLPC  H10Y21467   3.017   6.742   8.010  0.6362 -1.5365  0.4157
  186SLPC  C31121468   3.081   6.922   8.112  0.6129 -0.0599  0.0754
  186SLPC  H11X21469   3.001   6.900   8.186 -0.2409 -0.6470 -0.9959
  186SLPC  H11Y21470   3.033   6.984   8.033 -0.2602 -0.4400  0.2926
  186SLPC  C31221471   3.198   7.006   8.176 -0.4498 -0.1944  0.2687
  186SLPC  H12X21472   3.260   7.048   8.094  0.9455  0.3992  1.5752
  186SLPC  H12Y21473   3.271   6.953   8.241  0.8485  1.6813  0.4214
  186SLPC  C31321474   3.151   7.124   8.272 -0.1494  0.0165 -0.1348
  186SLPC  H13X21475   3.096   7.196   8.207  1.1579  0.2970 -0.9747
  186SLPC  H13Y21476   3.248   7.177   8.286 -0.3795  1.4897 -3.3005
  186SLPC  C31421477   3.073   7.084   8.400 -0.4341 -0.0173 -0.2202
  186SLPC  H14X21478   3.069   6.973   8.401 -0.5062 -0.0178 -0.6054
  186SLPC  H14Y21479   2.975   7.134   8.389 -0.4136 -0.5077 -3.7832
  186SLPC  C31521480   3.151   7.141   8.525  0.9144  0.8546  0.0054
  186SLPC  H15X21481   3.260   7.118   8.520  0.9989  1.4931 -1.4864
  186SLPC  H15Y21482   3.098   7.084   8.605 -1.1203  1.3641 -0.9209
  186SLPC  C31621483   3.139   7.291   8.541 -0.8243 -0.7765  0.3400
  186SLPC  H16X21484   3.047   7.322   8.486  0.7431 -1.9027 -3.2180
  186SLPC  H16Y21485   3.231   7.328   8.492  0.0045 -2.8903  0.2037
  186SLPC  C31721486   3.148   7.346   8.687 -0.0023  0.1460 -0.8521
  186SLPC  H17X21487   3.180   7.453   8.690 -1.1435  0.4688  0.4259
  186SLPC  H17Y21488   3.230   7.290   8.737 -0.1249  1.6752  1.2208
  186SLPC  C31821489   3.026   7.303   8.770  0.7664  0.6100 -0.2786
  186SLPC  H18X21490   3.030   7.344   8.874 -0.7071 -0.8390  0.3961
  186SLPC  H18Y21491   3.019   7.192   8.766  0.6463  0.5515  0.9631
  186SLPC  H18Z21492   2.948   7.339   8.701  1.8901  2.2446 -0.7520
  187SLPC     N21493   3.939   2.628   6.045 -0.4611  0.4002 -0.2719
  187SLPC   C1321494   4.042   2.739   6.012  0.1767 -1.1070  0.1075
  187SLPC  H13A21495   4.026   2.823   6.078  2.0631 -0.5935 -0.0260
  187SLPC  H13B21496   4.138   2.696   6.037  0.3142 -1.5445 -1.0743
  187SLPC  H13C21497   4.032   2.764   5.907 -0.3313 -1.5952  0.0338
  187SLPC   C1421498   3.974   2.509   5.959 -0.0909  0.9487  0.1390
  187SLPC  H14A21499   3.948   2.520   5.855  1.4268 -0.3045 -0.4038
  187SLPC  H14B21500   4.074   2.470   5.972 -1.1795 -2.1315 -0.1018
  187SLPC  H14C21501   3.906   2.429   5.983  1.3610 -0.6833 -0.9241
  187SLPC   C1521502   3.805   2.672   6.006 -0.0051 -0.4670  0.5349
  187SLPC  H15A21503   3.765   2.732   6.086  2.2144  0.4383  1.0242
  187SLPC  H15B21504   3.804   2.731   5.915  0.6431  1.4878  1.7445
  187SLPC  H15C21505   3.733   2.593   5.990  0.0688 -0.4756  0.2402
  187SLPC   C1221506   3.937   2.596   6.194  0.2472 -0.0908  0.1754
  187SLPC  H12A21507   3.938   2.685   6.255  1.1387 -0.6732  1.0539
  187SLPC  H12B21508   4.035   2.550   6.206 -1.1719 -3.5471 -0.2424
  187SLPC   C1121509   3.830   2.506   6.250 -0.5625 -0.2350  0.3509
  187SLPC  H11A21510   3.733   2.558   6.262 -0.8574 -0.5087 -0.7634
  187SLPC  H11B21511   3.861   2.481   6.354 -0.5044 -3.4799 -0.3608
  187SLPC     P21512   3.883   2.243   6.235  0.1822 -0.3939  0.3727
  187SLPC   O1321513   3.850   2.126   6.141  0.0706 -0.2744  0.2396
  187SLPC   O1421514   4.024   2.271   6.245 -0.3819 -0.0722 -0.6104
  187SLPC   O1221515   3.811   2.378   6.184  0.3282 -1.2748  0.3462
  187SLPC   O1121516   3.824   2.218   6.385 -0.5625  0.1906  0.1004
  187SLPC    C121517   3.686   2.276   6.416 -1.1763 -0.5708 -0.0692
  187SLPC    HA21518   3.697   2.378   6.458 -0.9111 -0.9091  0.6982
  187SLPC    HB21519   3.624   2.294   6.325 -1.6414  2.9071  0.7739
  187SLPC    C221520   3.609   2.196   6.520 -0.0322 -0.7915 -0.0879
  187SLPC    HS21521   3.521   2.261   6.537  2.1943  1.7995  2.7361
  187SLPC   O2121522   3.688   2.193   6.647  0.1289  0.4016  0.3015
  187SLPC   C2121523   3.611   2.167   6.756 -0.3344 -0.6637 -0.4026
  187SLPC   O2221524   3.489   2.156   6.754 -0.5123 -0.2642  0.4383
  187SLPC   C2221525   3.696   2.168   6.888 -0.0929  0.1394  0.3473
  187SLPC   H2R21526   3.778   2.096   6.869  1.6239  1.8608  0.8552
  187SLPC   H2S21527   3.747   2.267   6.888  0.2942 -0.0558  0.3053
  187SLPC    C321528   3.579   2.060   6.452  0.7227 -0.8838 -0.1556
  187SLPC    HX21529   3.560   2.077   6.344  0.1081  0.6488  0.1772
  187SLPC    HY21530   3.494   2.010   6.502 -1.2224  1.3782 -1.0422
  187SLPC   O3121531   3.688   1.975   6.439 -0.1179 -0.1927  0.4415
  187SLPC   C3121532   3.721   1.891   6.531 -0.5970 -0.5767 -0.8983
  187SLPC   O3221533   3.652   1.870   6.632 -0.3177  0.2051 -0.5891
  187SLPC   C3221534   3.853   1.811   6.493  1.0041  0.1311  0.1141
  187SLPC   H2X21535   3.929   1.892   6.494  1.1516  0.0523 -1.5006
  187SLPC   H2Y21536   3.831   1.767   6.393 -1.6136 -0.0611  0.6968
  187SLPC   C2321537   3.618   2.159   7.017 -0.2189  0.7501  0.2131
  187SLPC   H3R21538   3.532   2.091   6.999  1.3528 -2.0764  2.5366
  187SLPC   H3S21539   3.586   2.261   7.046  2.3641  1.7520 -0.1515
  187SLPC   C2421540   3.700   2.105   7.137 -0.4116 -0.2226 -0.0537
  187SLPC   H4R21541   3.764   2.023   7.099 -1.0821 -0.6554 -0.2610
  187SLPC   H4S21542   3.627   2.074   7.214  0.6524  1.4499  1.7219
  187SLPC   C2521543   3.790   2.207   7.203  0.2292  0.2434  0.1412
  187SLPC   H5R21544   3.720   2.284   7.242 -1.3395 -0.9090 -0.2716
  187SLPC   H5S21545   3.847   2.258   7.123 -2.8488 -0.3959 -2.6887
  187SLPC   C2621546   3.878   2.150   7.310 -0.1872 -0.1086  0.3371
  187SLPC   H6R21547   3.936   2.236   7.351  2.1437 -0.6627 -1.5757
  187SLPC   H6S21548   3.944   2.071   7.267 -2.7478 -3.0753  1.4802
  187SLPC   C2721549   3.803   2.078   7.418  0.4759  0.7457  0.3939
  187SLPC   H7R21550   3.880   2.040   7.489 -1.7168  1.0279  3.1292
  187SLPC   H7S21551   3.733   1.996   7.390 -1.3732  1.7386  1.8401
  187SLPC   C2821552   3.710   2.180   7.494 -0.6942  0.2601 -0.0071
  187SLPC   H8R21553   3.634   2.204   7.416  0.1530  1.6168 -0.4331
  187SLPC   H8S21554   3.757   2.278   7.513  1.4234 -0.6273 -0.4626
  187SLPC   C2921555   3.636   2.138   7.624 -0.0479  0.0777  0.0300
  187SLPC   H9R21556   3.527   2.125   7.611  0.0624 -1.0896  0.1103
  187SLPC  C21021557   3.696   2.134   7.749  0.4111  0.5336 -0.2666
  187SLPC  H10R21558   3.638   2.109   7.839 -0.2092  2.2366 -0.1484
  187SLPC  C21121559   3.839   2.163   7.785  0.0746  0.2332  0.0098
  187SLPC  H11R21560   3.838   2.234   7.871 -2.2236 -0.2604  0.4435
  187SLPC  H11S21561   3.887   2.221   7.703  0.1514 -0.2669 -0.3041
  187SLPC  C21221562   3.925   2.040   7.800  0.7753 -0.1292  0.6048
  187SLPC  H12R21563   3.984   2.005   7.714  1.3373 -0.3972  1.0858
  187SLPC  C21321564   3.957   1.978   7.912  0.6154  0.0851 -0.8368
  187SLPC  H13R21565   4.032   1.898   7.907  0.2296 -0.2850 -0.6628
  187SLPC  C21421566   3.910   2.014   8.052 -0.9204 -0.2805 -0.0563
  187SLPC  H14R21567   3.811   1.965   8.065 -0.7670 -0.6116 -0.1222
  187SLPC  H14S21568   3.891   2.123   8.058  3.6323  0.6815  0.5620
  187SLPC  C21521569   4.017   1.978   8.160 -0.4920 -0.0713  0.9527
  187SLPC  H15R21570   3.982   2.020   8.256 -0.3413  0.1550  0.9110
  187SLPC  H15S21571   4.103   2.039   8.125 -0.9428  0.6555  1.1019
  187SLPC  C21621572   4.045   1.826   8.183 -0.3889  0.3296  0.6421
  187SLPC  H16R21573   4.080   1.766   8.097 -0.1999  0.3657  0.6951
  187SLPC  H16S21574   3.946   1.792   8.220 -0.0742  0.5720  1.7569
  187SLPC  C21721575   4.156   1.806   8.292 -0.0266  0.1121  0.2094
  187SLPC  H17R21576   4.172   1.701   8.322 -0.0584 -0.1508 -0.6917
  187SLPC  H17S21577   4.141   1.863   8.387 -0.7898  0.2151  0.0353
  187SLPC  C21821578   4.295   1.854   8.232  0.7264 -0.1903  0.1725
  187SLPC  H18R21579   4.297   1.964   8.223  1.1028 -0.3103 -1.6754
  187SLPC  H18S21580   4.311   1.809   8.131  0.1664 -0.9944  0.4301
  187SLPC  H18T21581   4.375   1.812   8.295  0.1889 -1.6284 -0.0463
  187SLPC   C3321582   3.893   1.690   6.584  0.0404  0.5650  0.6151
  187SLPC   H3X21583   3.977   1.629   6.545 -0.0696 -0.6057  2.1289
  187SLPC   H3Y21584   3.801   1.628   6.581  0.0722  0.5066  0.8232
  187SLPC   C3421585   3.918   1.723   6.733  0.5720  0.4381  0.1988
  187SLPC   H4X21586   3.928   1.626   6.788  0.0161  0.4381  0.3017
  187SLPC   H4Y21587   3.833   1.777   6.779 -1.2552 -1.0188 -1.3323
  187SLPC   C3521588   4.041   1.807   6.750  0.0782 -0.0416 -0.3787
  187SLPC   H5X21589   4.029   1.907   6.704 -0.6159  0.7274  1.4096
  187SLPC   H5Y21590   4.136   1.766   6.710  0.6136  0.1373  0.6811
  187SLPC   C3621591   4.071   1.826   6.901 -0.0700 -0.5346  1.0613
  187SLPC   H6X21592   3.976   1.860   6.948  1.5505  1.3821  3.2404
  187SLPC   H6Y21593   4.141   1.912   6.901  0.3540 -0.8577 -0.4805
  187SLPC   C3721594   4.125   1.705   6.981  0.2662  0.1708 -0.4201
  187SLPC   H7X21595   4.058   1.618   6.964 -0.4213  0.3023  1.4333
  187SLPC   H7Y21596   4.225   1.686   6.935  0.1406 -1.9494  0.0849
  187SLPC   C3821597   4.154   1.733   7.128 -0.4556  0.6267 -0.0788
  187SLPC   H8X21598   4.064   1.780   7.172 -1.4265  2.1072 -3.3298
  187SLPC   H8Y21599   4.235   1.806   7.151  0.7344 -0.7255  0.1676
  187SLPC   C3921600   4.190   1.599   7.201 -0.2078  0.2659 -0.8926
  187SLPC   H9X21601   4.285   1.562   7.158  0.9644  1.3973  0.6181
  187SLPC   H9Y21602   4.102   1.532   7.192 -1.1072  1.3774 -0.6631
  187SLPC  C31021603   4.233   1.615   7.351  0.5725 -0.1013  0.0368
  187SLPC  H10X21604   4.146   1.665   7.399  2.2484  1.8026  1.2633
  187SLPC  H10Y21605   4.311   1.694   7.352 -0.5170  1.1641 -2.9118
  187SLPC  C31121606   4.270   1.491   7.435 -0.0788 -0.3326  0.2142
  187SLPC  H11X21607   4.359   1.440   7.393  0.7038  0.9848  0.2146
  187SLPC  H11Y21608   4.191   1.413   7.428 -1.5351  1.1991 -1.9350
  187SLPC  C31221609   4.299   1.527   7.582 -0.1744  0.2940 -1.1766
  187SLPC  H12X21610   4.332   1.631   7.602  1.7218 -0.6890  1.4848
  187SLPC  H12Y21611   4.369   1.451   7.624 -0.5448  1.5226  1.9510
  187SLPC  C31321612   4.169   1.483   7.662 -0.4235  0.1911  1.1919
  187SLPC  H13X21613   4.152   1.374   7.648  2.8315 -0.1049 -2.0500
  187SLPC  H13Y21614   4.081   1.522   7.606  0.2453 -1.0666 -0.8387
  187SLPC  C31421615   4.173   1.540   7.806 -0.0525 -0.1212 -0.1310
  187SLPC  H14X21616   4.184   1.650   7.792 -0.5043 -0.1861 -1.0278
  187SLPC  H14Y21617   4.270   1.512   7.853  0.3373  0.9991 -0.2317
  187SLPC  C31521618   4.063   1.510   7.896 -0.4188 -0.1297 -0.3579
  187SLPC  H15X21619   3.963   1.532   7.854 -0.4576 -0.4922 -0.4578
  187SLPC  H15Y21620   4.072   1.582   7.981 -1.2443  0.0412 -0.4087
  187SLPC  C31621621   4.088   1.370   7.951  0.7353  0.1159 -0.9065
  187SLPC  H16X21622   4.194   1.357   7.982  0.1181 -1.0004  0.9409
  187SLPC  H16Y21623   4.073   1.281   7.887  2.3545 -0.6670 -0.2449
  187SLPC  C31721624   4.003   1.357   8.083  0.0736  0.6023  0.1216
  187SLPC  H17X21625   3.910   1.418   8.073  0.1005  0.5067 -0.7958
  187SLPC  H17Y21626   4.057   1.399   8.171  0.7759 -0.4681  0.2244
  187SLPC  C31821627   3.960   1.210   8.101  0.0004  0.7645  0.3458
  187SLPC  H18X21628   3.882   1.200   8.179  0.1999 -0.1047  0.4452
  187SLPC  H18Y21629   4.047   1.158   8.146 -0.7725  0.4615  1.5388
  187SLPC  H18Z21630   3.929   1.161   8.006 -1.5870  0.1742  1.1348
  188SLPC     N21631   5.382   1.307   5.966 -0.4737 -0.3379  0.1702
  188SLPC   C1321632   5.338   1.448   5.933 -0.3468  0.0551  0.1005
  188SLPC  H13A21633   5.421   1.514   5.912 -0.6578  0.3695 -0.1695
  188SLPC  H13B21634   5.259   1.443   5.859  0.7221  1.3245 -1.1687
  188SLPC  H13C21635   5.301   1.484   6.028 -0.0176 -0.1167  0.2957
  188SLPC   C1421636   5.502   1.311   6.062  0.1607 -0.2713 -0.3409
  188SLPC  H14A21637   5.576   1.386   6.036  2.0001 -1.7796  0.3999
  188SLPC  H14B21638   5.463   1.332   6.160 -1.1443 -0.7243 -0.7375
  188SLPC  H14C21639   5.553   1.218   6.081  0.2184  0.5231  4.7344
  188SLPC   C1521640   5.423   1.247   5.835  0.1936  0.0146 -0.6994
  188SLPC  H15A21641   5.478   1.323   5.782 -1.9872  2.3439  0.2338
  188SLPC  H15B21642   5.480   1.159   5.863  0.0151  0.9384  3.0206
  188SLPC  H15C21643   5.336   1.216   5.780  0.2218  0.0148 -0.7445
  188SLPC   C1221644   5.260   1.229   6.029  0.0965 -0.2773  0.3330
  188SLPC  H12A21645   5.285   1.124   6.029 -0.5643 -0.4402  0.1323
  188SLPC  H12B21646   5.167   1.251   5.978  0.6223  0.4523 -0.3325
  188SLPC   C1121647   5.228   1.257   6.178 -0.0327 -0.2290  0.4696
  188SLPC  H11A21648   5.317   1.237   6.241 -0.3568 -1.9137  0.4489
  188SLPC  H11B21649   5.155   1.181   6.211 -2.2765  2.3809  1.9345
  188SLPC     P21650   5.036   1.438   6.175 -0.3979 -0.3583 -0.2014
  188SLPC   O1321651   5.042   1.571   6.113 -0.5260 -0.3513 -0.1773
  188SLPC   O1421652   4.956   1.334   6.107 -0.6175  0.1206  0.2659
  188SLPC   O1221653   5.173   1.386   6.197 -0.6291 -0.3514 -0.0465
  188SLPC   O1121654   4.987   1.456   6.324 -0.1643  0.0078 -0.4225
  188SLPC    C121655   4.998   1.348   6.417 -0.3294 -0.4327 -0.0891
  188SLPC    HA21656   5.058   1.263   6.377 -1.2138 -0.4256 -1.4809
  188SLPC    HB21657   5.052   1.389   6.506 -1.0316 -0.8601  0.5489
  188SLPC    C221658   4.870   1.280   6.455 -0.3203 -0.1106  0.1511
  188SLPC    HS21659   4.825   1.237   6.363  0.7866 -0.2129 -0.3590
  188SLPC   O2121660   4.782   1.373   6.519 -0.5112 -0.0525 -0.5710
  188SLPC   C2121661   4.659   1.370   6.466  0.1142  0.5493  0.0032
  188SLPC   O2221662   4.613   1.281   6.391  0.3194  0.4353 -0.2839
  188SLPC   C2221663   4.589   1.496   6.510  0.2385 -0.8173 -0.0299
  188SLPC   H2R21664   4.660   1.580   6.523  1.4826 -1.7888 -0.3552
  188SLPC   H2S21665   4.527   1.522   6.421  0.5655  1.5235  0.3664
  188SLPC    C321666   4.893   1.168   6.558  0.2409  0.7703 -0.3875
  188SLPC    HX21667   4.939   1.084   6.501 -0.0054  1.1641 -1.1699
  188SLPC    HY21668   4.794   1.129   6.592  0.2574 -0.8964 -2.0609
  188SLPC   O3121669   4.985   1.201   6.662  0.3708 -0.5930  0.1591
  188SLPC   C3121670   4.944   1.251   6.777  0.3995  0.3442 -0.0215
  188SLPC   O3221671   4.823   1.268   6.807 -0.2050  0.1791  0.5038
  188SLPC   C3221672   5.060   1.300   6.858 -0.0375 -0.2371 -0.2661
  188SLPC   H2X21673   5.048   1.409   6.877  0.4622 -0.1012 -0.7367
  188SLPC   H2Y21674   5.153   1.281   6.802 -0.2075 -1.6933 -0.0893
  188SLPC   C2321675   4.473   1.485   6.621 -0.5766  0.0699 -0.2609
  188SLPC   H3R21676   4.413   1.397   6.589  2.3912 -1.8798 -0.8896
  188SLPC   H3S21677   4.409   1.575   6.633  0.7566  0.7150  3.3008
  188SLPC   C2421678   4.529   1.452   6.756 -0.1629 -0.0029 -0.3508
  188SLPC   H4R21679   4.635   1.486   6.757  0.6799 -2.3138 -1.2917
  188SLPC   H4S21680   4.546   1.342   6.766 -0.2578 -0.0576 -0.7401
  188SLPC   C2521681   4.455   1.497   6.881 -0.2447 -0.8094 -0.3857
  188SLPC   H5R21682   4.373   1.425   6.901  0.7334 -2.0360 -0.7187
  188SLPC   H5S21683   4.410   1.594   6.851  1.0078 -0.2952 -0.6691
  188SLPC   C2621684   4.554   1.517   6.995 -0.0935 -0.4354 -0.0250
  188SLPC   H6R21685   4.502   1.576   7.074 -1.3992  0.4787 -1.4888
  188SLPC   H6S21686   4.642   1.565   6.947 -1.2557  2.0831  0.1843
  188SLPC   C2721687   4.588   1.379   7.052 -0.5449 -0.1435 -0.1453
  188SLPC   H7R21688   4.631   1.320   6.969 -1.1879  0.5398 -0.9767
  188SLPC   H7S21689   4.493   1.329   7.081 -0.6552 -0.9681 -1.8472
  188SLPC   C2821690   4.690   1.394   7.168  0.1056  0.9316  0.6663
  188SLPC   H8R21691   4.771   1.464   7.137 -0.1719  1.3014  0.7733
  188SLPC   H8S21692   4.734   1.293   7.184 -1.6645 -0.0796 -0.5484
  188SLPC   C2921693   4.630   1.437   7.301  0.0570 -0.1777  0.1735
  188SLPC   H9R21694   4.567   1.358   7.345  0.4317 -1.7926 -2.0092
  188SLPC  C21021695   4.655   1.547   7.375 -0.2670 -0.5357  0.2880
  188SLPC  H10R21696   4.596   1.567   7.465  0.3657  1.0720  0.3798
  188SLPC  C21121697   4.741   1.660   7.339 -0.0491 -0.3299  0.1546
  188SLPC  H11R21698   4.753   1.670   7.229 -2.4735 -0.7423 -0.1944
  188SLPC  H11S21699   4.847   1.641   7.367  0.5544  1.2550 -0.9041
  188SLPC  C21221700   4.706   1.794   7.393  0.5501 -0.3693 -0.0581
  188SLPC  H12R21701   4.627   1.842   7.333 -2.2324 -3.0897  1.1979
  188SLPC  C21321702   4.765   1.862   7.496 -0.0107  0.3104 -0.2511
  188SLPC  H13R21703   4.723   1.958   7.530  0.8052  0.6829 -0.2857
  188SLPC  C21421704   4.879   1.807   7.582 -0.0240  0.4154  0.0774
  188SLPC  H14R21705   4.938   1.895   7.614 -1.5729  1.2549  0.7314
  188SLPC  H14S21706   4.941   1.733   7.528 -1.4046 -1.1167  0.5069
  188SLPC  C21521707   4.832   1.729   7.709  0.7362 -0.6554 -0.2948
  188SLPC  H15R21708   4.917   1.692   7.771  0.5925 -0.5969 -0.0625
  188SLPC  H15S21709   4.775   1.636   7.685  0.2928 -0.3427 -0.4569
  188SLPC  C21621710   4.742   1.818   7.797 -0.8755  0.0954 -0.7302
  188SLPC  H16R21711   4.651   1.850   7.742  0.0397 -0.7714 -2.8293
  188SLPC  H16S21712   4.800   1.912   7.805  0.4926 -0.6348 -1.7280
  188SLPC  C21721713   4.713   1.765   7.937 -0.3823  0.3677  0.1521
  188SLPC  H17R21714   4.801   1.793   8.000  1.3608 -1.8500 -1.1546
  188SLPC  H17S21715   4.714   1.654   7.937  1.9205  0.3350 -1.0557
  188SLPC  C21821716   4.586   1.831   7.991  0.1985 -0.3678  0.5784
  188SLPC  H18R21717   4.502   1.803   7.923 -1.3411  1.4612  1.6451
  188SLPC  H18S21718   4.597   1.940   8.007  2.8282 -0.7690  1.9823
  188SLPC  H18T21719   4.555   1.790   8.089  0.7721 -0.3320  0.7789
  188SLPC   C3321720   5.066   1.221   6.996  0.0358 -0.8310  0.1268
  188SLPC   H3X21721   4.973   1.232   7.057  1.0029  0.5478  1.4345
  188SLPC   H3Y21722   5.150   1.266   7.052  0.7679 -1.4333 -0.4671
  188SLPC   C3421723   5.096   1.074   6.975  0.3699 -0.3878  0.2741
  188SLPC   H4X21724   5.205   1.077   6.954  0.3871  0.0276  0.4226
  188SLPC   H4Y21725   5.042   1.031   6.888  1.9128 -0.4348 -0.6980
  188SLPC   C3521726   5.063   0.997   7.104 -0.0058 -0.5285  0.0317
  188SLPC   H5X21727   5.068   0.886   7.097 -0.8284 -0.7056  1.6811
  188SLPC   H5Y21728   4.962   1.024   7.141  0.0076  0.6833 -0.7855
  188SLPC   C3621729   5.165   1.033   7.216  0.4803 -0.1264  0.1303
  188SLPC   H6X21730   5.166   1.141   7.241 -0.0622  0.1506 -0.9590
  188SLPC   H6Y21731   5.267   0.996   7.196 -0.2994 -3.2547  1.3907
  188SLPC   C3721732   5.124   0.958   7.350 -0.9633  0.4869  0.7871
  188SLPC   H7X21733   5.218   0.921   7.397 -0.7676 -2.7038 -1.7344
  188SLPC   H7Y21734   5.070   0.865   7.322  2.6544 -1.5989  0.1188
  188SLPC   C3821735   5.048   1.051   7.450  0.1424 -0.4265 -0.5653
  188SLPC   H8X21736   4.957   1.094   7.403 -0.9196  2.0684  3.2917
  188SLPC   H8Y21737   5.123   1.128   7.478 -0.0917 -1.4130  3.3428
  188SLPC   C3921738   5.021   0.988   7.587 -0.6403  0.0794 -0.1648
  188SLPC   H9X21739   4.999   0.880   7.575 -2.2886  0.3611  0.1505
  188SLPC   H9Y21740   4.940   1.049   7.633 -0.0046  2.5657 -2.1358
  188SLPC  C31021741   5.142   1.007   7.675 -0.2101 -0.2686  0.4464
  188SLPC  H10X21742   5.163   1.115   7.691  0.5322 -0.4086  0.4541
  188SLPC  H10Y21743   5.236   0.965   7.633  0.6633 -0.1211  2.1832
  188SLPC  C31121744   5.112   0.953   7.812  0.1302 -0.4011 -0.3461
  188SLPC  H11X21745   5.010   0.985   7.841  0.5145 -1.0539  1.8779
  188SLPC  H11Y21746   5.187   0.988   7.886 -0.3259  0.2387 -0.1775
  188SLPC  C31221747   5.110   0.799   7.812 -0.3062  0.1453 -0.4145
  188SLPC  H12X21748   5.210   0.756   7.786  0.6184  0.8685  1.7055
  188SLPC  H12Y21749   5.028   0.764   7.746 -2.0173  0.8201  1.2902
  188SLPC  C31321750   5.083   0.737   7.954  0.5317 -0.8033  0.3124
  188SLPC  H13X21751   4.991   0.772   8.005  0.5385 -1.2313  0.6274
  188SLPC  H13Y21752   5.167   0.761   8.022  2.0730  0.7978 -2.0025
  188SLPC  C31421753   5.070   0.577   7.938 -0.0260  0.3227 -0.5869
  188SLPC  H14X21754   5.159   0.539   7.883 -0.0419 -1.2365  0.4038
  188SLPC  H14Y21755   4.978   0.562   7.878  0.6942  1.0574 -1.9177
  188SLPC  C31521756   5.079   0.523   8.084 -0.0413  0.6827 -0.2961
  188SLPC  H15X21757   4.995   0.548   8.151  0.6646  0.9776  0.4910
  188SLPC  H15Y21758   5.169   0.558   8.140 -1.9465  0.2243  3.3275
  188SLPC  C31621759   5.093   0.371   8.073  0.4143  0.0625 -0.9310
  188SLPC  H16X21760   5.085   0.333   8.177  4.4953 -0.0034 -0.4800
  188SLPC  H16Y21761   5.199   0.351   8.047  1.3289  2.7544  0.3528
  188SLPC  C31721762   4.990   0.300   7.985  0.0233  0.3315 -0.6530
  188SLPC  H17X21763   5.025   0.197   7.962  2.5879  1.0433 -0.2544
  188SLPC  H17Y21764   5.005   0.330   7.879 -3.1169 -0.8547 -1.5445
  188SLPC  C31821765   4.848   0.299   8.044  0.6482  0.2306  0.3144
  188SLPC  H18X21766   4.817   0.402   8.069 -1.2792 -0.6236  1.6708
  188SLPC  H18Y21767   4.847   0.238   8.137  1.1342 -0.5419 -0.1645
  188SLPC  H18Z21768   4.778   0.254   7.970 -0.6362  0.8185  1.1459
  189SLPC     N21769   6.418   6.073   6.298 -0.4668  0.6112 -0.1551
  189SLPC   C1321770   6.314   6.114   6.397 -0.3557  1.3436  0.2249
  189SLPC  H13A21771   6.231   6.045   6.387  0.3491  0.4271  0.6259
  189SLPC  H13B21772   6.360   6.106   6.494  1.4110  3.4399 -0.3663
  189SLPC  H13C21773   6.266   6.207   6.369 -1.3665  0.4897 -1.0206
  189SLPC   C1421774   6.522   6.190   6.297 -0.5795 -0.0768 -0.4465
  189SLPC  H14A21775   6.578   6.191   6.389 -3.1133 -3.7570  1.3671
  189SLPC  H14B21776   6.589   6.192   6.212 -0.9966 -2.4684 -0.9055
  189SLPC  H14C21777   6.466   6.282   6.294  0.5091  0.6049 -0.3859
  189SLPC   C1521778   6.352   6.071   6.162  0.2007  0.2091 -0.3120
  189SLPC  H15A21779   6.295   6.161   6.145 -1.2167 -0.8814 -1.6711
  189SLPC  H15B21780   6.423   6.060   6.082  0.1745  2.5803 -0.7246
  189SLPC  H15C21781   6.282   5.989   6.160  0.1304  0.2824 -1.0040
  189SLPC   C1221782   6.471   5.934   6.330 -0.0465 -0.9051 -0.9568
  189SLPC  H12A21783   6.545   5.901   6.259  0.6095  2.7681 -2.2046
  189SLPC  H12B21784   6.395   5.857   6.326 -0.2286 -0.8043  0.2079
  189SLPC   C1121785   6.534   5.917   6.474  0.3557 -0.0908  0.3490
  189SLPC  H11A21786   6.551   5.809   6.492 -1.5584 -0.2999  1.0628
  189SLPC  H11B21787   6.457   5.942   6.549  0.5697 -2.2777  1.3684
  189SLPC     P21788   6.792   5.965   6.438  0.3461  0.1467  0.2942
  189SLPC   O1321789   6.782   5.878   6.316  0.1838 -0.7091  0.0961
  189SLPC   O1421790   6.867   6.091   6.423  0.3514 -0.0699  0.1507
  189SLPC   O1221791   6.647   6.000   6.502 -0.3990 -0.4208  1.1208
  189SLPC   O1121792   6.860   5.880   6.556 -0.5799 -0.1905 -0.5065
  189SLPC    C121793   6.821   5.899   6.689 -0.1772  0.1314 -0.6993
  189SLPC    HA21794   6.716   5.865   6.699  1.3272 -5.1990  0.0364
  189SLPC    HB21795   6.890   5.833   6.746  0.5496  1.4038 -0.0600
  189SLPC    C221796   6.856   6.037   6.751  0.5446  0.0495 -0.8098
  189SLPC    HS21797   6.800   6.117   6.697  1.9481 -0.4173 -3.0738
  189SLPC   O2121798   6.994   6.065   6.736 -0.5057  0.3946 -0.1267
  189SLPC   C2121799   7.044   6.187   6.757 -0.1691 -0.0536 -0.4144
  189SLPC   O2221800   6.986   6.290   6.786 -0.7102  0.1097 -0.1068
  189SLPC   C2221801   7.195   6.169   6.760 -0.6737 -0.3725 -0.2043
  189SLPC   H2R21802   7.214   6.087   6.831  2.7245  0.5795  0.1563
  189SLPC   H2S21803   7.221   6.140   6.656  0.8596 -0.2150  0.1226
  189SLPC    C321804   6.800   6.054   6.897  0.4014 -0.3207  0.1216
  189SLPC    HX21805   6.691   6.034   6.890  0.8096 -2.0792 -3.0458
  189SLPC    HY21806   6.825   6.151   6.944  1.6780  0.0236 -1.2074
  189SLPC   O3121807   6.838   5.936   6.968  0.8173  0.7750  0.1036
  189SLPC   C3121808   6.955   5.953   7.037 -0.0838  0.2995 -0.3288
  189SLPC   O3221809   7.020   6.055   7.044 -0.0953 -0.6690  0.4950
  189SLPC   C3221810   6.981   5.825   7.110  0.3052 -0.4103  0.0147
  189SLPC   H2X21811   7.009   5.748   7.035  0.4807 -0.6928  0.3614
  189SLPC   H2Y21812   6.891   5.806   7.172  1.5892 -1.0441  1.7562
  189SLPC   C2321813   7.273   6.293   6.790 -0.1578 -0.2284 -0.0248
  189SLPC   H3R21814   7.236   6.349   6.878 -2.0654 -2.7912  0.9535
  189SLPC   H3S21815   7.257   6.361   6.703 -2.4472 -0.7910 -0.1051
  189SLPC   C2421816   7.425   6.277   6.804  0.0735 -0.5310 -0.5583
  189SLPC   H4R21817   7.468   6.379   6.805  1.1979 -0.9991  0.7939
  189SLPC   H4S21818   7.473   6.218   6.723 -3.1510 -2.0860 -1.5141
  189SLPC   C2521819   7.468   6.212   6.944 -0.0579 -0.2378  0.1028
  189SLPC   H5R21820   7.579   6.219   6.947  0.0027 -0.3986 -1.3425
  189SLPC   H5S21821   7.429   6.109   6.956 -1.2718  0.2225  0.2468
  189SLPC   C2621822   7.418   6.275   7.071 -0.5418  0.4262 -0.8206
  189SLPC   H6R21823   7.308   6.259   7.081 -0.3162 -0.2565  0.7996
  189SLPC   H6S21824   7.430   6.385   7.071  3.3900  0.1076 -0.7279
  189SLPC   C2721825   7.480   6.219   7.197  0.3154 -0.1876 -0.4814
  189SLPC   H7R21826   7.589   6.241   7.207 -0.1612  2.3110 -0.0587
  189SLPC   H7S21827   7.455   6.112   7.208 -0.5163  0.0358 -0.1144
  189SLPC   C2821828   7.429   6.295   7.317  0.6546 -0.4309 -0.3372
  189SLPC   H8R21829   7.319   6.306   7.304  0.9194 -0.2480 -2.9954
  189SLPC   H8S21830   7.460   6.401   7.328  1.7327 -0.6374 -1.1861
  189SLPC   C2921831   7.452   6.208   7.440 -0.0385 -0.6505 -0.0416
  189SLPC   H9R21832   7.418   6.103   7.440 -0.5044 -0.4986 -0.2512
  189SLPC  C21021833   7.519   6.233   7.554 -0.5413 -0.0657  0.5820
  189SLPC  H10R21834   7.518   6.157   7.634 -0.0416  2.1659  2.8578
  189SLPC  C21121835   7.576   6.368   7.587 -0.2162 -0.0574  0.6006
  189SLPC  H11R21836   7.515   6.414   7.668 -1.7008 -0.7977 -0.0646
  189SLPC  H11S21837   7.577   6.437   7.499 -0.2810  0.7964  1.2523
  189SLPC  C21221838   7.717   6.346   7.638 -0.3960  0.2834 -0.2235
  189SLPC  H12R21839   7.753   6.245   7.663  0.3944  0.9882  1.6244
  189SLPC  C21321840   7.822   6.429   7.644  0.1956  0.1124  0.5534
  189SLPC  H13R21841   7.925   6.401   7.670  0.6496 -0.3875 -1.6410
  189SLPC  C21421842   7.807   6.574   7.601  0.1605 -0.4349 -0.3351
  189SLPC  H14R21843   7.806   6.637   7.692  2.2415 -2.1826  1.0124
  189SLPC  H14S21844   7.718   6.594   7.537  0.0364 -0.6381 -0.2296
  189SLPC  C21521845   7.922   6.621   7.510  0.5429 -0.3606  0.2630
  189SLPC  H15R21846   7.909   6.557   7.420  0.7466 -2.0047  1.3592
  189SLPC  H15S21847   8.016   6.590   7.562  0.3298 -0.9107  0.3261
  189SLPC  C21621848   7.911   6.767   7.462 -0.1746 -0.5328  0.5572
  189SLPC  H16R21849   7.893   6.833   7.549 -1.5400  0.7626 -0.6574
  189SLPC  H16S21850   7.830   6.772   7.386  0.7441 -0.4266 -0.4605
  189SLPC  C21721851   8.032   6.825   7.378  0.0687  0.0811  0.1894
  189SLPC  H17R21852   8.023   6.777   7.278 -3.7778 -1.6812  1.2011
  189SLPC  H17S21853   8.132   6.813   7.425 -0.1847  1.0761  1.0260
  189SLPC  C21821854   8.024   6.978   7.345 -0.1530  0.0990  0.2687
  189SLPC  H18R21855   8.025   6.999   7.236 -3.4603 -1.4285 -0.2013
  189SLPC  H18S21856   8.112   7.034   7.382 -1.4022  0.9412  2.0946
  189SLPC  H18T21857   7.937   7.032   7.389  1.1117  1.3198  1.3401
  189SLPC   C3321858   7.097   5.819   7.211 -0.9716  0.1235 -0.4558
  189SLPC   H3X21859   7.181   5.883   7.177 -0.7420 -0.7121 -1.5079
  189SLPC   H3Y21860   7.133   5.715   7.216 -0.2425  0.4223  1.3211
  189SLPC   C3421861   7.056   5.866   7.351  0.8303  1.0055 -0.0917
  189SLPC   H4X21862   6.962   5.819   7.387  0.0638  0.6710 -2.3447
  189SLPC   H4Y21863   7.027   5.973   7.359 -2.0202  0.2823  0.4174
  189SLPC   C3521864   7.181   5.843   7.444  0.0735 -0.3476  0.6528
  189SLPC   H5X21865   7.266   5.888   7.388 -0.5080  0.7993  0.6594
  189SLPC   H5Y21866   7.182   5.738   7.479 -3.3914 -0.3447  1.0852
  189SLPC   C3621867   7.174   5.925   7.571  0.7459  0.4048  0.1328
  189SLPC   H6X21868   7.084   5.889   7.626  1.3587  0.5945  1.3045
  189SLPC   H6Y21869   7.140   6.030   7.552  0.7811  0.0596 -2.1415
  189SLPC   C3721870   7.292   5.912   7.656  0.6891 -0.2234 -0.8776
  189SLPC   H7X21871   7.380   5.909   7.588  0.9126 -0.5883 -0.5739
  189SLPC   H7Y21872   7.284   5.815   7.709  1.4741  1.5751  2.8253
  189SLPC   C3821873   7.308   6.029   7.752 -0.3365  0.1454 -0.0827
  189SLPC   H8X21874   7.225   6.044   7.825  0.8590  1.7316  1.0110
  189SLPC   H8Y21875   7.310   6.125   7.695 -0.8301 -0.0889 -0.5056
  189SLPC   C3921876   7.432   6.009   7.842  0.0311  0.0911  0.0374
  189SLPC   H9X21877   7.517   5.990   7.773 -0.0842  0.7302 -0.2957
  189SLPC   H9Y21878   7.418   5.923   7.910  0.8199  1.5201  2.0799
  189SLPC  C31021879   7.484   6.123   7.933 -0.7889 -0.0513 -0.2941
  189SLPC  H10X21880   7.465   6.214   7.871 -1.1397 -1.0008 -1.6225
  189SLPC  H10Y21881   7.592   6.107   7.951 -0.5304  2.7617  1.2797
  189SLPC  C31121882   7.413   6.130   8.061  0.7417  0.5120 -0.4428
  189SLPC  H11X21883   7.439   6.048   8.131 -0.3058  0.7850  0.3029
  189SLPC  H11Y21884   7.302   6.120   8.058  0.8778 -1.3644 -0.5121
  189SLPC  C31221885   7.437   6.267   8.136 -0.4137 -0.2716  0.2353
  189SLPC  H12X21886   7.373   6.345   8.090  0.8208  1.1231  0.8220
  189SLPC  H12Y21887   7.544   6.296   8.134 -0.3371 -0.5566 -1.8924
  189SLPC  C31321888   7.402   6.253   8.288 -0.0711  0.2797  0.2345
  189SLPC  H13X21889   7.436   6.343   8.343  0.2334  0.6788 -0.5916
  189SLPC  H13Y21890   7.473   6.173   8.318  0.4352 -0.1494 -1.9523
  189SLPC  C31421891   7.256   6.218   8.307 -0.2133  0.4852 -0.7310
  189SLPC  H14X21892   7.222   6.124   8.259  1.7947 -0.3951 -0.5098
  189SLPC  H14Y21893   7.193   6.297   8.261 -1.3954 -0.1113 -0.1678
  189SLPC  C31521894   7.219   6.212   8.457  0.2637  0.6986 -1.2035
  189SLPC  H15X21895   7.115   6.180   8.479  0.3212  0.8815 -0.6649
  189SLPC  H15Y21896   7.219   6.313   8.503 -0.6713  0.1944 -0.0411
  189SLPC  C31621897   7.312   6.115   8.529 -0.3892  0.0395  0.8750
  189SLPC  H16X21898   7.418   6.144   8.511 -0.4114 -0.6837 -0.5898
  189SLPC  H16Y21899   7.299   6.016   8.481  0.1067  1.1231 -1.6407
  189SLPC  C31721900   7.294   6.101   8.677  0.7178  0.7666  0.1997
  189SLPC  H17X21901   7.311   6.196   8.733  0.4128  1.5082 -0.9422
  189SLPC  H17Y21902   7.374   6.037   8.720  1.0866  1.6182  0.8185
  189SLPC  C31821903   7.150   6.057   8.708 -0.0340  0.2541  0.1687
  189SLPC  H18X21904   7.092   6.143   8.747  1.7178  0.6670  2.0197
  189SLPC  H18Y21905   7.159   5.986   8.794 -1.5928  1.7964  1.6976
  189SLPC  H18Z21906   7.093   6.014   8.623 -0.1337 -0.4624  0.5853
  190SLPC     N21907   1.491   5.955   6.139  0.2061 -0.0692  0.4583
  190SLPC   C1321908   1.556   6.049   6.240 -0.4761 -0.0229  0.0717
  190SLPC  H13A21909   1.639   6.107   6.202 -0.5018 -0.2581 -0.3460
  190SLPC  H13B21910   1.482   6.122   6.271 -1.3508 -1.0525  0.4766
  190SLPC  H13C21911   1.587   5.986   6.321  0.7111 -0.6497 -0.8477
  190SLPC   C1421912   1.591   5.851   6.104  0.1089  0.1801  0.5190
  190SLPC  H14A21913   1.569   5.815   6.005  0.7684 -2.1709  1.1819
  190SLPC  H14B21914   1.685   5.905   6.108 -0.3260  0.9370  0.9015
  190SLPC  H14C21915   1.589   5.773   6.179  0.7056  0.5896  0.9812
  190SLPC   C1521916   1.463   6.040   6.015  0.3721  0.5536 -0.3916
  190SLPC  H15A21917   1.401   6.121   6.051  0.6436 -0.2961  2.1927
  190SLPC  H15B21918   1.557   6.070   5.972  0.6882  0.9776  0.5588
  190SLPC  H15C21919   1.421   5.985   5.933  0.8156  0.0658 -0.2936
  190SLPC   C1221920   1.362   5.895   6.190  0.6020 -0.1648 -0.2237
  190SLPC  H12A21921   1.303   5.858   6.108  1.2541  1.9152 -1.7248
  190SLPC  H12B21922   1.311   5.984   6.225 -0.1065 -0.2622 -0.9934
  190SLPC   C1121923   1.346   5.781   6.298 -0.2294  0.2823  0.3609
  190SLPC  H11A21924   1.241   5.756   6.327  0.8547 -2.2400  2.5056
  190SLPC  H11B21925   1.392   5.824   6.389 -3.8079 -0.9152  3.0026
  190SLPC     P21926   1.353   5.565   6.161 -0.0336  0.0808 -0.0871
  190SLPC   O1321927   1.294   5.648   6.059  0.7229  0.2591 -0.5776
  190SLPC   O1421928   1.440   5.453   6.117  0.2650 -0.2231 -0.1416
  190SLPC   O1221929   1.421   5.659   6.273 -0.5338  0.3683 -1.0163
  190SLPC   O1121930   1.231   5.502   6.245 -0.1655  0.6563 -0.0019
  190SLPC    C121931   1.277   5.437   6.365  0.5102 -0.2251 -0.3263
  190SLPC    HA21932   1.220   5.342   6.373 -1.6746  1.1676  2.6453
  190SLPC    HB21933   1.382   5.400   6.367  0.6587  0.1980  1.3765
  190SLPC    C221934   1.249   5.515   6.497 -0.6323  0.6815 -0.0493
  190SLPC    HS21935   1.295   5.616   6.486  0.7990 -0.0984 -1.5576
  190SLPC   O2121936   1.315   5.435   6.603 -0.1193  0.3797  0.2404
  190SLPC   C2121937   1.397   5.497   6.682  0.3504  0.1071 -0.4022
  190SLPC   O2221938   1.403   5.619   6.699 -0.5203 -0.2696  0.0603
  190SLPC   C2221939   1.492   5.403   6.743 -0.0423  0.3552  0.0448
  190SLPC   H2R21940   1.484   5.303   6.696 -3.4030  0.3512  0.3760
  190SLPC   H2S21941   1.594   5.445   6.730  0.6857 -1.2527  0.3157
  190SLPC    C321942   1.097   5.529   6.538 -0.3470  0.4900 -0.2830
  190SLPC    HX21943   1.041   5.434   6.547  0.5490 -0.0659 -0.4950
  190SLPC    HY21944   1.038   5.578   6.457 -1.2241  1.7743  1.0678
  190SLPC   O3121945   1.096   5.601   6.659  0.3144  0.0541 -0.1201
  190SLPC   C3121946   1.112   5.737   6.658 -0.5793 -0.3944  0.2838
  190SLPC   O3221947   1.134   5.798   6.554  0.0670 -0.8478 -0.2315
  190SLPC   C3221948   1.105   5.796   6.794  0.8435 -0.4414  0.2491
  190SLPC   H2X21949   1.091   5.719   6.873  0.4351 -1.7402 -1.0558
  190SLPC   H2Y21950   1.009   5.851   6.799  0.8146 -0.5672  1.3022
  190SLPC   C2321951   1.477   5.386   6.893  1.3005  0.1560 -0.0127
  190SLPC   H3R21952   1.562   5.323   6.928  0.0079 -1.9287 -0.4339
  190SLPC   H3S21953   1.396   5.313   6.916  1.1895  0.3295  0.1537
  190SLPC   C2421954   1.483   5.523   6.963 -0.2111  0.8610 -0.7278
  190SLPC   H4R21955   1.399   5.592   6.941 -1.3948 -0.6482 -1.0922
  190SLPC   H4S21956   1.582   5.566   6.935  0.4291 -0.7719 -1.1352
  190SLPC   C2521957   1.472   5.497   7.118 -0.0242 -0.9275  0.6979
  190SLPC   H5R21958   1.543   5.419   7.154  0.7429 -0.1165  0.9800
  190SLPC   H5S21959   1.368   5.463   7.137 -0.6380 -0.9140 -2.1929
  190SLPC   C2621960   1.491   5.631   7.202  0.1039 -0.2617  0.0206
  190SLPC   H6R21961   1.483   5.718   7.134 -1.2933 -0.6134 -0.2927
  190SLPC   H6S21962   1.597   5.633   7.236  0.9261 -0.7175 -2.3059
  190SLPC   C2721963   1.401   5.632   7.327 -0.6075 -0.5343  0.5192
  190SLPC   H7R21964   1.400   5.526   7.358  1.4210 -1.4874 -2.2894
  190SLPC   H7S21965   1.295   5.649   7.298 -0.6845 -1.4044  0.2807
  190SLPC   C2821966   1.455   5.734   7.430 -0.1083 -0.0139 -0.5051
  190SLPC   H8R21967   1.476   5.830   7.378  0.6291 -1.1951 -2.5046
  190SLPC   H8S21968   1.555   5.704   7.468  0.1390  1.7505  0.3161
  190SLPC   C2921969   1.358   5.758   7.545 -0.5311  0.2091  0.5159
  190SLPC   H9R21970   1.265   5.810   7.519 -0.8624  0.0816  1.4228
  190SLPC  C21021971   1.385   5.753   7.676  0.2826  0.7352 -0.9485
  190SLPC  H10R21972   1.314   5.777   7.756 -0.3049  0.7874 -1.4792
  190SLPC  C21121973   1.516   5.700   7.734 -0.1165  0.2371  0.8489
  190SLPC  H11R21974   1.579   5.648   7.659  0.0649 -0.5513  1.5265
  190SLPC  H11S21975   1.499   5.641   7.827 -2.7493 -0.0500  0.2618
  190SLPC  C21221976   1.595   5.816   7.778 -1.0152 -0.0214  0.4840
  190SLPC  H12R21977   1.640   5.868   7.692 -0.1619 -1.3823  0.0569
  190SLPC  C21321978   1.602   5.870   7.902  0.5766  0.3639 -0.0760
  190SLPC  H13R21979   1.684   5.942   7.917 -0.1468  0.9747  1.0927
  190SLPC  C21421980   1.535   5.823   8.039 -0.6712 -0.2915  0.8312
  190SLPC  H14R21981   1.614   5.813   8.117 -1.0684 -2.7980  0.9999
  190SLPC  H14S21982   1.491   5.722   8.051  0.7049 -1.2137 -1.2352
  190SLPC  C21521983   1.423   5.929   8.069  0.4707 -0.3761 -0.1441
  190SLPC  H15R21984   1.353   5.953   7.986  0.6161 -0.1126 -0.1912
  190SLPC  H15S21985   1.462   6.033   8.078  1.0898 -0.6362  0.1811
  190SLPC  C21621986   1.351   5.902   8.195 -0.1525  0.0966  0.5519
  190SLPC  H16R21987   1.327   5.793   8.191  0.1125  0.0196  0.9819
  190SLPC  H16S21988   1.253   5.953   8.208 -0.2163 -0.1603  1.1282
  190SLPC  C21721989   1.441   5.924   8.319 -0.0080 -0.1417  0.7724
  190SLPC  H17R21990   1.483   6.027   8.325  2.0335 -0.9292  0.6984
  190SLPC  H17S21991   1.525   5.853   8.309  0.6639  0.7766 -0.4849
  190SLPC  C21821992   1.346   5.903   8.441  0.8984 -0.4176  0.6959
  190SLPC  H18R21993   1.398   5.902   8.540  0.6245  1.0483  0.8774
  190SLPC  H18S21994   1.301   5.801   8.439 -0.3548  0.1257  0.4614
  190SLPC  H18T21995   1.260   5.972   8.433  1.2886  0.3171  2.3197
  190SLPC   C3321996   1.227   5.884   6.841 -1.0032 -0.4588 -0.0162
  190SLPC   H3X21997   1.232   5.969   6.770  0.2341 -0.9997 -0.5974
  190SLPC   H3Y21998   1.321   5.825   6.846  0.4165  1.7038  4.2331
  190SLPC   C3421999   1.215   5.936   6.983  0.3455  1.1320  0.6732
  190SLPC   H4X22000   1.198   5.842   7.039 -1.9440 -0.2068 -2.0678
  190SLPC   H4Y22001   1.125   6.001   6.983 -0.2987  0.2816  1.6838
  190SLPC   C3522002   1.342   6.004   7.034  0.7254  0.0333  0.3214
  190SLPC   H5X22003   1.355   6.101   6.982 -1.7321  0.6543  0.7416
  190SLPC   H5Y22004   1.434   5.945   7.013  0.7327 -1.2535  3.4056
  190SLPC   C3622005   1.327   6.015   7.185 -0.6083 -0.1530 -0.5485
  190SLPC   H6X22006   1.313   5.916   7.232 -3.5770  0.2599 -0.3709
  190SLPC   H6Y22007   1.239   6.080   7.205 -1.1367 -1.5617  2.1825
  190SLPC   C3722008   1.442   6.091   7.263  0.1059 -0.9026  0.6365
  190SLPC   H7X22009   1.469   6.185   7.211 -0.0435 -0.4527  1.3694
  190SLPC   H7Y22010   1.528   6.021   7.254  1.2544  0.6642 -1.6319
  190SLPC   C3822011   1.404   6.123   7.406  0.0848 -0.2419 -0.0064
  190SLPC   H8X22012   1.373   6.034   7.466 -1.9436  0.7537  0.4892
  190SLPC   H8Y22013   1.325   6.201   7.411  2.0074  1.8193 -0.2484
  190SLPC   C3922014   1.529   6.176   7.483  0.0533  0.3425  0.2152
  190SLPC   H9X22015   1.575   6.264   7.434 -2.3109  1.9442  0.6849
  190SLPC   H9Y22016   1.605   6.100   7.454 -1.6181  0.1246 -4.6394
  190SLPC  C31022017   1.518   6.184   7.633 -0.0148  0.1784  0.4212
  190SLPC  H10X22018   1.600   6.252   7.664 -1.8303  2.3912  0.6484
  190SLPC  H10Y22019   1.519   6.082   7.677 -2.4868 -0.5497 -0.9985
  190SLPC  C31122020   1.386   6.252   7.675  0.6514  0.0122  0.8424
  190SLPC  H11X22021   1.302   6.196   7.629 -0.0208  1.4519  0.2630
  190SLPC  H11Y22022   1.396   6.353   7.631  0.2357 -0.6671 -0.8841
  190SLPC  C31222023   1.374   6.248   7.826  0.2570 -0.3845 -0.3160
  190SLPC  H12X22024   1.451   6.324   7.852  0.7098 -0.3552 -1.6505
  190SLPC  H12Y22025   1.410   6.149   7.862  0.8585  0.0160  0.2102
  190SLPC  C31322026   1.233   6.276   7.880 -0.2042  0.3504 -0.0460
  190SLPC  H13X22027   1.155   6.211   7.834 -1.5282  0.9334  1.3118
  190SLPC  H13Y22028   1.224   6.385   7.865  4.7437  1.4428  2.7574
  190SLPC  C31422029   1.225   6.251   8.025 -0.0928  0.2297 -0.4745
  190SLPC  H14X22030   1.309   6.289   8.087 -0.1183  1.6313 -1.2514
  190SLPC  H14Y22031   1.235   6.141   8.041  2.3718  0.2849 -1.2489
  190SLPC  C31522032   1.097   6.297   8.087  0.2833  0.3094  0.1188
  190SLPC  H15X22033   1.020   6.291   8.006 -0.0712 -1.6723  0.5331
  190SLPC  H15Y22034   1.105   6.403   8.117 -1.1654  0.9358 -1.5017
  190SLPC  C31622035   1.043   6.219   8.209 -0.0035 -0.5283 -0.1085
  190SLPC  H16X22036   1.051   6.111   8.182 -0.0194 -0.6516  0.3683
  190SLPC  H16Y22037   0.935   6.243   8.211 -0.1444 -1.0116 -1.1538
  190SLPC  C31722038   1.121   6.242   8.340 -0.2371  0.3860  0.6561
  190SLPC  H17X22039   1.226   6.222   8.311 -0.6950 -1.2220 -0.0063
  190SLPC  H17Y22040   1.122   6.165   8.420  1.9905 -1.3220 -0.8994
  190SLPC  C31822041   1.098   6.386   8.393  0.7882  0.1590  0.1158
  190SLPC  H18X22042   1.192   6.423   8.441  1.0573 -1.4020  0.8548
  190SLPC  H18Y22043   1.010   6.379   8.460 -0.0879  0.8027 -0.9295
  190SLPC  H18Z22044   1.061   6.458   8.317 -0.5892 -0.3039  0.3156
  191SLPC     N22045   0.609   1.816   5.835  0.4149 -0.7757  0.1524
  191SLPC   C1322046   0.688   1.899   5.744  0.3479 -0.0371 -0.3773
  191SLPC  H13A22047   0.628   1.950   5.670 -0.6159 -1.0153 -0.2916
  191SLPC  H13B22048   0.733   1.977   5.804 -0.2506 -0.3143  0.4586
  191SLPC  H13C22049   0.767   1.855   5.686  1.2667  2.2689 -0.9761
  191SLPC   C1422050   0.532   1.715   5.753 -0.0750  0.2444 -0.4265
  191SLPC  H14A22051   0.598   1.649   5.699 -0.1161  0.5376 -0.8440
  191SLPC  H14B22052   0.480   1.648   5.819  0.3688  0.4582  0.1493
  191SLPC  H14C22053   0.474   1.762   5.674  2.6101  2.6683 -1.1391
  191SLPC   C1522054   0.506   1.898   5.904  0.2450 -0.0106 -0.3953
  191SLPC  H15A22055   0.536   1.954   5.992 -3.6824  2.2611 -0.2904
  191SLPC  H15B22056   0.457   1.966   5.836 -0.1738  0.0487 -0.0393
  191SLPC  H15C22057   0.433   1.828   5.940 -0.0011 -0.6417 -2.0460
  191SLPC   C1222058   0.689   1.746   5.935 -0.4588 -0.0516 -0.0646
  191SLPC  H12A22059   0.746   1.671   5.882 -0.5530  1.8796 -3.1889
  191SLPC  H12B22060   0.627   1.703   6.011 -0.1722 -0.7668 -0.2232
  191SLPC   C1122061   0.802   1.835   6.000  0.2994  0.2860 -0.6823
  191SLPC  H11A22062   0.826   1.782   6.095 -0.5542  2.6421  0.9635
  191SLPC  H11B22063   0.743   1.923   6.035 -3.6037 -1.4370 -2.3166
  191SLPC     P22064   1.019   1.755   5.872  0.1491  0.5492  0.1958
  191SLPC   O1322065   0.961   1.663   5.770 -0.1206 -0.1647  0.7147
  191SLPC   O1422066   1.141   1.834   5.827 -0.5056  0.4087 -0.2071
  191SLPC   O1222067   0.910   1.860   5.916 -0.5523  0.1163  0.1746
  191SLPC   O1122068   1.041   1.688   6.017 -0.3303  0.3412  0.0218
  191SLPC    C122069   1.154   1.612   6.059 -0.1001 -0.1770 -0.1979
  191SLPC    HA22070   1.211   1.576   5.971  1.3977 -0.8137  0.9863
  191SLPC    HB22071   1.222   1.679   6.116 -0.3095 -0.2247  0.1065
  191SLPC    C222072   1.108   1.492   6.145  0.6236 -0.0348 -0.6348
  191SLPC    HS22073   1.032   1.428   6.095 -0.0709 -0.8562  1.3558
  191SLPC   O2122074   1.047   1.546   6.270  0.2792 -0.6523  0.1227
  191SLPC   C2122075   0.928   1.514   6.300 -0.5394  0.1555 -0.2309
  191SLPC   O2222076   0.845   1.456   6.234  0.1119 -0.3699 -0.5246
  191SLPC   C2222077   0.902   1.590   6.436  0.2043 -0.0920  0.7291
  191SLPC   H2R22078   0.999   1.614   6.483  0.3700  1.5542 -0.3525
  191SLPC   H2S22079   0.861   1.690   6.407  0.2655  0.6173  2.9057
  191SLPC    C322080   1.231   1.407   6.179 -0.3565  0.2286 -0.2982
  191SLPC    HX22081   1.309   1.457   6.241  1.7698  0.0616 -2.6708
  191SLPC    HY22082   1.289   1.390   6.086 -0.6851 -3.3943  0.0050
  191SLPC   O3122083   1.201   1.278   6.248 -0.1548  0.5771 -0.0505
  191SLPC   C3122084   1.177   1.181   6.160  0.2243 -0.1651 -1.2884
  191SLPC   O3222085   1.165   1.199   6.041 -0.7020  0.0963 -0.4378
  191SLPC   C3222086   1.153   1.048   6.232  0.3322 -0.4513  0.5452
  191SLPC   H2X22087   1.239   1.018   6.294  0.6577  0.4829  0.5650
  191SLPC   H2Y22088   1.148   0.969   6.154 -0.9703 -0.8727  1.0199
  191SLPC   C2322089   0.799   1.514   6.526  0.3519  0.6156 -0.0605
  191SLPC   H3R22090   0.830   1.407   6.524  0.1518  0.5576 -1.5073
  191SLPC   H3S22091   0.694   1.513   6.490  0.4020 -2.2563 -0.3655
  191SLPC   C2422092   0.792   1.555   6.672 -0.1858  0.6509 -0.2088
  191SLPC   H4R22093   0.706   1.501   6.717  0.6942  0.5452  1.4329
  191SLPC   H4S22094   0.778   1.663   6.693 -0.3571  0.6153 -0.1458
  191SLPC   C2522095   0.919   1.512   6.746 -0.0265  0.8416 -0.2286
  191SLPC   H5R22096   1.006   1.570   6.708  0.4365  2.3101  2.8232
  191SLPC   H5S22097   0.938   1.404   6.726 -2.1236  0.8665 -2.9947
  191SLPC   C2622098   0.895   1.525   6.900  0.2510 -0.0427  0.0911
  191SLPC   H6R22099   0.803   1.466   6.921 -0.1056 -1.1407 -3.7290
  191SLPC   H6S22100   0.888   1.632   6.926 -1.3249  0.2974 -1.5826
  191SLPC   C2722101   1.020   1.474   6.974 -0.3902  0.4108  0.1796
  191SLPC   H7R22102   1.108   1.539   6.956 -1.8987  2.3023 -0.7588
  191SLPC   H7S22103   1.039   1.367   6.954  0.4196  0.6020 -0.0730
  191SLPC   C2822104   1.000   1.480   7.131  0.0611 -0.2269 -0.0149
  191SLPC   H8R22105   1.084   1.425   7.180 -0.8108 -0.0442  1.7474
  191SLPC   H8S22106   0.900   1.438   7.153 -1.0668  2.3614  0.1765
  191SLPC   C2922107   0.996   1.622   7.172  0.5730  0.6222  0.0517
  191SLPC   H9R22108   0.999   1.704   7.099  4.1673  0.0937 -0.5538
  191SLPC  C21022109   1.002   1.650   7.302 -0.2020 -0.0727  0.1308
  191SLPC  H10R22110   1.003   1.756   7.332 -1.1676  0.1453 -0.5664
  191SLPC  C21122111   1.007   1.563   7.424  0.1490  0.1977 -0.3229
  191SLPC  H11R22112   1.056   1.617   7.508  0.3991  0.6618 -0.7617
  191SLPC  H11S22113   1.064   1.470   7.406 -0.2312  0.0125 -0.5869
  191SLPC  C21222114   0.860   1.538   7.469  0.8680 -0.3248 -0.6138
  191SLPC  H12R22115   0.794   1.490   7.395 -0.8316 -0.4359  0.8846
  191SLPC  C21322116   0.813   1.575   7.587  0.2031  0.6047 -0.1553
  191SLPC  H13R22117   0.708   1.563   7.618  1.0355 -0.5177  2.5871
  191SLPC  C21422118   0.882   1.649   7.697 -0.9315  0.0655  0.7245
  191SLPC  H14R22119   0.819   1.722   7.752 -1.2210  0.5344 -0.2046
  191SLPC  H14S22120   0.954   1.725   7.658 -1.7830  0.5797  0.1152
  191SLPC  C21522121   0.944   1.544   7.779 -0.0832  0.2654  0.5760
  191SLPC  H15R22122   1.037   1.502   7.734  1.5868  2.9201  1.3238
  191SLPC  H15S22123   0.866   1.466   7.793  1.5167 -1.5452 -0.1526
  191SLPC  C21622124   0.976   1.582   7.927 -0.6182  0.0701  0.6934
  191SLPC  H16R22125   1.057   1.659   7.923  0.2399 -0.8787 -1.8042
  191SLPC  H16S22126   1.015   1.494   7.982  0.3328  0.1875  0.2415
  191SLPC  C21722127   0.845   1.629   8.008 -0.2059 -0.2108 -0.0794
  191SLPC  H17R22128   0.764   1.555   8.020 -0.5757  0.1396 -0.3915
  191SLPC  H17S22129   0.800   1.718   7.958 -2.9875 -1.1040  0.6604
  191SLPC  C21822130   0.869   1.677   8.155  0.3685 -0.4116 -0.0105
  191SLPC  H18R22131   0.926   1.598   8.207 -0.7599 -1.4498 -0.2914
  191SLPC  H18S22132   0.767   1.690   8.198  0.5355  0.2193  0.2049
  191SLPC  H18T22133   0.924   1.774   8.154  0.0976 -0.2253  1.2543
  191SLPC   C3322134   1.020   1.043   6.306  0.8483  0.0121 -0.8823
  191SLPC   H3X22135   0.975   0.942   6.298 -0.0315  0.1333  1.6146
  191SLPC   H3Y22136   0.953   1.114   6.253  0.8724 -0.5542 -1.6868
  191SLPC   C3422137   1.039   1.076   6.459  0.4445  0.6325  0.0671
  191SLPC   H4X22138   1.098   1.168   6.481  0.4943  0.1847  1.9741
  191SLPC   H4Y22139   1.085   0.985   6.503 -0.6196  0.9729  2.0246
  191SLPC   C3522140   0.899   1.098   6.523 -0.2704  0.4531 -0.4041
  191SLPC   H5X22141   0.828   1.018   6.496 -1.9169  2.1925 -1.4522
  191SLPC   H5Y22142   0.855   1.191   6.481 -4.3964 -0.5950  1.2011
  191SLPC   C3622143   0.911   1.106   6.675 -0.4903 -0.1709 -0.4362
  191SLPC   H6X22144   0.998   1.172   6.698 -1.5596  0.7449  1.2504
  191SLPC   H6Y22145   0.934   1.005   6.714  1.4178  0.4437  0.0981
  191SLPC   C3722146   0.782   1.155   6.742  0.5753 -0.2540  0.7085
  191SLPC   H7X22147   0.695   1.088   6.727  0.3147  0.3427 -0.5381
  191SLPC   H7Y22148   0.754   1.258   6.709  1.1515 -0.0429  0.8679
  191SLPC   C3822149   0.793   1.142   6.896  0.5269  0.5760 -0.4361
  191SLPC   H8X22150   0.888   1.186   6.934 -0.0181  1.8521 -0.4966
  191SLPC   H8Y22151   0.802   1.035   6.923 -1.3221  0.6207  0.5573
  191SLPC   C3922152   0.672   1.199   6.969 -0.4272 -0.5960 -0.5994
  191SLPC   H9X22153   0.576   1.183   6.913 -1.0308 -1.1766  0.5657
  191SLPC   H9Y22154   0.678   1.309   6.983  0.1181 -0.2227 -3.2336
  191SLPC  C31022155   0.662   1.146   7.113 -0.2664  0.0446 -0.4399
  191SLPC  H10X22156   0.762   1.158   7.161 -0.5947  1.5687 -0.0896
  191SLPC  H10Y22157   0.649   1.036   7.109  0.8479 -0.0624 -1.7438
  191SLPC  C31122158   0.553   1.228   7.185 -0.5220  0.1363  0.3180
  191SLPC  H11X22159   0.458   1.204   7.134 -1.3046  1.1957  1.2180
  191SLPC  H11Y22160   0.567   1.338   7.179 -0.2136  0.2179  1.8888
  191SLPC  C31222161   0.543   1.204   7.335  0.1463 -0.3517  0.6281
  191SLPC  H12X22162   0.626   1.265   7.375  0.5103 -1.1991  1.1706
  191SLPC  H12Y22163   0.573   1.099   7.355 -0.1691 -0.4153  0.7757
  191SLPC  C31322164   0.418   1.260   7.391  0.9442 -0.4255 -0.4300
  191SLPC  H13X22165   0.330   1.205   7.350  1.0145  2.0388 -4.4497
  191SLPC  H13Y22166   0.397   1.362   7.350 -0.8619 -0.4301  0.3896
  191SLPC  C31422167   0.405   1.248   7.539 -0.0507 -0.1448  0.8581
  191SLPC  H14X22168   0.394   1.140   7.564  1.3985 -0.2093  1.3058
  191SLPC  H14Y22169   0.319   1.312   7.571 -0.1261 -0.7266  1.8657
  191SLPC  C31522170   0.518   1.318   7.623  0.0137 -0.1044  1.2179
  191SLPC  H15X22171   0.534   1.427   7.613 -2.2055  0.1042 -1.3280
  191SLPC  H15Y22172   0.613   1.276   7.583 -1.2417 -0.4856 -1.6113
  191SLPC  C31622173   0.490   1.304   7.773  0.1759  0.9902 -0.4483
  191SLPC  H16X22174   0.456   1.199   7.786  0.9721  0.3111 -3.2230
  191SLPC  H16Y22175   0.396   1.362   7.787  1.0237  1.7809  3.1106
  191SLPC  C31722176   0.602   1.343   7.875 -0.1036  0.3407  0.8703
  191SLPC  H17X22177   0.636   1.447   7.855  2.5474 -0.5645  0.2171
  191SLPC  H17Y22178   0.690   1.277   7.859  0.3943  0.8205  1.5777
  191SLPC  C31822179   0.567   1.338   8.020 -0.6251 -0.9397 -0.5459
  191SLPC  H18X22180   0.661   1.357   8.078 -0.6880 -1.1441 -0.3748
  191SLPC  H18Y22181   0.529   1.239   8.053 -4.0305  0.5322  0.3327
  191SLPC  H18Z22182   0.492   1.406   8.066  0.6754 -1.4671  2.6486
  192SLPC     N22183   2.037   2.138   6.319 -0.3813  0.1519  0.6623
  192SLPC   C1322184   2.080   2.119   6.463 -0.1424  0.0088  0.1342
  192SLPC  H13A22185   2.081   2.017   6.498 -0.4153 -0.4823 -1.2173
  192SLPC  H13B22186   2.169   2.174   6.491 -0.0962  1.3982 -2.4098
  192SLPC  H13C22187   2.006   2.165   6.527 -2.4973 -1.0992 -1.6243
  192SLPC   C1422188   2.062   2.011   6.240 -0.1858 -0.1442  0.9641
  192SLPC  H14A22189   2.032   2.028   6.138  0.1934 -0.0119  0.8725
  192SLPC  H14B22190   2.165   1.979   6.242 -0.7009 -1.8906  1.5079
  192SLPC  H14C22191   1.995   1.933   6.273  0.2009 -1.1235 -0.4821
  192SLPC   C1522192   2.121   2.249   6.260  0.2886  0.0430  0.2314
  192SLPC  H15A22193   2.114   2.338   6.320 -0.1813  0.2090 -0.0585
  192SLPC  H15B22194   2.225   2.223   6.258  0.9983  2.5036  1.2259
  192SLPC  H15C22195   2.087   2.274   6.160  0.5990  2.1140  0.6040
  192SLPC   C1222196   1.887   2.163   6.314 -0.4790  0.0749  0.1197
  192SLPC  H12A22197   1.834   2.076   6.351 -0.3526 -0.5769 -1.1654
  192SLPC  H12B22198   1.856   2.182   6.212  1.2254  2.6536 -0.0195
  192SLPC   C1122199   1.833   2.284   6.387  0.0509 -0.0549 -0.1293
  192SLPC  H11A22200   1.729   2.304   6.356  0.4365 -0.3512 -1.7150
  192SLPC  H11B22201   1.878   2.383   6.368 -0.7006  0.4151  0.5068
  192SLPC     P22202   1.749   2.327   6.631 -0.0270  0.6322 -0.0109
  192SLPC   O1322203   1.613   2.360   6.579  0.2134 -0.4277 -0.9765
  192SLPC   O1422204   1.756   2.251   6.758 -1.1528 -0.3694 -0.2611
  192SLPC   O1222205   1.839   2.250   6.526 -0.4956 -0.2985  0.0992
  192SLPC   O1122206   1.813   2.468   6.649 -0.2982  0.4149 -0.1956
  192SLPC    C122207   1.953   2.479   6.637 -0.6459 -0.0834 -0.4649
  192SLPC    HA22208   2.000   2.391   6.685 -1.5769  0.7204  2.0311
  192SLPC    HB22209   1.990   2.470   6.532 -1.6104 -0.3564 -0.7968
  192SLPC    C222210   2.003   2.601   6.712 -0.1811 -0.3080 -0.0113
  192SLPC    HS22211   2.106   2.578   6.749  0.7907  3.5546  0.1505
  192SLPC   O2122212   1.916   2.626   6.826  0.0024 -0.0105  0.2584
  192SLPC   C2122213   1.925   2.528   6.920  1.3557 -0.1149  0.0976
  192SLPC   O2222214   2.010   2.444   6.932 -0.1559 -0.1078  0.2609
  192SLPC   C2222215   1.813   2.551   7.026 -0.1659  0.1639 -0.4530
  192SLPC   H2R22216   1.763   2.649   7.013 -0.1798 -0.1833 -3.7598
  192SLPC   H2S22217   1.743   2.467   7.004 -0.2235 -0.4362  1.7377
  192SLPC    C322218   2.010   2.724   6.619 -0.3062 -0.5190  0.1753
  192SLPC    HX22219   1.905   2.760   6.606 -0.1024  0.1211  0.2373
  192SLPC    HY22220   2.052   2.689   6.522 -1.2314  2.1141 -1.2953
  192SLPC   O3122221   2.089   2.827   6.683 -0.7043  0.5465  0.2352
  192SLPC   C3122222   2.223   2.807   6.659  0.1066  0.1926  0.2235
  192SLPC   O3222223   2.273   2.720   6.594 -0.4366  0.2660 -0.5523
  192SLPC   C3222224   2.294   2.916   6.729 -0.1888 -0.1383  0.3633
  192SLPC   H2X22225   2.282   2.904   6.839  1.6996  0.0223  0.6199
  192SLPC   H2Y22226   2.264   3.019   6.697  1.8311 -0.0652 -1.5137
  192SLPC   C2322227   1.875   2.553   7.171  0.4036  0.4636  0.6921
  192SLPC   H3R22228   1.963   2.621   7.171  1.5069 -0.9308  0.0626
  192SLPC   H3S22229   1.930   2.459   7.189  0.0036 -0.6420 -2.9605
  192SLPC   C2422230   1.774   2.579   7.284 -1.0813 -0.6423 -0.2044
  192SLPC   H4R22231   1.706   2.493   7.299 -1.1756 -0.7753 -1.3003
  192SLPC   H4S22232   1.721   2.671   7.250  0.3710 -0.0162 -0.8273
  192SLPC   C2522233   1.850   2.602   7.418 -0.2387  0.0861  0.3474
  192SLPC   H5R22234   1.908   2.696   7.411 -0.1780 -0.0129 -0.6184
  192SLPC   H5S22235   1.916   2.516   7.439  0.4810  0.9752  1.8889
  192SLPC   C2622236   1.765   2.618   7.541 -0.4063 -0.0128  0.2486
  192SLPC   H6R22237   1.703   2.527   7.556  0.3611 -0.8002 -1.1580
  192SLPC   H6S22238   1.704   2.708   7.517  2.1286  2.3436  1.9558
  192SLPC   C2722239   1.857   2.651   7.654  0.8101  0.4184 -0.2958
  192SLPC   H7R22240   1.942   2.706   7.608  1.4570 -0.6530 -0.4079
  192SLPC   H7S22241   1.906   2.559   7.692  0.1871  0.0171 -0.4457
  192SLPC   C2822242   1.780   2.737   7.761 -0.6051  0.8382 -0.0118
  192SLPC   H8R22243   1.737   2.823   7.706  1.2491  0.8203 -1.5721
  192SLPC   H8S22244   1.861   2.766   7.832  0.6982 -3.6061  0.6258
  192SLPC   C2922245   1.675   2.659   7.834  0.2366 -0.5909  0.0378
  192SLPC   H9R22246   1.593   2.627   7.768  0.8348  0.1004 -1.0761
  192SLPC  C21022247   1.674   2.612   7.963 -0.0823  0.0432  0.1209
  192SLPC  H10R22248   1.588   2.547   7.986  0.4447 -0.7807 -0.1738
  192SLPC  C21122249   1.776   2.630   8.073  0.0213 -0.3315 -0.6426
  192SLPC  H11R22250   1.847   2.712   8.048 -0.7093  0.8706  1.0022
  192SLPC  H11S22251   1.838   2.540   8.093  1.2688  0.8940  1.4504
  192SLPC  C21222252   1.728   2.649   8.221  1.1026 -0.1062 -0.4339
  192SLPC  H12R22253   1.675   2.569   8.275  3.7966 -0.7440  1.4910
  192SLPC  C21322254   1.741   2.761   8.298 -0.8671 -0.3461 -0.1942
  192SLPC  H13R22255   1.711   2.746   8.402  0.9320  4.3132  1.2237
  192SLPC  C21422256   1.812   2.894   8.266  0.0505 -0.9554 -0.2135
  192SLPC  H14R22257   1.792   2.937   8.165 -0.3911  0.1784  0.3463
  192SLPC  H14S22258   1.921   2.876   8.280 -0.0624 -0.7022  1.0394
  192SLPC  C21522259   1.765   2.992   8.374 -0.5867  0.0128 -0.2811
  192SLPC  H15R22260   1.812   3.093   8.368 -2.5156  0.9967  0.4194
  192SLPC  H15S22261   1.779   2.949   8.475 -0.4973  0.0719 -0.2684
  192SLPC  C21622262   1.615   3.037   8.356 -0.1241  0.3879  0.2738
  192SLPC  H16R22263   1.547   2.949   8.348 -1.8710  1.8743 -2.7851
  192SLPC  H16S22264   1.608   3.091   8.259 -3.1882 -0.5723 -0.1408
  192SLPC  C21722265   1.584   3.131   8.475 -0.2220  0.5743 -0.5571
  192SLPC  H17R22266   1.605   3.079   8.571  1.7614  0.9786 -0.7308
  192SLPC  H17S22267   1.663   3.208   8.462  2.0989 -0.8037  3.6592
  192SLPC  C21822268   1.447   3.193   8.483 -0.6024 -0.4327  0.0835
  192SLPC  H18R22269   1.449   3.290   8.537  3.1235 -0.2557 -0.1678
  192SLPC  H18S22270   1.368   3.134   8.535  0.5829 -0.9467  1.3558
  192SLPC  H18T22271   1.401   3.214   8.384  1.4626  0.2382 -0.7771
  192SLPC   C3322272   2.446   2.913   6.696 -1.6330  0.2305 -0.1537
  192SLPC   H3X22273   2.464   2.937   6.590 -0.9721 -0.7108 -0.2657
  192SLPC   H3Y22274   2.491   2.811   6.704 -0.4271  0.5403 -2.2141
  192SLPC   C3422275   2.537   3.010   6.778  0.0050  0.6865 -0.6512
  192SLPC   H4X22276   2.508   3.114   6.750 -0.5479  0.3826 -1.2249
  192SLPC   H4Y22277   2.641   2.999   6.742 -0.5111 -0.7365 -1.7645
  192SLPC   C3522278   2.538   2.973   6.927  0.1349 -0.3663  1.3243
  192SLPC   H5X22279   2.554   2.863   6.935 -0.4224 -0.4427  1.4229
  192SLPC   H5Y22280   2.436   2.991   6.967  0.2320  1.6633  0.7363
  192SLPC   C3622281   2.645   3.052   7.005  0.0275 -0.3662 -0.2757
  192SLPC   H6X22282   2.597   3.146   7.040 -1.8116 -1.9534  1.6758
  192SLPC   H6Y22283   2.714   3.083   6.923 -0.2433 -1.1058 -0.7922
  192SLPC   C3722284   2.724   2.977   7.114  0.1523  0.1648  0.0625
  192SLPC   H7X22285   2.829   3.014   7.111 -0.1225  0.9577  0.1300
  192SLPC   H7Y22286   2.732   2.874   7.072  1.8705  0.5536 -0.6766
  192SLPC   C3822287   2.665   2.979   7.256  0.0078 -0.1142 -0.3440
  192SLPC   H8X22288   2.558   2.953   7.263 -0.0771  0.4936  0.8258
  192SLPC   H8Y22289   2.653   3.087   7.281 -2.2533 -0.6271  1.0609
  192SLPC   C3922290   2.748   2.917   7.370 -0.4649 -0.3098  0.2968
  192SLPC   H9X22291   2.847   2.967   7.367 -0.1040 -1.0523 -0.9079
  192SLPC   H9Y22292   2.770   2.814   7.336  0.5587 -0.5602  1.6599
  192SLPC  C31022293   2.689   2.932   7.510  0.2183  0.9547  0.2492
  192SLPC  H10X22294   2.611   2.856   7.532 -0.1213  1.0028 -0.7499
  192SLPC  H10Y22295   2.653   3.036   7.522  0.9892  1.5287 -1.9654
  192SLPC  C31122296   2.786   2.904   7.624  0.2252  0.8671  0.0629
  192SLPC  H11X22297   2.856   2.984   7.655 -0.1851  2.4766 -2.8301
  192SLPC  H11Y22298   2.840   2.812   7.592  0.0437  0.0560  1.9531
  192SLPC  C31222299   2.710   2.884   7.753  0.4326  0.3217 -0.3519
  192SLPC  H12X22300   2.621   2.816   7.755  0.9540 -0.3487  1.2294
  192SLPC  H12Y22301   2.682   2.985   7.788  2.8332  0.9671 -0.0979
  192SLPC  C31322302   2.798   2.841   7.878 -0.9411  0.0594 -0.0739
  192SLPC  H13X22303   2.892   2.901   7.884 -0.0564 -1.3619  0.8654
  192SLPC  H13Y22304   2.815   2.731   7.869  1.1493  0.2116  1.2964
  192SLPC  C31422305   2.740   2.867   8.020 -0.7263  0.3898  0.8280
  192SLPC  H14X22306   2.630   2.848   8.023 -0.7828  0.2379 -1.0133
  192SLPC  H14Y22307   2.749   2.975   8.041 -4.6654  0.8710  0.8196
  192SLPC  C31522308   2.794   2.790   8.132 -0.4194  0.2641  0.0512
  192SLPC  H15X22309   2.771   2.682   8.148 -2.6169  0.4939 -1.0953
  192SLPC  H15Y22310   2.760   2.845   8.222 -1.3214  2.2573 -1.4328
  192SLPC  C31622311   2.944   2.791   8.142 -0.1509 -0.5799  0.2249
  192SLPC  H16X22312   2.980   2.890   8.179 -0.4089  0.0787 -1.1906
  192SLPC  H16Y22313   2.996   2.783   8.044  1.4777  0.0681  0.9971
  192SLPC  C31722314   3.002   2.690   8.244 -0.5735 -0.3869  0.2049
  192SLPC  H17X22315   3.111   2.703   8.232 -0.4462 -0.6761  0.9488
  192SLPC  H17Y22316   2.979   2.584   8.221  0.4337 -0.4962 -0.2920
  192SLPC  C31822317   2.961   2.708   8.391 -0.4070  0.4341 -0.0300
  192SLPC  H18X22318   2.946   2.817   8.406  0.9588  0.7507 -0.7751
  192SLPC  H18Y22319   3.028   2.666   8.468 -1.9870 -2.2283  0.0121
  192SLPC  H18Z22320   2.865   2.655   8.407 -1.0620  1.5161 -0.2602
  193SOD    SOD22321   1.367   4.168   0.893  0.3043 -0.0638  0.5172
  194SOD    SOD22322   1.949   5.154  12.471  0.8199 -0.3401 -0.2447
  195SOD    SOD22323   4.653   3.196   0.714 -0.0987 -0.3837  0.2978
  196SOD    SOD22324   2.179   1.484  15.391 -0.6478 -0.2649  0.4612
  197SOD    SOD22325   6.074   3.296  15.217  0.0494  0.0303 -0.5381
  198SOD    SOD22326   6.164   3.244  11.785  0.2783 -0.1396 -0.1551
  199SOD    SOD22327   4.089   6.346  10.738  0.0417  0.1458 -0.2279
  200SOD    SOD22328   1.975   1.533  14.991 -0.3202  0.1483 -0.3374
  201SOD    SOD22329   6.197   1.019  14.639  0.0490 -0.0682 -0.4732
  202SOD    SOD22330   2.310   1.210  12.268  0.0054 -0.2898 -0.1432
  203SOD    SOD22331   4.792   1.769   4.680 -0.2776 -0.6208  0.1814
  204SOD    SOD22332   1.213   2.550  15.217 -0.1469  0.0264 -0.1282
  205SOD    SOD22333   5.581   2.792  16.304  0.0242  0.2516  0.3310
  206SOD    SOD22334   0.396   4.146   6.339 -0.1976 -0.4623  0.3121
  207SOD    SOD22335   0.760   5.473   5.006  0.3384 -0.2184 -0.1471
  208SOD    SOD22336   0.747   1.970  14.476  0.1771  0.3494 -0.6834
  209SOD    SOD22337   5.607   1.246   2.231  0.0139 -0.3759 -0.3665
  210SOD    SOD22338   0.169   3.040   4.223  0.3091  0.0680  0.4077
  211SOD    SOD22339   0.151   4.221   4.353  0.2580  0.0179  0.8714
  212SOD    SOD22340   0.478   0.547  12.952  0.1513 -0.4200 -0.6642
  213SOD    SOD22341   4.160   4.843  11.520  0.0113  0.0672  0.3288
  214SOD    SOD22342   1.781   3.678  11.353 -0.1896 -0.1458 -0.4265
  215SOD    SOD22343   2.123   1.386   6.285  0.1316 -0.0529 -0.3117
  216SOD    SOD22344   4.930   0.039   3.226 -0.1679  0.2050  0.3160
  217SOD    SOD22345   6.075   4.296  15.814 -0.1857  0.1767  0.2352
  218SOD    SOD22346   3.139   5.369   3.366 -0.1033 -0.0562 -1.0001
  219SOD    SOD22347   0.307   5.042   6.388  0.3410 -0.2020 -0.3410
  220SOD    SOD22348   2.112   3.061   3.462  0.0531 -0.9535  0.3776
  221SOD    SOD22349   2.094   5.759  12.998  0.4927  0.6062 -0.0043
  222SOD    SOD22350   0.694   0.049   5.762  0.3078 -0.1106  0.0751
  223SOD    SOD22351   5.479   0.674  11.394 -0.4342 -0.1247  0.3457
  224SOD    SOD22352   4.731   0.754   3.235  0.1369  0.1761 -0.2491
  225SOD    SOD22353   6.361   0.767   3.430  0.2438  0.0402  0.3769
  226SOD    SOD22354   3.667   3.707   6.698  0.2271  0.3473  0.2134
  227SOD    SOD22355   4.159   6.678   5.684 -0.0535 -0.1436  0.4831
  228SOD    SOD22356   4.600   4.444  15.060  0.3521  0.1884  0.3725
  229SOD    SOD22357   4.385   0.433   6.039 -0.4325 -0.0296  0.1055
  230SOD    SOD22358   2.677   3.599  12.960  0.3694  0.1618 -0.2023
  231SOD    SOD22359   0.282   4.083  13.668  0.0202  0.2404 -0.0120
  232SOD    SOD22360   3.311   5.309  10.731  0.3043  0.0619  0.1991
  233SOD    SOD22361   1.116   5.460  11.970  0.2345 -0.3564  0.6153
  234SOD    SOD22362   3.366   1.481  14.395 -0.4262  0.3409 -0.4467
  235SOD    SOD22363   3.615   2.078  15.163 -0.0804 -0.1496  0.3186
  236SOD    SOD22364   1.471   4.125  15.922 -0.2270 -0.2290 -0.2465
  237SOD    SOD22365   5.716   5.464   6.165 -0.5982 -0.4614 -0.1823
  238SOD    SOD22366   1.923   4.741   5.794  0.2357  0.0984  0.5972
  239SOD    SOD22367   4.202   4.205  16.617 -0.1114  0.2980  0.0525
  240SOD    SOD22368   2.782   1.343   4.838 -0.0485  0.1594 -0.4748
  241SOD    SOD22369   4.557   3.309   2.757  0.3196  0.1685 -0.4347
  242SOD    SOD22370   5.249   2.761  11.721 -0.2128  0.2258 -0.2165
  243SOD    SOD22371   1.338   1.090   4.805 -0.1977  0.0750  0.4166
  244SOD    SOD22372   6.542   0.256   3.209  0.1586  0.2132 -0.2484
  245SOD    SOD22373   2.063   6.054  16.214 -0.4351  0.0872  0.0714
  246SOD    SOD22374   3.134   4.877  12.506 -0.0069 -0.1024  0.2600
  247SOD    SOD22375   3.170   6.694  10.819 -0.2004 -0.0056 -0.3971
  248SOD    SOD22376   3.238   6.678   0.349  0.6507 -0.3705  0.0325
  249SOD    SOD22377   1.751   4.595  12.650 -0.5135  0.2405 -0.0155
  250SOD    SOD22378   5.169   1.055  12.309  0.0949  0.1438 -0.1243
  251SOD    SOD22379   5.994   1.917  12.860  0.0948 -0.0590 -0.6292
  252SOD    SOD22380   5.263   6.215  16.417 -0.1429  0.0790 -0.0445
  253SOD    SOD22381   5.846   4.903   0.307  0.0250 -0.0347  0.4522
  254SOD    SOD22382   6.366   0.307   6.354  0.1068  0.0744 -0.1204
  255SOD    SOD22383   4.675   4.073  12.828 -0.0461 -0.5584  0.1892
  256SOD    SOD22384   4.087   2.923  13.889 -0.2971  0.3234 -0.2836
  257SOD    SOD22385   1.194   0.353  11.774  0.0458 -0.2718 -0.3426
  258SOD    SOD22386   6.698   3.672   3.532 -0.1894 -0.3857 -0.3629
  259SOD    SOD22387   1.643   3.622   5.938  0.4568 -0.0210 -0.4461
  260SOD    SOD22388   5.995   0.598   0.068 -0.1343  0.0404  0.0652
  261SOD    SOD22389   1.260   3.965  12.351  0.0641  0.5385  0.2722
  262SOD    SOD22390   6.611   2.849   0.913  0.3159  0.0503  0.2369
  263SOD    SOD22391   5.216   5.784  14.191 -0.5362 -0.1740  0.0173
  264SOD    SOD22392   2.586   4.219  10.896  0.2060  0.5489 -0.6689
  265SOD    SOD22393   2.230   4.309   0.440  0.1884 -0.0609  0.1728
  266CLA    CLA22394   5.369   0.288   2.127 -0.3973 -0.0978  0.4312
  267CLA    CLA22395   3.511   4.215   0.437  0.1195 -0.7435 -0.0206
  268CLA    CLA22396   1.423   0.867   3.917  0.0991 -0.4595 -0.1761
  269CLA    CLA22397   3.184   2.141   5.312  0.1872  0.2406 -0.2772
  270CLA    CLA22398   3.522   5.078  14.668 -0.2564 -0.2877 -0.0540
  271CLA    CLA22399   1.735   0.752   2.170 -0.2819 -0.2713 -0.3948
  272CLA    CLA22400   2.826   0.628   0.587  0.0214  0.0840  0.0152
  273CLA    CLA22401   1.806   4.119  11.481 -0.3879 -0.0222 -0.3797
  274CLA    CLA22402   2.711   6.497  14.024 -0.2800 -0.1928 -0.2556
  275CLA    CLA22403   2.651   4.793  11.774  0.4592  0.0709  0.3568
  276CLA    CLA22404   0.957   1.046  12.508  0.0277 -0.2446  0.1685
  277CLA    CLA22405   3.985   2.357   0.831  0.2533  0.0520  0.1356
  278CLA    CLA22406   5.734   4.354   2.578 -0.0878 -0.1109 -0.2146
  279CLA    CLA22407   0.188   2.776  15.383  0.2547  0.1080 -0.5079
  280CLA    CLA22408   4.969   6.547  17.166  0.5279  0.1020  0.6676
  281CLA    CLA22409   4.617   1.561  12.341  0.1715 -0.1545  0.4040
  282CLA    CLA22410   4.355   3.816  15.298  0.4035  0.4862  0.4229
  283CLA    CLA22411   0.782   5.097  15.162 -0.0250  0.2762  0.2877
  284CLA    CLA22412   1.376   3.893  16.005 -0.3759  0.2897 -0.1794
  285CLA    CLA22413   5.124   5.092  16.254  0.0737 -0.0980 -0.1881
  286CLA    CLA22414   5.201   3.208   0.127  0.2546 -0.1562  0.0398
  287CLA    CLA22415   4.906   6.657   3.665  0.3669 -0.2644 -0.0137
  288CLA    CLA22416   2.172   4.845   0.223 -0.4684  0.1500 -0.2522
  289CLA    CLA22417   0.101   2.766  14.472 -0.3262 -0.2821 -0.2231
  290CLA    CLA22418   1.423   0.830  14.400 -0.3012 -0.1292  0.0928
  291CLA    CLA22419   3.428   5.327  16.726 -0.4764  0.5998  0.2569
  292CLA    CLA22420   2.575   5.792  13.142 -0.0722 -0.1696  0.2098
  293CLA    CLA22421   0.794   1.093  14.240  0.1111 -0.0429 -0.0719
  294CLA    CLA22422   1.512   6.008  11.443  0.6467 -0.3276 -0.2300
  295CLA    CLA22423   6.204   1.841   2.860  0.2331 -0.2713 -0.0557
  296CLA    CLA22424   6.682   3.997  16.003 -0.3296 -0.0903 -0.0918
  297CLA    CLA22425   3.675   0.696   1.283  0.2999  0.1018  0.3081
  298CLA    CLA22426   5.052   1.925  13.327  0.2599  0.0576 -0.2631
  299CLA    CLA22427   4.546   3.303  14.810 -0.0076  0.1559 -0.1699
  300CLA    CLA22428   1.622   4.897   5.207  0.0778 -0.5111  0.3771
  301CLA    CLA22429   1.696   2.368   4.401  0.1560 -0.4671  0.0879
  302CLA    CLA22430   5.785   6.502  15.271 -0.2287  0.0039 -0.0841
  303CLA    CLA22431   0.841   1.736   0.482  0.4598  0.2790  0.2357
  304CLA    CLA22432   5.260   3.636   3.265  0.0466 -0.0263  0.1919
  305CLA    CLA22433   6.692   1.656   2.801 -0.3062  0.3252  0.0389
  306CLA    CLA22434   5.776   6.781  16.215  0.2823  0.3642  0.0892
  307CLA    CLA22435   1.019   4.125  12.710  0.1069 -0.0600 -0.0708
  308CLA    CLA22436   0.591   1.364  12.956  0.1695  0.5662  0.0135
  309CLA    CLA22437   5.236   1.918   3.052 -0.1371  0.4153  0.2103
  310CLA    CLA22438   6.297   2.491  14.597  0.1132  0.5030  0.0241
  311CLA    CLA22439   1.902   0.947  14.877 -0.1198 -0.5067 -0.3653
  312CLA    CLA22440   6.244   5.701  11.071  0.0072 -0.0184 -0.2674
  313CLA    CLA22441   0.264   2.840   1.047 -0.3805 -0.4043  0.1570
  314CLA    CLA22442   4.211   0.541   5.532 -0.1540  0.4621 -0.0714
  315CLA    CLA22443   4.467   0.055   3.666 -0.3888 -0.3596  0.5669
  316CLA    CLA22444   6.280   0.728  12.801  0.0055  0.2023 -0.2614
  317CLA    CLA22445   0.333   4.621   4.193 -0.0960  0.3211 -0.1965
  318CLA    CLA22446   3.563   5.014  12.419 -0.1426 -0.0449 -0.1697
  319TIP3   OH222447   4.162   6.690  16.020 -0.1134  0.2142  0.3247
  319TIP3    H122448   4.146   6.771  16.068 -2.7433  0.7082 -1.1896
  319TIP3    H222449   4.222   6.715  15.949 -0.5255  0.7586  0.1572
  320TIP3   OH222450   6.604   5.351   3.364 -0.3130  0.4573 -0.2456
  320TIP3    H122451   6.678   5.402   3.331 -0.2465 -0.0156 -0.8437
  320TIP3    H222452   6.540   5.352   3.294  0.3233 -1.5851 -0.9486
  321TIP3   OH222453   6.787   1.397   2.399  0.3129 -0.1315  0.0635
  321TIP3    H122454   6.836   1.466   2.443 -0.2477 -0.8223  1.8422
  321TIP3    H222455   6.832   1.386   2.314  2.7669 -0.1769  1.2744
  322TIP3   OH222456   2.176   5.808  14.199  0.5789 -0.1058 -0.0172
  322TIP3    H122457   2.259   5.833  14.159  0.3640  1.9334  0.7070
  322TIP3    H222458   2.118   5.792  14.125  1.7498 -2.3132 -0.5600
  323TIP3   OH222459   0.265   6.820   4.248  0.0007  0.1195 -0.8471
  323TIP3    H122460   0.220   6.868   4.178 -0.6319 -0.0972 -0.5953
  323TIP3    H222461   0.195   6.791   4.306  0.4742 -0.1869 -0.4202
  324TIP3   OH222462   0.341   5.407   1.203  0.0643 -0.1538  0.0171
  324TIP3    H122463   0.376   5.448   1.282 -0.3516  0.2040  0.0218
  324TIP3    H222464   0.280   5.472   1.167  1.0877  0.1477 -1.2178
  325TIP3   OH222465   3.090   2.888  14.729  0.3073  0.7791 -0.0728
  325TIP3    H122466   3.023   2.844  14.677  1.0659 -0.5187 -0.0165
  325TIP3    H222467   3.043   2.956  14.777 -0.9506 -0.0194 -0.1155
  326TIP3   OH222468   3.881   3.385  11.237 -0.3465 -0.1135 -0.2329
  326TIP3    H122469   3.809   3.446  11.257 -0.0353  0.8285 -1.8286
  326TIP3    H222470   3.959   3.429  11.270 -0.5363 -1.7128  2.6971
  327TIP3   OH222471   2.048   4.049  16.705 -0.4154 -0.3936  0.4675
  327TIP3    H122472   2.029   4.061  16.798 -0.6488 -0.7989  0.4720
  327TIP3    H222473   2.105   3.973  16.702 -0.0023 -0.0844  0.3184
  328TIP3   OH222474   0.998   5.930   4.857  0.1961  0.5743 -0.4132
  328TIP3    H122475   0.961   6.018   4.846 -1.6789 -0.0892  0.3695
  328TIP3    H222476   0.944   5.874   4.802  1.0599 -0.2012 -0.4992
  329TIP3   OH222477   0.802   4.109  16.303 -0.2656 -0.3571  0.7600
  329TIP3    H122478   0.719   4.145  16.271 -0.3739 -1.5524 -0.3714
  329TIP3    H222479   0.798   4.016  16.281  1.6691 -0.3126  0.0782
  330TIP3   OH222480   2.157   4.604  15.138 -0.3778  0.0375  0.1727
  330TIP3    H122481   2.098   4.664  15.092 -1.6618 -0.2284  1.3765
  330TIP3    H222482   2.166   4.641  15.226 -1.8746 -1.8505  1.2304
  331TIP3   OH222483   1.657   3.524  10.994  0.2056 -0.2554  0.0085
  331TIP3    H122484   1.612   3.505  11.076  0.2495  0.0500  0.1052
  331TIP3    H222485   1.718   3.595  11.016  1.4253 -1.3020  0.1155
  332TIP3   OH222486   2.395   3.465  14.217 -0.2333 -0.1249 -0.6816
  332TIP3    H122487   2.327   3.444  14.153 -1.7621 -1.6990  1.3521
  332TIP3    H222488   2.359   3.539  14.266 -0.8673 -1.4110  0.8621
  333TIP3   OH222489   0.319   6.578   0.680  0.5218  0.6571  0.2068
  333TIP3    H122490   0.227   6.560   0.660  0.2198  0.9714  1.2667
  333TIP3    H222491   0.341   6.652   0.624  0.2314  0.3696 -0.2959
  334TIP3   OH222492   3.908   3.080  14.849 -0.6158  0.5461 -0.2370
  334TIP3    H122493   3.993   3.109  14.884  0.3415  1.4755 -3.0002
  334TIP3    H222494   3.887   3.002  14.899  2.4135 -0.3142 -0.0702
  335TIP3   OH222495   3.170   1.709   5.941 -0.7552 -0.0390  0.2563
  335TIP3    H122496   3.148   1.699   6.033 -1.0113 -1.4001  0.0663
  335TIP3    H222497   3.216   1.793   5.936  0.2875 -0.4745  1.8077
  336TIP3   OH222498   2.867   0.135  17.019  0.3183  0.0813  0.8537
  336TIP3    H122499   2.812   0.210  16.998 -1.3961 -1.2193  0.4064
  336TIP3    H222500   2.831   0.064  16.965  2.4123 -0.8680  0.6123
  337TIP3   OH222501   5.175   4.404   3.515  0.6454  0.3458 -0.2817
  337TIP3    H122502   5.174   4.444   3.428 -1.1382  2.5468  0.6483
  337TIP3    H222503   5.171   4.310   3.499 -0.7185  0.7292 -2.5882
  338TIP3   OH222504   6.289   3.270  13.975 -0.2768  0.2963  0.2950
  338TIP3    H122505   6.320   3.287  13.887  1.2597 -0.1486  0.7296
  338TIP3    H222506   6.211   3.325  13.984 -1.5799 -0.9922 -1.9530
  339TIP3   OH222507   3.793   5.749  12.168 -0.4158 -0.0766 -0.5103
  339TIP3    H122508   3.737   5.796  12.230  2.1071  0.4867  1.5188
  339TIP3    H222509   3.783   5.657  12.192  0.0700  0.0871  0.3489
  340TIP3   OH222510   5.352   5.442  14.612 -0.0879 -0.1380  0.4039
  340TIP3    H122511   5.373   5.372  14.675  2.2291  1.7960  1.9894
  340TIP3    H222512   5.366   5.523  14.661 -1.5911  1.4976 -1.6727
  341TIP3   OH222513   6.820   2.621   4.006  0.7121 -0.0436 -0.5037
  341TIP3    H122514   6.903   2.575   3.998  1.3478  1.2194 -1.5431
  341TIP3    H222515   6.761   2.575   3.946  1.1404  0.0385 -0.9965
  342TIP3   OH222516   1.507   4.618   0.940  0.0168  0.3840 -0.3651
  342TIP3    H122517   1.559   4.674   0.883  1.8802 -1.2429 -0.3647
  342TIP3    H222518   1.480   4.676   1.012 -1.4487  2.1838 -2.2480
  343TIP3   OH222519   4.740   1.543   2.779 -0.1546 -0.0603  0.6078
  343TIP3    H122520   4.703   1.490   2.709  0.8969  0.1890 -0.1683
  343TIP3    H222521   4.685   1.621   2.783  0.5883  0.5788 -0.9294
  344TIP3   OH222522   3.472   0.581  11.952 -0.1656  0.3379  0.4836
  344TIP3    H122523   3.550   0.532  11.926  1.2342  2.0346  1.3089
  344TIP3    H222524   3.402   0.545  11.897  0.5103 -3.2213  1.6432
  345TIP3   OH222525   0.321   2.408  13.748  0.2339 -0.4256 -0.2701
  345TIP3    H122526   0.276   2.324  13.739 -1.6034  0.4268  0.3875
  345TIP3    H222527   0.394   2.390  13.807 -1.5136 -1.1333  1.7988
  346TIP3   OH222528   3.150   2.508   3.045 -1.1020  0.4273  0.3765
  346TIP3    H122529   3.086   2.539   2.981  0.0060  0.1055 -0.9327
  346TIP3    H222530   3.201   2.586   3.068 -0.2908  0.1998 -0.5886
  347TIP3   OH222531   2.011   3.689   0.086  0.0902 -0.2286 -0.2739
  347TIP3    H122532   1.926   3.672   0.128 -0.2679 -0.4026 -1.0568
  347TIP3    H222533   1.990   3.746   0.012  0.3636 -1.8555 -1.6693
  348TIP3   OH222534   2.525   5.724   4.589  0.2688  0.2010 -0.1861
  348TIP3    H122535   2.446   5.757   4.632  0.2340  1.4603 -1.1593
  348TIP3    H222536   2.494   5.688   4.506  0.7391  1.0010 -0.7188
  349TIP3   OH222537   1.667   5.035   2.877  0.4603  0.1914 -0.2096
  349TIP3    H122538   1.669   5.035   2.781 -1.7410 -0.1648 -0.3015
  349TIP3    H222539   1.615   4.958   2.900  0.0297  0.8884  1.2432
  350TIP3   OH222540   0.616   3.135   0.459  0.4567  0.0637 -0.4681
  350TIP3    H122541   0.587   3.044   0.451  1.2993 -0.3837  1.1968
  350TIP3    H222542   0.687   3.132   0.523 -0.5736  2.1144  0.8613
  351TIP3   OH222543   0.757   2.432   2.643 -0.1124  0.1685 -0.5280
  351TIP3    H122544   0.753   2.455   2.735 -0.5938 -1.5124 -0.0979
  351TIP3    H222545   0.848   2.403   2.630  0.2212  1.3177 -0.8299
  352TIP3   OH222546   3.768   3.699  12.107  0.7012  0.3814 -0.0233
  352TIP3    H122547   3.722   3.730  12.185 -0.2507  0.4369 -0.5931
  352TIP3    H222548   3.718   3.624  12.078  0.6498  0.7721 -0.9735
  353TIP3   OH222549   0.028   4.597  11.455 -0.0012  0.1054 -0.5588
  353TIP3    H122550  -0.035   4.669  11.461 -1.7022 -1.1335 -2.5669
  353TIP3    H222551   0.010   4.544  11.532 -0.1116  0.7387 -0.1343
  354TIP3   OH222552   2.027   0.858  13.700 -0.6774 -0.4821  0.4885
  354TIP3    H122553   2.104   0.836  13.647 -0.5126  0.7281  0.2027
  354TIP3    H222554   2.063   0.894  13.781 -0.9284  0.5344  0.1613
  355TIP3   OH222555   1.530   5.444   5.193 -0.3401  0.0986  0.1913
  355TIP3    H122556   1.487   5.404   5.269  0.7764 -1.4503  0.0386
  355TIP3    H222557   1.499   5.394   5.118  0.6128 -0.1295 -0.0665
  356TIP3   OH222558   2.223   0.280  11.678 -0.5585 -0.0501  0.0110
  356TIP3    H122559   2.212   0.241  11.591  2.6010  1.8830 -1.4485
  356TIP3    H222560   2.271   0.214  11.728 -0.5977 -0.3893 -0.3882
  357TIP3   OH222561   2.106   1.604   6.324  0.0358  0.3537 -0.0518
  357TIP3    H122562   2.011   1.612   6.331  0.0570 -0.1304  1.0188
  357TIP3    H222563   2.140   1.657   6.396  0.4356 -1.8528  1.4949
  358TIP3   OH222564   2.719   0.868  15.157 -0.0442  0.2832 -0.3318
  358TIP3    H122565   2.780   0.811  15.203 -0.0072  0.1558 -0.5365
  358TIP3    H222566   2.638   0.817  15.152  0.3203 -0.2229 -1.5240
  359TIP3   OH222567   0.908   3.301  15.547  0.5606  0.1290 -0.5030
  359TIP3    H122568   0.896   3.385  15.503  0.7581  0.5241  0.1873
  359TIP3    H222569   0.992   3.268  15.514  0.0271 -0.2675 -1.5112
  360TIP3   OH222570   1.461   3.924  12.201 -0.1770  0.1481 -0.1764
  360TIP3    H122571   1.497   3.836  12.194  1.6320  0.5754  2.2824
  360TIP3    H222572   1.494   3.970  12.125  0.0840 -0.9071 -0.7199
  361TIP3   OH222573   0.099   2.664  15.655  0.5580  0.4715  0.1216
  361TIP3    H122574   0.128   2.705  15.574  0.0881  0.4820 -0.0425
  361TIP3    H222575   0.044   2.591  15.627  0.0442  0.7364  0.4391
  362TIP3   OH222576   5.436   5.053   2.197  0.3335 -0.0080  0.6188
  362TIP3    H122577   5.445   4.997   2.275 -1.5981  0.3037  1.1344
  362TIP3    H222578   5.485   5.132   2.218  0.0719 -0.0469  1.4222
  363TIP3   OH222579   1.465   6.282   4.254 -0.1652 -0.1150  0.1522
  363TIP3    H122580   1.540   6.287   4.314 -0.1158  0.2203  0.0640
  363TIP3    H222581   1.501   6.309   4.169  0.0326 -1.6513 -0.2813
  364TIP3   OH222582   2.025   1.555   6.654 -0.1510 -0.4052 -0.3426
  364TIP3    H122583   1.962   1.587   6.718  0.3392  0.3122 -0.2072
  364TIP3    H222584   2.083   1.629   6.639  0.5620 -1.0077 -0.5899
  365TIP3   OH222585   1.328   2.265   6.017 -1.0254  0.7165 -0.4315
  365TIP3    H122586   1.395   2.232   5.957 -1.3413  0.2930 -0.5542
  365TIP3    H222587   1.377   2.290   6.096 -0.7934 -0.2057 -0.2693
  366TIP3   OH222588   5.954   3.142  13.800 -0.5279 -0.1647 -0.1181
  366TIP3    H122589   5.894   3.216  13.801 -0.5400 -0.1745  0.6151
  366TIP3    H222590   5.990   3.141  13.711  0.0531  1.1789  0.0833
  367TIP3   OH222591   4.890   2.346  11.453  0.0915  0.0429 -0.3428
  367TIP3    H122592   4.800   2.378  11.445  0.5572  1.0141 -2.4034
  367TIP3    H222593   4.944   2.425  11.451  1.0219 -0.5426  0.6865
  368TIP3   OH222594   4.776   4.983  11.086 -0.0619 -0.0161 -0.0294
  368TIP3    H122595   4.866   4.954  11.101  0.3266  0.3382 -1.4746
  368TIP3    H222596   4.766   4.978  10.991 -1.4898  0.2067  0.1014
  369TIP3   OH222597   4.396   6.707   4.189 -0.5973  0.3591  0.1226
  369TIP3    H122598   4.439   6.713   4.103 -0.1803 -1.1512  0.2026
  369TIP3    H222599   4.309   6.745   4.174 -1.0142 -1.0357 -1.3431
  370TIP3   OH222600   5.971   4.320  13.907  0.2335  0.0795  0.3108
  370TIP3    H122601   6.019   4.399  13.882  0.6492  0.1184  1.1968
  370TIP3    H222602   5.919   4.346  13.983 -0.7724 -0.1163 -0.2874
  371TIP3   OH222603   3.094   1.683   1.280 -0.5631  0.2369 -0.4147
  371TIP3    H122604   3.189   1.684   1.285 -0.6195  1.5765  2.3320
  371TIP3    H222605   3.072   1.758   1.224 -0.0046  0.5777 -0.1881
  372TIP3   OH222606   4.676   4.975  13.448  0.0032 -0.1330  1.0372
  372TIP3    H122607   4.677   4.881  13.431 -1.0834 -0.0286  0.3007
  372TIP3    H222608   4.672   5.015  13.361  3.7806  0.7432  1.1146
  373TIP3   OH222609   1.543   0.392  15.298 -0.2280  0.1814 -0.3830
  373TIP3    H122610   1.461   0.435  15.276 -0.0267  1.9435  1.8934
  373TIP3    H222611   1.526   0.298  15.285 -2.3377  0.5654 -0.7132
  374TIP3   OH222612   6.405   2.757  16.232 -0.3031  0.3904  0.0956
  374TIP3    H122613   6.459   2.774  16.154 -2.1624  1.8723 -0.9511
  374TIP3    H222614   6.382   2.664  16.225  0.3093  0.2763 -0.6197
  375TIP3   OH222615   1.795   4.528   1.703  0.5762  0.8941 -0.0390
  375TIP3    H122616   1.825   4.546   1.793 -1.4132 -0.2529  0.9236
  375TIP3    H222617   1.874   4.507   1.655  1.5280 -0.4382  1.9680
  376TIP3   OH222618   5.062   4.740  12.747  0.1214  0.3313 -0.0261
  376TIP3    H122619   5.010   4.743  12.828  1.2524 -0.2239  0.7468
  376TIP3    H222620   5.151   4.762  12.775  0.3086  1.3120 -1.3379
  377TIP3   OH222621   5.582   1.972   3.503  0.5621  0.5674  1.2064
  377TIP3    H122622   5.628   2.042   3.455 -0.2740 -0.0461 -0.5866
  377TIP3    H222623   5.579   1.899   3.441 -0.7774 -0.1966  2.1271
  378TIP3   OH222624   2.533   6.293  14.725  0.6903 -0.1439  0.5875
  378TIP3    H122625   2.603   6.229  14.708  2.0313  0.8792  2.0290
  378TIP3    H222626   2.578   6.377  14.727 -0.7901  0.6677  0.4237
  379TIP3   OH222627   3.819   3.580  13.020 -0.9371  0.0446 -0.0304
  379TIP3    H122628   3.801   3.632  13.099  0.5361 -2.3393  2.0522
  379TIP3    H222629   3.744   3.521  13.013 -0.3788 -0.7638  0.5573
  380TIP3   OH222630   4.936   4.477   4.373  0.6244 -0.1795 -0.5104
  380TIP3    H122631   4.863   4.423   4.404 -0.4756  2.4440  2.0171
  380TIP3    H222632   4.905   4.517   4.292 -0.5629  0.3894  0.1980
  381TIP3   OH222633   5.231   5.842   0.234 -0.2157  0.7546 -0.4884
  381TIP3    H122634   5.149   5.798   0.214  0.1712  0.0693 -0.5934
  381TIP3    H222635   5.205   5.926   0.272 -0.9682  0.9981 -1.4922
  382TIP3   OH222636   5.482   0.588  11.174 -0.3086 -0.3996 -0.5833
  382TIP3    H122637   5.547   0.568  11.106  1.8625 -1.5142  1.6565
  382TIP3    H222638   5.430   0.509  11.181  1.2662 -1.3790  0.8462
  383TIP3   OH222639   0.385   2.077  15.708 -0.0601 -0.1019  0.2985
  383TIP3    H122640   0.301   2.064  15.751 -1.1345  1.8961 -1.0198
  383TIP3    H222641   0.409   1.991  15.673 -2.6843 -0.3130 -1.1983
  384TIP3   OH222642   2.423   1.072   4.997 -0.3898  0.2996 -0.5078
  384TIP3    H122643   2.361   1.143   5.015  1.6542  1.9757  0.3747
  384TIP3    H222644   2.376   0.992   5.021 -2.2428  1.4599 -0.0488
  385TIP3   OH222645   0.763   2.880   5.918 -0.2818  0.2146 -0.1236
  385TIP3    H122646   0.717   2.867   6.001  2.0480 -1.7260  0.9822
  385TIP3    H222647   0.711   2.834   5.854 -1.7348  1.1165  0.3565
  386TIP3   OH222648   6.429   2.273   3.214 -0.6931  0.1218  0.5182
  386TIP3    H122649   6.415   2.262   3.120 -0.8551  0.9109  0.4400
  386TIP3    H222650   6.341   2.272   3.252 -0.6624  0.3281  0.5976
  387TIP3   OH222651   3.000   1.262  14.052  0.3515  0.1222 -0.3362
  387TIP3    H122652   3.014   1.204  13.976  1.8856  0.5161 -0.3947
  387TIP3    H222653   3.039   1.215  14.125 -1.9015 -0.6536  0.4432
  388TIP3   OH222654   0.466   3.820   1.476 -0.1199 -0.4076 -0.2714
  388TIP3    H122655   0.431   3.795   1.561 -0.0242  0.5202  0.0429
  388TIP3    H222656   0.434   3.752   1.416  0.7986 -1.7513  0.6925
  389TIP3   OH222657   1.538   6.434  14.523  0.1222  0.2849  0.5704
  389TIP3    H122658   1.591   6.403  14.596  0.6925 -0.0668  0.0191
  389TIP3    H222659   1.475   6.494  14.562  2.3663  2.5275  0.9789
  390TIP3   OH222660   4.856   5.345  14.246 -0.2545  0.8230 -1.0369
  390TIP3    H122661   4.897   5.366  14.162 -0.3578  0.0516 -1.2868
  390TIP3    H222662   4.764   5.330  14.225 -0.0996 -0.3151 -0.9493
  391TIP3   OH222663   0.515   1.492   3.986  0.0713  0.6611 -0.4977
  391TIP3    H122664   0.489   1.405   4.018  0.4145  0.4592 -0.7581
  391TIP3    H222665   0.440   1.521   3.933  0.2693  0.1775 -1.0615
  392TIP3   OH222666   5.490   2.327  11.937 -0.5246  0.7008  0.7399
  392TIP3    H122667   5.396   2.320  11.955 -0.7495 -0.3010 -0.6805
  392TIP3    H222668   5.531   2.273  12.005 -0.9978  0.7045  1.0364
  393TIP3   OH222669   2.237   1.088   4.140  0.5597 -0.4951 -0.1219
  393TIP3    H122670   2.205   1.123   4.057  1.3050  0.0451 -0.1866
  393TIP3    H222671   2.327   1.119   4.146  0.6242 -0.8304  0.7241
  394TIP3   OH222672   4.435   5.831  14.884 -0.3622 -0.1630  0.0638
  394TIP3    H122673   4.503   5.814  14.950 -0.3646  1.0208  0.3943
  394TIP3    H222674   4.471   5.796  14.803 -0.1194 -1.1386  0.5735
  395TIP3   OH222675   1.053   2.923  11.512  0.2732  0.2525 -0.8203
  395TIP3    H122676   1.063   2.875  11.429 -1.6026  2.4410 -2.4239
  395TIP3    H222677   1.058   3.015  11.487  1.3117  0.9919  1.8070
  396TIP3   OH222678   3.845   6.769   4.364  0.3490 -0.3158  0.2078
  396TIP3    H122679   3.805   6.777   4.450 -0.0684 -2.9433  0.3214
  396TIP3    H222680   3.771   6.754   4.304  0.8088 -1.0176 -0.2036
  397TIP3   OH222681   4.115   6.105   2.093  0.0765 -0.6081 -0.3256
  397TIP3    H122682   4.155   6.186   2.124  0.7041 -1.4307  1.1270
  397TIP3    H222683   4.190   6.049   2.072 -0.3484 -1.0651 -0.6247
  398TIP3   OH222684   4.255   2.939   1.260 -0.2193  0.1872  0.6089
  398TIP3    H122685   4.331   2.900   1.305 -0.0638  1.7079  1.7489
  398TIP3    H222686   4.261   3.033   1.280 -1.1234  0.6779 -1.2114
  399TIP3   OH222687   5.533   4.173   1.424 -0.4365  0.6696  0.1166
  399TIP3    H122688   5.583   4.195   1.345 -0.2278 -0.6647 -0.1548
  399TIP3    H222689   5.472   4.246   1.436  0.5034  1.5784 -0.4478
  400TIP3   OH222690   3.127   5.369   2.398 -0.0255 -0.2768 -0.5256
  400TIP3    H122691   3.124   5.363   2.303 -0.9803 -1.3669 -0.4455
  400TIP3    H222692   3.039   5.344   2.427 -0.1339  1.2636  0.5923
  401TIP3   OH222693   3.603   3.487  13.317  0.1248  0.4842 -0.0368
  401TIP3    H122694   3.518   3.529  13.305 -0.6583  0.0121  2.9878
  401TIP3    H222695   3.665   3.560  13.322 -0.6126  1.0638  1.0239
  402TIP3   OH222696   6.174   6.760  11.494 -0.4358  0.1638  0.7214
  402TIP3    H122697   6.113   6.769  11.421  0.0715  0.2226  0.2986
  402TIP3    H222698   6.179   6.848  11.531 -0.9782  0.0550  1.0651
  403TIP3   OH222699   1.057   4.512  14.904  0.0138 -0.6488 -0.3224
  403TIP3    H122700   1.080   4.423  14.876  0.8219 -0.3981 -0.4829
  403TIP3    H222701   0.961   4.515  14.900 -0.1611 -2.0733  1.3618
  404TIP3   OH222702   4.906   6.638   1.100 -0.2857 -0.0805 -0.2663
  404TIP3    H122703   4.940   6.559   1.058  1.0861 -0.2307  1.0375
  404TIP3    H222704   4.840   6.606   1.162  1.7370 -0.5225  1.8067
  405TIP3   OH222705   0.145   5.893  16.465  0.2827 -0.0656  0.6831
  405TIP3    H122706   0.143   5.815  16.520  0.0294 -1.7031 -1.4985
  405TIP3    H222707   0.076   5.949  16.500 -0.9928 -1.7686  1.0277
  406TIP3   OH222708   0.643   3.672   0.209  0.5212  0.3106  0.1399
  406TIP3    H122709   0.559   3.711   0.234  0.1759  1.9645 -3.0902
  406TIP3    H222710   0.709   3.731   0.244  0.2306  0.5232  0.3287
  407TIP3   OH222711   5.289   5.567  13.740  0.1576 -0.1932 -0.2311
  407TIP3    H122712   5.350   5.564  13.814 -2.0002 -0.7334  1.6268
  407TIP3    H222713   5.291   5.658  13.711  3.8987 -0.7141 -2.1495
  408TIP3   OH222714   6.239   3.141   5.753  0.2215 -1.0396 -0.5157
  408TIP3    H122715   6.288   3.223   5.757  0.3822 -1.1841  1.1565
  408TIP3    H222716   6.307   3.074   5.747  0.1021 -1.0760 -1.5160
  409TIP3   OH222717   5.164   1.665  16.381 -0.1682 -0.2963 -0.1989
  409TIP3    H122718   5.093   1.726  16.399 -0.1523 -0.4102  0.2655
  409TIP3    H222719   5.239   1.721  16.358  0.0674 -0.0867  0.9760
  410TIP3   OH222720   1.000   0.591   4.265 -0.0337  0.2759 -0.1734
  410TIP3    H122721   1.090   0.568   4.286  0.1030  1.0439  0.1336
  410TIP3    H222722   1.006   0.672   4.215 -0.5538  0.3517 -0.1262
  411TIP3   OH222723   5.932   1.459  15.804 -0.0785  0.5212 -0.4484
  411TIP3    H122724   5.999   1.445  15.870 -1.4572  1.2939  1.2077
  411TIP3    H222725   5.940   1.552  15.780 -0.3153  0.5324 -0.4934
  412TIP3   OH222726   1.888   5.298  13.243 -0.5173  0.3246  1.0657
  412TIP3    H122727   1.837   5.374  13.271 -1.7209  0.0543 -0.2318
  412TIP3    H222728   1.979   5.324  13.255 -0.9104  1.7870  1.1052
  413TIP3   OH222729   6.633   6.334  16.568 -0.1529  0.1651  0.1538
  413TIP3    H122730   6.728   6.340  16.569 -0.0471 -1.1146 -0.4050
  413TIP3    H222731   6.607   6.364  16.481 -0.2429  0.2443  0.2059
  414TIP3   OH222732   0.816   2.209   6.097  0.3242  0.3884  0.7456
  414TIP3    H122733   0.794   2.300   6.116  0.4425  0.5317  0.2271
  414TIP3    H222734   0.744   2.158   6.134  0.1611  0.7073  0.8670
  415TIP3   OH222735   6.751   2.236   5.029 -0.1535  0.0578  0.3319
  415TIP3    H122736   6.798   2.282   4.959  0.0419 -3.1282 -1.8566
  415TIP3    H222737   6.664   2.277   5.030 -0.4644 -0.3459 -2.5028
  416TIP3   OH222738   6.725   1.273  11.760  0.2143 -0.0510 -0.2429
  416TIP3    H122739   6.712   1.345  11.821 -0.5035 -0.1613 -0.2611
  416TIP3    H222740   6.812   1.240  11.781 -0.3046 -0.5554  1.2079
  417TIP3   OH222741   2.636   4.415  16.349  0.1879 -0.5563  0.0174
  417TIP3    H122742   2.657   4.408  16.256 -0.5606 -0.2202 -0.1900
  417TIP3    H222743   2.719   4.398  16.394  1.0548  1.2906 -0.7580
  418TIP3   OH222744   4.846   2.165   0.640 -0.7590 -0.2811 -0.5046
  418TIP3    H122745   4.882   2.253   0.626 -2.1959  0.4258  0.0518
  418TIP3    H222746   4.923   2.110   0.658  0.0269  1.2606  1.1854
  419TIP3   OH222747   5.714   3.549   3.591 -0.5666  0.2961  0.4378
  419TIP3    H122748   5.630   3.531   3.549 -1.4016  0.7358  1.8332
  419TIP3    H222749   5.770   3.475   3.566 -1.3779 -0.0158 -0.4955
  420TIP3   OH222750   6.460   4.240   5.812 -0.5092 -0.5014  0.0211
  420TIP3    H122751   6.398   4.177   5.775  0.0853  0.3190 -2.5273
  420TIP3    H222752   6.415   4.324   5.808 -1.6093 -0.6991  4.1334
  421TIP3   OH222753   4.868   1.615   5.905 -0.0266  0.5704  0.3907
  421TIP3    H122754   4.912   1.694   5.875 -1.3205  1.9591  1.9829
  421TIP3    H222755   4.896   1.605   5.996  1.5361 -1.8923 -0.2596
  422TIP3   OH222756   6.560   6.576  17.034 -0.1816 -0.5110  0.4070
  422TIP3    H122757   6.560   6.505  17.098 -2.2987 -0.3298  0.6773
  422TIP3    H222758   6.544   6.532  16.950  0.2678 -0.5218  0.3257
  423TIP3   OH222759   4.363   4.885   6.035 -0.0464  0.2635  0.0758
  423TIP3    H122760   4.279   4.842   6.053  0.0946 -0.8522 -1.6713
  423TIP3    H222761   4.420   4.814   6.005  0.1947  1.5963 -2.9111
  424TIP3   OH222762   4.152   6.512  10.574 -0.0547 -0.2732 -0.8889
  424TIP3    H122763   4.134   6.604  10.592 -0.5956 -0.0822 -2.2967
  424TIP3    H222764   4.242   6.511  10.540 -0.0940 -0.2531 -0.9927
  425TIP3   OH222765   2.118   0.005  11.491  0.3492 -0.4204 -0.1152
  425TIP3    H122766   2.152  -0.082  11.470  0.8902 -0.5319  1.1188
  425TIP3    H222767   2.024  -0.009  11.504  0.4847 -0.8985  0.4106
  426TIP3   OH222768   1.502   2.713   3.142 -0.1302  0.1169  0.6017
  426TIP3    H122769   1.572   2.713   3.206 -0.6228  0.6192  1.1554
  426TIP3    H222770   1.546   2.695   3.059  1.0515  2.7610  0.5436
  427TIP3   OH222771   6.797   5.326   2.857 -0.1775  0.1038  0.2934
  427TIP3    H122772   6.795   5.268   2.781  1.0121  0.5085 -0.0642
  427TIP3    H222773   6.883   5.311   2.897  0.9048  2.7895 -0.7697
  428TIP3   OH222774   6.390   6.518  12.314  0.3329 -0.2232 -0.1558
  428TIP3    H122775   6.367   6.590  12.255 -1.5542 -0.9272 -0.3474
  428TIP3    H222776   6.379   6.554  12.402 -2.1852 -0.6211 -0.2141
  429TIP3   OH222777   5.094   0.155  11.816  0.3854 -0.2707 -0.4097
  429TIP3    H122778   5.032   0.082  11.815  2.8325 -2.4989  0.6200
  429TIP3    H222779   5.067   0.208  11.891 -0.0073 -1.4746  0.3197
  430TIP3   OH222780   0.367   5.670   5.096 -0.2495 -0.2947 -0.3342
  430TIP3    H122781   0.363   5.765   5.087  0.1699 -0.3862 -1.8924
  430TIP3    H222782   0.460   5.652   5.112 -0.4123 -0.4118  0.4904
  431TIP3   OH222783   0.234   5.338  12.373  0.2565 -0.2686 -0.2320
  431TIP3    H122784   0.144   5.324  12.404 -0.1119 -0.4468 -1.3184
  431TIP3    H222785   0.279   5.255  12.390  0.4976  0.1336  1.1861
  432TIP3   OH222786   3.095   4.992   0.644 -0.1100 -0.6417  0.5415
  432TIP3    H122787   3.156   5.039   0.587 -0.8172  1.0932  1.1251
  432TIP3    H222788   3.010   5.004   0.602 -0.6706  0.8106  1.9619
  433TIP3   OH222789   6.118   5.002   5.109 -0.1564  0.5922  0.1526
  433TIP3    H122790   6.045   5.036   5.160 -0.0442  2.5945 -0.9067
  433TIP3    H222791   6.086   4.919   5.074 -0.5670 -0.3566  2.6106
  434TIP3   OH222792   5.696   0.255  12.900  0.3954  0.2051 -0.0982
  434TIP3    H122793   5.672   0.278  12.990 -0.5752 -0.4136 -0.1815
  434TIP3    H222794   5.676   0.333  12.849  1.0616  0.5991  0.2356
  435TIP3   OH222795   5.263   5.331   1.903 -0.1237  0.6855  0.2940
  435TIP3    H122796   5.180   5.343   1.948 -0.0403  0.3042  0.5505
  435TIP3    H222797   5.247   5.363   1.814 -0.7127  0.0730  0.1768
  436TIP3   OH222798   3.889   5.299  13.786  0.3280  0.1558 -0.1503
  436TIP3    H122799   3.880   5.240  13.711 -0.1267  0.9673 -0.7630
  436TIP3    H222800   3.870   5.386  13.750 -0.9057  0.4487  1.1219
  437TIP3   OH222801   4.223   6.754  16.778 -0.0431 -0.3847 -0.2984
  437TIP3    H122802   4.179   6.824  16.730 -0.1432 -0.4374 -0.2839
  437TIP3    H222803   4.308   6.745  16.734 -0.3075 -0.7327 -0.7470
  438TIP3   OH222804   1.087   1.404   0.676  0.8655 -0.8008  0.2738
  438TIP3    H122805   1.137   1.328   0.648  0.3323 -1.1869  0.3595
  438TIP3    H222806   1.016   1.411   0.612  2.0027  0.7936 -0.8951
  439TIP3   OH222807   1.494   2.834  14.894  0.0132  0.4840 -0.8783
  439TIP3    H122808   1.526   2.744  14.884  1.4613  0.8879 -0.1913
  439TIP3    H222809   1.552   2.872  14.960  0.2124  2.2912 -2.0376
  440TIP3   OH222810   3.468   1.261   2.764  0.6847 -0.2761  0.2259
  440TIP3    H122811   3.522   1.221   2.832  0.7913  0.4429  0.5786
  440TIP3    H222812   3.531   1.303   2.705  0.5431 -0.0238  0.2538
  441TIP3   OH222813   1.076   4.939  15.137  0.4747 -0.1347 -0.3248
  441TIP3    H122814   1.105   4.941  15.229  1.1424 -0.8193 -0.5162
  441TIP3    H222815   0.996   4.991  15.137  0.9782  0.6871  0.4709
  442TIP3   OH222816   5.815   6.788  15.394  0.2846  0.4040 -0.1242
  442TIP3    H122817   5.786   6.783  15.485 -0.4992  3.2122 -0.1165
  442TIP3    H222818   5.796   6.702  15.357 -0.0953 -0.5515  2.1503
  443TIP3   OH222819   0.818   4.929   1.147 -0.0855  0.2893 -0.5097
  443TIP3    H122820   0.841   4.839   1.127 -0.1336 -0.1614  1.3114
  443TIP3    H222821   0.724   4.935   1.128 -0.3330 -0.3786  0.4642
  444TIP3   OH222822   4.598   5.564  11.554 -0.2674  0.4103 -0.0934
  444TIP3    H122823   4.646   5.631  11.603 -1.2339  0.5264  0.7199
  444TIP3    H222824   4.666   5.504  11.524  0.2910 -0.3217  2.3754
  445TIP3   OH222825   3.809   5.506  12.310 -0.0108 -0.4260 -0.3417
  445TIP3    H122826   3.790   5.418  12.343  0.1388  0.1441  1.3463
  445TIP3    H222827   3.880   5.538  12.365  0.7271  0.3446 -1.6790
  446TIP3   OH222828   4.574   6.526   1.745 -0.0091  0.1293  0.4311
  446TIP3    H122829   4.544   6.601   1.693  0.0790 -0.7380 -0.9245
  446TIP3    H222830   4.495   6.494   1.789 -0.1778  0.6010  0.4756
  447TIP3   OH222831   6.564   2.039  10.714  0.2848  0.3023 -0.0517
  447TIP3    H122832   6.541   1.966  10.771  1.4966 -0.1850 -0.1419
  447TIP3    H222833   6.640   2.007  10.664  0.3021  1.3191 -0.7124
  448TIP3   OH222834   6.420   0.149   4.843 -0.0194  0.6790 -0.2386
  448TIP3    H122835   6.355   0.092   4.882  0.4907  1.4661  1.9229
  448TIP3    H222836   6.374   0.196   4.773 -0.9240 -0.9232 -0.7576
  449TIP3   OH222837   0.207   3.090   4.652  0.0329 -0.6010  0.6420
  449TIP3    H122838   0.158   3.139   4.586  0.9428  0.3681  0.6619
  449TIP3    H222839   0.159   3.104   4.733  0.8075  1.1292  0.8497
  450TIP3   OH222840   4.460   5.662   1.465 -0.4492  0.2870  0.0258
  450TIP3    H122841   4.526   5.727   1.440  0.2314 -0.3398  0.1751
  450TIP3    H222842   4.390   5.714   1.505  1.0504  0.7760  2.1875
  451TIP3   OH222843   5.396   6.722  11.282 -0.2479 -0.5449 -0.7343
  451TIP3    H122844   5.476   6.708  11.331  0.5831 -0.3093 -1.9753
  451TIP3    H222845   5.382   6.640  11.234 -0.6789 -0.5378 -0.6257
  452TIP3   OH222846   0.518   0.948  15.092 -0.0772 -0.7526  0.3264
  452TIP3    H122847   0.457   1.021  15.100 -0.3506 -0.5468 -2.7212
  452TIP3    H222848   0.481   0.881  15.150 -2.0129  0.1216  0.1965
  453TIP3   OH222849   2.961   6.038   5.337  0.5149  0.2119  0.5961
  453TIP3    H122850   2.903   6.035   5.413  0.3181 -0.8563  0.4302
  453TIP3    H222851   3.047   6.014   5.371  0.5213  0.1929  0.5668
  454TIP3   OH222852   3.230   1.524   0.433 -0.3440  0.4585 -0.3497
  454TIP3    H122853   3.172   1.590   0.394 -0.4998 -0.4119 -1.6345
  454TIP3    H222854   3.301   1.514   0.369 -0.8623 -1.3537 -0.7039
  455TIP3   OH222855   0.755   0.892   2.968 -0.1057  0.7322 -0.2254
  455TIP3    H122856   0.734   0.870   2.878  0.2661 -1.7220  0.2221
  455TIP3    H222857   0.703   0.832   3.021  1.4875  0.4327  1.1028
  456TIP3   OH222858   1.922   6.335   3.622 -0.4731 -0.7398 -0.1500
  456TIP3    H122859   2.000   6.280   3.615  0.7603  0.9292 -0.2224
  456TIP3    H222860   1.919   6.383   3.539 -0.6785  0.3327  0.4574
  457TIP3   OH222861   3.152   6.391   5.505  0.5769 -0.0428  0.3165
  457TIP3    H122862   3.168   6.310   5.552  0.8537  0.3903  0.9786
  457TIP3    H222863   3.066   6.420   5.535  0.0710 -0.5486 -0.5997
  458TIP3   OH222864   0.385   4.197  17.061 -0.7152 -0.3762 -0.3493
  458TIP3    H122865   0.392   4.185  16.966 -1.9322  0.1518 -0.5169
  458TIP3    H222866   0.461   4.251  17.083 -1.3890  1.0365 -1.3250
  459TIP3   OH222867   4.423   2.560   0.842 -0.2043  0.1475 -0.1758
  459TIP3    H122868   4.455   2.643   0.878 -2.1096  0.4867  0.8956
  459TIP3    H222869   4.368   2.585   0.768 -0.9144 -0.1288  0.2480
  460TIP3   OH222870   3.759   3.094   3.391  0.5577  0.2721  0.0195
  460TIP3    H122871   3.782   3.032   3.460 -0.2003  0.7714  0.7374
  460TIP3    H222872   3.668   3.117   3.408  0.6396  1.1229 -0.5892
  461TIP3   OH222873   0.242   3.851  16.895 -0.2026 -0.0574  0.4075
  461TIP3    H122874   0.240   3.814  16.984 -1.3509 -0.1857  0.3414
  461TIP3    H222875   0.278   3.780  16.841 -1.1013 -0.6065  0.5051
  462TIP3   OH222876   4.370   2.118  14.102  0.0572  0.0333 -0.5228
  462TIP3    H122877   4.446   2.107  14.045 -0.1170  2.2282 -1.2619
  462TIP3    H222878   4.302   2.152  14.044 -1.1007 -0.6700  0.3943
  463TIP3   OH222879   2.462   4.697  13.863 -0.1638  0.6582  0.1683
  463TIP3    H122880   2.431   4.720  13.775 -1.5544 -0.5426  0.2880
  463TIP3    H222881   2.384   4.704  13.918 -0.1453 -1.7994  0.6356
  464TIP3   OH222882   1.586   6.800   4.929  0.3819  0.0353 -0.0842
  464TIP3    H122883   1.579   6.710   4.958  0.0632 -0.4481 -1.5758
  464TIP3    H222884   1.520   6.808   4.860 -2.3271  2.4710  2.4827
  465TIP3   OH222885   1.974   1.265  12.983 -0.0646 -0.0716 -0.2079
  465TIP3    H122886   1.997   1.358  12.973 -0.6660 -0.0309 -1.5681
  465TIP3    H222887   1.893   1.266  13.034  1.3132 -0.0542  2.1298
  466TIP3   OH222888   4.525   5.540   2.414 -0.8779  0.0676  0.1309
  466TIP3    H122889   4.496   5.537   2.323  4.2834  0.4426 -1.8695
  466TIP3    H222890   4.583   5.617   2.419  4.3149 -3.3587  1.5046
  467TIP3   OH222891   2.795   0.169   2.127 -0.2663 -0.3516 -0.0088
  467TIP3    H122892   2.810   0.095   2.069  0.1411 -0.1134 -0.2108
  467TIP3    H222893   2.721   0.216   2.089 -0.1239 -0.3048 -0.2273
  468TIP3   OH222894   6.052   3.757   0.488  0.0576 -0.5166  0.0373
  468TIP3    H122895   6.090   3.694   0.428 -0.4725  0.0330 -0.8970
  468TIP3    H222896   5.962   3.729   0.498  0.4693 -1.3781  1.6564
  469TIP3   OH222897   3.060   6.038  12.605 -0.0727 -0.1165  0.1986
  469TIP3    H122898   2.987   6.099  12.591 -0.0953 -0.0899  0.4182
  469TIP3    H222899   3.025   5.952  12.583  0.0724 -0.0093 -0.4886
  470TIP3   OH222900   5.155   4.411   3.020  0.1300 -0.1267  0.0990
  470TIP3    H122901   5.203   4.372   2.948  0.2474 -1.2706  0.7733
  470TIP3    H222902   5.072   4.440   2.981  0.8203  0.7149 -0.7974
  471TIP3   OH222903   0.521   4.790  15.942  0.2301 -0.0724  0.0324
  471TIP3    H122904   0.548   4.728  15.875 -2.3119 -0.9604 -0.2674
  471TIP3    H222905   0.443   4.832  15.907 -0.2296  0.6347  1.7689
  472TIP3   OH222906   0.505   3.382  12.055  0.2717 -0.5337  0.5577
  472TIP3    H122907   0.448   3.359  12.129 -0.4287  0.0085  0.1923
  472TIP3    H222908   0.519   3.476  12.064 -2.0741  0.1020 -1.5209
  473TIP3   OH222909   3.024   6.686   4.735 -0.6698 -0.2191 -0.3528
  473TIP3    H122910   2.947   6.703   4.789 -1.5271 -0.9114 -1.3141
  473TIP3    H222911   3.085   6.640   4.794  0.3007  2.8745  1.2816
  474TIP3   OH222912   3.554   3.836   1.145 -0.6315 -0.5241  0.0855
  474TIP3    H122913   3.472   3.842   1.193 -1.0994  1.0358 -0.8314
  474TIP3    H222914   3.580   3.744   1.154 -1.0323 -0.4595  2.6710
  475TIP3   OH222915   1.323   2.879   2.860  0.1867 -0.2915 -0.2555
  475TIP3    H122916   1.240   2.836   2.837  0.3622  0.5308 -2.6945
  475TIP3    H222917   1.298   2.969   2.880  0.4522 -0.0730 -0.8766
  476TIP3   OH222918   2.443   1.747  15.289 -0.4308  0.2755 -0.2103
  476TIP3    H122919   2.353   1.737  15.320 -0.5720 -1.6261 -1.1278
  476TIP3    H222920   2.478   1.819  15.342 -1.8360 -0.3186  1.6272
  477TIP3   OH222921   5.832   5.033  12.608  0.5136 -0.2124  0.3600
  477TIP3    H122922   5.783   5.095  12.554 -0.3824 -0.6444  0.6555
  477TIP3    H222923   5.919   5.071  12.615  0.9365 -0.5825 -2.1364
  478TIP3   OH222924   3.603   1.485   6.432  0.4038  0.0836  0.4219
  478TIP3    H122925   3.632   1.394   6.434  0.4905  0.0915  2.4394
  478TIP3    H222926   3.553   1.495   6.514 -1.0570  1.4006 -0.5622
  479TIP3   OH222927   3.324   3.101   2.213 -0.6035 -0.2421 -0.6903
  479TIP3    H122928   3.233   3.130   2.216 -0.4654  1.0126 -4.2181
  479TIP3    H222929   3.322   3.015   2.171 -0.2126 -0.7358  0.2665
  480TIP3   OH222930   6.139   1.942  12.034  0.1751 -0.0386  0.0869
  480TIP3    H122931   6.129   2.034  12.008 -0.4811  0.1266  0.8716
  480TIP3    H222932   6.050   1.914  12.057  0.6651 -0.2233  1.9144
  481TIP3   OH222933   5.102   3.298   0.622  0.0657 -0.3558  0.6946
  481TIP3    H122934   5.163   3.240   0.667  0.2646 -0.5717  0.1551
  481TIP3    H222935   5.138   3.386   0.637  1.1208 -0.5545 -0.5090
  482TIP3   OH222936   3.595   1.558  13.162  0.5076  0.2085 -0.1909
  482TIP3    H122937   3.591   1.584  13.070 -0.0489 -0.4138 -0.3555
  482TIP3    H222938   3.507   1.578  13.196 -0.7162 -3.2641 -0.8676
  483TIP3   OH222939   5.354   5.422   5.148  0.3384 -0.4449  0.1352
  483TIP3    H122940   5.301   5.453   5.221 -0.5573 -1.3433 -0.1123
  483TIP3    H222941   5.444   5.444   5.172 -0.1082  0.8164  0.7061
  484TIP3   OH222942   5.484   0.935  13.692  0.3811  0.3642 -0.3441
  484TIP3    H122943   5.437   1.004  13.737 -0.8035  0.3407 -1.4929
  484TIP3    H222944   5.421   0.899  13.629  1.1310 -1.3808 -0.1787
  485TIP3   OH222945   6.140   3.453  11.915 -0.2893  0.4297 -0.6476
  485TIP3    H122946   6.229   3.488  11.911  0.4212 -1.0063  1.1306
  485TIP3    H222947   6.084   3.529  11.899  1.2230  1.6190 -0.5803
  486TIP3   OH222948   6.102   1.245   6.422  0.3190 -0.2114 -0.7927
  486TIP3    H122949   6.143   1.312   6.367  2.2293  0.1066  0.8710
  486TIP3    H222950   6.139   1.162   6.391  1.0657 -0.0726 -0.3166
  487TIP3   OH222951   3.076   2.364   1.551 -0.9667 -0.0894 -0.4203
  487TIP3    H122952   3.078   2.332   1.460 -3.7373 -0.8457 -0.3289
  487TIP3    H222953   3.048   2.288   1.602  0.4616  0.3570  1.1049
  488TIP3   OH222954   0.611   6.403   3.059  0.3585 -0.8828  0.5919
  488TIP3    H122955   0.627   6.346   3.134 -0.2696 -0.7873  0.8035
  488TIP3    H222956   0.579   6.345   2.990 -2.0883 -0.5907  1.3804
  489TIP3   OH222957   3.163   2.806  12.417 -0.2140 -0.3348  0.5609
  489TIP3    H122958   3.127   2.892  12.395  2.5332  1.0979  1.1028
  489TIP3    H222959   3.133   2.790  12.507  0.9533  1.1620  1.2749
  490TIP3   OH222960   0.682   1.935  11.270  0.1459  0.0282  0.5789
  490TIP3    H122961   0.687   2.029  11.257 -1.4472 -0.0015 -0.6160
  490TIP3    H222962   0.715   1.897  11.189 -0.9938 -0.3711  0.2735
  491TIP3   OH222963   3.728   3.441   3.092 -0.1840 -0.2506 -0.3817
  491TIP3    H122964   3.796   3.377   3.114  0.4739  0.6052  0.1510
  491TIP3    H222965   3.682   3.455   3.175 -0.0256  0.2977 -0.3846
  492TIP3   OH222966   3.779   2.705   0.179 -0.1507 -0.4361 -0.0034
  492TIP3    H122967   3.694   2.713   0.224 -0.3402 -1.5493 -0.1259
  492TIP3    H222968   3.797   2.611   0.181  1.5190 -0.1247  0.7965
  493TIP3   OH222969   5.740   2.594  12.947 -0.6067 -0.0013  0.2730
  493TIP3    H122970   5.830   2.563  12.948 -0.4641  0.4023  1.3790
  493TIP3    H222971   5.694   2.532  12.890  0.4039 -0.0766 -0.4856
  494TIP3   OH222972   5.299   5.523  12.103  0.4934  0.4829 -0.2111
  494TIP3    H122973   5.273   5.607  12.066  0.1144  0.1689 -0.6745
  494TIP3    H222974   5.220   5.492  12.148  0.2960 -0.1067 -0.9411
  495TIP3   OH222975   2.658   4.593   4.255 -0.9687  0.5259  0.2444
  495TIP3    H122976   2.599   4.549   4.316  0.6017  0.5135  1.8278
  495TIP3    H222977   2.615   4.586   4.170 -2.2049 -1.3741  0.9813
  496TIP3   OH222978   5.638   2.106   2.837 -0.4227  0.4025 -0.0279
  496TIP3    H122979   5.573   2.175   2.852 -1.0661 -0.3774  0.9125
  496TIP3    H222980   5.593   2.025   2.861  1.1587 -0.0816  1.5309
  497TIP3   OH222981   6.600   1.308  14.343 -0.3121  0.1290  0.5407
  497TIP3    H122982   6.529   1.371  14.332 -1.2199 -0.8903  0.3211
  497TIP3    H222983   6.555   1.226  14.366  0.7393 -0.7178 -0.3345
  498TIP3   OH222984   1.773   1.719   6.100  0.2048  0.0257 -0.1414
  498TIP3    H122985   1.799   1.724   6.192 -1.5750  0.4275  0.3769
  498TIP3    H222986   1.772   1.810   6.071  1.0357 -0.1183 -0.6680
  499TIP3   OH222987   4.611   5.397   4.154  0.4298 -0.0795  0.2502
  499TIP3    H122988   4.563   5.408   4.236  1.2686 -0.7741  0.8507
  499TIP3    H222989   4.595   5.306   4.129 -1.0309  0.5155 -1.1649
  500TIP3   OH222990   6.669   4.211  14.639 -0.7778  0.4657 -0.3913
  500TIP3    H122991   6.622   4.289  14.606 -0.5466  1.1393  0.8303
  500TIP3    H222992   6.602   4.144  14.645 -1.5589  1.3183  0.9966
  501TIP3   OH222993   1.738   4.118  12.669  0.5241  0.7725 -0.3910
  501TIP3    H122994   1.696   4.140  12.752  0.8210 -0.6462  0.1743
  501TIP3    H222995   1.816   4.068  12.694 -0.6327 -1.8011 -1.4991
  502TIP3   OH222996   4.233   4.360  11.564  0.3477  0.1975 -0.1613
  502TIP3    H122997   4.274   4.337  11.481 -1.9863  0.5023 -1.4884
  502TIP3    H222998   4.267   4.296  11.627  0.1871 -1.6899 -1.9250
  503TIP3   OH222999   2.085   2.951   2.729  0.5279  0.1145 -0.3847
  503TIP3    H123000   2.106   2.929   2.638  0.0420  0.5914 -0.6194
  503TIP3    H223001   2.031   3.030   2.722 -2.1108 -1.5514  0.1410
  504TIP3   OH223002   4.354   4.948  11.459  0.1593  0.5217 -0.0191
  504TIP3    H123003   4.352   5.042  11.440  0.3770  0.5179 -0.0687
  504TIP3    H223004   4.437   4.918  11.420  0.8225  0.5917  1.2781
  505TIP3   OH223005   4.982   0.540  16.070 -0.4380 -0.1913 -0.2528
  505TIP3    H123006   4.946   0.562  16.155  2.8007 -1.5386  1.6353
  505TIP3    H223007   5.028   0.619  16.042  0.7470 -0.5595  0.5884
  506TIP3   OH223008   1.623   5.687  13.003  0.5377  0.4221 -0.3406
  506TIP3    H123009   1.653   5.611  13.053  0.4773  1.5451  1.5052
  506TIP3    H223010   1.585   5.745  13.068 -1.9514  0.8855 -2.0637
  507TIP3   OH223011   5.600   4.697  16.737 -0.5524  0.7534 -0.1804
  507TIP3    H123012   5.677   4.749  16.717  0.0950 -0.1341 -0.0577
  507TIP3    H223013   5.546   4.701  16.658  0.3914  0.0469 -0.8865
  508TIP3   OH223014   4.738   4.310  11.280 -0.5509  0.1158  0.4229
  508TIP3    H123015   4.800   4.352  11.340  0.9333  2.3254 -2.3904
  508TIP3    H223016   4.793   4.258  11.222 -1.3911  1.1163 -1.3590
  509TIP3   OH223017   2.887   5.642  15.977 -0.3415 -0.6387 -0.3141
  509TIP3    H123018   2.848   5.578  16.036  0.3532 -0.3829  0.4498
  509TIP3    H223019   2.875   5.726  16.022  0.2841 -0.4521 -0.4849
  510TIP3   OH223020   3.680   1.350   0.095  0.3160  0.4300 -0.0655
  510TIP3    H123021   3.600   1.319   0.054  0.2741 -4.3667  2.7980
  510TIP3    H223022   3.747   1.344   0.027 -0.9374 -0.1977 -1.2733
  511TIP3   OH223023   2.808   2.294   3.100 -0.1339  0.5572 -0.6974
  511TIP3    H123024   2.886   2.269   3.150  1.0655  1.3019 -2.1107
  511TIP3    H223025   2.793   2.386   3.124  0.7992  1.0966 -2.0891
  512TIP3   OH223026   1.159   5.499  12.184 -0.3427 -0.3276 -0.3067
  512TIP3    H123027   1.114   5.555  12.248  0.6957 -0.5205  0.6278
  512TIP3    H223028   1.193   5.426  12.236  0.9468 -0.2423 -0.9885
  513TIP3   OH223029   3.280   2.510  16.181  0.0248  0.1044 -0.6582
  513TIP3    H123030   3.348   2.536  16.243  0.7225 -2.1063 -0.4034
  513TIP3    H223031   3.306   2.551  16.098  1.9634 -1.0528 -0.6786
  514TIP3   OH223032   6.527   0.483  12.271  0.7696 -0.5019  0.1407
  514TIP3    H123033   6.498   0.415  12.332 -0.4707  2.1935  2.8067
  514TIP3    H223034   6.622   0.486  12.282  0.5831 -0.0979  2.0245
  515TIP3   OH223035   6.582   5.388  16.099 -0.0114 -0.0838 -0.9653
  515TIP3    H123036   6.624   5.474  16.106  0.6598 -0.5203  0.7529
  515TIP3    H223037   6.497   5.400  16.142 -0.6465  0.1332 -2.2259
  516TIP3   OH223038   4.361   0.877  16.937 -0.5504  0.0870  0.2611
  516TIP3    H123039   4.451   0.881  16.903 -0.3111  1.4892  0.9871
  516TIP3    H223040   4.372   0.879  17.032 -1.3674  0.5197  0.3501
  517TIP3   OH223041   2.486   6.236  13.935 -0.2737  0.1436 -0.2620
  517TIP3    H123042   2.393   6.227  13.952 -0.3229  1.5330  0.3497
  517TIP3    H223043   2.514   6.310  13.990  1.4822 -1.1347  0.6950
  518TIP3   OH223044   1.694   5.161   4.687  0.1268 -0.4102  0.0809
  518TIP3    H123045   1.609   5.205   4.691  1.0229  1.4932 -0.3611
  518TIP3    H223046   1.743   5.210   4.620  1.3379 -1.9058 -0.1900
  519TIP3   OH223047   2.925   1.751  15.706  0.0578  0.8075  0.2663
  519TIP3    H123048   2.978   1.795  15.772  1.1202 -0.8507  0.5790
  519TIP3    H223049   2.988   1.698  15.657 -1.2600 -1.1640  0.6020
  520TIP3   OH223050   6.748   1.392   5.429  0.0645 -0.1395  0.1061
  520TIP3    H123051   6.758   1.484   5.453 -0.3195 -0.0324 -0.1421
  520TIP3    H223052   6.783   1.344   5.504  0.4976  0.2086  0.1319
  521TIP3   OH223053   5.317   0.857   2.555 -0.0860 -0.1112  0.6737
  521TIP3    H123054   5.233   0.813   2.567  0.0191 -0.0402  1.8600
  521TIP3    H223055   5.301   0.948   2.577  0.0365  0.1555 -0.3053
  522TIP3   OH223056   5.201   2.394   2.343 -0.4317 -0.2736 -0.5805
  522TIP3    H123057   5.244   2.336   2.279 -0.2328  0.0377 -0.7309
  522TIP3    H223058   5.237   2.367   2.427 -1.2622 -1.2042 -0.5075
  523TIP3   OH223059   6.294   1.447  16.865 -0.4391  0.4079  0.5006
  523TIP3    H123060   6.334   1.449  16.952  0.5044  0.1183  0.0912
  523TIP3    H223061   6.283   1.540  16.842 -1.4698  0.4860  1.2586
  524TIP3   OH223062   5.730   0.368   1.051  0.0986 -0.2545  0.0324
  524TIP3    H123063   5.701   0.280   1.074 -0.5562 -0.4780 -1.5308
  524TIP3    H223064   5.656   0.407   1.005 -0.3808  1.8722  2.3510
  525TIP3   OH223065   6.769   0.269   1.555  0.2436  0.2951  0.1438
  525TIP3    H123066   6.692   0.313   1.520 -1.2740 -0.8843  1.7981
  525TIP3    H223067   6.743   0.242   1.643  2.3921 -0.5862  0.5788
  526TIP3   OH223068   6.695   6.694   3.035 -0.2146  0.2251 -0.5320
  526TIP3    H123069   6.776   6.644   3.048 -0.7015 -0.0386  1.8185
  526TIP3    H223070   6.625   6.629   3.045 -0.7888  0.8711 -0.2966
  527TIP3   OH223071   0.450   0.497   1.516  0.1945  0.1324 -0.0034
  527TIP3    H123072   0.467   0.563   1.583 -0.2330 -0.6492  0.8832
  527TIP3    H223073   0.514   0.517   1.447 -0.4927  2.0122 -0.1658
  528TIP3   OH223074   4.108   5.845  13.596  0.2249  0.5378  0.3441
  528TIP3    H123075   4.079   5.795  13.673  0.8931 -1.2090 -0.4781
  528TIP3    H223076   4.183   5.896  13.629  0.6229 -0.3285  0.8442
  529TIP3   OH223077   6.014   3.529  15.312  0.4467  0.4928  0.2316
  529TIP3    H123078   6.005   3.594  15.242  1.1474 -0.2309 -0.5572
  529TIP3    H223079   6.065   3.573  15.380 -0.2054  1.1905  0.2737
  530TIP3   OH223080   2.482   4.892   3.343 -0.0560 -0.6382 -0.2811
  530TIP3    H123081   2.576   4.909   3.331  0.0122 -0.2738  0.6982
  530TIP3    H223082   2.447   4.973   3.380 -0.8239 -0.6648 -0.9102
  531TIP3   OH223083   6.682   1.122   3.746  0.3112 -0.2320  0.5574
  531TIP3    H123084   6.743   1.195   3.748  1.1730 -0.8819 -0.6873
  531TIP3    H223085   6.717   1.059   3.809 -0.3793  0.3640  1.5589
  532TIP3   OH223086   5.009   1.637  14.288 -0.5842 -0.5453 -0.4478
  532TIP3    H123087   4.946   1.671  14.225 -1.3170  1.6393  1.3387
  532TIP3    H223088   5.036   1.713  14.339  1.8764 -1.7938  0.2839
  533TIP3   OH223089   3.074   1.479   5.152 -0.3083 -0.0565  0.1609
  533TIP3    H123090   3.007   1.482   5.220  0.3006  0.2801  0.7508
  533TIP3    H223091   3.025   1.479   5.070 -1.0067  0.9579  0.5703
  534TIP3   OH223092   3.021   6.165   1.244  0.2931 -0.7769 -0.1287
  534TIP3    H123093   3.044   6.214   1.322  1.7455 -0.1708 -0.9026
  534TIP3    H223094   2.929   6.142   1.256 -0.3375  1.8109  0.4297
  535TIP3   OH223095   5.136   2.311  16.991  0.8368  0.6478 -0.0833
  535TIP3    H123096   5.131   2.285  17.083  2.2888 -0.2589 -0.2402
  535TIP3    H223097   5.103   2.235  16.942  1.0954  0.7147 -0.3660
  536TIP3   OH223098   5.034   6.684   0.747 -0.9631 -0.7742  0.2116
  536TIP3    H123099   5.073   6.617   0.803 -0.7780 -1.1524 -0.3692
  536TIP3    H223100   5.109   6.732   0.712 -1.1112  0.6481  1.7018
  537TIP3   OH223101   2.783   3.205   3.703  0.3040 -0.1636 -0.1604
  537TIP3    H123102   2.815   3.295   3.708 -0.1157 -0.0668  1.1347
  537TIP3    H223103   2.834   3.166   3.632  0.8687  0.9355 -0.3920
  538TIP3   OH223104   2.371   2.865  16.164 -0.1503 -0.0856  0.2533
  538TIP3    H123105   2.296   2.889  16.219 -0.4019  1.4609 -0.6954
  538TIP3    H223106   2.447   2.879  16.220 -0.4742  0.1772  0.6361
  539TIP3   OH223107   3.269   4.262   1.064 -0.0228  0.4999 -0.3044
  539TIP3    H123108   3.343   4.204   1.083  1.3901  2.2457 -0.0796
  539TIP3    H223109   3.230   4.279   1.150 -0.1810  0.2070 -0.3179
  540TIP3   OH223110   4.217   0.887   5.705  0.3853  0.4619 -0.0513
  540TIP3    H123111   4.309   0.879   5.679  0.4936  1.3413  0.0475
  540TIP3    H223112   4.218   0.869   5.799  0.4024  0.1554 -0.1066
  541TIP3   OH223113   0.961   4.323   5.289 -0.3053  0.0865 -0.4706
  541TIP3    H123114   0.885   4.320   5.231 -0.2535  0.4663 -0.5585
  541TIP3    H223115   0.956   4.409   5.330  0.0005  0.0569 -0.3692
  542TIP3   OH223116   4.827   2.110  15.829  0.0533 -0.0486  0.0823
  542TIP3    H123117   4.755   2.092  15.769  0.7275  2.3237 -1.6230
  542TIP3    H223118   4.847   2.026  15.870 -2.6352 -1.0721 -0.5277
  543TIP3   OH223119   0.425   6.108   5.292  0.6048  0.0360 -0.3047
  543TIP3    H123120   0.397   6.052   5.220  1.2225 -1.0974  0.3052
  543TIP3    H223121   0.367   6.184   5.288 -0.5350 -0.8432 -0.8866
  544TIP3   OH223122   2.961   4.206  15.458  0.1418  0.0336  0.1387
  544TIP3    H123123   2.893   4.253  15.409  0.5491  1.6417  1.0496
  544TIP3    H223124   2.931   4.115  15.459 -0.9246  0.3235 -1.2742
  545TIP3   OH223125   1.315   5.257   1.419 -0.2919  0.8292 -0.0713
  545TIP3    H123126   1.389   5.312   1.444  0.4522  0.4467 -1.3686
  545TIP3    H223127   1.354   5.175   1.390 -1.2527  0.4646 -0.3705
  546TIP3   OH223128   3.838   4.850  16.230  0.0720 -0.2987 -0.2854
  546TIP3    H123129   3.773   4.920  16.242  1.0946  0.5935  0.2512
  546TIP3    H223130   3.920   4.897  16.211  0.3706 -1.4276 -1.9614
  547TIP3   OH223131   2.460   5.613   3.841  0.5368 -0.3305 -0.4822
  547TIP3    H123132   2.544   5.634   3.881 -0.2553  2.0203  0.1248
  547TIP3    H223133   2.427   5.538   3.890  1.6335 -0.3679  0.2129
  548TIP3   OH223134   0.704   2.609  11.167 -0.9879  0.1527 -0.1934
  548TIP3    H123135   0.789   2.652  11.158  0.2393 -1.8008  1.1288
  548TIP3    H223136   0.656   2.662  11.230  0.2374  0.0094  0.9065
  549TIP3   OH223137   5.536   6.313   2.573 -0.1069  0.0516  0.0250
  549TIP3    H123138   5.473   6.246   2.548  0.5224 -0.2288 -0.8722
  549TIP3    H223139   5.485   6.394   2.579 -0.7746 -0.4054  0.6160
  550TIP3   OH223140   3.315   1.509  12.297  0.1265 -0.4471  0.1063
  550TIP3    H123141   3.259   1.582  12.270  0.3474  0.3140  1.5887
  550TIP3    H223142   3.320   1.452  12.221  1.3303  1.9324 -1.7191
  551TIP3   OH223143   4.331   4.036   2.874 -0.0544 -0.4873  0.8704
  551TIP3    H123144   4.395   3.965   2.887 -2.0686 -2.7694 -0.7717
  551TIP3    H223145   4.377   4.100   2.820  1.4749 -1.0321  1.4573
  552TIP3   OH223146   0.232   3.114   0.415 -0.6297  0.6632  0.3659
  552TIP3    H123147   0.284   3.141   0.491  1.1182 -1.0642 -0.1211
  552TIP3    H223148   0.297   3.084   0.351 -2.1832 -3.5067  0.4398
  553TIP3   OH223149   5.476   2.862   1.247 -0.2063  0.1739 -0.0492
  553TIP3    H123150   5.495   2.946   1.205  1.3551 -0.4314 -0.6662
  553TIP3    H223151   5.410   2.822   1.191 -0.5061  0.7305 -0.1011
  554TIP3   OH223152   0.583   6.650  12.374 -0.2364  0.0899  0.1354
  554TIP3    H123153   0.602   6.586  12.442 -0.2774  0.7750  0.8039
  554TIP3    H223154   0.542   6.599  12.304  2.0764 -1.0723 -0.4807
  555TIP3   OH223155   5.111   1.170   3.276 -0.4202  0.0719  0.2492
  555TIP3    H123156   5.192   1.175   3.224 -0.7004  0.3774 -0.1641
  555TIP3    H223157   5.073   1.258   3.270 -0.6119  0.0231  0.7220
  556TIP3   OH223158   4.629   1.113  13.529 -0.1240 -0.1494 -0.5849
  556TIP3    H123159   4.640   1.032  13.479  0.0188 -0.0143 -0.7739
  556TIP3    H223160   4.534   1.125  13.534 -0.1559  0.9412 -2.6369
  557TIP3   OH223161   4.591   4.572  12.810  0.0699  0.0627  0.2246
  557TIP3    H123162   4.672   4.529  12.782 -0.1281 -1.1928  1.4362
  557TIP3    H223163   4.546   4.594  12.728  1.2896  0.1289 -0.4584
  558TIP3   OH223164   3.664   4.518   5.906 -0.0902  0.3500  0.1775
  558TIP3    H123165   3.661   4.436   5.955 -0.7430 -0.1674 -0.6887
  558TIP3    H223166   3.756   4.528   5.883  0.4494  1.2332  2.4728
  559TIP3   OH223167   1.751   5.460   2.029 -0.5610  0.3778  0.2075
  559TIP3    H123168   1.684   5.484   1.965 -1.0814 -1.2692  0.0878
  559TIP3    H223169   1.833   5.461   1.980 -0.6122  1.4528  0.1213
  560TIP3   OH223170   2.747   1.311  16.735  0.0570  0.3196 -0.2179
  560TIP3    H123171   2.748   1.401  16.702  0.7458  0.9816  1.4619
  560TIP3    H223172   2.699   1.261  16.669 -0.2247  1.8928 -1.2532
  561TIP3   OH223173   0.967   5.868  12.938  0.4067  0.2447  0.1301
  561TIP3    H123174   0.928   5.954  12.923  1.2366  0.3208 -1.8604
  561TIP3    H223175   1.029   5.856  12.867  0.8266 -1.7242  0.7439
  562TIP3   OH223176   2.495   3.330   3.770  0.2099 -0.8850 -0.2780
  562TIP3    H123177   2.467   3.340   3.861  3.1295  0.2989  0.5981
  562TIP3    H223178   2.557   3.257   3.770  0.2919 -0.8415 -1.3109
  563TIP3   OH223179   5.589   1.516   0.545 -0.2806 -0.1633  0.3360
  563TIP3    H123180   5.640   1.522   0.464 -1.1451  1.9777 -0.1008
  563TIP3    H223181   5.498   1.518   0.516 -0.6189 -0.8694  1.3027
  564TIP3   OH223182   5.885   2.169   1.762 -0.3494 -0.1320  0.0698
  564TIP3    H123183   5.947   2.162   1.834 -0.5800 -0.1032  0.2702
  564TIP3    H223184   5.835   2.087   1.765 -0.5324 -0.0200  0.1032
  565TIP3   OH223185   1.481   1.676   6.149  0.7640  0.0126 -0.3902
  565TIP3    H123186   1.460   1.728   6.071  3.0087  0.7167 -0.5810
  565TIP3    H223187   1.565   1.710   6.179  1.2973 -2.1135  0.7245
  566TIP3   OH223188   2.436   6.794  12.686  0.0738 -0.5893 -0.1872
  566TIP3    H123189   2.478   6.859  12.629 -1.3322  0.4173 -0.1314
  566TIP3    H223190   2.498   6.781  12.757  0.1967  1.0656  0.0420
  567TIP3   OH223191   6.335   2.051  12.618 -0.5668 -0.3895  0.8176
  567TIP3    H123192   6.365   2.098  12.540  0.2931 -0.5321  1.0495
  567TIP3    H223193   6.384   1.969  12.617 -1.0357 -0.6807  1.1589
  568TIP3   OH223194   3.602   3.625   0.454 -0.1819  0.1543  0.4702
  568TIP3    H123195   3.551   3.577   0.520 -0.9769  0.6961  0.2613
  568TIP3    H223196   3.563   3.712   0.453 -0.0325  0.2169 -0.5580
  569TIP3   OH223197   3.703   1.246   1.762  0.1603 -0.0246 -0.0309
  569TIP3    H123198   3.687   1.201   1.680  1.8960 -0.0645 -0.3809
  569TIP3    H223199   3.616   1.276   1.790 -0.4969 -0.2287 -1.7303
  570TIP3   OH223200   6.565   4.153  14.196  0.2150  0.5686  0.2639
  570TIP3    H123201   6.567   4.247  14.178 -0.8230  0.2730 -1.6772
  570TIP3    H223202   6.605   4.113  14.118  1.0066 -0.6106  1.2287
  571TIP3   OH223203   6.234   6.033   4.045  0.0410 -0.8062 -0.0232
  571TIP3    H123204   6.318   6.074   4.065  0.0344 -0.5519 -0.5130
  571TIP3    H223205   6.173   6.067   4.111  0.0279 -0.0031 -0.4471
  572TIP3   OH223206   6.106   5.404  16.133  0.1361  0.4447  0.1745
  572TIP3    H123207   6.126   5.339  16.200  0.6265  0.6354  0.2110
  572TIP3    H223208   6.021   5.439  16.158  0.5195  0.8384  0.9445
  573TIP3   OH223209   4.564   3.995  15.934  0.9670  0.2107  1.0958
  573TIP3    H123210   4.573   4.086  15.960  0.3134  0.4043  0.6438
  573TIP3    H223211   4.597   3.992  15.844 -3.7732  1.1054 -0.9522
  574TIP3   OH223212   0.096   3.096  16.333  0.0404  0.0324  0.0008
  574TIP3    H123213   0.045   3.017  16.351  0.9126 -0.5768 -0.1655
  574TIP3    H223214   0.175   3.086  16.386  0.3605  0.5754 -0.3690
  575TIP3   OH223215   6.606   0.223  12.331 -0.4774  0.4981  0.1179
  575TIP3    H123216   6.562   0.165  12.269  1.3226 -0.4862 -0.3214
  575TIP3    H223217   6.673   0.267  12.280  1.2046 -0.5064  1.3255
  576TIP3   OH223218   0.815   3.863  16.536  0.1644  0.3758 -0.1500
  576TIP3    H123219   0.850   3.943  16.575 -1.0798  1.6686 -1.5463
  576TIP3    H223220   0.720   3.873  16.542 -0.0338 -1.4345  0.4326
  577TIP3   OH223221   6.301   4.215  15.858  0.7269 -0.1007 -0.6083
  577TIP3    H123222   6.332   4.224  15.949  0.2738 -0.7187 -0.3811
  577TIP3    H223223   6.376   4.179  15.811  0.8156 -0.2340 -0.3685
  578TIP3   OH223224   0.009   1.887  15.925 -0.2280  0.2590 -0.1756
  578TIP3    H123225  -0.006   1.855  15.836  1.7317 -1.0860 -0.0690
  578TIP3    H223226   0.059   1.968  15.913 -0.6253  0.4895 -0.3008
  579TIP3   OH223227   6.203   0.027   2.030  0.2146  0.1879 -0.1640
  579TIP3    H123228   6.260  -0.029   1.976 -0.2783  0.3642 -0.8855
  579TIP3    H223229   6.250   0.036   2.113 -0.2123 -2.2338  0.4066
  580TIP3   OH223230   5.769   0.662  14.607 -0.0135 -0.5714 -0.2226
  580TIP3    H123231   5.804   0.641  14.694  1.3950  1.2633 -0.2782
  580TIP3    H223232   5.710   0.736  14.622 -0.3155 -0.7072 -0.7373
  581TIP3   OH223233   6.214   4.588  17.108  0.5528 -0.0493  0.1657
  581TIP3    H123234   6.261   4.506  17.095 -1.9316 -1.3260 -1.6433
  581TIP3    H223235   6.233   4.613  17.199  0.6699 -3.1343  1.1008
  582TIP3   OH223236   6.082   6.767  14.567 -0.0339 -0.0304  0.5069
  582TIP3    H123237   6.000   6.741  14.609  0.5372 -1.8302  0.5739
  582TIP3    H223238   6.080   6.863  14.570 -0.6878 -0.0457  3.3513
  583TIP3   OH223239   4.464   4.293  14.939 -0.0367 -0.1396  0.3712
  583TIP3    H123240   4.435   4.214  14.985 -2.6345 -0.0907 -0.9908
  583TIP3    H223241   4.402   4.303  14.867  0.9709  2.4595 -0.2554
  584TIP3   OH223242   1.998   5.901   2.428 -0.0071 -0.1722 -0.3878
  584TIP3    H123243   1.961   5.821   2.465 -3.4381  1.3898  0.0230
  584TIP3    H223244   1.999   5.886   2.334 -2.2156 -0.2155 -0.4627
  585TIP3   OH223245   6.673   3.377  11.481  0.2047  0.2883  0.0446
  585TIP3    H123246   6.743   3.331  11.434 -1.3871 -1.4325 -0.7800
  585TIP3    H223247   6.610   3.402  11.413 -1.7532 -1.5272  1.0543
  586TIP3   OH223248   5.044   6.154   5.831  0.1037 -0.2726 -0.4233
  586TIP3    H123249   5.112   6.171   5.765 -0.3227 -0.5544 -0.9423
  586TIP3    H223250   5.092   6.147   5.914  0.9279 -2.1582 -1.0044
  587TIP3   OH223251   2.633   3.737  15.401  0.1041 -0.4418  0.6182
  587TIP3    H123252   2.661   3.818  15.358 -1.1138  0.0378  0.6795
  587TIP3    H223253   2.714   3.689  15.418  1.2126  2.0917  3.3232
  588TIP3   OH223254   2.872   4.315  12.066  0.2143  0.4131 -0.1238
  588TIP3    H123255   2.853   4.405  12.038 -0.1261 -0.7507 -4.4799
  588TIP3    H223256   2.789   4.281  12.098  0.5291  1.7578  2.3775
  589TIP3   OH223257   4.636   5.264  11.049 -0.4487 -0.2948 -0.1001
  589TIP3    H123258   4.684   5.181  11.049 -0.0607 -0.0932  1.0616
  589TIP3    H223259   4.704   5.332  11.044 -0.8043 -0.0191 -2.1072
  590TIP3   OH223260   5.744   0.882   3.632  0.0777  0.4157 -0.4498
  590TIP3    H123261   5.671   0.904   3.575 -0.2307 -0.2152 -0.3143
  590TIP3    H223262   5.722   0.795   3.666  0.8974  0.2121 -0.4149
  591TIP3   OH223263   6.622   0.610   1.607 -0.2043 -0.2471  0.3673
  591TIP3    H123264   6.607   0.661   1.527  1.6322  1.3311  0.9385
  591TIP3    H223265   6.713   0.582   1.601 -0.1044 -0.3046  1.7813
  592TIP3   OH223266   4.133   3.358  11.779  0.1614 -0.5076 -0.3368
  592TIP3    H123267   4.175   3.437  11.812 -0.6100 -1.3388  3.0009
  592TIP3    H223268   4.205   3.298  11.759  0.7302 -0.6384  1.8574
  593TIP3   OH223269   5.814   6.767  16.554  0.8076  0.2727  0.2170
  593TIP3    H123270   5.834   6.856  16.582 -0.6026  1.0089 -0.9896
  593TIP3    H223271   5.807   6.773  16.459 -0.6686 -0.8305  0.2289
  594TIP3   OH223272   2.764   4.893   0.327  0.0348  0.7019  0.1870
  594TIP3    H123273   2.783   4.799   0.327 -1.5382  0.2835 -3.0116
  594TIP3    H223274   2.672   4.899   0.350  0.2163  1.5415  0.7485
  595TIP3   OH223275   3.911   1.019  14.829 -0.1707 -0.1294  0.1033
  595TIP3    H123276   3.988   1.075  14.821 -0.7104  0.5748 -0.3387
  595TIP3    H223277   3.894   0.988  14.740 -1.4139  1.1395 -0.1322
  596TIP3   OH223278   1.160   1.043   3.950  0.5318  0.0478  0.1824
  596TIP3    H123279   1.119   0.958   3.969  1.2858 -0.5289 -0.7144
  596TIP3    H223280   1.252   1.022   3.933  1.0577  1.2320  1.3700
  597TIP3   OH223281   1.128   1.094  10.904  0.2204 -0.3793  0.0885
  597TIP3    H123282   1.153   1.013  10.860  0.9316 -0.5069  0.7036
  597TIP3    H223283   1.137   1.075  10.997 -0.0306  0.2707  0.2519
  598TIP3   OH223284   3.290   1.864  13.844 -0.0655  0.2134 -0.2002
  598TIP3    H123285   3.296   1.927  13.773  0.7496  1.0288  0.5611
  598TIP3    H223286   3.350   1.794  13.820 -1.2291 -0.4594 -1.2126
  599TIP3   OH223287   6.663   2.799   1.133 -0.2901 -0.1602 -0.1858
  599TIP3    H123288   6.653   2.720   1.186 -0.3157 -0.4402 -0.6073
  599TIP3    H223289   6.747   2.836   1.160 -1.5080  1.2021  2.0525
  600TIP3   OH223290   3.089   5.121  11.391  0.4054 -0.1441  0.3273
  600TIP3    H123291   3.176   5.153  11.415  0.6724 -0.7531  0.1859
  600TIP3    H223292   3.096   5.026  11.399  0.0700 -0.2665 -0.7643
  601TIP3   OH223293   5.226   4.942  15.128 -0.7718 -0.1791 -0.7978
  601TIP3    H123294   5.291   4.893  15.179 -0.0016 -0.5467 -2.0827
  601TIP3    H223295   5.215   4.890  15.048 -1.1922  0.8894 -1.4530
  602TIP3   OH223296   5.017   0.884   2.437  0.4729 -0.1498  0.0123
  602TIP3    H123297   4.933   0.875   2.391  1.2543 -0.8132 -1.3215
  602TIP3    H223298   5.062   0.955   2.391  0.0833  1.2851  1.6841
  603TIP3   OH223299   1.062   4.585  12.343  0.1359 -0.5446  0.3041
  603TIP3    H123300   0.986   4.545  12.300  0.0725 -0.9915  0.8166
  603TIP3    H223301   1.057   4.678  12.320 -0.0719 -0.7202 -0.3824
  604TIP3   OH223302   1.227   1.315   2.691  0.0220 -0.6757 -0.4286
  604TIP3    H123303   1.312   1.357   2.706 -0.1104 -0.3576 -0.5601
  604TIP3    H223304   1.217   1.255   2.765 -0.1957  0.1813  0.2529
  605TIP3   OH223305   6.187   5.205   1.276 -0.2098 -0.9588 -0.5148
  605TIP3    H123306   6.247   5.209   1.351  0.3669 -2.2659 -0.8682
  605TIP3    H223307   6.102   5.231   1.312 -0.0954 -2.2451  0.7871
  606TIP3   OH223308   1.264   5.556  15.270  0.2284 -0.0449  0.0689
  606TIP3    H123309   1.241   5.630  15.213 -0.2140 -0.7284 -0.6717
  606TIP3    H223310   1.280   5.484  15.209  2.5120 -0.1086  0.6586
  607TIP3   OH223311   4.459   3.167  12.445  0.1378 -0.2527  0.5798
  607TIP3    H123312   4.374   3.202  12.419  0.7442 -0.0671 -1.3168
  607TIP3    H223313   4.443   3.073  12.455 -0.1252 -0.3606 -0.6562
  608TIP3   OH223314   5.056   3.943   2.657  0.4743 -0.1578  0.6172
  608TIP3    H123315   4.968   3.970   2.631  0.1784 -1.6934 -0.0920
  608TIP3    H223316   5.072   3.989   2.739 -0.3435  1.3752 -0.0339
  609TIP3   OH223317   5.764   2.545   2.841 -0.7787 -0.2435  0.2100
  609TIP3    H123318   5.826   2.472   2.840  1.1177  1.1642 -3.1269
  609TIP3    H223319   5.778   2.588   2.926  2.0858 -0.6539  0.0599
  610TIP3   OH223320   2.034   1.370  12.009  1.0621 -0.3937  0.1263
  610TIP3    H123321   2.010   1.397  12.097 -2.2683  2.0709 -1.2966
  610TIP3    H223322   1.953   1.334  11.972  1.5278  1.1347 -2.6858
  611TIP3   OH223323   5.213   3.307  13.934  0.5631  0.4943  0.3041
  611TIP3    H123324   5.169   3.222  13.932  1.1646  0.1828 -0.6961
  611TIP3    H223325   5.240   3.321  13.843  2.9949  0.4240  0.9383
  612TIP3   OH223326   5.327   5.271  10.856 -0.2852 -0.1417 -0.0450
  612TIP3    H123327   5.406   5.235  10.816  0.1022  0.8469 -0.1994
  612TIP3    H223328   5.321   5.360  10.821 -0.4847  0.4071  1.3392
  613TIP3   OH223329   3.544   4.664   4.755  0.3975  0.3309  0.0578
  613TIP3    H123330   3.600   4.591   4.728  0.9847  0.8414 -0.1162
  613TIP3    H223331   3.468   4.658   4.697  0.3987 -0.1904  0.1022
  614TIP3   OH223332   2.278   1.695  13.126  0.5764  0.7079 -0.1564
  614TIP3    H123333   2.348   1.731  13.072 -0.1758  2.4640 -0.0329
  614TIP3    H223334   2.201   1.748  13.104 -0.3145 -0.0969  0.9023
  615TIP3   OH223335   1.769   5.419   4.494 -0.3156 -0.1608  0.1252
  615TIP3    H123336   1.856   5.459   4.495 -0.5907  0.5746 -1.4942
  615TIP3    H223337   1.773   5.354   4.424 -0.3870 -1.8415  1.6367
  616TIP3   OH223338   3.222   2.578   3.386  0.3461 -0.0149  0.7463
  616TIP3    H123339   3.295   2.604   3.329 -0.0188 -0.7884 -0.0905
  616TIP3    H223340   3.208   2.486   3.366  0.9917 -0.6487  2.9865
  617TIP3   OH223341   4.645   0.137   4.931 -0.4388 -0.5000  0.3286
  617TIP3    H123342   4.622   0.045   4.943  0.6679 -0.9839 -0.9621
  617TIP3    H223343   4.716   0.153   4.992 -2.0646  0.1668  2.1586
  618TIP3   OH223344   1.844   1.449   4.284  0.0923 -0.7020  0.0218
  618TIP3    H123345   1.759   1.413   4.261 -0.3704 -1.2448  2.3146
  618TIP3    H223346   1.896   1.373   4.309  0.6690 -0.2124  0.3351
  619TIP3   OH223347   6.699   0.425   0.465 -0.3584 -1.1048 -0.1185
  619TIP3    H123348   6.610   0.390   0.463 -0.5637 -0.8583  2.3438
  619TIP3    H223349   6.694   0.500   0.524  1.3684 -0.7430 -0.3899
  620TIP3   OH223350   3.178   1.876   0.574 -0.1937 -0.0107 -0.5160
  620TIP3    H123351   3.113   1.826   0.623  0.6689 -0.3043  0.3469
  620TIP3    H223352   3.241   1.905   0.640  0.7974 -0.1096 -1.3934
  621TIP3   OH223353   3.333   5.479  10.897 -0.0075 -0.2169 -0.5637
  621TIP3    H123354   3.405   5.451  10.955  0.6943  2.0447 -0.2640
  621TIP3    H223355   3.269   5.518  10.956 -0.2496  0.2293 -1.1215
  622TIP3   OH223356   2.963   2.546  14.160 -0.1333 -0.4001  0.7249
  622TIP3    H123357   3.022   2.617  14.185 -1.2542  0.2800  1.5662
  622TIP3    H223358   2.901   2.587  14.100 -0.1641 -0.9383  0.3795
  623TIP3   OH223359   0.136   2.619  14.746  0.1775 -0.0415 -0.0905
  623TIP3    H123360   0.136   2.681  14.673 -1.4276  0.5279  0.3677
  623TIP3    H223361   0.048   2.583  14.748  0.1549  0.0242  1.6167
  624TIP3   OH223362   4.942   4.228  11.606 -0.3118 -0.0311  0.0053
  624TIP3    H123363   5.026   4.251  11.567 -1.2891  0.5853 -1.8783
  624TIP3    H223364   4.901   4.169  11.542 -1.0629 -0.8538  1.1918
  625TIP3   OH223365   0.110   3.504  16.864 -0.2283 -0.0245 -0.0618
  625TIP3    H123366   0.132   3.525  16.954 -1.7123 -0.7567  0.5026
  625TIP3    H223367   0.026   3.548  16.848  0.9686  1.8259 -1.7876
  626TIP3   OH223368   2.473   4.188  14.811 -0.0020  0.2594  0.6951
  626TIP3    H123369   2.385   4.163  14.783  0.4642  0.8556 -1.5347
  626TIP3    H223370   2.470   4.284  14.816  0.2703  0.2288  1.6146
  627TIP3   OH223371   0.084   4.813  15.428  0.5581  0.3291 -0.7721
  627TIP3    H123372   0.074   4.820  15.523 -0.1042 -2.5644 -0.5148
  627TIP3    H223373   0.179   4.810  15.414  0.7045  2.1314 -0.3998
  628TIP3   OH223374   3.869   1.265  14.437 -0.5070  0.2445  0.2307
  628TIP3    H123375   3.938   1.265  14.370 -0.0807 -0.3141  0.6643
  628TIP3    H223376   3.905   1.318  14.509 -1.2373  1.4270 -0.2379
  629TIP3   OH223377   2.470   6.076  14.213  0.3083 -0.3620 -0.1624
  629TIP3    H123378   2.488   6.017  14.285 -0.7669 -0.0346  0.3903
  629TIP3    H223379   2.450   6.019  14.139 -3.5166 -0.8669  1.0166
  630TIP3   OH223380   6.471   5.059   4.387  0.3353  0.1831  0.1318
  630TIP3    H123381   6.451   5.048   4.479  0.7402  0.9717  0.3256
  630TIP3    H223382   6.538   4.994   4.368 -0.4450 -0.6344  0.1465
  631TIP3   OH223383   0.525   1.197   1.466 -0.4788  0.7534  0.0167
  631TIP3    H123384   0.574   1.270   1.503 -1.8977  2.7098 -1.7112
  631TIP3    H223385   0.435   1.213   1.491 -0.8165 -0.4490 -0.3521
  632TIP3   OH223386   0.634   5.576  15.798 -0.6707  0.1544 -0.0456
  632TIP3    H123387   0.653   5.511  15.731 -0.9134  0.8240 -0.7773
  632TIP3    H223388   0.686   5.652  15.772  0.4683 -0.0816  1.3916
  633TIP3   OH223389   1.725   6.594  13.253 -0.3678  0.1846  0.3849
  633TIP3    H123390   1.732   6.499  13.245  0.1166  0.3529 -1.6894
  633TIP3    H223391   1.664   6.619  13.184 -2.6435  1.1785  2.5813
  634TIP3   OH223392   2.519   2.390  12.410  0.2352 -0.2005  0.7215
  634TIP3    H123393   2.429   2.422  12.412  0.1112  0.0042 -2.7622
  634TIP3    H223394   2.512   2.297  12.431 -0.4913  0.1873  2.3464
  635TIP3   OH223395   2.771   5.080   6.391 -0.0379  0.4848  0.8746
  635TIP3    H123396   2.703   5.147   6.384  0.0068  0.3888 -1.4767
  635TIP3    H223397   2.767   5.034   6.307  1.4062 -1.0280  1.5878
  636TIP3   OH223398   6.275   1.221  12.034 -0.0195  0.4043  0.3745
  636TIP3    H123399   6.360   1.223  12.077  0.5537 -1.0957 -0.6318
  636TIP3    H223400   6.220   1.167  12.091 -0.3125  1.3187  0.9897
  637TIP3   OH223401   1.556   3.566   5.438  0.1857  0.0923  0.0051
  637TIP3    H123402   1.520   3.637   5.384  1.6112  2.0332  1.4439
  637TIP3    H223403   1.641   3.546   5.399  0.7191  0.7016  0.8315
  638TIP3   OH223404   4.914   2.458  15.281 -0.4624 -0.0958  0.3013
  638TIP3    H123405   4.963   2.509  15.216 -0.8294  0.1718  0.2349
  638TIP3    H223406   4.855   2.404  15.230 -1.2955  0.6715  0.4321
  639TIP3   OH223407   5.336   5.952  15.844  0.1013 -0.0900  0.1538
  639TIP3    H123408   5.353   6.042  15.871  1.1894 -0.8845  2.3741
  639TIP3    H223409   5.415   5.904  15.869 -1.5686 -2.1839  1.8577
  640TIP3   OH223410   3.870   4.026  16.370  0.5332  0.0651  0.2178
  640TIP3    H123411   3.777   4.004  16.365  0.9817 -1.8513 -0.5175
  640TIP3    H223412   3.913   3.961  16.314  2.3173  0.9312  0.5182
  641TIP3   OH223413   4.151   1.826  14.830  0.0806  0.4346 -0.8358
  641TIP3    H123414   4.232   1.780  14.808  0.5996 -0.0806  1.7808
  641TIP3    H223415   4.180   1.914  14.855 -0.2800  0.5504 -0.8134
  642TIP3   OH223416   1.168   2.168   4.394  0.4151  0.3967 -0.0133
  642TIP3    H123417   1.233   2.188   4.327  0.9541 -1.0240  0.0481
  642TIP3    H223418   1.107   2.242   4.391  1.0423  0.8987 -1.2826
  643TIP3   OH223419   3.520   5.689  12.634 -0.0812 -0.1026 -0.4308
  643TIP3    H123420   3.459   5.638  12.686 -1.4602 -0.1914 -2.0495
  643TIP3    H223421   3.521   5.775  12.676 -1.0634 -0.2036 -0.1671
  644TIP3   OH223422   1.454   1.427   5.140  0.6409  0.2402 -0.1047
  644TIP3    H123423   1.458   1.462   5.229  1.1496  0.7107 -0.3089
  644TIP3    H223424   1.373   1.463   5.103  1.0629  1.0600 -0.2483
  645TIP3   OH223425   5.211   0.978  14.009 -0.4049 -0.4516 -0.3116
  645TIP3    H123426   5.246   1.041  13.947 -0.6121 -1.2800 -1.2855
  645TIP3    H223427   5.167   1.032  14.076  2.8398  0.6880  1.1370
  646TIP3   OH223428   4.329   5.566  13.739  0.1461 -0.4364  0.1661
  646TIP3    H123429   4.392   5.638  13.747 -0.0826 -0.3721  1.5583
  646TIP3    H223430   4.355   5.504  13.806 -0.7918 -0.7834  0.2219
  647TIP3   OH223431   0.896   2.468  17.016  0.5618 -0.3265 -0.2519
  647TIP3    H123432   0.975   2.427  16.980  0.3347 -0.3905 -0.6735
  647TIP3    H223433   0.864   2.525  16.946 -0.8747 -1.7701 -0.8359
  648TIP3   OH223434   3.874   4.910  14.958  0.0253  0.2604  0.2253
  648TIP3    H123435   3.819   4.937  15.032  2.2174  0.3550  1.9053
  648TIP3    H223436   3.963   4.907  14.993  1.4101  1.7263 -2.7502
  649TIP3   OH223437   0.236   0.052  11.375  0.2550  0.3769  0.2024
  649TIP3    H123438   0.311   0.001  11.344  0.3447  0.0881  0.8749
  649TIP3    H223439   0.165  -0.012  11.378  0.2426  0.4087  0.5660
  650TIP3   OH223440   1.020   1.884   5.457 -0.4343 -0.4838  0.5774
  650TIP3    H123441   0.956   1.944   5.492 -0.6940 -0.5632  0.2448
  650TIP3    H223442   1.086   1.875   5.526 -0.1925  0.4784  0.4842
  651TIP3   OH223443   2.108   0.586   3.132 -0.4796 -0.0358  0.1699
  651TIP3    H123444   2.118   0.586   3.037 -1.3301  0.7338  0.0698
  651TIP3    H223445   2.081   0.496   3.154 -0.1231 -0.2575 -0.2830
  652TIP3   OH223446   1.593   3.550   4.408  0.1411  0.6891  0.2734
  652TIP3    H123447   1.507   3.582   4.381 -0.2576 -0.2056  0.4678
  652TIP3    H223448   1.575   3.491   4.481  0.7469 -0.7971 -0.7307
  653TIP3   OH223449   4.501   3.901   3.287  0.3024  0.3940 -0.3202
  653TIP3    H123450   4.546   3.835   3.338 -0.9826  0.4097  0.8809
  653TIP3    H223451   4.572   3.956   3.252  1.2655 -0.2583  0.5321
  654TIP3   OH223452   1.929   5.830  11.548  0.0590 -0.1580  0.2976
  654TIP3    H123453   1.909   5.918  11.518 -0.6526 -0.7473 -1.0605
  654TIP3    H223454   2.023   5.819  11.532 -0.2911 -0.4556 -1.8737
  655TIP3   OH223455   0.984   3.768  12.743  0.3222 -0.5964  0.2044
  655TIP3    H123456   0.990   3.752  12.648  1.0494 -1.7247  0.4150
  655TIP3    H223457   0.916   3.834  12.752  1.4108  0.8352 -1.2484
  656TIP3   OH223458   2.558   0.437  16.405  0.0651  0.2041  0.4443
  656TIP3    H123459   2.467   0.444  16.436  0.5335  0.6299  1.7966
  656TIP3    H223460   2.564   0.349  16.368 -1.3195  0.7370 -1.1576
  657TIP3   OH223461   2.650   4.604   1.750 -0.1530  0.4399 -0.0063
  657TIP3    H123462   2.565   4.561   1.760 -1.3611  2.6786 -0.0477
  657TIP3    H223463   2.632   4.696   1.767  2.0413  1.1704 -1.2778
  658TIP3   OH223464   2.365   2.757  12.718  0.5117  0.6374 -0.0791
  658TIP3    H123465   2.440   2.731  12.666  1.2916  0.4719  1.0831
  658TIP3    H223466   2.290   2.715  12.676  0.9073  1.5716 -1.8108
  659TIP3   OH223467   0.871   3.024   4.261 -0.7869 -0.4735  0.1010
  659TIP3    H123468   0.778   3.027   4.285 -0.8802  1.3346 -0.3611
  659TIP3    H223469   0.872   3.033   4.166 -0.1172  0.5513  0.1899
  660TIP3   OH223470   6.831   2.610  13.587  0.1089  0.0427  0.0802
  660TIP3    H123471   6.828   2.522  13.624  2.5624 -1.3751 -2.6414
  660TIP3    H223472   6.924   2.627  13.573 -0.4316  2.0538 -1.6206
  661TIP3   OH223473   1.586   6.291  12.223  0.2418 -0.5553  0.0179
  661TIP3    H123474   1.566   6.335  12.140  0.0558 -0.4881  0.0973
  661TIP3    H223475   1.515   6.228  12.235 -1.4995  1.5297  1.6319
  662TIP3   OH223476   3.540   0.209  14.405 -0.3431  0.4835 -0.2729
  662TIP3    H123477   3.542   0.299  14.371  0.2843  0.6532  0.1875
  662TIP3    H223478   3.581   0.156  14.337  1.2082  0.8673  0.3102
  663TIP3   OH223479   6.487   0.866   0.522  0.1459 -0.3199  0.5510
  663TIP3    H123480   6.523   0.952   0.500  1.0818 -0.6617  0.6905
  663TIP3    H223481   6.404   0.862   0.474  0.1024  0.6420  0.5163
  664TIP3   OH223482   1.077   5.444   3.189  0.2402  0.4121 -0.1735
  664TIP3    H123483   1.045   5.388   3.259 -0.5149 -0.3319 -1.0819
  664TIP3    H223484   1.168   5.417   3.176  0.6420  1.1021  1.0209
  665TIP3   OH223485   0.186   5.045  16.586 -0.3341  0.5093  0.3564
  665TIP3    H123486   0.240   4.978  16.628 -0.0145 -0.6748 -1.7817
  665TIP3    H223487   0.243   5.121  16.577  1.0478 -0.6586 -1.6882
  666TIP3   OH223488   5.408   5.699  12.277  0.0307  0.0931  0.0120
  666TIP3    H123489   5.385   5.620  12.228  1.4358 -0.9487  0.9622
  666TIP3    H223490   5.501   5.713  12.257  0.0182  0.9977  0.5600
  667TIP3   OH223491   2.657   2.683   0.482 -0.1313  0.5941  0.0130
  667TIP3    H123492   2.674   2.675   0.389 -1.4306  2.0108 -0.3965
  667TIP3    H223493   2.740   2.711   0.520  0.1991  0.7973 -0.8504
  668TIP3   OH223494   2.429   3.928  12.821 -0.4326 -0.0512  0.3835
  668TIP3    H123495   2.453   3.836  12.806  0.7845 -0.1751  2.7184
  668TIP3    H223496   2.358   3.924  12.885 -1.4219  0.6223 -0.6330
  669TIP3   OH223497   2.233   4.630   5.973  0.4041 -0.5317  0.2519
  669TIP3    H123498   2.152   4.595   5.934  0.0229  0.1168  0.4420
  669TIP3    H223499   2.244   4.580   6.054  0.1454 -0.5745  0.2622
  670TIP3   OH223500   4.804   0.328   5.645  0.0777 -0.2224 -0.4369
  670TIP3    H123501   4.733   0.393   5.639 -1.4032 -1.8583 -1.5931
  670TIP3    H223502   4.794   0.291   5.733 -1.6189 -1.5862 -1.1532
  671TIP3   OH223503   0.985   1.608  13.399 -1.0436 -0.2917 -0.1692
  671TIP3    H123504   1.055   1.648  13.347 -0.0492 -1.1470  0.4810
  671TIP3    H223505   0.914   1.672  13.395 -0.5978  0.1562 -1.6612
  672TIP3   OH223506   5.507   0.976   1.824 -0.2008 -0.2130  0.2642
  672TIP3    H123507   5.434   0.967   1.764 -0.3198  2.2874 -0.0743
  672TIP3    H223508   5.566   0.904   1.802 -1.6065 -1.0734 -0.8222
  673TIP3   OH223509   0.990   2.789   5.397 -0.6755 -0.1513 -0.1882
  673TIP3    H123510   0.922   2.788   5.330 -0.5490  0.3404 -0.3253
  673TIP3    H223511   1.067   2.751   5.355  0.0074  1.9454 -0.9846
  674TIP3   OH223512   6.565   3.638   4.993 -0.2089 -0.8356 -0.0073
  674TIP3    H123513   6.477   3.674   5.004  0.3076  0.6170 -0.3250
  674TIP3    H223514   6.578   3.636   4.898  0.7894  0.8168  0.0637
  675TIP3   OH223515   1.284   3.741   6.229  0.0004 -0.3838  0.1893
  675TIP3    H123516   1.267   3.677   6.298 -0.4364 -1.3757 -0.8049
  675TIP3    H223517   1.199   3.780   6.210  0.4334  1.3374  1.5460
  676TIP3   OH223518   3.972   3.425  15.934 -0.0326 -0.0603 -0.2835
  676TIP3    H123519   3.966   3.518  15.912 -1.3120  0.1241  0.7352
  676TIP3    H223520   4.065   3.411  15.955  0.0711  1.1008  0.0589
  677TIP3   OH223521   2.336   3.231  17.110 -0.0415  0.2904 -0.1841
  677TIP3    H123522   2.287   3.161  17.154  3.1525 -1.9592  0.1618
  677TIP3    H223523   2.363   3.290  17.180 -0.6290  0.5070 -0.1329
  678TIP3   OH223524   3.497   4.145  13.621  0.5206 -0.1294 -0.0460
  678TIP3    H123525   3.585   4.182  13.633  0.7132 -0.9254  1.3594
  678TIP3    H223526   3.510   4.050  13.630 -0.5507 -0.2201  0.8628
  679TIP3   OH223527   2.472   4.695   5.338  0.2117 -0.4802 -0.0061
  679TIP3    H123528   2.410   4.627   5.365 -0.5446  0.5744  1.0585
  679TIP3    H223529   2.519   4.717   5.418  0.0353  0.6351 -0.1864
  680TIP3   OH223530   3.764   1.085   5.244 -0.2976  0.4514 -0.1184
  680TIP3    H123531   3.672   1.113   5.243 -0.8142 -0.9100  2.1131
  680TIP3    H223532   3.790   1.090   5.336  1.5160 -0.2985 -0.5384
  681TIP3   OH223533   3.368   5.517  11.748  0.5305  0.1859 -0.5112
  681TIP3    H123534   3.320   5.433  11.748  1.1095 -0.1489  0.0597
  681TIP3    H223535   3.459   5.492  11.732  0.6893  0.7201 -0.4376
  682TIP3   OH223536   3.258   5.098   0.446  0.0079  0.0570  0.1351
  682TIP3    H123537   3.221   5.141   0.369 -1.4398 -0.4119  0.5285
  682TIP3    H223538   3.330   5.045   0.411 -0.5226 -0.0298 -0.8840
  683TIP3   OH223539   5.582   3.927   0.927  0.4252  0.6050  0.5544
  683TIP3    H123540   5.512   3.991   0.919 -0.4930 -0.5464 -1.5413
  683TIP3    H223541   5.634   3.938   0.847 -0.1159 -1.5909 -0.1727
  684TIP3   OH223542   1.561   4.310   4.395 -0.3454  0.2336  0.2062
  684TIP3    H123543   1.525   4.362   4.323  0.6185 -0.9061 -1.1519
  684TIP3    H223544   1.646   4.351   4.414  0.5830 -1.0136 -1.1186
  685TIP3   OH223545   1.123   4.782   0.464  0.0530  0.0547 -0.0466
  685TIP3    H123546   1.071   4.770   0.385 -0.0172 -2.1856  0.2586
  685TIP3    H223547   1.214   4.783   0.433 -0.0386  1.2814 -0.3215
  686TIP3   OH223548   1.561   4.811   0.092 -0.6048  0.8575 -0.3078
  686TIP3    H123549   1.474   4.803   0.054 -0.5909  4.2449 -1.3476
  686TIP3    H223550   1.617   4.758   0.035 -1.9255 -2.0081  0.8207
  687TIP3   OH223551   3.665   0.045  10.807  0.1906 -0.8862 -0.0404
  687TIP3    H123552   3.628  -0.043  10.804  0.8126 -1.2143  1.2743
  687TIP3    H223553   3.759   0.031  10.810  0.3083 -0.1590 -0.2310
  688TIP3   OH223554   2.978   5.240  13.980 -0.3371  0.4562 -0.6922
  688TIP3    H123555   3.050   5.181  13.956 -0.0938  0.0415  0.9266
  688TIP3    H223556   2.970   5.300  13.906  1.5107  0.3455 -1.0221
  689TIP3   OH223557   5.046   3.703   3.474 -0.1121 -0.4977 -0.0550
  689TIP3    H123558   5.097   3.719   3.553 -0.0323  1.4339 -0.4424
  689TIP3    H223559   5.111   3.680   3.407 -0.1391 -1.6948  0.3114
  690TIP3   OH223560   2.838   4.780   5.478  0.1942  0.2271 -0.4535
  690TIP3    H123561   2.885   4.855   5.514  0.9001 -1.2080  1.7837
  690TIP3    H223562   2.883   4.760   5.397 -0.0911  2.2525 -1.1837
  691TIP3   OH223563   4.102   4.159  17.131 -0.3864  0.8431  0.2029
  691TIP3    H123564   4.111   4.208  17.212  0.0132  1.5899 -0.2828
  691TIP3    H223565   4.109   4.068  17.157 -0.4733  1.0692  1.0356
  692TIP3   OH223566   4.899   5.450   4.823 -1.0197  0.2122 -0.3930
  692TIP3    H123567   4.940   5.385   4.880 -1.6006 -0.5836 -0.8583
  692TIP3    H223568   4.878   5.401   4.743 -1.3881  0.9970 -0.7817
  693TIP3   OH223569   2.798   0.271  15.624 -0.2596 -0.1467 -0.4596
  693TIP3    H123570   2.781   0.321  15.544  2.0600 -0.7128 -1.4116
  693TIP3    H223571   2.853   0.199  15.595  0.1935 -0.6841  1.5861
  694TIP3   OH223572   5.110   5.799  12.680  0.4843 -0.2169 -0.4521
  694TIP3    H123573   5.090   5.790  12.773 -2.2336 -0.9111 -1.0034
  694TIP3    H223574   5.166   5.725  12.659  1.6532  0.3013  0.7219
  695TIP3   OH223575   3.202   3.425   1.289 -0.4773  0.1690  1.0511
  695TIP3    H123576   3.171   3.392   1.204 -2.6104 -0.1536  1.8749
  695TIP3    H223577   3.290   3.388   1.299 -0.0602  0.4427 -1.1171
  696TIP3   OH223578   1.735   2.659  15.629  0.9353  0.1698 -0.3036
  696TIP3    H123579   1.682   2.581  15.644  0.9973  0.0233 -0.8415
  696TIP3    H223580   1.724   2.712  15.708  1.6226 -0.8016  0.4619
  697TIP3   OH223581   4.975   2.612   3.048  0.2713 -0.0603  0.1158
  697TIP3    H123582   5.022   2.695   3.046 -1.0731  0.7629 -2.8068
  697TIP3    H223583   4.901   2.628   3.106  0.3856  0.5823  0.0954
  698TIP3   OH223584   4.646   1.250   4.168  0.1568 -0.2038 -0.0388
  698TIP3    H123585   4.668   1.338   4.199  0.9599 -0.2391 -0.4529
  698TIP3    H223586   4.716   1.230   4.105 -0.8803 -0.5137 -1.1278
  699TIP3   OH223587   6.244   1.362   2.948 -0.1681 -0.0371  0.4249
  699TIP3    H123588   6.201   1.422   3.008 -1.3427 -0.1329 -0.2812
  699TIP3    H223589   6.314   1.321   3.000 -2.3275 -1.5469  2.3296
  700TIP3   OH223590   0.311   1.373   4.361  0.3981  0.2366  0.1928
  700TIP3    H123591   0.220   1.392   4.386  0.4564  0.8533 -0.0540
  700TIP3    H223592   0.363   1.435   4.412  0.7259 -0.4379  0.7007
  701TIP3   OH223593   5.243   1.078  15.275 -0.0801  0.0417 -0.0164
  701TIP3    H123594   5.182   1.151  15.288 -0.6169  0.2107 -2.8904
  701TIP3    H223595   5.194   1.016  15.221  1.5846 -0.7844 -0.6263
  702TIP3   OH223596   0.846   0.791  16.395  0.1790 -0.0303  0.2631
  702TIP3    H123597   0.839   0.696  16.405  2.6118 -0.2496  0.4718
  702TIP3    H223598   0.919   0.816  16.452  1.0990  1.6255 -1.5013
  703TIP3   OH223599   5.485   5.366  11.976  0.2729 -0.4110 -0.2356
  703TIP3    H123600   5.427   5.438  12.002  1.5227  0.3502  0.5196
  703TIP3    H223601   5.429   5.289  11.978 -0.9014  0.4132 -0.2780
  704TIP3   OH223602   1.271   5.577  17.003 -0.0455 -0.0606 -0.7751
  704TIP3    H123603   1.183   5.570  17.040 -0.3878  1.8415 -1.1581
  704TIP3    H223604   1.303   5.486  17.001 -1.1108 -0.5410  1.4325
  705TIP3   OH223605   0.311   0.159  16.132  0.0342 -0.4756 -0.0898
  705TIP3    H123606   0.277   0.203  16.054 -1.9392 -0.9654  0.4216
  705TIP3    H223607   0.398   0.127  16.107  0.5912  1.7309 -1.1786
  706TIP3   OH223608   3.777   2.910  15.402 -0.1148  0.7576  0.6856
  706TIP3    H123609   3.809   2.842  15.343  1.2370  1.4321  0.6018
  706TIP3    H223610   3.730   2.971  15.344 -1.0266  0.0991  0.7119
  707TIP3   OH223611   5.530   2.564  12.125 -0.0026 -0.0017  0.1350
  707TIP3    H123612   5.558   2.481  12.163  2.1828  0.4466 -0.3572
  707TIP3    H223613   5.611   2.613  12.111 -1.2213  2.2409  0.4115
  708TIP3   OH223614   5.955   2.620  11.023  0.4460  0.0813 -0.0945
  708TIP3    H123615   5.984   2.532  10.997  0.6216  0.0065  0.3485
  708TIP3    H223616   5.892   2.606  11.093 -1.2263  0.2174 -1.5176
  709TIP3   OH223617   0.274   2.027   3.502  0.2440 -0.9588 -0.2178
  709TIP3    H123618   0.293   1.972   3.426 -1.3015 -0.4957 -0.9775
  709TIP3    H223619   0.348   2.088   3.507  1.4505 -2.3743 -0.0027
  710TIP3   OH223620   6.561   5.972  14.591 -0.0825  0.2007 -0.0912
  710TIP3    H123621   6.484   6.015  14.629 -0.1187  0.6514 -0.6728
  710TIP3    H223622   6.535   5.880  14.582 -1.3852  0.7148 -2.3264
  711TIP3   OH223623   5.887   4.491   2.091  0.0126  0.3568  0.1017
  711TIP3    H123624   5.877   4.438   2.012  4.0915  0.0037 -0.4047
  711TIP3    H223625   5.868   4.431   2.163  0.7252 -0.7174 -0.5747
  712TIP3   OH223626   2.846   2.327   0.709 -0.4029  0.1704 -0.2646
  712TIP3    H123627   2.762   2.352   0.671 -0.8852 -4.3345 -2.9197
  712TIP3    H223628   2.908   2.336   0.636  0.9329  1.0218  0.9387
  713TIP3   OH223629   3.685   2.703   1.603 -0.0220  0.0171 -0.3004
  713TIP3    H123630   3.754   2.645   1.635  1.9487  2.2159 -0.2598
  713TIP3    H223631   3.604   2.664   1.635  1.2214 -2.3035  0.2724
  714TIP3   OH223632   3.397   1.507   4.754  0.0033  0.2765 -0.0004
  714TIP3    H123633   3.485   1.524   4.720 -0.3453  2.1136 -0.0567
  714TIP3    H223634   3.406   1.514   4.849  0.3801 -2.0028  0.1940
  715TIP3   OH223635   1.066   4.804   4.348 -0.3463  0.1445  0.9465
  715TIP3    H123636   1.121   4.851   4.285 -2.0331 -0.7810 -1.3893
  715TIP3    H223637   1.127   4.748   4.397  0.9772  0.2273 -0.5173
  716TIP3   OH223638   6.534   3.273  11.254  0.3277 -0.1301 -0.0778
  716TIP3    H123639   6.537   3.217  11.176 -2.6447 -0.6845  0.0825
  716TIP3    H223640   6.511   3.213  11.325  1.8891  0.5620  1.0656
  717TIP3   OH223641   3.416   5.436   2.095  0.0706  0.2857  0.3738
  717TIP3    H123642   3.391   5.478   2.177 -0.4867 -0.5269  0.6417
  717TIP3    H223643   3.333   5.406   2.058  0.4521 -0.6492  0.2496
  718TIP3   OH223644   4.831   3.843   4.293  0.5487 -0.2256 -0.0358
  718TIP3    H123645   4.869   3.795   4.220 -0.0540  0.1169 -0.5782
  718TIP3    H223646   4.809   3.776   4.357 -0.0448 -0.6511 -0.6750
  719TIP3   OH223647   6.300   0.149  11.254  0.4439  0.0011  0.3004
  719TIP3    H123648   6.349   0.207  11.196 -1.0213  0.9767 -0.0405
  719TIP3    H223649   6.222   0.125  11.203  1.8181 -3.8020 -0.2690
  720TIP3   OH223650   3.548   3.283  15.845  0.0591 -0.3274  0.2990
  720TIP3    H123651   3.532   3.288  15.750 -0.1967 -1.3839  0.2814
  720TIP3    H223652   3.513   3.365  15.879  0.8664  0.4268 -0.6158
  721TIP3   OH223653   1.438   1.889  13.470 -0.3147 -0.6793  0.0605
  721TIP3    H123654   1.497   1.833  13.519  0.9356 -0.3925 -1.0580
  721TIP3    H223655   1.440   1.855  13.381 -0.6850  0.2369 -0.3181
  722TIP3   OH223656   5.919   3.095  14.113 -0.0858  0.2113  0.2631
  722TIP3    H123657   5.999   3.056  14.148 -0.0035  0.6207  0.5387
  722TIP3    H223658   5.941   3.187  14.100  0.1554 -0.0743 -1.6650
  723TIP3   OH223659   6.602   3.272  13.116 -0.0534  0.3870 -0.3923
  723TIP3    H123660   6.535   3.235  13.173  0.0899  1.1159  0.2663
  723TIP3    H223661   6.554   3.333  13.059 -0.1163  0.0651 -0.6833
  724TIP3   OH223662   1.028   4.531  16.040  0.1335  0.1189 -0.1668
  724TIP3    H123663   1.063   4.451  16.081  0.4677  1.0896  1.5655
  724TIP3    H223664   0.961   4.500  15.980 -0.8235 -1.4178  1.6010
  725TIP3   OH223665   5.848   5.401   4.701  0.0982 -0.5785  0.1489
  725TIP3    H123666   5.785   5.398   4.628 -0.9251 -0.1878  0.9863
  725TIP3    H223667   5.882   5.490   4.699 -0.4105 -0.3748  0.5401
  726TIP3   OH223668   4.503   1.509  10.503 -0.5662 -0.2496 -0.5923
  726TIP3    H123669   4.497   1.514  10.599  0.1227 -3.6003 -0.2305
  726TIP3    H223670   4.594   1.530  10.484 -0.7528  0.6204 -0.5418
  727TIP3   OH223671   4.115   2.319  14.816 -0.2678  0.3469 -0.2568
  727TIP3    H123672   4.086   2.310  14.726 -0.2474  0.3219 -0.2606
  727TIP3    H223673   4.039   2.292  14.869 -0.1574  0.0068 -0.2702
  728TIP3   OH223674   2.346   4.863  15.768  0.5774 -0.0054  0.3918
  728TIP3    H123675   2.403   4.922  15.719 -0.6515  0.4241 -0.5365
  728TIP3    H223676   2.287   4.826  15.703  0.6726 -1.5223  1.1192
  729TIP3   OH223677   5.626   6.392  13.211  0.0844 -0.4132 -0.4031
  729TIP3    H123678   5.710   6.435  13.229  0.8789 -1.7705 -0.7474
  729TIP3    H223679   5.619   6.393  13.116 -0.1522 -0.5580 -0.3864
  730TIP3   OH223680   1.922   2.596   2.290  0.3438  0.2137 -0.1783
  730TIP3    H123681   1.872   2.600   2.208  1.9554 -0.0873 -1.2276
  730TIP3    H223682   1.935   2.502   2.304  2.2484  0.2953 -1.0256
  731TIP3   OH223683   3.126   1.116  14.809  0.0024 -0.0826  0.3275
  731TIP3    H123684   3.118   1.211  14.813 -0.3483 -0.1055  0.1465
  731TIP3    H223685   3.180   1.094  14.886 -1.8603  0.0433  1.7428
  732TIP3   OH223686   3.759   2.454  16.380  0.2947 -0.2949 -0.0335
  732TIP3    H123687   3.818   2.518  16.338 -0.6797  0.6580 -0.0028
  732TIP3    H223688   3.721   2.502  16.453 -1.2438 -0.5609 -0.6304
  733TIP3   OH223689   6.711   4.388   0.491 -0.0660 -0.1732 -0.5360
  733TIP3    H123690   6.623   4.366   0.522 -0.7877  1.1927 -1.4992
  733TIP3    H223691   6.698   4.421   0.402  1.4764 -0.2870 -0.8384
  734TIP3   OH223692   1.181   2.888   5.000 -0.1036  0.4182  0.3822
  734TIP3    H123693   1.236   2.948   5.050  0.1645  0.1391  0.4243
  734TIP3    H223694   1.109   2.867   5.059 -0.0654  0.4989  0.4583
  735TIP3   OH223695   3.398   1.710   0.885  0.6604 -0.0242  0.2375
  735TIP3    H123696   3.331   1.656   0.927  0.7581 -0.7576 -0.5269
  735TIP3    H223697   3.389   1.692   0.792  0.3660  1.6754 -0.0847
  736TIP3   OH223698   4.395   6.220  11.689  0.4162  0.2338 -0.3758
  736TIP3    H123699   4.454   6.289  11.661  1.1816 -0.3874 -0.3236
  736TIP3    H223700   4.437   6.183  11.768  0.7204 -1.1631 -1.1569
  737TIP3   OH223701   3.869   0.756  10.759 -0.6024  0.0851 -0.2667
  737TIP3    H123702   3.864   0.673  10.712 -0.9282  0.0140 -0.1122
  737TIP3    H223703   3.878   0.822  10.691  1.0840 -0.1816 -0.3349
  738TIP3   OH223704   5.939   2.098   2.070 -0.1028  0.5851  1.2026
  738TIP3    H123705   6.031   2.092   2.044  0.1003 -0.4230  2.0803
  738TIP3    H223706   5.942   2.124   2.163 -0.7344  1.5332  0.9691
  739TIP3   OH223707   3.046   2.701  15.967 -0.4554  0.0213  0.5990
  739TIP3    H123708   3.135   2.682  15.997  0.4011  0.5741 -1.3834
  739TIP3    H223709   3.036   2.796  15.980  0.7514  0.7097 -2.5640
  740TIP3   OH223710   1.714   1.263   0.540  0.5069  0.2716  0.0786
  740TIP3    H123711   1.720   1.352   0.573 -3.8065  1.4006 -1.5271
  740TIP3    H223712   1.688   1.211   0.616 -2.8987  1.6409  0.0349
  741TIP3   OH223713   1.243   4.497   1.454 -0.2536 -1.1009  0.5075
  741TIP3    H123714   1.283   4.488   1.540 -1.9871 -0.6575  1.3976
  741TIP3    H223715   1.167   4.439   1.456  0.2523 -1.8844 -1.1216
  742TIP3   OH223716   2.589   0.083  16.635 -0.3108 -0.8261  0.4266
  742TIP3    H123717   2.517   0.139  16.662 -0.5331 -1.1178  0.4394
  742TIP3    H223718   2.549   0.017  16.579  0.2222  0.0727 -1.0881
  743TIP3   OH223719   1.733   2.000  11.647 -0.0309  0.3853 -0.0720
  743TIP3    H123720   1.689   1.922  11.682  0.5799 -0.5938 -1.3645
  743TIP3    H223721   1.798   1.965  11.586  0.6207  1.9065 -0.2971
  744TIP3   OH223722   1.008   4.812  11.202 -0.1170  0.2187  0.3266
  744TIP3    H123723   1.001   4.898  11.243 -0.8068 -0.0300  0.7548
  744TIP3    H223724   1.101   4.800  11.185 -0.2695  2.3855 -2.6366
  745TIP3   OH223725   4.432   4.193  15.491 -0.2044  0.2466 -0.3484
  745TIP3    H123726   4.441   4.158  15.580 -0.5341 -2.3376 -1.2445
  745TIP3    H223727   4.522   4.207  15.462 -0.0928  1.1520  0.3702
  746TIP3   OH223728   3.089   1.869   1.546  0.2331  0.3866 -0.1079
  746TIP3    H123729   3.018   1.848   1.608  0.5230  0.5654  0.2928
  746TIP3    H223730   3.103   1.788   1.498  1.7901 -0.6113  1.8850
  747TIP3   OH223731   2.001   4.614  13.654  0.8238 -0.0171 -0.3255
  747TIP3    H123732   2.050   4.695  13.646 -1.0011  0.9576 -2.6319
  747TIP3    H223733   1.965   4.598  13.567 -1.9396 -1.2665  0.9130
  748TIP3   OH223734   1.505   2.321   5.553 -0.0172  0.0100 -0.4656
  748TIP3    H123735   1.424   2.269   5.549 -0.8857  1.2056  0.7316
  748TIP3    H223736   1.528   2.336   5.461 -1.5076  0.1766 -0.8426
  749TIP3   OH223737   0.424   5.318  13.551  0.2686  0.1850  0.2652
  749TIP3    H123738   0.457   5.310  13.641 -0.1890 -2.6051  0.2861
  749TIP3    H223739   0.345   5.263  13.551 -1.4084  2.4138 -1.1532
  750TIP3   OH223740   3.463   4.137  14.586  0.9225 -0.2455 -0.4196
  750TIP3    H123741   3.380   4.158  14.629  0.5366 -1.5495 -0.4820
  750TIP3    H223742   3.524   4.203  14.618  0.5140 -0.8104  1.6610
  751TIP3   OH223743   4.294   3.934   5.048 -0.1956 -0.1993  0.0132
  751TIP3    H123744   4.330   3.882   5.120  0.3479 -0.3298 -0.3515
  751TIP3    H223745   4.255   4.011   5.091 -0.3724 -0.5542  0.4910
  752TIP3   OH223746   1.189   0.831  11.497 -0.1661 -0.1136 -0.3875
  752TIP3    H123747   1.160   0.804  11.410 -0.5046  2.4674 -1.1501
  752TIP3    H223748   1.110   0.824  11.552 -0.0607 -1.3151 -0.3771
  753TIP3   OH223749   1.735   0.282   3.576 -0.1744 -0.2241 -0.1681
  753TIP3    H123750   1.805   0.218   3.565  0.7275 -0.2306  3.9937
  753TIP3    H223751   1.759   0.331   3.655 -4.0506  0.9100  0.5287
  754TIP3   OH223752   3.526   3.377  12.388  0.3576  0.3261 -0.5058
  754TIP3    H123753   3.538   3.457  12.440 -1.1689  0.3139 -0.0908
  754TIP3    H223754   3.615   3.342  12.377  0.7667  0.2313  2.2579
  755TIP3   OH223755   5.976   2.931  12.555 -0.1334 -0.1321 -0.1804
  755TIP3    H123756   5.934   2.964  12.475 -0.6150 -0.2032  0.0385
  755TIP3    H223757   6.066   2.964  12.550 -0.8990  2.2960  0.6077
  756TIP3   OH223758   0.927   2.255   2.070  0.3089 -0.4967  0.1473
  756TIP3    H123759   0.943   2.226   2.160  2.4566 -0.1952 -0.0702
  756TIP3    H223760   0.989   2.203   2.018 -0.0897  0.1639 -1.0083
  757TIP3   OH223761   1.527   0.108   3.523 -0.1202  0.3816  0.0454
  757TIP3    H123762   1.522   0.069   3.611 -0.6600  1.0482  0.3240
  757TIP3    H223763   1.603   0.167   3.528  0.0360  0.1866 -0.0318
  758TIP3   OH223764   3.976   1.096   3.860 -0.1153  0.4354  0.3079
  758TIP3    H123765   3.952   1.011   3.824 -2.0141  1.1917 -0.3675
  758TIP3    H223766   4.056   1.080   3.909 -0.0066 -1.5753 -0.4355
  759TIP3   OH223767   0.470   0.599   2.459  0.1684 -0.0440 -0.3571
  759TIP3    H123768   0.445   0.664   2.393 -0.6850 -2.5168 -2.6512
  759TIP3    H223769   0.565   0.592   2.450  0.6932  2.6680  1.8111
  760TIP3   OH223770   2.588   2.537   4.003  0.4544  0.6831  0.2585
  760TIP3    H123771   2.675   2.562   3.972  0.5370 -0.2545 -0.3280
  760TIP3    H223772   2.550   2.488   3.930  0.1005 -0.3725  1.1245
  761TIP3   OH223773   0.201   3.316   5.172  0.3092 -0.1236  0.1665
  761TIP3    H123774   0.190   3.250   5.240 -2.8807  1.1680  1.0620
  761TIP3    H223775   0.236   3.268   5.097  0.9901 -2.1725  1.7122
  762TIP3   OH223776   3.659   4.605   4.056  0.5311  0.1203  0.9432
  762TIP3    H123777   3.715   4.611   4.133 -0.3843  0.1984  1.6313
  762TIP3    H223778   3.681   4.521   4.016  1.2258  0.2161  1.1220
  763TIP3   OH223779   4.466   5.424  13.551 -0.4080  0.0200 -0.5026
  763TIP3    H123780   4.413   5.484  13.605 -1.8766 -0.2307 -1.5910
  763TIP3    H223781   4.418   5.341  13.554  1.4003 -1.0422  0.6764
  764TIP3   OH223782   2.011   6.604   1.408  0.2836  0.7152  0.4021
  764TIP3    H123783   1.919   6.595   1.432  0.0378 -0.2894 -0.8409
  764TIP3    H223784   2.018   6.694   1.374 -0.1325  0.9358  0.8834
  765TIP3   OH223785   6.203   4.559   0.197 -0.7285 -0.5675  0.3363
  765TIP3    H123786   6.162   4.478   0.227 -1.4744  0.0568  1.0461
  765TIP3    H223787   6.281   4.569   0.252 -0.9531 -0.5107  0.6459
  766TIP3   OH223788   6.370   4.584  13.244 -0.0546 -0.1642  0.3096
  766TIP3    H123789   6.348   4.662  13.295 -0.1623 -1.1057  1.7409
  766TIP3    H223790   6.453   4.607  13.201  0.0889  0.6268  0.9688
  767TIP3   OH223791   4.954   5.341   0.301  0.3889  0.2963 -0.7092
  767TIP3    H123792   4.977   5.397   0.376  0.3604  0.7033 -1.0023
  767TIP3    H223793   4.905   5.398   0.243 -1.2742 -0.5198 -0.1633
  768TIP3   OH223794   3.938   0.630  11.739 -0.0763  0.2264  0.2500
  768TIP3    H123795   3.990   0.613  11.661 -0.4645 -0.8047  0.2032
  768TIP3    H223796   3.904   0.719  11.727  0.6422  0.4309 -0.2960
  769TIP3   OH223797   2.663   1.180   2.297 -0.1032  0.3477  0.0648
  769TIP3    H123798   2.716   1.191   2.217 -0.9858  1.4294 -0.3977
  769TIP3    H223799   2.606   1.106   2.278  1.1016 -0.7470  0.5170
  770TIP3   OH223800   6.005   6.046   6.183  0.5498 -0.2987 -0.4217
  770TIP3    H123801   6.047   5.967   6.148 -1.0351  0.4868 -4.7554
  770TIP3    H223802   5.927   6.014   6.229  1.9814 -1.3447  1.4087
  771TIP3   OH223803   2.849   5.290  13.492 -0.1164  0.2244  0.3497
  771TIP3    H123804   2.941   5.288  13.465  0.2665  1.7724  1.3905
  771TIP3    H223805   2.801   5.308  13.411  0.9092  3.6247  0.3137
  772TIP3   OH223806   2.680   0.581  11.938  0.0366  0.0064  0.0519
  772TIP3    H123807   2.741   0.631  11.993 -1.0253  0.1555  1.1348
  772TIP3    H223808   2.615   0.548  11.999 -1.2754  0.2908 -1.1542
  773TIP3   OH223809   3.219   3.705   2.726  0.5189 -0.0684 -0.4671
  773TIP3    H123810   3.305   3.747   2.719  0.3240  0.2659 -0.9090
  773TIP3    H223811   3.156   3.777   2.720  0.2205  0.0334  2.6078
  774TIP3   OH223812   6.743   4.432   3.360 -0.2435  0.0474  0.5338
  774TIP3    H123813   6.758   4.501   3.295 -0.3675  0.6786  1.1709
  774TIP3    H223814   6.674   4.466   3.416 -0.0493 -0.4413  1.0753
  775TIP3   OH223815   6.359   0.804   5.161 -0.0750 -0.7725 -0.0451
  775TIP3    H123816   6.275   0.809   5.206  0.1865 -0.0339  0.3658
  775TIP3    H223817   6.422   0.842   5.222  0.5612 -1.3127 -0.3517
  776TIP3   OH223818   1.398   0.570   1.081  0.0306  0.3237  0.5757
  776TIP3    H123819   1.409   0.533   0.993 -1.0215 -1.2788  1.0682
  776TIP3    H223820   1.446   0.652   1.079 -1.1426  1.0480 -1.9438
  777TIP3   OH223821   3.225   0.504   1.231 -0.0769  0.1747  0.3264
  777TIP3    H123822   3.318   0.520   1.216 -0.3258  0.0898 -1.4419
  777TIP3    H223823   3.185   0.509   1.145 -1.7823  0.5381  1.0952
  778TIP3   OH223824   5.208   4.071  15.503 -0.4443 -0.2472 -0.7956
  778TIP3    H123825   5.233   4.157  15.536  0.1986 -0.4554 -0.7274
  778TIP3    H223826   5.278   4.048  15.442 -1.7502  0.2743 -2.5783
  779TIP3   OH223827   3.083   3.235   2.270  0.3442 -0.0470 -0.5482
  779TIP3    H123828   3.110   3.247   2.361 -0.3321 -2.6296  0.0883
  779TIP3    H223829   3.047   3.320   2.244  0.5154  0.7565  1.6059
  780TIP3   OH223830   2.673   4.399   0.297 -0.2671 -0.2750 -0.2279
  780TIP3    H123831   2.751   4.367   0.343  0.3592 -0.0601 -1.1044
  780TIP3    H223832   2.687   4.372   0.206 -1.5509 -0.8232 -0.2759
  781TIP3   OH223833   6.522   1.482  11.173 -0.5459 -0.2644 -0.6338
  781TIP3    H123834   6.568   1.527  11.244  2.2480 -2.0783 -1.1340
  781TIP3    H223835   6.433   1.469  11.207  1.0552 -2.6254  3.4801
  782TIP3   OH223836   4.673   3.290   2.550  0.2989  0.0280 -0.5127
  782TIP3    H123837   4.758   3.245   2.553  1.0337  1.4131  1.0781
  782TIP3    H223838   4.689   3.368   2.496  0.0431  0.3106 -0.1832
  783TIP3   OH223839   3.713   4.088   6.222  0.0779 -0.3367 -0.7473
  783TIP3    H123840   3.669   4.053   6.299  0.7153  0.8848  0.2086
  783TIP3    H223841   3.651   4.152   6.186 -0.0010 -0.5241 -0.9494
  784TIP3   OH223842   5.817   2.497   3.446  0.2247 -0.0412 -0.5494
  784TIP3    H123843   5.761   2.504   3.369 -2.1811  1.5599  1.1827
  784TIP3    H223844   5.864   2.580   3.450  2.1448 -1.0219 -1.4848
  785TIP3   OH223845   5.128   1.045   4.726 -0.2759  0.1657  0.1292
  785TIP3    H123846   5.157   0.965   4.769  2.0252  0.3334 -0.9747
  785TIP3    H223847   5.197   1.108   4.744 -1.6860  1.7292  0.3409
  786TIP3   OH223848   6.711   5.015   5.799 -0.1293  0.0497  0.3831
  786TIP3    H123849   6.739   5.033   5.889 -0.5722  1.7137  0.2214
  786TIP3    H223850   6.638   4.954   5.809 -0.1379  0.1681  1.1368
  787TIP3   OH223851   3.048   3.786   2.413  0.2539  0.3553 -0.4909
  787TIP3    H123852   3.004   3.792   2.328 -0.7586 -0.5318 -0.0505
  787TIP3    H223853   3.045   3.875   2.448 -2.1651  0.1506 -0.0183
  788TIP3   OH223854   0.653   0.227   5.887 -0.3041  0.2400 -0.2051
  788TIP3    H123855   0.715   0.299   5.885  0.6069 -0.5005 -2.3768
  788TIP3    H223856   0.618   0.227   5.976  1.2619  1.9764  0.4724
  789TIP3   OH223857   5.236   3.062   2.037  0.0106 -0.1079  0.3005
  789TIP3    H123858   5.150   3.101   2.022  0.0624 -0.2010 -0.2815
  789TIP3    H223859   5.227   3.014   2.120  0.3173  2.1350  1.7006
  790TIP3   OH223860   2.853   5.202  14.988  0.0557 -0.1020  0.4401
  790TIP3    H123861   2.916   5.147  14.941  0.2509 -0.2013  0.8166
  790TIP3    H223862   2.846   5.281  14.935 -0.3333 -0.5468 -0.1785
  791TIP3   OH223863   5.583   4.080  13.351  0.2392 -0.1117 -0.5442
  791TIP3    H123864   5.618   4.160  13.388  0.1604 -0.1056 -0.4813
  791TIP3    H223865   5.566   4.101  13.259 -0.0321  0.0261 -0.4658
  792TIP3   OH223866   2.977   2.920   3.410  0.0452  0.3328 -0.6881
  792TIP3    H123867   2.930   2.977   3.349 -1.2385  1.4941  1.2975
  792TIP3    H223868   3.003   2.978   3.482 -0.1160 -1.3191  0.7598
  793TIP3   OH223869   1.033   3.374   1.068  0.1932 -0.1029  0.4077
  793TIP3    H123870   0.971   3.318   1.115 -1.0316  0.2478 -0.7351
  793TIP3    H223871   1.066   3.434   1.134 -1.2861  0.2069  0.8872
  794TIP3   OH223872   3.909   6.628   2.151  0.4752  0.1577 -0.2620
  794TIP3    H123873   3.901   6.718   2.183 -1.6904 -0.1875  0.3110
  794TIP3    H223874   3.914   6.575   2.231  0.0681 -0.3485 -0.5658
  795TIP3   OH223875   2.045   0.369   1.955  0.4339 -0.0258  0.0447
  795TIP3    H123876   2.132   0.332   1.944  0.1234 -0.8476  0.2533
  795TIP3    H223877   1.992   0.328   1.886 -0.1861 -0.8870  0.9988
  796TIP3   OH223878   2.314   2.119   3.766  0.3423 -0.4995  0.0524
  796TIP3    H123879   2.365   2.163   3.698  0.4049 -0.6725 -0.0124
  796TIP3    H223880   2.360   2.036   3.780  0.9682 -0.0055  1.0644
  797TIP3   OH223881   1.019   6.016  11.303  0.2470  0.0164  0.0932
  797TIP3    H123882   1.035   6.110  11.291 -0.3799  0.0105 -0.9938
  797TIP3    H223883   0.927   6.011  11.328  0.8639 -0.1787  2.5113
  798TIP3   OH223884   6.666   3.008   3.966 -0.3681  0.7835  0.1443
  798TIP3    H123885   6.702   3.001   4.054 -1.5224  0.5949  0.6275
  798TIP3    H223886   6.690   3.095   3.936 -0.9206  1.2810  1.1035
  799TIP3   OH223887   3.959   0.633  12.874  0.1044 -0.6933  0.3956
  799TIP3    H123888   3.974   0.726  12.894  0.2900 -0.9485  1.5105
  799TIP3    H223889   3.960   0.629  12.778  2.2075  0.1258  0.3357
  800TIP3   OH223890   1.680   1.189   2.603 -0.9451  0.4931  0.1033
  800TIP3    H123891   1.701   1.280   2.624 -1.3768  0.3670  1.1212
  800TIP3    H223892   1.597   1.194   2.555  0.7354  0.9076 -3.0659
  801TIP3   OH223893   4.584   4.794   3.840 -0.1494  0.4465 -0.4854
  801TIP3    H123894   4.675   4.784   3.869  0.5564  1.8582 -2.0187
  801TIP3    H223895   4.578   4.885   3.811 -2.1174  0.4230 -0.2923
  802TIP3   OH223896   2.571   1.012   3.756 -0.1884  0.8812  0.2495
  802TIP3    H123897   2.616   0.962   3.688 -0.3343  0.5241  0.4163
  802TIP3    H223898   2.510   1.068   3.708 -0.7801  0.1365  0.1271
  803TIP3   OH223899   1.823   4.199   4.941 -0.3265 -0.5628  0.5248
  803TIP3    H123900   1.785   4.255   4.874 -1.8602  0.1060  1.8880
  803TIP3    H223901   1.818   4.251   5.022  3.7031 -0.3462  0.8416
  804TIP3   OH223902   0.710   5.207   4.711  0.1262  0.3632 -0.1514
  804TIP3    H123903   0.708   5.159   4.628 -0.9620 -0.3405  0.2588
  804TIP3    H223904   0.710   5.139   4.778 -0.1730  0.9349  0.4376
  805TIP3   OH223905   5.987   4.440   4.621 -0.2594 -0.4121 -0.7072
  805TIP3    H123906   5.972   4.515   4.563  1.1157 -0.7398 -1.5161
  805TIP3    H223907   5.940   4.368   4.580 -0.4843 -0.3090 -0.6336
  806TIP3   OH223908   2.070   5.436  14.967 -0.0927 -0.0204 -0.0748
  806TIP3    H123909   1.987   5.458  15.008  0.6103  0.1226  1.3476
  806TIP3    H223910   2.090   5.512  14.913  0.4238  1.2366  1.7654
  807TIP3   OH223911   6.114   0.781  13.895  0.1176  0.0525 -0.5220
  807TIP3    H123912   6.169   0.823  13.829  0.2498  0.3454 -0.2296
  807TIP3    H223913   6.149   0.692  13.902  1.8123  0.7807  1.0187
  808TIP3   OH223914   0.260   0.196  12.669  0.4524 -0.6050  0.0278
  808TIP3    H123915   0.171   0.187  12.636  0.8122 -0.1719 -1.1214
  808TIP3    H223916   0.260   0.282  12.712 -0.2831 -1.5863  2.1184
  809TIP3   OH223917   3.172   6.771   2.301  0.6289 -0.1994 -0.6236
  809TIP3    H123918   3.216   6.847   2.341 -0.1915  1.6045 -2.9187
  809TIP3    H223919   3.079   6.791   2.308  0.2250 -2.3331  1.0720
  810TIP3   OH223920   0.814   2.710  11.884  0.0070  0.4889 -0.2773
  810TIP3    H123921   0.809   2.709  11.789  0.6524 -1.7018 -0.3617
  810TIP3    H223922   0.726   2.734  11.913 -0.2159  1.0991 -1.4244
  811TIP3   OH223923   6.361   1.225  16.700  0.4949 -0.0336  0.4750
  811TIP3    H123924   6.313   1.284  16.759 -0.5625  0.5298 -0.9171
  811TIP3    H223925   6.453   1.239  16.723  0.2469  1.8738  0.4716
  812TIP3   OH223926   6.476   3.595  11.417 -0.0908  0.0061  0.0157
  812TIP3    H123927   6.400   3.635  11.375 -0.2939  0.6727  0.9808
  812TIP3    H223928   6.441   3.519  11.464 -0.3771  0.9524  1.3836
  813TIP3   OH223929   1.251   0.906  14.808 -0.4836  0.1024  0.3077
  813TIP3    H123930   1.344   0.883  14.805 -1.0312 -2.3740  0.4889
  813TIP3    H223931   1.224   0.885  14.898 -1.4905 -0.4202 -0.0997
  814TIP3   OH223932   4.205   3.069  13.481 -0.3338 -0.0973 -0.2340
  814TIP3    H123933   4.219   3.044  13.389  0.2760  2.0418 -0.7857
  814TIP3    H223934   4.124   3.121  13.479 -0.8201 -0.7962  0.6206
  815TIP3   OH223935   1.603   5.196  11.105 -0.3593 -0.3055 -0.2326
  815TIP3    H123936   1.648   5.280  11.115  0.4570 -0.9051  1.5576
  815TIP3    H223937   1.518   5.209  11.148 -1.5101  0.4368 -2.5191
  816TIP3   OH223938   5.766   1.286  13.127  0.6918 -0.3075  0.7228
  816TIP3    H123939   5.685   1.239  13.105 -0.4442  0.8602  2.2339
  816TIP3    H223940   5.737   1.365  13.173  2.6974  0.0691  1.4542
  817TIP3   OH223941   2.632   2.797  14.151  0.2493  0.1524  0.6119
  817TIP3    H123942   2.726   2.784  14.138  0.4289  0.3420  1.5871
  817TIP3    H223943   2.603   2.719  14.198  0.4034  1.0739  2.3417
  818TIP3   OH223944   3.517   5.682  15.651  0.8030  0.1353 -0.0338
  818TIP3    H123945   3.432   5.638  15.658  0.0569  1.1390 -2.0378
  818TIP3    H223946   3.514   5.752  15.716  0.3190 -0.1747  0.2825
  819TIP3   OH223947   1.987   0.333  13.990 -0.0281 -0.1621  0.1685
  819TIP3    H123948   1.951   0.359  14.075  0.7373  0.3808  0.3382
  819TIP3    H223949   2.010   0.241  14.001  1.2777  0.2295  0.9985
  820TIP3   OH223950   3.475   3.650  15.867 -0.1023  0.0756  0.1434
  820TIP3    H123951   3.399   3.598  15.893  0.4121 -0.6220  0.2637
  820TIP3    H223952   3.518   3.673  15.949  1.5085 -2.1055 -0.0124
  821TIP3   OH223953   2.147   6.002  15.504 -0.5092 -0.2009  0.3901
  821TIP3    H123954   2.225   6.057  15.496 -0.1002 -0.8552 -0.2845
  821TIP3    H223955   2.180   5.918  15.534 -0.7738 -0.8754 -1.1451
  822TIP3   OH223956   5.926   5.604   4.351 -0.0838 -0.2031 -0.5743
  822TIP3    H123957   5.987   5.664   4.309  0.6039 -0.1018  0.5343
  822TIP3    H223958   5.859   5.660   4.390  0.6032 -0.1247  0.5323
  823TIP3   OH223959   0.415   4.404   3.279 -0.8189  0.1657 -0.2075
  823TIP3    H123960   0.331   4.432   3.316 -1.6411  0.1267 -1.9120
  823TIP3    H223961   0.393   4.376   3.190  1.0320  0.2262 -0.7213
  824TIP3   OH223962   3.675   5.132   2.170  0.1463 -0.0587 -0.4894
  824TIP3    H123963   3.613   5.083   2.117  1.2680 -1.8038 -0.2493
  824TIP3    H223964   3.693   5.211   2.119 -1.2287 -0.1596 -1.1780
  825TIP3   OH223965   4.139   1.975   1.364 -0.1391  0.5566 -0.6779
  825TIP3    H123966   4.161   2.068   1.367 -0.2850  0.5652  0.2389
  825TIP3    H223967   4.154   1.951   1.272 -0.7858  1.6442 -1.0955
  826TIP3   OH223968   1.312   2.029   2.176  0.4581 -0.2672 -0.4647
  826TIP3    H123969   1.393   2.076   2.159  0.4018  0.3944  1.0104
  826TIP3    H223970   1.287   2.054   2.265 -0.8563 -1.2071 -0.5381
  827TIP3   OH223971   5.156   1.310  12.790 -0.0855 -0.2249  0.6451
  827TIP3    H123972   5.071   1.313  12.835 -0.4301  0.2412 -0.0079
  827TIP3    H223973   5.221   1.322  12.859 -0.5604 -0.4286  1.1337
  828TIP3   OH223974   6.734   1.409  15.341  0.0890 -0.3413 -0.5889
  828TIP3    H123975   6.640   1.412  15.325  0.0456  0.8068 -0.2612
  828TIP3    H223976   6.746   1.341  15.408 -0.3907 -1.1211 -1.2855
  829TIP3   OH223977   3.914   1.670   1.023 -0.2410  0.0439 -0.1968
  829TIP3    H123978   3.981   1.621   1.071  0.2930  1.8998  1.0913
  829TIP3    H223979   3.936   1.658   0.931  1.3672 -0.0830  0.1750
  830TIP3   OH223980   3.920   6.112  13.628  0.0902 -0.1352 -0.0750
  830TIP3    H123981   3.929   6.156  13.713 -0.1983 -0.4018  0.0940
  830TIP3    H223982   3.884   6.026  13.649  1.5458 -0.8397 -0.2954
  831TIP3   OH223983   0.339   0.589  13.389  0.2243  0.5723  0.6743
  831TIP3    H123984   0.434   0.592  13.401  0.3633 -0.2591 -0.0357
  831TIP3    H223985   0.307   0.538  13.463  0.5241 -0.4486  0.1271
  832TIP3   OH223986   5.199   3.665   1.335 -0.2597 -0.1971  0.1967
  832TIP3    H123987   5.236   3.692   1.251 -1.3110 -0.3531 -0.3374
  832TIP3    H223988   5.271   3.622   1.381  1.1117  2.3156  0.5439
  833TIP3   OH223989   3.253   1.172   3.191 -0.4336  0.7418  0.7484
  833TIP3    H123990   3.321   1.238   3.207 -0.7916  1.3334 -0.0612
  833TIP3    H223991   3.170   1.221   3.196 -0.7850  0.0985  1.3948
  834TIP3   OH223992   4.766   5.958  13.203 -0.2339  0.1371 -0.0282
  834TIP3    H123993   4.700   6.024  13.181  0.1125  0.3723 -0.3786
  834TIP3    H223994   4.835   5.971  13.138  0.0972 -0.1947  0.2546
  835TIP3   OH223995   0.611   4.479  16.066 -0.0834  0.5201 -0.7265
  835TIP3    H123996   0.682   4.511  16.010  0.5436  0.0217 -0.2308
  835TIP3    H223997   0.647   4.402  16.109 -1.5119 -0.7741 -1.7481
  836TIP3   OH223998   6.792   2.367   3.548  0.1616 -0.2731  0.2918
  836TIP3    H123999   6.760   2.456   3.536  1.7566  0.1428 -1.4301
  836TIP3    H224000   6.737   2.314   3.489 -0.9599 -0.5294  1.5085
  837TIP3   OH224001   0.069   6.269  13.316 -0.3335 -0.0154  0.2245
  837TIP3    H124002   0.064   6.200  13.383  3.1678 -0.0414  0.6212
  837TIP3    H224003   0.067   6.222  13.233  3.6650 -1.0088  0.4813
  838TIP3   OH224004   2.210   3.838   1.300  0.3379  0.5545  0.0758
  838TIP3    H124005   2.210   3.743   1.297 -1.8019  0.4511  1.0941
  838TIP3    H224006   2.272   3.865   1.233 -0.5303 -1.5309 -1.6881
  839TIP3   OH224007   2.477   4.230  11.735  0.2353  0.3531 -0.1834
  839TIP3    H124008   2.461   4.177  11.813  0.5199 -0.1923 -0.4888
  839TIP3    H224009   2.544   4.293  11.762 -0.3564  0.7901  0.2812
  840TIP3   OH224010   4.166   6.408  15.888  1.0304  0.2017  0.3097
  840TIP3    H124011   4.201   6.446  15.808  1.7626  0.5089  0.7651
  840TIP3    H224012   4.209   6.457  15.959 -0.2766  0.5533  0.8912
  841TIP3   OH224013   4.569   6.741   5.161  0.0145 -0.1069 -0.0956
  841TIP3    H124014   4.656   6.751   5.199  0.6894  2.0586 -2.0098
  841TIP3    H224015   4.585   6.708   5.073 -1.3181 -2.0383  0.3147
  842TIP3   OH224016   5.600   0.990  12.070 -0.0672 -0.5345 -0.4526
  842TIP3    H124017   5.675   1.047  12.083  0.4960 -1.0960 -1.1831
  842TIP3    H224018   5.572   0.966  12.159  1.1059 -0.9678 -0.1917
  843TIP3   OH224019   6.082   0.530  11.314 -0.1205  0.3690 -0.0742
  843TIP3    H124020   6.176   0.522  11.295 -0.2908 -0.6231 -0.5453
  843TIP3    H224021   6.050   0.592  11.248  0.1686  0.5796 -0.0194
  844TIP3   OH224022   4.529   5.443   3.901  0.0546  0.1873 -0.2821
  844TIP3    H124023   4.515   5.442   3.996  0.9603  0.2329 -0.1405
  844TIP3    H224024   4.460   5.501   3.868 -0.5403 -0.1650  0.2920
  845TIP3   OH224025   6.546   6.457   2.906 -0.1459  0.0981  0.2623
  845TIP3    H124026   6.514   6.377   2.865  0.4426 -0.0210  0.0246
  845TIP3    H224027   6.467   6.499   2.942 -0.5533 -0.2268 -0.2364
  846TIP3   OH224028   3.193   4.256  17.040 -0.1389 -0.8625  0.6885
  846TIP3    H124029   3.285   4.280  17.028 -0.8029  1.0508 -1.1968
  846TIP3    H224030   3.177   4.186  16.976 -0.5807  0.6060 -0.8659
  847TIP3   OH224031   4.366   4.496  13.025 -0.2716 -0.1458 -0.1139
  847TIP3    H124032   4.336   4.408  13.003  1.6052 -0.5954 -1.0492
  847TIP3    H224033   4.430   4.517  12.957  0.2974  1.4185  0.8649
  848TIP3   OH224034   0.532   1.914   1.962  0.4984  0.1326 -0.0088
  848TIP3    H124035   0.449   1.870   1.978  0.0103  1.6373  1.9546
  848TIP3    H224036   0.509   1.991   1.911  1.0595 -0.6725 -1.5451
  849TIP3   OH224037   5.865   2.418   5.635 -0.3209  0.2300  0.4764
  849TIP3    H124038   5.911   2.399   5.554  1.2421 -0.0961  1.3964
  849TIP3    H224039   5.934   2.424   5.701 -1.6386 -1.2873  2.1118
  850TIP3   OH224040   3.376   4.178  13.399  0.2868 -0.5998 -0.1001
  850TIP3    H124041   3.412   4.149  13.484 -0.5382 -2.1735 -0.2440
  850TIP3    H224042   3.282   4.165  13.408  0.0290  0.6679 -0.7586
  851TIP3   OH224043   0.541   1.148   1.120 -0.2001  0.0151 -0.0047
  851TIP3    H124044   0.604   1.077   1.133  0.9504  1.0184  0.0771
  851TIP3    H224045   0.544   1.197   1.202 -1.4174 -0.1462  0.1567
  852TIP3   OH224046   2.510   1.141  14.293  0.9151 -0.6366  0.2851
  852TIP3    H124047   2.489   1.165  14.383 -1.0760 -0.3426 -0.2149
  852TIP3    H224048   2.558   1.216  14.258 -0.7673  0.4731  0.2811
  853TIP3   OH224049   3.285   1.307  14.509  0.6959 -0.1771  0.4427
  853TIP3    H124050   3.221   1.345  14.570  1.5786  0.5796  0.9129
  853TIP3    H224051   3.283   1.213  14.529 -1.3518 -0.4216 -0.5865
  854TIP3   OH224052   1.697   3.591   5.708 -0.2778  0.4159  0.0281
  854TIP3    H124053   1.645   3.545   5.642 -1.5852  2.0991 -0.1705
  854TIP3    H224054   1.780   3.609   5.664 -0.5657  0.1654 -0.6378
  855TIP3   OH224055   2.315   5.490  11.308  0.2139  0.2319  0.1798
  855TIP3    H124056   2.342   5.400  11.328  1.7857  0.7430  0.5105
  855TIP3    H224057   2.240   5.506  11.365  0.9134 -0.3567  1.3075
  856TIP3   OH224058   4.801   4.067  16.249  0.1446 -0.6914 -0.3381
  856TIP3    H124059   4.729   4.039  16.305  1.4600 -0.9675  1.2628
  856TIP3    H224060   4.879   4.054  16.301  1.2701  0.8775 -1.5483
  857TIP3   OH224061   2.160   2.625  16.348  0.6275  0.6554  0.1046
  857TIP3    H124062   2.084   2.587  16.392  0.4749  0.5191 -0.2698
  857TIP3    H224063   2.214   2.659  16.419 -0.2835  1.7040  0.3235
  858TIP3   OH224064   1.682   1.216   5.099 -0.2684 -0.4179 -0.0481
  858TIP3    H124065   1.611   1.276   5.122  0.1568 -0.0792  0.3837
  858TIP3    H224066   1.682   1.214   5.003 -0.0214  0.5884 -0.0765
  859TIP3   OH224067   5.949   3.709   3.375 -0.3453 -0.0433  0.0754
  859TIP3    H124068   5.898   3.664   3.308  0.0974  0.5858 -0.6990
  859TIP3    H224069   6.010   3.764   3.326 -0.4372  0.9087  0.9900
  860TIP3   OH224070   4.506   6.724   1.567  0.3257 -0.0281  0.0374
  860TIP3    H124071   4.563   6.673   1.510  2.3621  0.6485  1.3477
  860TIP3    H224072   4.545   6.811   1.569  0.5680 -0.0996  2.6729
  861TIP3   OH224073   1.361   5.874   3.535  0.3105 -0.3689  0.0751
  861TIP3    H124074   1.390   5.914   3.617 -2.0905  1.2965  0.1996
  861TIP3    H224075   1.308   5.799   3.562 -4.3011  2.6352  0.5399
  862TIP3   OH224076   5.137   6.534   4.004  0.4086 -0.4630 -0.2627
  862TIP3    H124077   5.097   6.555   4.089 -0.5281  0.6086 -0.9533
  862TIP3    H224078   5.107   6.444   3.986 -2.7704  0.6780 -1.2974
  863TIP3   OH224079   1.192   1.697  13.234 -0.1548 -0.1363  0.5278
  863TIP3    H124080   1.224   1.657  13.153  0.6090 -1.0224  1.2471
  863TIP3    H224081   1.256   1.766  13.253 -1.0932  1.0178 -0.3397
  864TIP3   OH224082   0.717   3.421   5.053  0.4730 -1.3566  0.4322
  864TIP3    H124083   0.744   3.346   5.000 -0.0918 -0.3402 -1.3716
  864TIP3    H224084   0.799   3.453   5.093  1.0861 -1.5509 -0.6402
  865TIP3   OH224085   3.093   3.286  14.803  0.2821  0.4173  0.3365
  865TIP3    H124086   3.008   3.242  14.805 -0.7381  2.2930  0.9256
  865TIP3    H224087   3.142   3.248  14.876 -1.7932  2.4341  2.9622
  866TIP3   OH224088   5.455   0.883  15.410  0.4278  0.4638  0.2954
  866TIP3    H124089   5.515   0.885  15.335  0.4852 -0.1410  0.3258
  866TIP3    H224090   5.428   0.975  15.420  1.2681  0.7303  0.2239
  867TIP3   OH224091   3.588   0.851   0.189 -0.0704  0.2580 -0.3649
  867TIP3    H124092   3.500   0.889   0.187  0.6850  2.0667 -1.2874
  867TIP3    H224093   3.615   0.848   0.098  0.5046 -1.1273 -0.1706
  868TIP3   OH224094   1.166   3.939   0.444 -0.2868  0.1621  0.0447
  868TIP3    H124095   1.134   4.024   0.413 -2.6172 -0.9678 -0.8863
  868TIP3    H224096   1.240   3.919   0.385 -1.4249  0.3553 -1.5233
  869TIP3   OH224097   1.991   3.378   0.978 -0.6638  0.5360  0.6415
  869TIP3    H124098   1.960   3.289   0.963 -0.9907  0.6704  0.5072
  869TIP3    H224099   2.075   3.382   0.933 -1.9529  1.1623 -1.8980
  870TIP3   OH224100   5.819   3.709   0.735  0.5202 -0.8866 -0.1973
  870TIP3    H124101   5.738   3.726   0.782  0.3484 -0.5513 -0.6079
  870TIP3    H224102   5.885   3.695   0.803  0.7546  1.7212  0.2025
  871TIP3   OH224103   4.052   6.622  17.132 -0.1295 -0.7321  0.1165
  871TIP3    H124104   4.033   6.582  17.047  0.5439 -1.7016  0.4002
  871TIP3    H224105   4.075   6.548  17.189  0.1726 -0.0281  0.9398
  872TIP3   OH224106   4.231   2.417  13.330  0.5405  0.6735  0.0507
  872TIP3    H124107   4.240   2.392  13.237  0.6946 -0.7827  0.4230
  872TIP3    H224108   4.191   2.504  13.328 -2.0153 -0.4076 -1.3972
  873TIP3   OH224109   1.215   4.367  11.304 -0.1302 -0.1245  0.3134
  873TIP3    H124110   1.147   4.303  11.324 -0.2063  0.5648  2.4790
  873TIP3    H224111   1.194   4.396  11.215 -1.7207 -1.0748  0.3255
  874TIP3   OH224112   2.200   0.829   1.440 -0.1331  0.3588  0.6688
  874TIP3    H124113   2.106   0.833   1.424  0.2963  0.7095 -2.2067
  874TIP3    H224114   2.237   0.794   1.359  2.2497  0.4984  1.6238
  875TIP3   OH224115   2.103   1.691  16.447  0.2752 -0.0531 -0.1281
  875TIP3    H124116   2.158   1.638  16.505  1.3111 -1.1179 -1.9762
  875TIP3    H224117   2.135   1.780  16.458  0.4801 -0.2434  0.8846
  876TIP3   OH224118   2.816   4.525  15.428 -0.3014 -0.0925  0.3733
  876TIP3    H124119   2.791   4.445  15.383 -1.6337  1.0348 -1.0184
  876TIP3    H224120   2.733   4.567  15.450  0.3670  1.0854  0.7404
  877TIP3   OH224121   1.049   0.593   0.822  0.0343  0.4018  0.0591
  877TIP3    H124122   0.983   0.544   0.773  0.2567  1.0297 -0.8960
  877TIP3    H224123   1.017   0.683   0.821 -0.5617  0.2699  2.1131
  878TIP3   OH224124   2.709   3.115  12.485  0.4324  0.0941  0.3209
  878TIP3    H124125   2.710   3.024  12.514  0.9602  0.5804  1.9515
  878TIP3    H224126   2.769   3.118  12.411  1.4667 -0.6324  1.1115
  879TIP3   OH224127   2.725   4.272  15.325 -0.3398 -0.0927 -0.1169
  879TIP3    H124128   2.661   4.270  15.397  0.0640  0.8986  0.2958
  879TIP3    H224129   2.672   4.265  15.246 -1.4267  4.1246  0.0139
  880TIP3   OH224130   3.819   3.598  11.703 -0.7977 -0.4749 -0.2492
  880TIP3    H124131   3.743   3.653  11.684  0.9727  1.5946 -2.0160
  880TIP3    H224132   3.885   3.660  11.734  0.9759 -1.7598 -1.2776
  881TIP3   OH224133   3.295   0.941   5.348  0.3038  0.0217  0.7378
  881TIP3    H124134   3.236   0.918   5.420  0.2697 -0.2318  0.6317
  881TIP3    H224135   3.382   0.927   5.383  0.2794 -2.0837  0.1190
  882TIP3   OH224136   2.963   6.379   4.258 -0.6728 -0.4681  0.0647
  882TIP3    H124137   2.870   6.360   4.244 -0.5337 -0.5660 -0.7837
  882TIP3    H224138   2.963   6.452   4.320 -1.3509  0.0751 -0.5548
  883TIP3   OH224139   2.024   5.705   1.641 -0.4996  0.0628 -0.0818
  883TIP3    H124140   2.047   5.786   1.688  1.8546 -0.9380  0.6356
  883TIP3    H224141   1.985   5.649   1.708 -3.3346  0.9552 -0.8431
  884TIP3   OH224142   2.073   3.351  11.935 -0.1239 -0.4598 -0.8047
  884TIP3    H124143   2.049   3.278  11.877 -0.5085 -0.2878 -0.8699
  884TIP3    H224144   2.067   3.315  12.023 -1.1918 -0.2763 -0.7865
  885TIP3   OH224145   2.042   1.944  17.057 -0.6550  0.0440  0.2744
  885TIP3    H124146   1.977   1.940  17.126 -1.2037  2.0321 -0.0547
  885TIP3    H224147   1.994   1.920  16.977 -0.6262  0.0703  0.2491
  886TIP3   OH224148   1.219   0.684  13.719 -0.1034 -0.2103 -0.1963
  886TIP3    H124149   1.191   0.659  13.630  0.3799 -0.1970 -0.3544
  886TIP3    H224150   1.143   0.728  13.756 -0.0445  0.5195 -0.8979
  887TIP3   OH224151   1.386   0.523  10.578 -0.6142  0.7528  0.3712
  887TIP3    H124152   1.335   0.561  10.506 -4.2792 -1.9594  1.2427
  887TIP3    H224153   1.321   0.489  10.638  2.3215  0.6862  3.8614
  888TIP3   OH224154   3.727   1.632  12.852 -0.2065 -0.1133 -0.1953
  888TIP3    H124155   3.822   1.625  12.857 -0.1501  0.7192  0.0542
  888TIP3    H224156   3.697   1.543  12.833  0.5244 -0.7014  1.2352
  889TIP3   OH224157   0.281   5.866  15.522  0.0565 -0.1091  0.2632
  889TIP3    H124158   0.223   5.927  15.477 -1.2991 -1.7354 -0.2901
  889TIP3    H224159   0.224   5.818  15.582  0.7843 -1.7399 -0.2807
  890TIP3   OH224160   0.078   3.192   2.885 -0.5287 -0.5133 -0.6275
  890TIP3    H124161   0.140   3.127   2.853 -0.1172 -1.1848  1.4249
  890TIP3    H224162   0.120   3.229   2.963 -1.1970  1.5102 -1.1631
  891TIP3   OH224163   4.355   1.266  16.166 -0.1390  0.0970 -0.0495
  891TIP3    H124164   4.434   1.239  16.212 -0.2987  1.7835  1.3376
  891TIP3    H224165   4.317   1.185  16.132  2.1578 -0.7390 -0.7500
  892TIP3   OH224166   1.114   1.602   1.571 -0.0117 -0.2139 -0.6216
  892TIP3    H124167   1.097   1.628   1.662  1.5007 -1.2175 -0.0148
  892TIP3    H224168   1.177   1.667   1.539 -0.5421  0.1379 -0.9557
  893TIP3   OH224169   6.293   1.223  16.430  0.7499  0.0722  0.9246
  893TIP3    H124170   6.325   1.312  16.417 -0.9816  0.6734  0.6264
  893TIP3    H224171   6.299   1.209  16.524 -0.8632  1.2760  1.2392
  894TIP3   OH224172   2.444   1.438  14.936  0.5259  0.1261 -0.1291
  894TIP3    H124173   2.486   1.451  14.851  1.0337  0.9980  0.2276
  894TIP3    H224174   2.515   1.409  14.993  0.2311 -0.2645  0.0415
  895TIP3   OH224175   1.177   6.204   3.656  0.0579  0.1468  0.1168
  895TIP3    H124176   1.181   6.155   3.574  1.0825 -0.2574  0.3912
  895TIP3    H224177   1.098   6.258   3.648  0.3220  0.3582 -1.2572
  896TIP3   OH224178   6.638   1.322   1.813 -0.1431  0.0790  0.6564
  896TIP3    H124179   6.546   1.325   1.786  0.4620 -0.2236 -1.6207
  896TIP3    H224180   6.639   1.264   1.889 -1.6706 -0.9077 -0.0415
  897TIP3   OH224181   1.051   0.918  13.486  0.4618  0.0250  0.4911
  897TIP3    H124182   0.980   0.884  13.432 -0.1237  2.3025 -0.3096
  897TIP3    H224183   1.129   0.907  13.433  0.3643 -0.5157  0.4587
  898TIP3   OH224184   0.220   3.619  16.083 -0.0603  0.9306  0.3252
  898TIP3    H124185   0.283   3.570  16.136  1.3365  1.1922 -1.0344
  898TIP3    H224186   0.214   3.705  16.126  0.7289  0.9952  0.3207
  899TIP3   OH224187   5.777   3.765  14.315 -0.6590  0.4836  0.5399
  899TIP3    H124188   5.859   3.779  14.362  0.0021  0.6514 -0.6132
  899TIP3    H224189   5.777   3.672  14.292 -0.4545  0.6171 -0.0323
  900TIP3   OH224190   1.822   0.691  13.762 -0.1336  0.0996  0.1464
  900TIP3    H124191   1.866   0.650  13.837  0.0805 -2.8948 -1.4346
  900TIP3    H224192   1.884   0.756  13.730  0.3104  0.5230  1.7647
  901TIP3   OH224193   2.363   5.308   6.536  0.1743 -0.1203  0.1188
  901TIP3    H124194   2.278   5.342   6.563  1.0567  3.7289 -1.2916
  901TIP3    H224195   2.408   5.290   6.618 -1.4879 -1.0023  0.8945
  902TIP3   OH224196   4.256   3.492   6.787  0.4495  0.4887 -0.1170
  902TIP3    H124197   4.259   3.399   6.767  0.1944  0.1117  1.4914
  902TIP3    H224198   4.279   3.535   6.704  2.8929 -1.0326 -0.3343
  903TIP3   OH224199   5.757   6.311  11.598  0.8481 -1.1536 -0.3209
  903TIP3    H124200   5.679   6.361  11.577  1.0983 -0.5616  0.1211
  903TIP3    H224201   5.751   6.232  11.544 -1.2546 -2.2857  1.3945
  904TIP3   OH224202   6.244   5.022   2.998 -0.5211 -0.3043 -0.2599
  904TIP3    H124203   6.299   5.100   3.002  0.9327 -1.2492 -0.9206
  904TIP3    H224204   6.154   5.055   2.990 -0.0216  1.2810  0.4330
  905TIP3   OH224205   2.124   5.449  12.690 -0.3199 -0.0168  0.7414
  905TIP3    H124206   2.152   5.483  12.606 -0.7736  1.5309  1.1888
  905TIP3    H224207   2.204   5.452  12.744 -0.9116  3.3334  1.6785
  906TIP3   OH224208   1.012   5.285  15.066 -0.4650  0.3230  0.0021
  906TIP3    H124209   0.929   5.238  15.078 -1.0930  1.4221  0.0248
  906TIP3    H224210   1.044   5.255  14.981  0.8636 -2.7234  1.4088
  907TIP3   OH224211   3.613   2.660   2.033 -0.2839 -0.4984  0.0428
  907TIP3    H124212   3.610   2.756   2.028 -1.1148 -0.4485  1.1318
  907TIP3    H224213   3.549   2.638   2.101 -0.6277 -1.8792 -0.7123
  908TIP3   OH224214   5.286   2.563  15.272  0.1606 -0.0223 -0.3271
  908TIP3    H124215   5.228   2.608  15.210 -0.8567 -0.2081  0.4666
  908TIP3    H224216   5.374   2.580  15.239 -0.2087  2.1009 -0.3667
  909TIP3   OH224217   0.384   1.947  14.895 -0.0927  0.0706 -0.9616
  909TIP3    H124218   0.454   1.993  14.942 -1.1384  0.4676  0.2612
  909TIP3    H224219   0.333   2.017  14.854 -0.1854 -0.1729 -1.2656
  910TIP3   OH224220   1.898   6.311  16.716  0.2618  0.3634 -0.5646
  910TIP3    H124221   1.881   6.225  16.678  1.1640  1.1701 -3.0331
  910TIP3    H224222   1.959   6.294  16.788 -0.7287 -1.1756 -0.0491
  911TIP3   OH224223   5.393   3.987  11.019  0.6395  0.6867 -0.1988
  911TIP3    H124224   5.388   3.903  10.974 -0.2799  1.1180 -0.9361
  911TIP3    H224225   5.468   3.979  11.078 -0.4974 -1.3061  1.0932
  912TIP3   OH224226   0.248   5.160  13.702 -0.3442 -0.0031 -0.5920
  912TIP3    H124227   0.217   5.216  13.773 -0.1938  1.5110 -1.6817
  912TIP3    H224228   0.266   5.075  13.745 -0.0642  0.9084  1.2034
  913TIP3   OH224229   2.098   2.588  13.901  0.4952  0.3980  0.4680
  913TIP3    H124230   2.138   2.508  13.866  1.1379 -0.1411  2.2966
  913TIP3    H224231   2.064   2.633  13.824  0.0837 -1.6415 -0.6257
  914TIP3   OH224232   3.775   2.962   0.576 -0.6517 -0.0293  0.4046
  914TIP3    H124233   3.747   3.008   0.655  0.2785  2.9372 -0.8139
  914TIP3    H224234   3.853   2.913   0.603 -2.0951 -1.5968  1.9359
  915TIP3   OH224235   1.993   0.752  15.369 -0.1441 -0.1770  0.1167
  915TIP3    H124236   1.904   0.718  15.361 -1.1674  2.0703  0.8635
  915TIP3    H224237   1.996   0.789  15.458  0.8199  1.5426 -0.5685
  916TIP3   OH224238   0.270   4.041   1.406 -0.1475  0.2327  0.0895
  916TIP3    H124239   0.355   4.075   1.379 -0.4299  1.6810  0.9049
  916TIP3    H224240   0.287   3.951   1.431  1.2996  0.7022  0.9041
  917TIP3   OH224241   6.438   6.509   6.254 -0.0537 -0.7524 -0.8182
  917TIP3    H124242   6.410   6.504   6.345  0.0268 -1.3499 -0.8227
  917TIP3    H224243   6.526   6.545   6.258 -0.4765  0.3140 -0.7458
  918TIP3   OH224244   2.242   3.216   0.396  0.7099 -0.1507 -0.0132
  918TIP3    H124245   2.229   3.302   0.354  2.7326  0.7260  1.0441
  918TIP3    H224246   2.166   3.206   0.453  0.8855  1.3961  0.5497
  919TIP3   OH224247   2.395   4.896  15.099  0.1437  0.0224  0.3659
  919TIP3    H124248   2.348   4.976  15.077  0.1721 -0.4212 -1.4211
  919TIP3    H224249   2.488   4.919  15.089  0.1363 -0.3516 -0.6006
  920TIP3   OH224250   0.709   3.132   1.443 -0.0967  0.6490  0.4033
  920TIP3    H124251   0.674   3.106   1.528  0.5208  0.1540  0.5117
  920TIP3    H224252   0.659   3.081   1.379  1.5737 -1.3970  0.6480
  921TIP3   OH224253   3.043   6.351  11.198 -0.3618 -0.4465 -0.3941
  921TIP3    H124254   2.963   6.388  11.235 -0.2750 -2.2035  1.7252
  921TIP3    H224255   3.113   6.379  11.257  0.4169 -0.0233 -1.4853
  922TIP3   OH224256   6.433   5.251  16.820 -0.0631 -0.9758 -0.2788
  922TIP3    H124257   6.499   5.190  16.786  1.4599  0.5821 -0.2458
  922TIP3    H224258   6.472   5.338  16.808 -1.0185 -0.1366  2.1016
  923TIP3   OH224259   3.700   2.692  15.564  0.7279  0.2252 -0.1118
  923TIP3    H124260   3.733   2.775  15.530  2.0588  0.5259  1.7598
  923TIP3    H224261   3.778   2.645  15.593 -0.2690  0.1218  2.6810
  924TIP3   OH224262   4.382   1.521   3.539  0.0084 -0.2899 -0.4006
  924TIP3    H124263   4.329   1.596   3.565 -0.0742 -0.3735 -0.3290
  924TIP3    H224264   4.461   1.529   3.593  0.0416 -0.2017 -0.4613
  925TIP3   OH224265   0.087   5.787   3.750  0.1283  0.8263 -0.1886
  925TIP3    H124266   0.075   5.751   3.837 -0.8244 -2.3201 -1.4751
  925TIP3    H224267   0.158   5.851   3.760  1.6800 -1.1044  2.4659
  926TIP3   OH224268   5.535   6.559   0.641 -0.6719 -0.1543 -0.4465
  926TIP3    H124269   5.610   6.616   0.625 -1.4048  0.9285 -0.1710
  926TIP3    H224270   5.543   6.535   0.734 -1.9309  1.9796  0.3067
  927TIP3   OH224271   2.902   3.125   2.578 -0.0870 -0.1197  0.4029
  927TIP3    H124272   2.886   3.120   2.484  0.6876  0.6726  0.2095
  927TIP3    H224273   2.985   3.080   2.591  0.4913  0.9406  0.4925
  928TIP3   OH224274   3.367   4.480   4.921 -0.5502 -0.2779 -0.4013
  928TIP3    H124275   3.449   4.435   4.906 -1.1507 -2.5460  2.1845
  928TIP3    H224276   3.315   4.463   4.843  1.0787  0.5000 -1.7157
  929TIP3   OH224277   1.252   4.907   4.841 -0.2367  0.4485  0.2705
  929TIP3    H124278   1.285   4.911   4.931  0.3954  3.0177  0.0052
  929TIP3    H224279   1.158   4.924   4.849 -0.5100 -1.0260  0.5354
  930TIP3   OH224280   0.185   0.028   3.404 -0.5077 -0.1990  0.4113
  930TIP3    H124281   0.170   0.106   3.351 -0.9403  1.5985  2.9664
  930TIP3    H224282   0.260   0.050   3.459 -1.7947 -0.7664  2.5225
  931TIP3   OH224283   1.173   4.970  16.594 -0.0258  0.1109 -0.2243
  931TIP3    H124284   1.203   4.886  16.627 -2.6276 -0.5702  0.6972
  931TIP3    H224285   1.129   4.949  16.511  1.4615  0.9750 -1.2781
  932TIP3   OH224286   1.978   2.182   6.897 -0.0624  0.2166  0.1711
  932TIP3    H124287   2.011   2.272   6.890 -0.0866  0.3185  1.2148
  932TIP3    H224288   1.892   2.185   6.855  0.8813  0.1344 -1.8521
  933TIP3   OH224289   5.362   4.550  14.581  0.1587 -0.4220 -0.1753
  933TIP3    H124290   5.440   4.564  14.635 -0.2681 -0.4439  0.4549
  933TIP3    H224291   5.289   4.556  14.642 -0.2252 -2.7059 -0.3151
  934TIP3   OH224292   2.798   5.224   1.059  0.1232  0.0607 -0.3860
  934TIP3    H124293   2.862   5.294   1.068  0.0479  0.2487 -1.2499
  934TIP3    H224294   2.842   5.157   1.006  0.0240 -0.3357  0.0209
  935TIP3   OH224295   2.797   2.211  10.882  0.1412 -0.5159  0.1001
  935TIP3    H124296   2.728   2.194  10.946  0.8696 -1.8226  0.5869
  935TIP3    H224297   2.878   2.190  10.928  1.1035  2.9114  0.2051
  936TIP3   OH224298   0.840   5.861  15.999  0.0249 -0.1261 -0.4051
  936TIP3    H124299   0.796   5.868  15.914  0.0831 -0.6116 -0.4757
  936TIP3    H224300   0.814   5.776  16.033  0.5068 -0.2016 -0.2149
  937TIP3   OH224301   4.793   6.732   4.138 -0.1347 -0.1761  0.2749
  937TIP3    H124302   4.822   6.642   4.124  1.2010  0.4576 -1.6055
  937TIP3    H224303   4.715   6.741   4.083 -1.0610 -0.5155  1.4953
  938TIP3   OH224304   5.759   4.166  15.188 -0.2679  0.4718  0.4839
  938TIP3    H124305   5.830   4.227  15.207 -0.4588  0.3254  1.8015
  938TIP3    H224306   5.795   4.079  15.207 -0.0523  0.1572 -1.2102
  939TIP3   OH224307   5.710   0.672  15.800  0.2283 -0.3714  0.2603
  939TIP3    H124308   5.695   0.732  15.874  0.7185  0.1538 -0.0606
  939TIP3    H224309   5.804   0.679  15.782 -0.1074  0.6088 -1.3381
  940TIP3   OH224310   0.726   1.185   5.074  0.5019  0.3386  0.1035
  940TIP3    H124311   0.790   1.246   5.111  1.3749 -0.7866  0.5064
  940TIP3    H224312   0.647   1.238   5.062  0.4327  1.0133  2.7906
  941TIP3   OH224313   3.053   6.536   2.146 -0.0412  0.0955 -0.4984
  941TIP3    H124314   3.069   6.525   2.053  6.0591  3.3144 -0.3145
  941TIP3    H224315   3.018   6.625   2.154  2.0319  0.8925  0.2673
  942TIP3   OH224316   1.264   0.525   4.331  0.4114 -0.0082 -0.2059
  942TIP3    H124317   1.349   0.566   4.345 -0.0782  0.6114  1.1564
  942TIP3    H224318   1.278   0.465   4.258  2.4599 -1.2316  1.0892
  943TIP3   OH224319   4.085   5.570   4.414 -0.5373  0.1324  0.5442
  943TIP3    H124320   4.101   5.506   4.483 -1.1297 -1.2338 -0.5457
  943TIP3    H224321   4.015   5.532   4.361  0.2361  0.9002 -1.1003
  944TIP3   OH224322   0.329   4.939  11.195  0.3110  0.1774 -0.1238
  944TIP3    H124323   0.384   4.903  11.125  0.7517  0.5978 -0.0001
  944TIP3    H224324   0.317   4.866  11.256 -3.4709 -1.5760 -2.5126
  945TIP3   OH224325   6.429   6.701   1.528  0.0647  0.7078 -0.0161
  945TIP3    H124326   6.471   6.622   1.562 -0.2362  0.2075 -0.7825
  945TIP3    H224327   6.431   6.763   1.602 -1.2822 -0.6009  1.1903
  946TIP3   OH224328   0.593   1.141   5.620  0.0573  0.4940  0.3525
  946TIP3    H124329   0.560   1.074   5.560  0.5947  0.1759  0.3998
  946TIP3    H224330   0.645   1.198   5.564  0.8688 -0.0173  0.5657
  947TIP3   OH224331   3.430   0.651   3.889  0.2082 -0.1490 -0.2293
  947TIP3    H124332   3.444   0.715   3.819 -0.1128 -0.0148 -0.1702
  947TIP3    H224333   3.412   0.569   3.842  1.1626 -0.3303 -0.3103
  948TIP3   OH224334   3.759   3.434   0.797  0.4517  0.7826  0.5593
  948TIP3    H124335   3.799   3.463   0.879  1.5014  1.6436 -0.2141
  948TIP3    H224336   3.825   3.377   0.757 -0.3014 -0.1251  0.5814
  949TIP3   OH224337   6.556   2.729  16.516 -0.3306 -0.1373  0.1269
  949TIP3    H124338   6.524   2.739  16.426  0.5443 -0.5401 -0.2397
  949TIP3    H224339   6.480   2.746  16.570 -1.2785 -1.4289 -0.7240
  950TIP3   OH224340   4.755   5.543  10.664 -0.4937  0.5593 -0.4267
  950TIP3    H124341   4.671   5.501  10.647 -0.0910 -1.6572  2.3331
  950TIP3    H224342   4.736   5.608  10.732 -0.2813  1.5083 -1.2517
  951TIP3   OH224343   0.116   4.423   0.691  0.1411  0.1350  0.1515
  951TIP3    H124344   0.174   4.462   0.626 -1.3130  1.0949 -0.6223
  951TIP3    H224345   0.030   4.420   0.648 -0.6591 -0.0779  1.6932
  952TIP3   OH224346   3.865   0.596   1.018  0.8090  0.6339  0.2902
  952TIP3    H124347   3.801   0.613   1.087 -2.3678 -0.5579 -2.1116
  952TIP3    H224348   3.868   0.500   1.012 -0.2152  0.6791 -2.1338
  953TIP3   OH224349   1.100   6.779  14.955 -0.6725  0.4750 -0.4397
  953TIP3    H124350   1.081   6.797  14.863  2.3751  0.4028 -1.1751
  953TIP3    H224351   1.146   6.857  14.986 -1.6658  0.5135  1.0850
  954TIP3   OH224352   0.350   1.839   4.249 -0.5414 -0.9112  0.5473
  954TIP3    H124353   0.446   1.836   4.254 -0.2363 -1.2632 -3.0750
  954TIP3    H224354   0.328   1.932   4.260  0.4438 -0.5085 -0.6869
  955TIP3   OH224355   2.737   3.830  12.950 -0.2464  0.0440  0.2086
  955TIP3    H124356   2.694   3.871  12.875 -2.8227  0.4719  1.8088
  955TIP3    H224357   2.815   3.884  12.965 -1.2321  1.7333 -0.4195
  956TIP3   OH224358   4.626   1.769   2.709 -0.0275 -0.4907  0.2756
  956TIP3    H124359   4.595   1.760   2.619  1.3964 -0.4958 -0.2460
  956TIP3    H224360   4.549   1.797   2.758 -0.6248  0.4394 -1.1210
  957TIP3   OH224361   4.729   3.843   2.331 -0.2539  0.5156  0.8385
  957TIP3    H124362   4.691   3.927   2.305 -0.2566  0.0226 -0.8250
  957TIP3    H224363   4.799   3.828   2.268 -0.7903 -1.1261  0.5934
  958TIP3   OH224364   0.389   0.184  12.957  0.2592 -0.5462  0.2192
  958TIP3    H124365   0.368   0.230  12.876 -0.0830 -0.0799  0.5682
  958TIP3    H224366   0.316   0.124  12.971 -0.6346  0.7117  1.1634
  959TIP3   OH224367   0.350   2.466  16.171 -0.2755  0.2717 -0.1519
  959TIP3    H124368   0.370   2.508  16.255 -0.2226 -0.5523  0.2534
  959TIP3    H224369   0.283   2.522  16.131 -2.8593 -1.1071  1.9440
  960TIP3   OH224370   4.157   4.705  13.116  0.5626 -0.2886 -0.4700
  960TIP3    H124371   4.237   4.652  13.114  0.8178  0.0463  0.2717
  960TIP3    H224372   4.187   4.795  13.099  0.1373 -0.3595 -1.7027
  961TIP3   OH224373   4.375   6.325  15.382 -0.2599 -0.0801  0.5185
  961TIP3    H124374   4.364   6.281  15.466 -2.0482 -0.6174  0.0580
  961TIP3    H224375   4.457   6.290  15.347  0.8187  0.6042  2.2666
  962TIP3   OH224376   6.285   3.848  12.817 -0.8873 -0.0533 -0.1582
  962TIP3    H124377   6.327   3.868  12.734  0.0620  0.4106  0.4029
  962TIP3    H224378   6.301   3.755  12.831 -2.2240 -0.4388 -1.1166
  963TIP3   OH224379   0.725   4.279  11.494  0.9140 -0.0572  0.0344
  963TIP3    H124380   0.653   4.317  11.545 -0.1967  0.2026 -1.6121
  963TIP3    H224381   0.778   4.232  11.558 -1.3082 -1.1550  1.1995
  964TIP3   OH224382   6.348   0.672  14.102 -0.6434  0.4723  0.5619
  964TIP3    H124383   6.259   0.653  14.132 -0.8933  0.6474 -0.0473
  964TIP3    H224384   6.373   0.595  14.051 -1.1674  1.1684 -0.8251
  965TIP3   OH224385   1.117   0.589   0.001  0.0513 -0.1624 -0.0716
  965TIP3    H124386   1.172   0.550  -0.067  1.6955  0.5149  0.7998
  965TIP3    H224387   1.027   0.571  -0.026  0.6959 -2.7464 -0.7299
  966TIP3   OH224388   4.666   6.163   4.509  0.8308 -0.0498  0.1394
  966TIP3    H124389   4.723   6.237   4.488 -0.1637  0.6336 -0.2603
  966TIP3    H224390   4.719   6.086   4.493  0.9676  0.4976 -2.4160
  967TIP3   OH224391   6.562   1.816  15.659  0.5295  0.1867 -0.4226
  967TIP3    H124392   6.635   1.755  15.670  0.3808  0.0337 -0.2815
  967TIP3    H224393   6.558   1.831  15.564  1.7042  1.3759 -0.3147
  968TIP3   OH224394   1.321   2.133  13.414  0.1113  0.4922  0.2865
  968TIP3    H124395   1.357   2.201  13.471  3.8638 -0.6006 -0.4921
  968TIP3    H224396   1.328   2.052  13.465 -1.7058  0.2286  0.1901
  969TIP3   OH224397   0.487   4.058   4.508  0.7684 -0.2555  0.0885
  969TIP3    H124398   0.497   3.981   4.564  0.0525 -0.1552  0.3684
  969TIP3    H224399   0.567   4.108   4.521  1.5788 -1.3026 -0.6617
  970TIP3   OH224400   1.439   5.985  10.842  0.0399  0.1301 -0.2054
  970TIP3    H124401   1.506   5.946  10.899  1.4634  0.4859 -1.5989
  970TIP3    H224402   1.399   5.909  10.799  0.6953  0.0157 -0.6189
  971TIP3   OH224403   0.568   6.001   4.211  0.0528 -0.4102 -0.0507
  971TIP3    H124404   0.573   6.012   4.306  1.6137  3.0893 -0.3495
  971TIP3    H224405   0.652   5.961   4.187  0.3064  0.1161 -0.0541
  972TIP3   OH224406   0.136   3.394  16.339 -0.4175 -0.1357 -0.6868
  972TIP3    H124407   0.215   3.448  16.346 -0.6906  0.0772  1.0899
  972TIP3    H224408   0.169   3.304  16.334 -0.0414 -0.0752  0.3952
  973TIP3   OH224409   4.511   2.971  16.482  0.5190 -0.5567  0.4412
  973TIP3    H124410   4.481   2.944  16.395  0.0734  0.0051  0.4151
  973TIP3    H224411   4.606   2.975  16.475  0.4394  0.3439 -0.2834
  974TIP3   OH224412   4.699   1.059  11.328  0.6778  0.0547  0.3996
  974TIP3    H124413   4.669   1.135  11.379  0.3082 -0.4278  0.9108
  974TIP3    H224414   4.790   1.079  11.306  0.4997  0.7730  0.2815
  975TIP3   OH224415   5.387   1.836   2.583  0.0568  0.1417 -0.3266
  975TIP3    H124416   5.480   1.826   2.561  0.0992  1.8205 -1.0888
  975TIP3    H224417   5.342   1.781   2.520  0.4736  0.5528 -1.0001
  976TIP3   OH224418   0.794   2.482   6.170  0.1589 -0.0715  0.3825
  976TIP3    H124419   0.804   2.577   6.160 -0.5512 -0.1145 -1.0210
  976TIP3    H224420   0.705   2.471   6.203 -0.4987 -0.2984 -1.3479
  977TIP3   OH224421   1.457   2.563   4.969 -0.1397  0.6100  0.5368
  977TIP3    H124422   1.366   2.534   4.972 -0.3158  0.7985 -1.6240
  977TIP3    H224423   1.453   2.648   4.925  0.9397  1.4514  1.9658
  978TIP3   OH224424   4.219   3.291  11.482 -0.4097 -0.1154 -0.2887
  978TIP3    H124425   4.285   3.229  11.512 -1.3246 -1.1167 -0.2881
  978TIP3    H224426   4.147   3.236  11.450 -0.7175  0.9401 -1.4831
  979TIP3   OH224427   2.422   2.684  13.623  1.0495 -0.2854 -0.0411
  979TIP3    H124428   2.459   2.765  13.657  0.1132 -0.6103  1.9005
  979TIP3    H224429   2.357   2.712  13.559  0.3702  0.5367  0.9848
  980TIP3   OH224430   3.823   5.007  16.557  0.3417  0.0681 -0.4822
  980TIP3    H124431   3.749   4.954  16.586  0.5991 -0.4995 -0.8347
  980TIP3    H224432   3.839   4.977  16.467  0.9261  0.2601 -0.4420
  981TIP3   OH224433   6.765   2.896  15.156 -0.4898 -0.1847 -0.5011
  981TIP3    H124434   6.827   2.961  15.124 -0.5571 -0.0426 -0.3462
  981TIP3    H224435   6.815   2.814  15.161 -0.1955  0.0244  0.0549
  982TIP3   OH224436   5.219   1.753   0.095 -0.0746  0.4690  0.3191
  982TIP3    H124437   5.183   1.839   0.072 -0.1323 -0.2289 -2.5696
  982TIP3    H224438   5.309   1.757   0.063 -0.1229 -0.5767  0.0413
  983TIP3   OH224439   2.721   5.006   2.500  0.1618  0.3403 -0.4778
  983TIP3    H124440   2.687   5.093   2.478 -0.2976 -0.1384 -1.7405
  983TIP3    H224441   2.655   4.968   2.559 -0.2861  0.3482 -0.9702
  984TIP3   OH224442   2.529   6.366  11.531 -0.2699  0.3046  0.1030
  984TIP3    H124443   2.538   6.271  11.534  0.4685  0.2971 -1.5071
  984TIP3    H224444   2.458   6.382  11.469 -0.4463  0.8149  0.4265
  985TIP3   OH224445   1.694   2.716   2.099  0.3984  0.0072  0.1040
  985TIP3    H124446   1.648   2.658   2.039 -0.0847  0.5472 -0.0604
  985TIP3    H224447   1.635   2.725   2.174  0.7087 -0.1477  0.3686
  986TIP3   OH224448   1.504   3.746   5.228  0.0006  0.1323 -0.0825
  986TIP3    H124449   1.502   3.737   5.133  1.3203  0.5671 -0.1693
  986TIP3    H224450   1.560   3.823   5.244 -1.4695  1.0432  1.0009
  987TIP3   OH224451   1.661   5.850  15.660  0.1763 -0.1913  0.2463
  987TIP3    H124452   1.716   5.882  15.589 -1.2089  0.9660 -0.3590
  987TIP3    H224453   1.692   5.761  15.677 -0.2967 -1.0450 -2.7712
  988TIP3   OH224454   4.396   4.318   3.022  0.3011 -0.3337 -0.0576
  988TIP3    H124455   4.478   4.323   2.972  0.0860  0.0220 -0.3724
  988TIP3    H224456   4.384   4.406   3.058 -0.7693  0.0680 -1.3339
  989TIP3   OH224457   0.118   1.073  15.405  0.2419 -0.3416 -0.2451
  989TIP3    H124458   0.069   0.995  15.431  0.2555 -0.4899 -0.6553
  989TIP3    H224459   0.205   1.060  15.444  0.2326 -0.5112 -0.2793
  990TIP3   OH224460   3.695   2.553   0.485 -0.2239 -0.3213  0.4393
  990TIP3    H124461   3.626   2.495   0.453  0.1474 -0.8664  0.6084
  990TIP3    H224462   3.775   2.519   0.446 -0.3811  2.3989 -2.6755
  991TIP3   OH224463   1.360   2.418  13.232 -0.2493 -0.2379  0.3030
  991TIP3    H124464   1.332   2.404  13.322  0.2734 -1.8448  0.2600
  991TIP3    H224465   1.290   2.471  13.193  0.2553  1.7755  2.0100
  992TIP3   OH224466   1.490   4.787   2.230 -0.4601  0.2845  0.3405
  992TIP3    H124467   1.452   4.867   2.266 -1.4303 -0.0923  0.1747
  992TIP3    H224468   1.420   4.722   2.236 -0.4341  0.0295 -1.6108
  993TIP3   OH224469   0.978   2.749  12.848 -0.2050 -0.3507 -0.3545
  993TIP3    H124470   0.973   2.833  12.802  1.2770  0.2446  0.4986
  993TIP3    H224471   1.034   2.695  12.793  0.5150 -0.0650  0.0699
  994TIP3   OH224472   2.893   3.600  15.361 -0.1443 -0.6386 -0.0620
  994TIP3    H124473   2.907   3.517  15.406  1.3970  0.1796  1.0326
  994TIP3    H224474   2.956   3.660  15.399 -0.1158  0.6391 -1.9512
  995TIP3   OH224475   4.219   3.129   4.513 -0.0096  0.2836  0.2872
  995TIP3    H124476   4.202   3.176   4.432 -1.1699 -0.5547  0.0294
  995TIP3    H224477   4.156   3.164   4.575 -0.3498 -0.3652  0.3158
  996TIP3   OH224478   3.296   5.705  10.584  0.5095  0.8646  0.2239
  996TIP3    H124479   3.220   5.762  10.569  1.1336  1.3786 -1.1911
  996TIP3    H224480   3.264   5.617  10.564 -0.2853  0.7790  1.7783
  997TIP3   OH224481   1.498   3.507  14.696 -0.3506  0.4524  0.2525
  997TIP3    H124482   1.412   3.466  14.685 -0.3147  0.5061 -0.2129
  997TIP3    H224483   1.553   3.436  14.732 -0.6462  0.4867  0.7936
  998TIP3   OH224484   2.680   6.766   4.406  0.1969  0.0465  0.1973
  998TIP3    H124485   2.745   6.750   4.475 -0.6351  0.0514  0.9958
  998TIP3    H224486   2.647   6.679   4.385  0.3485  0.0605 -0.1096
  999TIP3   OH224487   2.352   1.732  13.635  0.3573 -0.1620 -0.4883
  999TIP3    H124488   2.306   1.698  13.712  0.4513  2.1643  0.6910
  999TIP3    H224489   2.444   1.726  13.657  0.4391 -0.6408 -0.9506
 1000TIP3   OH224490   0.862   4.669  16.926  0.5850  0.0228  0.1614
 1000TIP3    H124491   0.873   4.626  17.011  0.5216 -0.7393 -0.2094
 1000TIP3    H224492   0.858   4.762  16.947  1.4809 -0.0899  0.9110
 1001TIP3   OH224493   6.834   5.503  16.405  0.7265 -0.2900  0.3788
 1001TIP3    H124494   6.800   5.438  16.466  1.0084 -0.0807  0.7647
 1001TIP3    H224495   6.927   5.511  16.427  1.1482 -1.1790 -0.9642
 1002TIP3   OH224496   1.520   6.255   0.556 -0.2480  0.6854  0.2213
 1002TIP3    H124497   1.555   6.187   0.613 -0.8475  1.5928  1.7533
 1002TIP3    H224498   1.592   6.318   0.546  0.2748 -0.0964 -1.1154
 1003TIP3   OH224499   4.156   1.564  16.243 -0.6520  0.0445 -0.1460
 1003TIP3    H124500   4.164   1.572  16.148  1.7560 -0.3236 -0.0439
 1003TIP3    H224501   4.124   1.650  16.272  0.7213  0.9367 -1.1427
 1004TIP3   OH224502   1.628   2.082   5.612  0.5855  0.2595  0.6683
 1004TIP3    H124503   1.720   2.093   5.635  1.1772 -0.5685 -1.1102
 1004TIP3    H224504   1.602   2.169   5.579  1.7105 -0.2312 -1.7999
 1005TIP3   OH224505   1.331   0.047   0.766 -0.2667  0.4825 -0.0972
 1005TIP3    H124506   1.277   0.047   0.687 -1.1594 -0.0614  0.5012
 1005TIP3    H224507   1.402  -0.013   0.746 -0.3120  0.5867 -0.5998
 1006TIP3   OH224508   6.400   6.639   5.427  0.2119  0.4004 -0.2796
 1006TIP3    H124509   6.469   6.634   5.361 -0.2178  0.4264 -0.7393
 1006TIP3    H224510   6.371   6.730   5.424  1.1657  0.7768  0.9681
 1007TIP3   OH224511   1.219   0.112   3.521  0.1377  0.5345 -0.0855
 1007TIP3    H124512   1.216   0.168   3.443  0.1837 -0.2120 -0.6353
 1007TIP3    H224513   1.311   0.089   3.532  0.1411  0.6952  0.2301
 1008TIP3   OH224514   4.173   5.959   2.642 -0.4361  0.2998  0.4013
 1008TIP3    H124515   4.166   5.939   2.735 -0.9764 -0.6745  0.1683
 1008TIP3    H224516   4.267   5.960   2.624 -0.3488 -0.1070  0.8316
 1009TIP3   OH224517   1.780   4.340  16.887  0.7822 -0.7185 -0.0450
 1009TIP3    H124518   1.694   4.303  16.909  0.6799 -0.5918 -0.2252
 1009TIP3    H224519   1.782   4.340  16.791  1.4511 -1.7989 -0.0472
 1010TIP3   OH224520   0.329   6.458   6.392  0.2379  0.2322 -0.6087
 1010TIP3    H124521   0.405   6.510   6.366 -0.6056  1.0613 -1.4636
 1010TIP3    H224522   0.254   6.502   6.353 -0.4352 -2.2418 -2.3843
 1011TIP3   OH224523   4.879   4.267  15.549  0.1910 -0.6731  0.2758
 1011TIP3    H124524   4.888   4.293  15.457  0.4528 -0.2201  0.4264
 1011TIP3    H224525   4.918   4.179  15.553 -0.8467 -1.1718 -0.2725
 1012TIP3   OH224526   1.247   5.292   0.054 -1.0979  0.2117 -0.2618
 1012TIP3    H124527   1.213   5.360   0.111 -0.8820 -0.4227  0.6404
 1012TIP3    H224528   1.342   5.297   0.063 -0.9767  1.0495 -1.6920
 1013TIP3   OH224529   4.061   3.621   2.736  0.6939  0.3842  0.1176
 1013TIP3    H124530   4.130   3.687   2.747 -0.2898  1.4011  0.4148
 1013TIP3    H224531   4.088   3.548   2.791  1.4544  0.8232  0.3392
 1014TIP3   OH224532   3.941   6.045   4.300 -0.4079 -0.0227  0.7781
 1014TIP3    H124533   3.962   5.953   4.319 -2.0270 -0.0420  2.7468
 1014TIP3    H224534   3.984   6.094   4.371  1.2226  0.9062 -0.7537
 1015TIP3   OH224535   2.354   2.312   2.477 -0.7232  0.5732 -0.1507
 1015TIP3    H124536   2.435   2.334   2.430  0.4403 -1.7762  0.5879
 1015TIP3    H224537   2.312   2.245   2.422 -1.8321  1.2603 -0.1689
 1016TIP3   OH224538   2.019   4.512  12.374  0.1052  0.4813 -0.2621
 1016TIP3    H124539   2.106   4.472  12.382  0.2649  1.1077  1.3169
 1016TIP3    H224540   2.035   4.606  12.375 -0.6246  0.6113  0.6031
 1017TIP3   OH224541   4.983   5.674   0.239 -0.2891 -0.0208  0.4573
 1017TIP3    H124542   4.946   5.639   0.321  0.0252 -3.1948 -0.6011
 1017TIP3    H224543   4.980   5.600   0.178  3.8487  0.7280 -0.9744
 1018TIP3   OH224544   2.842   1.122   5.455 -0.4145  0.0994 -0.6857
 1018TIP3    H124545   2.832   1.093   5.545  0.9585  0.4001 -0.4063
 1018TIP3    H224546   2.875   1.045   5.408 -1.7563 -0.2459 -1.0876
 1019TIP3   OH224547   5.271   3.676   3.664  0.1446 -0.0737  0.6432
 1019TIP3    H124548   5.355   3.633   3.644  0.2211  0.0544  0.6878
 1019TIP3    H224549   5.212   3.605   3.688 -0.7473 -0.6074 -2.6166
 1020TIP3   OH224550   2.597   3.737   0.284  0.0509 -0.2268  0.7374
 1020TIP3    H124551   2.647   3.716   0.205  1.0615  0.1548  1.2556
 1020TIP3    H224552   2.510   3.760   0.253  0.3949 -0.2296 -0.2485
 1021TIP3   OH224553   4.758   3.630  14.731  0.1092  0.2497 -0.1465
 1021TIP3    H124554   4.673   3.658  14.765 -0.4336 -4.1864  2.9753
 1021TIP3    H224555   4.817   3.702  14.752 -1.9784  1.4019  2.2991
 1022TIP3   OH224556   0.744   1.985   4.129 -0.5542  0.5895  0.8087
 1022TIP3    H124557   0.738   2.021   4.217 -1.7925  2.0284  0.1651
 1022TIP3    H224558   0.814   1.920   4.135 -1.2258 -0.0238  3.0724
 1023TIP3   OH224559   2.802   2.462   1.287 -0.6040 -0.3897  0.1450
 1023TIP3    H124560   2.824   2.550   1.317  1.4722 -0.1228 -1.9308
 1023TIP3    H224561   2.707   2.465   1.271 -0.6890  1.2280  0.7626
 1024TIP3   OH224562   4.226   6.808   5.866  0.2333  0.2726 -0.2201
 1024TIP3    H124563   4.318   6.789   5.884  0.7089  2.0632 -0.5347
 1024TIP3    H224564   4.216   6.900   5.889 -1.6586 -0.0575  0.4085
 1025TIP3   OH224565   0.457   5.180  12.058  0.3513  0.0105  0.1378
 1025TIP3    H124566   0.552   5.188  12.050  0.2868 -0.0068 -0.7307
 1025TIP3    H224567   0.432   5.119  11.989 -0.4531  1.1268 -0.5918
 1026TIP3   OH224568   3.698   2.432  15.471  0.5056 -0.0793  0.0952
 1026TIP3    H124569   3.785   2.470  15.482  0.8353 -1.1723  1.6367
 1026TIP3    H224570   3.637   2.503  15.494  0.9358  0.8457 -1.4817
 1027TIP3   OH224571   6.235   1.795  10.931  0.2740  0.0401 -0.3802
 1027TIP3    H124572   6.324   1.812  10.962  0.0093 -0.2356  0.5696
 1027TIP3    H224573   6.208   1.877  10.889  0.5381  0.5335  0.3993
 1028TIP3   OH224574   2.784   0.283   5.170 -0.2179  0.3658  0.8294
 1028TIP3    H124575   2.845   0.211   5.187 -1.2307 -1.1911 -1.5446
 1028TIP3    H224576   2.834   0.346   5.120 -0.3312 -0.5967 -0.5432
 1029TIP3   OH224577   5.793   6.241  12.047 -0.3138  0.7187  0.0634
 1029TIP3    H124578   5.777   6.314  11.988 -0.8862 -1.1707 -2.2721
 1029TIP3    H224579   5.763   6.272  12.133 -2.1744  2.6088 -1.1762
 1030TIP3   OH224580   5.897   2.325   1.548  0.1175  0.4293  0.0102
 1030TIP3    H124581   5.886   2.262   1.619  0.0160  0.6805  0.2208
 1030TIP3    H224582   5.941   2.400   1.589  2.1168 -0.3073 -0.6833
 1031TIP3   OH224583   1.738   4.040  14.016 -0.3599  0.0764 -0.1337
 1031TIP3    H124584   1.796   4.047  14.092 -0.7725  1.6625  0.0583
 1031TIP3    H224585   1.715   3.947  14.013 -1.4417  0.1612  2.5219
 1032TIP3   OH224586   4.311   3.729   3.550 -0.0341 -0.2208  0.4882
 1032TIP3    H124587   4.285   3.665   3.616 -0.1240  1.4587  2.1746
 1032TIP3    H224588   4.407   3.732   3.556 -0.0862  0.6017  1.2811
 1033TIP3   OH224589   2.271   0.560  11.175  0.5879  0.2555  0.2559
 1033TIP3    H124590   2.323   0.492  11.131  1.3649  1.5948 -1.0001
 1033TIP3    H224591   2.186   0.558  11.131 -0.0326 -1.1113  1.4728
 1034TIP3   OH224592   0.120   3.566   4.985  0.1397 -0.4615  0.3831
 1034TIP3    H124593   0.051   3.553   4.919 -0.3617  1.5203  0.4524
 1034TIP3    H224594   0.109   3.492   5.045 -1.8256 -0.3379  0.2658
 1035TIP3   OH224595   0.935   4.345  14.560  0.3576 -0.2481 -0.3407
 1035TIP3    H124596   1.007   4.321  14.619  0.4778 -0.0678 -0.4124
 1035TIP3    H224597   0.857   4.309  14.602  0.5903 -1.1702 -0.6897
 1036TIP3   OH224598   2.019   0.473  15.036  0.2947 -0.4355  0.7769
 1036TIP3    H124599   1.941   0.499  15.084 -1.3007 -1.3793 -1.1722
 1036TIP3    H224600   2.042   0.550  14.984 -0.4488 -0.7445 -0.0188
 1037TIP3   OH224601   3.081   3.267  13.764 -0.0948  0.0371  0.2957
 1037TIP3    H124602   3.070   3.340  13.826  0.1215  1.4808 -1.3109
 1037TIP3    H224603   3.002   3.270  13.710  1.0207  0.6407 -1.3405
 1038TIP3   OH224604   4.778   4.310   4.669 -0.1432 -0.0025  0.0550
 1038TIP3    H124605   4.732   4.299   4.586  2.5236  0.9514 -1.6608
 1038TIP3    H224606   4.807   4.401   4.670  0.7168 -0.2431  1.5921
 1039TIP3   OH224607   2.272   3.297   5.152 -0.3749  0.0867  0.5160
 1039TIP3    H124608   2.303   3.294   5.062  0.5247 -3.4303  0.8141
 1039TIP3    H224609   2.178   3.279   5.146 -0.4012  0.3091  0.2651
 1040TIP3   OH224610   1.418   6.799  13.802  0.7555  0.1709  0.0259
 1040TIP3    H124611   1.365   6.873  13.832  3.0794  1.8746  0.1507
 1040TIP3    H224612   1.397   6.791  13.709  2.1160  2.5593 -0.5750
 1041TIP3   OH224613   6.402   2.606   1.254  0.1835  0.5718 -0.3928
 1041TIP3    H124614   6.417   2.567   1.168 -0.7821  0.3075 -0.4456
 1041TIP3    H224615   6.328   2.665   1.242  0.8158  1.4585 -0.0123
 1042TIP3   OH224616   0.632   1.430  15.398  0.4595  0.1628 -0.2652
 1042TIP3    H124617   0.655   1.371  15.326  0.1631 -2.1520  1.4012
 1042TIP3    H224618   0.709   1.429  15.455  0.4278  1.3951 -0.1909
 1043TIP3   OH224619   1.326   2.419  14.658  0.5297 -0.5254  0.2306
 1043TIP3    H124620   1.234   2.398  14.641 -0.0869 -0.4346  2.9850
 1043TIP3    H224621   1.347   2.370  14.738  2.0699  1.4444  1.1278
 1044TIP3   OH224622   6.331   2.184  16.714 -0.1625 -0.8497  0.2702
 1044TIP3    H124623   6.298   2.165  16.803 -0.1262 -1.7040  0.1155
 1044TIP3    H224624   6.401   2.120  16.701  0.7069  0.1191  0.1051
 1045TIP3   OH224625   2.663   2.496   4.777 -0.7927 -0.9657 -0.2561
 1045TIP3    H124626   2.583   2.450   4.752  0.1970 -1.8824 -1.9327
 1045TIP3    H224627   2.652   2.584   4.742 -2.3642 -0.0157  2.3023
 1046TIP3   OH224628   0.038   6.646  14.931  0.0704 -0.0824  0.0385
 1046TIP3    H124629   0.041   6.689  14.845  0.2816 -0.3329 -0.0789
 1046TIP3    H224630  -0.004   6.562  14.915  1.1425 -0.6283 -0.0399
 1047TIP3   OH224631   5.906   6.731   2.761 -0.4538  0.0352 -0.3836
 1047TIP3    H124632   6.001   6.727   2.752 -0.5302 -1.1211 -0.9513
 1047TIP3    H224633   5.882   6.818   2.729  0.6965  1.8639  3.1528
 1048TIP3   OH224634   4.802   6.227  13.295 -0.3688  0.0571 -0.2220
 1048TIP3    H124635   4.726   6.214  13.238 -0.9843 -0.7327  0.7576
 1048TIP3    H224636   4.826   6.140  13.325 -0.5478  0.5114  1.3535
 1049TIP3   OH224637   0.818   2.431   1.722  0.1272 -0.0782 -0.4777
 1049TIP3    H124638   0.775   2.396   1.801 -0.4057 -0.8804 -1.1129
 1049TIP3    H224639   0.908   2.447   1.750  0.5652 -2.4798 -0.2626
 1050TIP3   OH224640   2.140   6.382   1.324  0.0450 -0.4150  0.6386
 1050TIP3    H124641   2.070   6.440   1.353  0.8480  0.3404  1.1357
 1050TIP3    H224642   2.097   6.318   1.268 -0.8202  0.9263 -0.2977
 1051TIP3   OH224643   5.416   2.910  16.164  0.9430 -0.0109 -0.3526
 1051TIP3    H124644   5.322   2.892  16.157  0.7633  0.2594  1.0403
 1051TIP3    H224645   5.425   3.001  16.135  0.4416  0.6277  1.3470
 1052TIP3   OH224646   1.372   1.780   2.845 -0.1717 -0.6040 -0.2268
 1052TIP3    H124647   1.455   1.783   2.798 -0.7506  2.0653 -1.2619
 1052TIP3    H224648   1.390   1.822   2.929 -0.3821 -0.3790 -0.2943
 1053TIP3   OH224649   4.671   3.994   0.886  0.1650 -0.9357  0.1954
 1053TIP3    H124650   4.652   3.936   0.812  1.2628 -0.1992 -0.7018
 1053TIP3    H224651   4.685   4.080   0.845 -0.0295 -0.3331  1.3557
 1054TIP3   OH224652   6.730   2.651   5.490  0.0479  0.0710 -0.3624
 1054TIP3    H124653   6.731   2.582   5.424  1.9836 -0.3684  0.0560
 1054TIP3    H224654   6.655   2.629   5.546  0.0743 -1.1601 -0.7802
 1055TIP3   OH224655   2.159   5.552  12.379  0.2314  0.1596  0.0989
 1055TIP3    H124656   2.205   5.527  12.298 -1.3407 -1.5696 -0.3204
 1055TIP3    H224657   2.138   5.644  12.367  0.2629  0.0004 -1.3507
 1056TIP3   OH224658   0.035   6.111   2.147  0.6274 -0.1757  0.6581
 1056TIP3    H124659  -0.047   6.161   2.151  0.2799 -0.7149  0.3916
 1056TIP3    H224660   0.010   6.027   2.110  1.2992 -0.3646  0.6185
 1057TIP3   OH224661   3.727   0.434   3.135 -0.3923 -0.5354  0.3436
 1057TIP3    H124662   3.764   0.462   3.051 -2.3889 -1.5899 -0.9416
 1057TIP3    H224663   3.759   0.345   3.147  2.6253  0.6451  2.4565
 1058TIP3   OH224664   0.217   4.810  14.016 -0.3467  0.0454  0.4325
 1058TIP3    H124665   0.121   4.811  14.005 -0.3728 -0.5656  0.5509
 1058TIP3    H224666   0.246   4.894  13.982 -0.6185 -0.9858 -2.6304
 1059TIP3   OH224667   3.724   2.985  12.298 -0.1315 -0.1867 -0.3427
 1059TIP3    H124668   3.657   2.949  12.240  0.4148 -0.2521 -0.9308
 1059TIP3    H224669   3.758   2.909  12.345 -1.2800 -0.0156  0.8256
 1060TIP3   OH224670   3.496   5.732  13.057  0.1151 -0.4969  0.3652
 1060TIP3    H124671   3.577   5.712  13.011 -0.0161 -1.8327  0.6967
 1060TIP3    H224672   3.521   5.798  13.122  0.9303 -0.9081  0.4674
 1061TIP3   OH224673   3.696   0.844   1.947  0.2870  0.2269 -0.6047
 1061TIP3    H124674   3.622   0.816   1.893  0.7098 -0.6262 -0.7567
 1061TIP3    H224675   3.697   0.783   2.021 -0.6799  1.7597  0.7655
 1062TIP3   OH224676   4.314   4.690  14.409  0.1267  0.5089 -0.5175
 1062TIP3    H124677   4.364   4.745  14.469  0.7020 -1.0874  0.5574
 1062TIP3    H224678   4.379   4.653  14.350 -0.3621  1.6017 -1.7730
 1063TIP3   OH224679   3.930   2.324   5.100  0.0820  0.7276 -0.1026
 1063TIP3    H124680   4.023   2.321   5.123 -0.0321  0.4312  0.3288
 1063TIP3    H224681   3.929   2.318   5.005  0.5434  1.5315 -0.1699
 1064TIP3   OH224682   5.823   4.292  12.339  0.3633  0.6202 -0.5541
 1064TIP3    H124683   5.896   4.240  12.303 -0.0194  0.6142 -1.3376
 1064TIP3    H224684   5.862   4.340  12.412  1.3274  1.1241 -1.3737
 1065TIP3   OH224685   3.344   1.800  14.122 -0.1040  0.2357 -0.2368
 1065TIP3    H124686   3.296   1.718  14.111  1.6556 -0.7864 -0.6030
 1065TIP3    H224687   3.365   1.828  14.033  2.2696 -0.7771 -0.0482
 1066TIP3   OH224688   1.656   5.674  14.299  0.0898  0.2462  0.6990
 1066TIP3    H124689   1.721   5.625  14.247 -2.0924 -0.9117 -1.1230
 1066TIP3    H224690   1.684   5.662  14.389  1.6750 -1.3266  0.0630
 1067TIP3   OH224691   1.180   0.901   5.813  0.1214  0.5165  0.0263
 1067TIP3    H124692   1.089   0.911   5.841 -0.1242  1.0720 -0.9198
 1067TIP3    H224693   1.174   0.871   5.723  0.8831 -1.9598  0.7269
 1068TIP3   OH224694   2.233   1.510   4.977 -0.4130  0.3451 -0.0302
 1068TIP3    H124695   2.228   1.584   5.038 -3.2630  0.5204 -0.3645
 1068TIP3    H224696   2.271   1.439   5.030  0.5069  1.4677  0.8744
 1069TIP3   OH224697   4.559   6.293  16.964 -0.6171 -0.4760 -0.0870
 1069TIP3    H124698   4.477   6.272  17.009 -0.9881  2.6692  0.9352
 1069TIP3    H224699   4.550   6.385  16.939  2.2800 -0.2603 -0.6699
 1070TIP3   OH224700   1.556   3.720  15.370 -0.2937 -0.1180  0.4751
 1070TIP3    H124701   1.566   3.641  15.423  0.4202 -0.2519  0.1538
 1070TIP3    H224702   1.646   3.747  15.350 -0.4678  1.4420  1.5645
 1071TIP3   OH224703   5.376   5.203  15.657  0.1978  0.2524 -0.1270
 1071TIP3    H124704   5.421   5.123  15.683  0.8708  0.8275  0.5425
 1071TIP3    H224705   5.428   5.238  15.585 -0.2766 -0.0693 -0.6324
 1072TIP3   OH224706   3.722   4.702  12.817 -0.7411  0.4254 -0.6238
 1072TIP3    H124707   3.807   4.719  12.858 -0.1970  0.3208 -1.6641
 1072TIP3    H224708   3.692   4.620  12.856  0.2320 -0.2008 -1.1373
 1073TIP3   OH224709   2.260   3.910  14.638  0.5079 -0.4628 -0.3699
 1073TIP3    H124710   2.238   3.972  14.708  0.6719 -0.8528  0.0311
 1073TIP3    H224711   2.303   3.838  14.683 -0.0977 -1.0889 -0.7769
 1074TIP3   OH224712   2.915   0.602   2.067  0.3214  0.3803 -0.6343
 1074TIP3    H124713   2.959   0.662   2.127  0.9653 -0.9586  0.2830
 1074TIP3    H224714   2.919   0.517   2.112  0.4600 -0.5788 -2.3957
 1075TIP3   OH224715   2.634   3.146  12.889 -0.7034  0.3980  0.3755
 1075TIP3    H124716   2.612   3.095  12.967  1.0864  0.1804  0.7978
 1075TIP3    H224717   2.730   3.150  12.890 -0.6442  0.4922 -1.7585
 1076TIP3   OH224718   2.759   2.115  12.761  0.7418 -0.0188  0.5595
 1076TIP3    H124719   2.822   2.102  12.691 -1.6139  0.1560 -1.7567
 1076TIP3    H224720   2.719   2.029  12.774 -0.9129  0.5313 -0.5358
 1077TIP3   OH224721   0.657   0.695  12.945 -0.5658 -0.1645  0.8136
 1077TIP3    H124722   0.751   0.683  12.963 -0.4199  0.0178  0.2160
 1077TIP3    H224723   0.655   0.760  12.875 -1.2677  2.1470  2.8468
 1078TIP3   OH224724   3.216   3.512   2.897  0.1395 -0.4866  0.0016
 1078TIP3    H124725   3.223   3.568   2.975  1.4894 -0.7362  0.0760
 1078TIP3    H224726   3.226   3.573   2.823 -0.5938 -0.3284  0.0263
 1079TIP3   OH224727   4.860   2.483  12.121  0.2641  0.3258 -0.1260
 1079TIP3    H124728   4.858   2.568  12.166 -1.3419 -0.2750  1.0266
 1079TIP3    H224729   4.942   2.443  12.149  0.4377  0.9740  0.3193
 1080TIP3   OH224730   5.383   1.283  15.772 -0.3043 -0.2944  0.0015
 1080TIP3    H124731   5.383   1.209  15.833 -0.3307  0.3098  0.7454
 1080TIP3    H224732   5.332   1.252  15.697  0.9249 -1.5470 -0.3625
 1081TIP3   OH224733   1.979   0.420   0.773  0.1537  0.1959 -0.6933
 1081TIP3    H124734   1.889   0.398   0.795 -0.4762  0.8537 -2.4351
 1081TIP3    H224735   1.998   0.500   0.822  0.0925 -0.3948  0.3120
 1082TIP3   OH224736   3.064   6.289  13.813 -0.3688  0.0922 -0.0703
 1082TIP3    H124737   3.029   6.378  13.816 -0.5027  0.0745 -0.8181
 1082TIP3    H224738   3.159   6.300  13.821 -0.5559  0.0214  3.8991
 1083TIP3   OH224739   2.345   3.214  15.013  0.6043 -0.0461 -0.3282
 1083TIP3    H124740   2.347   3.236  14.919 -1.2899  1.3600 -0.1006
 1083TIP3    H224741   2.301   3.129  15.016  1.3199 -0.4425 -0.7489
 1084TIP3   OH224742   2.420   0.157  11.473  0.2158  0.4230  0.2722
 1084TIP3    H124743   2.347   0.118  11.424  1.3256 -1.6616  0.1748
 1084TIP3    H224744   2.450   0.229  11.418  0.0122 -0.4704 -1.0450
 1085TIP3   OH224745   6.278   4.026  16.921 -0.0581 -0.5117  0.2062
 1085TIP3    H124746   6.331   4.020  16.842 -0.7127  0.0668 -0.2861
 1085TIP3    H224747   6.339   4.052  16.990  0.3989 -0.4329 -0.2276
 1086TIP3   OH224748   0.617   2.595  15.217  0.2279 -0.5316  0.8816
 1086TIP3    H124749   0.547   2.531  15.209 -0.5926  0.3735  0.6667
 1086TIP3    H224750   0.635   2.623  15.127  0.4642 -0.3463  0.9842
 1087TIP3   OH224751   5.771   6.783   1.929 -0.1018 -0.0572 -0.1652
 1087TIP3    H124752   5.761   6.737   2.012 -1.5086  0.2230 -0.1551
 1087TIP3    H224753   5.856   6.754   1.896 -1.0074 -2.8891 -0.2862
 1088TIP3   OH224754   4.385   5.633   3.277  0.0280  0.1716 -0.1569
 1088TIP3    H124755   4.421   5.719   3.256 -1.7843  1.4519  1.6181
 1088TIP3    H224756   4.359   5.597   3.193 -3.9270  3.6289 -0.7139
 1089TIP3   OH224757   1.645   3.018  15.087  0.1606 -0.2533  0.2149
 1089TIP3    H124758   1.728   2.970  15.094  1.2098  1.4147 -0.1112
 1089TIP3    H224759   1.669   3.110  15.102 -1.8035  0.1704  1.0765
 1090TIP3   OH224760   0.024   2.203   1.643 -0.7150 -0.0337  0.4702
 1090TIP3    H124761  -0.038   2.250   1.587 -0.9238  0.9863  1.5277
 1090TIP3    H224762  -0.030   2.163   1.711 -0.2010  1.4999  1.8493
 1091TIP3   OH224763   2.807   0.600  12.529  0.2664  0.0650  0.3405
 1091TIP3    H124764   2.730   0.654  12.546 -0.0684  0.0066 -0.9069
 1091TIP3    H224765   2.879   0.663  12.525  0.2669  0.1435  1.2745
 1092TIP3   OH224766   2.445   3.087   2.682  0.1985 -0.1814 -0.9653
 1092TIP3    H124767   2.481   3.000   2.670 -0.3853 -0.8580  1.5284
 1092TIP3    H224768   2.517   3.138   2.718 -0.2844 -0.5368  0.5640
 1093TIP3   OH224769   6.161   4.784   3.299 -0.4024  0.2369 -0.7287
 1093TIP3    H124770   6.079   4.809   3.256 -1.2482  0.4383  0.9357
 1093TIP3    H224771   6.148   4.691   3.322 -0.1481  0.2548 -0.5129
 1094TIP3   OH224772   6.182   5.670  11.819 -0.1333  0.2384 -0.2096
 1094TIP3    H124773   6.152   5.615  11.746  0.5100 -1.2094  0.5677
 1094TIP3    H224774   6.126   5.747  11.816 -1.5059 -0.7418 -0.9797
 1095TIP3   OH224775   4.523   3.633   5.104  0.3649 -0.1000  0.0778
 1095TIP3    H124776   4.560   3.571   5.042  0.4048 -0.9928  0.9585
 1095TIP3    H224777   4.577   3.712   5.096  1.2354 -0.6956 -0.0276
 1096TIP3   OH224778   0.757   6.323  12.751  0.0903  0.1196  0.5293
 1096TIP3    H124779   0.700   6.393  12.784 -0.2459 -0.5446  1.3939
 1096TIP3    H224780   0.767   6.343  12.658  0.4907  1.6471  0.8759
 1097TIP3   OH224781   5.454   5.610   0.951  0.4884 -0.5216 -0.6268
 1097TIP3    H124782   5.526   5.663   0.920  0.5295 -0.0884  0.1857
 1097TIP3    H224783   5.482   5.520   0.935  0.3417 -0.3163 -2.1661
 1098TIP3   OH224784   1.770   6.751  15.482 -0.2389  0.2913 -0.0532
 1098TIP3    H124785   1.828   6.810  15.435  0.8599  1.4303  2.5241
 1098TIP3    H224786   1.822   6.671  15.496 -0.3378  0.1962 -0.2268
 1099TIP3   OH224787   4.895   5.572   0.472  0.4024 -0.7151  0.4010
 1099TIP3    H124788   4.799   5.574   0.480  0.3015 -0.4733 -0.7262
 1099TIP3    H224789   4.926   5.614   0.552 -0.5249  1.4563 -0.2837
 1100TIP3   OH224790   4.813   4.738  14.148 -0.0808 -0.2379  0.2244
 1100TIP3    H124791   4.833   4.645  14.151  1.2333  0.0473  1.5572
 1100TIP3    H224792   4.732   4.747  14.197  1.1765 -0.3990  2.4363
 1101TIP3   OH224793   4.649   5.432  16.883  0.1185 -1.0309  0.2381
 1101TIP3    H124794   4.732   5.426  16.929  0.4171 -2.4381 -0.4151
 1101TIP3    H224795   4.596   5.491  16.937  1.5495 -0.0236  0.6069
 1102TIP3   OH224796   5.229   2.723  16.660  0.4087 -0.0781  0.3745
 1102TIP3    H124797   5.242   2.817  16.671  1.7798  0.0068 -1.5189
 1102TIP3    H224798   5.135   2.710  16.677  0.4022  1.4057  1.7785
 1103TIP3   OH224799   3.985   6.715  13.273  0.6599 -0.2997  0.6575
 1103TIP3    H124800   4.074   6.683  13.260  0.5741 -0.3574  0.2191
 1103TIP3    H224801   3.938   6.641  13.313  1.2086  0.2454  2.4223
 1104TIP3   OH224802   6.720   0.535   3.620 -0.1060  0.0276  0.9863
 1104TIP3    H124803   6.803   0.499   3.589 -0.6110 -0.6035  0.3647
 1104TIP3    H224804   6.732   0.543   3.715  0.9582  0.7203  0.8113
 1105TIP3   OH224805   1.461   1.115   2.463 -0.0795 -0.3200 -0.5612
 1105TIP3    H124806   1.466   1.067   2.381 -0.5724 -1.2385 -0.0758
 1105TIP3    H224807   1.415   1.197   2.441  0.1934 -0.3580 -1.2764
 1106TIP3   OH224808   1.849   3.011  15.651  0.1368  0.2858 -0.1810
 1106TIP3    H124809   1.893   2.952  15.712 -1.8813 -0.2271  0.8918
 1106TIP3    H224810   1.787   3.060  15.706 -1.0623  0.4970 -1.6543
 1107TIP3   OH224811   6.459   3.678   0.539 -0.3450 -0.3954 -0.1429
 1107TIP3    H124812   6.513   3.749   0.574  0.5721 -1.2845  0.3004
 1107TIP3    H224813   6.520   3.605   0.527 -1.2321 -1.0611 -0.7634
 1108TIP3   OH224814   1.104   4.253  14.814  0.0178  0.4454 -0.1272
 1108TIP3    H124815   1.142   4.205  14.740  0.0665  0.4861 -0.1293
 1108TIP3    H224816   1.135   4.207  14.891  0.1031  0.5018 -0.1276
 1109TIP3   OH224817   2.672   3.185  11.818  0.3927 -0.0894  0.2446
 1109TIP3    H124818   2.580   3.182  11.790  0.6795 -1.9277 -0.6758
 1109TIP3    H224819   2.679   3.116  11.883  1.3918 -0.8512 -0.6454
 1110TIP3   OH224820   4.979   2.740   3.378  0.0842  0.1340 -0.0616
 1110TIP3    H124821   5.072   2.758   3.361  0.5208 -2.7314 -1.2851
 1110TIP3    H224822   4.969   2.756   3.472  2.3148 -1.1525  0.4893
 1111TIP3   OH224823   0.619   5.152  16.981  0.1162 -0.6164  0.0240
 1111TIP3    H124824   0.699   5.159  17.031  0.6241  0.0507 -0.8465
 1111TIP3    H224825   0.595   5.242  16.960 -0.5978 -0.8301 -0.1229
 1112TIP3   OH224826   6.297   5.126   3.906 -0.7587 -0.9249 -0.0394
 1112TIP3    H124827   6.360   5.085   3.965 -0.4520  0.2797  0.4880
 1112TIP3    H224828   6.326   5.217   3.899 -2.3745 -0.3747  0.1330
 1113TIP3   OH224829   4.999   2.112  11.368  0.1230  0.6228 -0.0753
 1113TIP3    H124830   4.991   2.039  11.430 -0.9293  0.1942 -0.6937
 1113TIP3    H224831   4.960   2.186  11.414 -0.5954  0.3208 -0.1739
 1114TIP3   OH224832   1.728   2.503   0.108  0.6356  0.0899  0.2443
 1114TIP3    H124833   1.671   2.579   0.096  0.9324  0.4466  1.0482
 1114TIP3    H224834   1.685   2.452   0.177  1.0616  0.1363  0.5452
 1115TIP3   OH224835   3.992   1.925  13.778 -0.3166 -0.2483  0.1406
 1115TIP3    H124836   3.971   1.990  13.711  0.1173 -1.0547 -0.8138
 1115TIP3    H224837   4.017   1.847  13.728  0.2599 -0.7972  1.2524
 1116TIP3   OH224838   3.458   2.571   6.377  0.1650 -0.2192 -0.7134
 1116TIP3    H124839   3.434   2.555   6.285 -0.9351  2.2138 -0.9475
 1116TIP3    H224840   3.513   2.649   6.373 -0.3890  0.2684  0.7324
 1117TIP3   OH224841   5.839   2.222   2.692  0.1543 -0.5366 -0.0929
 1117TIP3    H124842   5.861   2.216   2.785  0.0803  0.2593 -0.0125
 1117TIP3    H224843   5.747   2.196   2.687  0.4328 -1.5518 -0.0909
 1118TIP3   OH224844   2.885   6.025  15.803  0.0073 -0.3391  0.5955
 1118TIP3    H124845   2.972   5.985  15.806  0.2140 -0.2771 -2.4134
 1118TIP3    H224846   2.825   5.951  15.799 -0.0621 -0.3599  1.6016
 1119TIP3   OH224847   2.757   1.005   0.967  0.2981  0.1538  0.2914
 1119TIP3    H124848   2.808   0.995   1.047 -0.2330  0.1218  0.6311
 1119TIP3    H224849   2.757   1.099   0.950  1.3897  0.0508 -0.3235
 1120TIP3   OH224850   4.390   4.035   3.513  0.5681  0.1842 -0.0667
 1120TIP3    H124851   4.399   3.992   3.428 -0.6071  1.7211 -1.0374
 1120TIP3    H224852   4.373   3.964   3.575  3.2538 -1.1778 -0.7189
 1121TIP3   OH224853   0.769   2.359  14.707 -0.0879  0.1630 -0.4702
 1121TIP3    H124854   0.748   2.354  14.614  1.4184 -2.8013 -0.7579
 1121TIP3    H224855   0.692   2.322  14.751  0.2463 -0.9581 -0.7833
 1122TIP3   OH224856   0.070   4.414   1.447 -0.3846  0.0858 -0.7743
 1122TIP3    H124857   0.100   4.502   1.424 -0.6265  0.2759 -0.3744
 1122TIP3    H224858  -0.025   4.417   1.439 -0.3657 -0.2680 -1.1819
 1123TIP3   OH224859   2.108   5.478  11.495 -0.0099 -0.1801 -0.6164
 1123TIP3    H124860   2.043   5.435  11.440  0.4800  0.7588 -1.9737
 1123TIP3    H224861   2.096   5.438  11.581 -0.9843 -1.4905 -1.3216
 1124TIP3   OH224862   1.050   3.224   0.084 -0.2470 -0.4633 -0.5091
 1124TIP3    H124863   1.140   3.197   0.106 -0.2460 -0.8359 -0.9458
 1124TIP3    H224864   0.996   3.149   0.108 -0.5693  0.1378  0.6758
 1125TIP3   OH224865   2.934   5.901  15.102  0.1902  0.2441  0.4063
 1125TIP3    H124866   2.912   5.985  15.061  0.7156  0.0634 -0.2691
 1125TIP3    H224867   2.951   5.923  15.194 -1.6127  0.5588  0.6890
 1126TIP3   OH224868   0.862   6.425  14.360  0.3364 -0.0712 -0.2090
 1126TIP3    H124869   0.934   6.395  14.415 -0.4179 -1.0969  0.2269
 1126TIP3    H224870   0.896   6.505  14.319  0.6048  1.2494  2.4069
 1127TIP3   OH224871   5.053   0.465  12.269 -0.2428 -0.5468 -0.0691
 1127TIP3    H124872   5.147   0.459  12.284 -0.1291  2.3794  0.9894
 1127TIP3    H224873   5.014   0.437  12.351 -0.2854 -1.1983 -0.3087
 1128TIP3   OH224874   1.171   6.238  17.194 -0.5893 -0.4103  0.0915
 1128TIP3    H124875   1.232   6.301  17.157 -0.1170 -0.6188  0.5085
 1128TIP3    H224876   1.114   6.291  17.250  0.8241 -0.5342  1.7437
 1129TIP3   OH224877   1.792   6.462   2.933 -0.2960 -0.7827 -0.3087
 1129TIP3    H124878   1.832   6.546   2.908  1.0554 -1.2465  0.2260
 1129TIP3    H224879   1.848   6.428   3.002 -1.1567 -1.8744 -0.1238
 1130TIP3   OH224880   3.186   1.573   1.628 -0.0393 -0.0693 -0.2223
 1130TIP3    H124881   3.174   1.516   1.552 -1.2464  0.1101 -0.1850
 1130TIP3    H224882   3.138   1.530   1.698 -0.8280  0.9079 -0.1532
 1131TIP3   OH224883   2.589   2.562   3.026 -0.1401 -0.6154  0.1389
 1131TIP3    H124884   2.661   2.557   3.088  0.6995 -0.9739 -0.8346
 1131TIP3    H224885   2.558   2.652   3.032  0.7493 -0.3028  0.1814
 1132TIP3   OH224886   4.195   4.274  10.992  0.3720  0.0436 -0.3254
 1132TIP3    H124887   4.262   4.228  11.043  1.0289 -0.4181 -1.5686
 1132TIP3    H224888   4.240   4.301  10.912 -0.5712  0.9854 -0.5581
 1133TIP3   OH224889   5.249   3.177  11.382 -0.3479  0.5264 -0.1797
 1133TIP3    H124890   5.266   3.271  11.393  1.5097  0.2264 -0.1809
 1133TIP3    H224891   5.175   3.159  11.441 -1.8235  2.2700 -1.3761
 1134TIP3   OH224892   1.915   2.872   2.224  0.0484  0.0659  0.5996
 1134TIP3    H124893   1.955   2.785   2.224  2.5693  1.1058 -1.2183
 1134TIP3    H224894   1.852   2.870   2.151  1.6957  0.3389 -0.9006
 1135TIP3   OH224895   5.884   6.540  13.231  0.6372 -0.1639  0.0298
 1135TIP3    H124896   5.975   6.517  13.214  0.3635 -1.1097 -0.2655
 1135TIP3    H224897   5.867   6.617  13.176  1.2423 -0.0088  0.0592
 1136TIP3   OH224898   3.362   3.399   5.947  0.0389 -0.5226  0.6740
 1136TIP3    H124899   3.386   3.382   6.038  0.6278  1.3062  0.9100
 1136TIP3    H224900   3.444   3.428   5.906 -0.6461  0.7126  0.1183
 1137TIP3   OH224901   1.101   6.537   6.514 -0.0714  0.0931  0.4590
 1137TIP3    H124902   1.083   6.506   6.425 -2.3469  2.1759  0.0973
 1137TIP3    H224903   1.017   6.529   6.560  0.0955  2.4193  1.3022
 1138TIP3   OH224904   6.795   1.646  12.380  0.1706  0.1774  0.2182
 1138TIP3    H124905   6.737   1.700  12.328 -0.6611  0.1878  1.1150
 1138TIP3    H224906   6.820   1.701  12.454 -0.0673 -0.3919  0.7358
 1139TIP3   OH224907   2.187   2.275  13.897  0.6654 -0.5495 -0.0554
 1139TIP3    H124908   2.093   2.263  13.909  0.4651  0.6620 -0.3611
 1139TIP3    H224909   2.203   2.252  13.805 -0.2979  4.3930 -1.7196
 1140TIP3   OH224910   5.211   6.372  17.061  0.0669 -0.5866  0.0943
 1140TIP3    H124911   5.140   6.425  17.099  1.2876  0.4926  0.9817
 1140TIP3    H224912   5.232   6.309  17.129  0.3720 -0.4914  0.0881
 1141TIP3   OH224913   2.284   0.462   1.274  0.4914 -0.5404 -0.2811
 1141TIP3    H124914   2.331   0.393   1.321  1.0991 -0.1603 -0.3131
 1141TIP3    H224915   2.341   0.539   1.282 -0.4830  0.1343  0.3097
 1142TIP3   OH224916   0.114   4.192   2.448  0.4000  0.0264  0.1397
 1142TIP3    H124917   0.100   4.155   2.361  0.6508  2.9234 -1.2830
 1142TIP3    H224918   0.062   4.138   2.506  0.1588 -1.9835 -1.7999
 1143TIP3   OH224919   4.303   0.139  13.374  0.0752  0.3603 -0.3480
 1143TIP3    H124920   4.314   0.192  13.295 -1.3977  1.6989  0.3182
 1143TIP3    H224921   4.325   0.050  13.345  1.0823  1.0480 -1.8627
 1144TIP3   OH224922   6.392   0.299   5.115 -0.2983  0.1188 -0.1961
 1144TIP3    H124923   6.297   0.297   5.103 -0.2700  1.3418 -0.8583
 1144TIP3    H224924   6.428   0.277   5.029 -0.0366  2.1224 -0.6593
 1145TIP3   OH224925   2.356   4.034   5.961  0.8588 -0.1966  0.8124
 1145TIP3    H124926   2.363   3.992   5.876  0.1096  0.6300  0.3239
 1145TIP3    H224927   2.350   3.962   6.024  0.8299 -0.8038  0.1137
 1146TIP3   OH224928   1.540   2.426  15.672  0.2732 -0.6709  0.4044
 1146TIP3    H124929   1.462   2.464  15.633  0.8482  0.6628  0.5155
 1146TIP3    H224930   1.528   2.331  15.661  0.0419 -0.4046 -2.2949
 1147TIP3   OH224931   3.850   1.989  13.210 -0.2867  0.2567  0.2979
 1147TIP3    H124932   3.929   1.947  13.177 -0.8344 -0.9170  0.4205
 1147TIP3    H224933   3.792   1.916  13.234 -1.3918  1.0876  0.2412
 1148TIP3   OH224934   3.346   0.987  12.823  0.1763  0.4320 -0.4953
 1148TIP3    H124935   3.392   0.966  12.904  0.1183  2.7792  0.2317
 1148TIP3    H224936   3.293   0.910  12.804 -0.5787  0.1796  2.2619
 1149TIP3   OH224937   5.588   0.918  15.952 -0.0958  0.1117  0.2447
 1149TIP3    H124938   5.597   0.919  16.047  0.2579  1.5781  0.2256
 1149TIP3    H224939   5.651   0.983  15.922  0.0944 -0.6473 -1.0270
 1150TIP3   OH224940   2.528   4.522  15.760 -0.2975 -0.5725  0.2354
 1150TIP3    H124941   2.570   4.516  15.675  0.3100 -1.8351  0.6092
 1150TIP3    H224942   2.546   4.611  15.790  0.4624 -0.4909 -0.4489
 1151TIP3   OH224943   5.038   4.927   4.537 -0.4132  0.3563  0.1976
 1151TIP3    H124944   5.055   4.854   4.479  1.5358 -1.9158  3.3112
 1151TIP3    H224945   4.949   4.914   4.568 -0.3882 -0.1529  0.0521
 1152TIP3   OH224946   0.747   1.006   4.871  0.0366  0.1258  0.3920
 1152TIP3    H124947   0.732   1.064   4.946 -0.9005  1.7193 -0.9758
 1152TIP3    H224948   0.700   0.926   4.893 -3.3054  1.8135  0.0616
 1153TIP3   OH224949   6.830   0.923   2.069  0.0778  0.4785  0.6051
 1153TIP3    H124950   6.807   0.866   2.143 -0.5283 -0.4719 -0.2891
 1153TIP3    H224951   6.896   0.874   2.021 -0.0302  0.7836  0.1444
 1154TIP3   OH224952   3.882   4.489   2.546 -0.1685  0.0745 -0.1983
 1154TIP3    H124953   3.941   4.476   2.472  0.1235 -1.2848  0.2546
 1154TIP3    H224954   3.871   4.584   2.551 -0.0106  0.2126 -1.8342
 1155TIP3   OH224955   1.549   3.310   2.088 -0.0199 -0.2261 -0.2121
 1155TIP3    H124956   1.492   3.333   2.015  0.6560  0.4570 -0.5418
 1155TIP3    H224957   1.571   3.394   2.128  0.6916 -0.4869 -0.0458
 1156TIP3   OH224958   2.995   2.298  14.180 -0.3145 -0.0461 -0.4276
 1156TIP3    H124959   3.090   2.306  14.176 -0.1113 -1.0933  1.3886
 1156TIP3    H224960   2.964   2.388  14.177  0.8333  0.4097  0.6137
 1157TIP3   OH224961   1.792   5.577  11.613 -0.1983  0.4024  0.4079
 1157TIP3    H124962   1.778   5.583  11.707  1.4263  0.6489  0.6710
 1157TIP3    H224963   1.828   5.663  11.589 -1.1350  0.5492 -0.5574
 1158TIP3   OH224964   0.964   4.787   0.215 -0.0172 -0.0834 -0.3703
 1158TIP3    H124965   1.008   4.718   0.165  1.2170 -0.7656  1.5499
 1158TIP3    H224966   1.001   4.868   0.181 -0.8863 -0.3399 -2.0863
 1159TIP3   OH224967   1.928   4.702  11.204  0.1526 -0.3392  0.7666
 1159TIP3    H124968   1.879   4.776  11.240  1.6342 -0.0013  2.2011
 1159TIP3    H224969   1.926   4.716  11.109  0.4476  1.5902  1.0044
 1160TIP3   OH224970   4.922   6.094  13.659  0.4121  0.0066  0.4114
 1160TIP3    H124971   4.897   6.169  13.606  0.2383 -0.6715 -0.4949
 1160TIP3    H224972   4.845   6.037  13.658  0.7367 -0.4434  0.6155
 1161TIP3   OH224973   0.886   3.857  15.999  0.2224  0.2531  0.3602
 1161TIP3    H124974   0.807   3.836  16.048 -0.4128  0.5810 -0.4886
 1161TIP3    H224975   0.876   3.808  15.916 -0.0799  1.8684 -0.5960
 1162TIP3   OH224976   6.093   6.550   0.621 -0.1259  0.1521  0.6184
 1162TIP3    H124977   6.150   6.626   0.629 -0.7170  0.5501  1.1708
 1162TIP3    H224978   6.106   6.501   0.702 -1.0658  0.6121  1.0685
 1163TIP3   OH224979   0.408   4.904   4.354 -0.4242  0.0742 -0.1683
 1163TIP3    H124980   0.353   4.852   4.295 -1.0556  1.8408 -1.2073
 1163TIP3    H224981   0.498   4.889   4.323 -0.4683 -1.3114  0.3152
 1164TIP3   OH224982   4.999   2.776  12.752 -0.0924  0.6250  0.2195
 1164TIP3    H124983   4.927   2.813  12.700  1.2489  2.8639 -0.1923
 1164TIP3    H224984   5.059   2.850  12.765  0.6969 -0.4137  3.1359
 1165TIP3   OH224985   1.159   0.238   1.786  0.1801  0.4308  0.4236
 1165TIP3    H124986   1.103   0.314   1.803  0.8979  1.0258  0.2132
 1165TIP3    H224987   1.186   0.208   1.873  2.0531  2.0935  0.4903
 1166TIP3   OH224988   1.172   6.701  12.928 -0.3287  0.6244  0.3070
 1166TIP3    H124989   1.233   6.698  12.855 -0.1087  0.8269  0.4836
 1166TIP3    H224990   1.215   6.754  12.995 -2.0549  3.7137 -0.8274
 1167TIP3   OH224991   2.207   2.234   4.985  0.2013 -0.3658 -0.5171
 1167TIP3    H124992   2.160   2.279   5.056 -0.5711 -0.6127 -0.8608
 1167TIP3    H224993   2.154   2.250   4.908  0.1957 -1.4334 -0.7441
 1168TIP3   OH224994   5.803   5.360  12.971 -0.0321  0.0716  0.5707
 1168TIP3    H124995   5.881   5.326  13.013 -0.9162  0.4665  2.6537
 1168TIP3    H224996   5.818   5.454  12.964 -0.9549  0.4388  2.6310
 1169TIP3   OH224997   0.699   1.470   4.261 -0.1288  0.7104  0.0399
 1169TIP3    H124998   0.780   1.517   4.242  0.5325  0.1222  1.2804
 1169TIP3    H224999   0.696   1.401   4.195  0.3777  0.7315 -0.0115
 1170TIP3   OH225000   0.821   1.986   1.805 -0.3656 -0.2630 -0.0735
 1170TIP3    H125001   0.777   1.912   1.763 -0.6865 -1.0028  1.5059
 1170TIP3    H225002   0.754   2.028   1.858  0.0922  0.5045 -0.0685
 1171TIP3   OH225003   5.329   5.008  14.168 -0.7731  0.2514 -0.1793
 1171TIP3    H125004   5.260   4.957  14.126 -0.9022 -0.4103  0.8018
 1171TIP3    H225005   5.363   4.951  14.237  0.5278  0.6944 -0.4148
 1172TIP3   OH225006   0.154   5.622  17.144 -0.4951  0.3771  0.2987
 1172TIP3    H125007   0.244   5.642  17.119 -0.6539  0.8977  0.1393
 1172TIP3    H225008   0.140   5.668  17.226 -0.8798  0.9775 -0.0980
 1173TIP3   OH225009   4.719   5.460  11.294  0.2290 -0.0506 -0.0158
 1173TIP3    H125010   4.655   5.460  11.223  1.6540 -0.2560 -1.3391
 1173TIP3    H225011   4.725   5.368  11.320  2.3243 -0.6164 -2.1458
 1174TIP3   OH225012   4.931   2.001   4.219 -0.4391 -0.8439  0.1774
 1174TIP3    H125013   5.019   2.038   4.218 -0.7082 -0.2025 -0.9680
 1174TIP3    H225014   4.939   1.917   4.174 -0.4823 -0.5992 -0.2933
 1175TIP3   OH225015   6.271   2.348  10.547  0.4545 -0.0109 -0.0365
 1175TIP3    H125016   6.324   2.269  10.549 -1.0645 -1.0785  1.6835
 1175TIP3    H225017   6.181   2.316  10.546 -0.2685  1.5711  2.8649
 1176TIP3   OH225018   3.825   4.716   1.169  0.1944  0.0104 -0.4446
 1176TIP3    H125019   3.845   4.642   1.112 -0.7469 -1.2537  0.8134
 1176TIP3    H225020   3.762   4.682   1.232  1.0565  1.4243  1.2636
 1177TIP3   OH225021   1.848   2.104   4.507  0.4017 -0.0145 -0.3026
 1177TIP3    H125022   1.819   2.183   4.461 -0.8684  0.1045  0.6483
 1177TIP3    H225023   1.806   2.109   4.593 -1.7642 -2.8854 -1.0171
 1178TIP3   OH225024   5.850   3.459  10.544 -0.0430 -0.6597  0.2737
 1178TIP3    H125025   5.800   3.457  10.625 -0.9817  1.3085 -0.1873
 1178TIP3    H225026   5.908   3.383  10.549 -0.0157 -0.5556  2.8050
 1179TIP3   OH225027   0.065   2.153   2.938  0.8609  0.0528 -0.1917
 1179TIP3    H125028  -0.028   2.137   2.952  1.0060 -2.2247 -1.3790
 1179TIP3    H225029   0.076   2.247   2.953 -1.5776  0.3322  0.1604
 1180TIP3   OH225030   6.332   3.875   2.856 -0.1677  0.1148  0.0791
 1180TIP3    H125031   6.268   3.806   2.875  1.3304 -1.0156  1.2776
 1180TIP3    H225032   6.312   3.901   2.766 -1.4520 -1.1494 -0.0460
 1181TIP3   OH225033   0.248   5.405   3.146  0.4110 -0.1656 -0.0375
 1181TIP3    H125034   0.300   5.380   3.070 -0.2658 -1.9500  0.0262
 1181TIP3    H225035   0.311   5.408   3.218  1.0442  1.4749 -0.6300
 1182TIP3   OH225036   5.761   5.274   5.788 -0.4499  0.6035  0.7032
 1182TIP3    H125037   5.780   5.320   5.706  0.6992 -0.3224  0.4207
 1182TIP3    H225038   5.841   5.223   5.805 -1.7706 -1.5404  0.8297
 1183TIP3   OH225039   3.397   6.107  15.404  0.2360  0.0209 -0.2157
 1183TIP3    H125040   3.324   6.158  15.368  0.3409 -0.3480 -0.9685
 1183TIP3    H225041   3.475   6.154  15.374  0.3386 -0.7046 -1.1193
 1184TIP3   OH225042   3.316   6.554  15.480  0.4724  0.3182 -0.6397
 1184TIP3    H125043   3.355   6.619  15.538  0.9851  0.6010 -1.2907
 1184TIP3    H225044   3.357   6.471  15.505 -0.4902  0.1630  0.4720
 1185TIP3   OH225045   0.972   3.760  15.177  0.4841 -0.2873  0.1135
 1185TIP3    H125046   0.915   3.816  15.230 -0.0903  1.5218 -2.2264
 1185TIP3    H225047   0.912   3.716  15.116  1.2282 -1.3573  0.1308
 1186TIP3   OH225048   0.151   4.116   4.595  0.3905  0.1479  0.2599
 1186TIP3    H125049   0.240   4.099   4.626  1.3209  0.5705 -1.9511
 1186TIP3    H225050   0.110   4.030   4.590  0.6315 -0.0424  1.3871
 1187TIP3   OH225051   4.402   0.172   4.467  0.3877  0.1562 -0.2704
 1187TIP3    H125052   4.490   0.136   4.459 -0.2228 -2.4019  2.6935
 1187TIP3    H225053   4.368   0.172   4.377  2.7875 -0.3962 -1.2495
 1188TIP3   OH225054   5.798   6.409  15.595  0.1742 -0.3476 -0.0668
 1188TIP3    H125055   5.765   6.415  15.505 -1.5356 -0.3255  0.5413
 1188TIP3    H225056   5.832   6.319  15.601  0.4203 -0.3119 -0.7547
 1189TIP3   OH225057   4.172   5.455   3.723 -0.0101  0.3437 -0.5106
 1189TIP3    H125058   4.240   5.520   3.741 -1.3232  2.0061 -1.2993
 1189TIP3    H225059   4.147   5.472   3.632 -1.6248 -0.0663 -0.1712
 1190TIP3   OH225060   4.653   1.751  13.904 -0.0850  0.1330  0.5447
 1190TIP3    H125061   4.662   1.753  13.808 -1.5701 -1.9612  0.2925
 1190TIP3    H225062   4.742   1.740  13.936  0.1649 -2.9605 -0.8496
 1191TIP3   OH225063   5.268   3.502  14.973 -0.1582  0.1234 -0.4334
 1191TIP3    H125064   5.187   3.534  15.013  0.1495 -0.5301  0.7530
 1191TIP3    H225065   5.274   3.550  14.891 -2.3792 -0.6706 -1.1462
 1192TIP3   OH225066   3.887   3.804   6.705 -0.0168 -0.0954  0.0252
 1192TIP3    H125067   3.980   3.817   6.689  0.0658  0.9467  1.2056
 1192TIP3    H225068   3.874   3.832   6.795 -1.1674 -1.8696  0.4740
 1193TIP3   OH225069   6.236   4.180   2.488 -0.3804 -0.6021 -0.1770
 1193TIP3    H125070   6.260   4.181   2.581 -0.3379 -0.3085 -0.1895
 1193TIP3    H225071   6.261   4.267   2.456  1.5017 -1.3453 -0.9341
 1194TIP3   OH225072   3.973   5.389  13.387 -0.5976  0.2574 -0.9001
 1194TIP3    H125073   3.899   5.385  13.325  0.6074  1.1365 -2.4889
 1194TIP3    H225074   4.036   5.447  13.344  1.3571 -1.0793  0.0545
 1195TIP3   OH225075   6.720   4.670   1.215 -0.2631 -0.0426  0.5085
 1195TIP3    H125076   6.672   4.601   1.170  1.3698 -0.5199 -0.5655
 1195TIP3    H225077   6.706   4.748   1.162 -1.0851  0.1843  1.0412
 1196TIP3   OH225078   3.679   5.407  12.611 -0.0554 -0.3517 -0.4563
 1196TIP3    H125079   3.628   5.470  12.560  0.5134  0.4114 -0.0999
 1196TIP3    H225080   3.646   5.321  12.584 -0.7727  0.0962 -1.0177
 1197TIP3   OH225081   1.576   3.523   3.741 -0.0144  0.5157  0.0343
 1197TIP3    H125082   1.513   3.536   3.671 -1.7291  1.2095  1.6371
 1197TIP3    H225083   1.539   3.453   3.795  0.1277  1.4942  1.4571
 1198TIP3   OH225084   6.707   3.715   4.288 -0.0751 -0.6046  1.0259
 1198TIP3    H125085   6.631   3.765   4.258  0.3779 -0.5738 -0.1196
 1198TIP3    H225086   6.744   3.678   4.208  0.0712 -2.1198  1.7656
 1199TIP3   OH225087   0.643   3.586   2.848 -0.1397  0.7848 -0.3900
 1199TIP3    H125088   0.665   3.586   2.942  0.2265 -0.0336 -0.4617
 1199TIP3    H225089   0.548   3.597   2.846 -0.3701 -0.7624  0.1669
 1200TIP3   OH225090   5.213   5.961   2.958  0.0707 -0.1077 -0.4084
 1200TIP3    H125091   5.299   5.919   2.953  0.0276 -0.1010 -1.3554
 1200TIP3    H225092   5.222   6.039   2.902 -0.5084 -0.0278 -0.3910
 1201TIP3   OH225093   3.338   6.407   3.191 -0.1322 -0.0486 -0.1559
 1201TIP3    H125094   3.391   6.487   3.189  1.3881 -1.0240 -1.6510
 1201TIP3    H225095   3.250   6.436   3.168  0.4777  1.1682 -1.0730
 1202TIP3   OH225096   3.927   0.698   4.402  0.1934  0.6129  0.2474
 1202TIP3    H125097   3.851   0.683   4.346  0.7624 -1.5061 -0.0465
 1202TIP3    H225098   3.892   0.747   4.477 -1.7338 -1.2799  0.6816
 1203TIP3   OH225099   1.461   5.898   6.593 -0.1277 -0.6926 -0.2821
 1203TIP3    H125100   1.528   5.870   6.531 -1.2666 -2.6412 -0.7176
 1203TIP3    H225101   1.462   5.831   6.662 -0.2594  0.3533  0.7687
 1204TIP3   OH225102   1.149   1.872  14.121 -0.6000 -0.7784  0.1469
 1204TIP3    H125103   1.161   1.831  14.206 -1.6115 -0.6440  0.3693
 1204TIP3    H225104   1.067   1.835  14.088 -0.9347  0.1966 -0.1579
 1205TIP3   OH225105   6.782   1.396   3.771  0.1671 -0.8150  0.6562
 1205TIP3    H125106   6.797   1.482   3.733 -0.7206 -0.4887  1.0176
 1205TIP3    H225107   6.763   1.413   3.864 -0.8993 -1.3066  0.5489
 1206TIP3   OH225108   5.045   5.185  16.954  0.0754  0.2182 -0.3198
 1206TIP3    H125109   5.133   5.198  16.919  1.0099 -2.7980  0.6188
 1206TIP3    H225110   5.059   5.149  17.042 -2.0854 -0.2345 -0.1067
 1207TIP3   OH225111   2.937   3.357  12.001 -0.2311  0.4022 -0.3700
 1207TIP3    H125112   2.887   3.289  12.046  0.4931  0.0355 -0.1045
 1207TIP3    H225113   2.930   3.434  12.059  0.7207 -0.0760  0.3884
 1208TIP3   OH225114   2.945   2.439  10.589 -0.3121 -0.9024  0.2932
 1208TIP3    H125115   3.025   2.406  10.628 -0.0349 -0.8570 -0.2333
 1208TIP3    H225116   2.919   2.372  10.526  0.0506 -0.3097 -0.5086
 1209TIP3   OH225117   1.651   4.114  11.214  0.6143 -0.3808 -0.2177
 1209TIP3    H125118   1.683   4.141  11.301  0.0676 -0.0866 -0.1020
 1209TIP3    H225119   1.556   4.106  11.225  0.0026  3.1268 -1.6319
 1210TIP3   OH225120   3.771   1.242   2.698  0.1128  0.3212 -0.3940
 1210TIP3    H125121   3.813   1.158   2.717  0.0567  0.5784  0.9259
 1210TIP3    H225122   3.749   1.237   2.605 -1.1432 -1.6892 -0.0514
 1211TIP3   OH225123   3.971   0.967  10.158  0.0177 -0.5891 -0.1833
 1211TIP3    H125124   3.934   0.920  10.083  1.3357  1.8546 -2.5202
 1211TIP3    H225125   4.058   0.930  10.169  0.0822 -0.4762 -0.3136
 1212TIP3   OH225126   3.150   1.369   1.459  0.1301  0.2165 -0.0246
 1212TIP3    H125127   3.127   1.296   1.516 -1.5850  1.5775  1.1464
 1212TIP3    H225128   3.074   1.380   1.402 -0.1217  1.7212  0.5508
 1213TIP3   OH225129   0.451   5.314   2.498 -0.3608 -0.2510  0.0587
 1213TIP3    H125130   0.528   5.361   2.531 -0.5788 -0.6786  1.2402
 1213TIP3    H225131   0.446   5.235   2.552 -0.7046 -1.0457 -1.0883
 1214TIP3   OH225132   2.335   5.750   5.969 -0.0175 -0.1550 -0.1347
 1214TIP3    H125133   2.254   5.737   5.919 -0.6371 -2.5184  1.3203
 1214TIP3    H225134   2.319   5.830   6.019 -1.2027 -0.2273 -0.3595
 1215TIP3   OH225135   3.184   3.845   5.599  0.1148 -0.4588  0.1086
 1215TIP3    H125136   3.223   3.797   5.526 -1.8332 -1.6486 -0.2223
 1215TIP3    H225137   3.103   3.882   5.562  0.3030  0.9909  1.0480
 1216TIP3   OH225138   2.149   3.570  11.045  0.5856  0.2894  0.7222
 1216TIP3    H125139   2.193   3.486  11.058 -0.0017 -0.1684 -0.1876
 1216TIP3    H225140   2.215   3.624  11.001  1.2272  0.5799  1.9780
 1217TIP3   OH225141   6.534   0.618   2.139 -0.5302  0.2316  0.1659
 1217TIP3    H125142   6.630   0.620   2.143 -0.5527  1.0796  0.5009
 1217TIP3    H225143   6.514   0.543   2.084  0.3401  0.3116 -0.2825
 1218TIP3   OH225144   5.718   4.923  11.628 -0.2858  0.2044  0.4351
 1218TIP3    H125145   5.716   4.845  11.683 -0.9814  0.4289  0.7357
 1218TIP3    H225146   5.642   4.913  11.570  0.1020  0.2566 -0.0949
 1219TIP3   OH225147   0.346   2.788   2.105 -0.2278 -0.2931 -0.1810
 1219TIP3    H125148   0.391   2.832   2.033 -0.0520  2.1108  1.2890
 1219TIP3    H225149   0.253   2.794   2.082 -0.0798 -1.3672 -1.1393
 1220TIP3   OH225150   2.575   2.055   4.739 -0.4823 -0.1281 -0.0504
 1220TIP3    H125151   2.502   2.041   4.678  0.8099 -1.9140 -1.3103
 1220TIP3    H225152   2.573   2.149   4.758 -0.7009  0.6350 -3.2489
 1221TIP3   OH225153   0.766   2.258  16.883  0.4653 -0.4035  0.7291
 1221TIP3    H125154   0.736   2.167  16.873  0.2801 -0.2242 -0.4770
 1221TIP3    H225155   0.770   2.271  16.977 -0.3034 -1.4104  0.9229
 1222TIP3   OH225156   5.250   2.672   1.403 -0.1733 -0.7178  0.3461
 1222TIP3    H125157   5.229   2.754   1.447 -0.2761  0.2033 -1.3331
 1222TIP3    H225158   5.343   2.657   1.422 -0.2983 -0.5166  1.1171
 1223TIP3   OH225159   5.534   6.455   6.478 -0.3641 -0.1122 -0.4232
 1223TIP3    H125160   5.505   6.435   6.567  0.5401 -0.9150 -0.2930
 1223TIP3    H225161   5.628   6.474   6.487 -0.5740  1.3857 -0.9788
 1224TIP3   OH225162   2.981   6.536  13.843  0.0840 -0.1472  0.6581
 1224TIP3    H125163   2.898   6.518  13.887  0.1798  0.2100  0.9961
 1224TIP3    H225164   3.007   6.622  13.876 -0.0053  0.2840 -0.3479
 1225TIP3   OH225165   2.293   2.173   5.265  0.5812  0.0169 -0.2381
 1225TIP3    H125166   2.271   2.102   5.204  1.1408  0.5197 -1.0293
 1225TIP3    H225167   2.221   2.236   5.256  1.6817  1.0744 -1.9186
 1226TIP3   OH225168   5.326   0.749  15.184 -0.4901 -0.0881  0.2264
 1226TIP3    H125169   5.353   0.815  15.120 -0.7161  0.7317  0.9550
 1226TIP3    H225170   5.330   0.794  15.268 -0.6014 -1.0262  0.7543
 1227TIP3   OH225171   3.532   5.945  13.939  0.3153  0.2073 -0.2518
 1227TIP3    H125172   3.550   6.028  13.896  0.6657 -0.1338 -0.7875
 1227TIP3    H225173   3.474   5.967  14.012 -1.0055  0.6911 -1.4058
 1228TIP3   OH225174   5.863   4.739  12.517 -0.4822  0.2445 -0.2172
 1228TIP3    H125175   5.784   4.783  12.486 -0.3444  1.0881  0.6139
 1228TIP3    H225176   5.881   4.777  12.603 -0.1386 -1.1582  0.3719
 1229TIP3   OH225177   4.656   4.445  11.681 -0.2227  0.2465  0.2337
 1229TIP3    H125178   4.597   4.457  11.606 -1.3949  0.8028  1.2000
 1229TIP3    H225179   4.657   4.530  11.724  0.8457  0.0759  0.5681
 1230TIP3   OH225180   6.439   4.761  10.863 -0.6137  0.5512  0.6868
 1230TIP3    H125181   6.487   4.734  10.785 -2.0765  0.7893 -0.3294
 1230TIP3    H225182   6.362   4.705  10.865 -1.9423  2.2936  0.4505
 1231TIP3   OH225183   0.132   4.243  13.281  0.4296 -0.0937 -0.2775
 1231TIP3    H125184   0.212   4.212  13.323  1.2378 -0.2049 -1.8502
 1231TIP3    H225185   0.102   4.169  13.228  0.7212  0.7744 -1.7065
 1232TIP3   OH225186   4.338   6.415   1.527 -0.4922  0.2812 -0.5214
 1232TIP3    H125187   4.309   6.328   1.500  0.9919  0.0071 -1.3767
 1232TIP3    H225188   4.306   6.473   1.458 -0.2970  0.1951 -0.6876
 1233TIP3   OH225189   6.196   0.580   4.524  0.0261  0.5203 -0.0814
 1233TIP3    H125190   6.139   0.568   4.600 -1.2911 -1.3261 -1.2417
 1233TIP3    H225191   6.137   0.569   4.449  1.4541  1.2871 -1.3740
 1234TIP3   OH225192   5.679   0.031   1.100 -0.0576  0.1827 -0.3653
 1234TIP3    H125193   5.707  -0.026   1.029  0.8906  2.0881 -1.6096
 1234TIP3    H225194   5.585   0.042   1.088 -0.6038 -2.4065  0.9356
 1235TIP3   OH225195   0.542   1.693  15.435  0.2010 -0.3407 -0.7224
 1235TIP3    H125196   0.552   1.599  15.422  3.1294 -0.4086  1.1430
 1235TIP3    H225197   0.620   1.731  15.394 -0.5687  1.2444 -0.7993
 1236TIP3   OH225198   5.718   1.325  13.588 -0.0954  0.5346 -0.7139
 1236TIP3    H125199   5.738   1.237  13.557  0.1630  0.7467 -1.1683
 1236TIP3    H225200   5.802   1.358  13.620 -0.0858  0.7894 -0.9951
 1237TIP3   OH225201   5.030   0.569  16.773  0.6327  0.3779 -0.0177
 1237TIP3    H125202   5.111   0.519  16.780  0.4193 -0.5526 -2.9704
 1237TIP3    H225203   4.961   0.507  16.796  0.4996 -0.2239 -1.8949
 1238TIP3   OH225204   4.462   1.450  11.620  0.3797 -0.4379  0.0740
 1238TIP3    H125205   4.472   1.537  11.658  1.3392 -0.8434  0.7747
 1238TIP3    H225206   4.465   1.390  11.695  1.1168 -1.1752 -0.5301
 1239TIP3   OH225207   3.683   0.847  17.134  0.1922 -0.8837 -0.0473
 1239TIP3    H125208   3.614   0.831  17.069  0.5773 -1.2107 -0.3855
 1239TIP3    H225209   3.697   0.941  17.132  1.0049 -1.0123 -1.2846
 1240TIP3   OH225210   5.690   3.068  15.092  0.5710  0.1050  0.0927
 1240TIP3    H125211   5.716   3.025  15.173  1.0763 -0.8104 -0.5348
 1240TIP3    H225212   5.663   2.996  15.034 -2.3326  0.9071  0.3138
 1241TIP3   OH225213   4.528   3.325  13.251  0.8065 -0.2550 -0.0153
 1241TIP3    H125214   4.554   3.412  13.283  0.5350  1.4764 -3.8621
 1241TIP3    H225215   4.443   3.310  13.291  0.6591  1.4877  0.4331
 1242TIP3   OH225216   1.778   2.759  12.456 -0.0093  0.6272  0.3627
 1242TIP3    H125217   1.803   2.815  12.529 -3.3642  2.3781  0.3531
 1242TIP3    H225218   1.720   2.814  12.402  0.9369 -1.1430 -2.7086
 1243TIP3   OH225219   0.804   0.645  14.245 -0.0620  0.4663 -0.2019
 1243TIP3    H125220   0.792   0.663  14.338 -2.0296  0.1827 -0.3492
 1243TIP3    H225221   0.884   0.691  14.222  0.8388  0.0075  1.7574
 1244TIP3   OH225222   5.636   5.336  16.563 -0.1716 -0.0302 -0.1449
 1244TIP3    H125223   5.640   5.243  16.539  1.4142 -0.0173 -0.0492
 1244TIP3    H225224   5.657   5.337  16.656 -0.0555  0.4313 -0.1740
 1245TIP3   OH225225   3.300   2.302   1.248 -0.4368  0.6679 -0.0516
 1245TIP3    H125226   3.205   2.296   1.236 -0.5396  2.2157 -0.2244
 1245TIP3    H225227   3.334   2.317   1.160 -0.3032  2.7081  0.3059
 1246TIP3   OH225228   1.515   2.075   5.870 -0.2677  0.6881 -0.3591
 1246TIP3    H125229   1.462   1.996   5.878  0.3436  0.3776  0.9331
 1246TIP3    H225230   1.554   2.069   5.783 -1.2259  0.2062 -0.7618
 1247TIP3   OH225231   2.444   6.485   5.375  0.0208 -0.1483 -0.1959
 1247TIP3    H125232   2.397   6.479   5.292  0.2948  0.1151 -0.3766
 1247TIP3    H225233   2.492   6.567   5.369  0.1120 -0.1700  0.1903
 1248TIP3   OH225234   0.611   5.832  12.777  0.6046  0.4306 -1.0290
 1248TIP3    H125235   0.529   5.880  12.787 -0.3242 -0.9586 -1.6143
 1248TIP3    H225236   0.638   5.849  12.687  0.5840  0.3149 -1.0569
 1249TIP3   OH225237   6.818   2.307  12.086  0.1389 -1.0531  0.3552
 1249TIP3    H125238   6.730   2.343  12.100 -0.6397 -2.7995  0.2351
 1249TIP3    H225239   6.872   2.350  12.152 -1.0338 -0.7057  1.1245
 1250TIP3   OH225240   5.061   6.351  16.342  0.0563 -0.1431 -0.3636
 1250TIP3    H125241   5.119   6.408  16.393 -1.8826 -0.3900  2.2942
 1250TIP3    H225242   4.982   6.404  16.329 -0.5333 -1.0887 -0.6779
 1251TIP3   OH225243   1.866   4.846   3.623  0.2016 -0.2088 -0.0160
 1251TIP3    H125244   1.859   4.909   3.551 -0.7245 -0.9368 -0.5947
 1251TIP3    H225245   1.918   4.891   3.689  0.1354  0.9040 -0.6862
 1252TIP3   OH225246   6.495   0.050   1.733  0.2331 -0.1207  0.4842
 1252TIP3    H125247   6.441   0.126   1.755 -0.7581  0.4801 -3.2782
 1252TIP3    H225248   6.582   0.071   1.769 -0.3247  2.2420  0.6297
 1253TIP3   OH225249   1.551   6.027  13.136 -0.3627 -0.0806  0.3741
 1253TIP3    H125250   1.600   6.020  13.054 -1.5811  2.9995 -0.7359
 1253TIP3    H225251   1.463   6.054  13.110 -1.3422 -0.8086  2.6314
 1254TIP3   OH225252   5.005   4.781   1.716  0.1597  0.1180  0.9416
 1254TIP3    H125253   5.091   4.789   1.674  0.1925 -2.3970  0.3830
 1254TIP3    H225254   4.954   4.728   1.656 -2.4176  2.8516  0.4755
 1255TIP3   OH225255   5.383   4.377  16.612 -0.1515  0.1485  0.4882
 1255TIP3    H125256   5.333   4.457  16.627  0.4393  0.5064  0.5526
 1255TIP3    H225257   5.474   4.405  16.611  0.0763 -0.5650  0.7892
 1256TIP3   OH225258   4.920   1.189   1.292 -0.4315 -0.0897  0.0606
 1256TIP3    H125259   4.962   1.255   1.346  0.9073  0.4262 -1.5160
 1256TIP3    H225260   4.830   1.221   1.279 -0.1215  0.8539  0.2191
 1257TIP3   OH225261   0.430   3.729   4.407  0.1448 -0.3183 -0.5340
 1257TIP3    H125262   0.467   3.763   4.488 -1.6301  0.1022  0.1392
 1257TIP3    H225263   0.489   3.761   4.338  0.2849  1.4349  0.3631
 1258TIP3   OH225264   4.267   0.676  16.777  0.5056 -0.5281  0.2575
 1258TIP3    H125265   4.299   0.696  16.689 -0.6511  1.3462  0.2176
 1258TIP3    H225266   4.282   0.756  16.827 -0.6804 -0.8818  1.2190
 1259TIP3   OH225267   4.368   1.675   2.900  0.1329  0.3263  0.1554
 1259TIP3    H125268   4.296   1.730   2.931  0.1761  1.7700 -2.1095
 1259TIP3    H225269   4.328   1.590   2.884 -1.1184  1.1062 -1.0668
 1260TIP3   OH225270   3.290   0.199  13.365  0.2804  0.0043  0.7651
 1260TIP3    H125271   3.269   0.119  13.318  2.3942 -0.4566  0.4848
 1260TIP3    H225272   3.256   0.270  13.310  1.0689 -0.6065 -0.5482
 1261TIP3   OH225273   0.268   4.409  14.404  0.0357 -0.2164 -0.5755
 1261TIP3    H125274   0.286   4.489  14.453  0.3891 -0.6316 -0.0162
 1261TIP3    H225275   0.213   4.356  14.462 -2.1415  0.5516 -1.8212
 1262TIP3   OH225276   2.695   6.417   3.658  0.1803 -0.3358  0.0676
 1262TIP3    H125277   2.754   6.345   3.683  1.3037  0.2931 -0.6676
 1262TIP3    H225278   2.652   6.385   3.579 -0.8783 -0.9898  0.8693
 1263TIP3   OH225279   0.402   6.578  11.434 -0.1389  0.0992 -0.1279
 1263TIP3    H125280   0.414   6.570  11.529 -0.6108 -0.3981 -0.1057
 1263TIP3    H225281   0.309   6.557  11.420 -1.1669  3.8371 -0.2436
 1264TIP3   OH225282   2.646   4.295   2.460 -0.4221  0.1161  0.0127
 1264TIP3    H125283   2.578   4.273   2.397 -0.2541  0.4346 -0.2825
 1264TIP3    H225284   2.728   4.266   2.419 -0.3054  0.3883  0.0501
 1265TIP3   OH225285   2.254   4.483  13.707  0.0486  0.1470 -0.2470
 1265TIP3    H125286   2.159   4.477  13.707  0.1471 -2.1951  0.2958
 1265TIP3    H225287   2.272   4.570  13.672 -2.2688  0.4761 -0.7931
 1266TIP3   OH225288   4.806   3.259   0.019 -0.3259 -0.6781 -0.4380
 1266TIP3    H125289   4.740   3.224  -0.040  0.6217 -3.4064 -0.0115
 1266TIP3    H225290   4.890   3.241  -0.024  0.2710  0.0436  0.3718
 1267TIP3   OH225291   1.391   5.670   1.965  0.4494 -0.1958  0.5874
 1267TIP3    H125292   1.298   5.692   1.961  0.6233  0.7242  1.3354
 1267TIP3    H225293   1.420   5.700   2.051  1.5858  0.1265  0.1191
 1268TIP3   OH225294   1.881   5.601  10.560  0.8636 -0.2611  0.1238
 1268TIP3    H125295   1.818   5.530  10.568  0.3708 -0.1092 -1.8333
 1268TIP3    H225296   1.957   5.561  10.517  1.7928 -0.2370  1.6618
 1269TIP3   OH225297   3.261   6.217   1.108  0.1858  0.2093  0.3855
 1269TIP3    H125298   3.198   6.173   1.166 -0.5914  1.1575  0.2804
 1269TIP3    H225299   3.344   6.210   1.155 -0.4294  0.9926  1.6693
 1270TIP3   OH225300   5.277   3.010   1.701 -0.1971  0.3813 -0.0701
 1270TIP3    H125301   5.328   2.981   1.626 -0.1287  3.1928 -1.2382
 1270TIP3    H225302   5.324   2.976   1.777  0.7828 -0.9682 -1.2230
 1271TIP3   OH225303   1.606   5.741  16.640  0.0063 -0.3247  0.5386
 1271TIP3    H125304   1.599   5.667  16.701  0.5769  0.5061  1.6460
 1271TIP3    H225305   1.613   5.818  16.696 -0.5266  0.5801 -0.5955
 1272TIP3   OH225306   2.510   4.362   3.163 -0.2982  0.2271  0.0058
 1272TIP3    H125307   2.476   4.416   3.091  1.6364  0.7519 -0.5752
 1272TIP3    H225308   2.564   4.421   3.214  1.2837 -0.9456 -0.2235
 1273TIP3   OH225309   6.166   2.027  10.799 -0.0633  0.0323 -0.0624
 1273TIP3    H125310   6.160   1.980  10.716  0.3303 -1.0736  0.5145
 1273TIP3    H225311   6.077   2.060  10.815 -0.5609 -1.2688 -0.0555
 1274TIP3   OH225312   0.077   0.001   0.548  0.0297 -0.0308 -0.1795
 1274TIP3    H125313  -0.002  -0.017   0.497 -0.0777  1.6603 -0.6883
 1274TIP3    H225314   0.051   0.073   0.606  0.0542 -2.1016  2.5744
 1275TIP3   OH225315   2.511   4.003  16.698  0.9219  0.0270 -0.6364
 1275TIP3    H125316   2.599   4.026  16.727 -0.3072  2.3289  1.7553
 1275TIP3    H225317   2.494   4.062  16.624  0.9667  0.4332 -0.3239
 1276TIP3   OH225318   2.999   1.489  16.775 -0.3067 -0.4100 -0.2765
 1276TIP3    H125319   3.082   1.485  16.727 -0.1429  0.4348 -0.0859
 1276TIP3    H225320   3.004   1.417  16.839 -0.6217 -1.6839 -1.6394
 1277TIP3   OH225321   2.968   2.197  12.593 -0.2407  0.1256  0.0612
 1277TIP3    H125322   2.990   2.281  12.634 -0.5370 -0.1196  0.7381
 1277TIP3    H225323   2.971   2.215  12.499  3.1977  0.0314  0.0391
 1278TIP3   OH225324   1.508   4.165   5.871  0.1805 -0.1792 -0.0919
 1278TIP3    H125325   1.528   4.143   5.780  0.4641 -0.4942  0.0473
 1278TIP3    H225326   1.442   4.101   5.897 -1.3578  1.0928 -0.6736
 1279TIP3   OH225327   1.522   2.279  13.875 -0.8578  0.1476 -0.0921
 1279TIP3    H125328   1.549   2.232  13.954 -0.6875 -1.8058 -1.2702
 1279TIP3    H225329   1.516   2.370  13.903 -1.7473 -0.6040  2.4274
 1280TIP3   OH225330   1.453   4.953  15.477  0.4017  0.3420 -0.1557
 1280TIP3    H125331   1.445   4.900  15.556 -1.2999 -1.3926 -1.4123
 1280TIP3    H225332   1.405   5.033  15.497  1.9151  0.9490  1.3088
 1281TIP3   OH225333   5.603   1.887  14.345  0.2383  0.0949 -0.0869
 1281TIP3    H125334   5.530   1.862  14.290 -0.2136 -0.9261  0.9266
 1281TIP3    H225335   5.676   1.899  14.284 -0.6436  0.6880 -1.0605
 1282TIP3   OH225336   6.571   5.300   4.986 -1.0029  0.3206  0.3673
 1282TIP3    H125337   6.606   5.280   5.072 -0.8395 -1.3516 -0.0458
 1282TIP3    H225338   6.476   5.301   4.998 -1.0532 -1.3653  0.3189
 1283TIP3   OH225339   2.780   0.462   2.849  0.0948  0.0723  0.2884
 1283TIP3    H125340   2.739   0.520   2.784  1.9068  2.8541  1.3975
 1283TIP3    H225341   2.739   0.487   2.932  1.1533  0.0479  0.8374
 1284TIP3   OH225342   1.805   4.423  12.507  0.2066  0.2908  0.0320
 1284TIP3    H125343   1.769   4.367  12.438 -3.2484  2.7856 -0.4453
 1284TIP3    H225344   1.887   4.457  12.469  1.1779 -2.4348 -0.5648
 1285TIP3   OH225345   4.890   3.475   0.945 -0.8263  0.0806 -0.3551
 1285TIP3    H125346   4.840   3.472   1.027 -1.5200  0.5470 -0.7486
 1285TIP3    H225347   4.971   3.428   0.965 -0.4874  1.1480  0.9331
 1286TIP3   OH225348   3.699   3.498   1.452  0.4438  0.0055 -0.0494
 1286TIP3    H125349   3.770   3.546   1.496  0.1658 -0.3112  0.7607
 1286TIP3    H225350   3.621   3.550   1.468  0.4485  0.2657 -0.8019
 1287TIP3   OH225351   5.549   3.300  12.028  0.0362  0.4263  0.2036
 1287TIP3    H125352   5.618   3.320  12.092 -0.8580  1.2080  0.9620
 1287TIP3    H225353   5.472   3.283  12.082 -0.5116  0.1647 -0.6538
 1288TIP3   OH225354   5.603   6.523  11.550 -0.0922 -0.2336 -0.1830
 1288TIP3    H125355   5.643   6.590  11.605 -0.1796 -0.0219 -0.3759
 1288TIP3    H225356   5.636   6.541  11.462 -0.3837 -0.2350 -0.2931
 1289TIP3   OH225357   6.699   2.664  15.893  0.2797 -0.1134  0.1313
 1289TIP3    H125358   6.618   2.716  15.896  1.4160  1.7182  0.7338
 1289TIP3    H225359   6.699   2.625  15.806 -2.4821 -2.3225  0.9606
 1290TIP3   OH225360   6.357   0.180   5.860  0.2044 -0.2695  0.1322
 1290TIP3    H125361   6.335   0.202   5.770 -0.1813 -0.7793  0.0957
 1290TIP3    H225362   6.389   0.090   5.856  0.6293 -0.1351  0.4395
 1291TIP3   OH225363   1.552   1.298   5.585  0.2763 -0.0195  0.0906
 1291TIP3    H125364   1.467   1.269   5.553  0.1208 -2.1562  2.1711
 1291TIP3    H225365   1.534   1.381   5.628 -0.8106 -0.5284  0.6514
 1292TIP3   OH225366   5.068   6.076  13.880 -0.5245 -0.0619 -0.3871
 1292TIP3    H125367   5.022   6.051  13.800 -0.7434  0.2965 -0.3753
 1292TIP3    H225368   5.020   6.152  13.912  0.5150  0.8023 -0.7856
 1293TIP3   OH225369   3.272   5.589  11.432  0.1652 -0.0479 -0.2039
 1293TIP3    H125370   3.321   5.568  11.352  2.3363 -2.2915  1.5289
 1293TIP3    H225371   3.331   5.647  11.481  0.0292 -0.7264  0.8060
 1294TIP3   OH225372   2.031   0.502   5.468 -0.2544  0.2665 -0.3013
 1294TIP3    H125373   1.991   0.569   5.413 -0.8086  0.9240  0.8899
 1294TIP3    H225374   2.033   0.539   5.556  0.5785 -0.7881  0.1582
 1295TIP3   OH225375   0.294   1.483   5.904 -0.1824  0.1547  0.3939
 1295TIP3    H125376   0.213   1.531   5.918 -1.3042 -1.6140  0.2887
 1295TIP3    H225377   0.277   1.430   5.826  1.0923 -0.2209  0.3486
 1296TIP3   OH225378   1.449   2.957   1.900 -0.1185 -0.6705 -0.2183
 1296TIP3    H125379   1.436   2.996   1.986  0.3856 -0.7726 -0.0932
 1296TIP3    H225380   1.495   2.875   1.917 -0.5310 -0.9755 -0.5392
 1297TIP3   OH225381   4.209   3.295  15.380 -0.2353  0.2723 -0.0223
 1297TIP3    H125382   4.252   3.376  15.409  0.3292 -0.3329  0.9098
 1297TIP3    H225383   4.125   3.323  15.344  0.6267  1.4265 -1.2347
 1298TIP3   OH225384   4.489   5.661   1.169  0.1099 -0.2558  0.0464
 1298TIP3    H125385   4.437   5.731   1.131  0.3311  1.3388  2.4229
 1298TIP3    H225386   4.428   5.587   1.176 -1.0899  0.7277  0.3587
 1299TIP3   OH225387   1.808   6.707  11.714 -0.5840 -0.6738 -0.8085
 1299TIP3    H125388   1.826   6.761  11.637 -3.0188 -2.5755 -2.8627
 1299TIP3    H225389   1.853   6.624  11.696 -2.0578 -1.5125 -0.7440
 1300TIP3   OH225390   2.649   6.625   5.723 -0.3820 -0.1427  0.4592
 1300TIP3    H125391   2.613   6.575   5.651  0.5828  0.1059 -0.2129
 1300TIP3    H225392   2.696   6.561   5.776  0.2996 -0.0700 -0.0439
 1301TIP3   OH225393   6.579   6.620  14.647 -0.3181 -0.0087 -0.5502
 1301TIP3    H125394   6.579   6.560  14.573 -1.5649 -0.2465 -0.3798
 1301TIP3    H225395   6.669   6.654  14.651 -0.3685  0.4573 -2.5238
 1302TIP3   OH225396   1.432   2.026  12.031 -0.3366  0.7148  0.3381
 1302TIP3    H125397   1.509   2.075  12.059  0.2785 -0.9530  1.8070
 1302TIP3    H225398   1.427   2.039  11.937  1.0457  1.8205  0.3924
 1303TIP3   OH225399   1.112   2.343   1.383 -0.2089 -0.5011 -0.2753
 1303TIP3    H125400   1.017   2.340   1.387 -0.1573 -2.0639  0.0254
 1303TIP3    H225401   1.135   2.292   1.306  0.3947 -0.1119 -0.3647
 1304TIP3   OH225402   2.671   6.769  15.533 -0.1493 -0.0284  0.3891
 1304TIP3    H125403   2.738   6.829  15.498 -0.7785  0.9166  0.7612
 1304TIP3    H225404   2.591   6.794  15.487 -0.3726 -0.7888  0.3511
 1305TIP3   OH225405   4.144   6.727   5.366 -0.6238 -0.1870 -0.7526
 1305TIP3    H125406   4.161   6.794   5.300 -0.0519  1.0564  0.6015
 1305TIP3    H225407   4.225   6.676   5.371 -0.3648  0.2477 -0.4396
 1306TIP3   OH225408   5.960   3.626  15.878  0.4713 -0.5521  0.2915
 1306TIP3    H125409   5.948   3.667  15.793  2.1321 -0.5302  0.0398
 1306TIP3    H225410   5.948   3.697  15.941 -0.3328 -0.4781  0.0622
 1307TIP3   OH225411   5.835   4.114   1.809 -0.3426  0.0072 -0.4295
 1307TIP3    H125412   5.862   4.204   1.791 -1.1954  0.4592  0.4193
 1307TIP3    H225413   5.785   4.120   1.890 -0.0787 -1.3058 -0.1477
 1308TIP3   OH225414   5.202   0.495   2.376  0.2479  0.4922 -0.4023
 1308TIP3    H125415   5.174   0.565   2.317  0.9078  0.2296 -1.0433
 1308TIP3    H225416   5.222   0.421   2.318  1.1118  0.3006  0.1220
 1309TIP3   OH225417   5.736   0.611   0.117 -0.8733 -0.0921  0.4849
 1309TIP3    H125418   5.690   0.665   0.053 -2.1171  1.6867  2.6996
 1309TIP3    H225419   5.700   0.523   0.106 -2.0966  0.4810 -0.3007
 1310TIP3   OH225420   6.388   5.242   3.161 -0.2943 -0.0288  0.2114
 1310TIP3    H125421   6.450   5.211   3.096 -0.1761 -0.6089  0.5957
 1310TIP3    H225422   6.369   5.332   3.134  0.5426  0.0879 -0.0346
 1311TIP3   OH225423   0.614   5.259  15.926 -0.2117 -0.1242  0.8257
 1311TIP3    H125424   0.621   5.286  15.834  0.1530 -0.4914  0.7452
 1311TIP3    H225425   0.618   5.341  15.975  1.9480 -0.0617  0.6415
 1312TIP3   OH225426   6.514   0.961   5.878  0.0998  0.2413 -0.2268
 1312TIP3    H125427   6.516   0.994   5.789  0.6893  0.9276  0.0265
 1312TIP3    H225428   6.553   0.874   5.873  0.3364  0.3697 -0.5982
 1313TIP3   OH225429   1.053   3.144  13.050 -0.1386 -0.3480  0.3172
 1313TIP3    H125430   0.971   3.162  13.004  0.3936 -1.1883 -0.9815
 1313TIP3    H225431   1.050   3.051  13.070 -0.3252 -0.0200  1.9657
 1314TIP3   OH225432   4.724   2.280  16.557 -0.5556 -0.0059 -0.2584
 1314TIP3    H125433   4.804   2.305  16.511 -1.9635  2.0793 -1.7154
 1314TIP3    H225434   4.741   2.301  16.649  0.4365  0.7139 -0.5951
 1315TIP3   OH225435   1.990   1.761  13.675 -0.4283  0.2347  0.4253
 1315TIP3    H125436   1.956   1.833  13.623  0.6316 -0.3080 -1.0874
 1315TIP3    H225437   1.948   1.683  13.638  1.0460 -0.2525 -0.2809
 1316TIP3   OH225438   4.216   6.135   1.613 -0.3592 -0.3124  0.2572
 1316TIP3    H125439   4.146   6.088   1.567 -3.0512  2.5980  1.0187
 1316TIP3    H225440   4.188   6.134   1.705  2.0235 -1.2689  1.0315
 1317TIP3   OH225441   3.761   4.556   0.900 -0.9096  0.3599 -0.0232
 1317TIP3    H125442   3.672   4.586   0.883 -0.7825 -0.6359 -2.9871
 1317TIP3    H225443   3.758   4.462   0.883  1.0260  0.5619 -1.8623
 1318TIP3   OH225444   0.643   4.236   3.898 -0.8496 -0.1841 -0.4070
 1318TIP3    H125445   0.654   4.327   3.868  0.7577 -0.3763 -0.5195
 1318TIP3    H225446   0.549   4.221   3.897 -1.2502  1.8724  0.7555
 1319TIP3   OH225447   0.605   6.291   4.468  0.3835 -0.3239 -0.0153
 1319TIP3    H125448   0.575   6.263   4.554  1.7267  1.2643  1.0335
 1319TIP3    H225449   0.533   6.346   4.435  0.4594  0.2600  0.7587
 1320TIP3   OH225450   2.304   2.553   3.295 -0.2376  0.0339  0.1282
 1320TIP3    H125451   2.320   2.479   3.237 -0.5983  0.3878 -0.4311
 1320TIP3    H225452   2.258   2.617   3.241  0.7199  0.9817  0.3965
 1321TIP3   OH225453   3.678   4.971  15.917 -0.1390  0.3254 -0.2256
 1321TIP3    H125454   3.756   5.023  15.895 -0.7913  0.1928 -3.3451
 1321TIP3    H225455   3.713   4.883  15.935  0.5342  0.5623 -0.3445
 1322TIP3   OH225456   3.269   5.847  12.766 -0.1338 -0.2974  0.3310
 1322TIP3    H125457   3.305   5.915  12.709 -0.1048 -1.9363 -1.7395
 1322TIP3    H225458   3.342   5.824  12.825  1.3549 -1.5023 -1.8451
 1323TIP3   OH225459   5.533   2.382   5.327 -0.2012 -0.4498 -0.1448
 1323TIP3    H125460   5.622   2.360   5.301  0.1229  0.8957 -0.2283
 1323TIP3    H225461   5.507   2.452   5.267 -0.3620  0.9477  1.4657
 1324TIP3   OH225462   5.270   2.281  15.250  0.1350 -0.7422 -0.3387
 1324TIP3    H125463   5.287   2.373  15.270 -0.1501 -0.9175  0.8128
 1324TIP3    H225464   5.205   2.283  15.180 -2.1364 -0.0117  1.6573
 1325TIP3   OH225465   1.554   3.111  14.103 -0.5680 -0.2680 -0.3944
 1325TIP3    H125466   1.569   3.050  14.176  0.6293 -1.4453 -1.5705
 1325TIP3    H225467   1.624   3.176  14.113 -0.6056 -0.2418 -0.2989
 1326TIP3   OH225468   3.241   2.920   1.145  0.4946  0.0752 -0.6784
 1326TIP3    H125469   3.313   2.878   1.097 -0.1765 -2.3469  0.2508
 1326TIP3    H225470   3.164   2.867   1.124  0.0065 -0.5721  2.2767
 1327TIP3   OH225471   4.049   0.912  12.285 -0.0748  0.2614 -0.7372
 1327TIP3    H125472   4.006   0.925  12.370  1.4271 -0.2058  0.1269
 1327TIP3    H225473   4.017   0.827  12.255  0.4166 -0.1928  0.0061
 1328TIP3   OH225474   3.653   0.280  16.108  0.6050 -0.0554  0.6834
 1328TIP3    H125475   3.613   0.198  16.080  0.3297  0.6487 -1.0714
 1328TIP3    H225476   3.621   0.346  16.046  0.5717  1.4609  2.2264
 1329TIP3   OH225477   4.455   5.472  10.391 -0.6263  0.0169 -0.1423
 1329TIP3    H125478   4.429   5.554  10.432 -3.7689 -1.2053  0.5613
 1329TIP3    H225479   4.410   5.404  10.441 -0.2077 -1.9533 -2.2493
 1330TIP3   OH225480   4.467   2.092   4.463 -0.0826  0.7224 -0.1193
 1330TIP3    H125481   4.557   2.061   4.470  0.1221  1.3073 -0.1296
 1330TIP3    H225482   4.437   2.097   4.553 -0.1188  0.4887 -0.1177
 1331TIP3   OH225483   5.780   3.325  13.865  0.6502 -0.9492 -0.1215
 1331TIP3    H125484   5.773   3.405  13.812  0.8475 -0.4036  0.6692
 1331TIP3    H225485   5.762   3.354  13.954 -1.4556 -2.1630 -0.0927
 1332TIP3   OH225486   1.335   0.106  14.176 -0.3122  0.1375 -0.0556
 1332TIP3    H125487   1.242   0.127  14.175 -0.7046 -1.4222 -0.9223
 1332TIP3    H225488   1.370   0.146  14.096 -0.1333  1.1125  0.5055
 1333TIP3   OH225489   5.722   6.603  12.784  0.6829  0.1279 -0.0810
 1333TIP3    H125490   5.743   6.666  12.853 -2.2142  1.3053 -0.1359
 1333TIP3    H225491   5.730   6.652  12.702 -0.5251  0.1218 -0.2111
 1334TIP3   OH225492   6.794   1.626  11.943  0.3507  0.4933 -0.3552
 1334TIP3    H125493   6.724   1.563  11.955 -0.5130  1.1693 -1.6100
 1334TIP3    H225494   6.838   1.630  12.028 -1.2866  0.2317  0.5419
 1335TIP3   OH225495   2.294   0.805   3.122 -0.2369 -0.3827  0.7314
 1335TIP3    H125496   2.224   0.742   3.142  0.8388 -1.0146  2.7506
 1335TIP3    H225497   2.315   0.788   3.030 -3.0046  0.1521 -0.1029
 1336TIP3   OH225498   2.142   1.622  11.494  0.7272 -0.4116  0.5067
 1336TIP3    H125499   2.231   1.658  11.493  0.8346 -0.6469 -0.7730
 1336TIP3    H225500   2.155   1.527  11.491  0.4362 -0.4757  1.3123
 1337TIP3   OH225501   1.819   0.581  16.912  0.3917  0.1888  0.7882
 1337TIP3    H125502   1.771   0.512  16.867  2.0785 -0.5339  0.0507
 1337TIP3    H225503   1.751   0.629  16.961 -1.5018  0.8256 -2.1979
 1338TIP3   OH225504   0.917   5.574   4.269 -0.0651 -0.4632 -0.5111
 1338TIP3    H125505   0.943   5.586   4.361  0.3460  0.8885 -0.7752
 1338TIP3    H225506   0.949   5.487   4.246  0.9428 -0.3183  0.2658
 1339TIP3   OH225507   2.614   5.510  13.803  0.3586  0.2167 -0.2428
 1339TIP3    H125508   2.622   5.417  13.825  1.5776  0.3012 -0.2472
 1339TIP3    H225509   2.582   5.510  13.712 -0.1673 -0.1834 -0.0642
 1340TIP3   OH225510   3.399   0.556   5.206  0.5741  0.4678  0.2604
 1340TIP3    H125511   3.472   0.616   5.192  0.5447  0.4149 -0.1362
 1340TIP3    H225512   3.331   0.587   5.147  1.5447 -1.6132 -2.1797
 1341TIP3   OH225513   1.876   2.788   1.910  0.0595 -0.5540  0.1713
 1341TIP3    H125514   1.816   2.766   1.981 -0.6108  1.5232  0.3213
 1341TIP3    H225515   1.881   2.709   1.857  0.4931 -2.1412  2.4450
 1342TIP3   OH225516   1.168   4.408  12.121 -0.3361 -0.1683 -0.2588
 1342TIP3    H125517   1.256   4.371  12.108  0.3095  1.0546  0.3883
 1342TIP3    H225518   1.176   4.499  12.093 -1.0551  0.2956  0.9528
 1343TIP3   OH225519   4.119   5.418  11.242  0.0598  0.3733  0.2057
 1343TIP3    H125520   4.114   5.461  11.327  0.8747  1.8758 -0.4580
 1343TIP3    H225521   4.113   5.490  11.179  3.6211 -0.1582 -0.9388
 1344TIP3   OH225522   6.482   5.804   2.622  0.3103 -0.2545 -0.1790
 1344TIP3    H125523   6.538   5.868   2.666 -3.0021  1.3646  2.0541
 1344TIP3    H225524   6.427   5.856   2.564  1.8451 -1.9598 -3.4231
 1345TIP3   OH225525   4.789   2.658   3.574  0.4021 -0.0631 -0.1622
 1345TIP3    H125526   4.788   2.754   3.573 -2.8432  0.0187 -0.8252
 1345TIP3    H225527   4.777   2.635   3.666  0.7401  0.1652 -0.0586
 1346TIP3   OH225528   4.857   5.241  11.493 -0.0249  0.4571 -0.2488
 1346TIP3    H125529   4.919   5.226  11.422 -1.8272  1.4456 -2.1277
 1346TIP3    H225530   4.781   5.187  11.471 -0.8494  1.2287  0.6028
 1347TIP3   OH225531   3.632   6.699   6.448  0.0696  0.1513  0.1817
 1347TIP3    H125532   3.587   6.778   6.419 -1.0728 -0.6465 -0.2940
 1347TIP3    H225533   3.608   6.689   6.540 -0.7697 -0.2892 -0.0790
 1348TIP3   OH225534   6.490   6.049   5.540 -0.0304  0.7094 -0.7375
 1348TIP3    H125535   6.550   6.066   5.612  0.8481 -0.4423 -1.1625
 1348TIP3    H225536   6.420   6.113   5.552  0.4651  1.0312  0.6942
 1349TIP3   OH225537   3.385   2.390  11.243 -0.2107  0.6097 -0.0945
 1349TIP3    H125538   3.354   2.363  11.157  1.3104 -0.6017 -0.3208
 1349TIP3    H225539   3.341   2.473  11.260 -1.2532  0.4077 -1.6162
 1350TIP3   OH225540   0.115   3.204  10.778 -0.1235  0.3260 -0.3688
 1350TIP3    H125541   0.098   3.120  10.735  0.2055  0.2185 -0.2863
 1350TIP3    H225542   0.052   3.264  10.737 -2.1496 -0.4968  1.3293
 1351TIP3   OH225543   1.805   1.093  14.287 -0.4217  0.1447  0.3451
 1351TIP3    H125544   1.780   1.016  14.339 -0.2344  0.2635  0.6108
 1351TIP3    H225545   1.898   1.080  14.269 -0.4103  0.2685  0.3189
 1352TIP3   OH225546   5.902   0.367  11.433 -0.3108 -0.5942  0.1718
 1352TIP3    H125547   5.961   0.300  11.468  0.8313  0.5017  0.4221
 1352TIP3    H225548   5.958   0.420  11.376 -1.8573 -1.6918 -2.6066
 1353TIP3   OH225549   1.566   3.104   0.280  0.0986  0.1102 -0.4403
 1353TIP3    H125550   1.494   3.122   0.340  0.0280  0.8069 -0.7223
 1353TIP3    H225551   1.643   3.095   0.337 -0.5617 -3.2224  0.1302
 1354TIP3   OH225552   3.186   0.788   3.678 -0.9079  0.3495 -0.0059
 1354TIP3    H125553   3.130   0.857   3.641  0.6775  1.4783 -0.4275
 1354TIP3    H225554   3.145   0.768   3.763 -1.4265  1.8354  0.1386
 1355TIP3   OH225555   6.262   2.689  14.346  0.4035 -0.4016 -0.2876
 1355TIP3    H125556   6.326   2.652  14.285  1.8728 -0.1154  1.0316
 1355TIP3    H225557   6.249   2.621  14.412 -0.3533 -0.2931 -0.3155
 1356TIP3   OH225558   1.468   5.294   0.811  0.4507  0.0538 -0.1852
 1356TIP3    H125559   1.513   5.377   0.824  0.8772 -0.2279  0.1777
 1356TIP3    H225560   1.400   5.313   0.745  1.1672  0.4543 -0.8229
 1357TIP3   OH225561   2.145   5.532   5.948  0.1293  0.3786  0.0811
 1357TIP3    H125562   2.170   5.500   6.035  1.3683  0.9186 -0.0577
 1357TIP3    H225563   2.082   5.467   5.916  2.0005 -1.5839  0.1057
 1358TIP3   OH225564   5.433   4.746   4.264  0.0918 -0.0335  0.3429
 1358TIP3    H125565   5.365   4.813   4.259  0.1337 -0.0470 -0.6743
 1358TIP3    H225566   5.487   4.761   4.186  0.2274 -1.1188  0.2166
 1359TIP3   OH225567   6.760   3.461  13.497  0.3719  0.0765  0.7208
 1359TIP3    H125568   6.824   3.474  13.566 -0.3257  3.9263  0.8669
 1359TIP3    H225569   6.780   3.529  13.432 -2.2909  0.1421 -0.1782
 1360TIP3   OH225570   3.781   4.122   1.247  0.2785  0.2262 -0.1410
 1360TIP3    H125571   3.711   4.075   1.294  0.0203  0.4206 -0.3266
 1360TIP3    H225572   3.805   4.065   1.175 -0.9626  0.9311 -1.1663
 1361TIP3   OH225573   3.473   0.102   3.837  0.7292  0.3091  0.0755
 1361TIP3    H125574   3.457   0.016   3.876 -0.6503  0.3691 -0.3009
 1361TIP3    H225575   3.548   0.089   3.780  1.3556 -0.3214  1.0193
 1362TIP3   OH225576   3.173   5.885   5.464  0.3108  0.1271 -0.1783
 1362TIP3    H125577   3.252   5.832   5.458 -0.3311 -0.7848 -0.8253
 1362TIP3    H225578   3.106   5.824   5.496  0.6411  1.7099  4.2113
 1363TIP3   OH225579   3.324   1.678   4.110  0.2859  0.5415 -0.3802
 1363TIP3    H125580   3.233   1.691   4.083 -0.0009  0.0292  0.3054
 1363TIP3    H225581   3.319   1.616   4.183  1.5156 -3.2993 -3.2117
 1364TIP3   OH225582   2.192   4.878   2.421  0.3398 -0.5924 -0.1440
 1364TIP3    H125583   2.177   4.944   2.354  0.0932 -0.5777 -0.0749
 1364TIP3    H225584   2.167   4.921   2.503  3.8441  0.6352  0.4650
 1365TIP3   OH225585   2.680   4.489   6.378 -0.4631  0.5602  0.0646
 1365TIP3    H125586   2.713   4.577   6.357  2.2800  0.0637  1.8178
 1365TIP3    H225587   2.708   4.435   6.304 -0.7288  0.8472 -0.2500
 1366TIP3   OH225588   1.232   1.822   4.055 -0.0247 -0.0666  0.1196
 1366TIP3    H125589   1.271   1.888   4.113 -2.1660  1.6917 -0.3235
 1366TIP3    H225590   1.262   1.847   3.968 -2.3891  1.6478 -0.2979
 1367TIP3   OH225591   3.848   5.794   1.218 -0.6336 -0.0958 -0.1008
 1367TIP3    H125592   3.940   5.775   1.235 -0.7242 -0.5203 -0.0730
 1367TIP3    H225593   3.836   5.884   1.249  0.3155  0.8203 -2.1615
 1368TIP3   OH225594   6.814   1.923  11.572 -0.0684  0.0937  0.0483
 1368TIP3    H125595   6.890   1.945  11.625  1.5547  0.1502 -2.1813
 1368TIP3    H225596   6.757   1.874  11.631  1.7992 -0.1881  1.7156
 1369TIP3   OH225597   3.897   0.383  16.144 -0.1073  0.1364  0.0905
 1369TIP3    H125598   3.938   0.332  16.073  0.3544  0.2846  0.2472
 1369TIP3    H225599   3.809   0.346  16.151 -0.1805  0.1590 -0.6015
 1370TIP3   OH225600   1.895   1.650  11.582  0.0006  0.2073  0.4876
 1370TIP3    H125601   1.923   1.615  11.667 -1.4537  0.0800  0.9596
 1370TIP3    H225602   1.965   1.628  11.522  0.4101 -1.0139  1.3699
 1371TIP3   OH225603   4.257   4.040  13.187  0.3844  0.6221  0.1960
 1371TIP3    H125604   4.303   3.957  13.200 -0.1530  0.3277  0.2234
 1371TIP3    H225605   4.250   4.078  13.274  1.5357  1.1894  0.0621
 1372TIP3   OH225606   3.494   3.997   3.714 -0.3883  0.6813  0.3935
 1372TIP3    H125607   3.568   3.941   3.690 -0.5980 -0.0279  1.3451
 1372TIP3    H225608   3.516   4.030   3.801 -0.7208  1.2967  0.2503
 1373TIP3   OH225609   0.482   2.207  12.088 -0.1688 -0.4063  0.1128
 1373TIP3    H125610   0.564   2.224  12.134  0.6133 -1.5867 -0.7793
 1373TIP3    H225611   0.462   2.116  12.107  0.0915 -0.8894 -1.6620
 1374TIP3   OH225612   1.954   0.312  14.772 -0.3660  0.6820  0.0307
 1374TIP3    H125613   1.883   0.304  14.836  1.1747 -2.9538  1.5652
 1374TIP3    H225614   2.010   0.381  14.807 -0.8434  0.4776  1.2555
 1375TIP3   OH225615   0.447   6.068   3.728  0.1140 -0.1500 -0.2008
 1375TIP3    H125616   0.519   6.046   3.788  0.8809  1.1429 -0.6117
 1375TIP3    H225617   0.371   6.023   3.765  0.7442 -0.0746  1.2603
 1376TIP3   OH225618   6.315   4.637  13.510  0.2370 -0.0138  0.5461
 1376TIP3    H125619   6.277   4.556  13.477 -1.1835 -0.0295  2.0556
 1376TIP3    H225620   6.409   4.624  13.505  0.0414 -1.1231 -0.6907
 1377TIP3   OH225621   5.429   6.371  16.905  0.5346 -0.0336  0.0363
 1377TIP3    H125622   5.391   6.413  16.827  0.7780  2.7150  1.3049
 1377TIP3    H225623   5.357   6.365  16.967  0.7245 -0.7443  0.2055
 1378TIP3   OH225624   6.345   0.091   3.932 -0.1780 -0.1820 -0.5220
 1378TIP3    H125625   6.437   0.109   3.951 -0.3765  0.7094 -0.3493
 1378TIP3    H225626   6.338  -0.004   3.937  0.4337 -0.1808  0.9292
 1379TIP3   OH225627   2.407   0.320   1.626  0.0897  0.0704 -0.1838
 1379TIP3    H125628   2.462   0.380   1.576 -0.5112 -0.4323 -1.4856
 1379TIP3    H225629   2.368   0.262   1.560 -1.7413  0.2024  0.7131
 1380TIP3   OH225630   2.723   0.743   5.880 -0.2335  0.2597  0.4287
 1380TIP3    H125631   2.694   0.666   5.930  1.6294 -0.7096  0.0755
 1380TIP3    H225632   2.719   0.815   5.943 -0.2272 -0.4819  1.2955
 1381TIP3   OH225633   5.952   4.433  15.305 -0.4804  0.1702 -0.2860
 1381TIP3    H125634   6.015   4.495  15.270 -0.1289 -0.1697 -0.2659
 1381TIP3    H225635   5.963   4.438  15.400  0.1727 -0.5613 -0.3187
 1382TIP3   OH225636   5.451   5.267  14.400 -0.1499 -0.1714 -0.3951
 1382TIP3    H125637   5.454   5.327  14.474 -0.7165 -0.3998 -0.1844
 1382TIP3    H225638   5.358   5.255  14.382 -0.0311 -0.5873 -0.7596
 1383TIP3   OH225639   3.536   5.593  13.654  0.8957 -0.5756 -0.1899
 1383TIP3    H125640   3.531   5.638  13.570  1.2029  2.1631  1.1763
 1383TIP3    H225641   3.464   5.629  13.705  2.0888 -0.4634  1.4958
 1384TIP3   OH225642   1.325   2.135  16.599  0.0007 -0.5681  0.1085
 1384TIP3    H125643   1.391   2.075  16.632 -0.3015 -0.5440  0.7694
 1384TIP3    H225644   1.363   2.171  16.519  2.0547  1.6330  1.9349
 1385TIP3   OH225645   5.547   2.516   0.720 -0.0002 -0.1233  0.0954
 1385TIP3    H125646   5.606   2.440   0.721 -0.2218 -0.3781  3.2623
 1385TIP3    H225647   5.524   2.530   0.811  0.7070  4.3465 -0.1783
 1386TIP3   OH225648   2.256   3.107   0.940  0.3992 -0.1825 -0.2915
 1386TIP3    H125649   2.299   3.189   0.917  1.5552 -0.6350  0.2279
 1386TIP3    H225650   2.301   3.041   0.887 -0.9755 -0.4255 -1.2341
 1387TIP3   OH225651   0.286   2.116   1.158  0.1522 -0.5083 -0.2706
 1387TIP3    H125652   0.198   2.077   1.165 -0.4398  0.4291 -2.0667
 1387TIP3    H225653   0.286   2.186   1.224  0.1283 -1.5027  0.8172
 1388TIP3   OH225654   0.678   4.361  13.582 -0.6293  0.0128  0.2153
 1388TIP3    H125655   0.678   4.449  13.619  3.0707  0.0870  0.3862
 1388TIP3    H225656   0.665   4.303  13.657 -1.1602  0.3314  0.3767
 1389TIP3   OH225657   4.356   6.513  14.113 -0.3385 -0.6331 -0.2303
 1389TIP3    H125658   4.294   6.452  14.072  0.0738  0.4254 -2.6183
 1389TIP3    H225659   4.369   6.581  14.047  1.1154  0.7417  1.3781
 1390TIP3   OH225660   0.154   6.133   0.898  0.1830  0.7682  0.1046
 1390TIP3    H125661   0.127   6.191   0.969 -0.0373 -1.0157  1.5280
 1390TIP3    H225662   0.098   6.057   0.906  0.9871 -0.0074 -1.2432
 1391TIP3   OH225663   2.316   2.266   1.196 -0.2786  0.1375 -0.3475
 1391TIP3    H125664   2.318   2.173   1.219 -1.3127  0.0939 -0.3817
 1391TIP3    H225665   2.376   2.307   1.258 -0.4848 -0.4372  0.2525
 1392TIP3   OH225666   1.048   3.720  13.455 -0.0885 -0.4593 -0.5268
 1392TIP3    H125667   1.076   3.725  13.364  2.8561  1.4261  0.3653
 1392TIP3    H225668   1.032   3.811  13.480  1.1140 -0.7215  1.3513
 1393TIP3   OH225669   5.548   1.049  13.099 -0.3470  0.1147 -0.2478
 1393TIP3    H125670   5.523   1.012  13.014 -1.2228  0.5675 -0.1960
 1393TIP3    H225671   5.487   1.121  13.113  0.9523  1.2314 -0.0732
 1394TIP3   OH225672   6.344   4.912   1.441  0.4463 -0.2961 -0.2290
 1394TIP3    H125673   6.309   5.000   1.449 -0.6981 -0.7627  0.2497
 1394TIP3    H225674   6.437   4.921   1.458  0.4414  0.8965 -0.7652
 1395TIP3   OH225675   6.575   2.808  12.527  0.3096  0.2518 -0.0783
 1395TIP3    H125676   6.617   2.751  12.462  1.4599  0.0911  0.7640
 1395TIP3    H225677   6.561   2.752  12.603 -1.6075  0.2734 -0.3673
 1396TIP3   OH225678   1.840   0.565   4.110  0.0570 -0.1915  0.7462
 1396TIP3    H125679   1.769   0.627   4.128  0.9474  1.1173 -0.0639
 1396TIP3    H225680   1.896   0.610   4.047  0.8882 -1.7368  0.3255
 1397TIP3   OH225681   2.488   3.766   3.978  0.3926  0.0738  0.0233
 1397TIP3    H125682   2.441   3.849   3.987 -0.0602 -0.1059 -0.6152
 1397TIP3    H225683   2.419   3.701   3.966  0.6824 -0.5524  1.4690
 1398TIP3   OH225684   4.173   5.829  13.896  0.1601 -0.0278  0.0481
 1398TIP3    H125685   4.128   5.766  13.840  1.9126 -0.3669 -1.0460
 1398TIP3    H225686   4.221   5.775  13.959  1.8445  0.1173 -1.0282
 1399TIP3   OH225687   5.483   4.839   4.966  0.5984  0.0250 -0.0091
 1399TIP3    H125688   5.391   4.842   4.938  0.5168  2.0087  0.3871
 1399TIP3    H225689   5.533   4.856   4.887  0.7190 -1.8262 -0.3934
 1400TIP3   OH225690   5.977   0.999   3.358 -0.3779  0.1189  0.0899
 1400TIP3    H125691   6.051   0.973   3.413 -0.2211 -1.2836 -0.7093
 1400TIP3    H225692   6.016   1.054   3.290 -0.0078 -0.7691 -0.4358
 1401TIP3   OH225693   4.679   5.465   3.113  0.4465 -0.0248 -0.4331
 1401TIP3    H125694   4.612   5.487   3.049 -0.3679 -0.1210  0.3560
 1401TIP3    H225695   4.706   5.549   3.150 -1.8275 -0.1298  1.7545
 1402TIP3   OH225696   5.052   0.338  13.875 -0.2288 -0.4222 -0.2370
 1402TIP3    H125697   5.017   0.424  13.852 -0.3338 -0.3451  0.1915
 1402TIP3    H225698   5.068   0.344  13.970 -1.0033 -1.1383 -0.0521
 1403TIP3   OH225699   1.466   3.865  15.629  0.2345 -0.0724  1.0106
 1403TIP3    H125700   1.475   3.861  15.534  0.0876 -1.3278  1.0277
 1403TIP3    H225701   1.481   3.956  15.652 -0.2051  0.3331 -0.2676
 1404TIP3   OH225702   5.194   2.953  16.901 -0.0244 -0.5357 -0.1020
 1404TIP3    H125703   5.286   2.980  16.905 -0.0959 -0.2750 -0.1640
 1404TIP3    H225704   5.165   2.980  16.814 -0.5092  0.5545  0.3696
 1405TIP3   OH225705   1.591   1.301  13.724 -0.6698 -0.4747 -0.0725
 1405TIP3    H125706   1.551   1.295  13.811 -1.0064 -0.4071 -0.2206
 1405TIP3    H225707   1.679   1.267  13.736 -1.1128 -1.6377  0.0448
 1406TIP3   OH225708   2.319   2.788   4.617 -0.0936 -0.5757 -0.1438
 1406TIP3    H125709   2.326   2.875   4.576  1.4034  0.5725  2.2738
 1406TIP3    H225710   2.250   2.798   4.683 -0.7591 -1.6339 -0.6511
 1407TIP3   OH225711   2.845   0.620   5.233  0.0411  0.4631 -0.0316
 1407TIP3    H125712   2.889   0.560   5.173 -0.0525 -0.2956  0.6428
 1407TIP3    H225713   2.811   0.689   5.177 -0.2666 -0.3599 -0.8865
 1408TIP3   OH225714   3.709   1.645   6.210  0.2946  0.3362 -0.3120
 1408TIP3    H125715   3.673   1.619   6.294  1.4856  1.4802  0.5954
 1408TIP3    H225716   3.633   1.659   6.153 -0.4870 -1.1309  0.3530
 1409TIP3   OH225717   5.845   1.199   1.915  0.6077 -0.0323  0.7912
 1409TIP3    H125718   5.850   1.160   1.828  0.6098  3.2423 -0.7910
 1409TIP3    H225719   5.771   1.156   1.957 -1.3808  0.4567 -2.0073
 1410TIP3   OH225720   1.280   4.971   4.556  0.4946  0.1008  0.5244
 1410TIP3    H125721   1.318   4.972   4.643 -0.1261  0.5509  0.7950
 1410TIP3    H225722   1.285   4.879   4.528 -0.1297 -0.2135  1.4037
 1411TIP3   OH225723   1.552   1.639  16.280  0.1774  0.2963  0.3531
 1411TIP3    H125724   1.588   1.573  16.340  0.3047  0.1110  0.0762
 1411TIP3    H225725   1.602   1.627  16.199 -0.9655 -0.4304 -0.2710
 1412TIP3   OH225726   6.280   2.963   1.897 -0.7126 -0.0299  0.1992
 1412TIP3    H125727   6.227   2.984   1.974 -1.8564 -1.3704 -0.1787
 1412TIP3    H225728   6.272   3.040   1.840  0.3866  1.1032  1.4895
 1413TIP3   OH225729   2.452   4.656  12.721 -0.2112  0.0838  0.5477
 1413TIP3    H125730   2.433   4.565  12.742  2.0633  0.0102  2.7860
 1413TIP3    H225731   2.419   4.706  12.796  2.4834  0.5452  1.5319
 1414TIP3   OH225732   4.879   4.935  17.004  0.2283 -0.8343 -0.1172
 1414TIP3    H125733   4.893   4.853  17.051  1.4802 -0.2580  0.5626
 1414TIP3    H225734   4.938   4.997  17.046  0.4546  0.0275 -1.6334
 1415TIP3   OH225735   3.212   6.834   3.985  0.0864  0.4118  0.0458
 1415TIP3    H125736   3.214   6.751   3.937  0.1471  0.7477 -0.5522
 1415TIP3    H225737   3.160   6.892   3.929  1.2131  1.1858 -0.2389
 1416TIP3   OH225738   6.531   5.175   6.159  0.6003 -0.2125  0.0871
 1416TIP3    H125739   6.532   5.137   6.247 -1.1727 -0.7569 -0.0828
 1416TIP3    H225740   6.623   5.173   6.131  1.4752  1.4594  2.5019
 1417TIP3   OH225741   4.822   6.717   2.589 -0.2986 -0.0958  0.7292
 1417TIP3    H125742   4.822   6.645   2.526 -0.6629  1.3316 -0.9834
 1417TIP3    H225743   4.913   6.749   2.589 -0.2216 -0.3094  1.1999
 1418TIP3   OH225744   0.780   5.872   0.832 -0.1063  0.1004  0.1849
 1418TIP3    H125745   0.734   5.876   0.748  1.7369  1.1597 -0.8403
 1418TIP3    H225746   0.853   5.812   0.817  1.1453  1.4572  0.4859
 1419TIP3   OH225747   0.655   0.182   5.578 -0.3080  0.5080  0.2382
 1419TIP3    H125748   0.571   0.227   5.563  1.0354  3.5303  1.0386
 1419TIP3    H225749   0.719   0.253   5.582  2.4538 -1.7345 -1.0692
 1420TIP3   OH225750   1.166   0.367  12.774  0.4009 -0.2175 -0.6462
 1420TIP3    H125751   1.226   0.338  12.843 -0.2893  1.0975  0.5468
 1420TIP3    H225752   1.147   0.458  12.796  0.6586  0.4485 -2.9465
 1421TIP3   OH225753   4.278   2.680   1.797 -0.2551  0.1725  0.1267
 1421TIP3    H125754   4.355   2.702   1.850 -0.5292 -2.4465  1.8286
 1421TIP3    H225755   4.210   2.741   1.827  1.2986  3.2929 -2.2075
 1422TIP3   OH225756   2.867   6.371   1.982 -0.0818 -0.3754  0.6026
 1422TIP3    H125757   2.845   6.324   1.901 -0.2220 -0.6679  0.8080
 1422TIP3    H225758   2.912   6.450   1.952  1.0551 -1.1198  0.2747
 1423TIP3   OH225759   0.414   4.101  16.380 -0.3962 -0.2214  0.1066
 1423TIP3    H125760   0.429   4.176  16.438  1.1839 -1.3876  1.3043
 1423TIP3    H225761   0.322   4.079  16.394 -0.2749  0.0514  1.5569
 1424TIP3   OH225762   5.106   3.074  12.254  0.2252 -0.2828  0.4571
 1424TIP3    H125763   5.032   3.018  12.276 -0.1806 -0.6720 -1.6536
 1424TIP3    H225764   5.135   3.110  12.337 -1.2527 -1.4663  1.5354
 1425TIP3   OH225765   2.488   5.327  15.749  0.1416 -0.0673  0.3186
 1425TIP3    H125766   2.434   5.276  15.810  0.5103  1.8422  2.3942
 1425TIP3    H225767   2.461   5.297  15.662 -1.6173 -1.7671  1.3640
 1426TIP3   OH225768   6.149   6.445  11.337  0.6341 -0.2007 -0.2043
 1426TIP3    H125769   6.189   6.522  11.378 -1.0021  1.4893 -1.5664
 1426TIP3    H225770   6.222   6.400  11.294  1.8244 -0.1444  1.6378
 1427TIP3   OH225771   3.296   1.705   4.603 -0.0457  0.0630 -0.2685
 1427TIP3    H125772   3.374   1.682   4.654  0.6585 -0.5497 -1.5609
 1427TIP3    H225773   3.232   1.637   4.625  0.0719  0.0865  0.1593
 1428TIP3   OH225774   4.849   0.323   2.745 -0.3478 -0.5087  0.2736
 1428TIP3    H125775   4.909   0.275   2.688  0.2132  0.4834  0.0161
 1428TIP3    H225776   4.904   0.387   2.789 -0.8466 -1.0045  1.6556
 1429TIP3   OH225777   5.832   3.074  16.548 -0.2140  0.4728  0.1396
 1429TIP3    H125778   5.756   3.110  16.595 -0.4888 -0.6872  0.5985
 1429TIP3    H225779   5.905   3.083  16.610 -0.0437  1.2425 -0.1623
 1430TIP3   OH225780   6.179   4.282   0.595  0.0822  0.7716 -0.4209
 1430TIP3    H125781   6.194   4.190   0.620  0.8552  0.2529 -2.5777
 1430TIP3    H225782   6.097   4.305   0.640  0.3780 -0.6352  0.9545
 1431TIP3   OH225783   0.924   2.465  12.451  0.1056 -0.2206 -0.7450
 1431TIP3    H125784   1.013   2.498  12.463  0.5134 -1.3548 -0.6098
 1431TIP3    H225785   0.882   2.480  12.536  1.4861 -3.5948  0.6796
 1432TIP3   OH225786   4.568   5.752   2.107 -0.6242 -0.5436  0.3374
 1432TIP3    H125787   4.514   5.690   2.058  0.7328 -1.8795  0.4569
 1432TIP3    H225788   4.643   5.700   2.136  1.0134  1.3406 -0.2915
 1433TIP3   OH225789   0.755   5.229   3.844  0.4943  0.3197 -0.0902
 1433TIP3    H125790   0.692   5.300   3.834 -0.6454 -0.8434 -1.7409
 1433TIP3    H225791   0.840   5.272   3.852 -0.1120  1.8511 -1.4826
 1434TIP3   OH225792   6.018   3.090  11.914 -0.0040 -0.3021  0.2470
 1434TIP3    H125793   5.990   3.000  11.895 -0.4886 -0.2233  0.5625
 1434TIP3    H225794   5.945   3.127  11.963 -0.0141  0.4226 -0.3056
 1435TIP3   OH225795   6.557   1.129   5.632  0.2684 -0.0491 -0.0464
 1435TIP3    H125796   6.559   1.131   5.536  3.5073  1.9102 -0.0840
 1435TIP3    H225797   6.497   1.200   5.656  0.3449  0.2368 -0.6671
 1436TIP3   OH225798   4.920   0.786  14.064  0.3285  0.1159  0.3440
 1436TIP3    H125799   4.927   0.878  14.038  0.0384 -0.7503 -3.3866
 1436TIP3    H225800   4.829   0.775  14.091  0.6349  1.0806  1.9178
 1437TIP3   OH225801   6.564   2.404   0.638 -0.1467 -0.0392  0.8973
 1437TIP3    H125802   6.478   2.398   0.597 -1.0755  2.2430  2.2962
 1437TIP3    H225803   6.594   2.313   0.645 -2.8119 -0.9931  1.0839
 1438TIP3   OH225804   6.115   2.603   4.007  0.0525 -0.2544  0.4245
 1438TIP3    H125805   6.021   2.587   4.005 -0.2973  1.5767 -0.9296
 1438TIP3    H225806   6.124   2.698   4.000  2.0047 -0.3823  0.4265
 1439TIP3   OH225807   4.967   0.799  11.651  0.8988  0.5185 -0.4400
 1439TIP3    H125808   4.874   0.787  11.670  0.9374  0.7575 -0.0940
 1439TIP3    H225809   5.007   0.714  11.668  0.7984  0.5101 -0.2414
 1440TIP3   OH225810   5.507   0.102  15.076 -0.3822 -0.0078 -0.0904
 1440TIP3    H125811   5.483   0.039  15.145  1.0177  0.2819  0.6918
 1440TIP3    H225812   5.602   0.110  15.083 -0.4556  1.6192 -0.6915
 1441TIP3   OH225813   3.864   1.063   1.905  0.2310 -0.6312  0.1309
 1441TIP3    H125814   3.803   0.990   1.913 -1.0494  0.5605  1.9810
 1441TIP3    H225815   3.831   1.114   1.831 -0.1701 -0.7464  0.2292
 1442TIP3   OH225816   4.252   1.200   3.150  0.3246 -0.1328 -0.5369
 1442TIP3    H125817   4.174   1.145   3.142  0.1416  0.1324 -0.6074
 1442TIP3    H225818   4.322   1.140   3.173 -0.0394 -0.2716  0.2194
 1443TIP3   OH225819   6.678   4.325  13.694 -0.5297  0.5350  0.0231
 1443TIP3    H125820   6.609   4.331  13.760 -0.1007  0.4388  0.4825
 1443TIP3    H225821   6.749   4.380  13.727  0.4339 -0.9853  0.5854
 1444TIP3   OH225822   4.563   2.300  11.928 -0.3036  0.3327 -0.1568
 1444TIP3    H125823   4.510   2.243  11.873  0.4758  0.9077 -1.5490
 1444TIP3    H225824   4.566   2.383  11.881 -0.8651  1.3408  1.5088
 1445TIP3   OH225825   4.758   0.242   1.901  0.0208  0.2810  0.5326
 1445TIP3    H125826   4.846   0.272   1.925 -0.8291  2.5080  1.1410
 1445TIP3    H225827   4.701   0.280   1.968 -1.3859 -1.4350  0.3693
 1446TIP3   OH225828   2.412   6.671  13.999 -0.4938 -0.3655  0.4454
 1446TIP3    H125829   2.496   6.655  14.041 -0.3155 -0.6523 -0.0209
 1446TIP3    H225830   2.432   6.730  13.926 -0.5223 -1.2681 -0.3144
 1447TIP3   OH225831   5.650   1.717  16.303  0.2394 -0.1241  0.3001
 1447TIP3    H125832   5.580   1.651  16.309 -0.1489  0.2799  0.2849
 1447TIP3    H225833   5.712   1.680  16.241  0.7868 -1.1621  1.4272
 1448TIP3   OH225834   6.132   3.975   4.941 -0.5065 -0.8250 -0.3494
 1448TIP3    H125835   6.193   3.906   4.968  1.2516  0.8575  0.1664
 1448TIP3    H225836   6.133   3.973   4.845 -0.7960 -1.7640 -0.3403
 1449TIP3   OH225837   1.998   3.494   0.622 -0.1932  0.1537  0.3009
 1449TIP3    H125838   2.021   3.584   0.597  0.7935 -0.6230 -1.8650
 1449TIP3    H225839   1.904   3.496   0.638 -0.1578  1.5969  0.4358
 1450TIP3   OH225840   0.439   5.048  14.377  0.2021 -0.2195 -0.4342
 1450TIP3    H125841   0.346   5.044  14.356 -0.3556  1.2224  1.4858
 1450TIP3    H225842   0.470   5.129  14.338  0.5224 -0.3948 -0.5545
 1451TIP3   OH225843   4.240   5.910  15.091 -0.0512  0.0794 -0.2592
 1451TIP3    H125844   4.303   5.887  15.022 -0.5160  2.0207 -1.3996
 1451TIP3    H225845   4.210   5.998  15.068 -0.8314  0.4804  2.0089
 1452TIP3   OH225846   1.024   0.748  11.278  0.0896  0.3545 -0.3604
 1452TIP3    H125847   0.943   0.711  11.242  0.7452 -0.9027 -0.5878
 1452TIP3    H225848   1.063   0.797  11.205  0.6654 -0.9408 -0.9394
 1453TIP3   OH225849   6.414   2.461  12.950  0.2104  0.4085  0.4202
 1453TIP3    H125850   6.477   2.496  13.013  0.4471 -0.6659  0.7850
 1453TIP3    H225851   6.381   2.381  12.990 -1.5525  1.0567  0.3202
 1454TIP3   OH225852   6.064   3.860  16.929  0.0786  0.7038 -0.1024
 1454TIP3    H125853   6.135   3.921  16.907  0.3554 -0.4680 -2.7563
 1454TIP3    H225854   5.996   3.878  16.864 -0.4535 -0.8143  0.0017
 1455TIP3   OH225855   3.301   0.336   0.633  0.0634  0.2167 -0.1292
 1455TIP3    H125856   3.245   0.272   0.676  2.0521 -1.1969  0.4963
 1455TIP3    H225857   3.348   0.379   0.705 -0.0058  1.1905 -0.6445
 1456TIP3   OH225858   1.117   1.760   4.724  0.6665  0.2282 -0.1034
 1456TIP3    H125859   1.132   1.817   4.649  1.5409  0.0191 -0.0972
 1456TIP3    H225860   1.088   1.677   4.686 -0.0251  0.4808 -0.1417
 1457TIP3   OH225861   3.641   3.706   6.948 -0.3826 -0.2128 -0.3397
 1457TIP3    H125862   3.583   3.779   6.969 -1.0220 -0.9738  0.6646
 1457TIP3    H225863   3.727   3.733   6.981 -0.4905  0.3069 -0.4797
 1458TIP3   OH225864   5.822   3.821  13.609  0.1832 -0.0025  0.3284
 1458TIP3    H125865   5.855   3.904  13.643 -0.8326 -0.0666  1.5330
 1458TIP3    H225866   5.756   3.847  13.545 -0.1156  0.1266  0.6843
 1459TIP3   OH225867   4.903   3.424  14.268  0.5438  0.6465  0.3089
 1459TIP3    H125868   4.978   3.392  14.318 -0.4151 -0.7956  0.9019
 1459TIP3    H225869   4.840   3.453  14.335  0.3561  1.3298 -0.1570
 1460TIP3   OH225870   5.609   5.559  11.507 -0.0425  0.0965 -0.5030
 1460TIP3    H125871   5.522   5.545  11.543  0.2792 -1.2912 -0.1979
 1460TIP3    H225872   5.594   5.604  11.424 -1.1273 -0.8349 -0.8372
 1461TIP3   OH225873   1.830   1.351  13.903 -0.1018 -0.4369  0.4755
 1461TIP3    H125874   1.862   1.261  13.904 -0.9685 -0.7622  1.7908
 1461TIP3    H225875   1.895   1.400  13.954  1.0712 -0.0149 -1.3300
 1462TIP3   OH225876   5.792   3.312   1.899 -0.1268  0.0090 -0.5744
 1462TIP3    H125877   5.882   3.343   1.907 -1.0104  2.6089  0.3553
 1462TIP3    H225878   5.741   3.371   1.955 -2.1243 -2.8303  0.8665
 1463TIP3   OH225879   0.190   3.550  12.884  0.5437 -0.5659  0.4561
 1463TIP3    H125880   0.278   3.516  12.869  0.1661 -0.7312 -1.7241
 1463TIP3    H225881   0.190   3.636  12.842  0.2391  0.3750  2.2713
 1464TIP3   OH225882   0.601   4.733  16.812  0.7979  0.2661  0.1827
 1464TIP3    H125883   0.654   4.750  16.734  0.5078 -0.3284 -0.1486
 1464TIP3    H225884   0.658   4.683  16.870  0.4777 -0.7426 -0.3495
 1465TIP3   OH225885   0.156   2.640  13.307 -0.3897  0.1043  0.1858
 1465TIP3    H125886   0.161   2.733  13.326  1.5938 -0.0643  0.6973
 1465TIP3    H225887   0.239   2.604  13.340 -0.8394 -1.7262 -0.5580
 1466TIP3   OH225888   2.811   1.388  16.394 -0.0203 -0.0581 -0.3988
 1466TIP3    H125889   2.906   1.394  16.381  0.2974 -0.4141  1.4754
 1466TIP3    H225890   2.793   1.454  16.461 -1.4156  1.2519 -1.9704
 1467TIP3   OH225891   1.154   4.879   1.919 -0.3952  0.1424  0.3481
 1467TIP3    H125892   1.233   4.905   1.968 -1.6106  1.2569  1.8192
 1467TIP3    H225893   1.141   4.949   1.856  1.1616 -1.2866 -1.7060
 1468TIP3   OH225894   5.405   6.215  15.910  0.3610  0.3845 -0.1558
 1468TIP3    H125895   5.455   6.211  15.992 -0.1823  0.3216  0.1726
 1468TIP3    H225896   5.321   6.252  15.935  0.4136  0.9565 -0.7961
 1469TIP3   OH225897   4.389   3.991   2.510  0.1511  0.1086  0.2667
 1469TIP3    H125898   4.387   4.067   2.567 -0.3432 -0.1906  0.6582
 1469TIP3    H225899   4.444   3.927   2.555 -1.0810 -0.5191  0.9347
 1470TIP3   OH225900   2.266   3.662   5.540 -0.4099  0.0271 -0.1638
 1470TIP3    H125901   2.262   3.602   5.466  1.5458 -1.1750  0.6308
 1470TIP3    H225902   2.325   3.732   5.511 -1.0735  0.5062 -0.3686
 1471TIP3   OH225903   5.601   3.594  14.885 -0.0910 -0.6451 -0.4121
 1471TIP3    H125904   5.691   3.596  14.916 -0.1422 -1.2832 -0.1898
 1471TIP3    H225905   5.548   3.613  14.962 -0.1841 -1.3622 -0.2919
 1472TIP3   OH225906   3.705   0.166   5.633 -0.2618  0.5067  0.0873
 1472TIP3    H125907   3.640   0.096   5.632  0.4785 -0.3194  2.6247
 1472TIP3    H225908   3.732   0.176   5.542 -2.2936 -0.6530 -0.7008
 1473TIP3   OH225909   0.433   3.983   3.980 -0.1038 -0.5256  0.3788
 1473TIP3    H125910   0.521   3.980   3.944 -0.4508 -0.0933 -0.5579
 1473TIP3    H225911   0.378   4.011   3.906 -1.1520 -1.6505  0.7075
 1474TIP3   OH225912   2.354   5.150  14.682  0.0874  0.2993 -0.0495
 1474TIP3    H125913   2.330   5.240  14.662  0.5564  0.0317 -1.9810
 1474TIP3    H225914   2.271   5.104  14.690 -0.1399  0.6204 -0.5056
 1475TIP3   OH225915   4.222   2.855  17.171  0.5289 -0.1911  0.5342
 1475TIP3    H125916   4.150   2.801  17.139  0.5912 -0.4055  0.7516
 1475TIP3    H225917   4.299   2.799  17.161  0.3485 -0.9041  2.5657
 1476TIP3   OH225918   5.973   0.367  14.101  0.1747 -0.8138 -0.0743
 1476TIP3    H125919   5.929   0.451  14.088  0.3510 -0.6313  0.4833
 1476TIP3    H225920   5.914   0.303  14.062 -0.5372 -0.5578  0.5574
 1477TIP3   OH225921   2.954   5.359   1.525  0.4797 -0.6426 -0.3734
 1477TIP3    H125922   2.873   5.320   1.492 -0.6204  1.4530 -0.3271
 1477TIP3    H225923   3.002   5.386   1.446 -0.7975  1.7274 -0.4326
 1478TIP3   OH225924   4.741   2.464   2.820 -0.5248  0.3069 -0.3274
 1478TIP3    H125925   4.727   2.377   2.782  0.5616 -0.3510  0.7305
 1478TIP3    H225926   4.812   2.452   2.883  0.7875  2.2872 -1.3265
 1479TIP3   OH225927   4.705   1.528   3.381 -0.0279  0.5409 -0.1259
 1479TIP3    H125928   4.688   1.605   3.326 -1.9069 -1.1374 -2.0651
 1479TIP3    H225929   4.654   1.545   3.461 -2.4204  0.3427 -1.5174
 1480TIP3   OH225930   4.725   5.278  13.864 -0.2384  0.5597  0.5491
 1480TIP3    H125931   4.705   5.239  13.779 -0.4247  0.3959  0.6666
 1480TIP3    H225932   4.709   5.371  13.853  2.3506  0.9707 -0.3965
 1481TIP3   OH225933   0.181   3.825   4.583 -0.2495  0.2770  0.3533
 1481TIP3    H125934   0.264   3.788   4.552 -0.0436 -0.8519  2.1087
 1481TIP3    H225935   0.197   3.844   4.676 -1.9409  0.0849  0.7105
 1482TIP3   OH225936   6.795   2.384   1.238  0.1856 -0.4382 -0.4229
 1482TIP3    H125937   6.840   2.466   1.222  2.3541 -1.4770 -0.0319
 1482TIP3    H225938   6.799   2.338   1.154  4.6832 -2.6747  0.7320
 1483TIP3   OH225939   4.273   6.579   1.967  0.3975  0.1706 -0.1155
 1483TIP3    H125940   4.294   6.498   1.921  1.2349  0.8214 -0.8990
 1483TIP3    H225941   4.358   6.619   1.986 -0.0337  2.0903 -1.9508
 1484TIP3   OH225942   2.208   4.082   0.503 -0.2559 -0.6854  0.1685
 1484TIP3    H125943   2.127   4.080   0.451 -0.5411 -0.7112  0.6092
 1484TIP3    H225944   2.178   4.086   0.593  0.2417 -0.3236  0.3197
 1485TIP3   OH225945   6.798   0.478   5.089  0.2014  0.3941 -0.6735
 1485TIP3    H125946   6.789   0.422   5.012 -3.3099  0.3516 -0.3981
 1485TIP3    H225947   6.734   0.548   5.076 -0.6740  0.2863  2.2385
 1486TIP3   OH225948   0.419   4.442  12.134  0.8948  0.4335 -0.1139
 1486TIP3    H125949   0.396   4.447  12.227  0.0962 -0.3078 -0.2503
 1486TIP3    H225950   0.336   4.459  12.089  0.4479 -2.5301 -0.6269
 1487TIP3   OH225951   6.048   5.975  16.364  0.3075  0.1348  0.6998
 1487TIP3    H125952   5.985   6.004  16.298  1.5764  0.5026 -0.4088
 1487TIP3    H225953   6.021   6.019  16.444 -0.8604  0.2434  0.2643
 1488TIP3   OH225954   1.023   1.978  14.825 -0.4282  0.3187 -0.4814
 1488TIP3    H125955   1.113   2.007  14.809 -0.8723  2.0158  0.0002
 1488TIP3    H225956   1.031   1.915  14.897  0.2987  0.8803 -0.0614
 1489TIP3   OH225957   6.668   0.728  15.239 -0.5544  0.1599  0.0937
 1489TIP3    H125958   6.598   0.723  15.304  0.7178 -0.6633  1.4452
 1489TIP3    H225959   6.746   0.696  15.284  0.7199  1.0515 -1.3687
 1490TIP3   OH225960   4.568   4.546   1.591 -0.3773 -1.0193  0.2325
 1490TIP3    H125961   4.501   4.516   1.530 -0.3057  2.1391 -1.6514
 1490TIP3    H225962   4.527   4.620   1.636  1.2704 -0.0837  0.2600
 1491TIP3   OH225963   3.744   3.168   5.772 -0.0360  0.2953  0.4191
 1491TIP3    H125964   3.713   3.176   5.862 -0.2576 -2.1696  0.6379
 1491TIP3    H225965   3.665   3.156   5.720  0.1401  0.9136 -0.0025
 1492TIP3   OH225966   4.010   3.653   1.683  0.3396 -0.4046 -0.0610
 1492TIP3    H125967   4.098   3.617   1.680 -0.0838 -1.5351  0.5219
 1492TIP3    H225968   4.017   3.726   1.745  0.8844 -0.3996 -0.1217
 1493TIP3   OH225969   2.409   2.166   3.307  0.3293  0.1438 -0.4729
 1493TIP3    H125970   2.370   2.233   3.251 -0.3471 -0.8843 -1.2570
 1493TIP3    H225971   2.486   2.136   3.259  0.3281 -0.0096 -0.3797
 1494TIP3   OH225972   5.744   5.908   2.780 -0.4598  0.3013 -0.9000
 1494TIP3    H125973   5.790   5.863   2.851  0.3445 -0.3244 -1.7956
 1494TIP3    H225974   5.656   5.923   2.814  0.0769  0.5534  0.4494
 1495TIP3   OH225975   0.305   2.163   5.208 -0.1929  0.7170  0.6101
 1495TIP3    H125976   0.269   2.082   5.170  0.3933  0.0839  1.3696
 1495TIP3    H225977   0.240   2.189   5.273  0.1473  0.2438  1.1384
 1496TIP3   OH225978   0.598   0.920  14.538  0.3703 -0.6646  0.2102
 1496TIP3    H125979   0.675   0.974  14.554  0.5641 -1.1291  0.9047
 1496TIP3    H225980   0.568   0.895  14.625 -0.3135 -0.8394 -0.0709
 1497TIP3   OH225981   0.940   3.299  12.719  0.4657  0.0368 -0.5973
 1497TIP3    H125982   0.911   3.264  12.803 -0.4062  0.9929 -0.4724
 1497TIP3    H225983   0.869   3.278  12.658  0.2273  0.9902 -0.6606
 1498TIP3   OH225984   4.636   0.164  16.344 -0.0785 -0.8561  0.3205
 1498TIP3    H125985   4.720   0.145  16.386  0.0019 -2.1979 -0.4131
 1498TIP3    H225986   4.604   0.080  16.312 -1.9497 -0.4685  0.9900
 1499TIP3   OH225987   6.187   1.179   0.411 -0.5365 -0.0424  0.6860
 1499TIP3    H125988   6.269   1.194   0.363 -1.3811  1.2494 -0.4563
 1499TIP3    H225989   6.213   1.130   0.488  1.1469 -0.7087 -0.2436
 1500TIP3   OH225990   0.007   1.792   4.831  0.0668  0.7261  0.1878
 1500TIP3    H125991   0.055   1.872   4.812  0.7353  0.2738 -0.0429
 1500TIP3    H225992  -0.045   1.776   4.752 -0.6591  1.3396  0.5252
 1501TIP3   OH225993   0.628   0.896  16.574  0.5978  0.4248  0.4962
 1501TIP3    H125994   0.604   0.988  16.574 -0.8051  0.0871  1.0061
 1501TIP3    H225995   0.668   0.881  16.488 -0.4221  1.1988 -0.1315
 1502TIP3   OH225996   6.274   6.360   3.016 -0.5545 -0.3030 -0.3995
 1502TIP3    H125997   6.204   6.329   2.958 -0.6272 -1.7194  0.3968
 1502TIP3    H225998   6.238   6.351   3.104 -0.4312  1.7863 -0.0871
 1503TIP3   OH225999   2.098   0.136  16.742 -0.1963 -0.4909 -0.2796
 1503TIP3    H126000   2.064   0.142  16.831 -0.3015  1.2851 -0.4026
 1503TIP3    H226001   2.049   0.201  16.692  2.4462  1.3336 -0.7543
 1504TIP3   OH226002   3.867   4.633  15.617 -0.4493  0.3622 -0.1924
 1504TIP3    H126003   3.795   4.654  15.677 -1.5803  1.1900 -1.7617
 1504TIP3    H226004   3.828   4.638  15.530  0.8946 -1.8260 -0.9992
 1505TIP3   OH226005   0.633   2.518  16.116 -0.1946  0.0101 -0.4582
 1505TIP3    H126006   0.665   2.489  16.030 -0.5372 -1.0258 -0.2463
 1505TIP3    H226007   0.539   2.505  16.112 -0.2517  0.2972 -0.0484
 1506TIP3   OH226008   0.713   3.207  11.981  0.7095 -0.0178 -0.1998
 1506TIP3    H126009   0.633   3.225  12.030  2.3220  0.1243  2.6438
 1506TIP3    H226010   0.749   3.293  11.960  0.2901 -0.0816 -1.2492
 1507TIP3   OH226011   0.208   6.174   3.073  0.3554  0.1977  0.1858
 1507TIP3    H126012   0.235   6.250   3.022 -0.3264  0.5951  0.3984
 1507TIP3    H226013   0.180   6.211   3.157 -0.0729 -0.2728  0.2540
 1508TIP3   OH226014   4.718   1.796   5.134 -0.1256 -0.1749 -0.6673
 1508TIP3    H126015   4.689   1.855   5.204  0.5716 -1.3140  0.6209
 1508TIP3    H226016   4.768   1.852   5.075 -2.2217  1.1791 -1.2499
 1509TIP3   OH226017   1.446   0.918  11.465 -0.1022  0.6275  0.5491
 1509TIP3    H126018   1.366   0.867  11.474  0.0658  0.3277  0.3676
 1509TIP3    H226019   1.445   0.978  11.539  0.2585 -0.4125  1.4321
 1510TIP3   OH226020   2.601   3.183   4.740 -0.2570  0.5703 -0.2933
 1510TIP3    H126021   2.549   3.134   4.676 -1.8649  0.3027  1.1613
 1510TIP3    H226022   2.683   3.133   4.746 -1.1055 -0.8964 -0.2433
 1511TIP3   OH226023   4.949   4.491   3.327  0.0669 -0.4085  0.3957
 1511TIP3    H126024   5.038   4.517   3.301  0.2708 -0.6597  0.8455
 1511TIP3    H226025   4.908   4.572   3.357  0.0480 -0.2392 -0.0761
 1512TIP3   OH226026   3.269   5.353   3.185  0.1801 -0.6064  0.5492
 1512TIP3    H126027   3.323   5.405   3.126  0.0209  1.3391  1.9924
 1512TIP3    H226028   3.275   5.264   3.152  0.8486  0.2325 -1.7978
 1513TIP3   OH226029   6.201   1.377   4.351  0.4835  0.1825 -0.3364
 1513TIP3    H126030   6.231   1.286   4.355  0.6680  0.1748 -1.6092
 1513TIP3    H226031   6.141   1.386   4.426  1.0408 -0.7657  0.2324
 1514TIP3   OH226032   2.926   5.218   0.085  0.1781 -0.0317 -0.5033
 1514TIP3    H126033   2.971   5.146   0.128 -0.8099 -1.0902 -1.1841
 1514TIP3    H226034   2.833   5.203   0.102 -0.1023  0.6117 -1.3471
 1515TIP3   OH226035   6.751   0.240   5.592 -0.3980 -0.1132 -0.6353
 1515TIP3    H126036   6.707   0.207   5.671  0.6008  0.5733  0.2410
 1515TIP3    H226037   6.740   0.335   5.597  0.6966  0.0264 -0.6837
 1516TIP3   OH226038   2.361   3.900   5.707 -0.2929  0.1783  0.2482
 1516TIP3    H126039   2.446   3.863   5.682 -0.6691 -0.3640 -0.2668
 1516TIP3    H226040   2.309   3.896   5.627 -0.3523  1.8544  0.1866
 1517TIP3   OH226041   5.329   3.759  13.950 -0.2289  0.2354  0.2891
 1517TIP3    H126042   5.344   3.715  14.033 -0.5541  1.1983  0.8740
 1517TIP3    H226043   5.265   3.827  13.970  0.3300  1.0368 -0.5640
 1518TIP3   OH226044   3.177   5.483  16.828  0.2713  0.4327  0.5686
 1518TIP3    H126045   3.261   5.452  16.795 -0.3445 -0.9474  0.2284
 1518TIP3    H226046   3.156   5.423  16.900 -0.8983  0.1189 -0.0149
 1519TIP3   OH226047   4.576   6.232   4.746  0.0199  0.7151 -0.2310
 1519TIP3    H126048   4.614   6.202   4.663 -1.1897  0.5039 -0.7205
 1519TIP3    H226049   4.579   6.327   4.741  0.9009  0.7060 -0.0582
 1520TIP3   OH226050   6.288   4.476   4.956  0.0790  0.3683  0.2525
 1520TIP3    H126051   6.285   4.571   4.963 -1.3033  0.4675 -1.1236
 1520TIP3    H226052   6.199   4.451   4.930 -0.1479 -1.5051  2.4438
 1521TIP3   OH226053   5.093   5.289   0.749  0.0358 -0.0326 -0.2485
 1521TIP3    H126054   5.041   5.212   0.771 -0.3233 -0.2802 -1.8630
 1521TIP3    H226055   5.076   5.350   0.821  0.4117 -1.4605  1.1214
 1522TIP3   OH226056   3.371   3.657  13.416  0.5525  0.3268 -0.4072
 1522TIP3    H126057   3.412   3.744  13.420  2.1281 -0.2682 -2.1466
 1522TIP3    H226058   3.404   3.612  13.494  0.3700  0.9980  0.0761
 1523TIP3   OH226059   0.338   1.216   2.582  0.4557  0.3139 -0.7514
 1523TIP3    H126060   0.423   1.171   2.587 -0.4422 -1.4967 -1.1442
 1523TIP3    H226061   0.289   1.168   2.515 -1.2230  0.7478  0.1090
 1524TIP3   OH226062   0.058   4.021   0.631 -0.0051  0.1903 -0.1403
 1524TIP3    H126063   0.100   4.105   0.611  0.3617 -0.0891 -0.5778
 1524TIP3    H226064   0.104   3.958   0.575  1.6339 -0.7795  2.1544
 1525TIP3   OH226065   2.464   6.136   4.994  0.0205 -0.2616  0.1317
 1525TIP3    H126066   2.375   6.103   4.978 -0.0006  0.2845 -1.0259
 1525TIP3    H226067   2.519   6.058   4.994 -0.1361 -0.4187 -1.7196
 1526TIP3   OH226068   2.503   4.744   2.117  0.0969 -0.4747  0.2736
 1526TIP3    H126069   2.551   4.762   2.198 -1.7692  0.6528  1.1810
 1526TIP3    H226070   2.572   4.722   2.053  1.8849  1.6390  1.3449
 1527TIP3   OH226071   6.747   0.532   6.109 -0.1928 -0.1734 -0.4763
 1527TIP3    H126072   6.826   0.563   6.153  0.0233  0.2355 -1.1313
 1527TIP3    H226073   6.776   0.454   6.062 -0.0390  0.2811 -1.1511
 1528TIP3   OH226074   2.024   5.452   0.949  0.1615 -0.3517 -0.2533
 1528TIP3    H126075   2.101   5.414   0.906  0.7773  0.4485  0.1267
 1528TIP3    H226076   1.986   5.508   0.882 -0.5949 -1.3853 -0.7247
 1529TIP3   OH226077   2.036   4.824   0.789  0.3760  0.6068  0.3283
 1529TIP3    H126078   2.048   4.919   0.793  0.3354  0.5854  1.3989
 1529TIP3    H226079   2.065   4.793   0.875 -1.4979 -0.1153  0.7617
 1530TIP3   OH226080   1.625   5.288  16.127 -0.0132 -0.2127  0.0629
 1530TIP3    H126081   1.530   5.282  16.117 -0.1996  0.1276  1.4476
 1530TIP3    H226082   1.652   5.199  16.149 -0.2576  0.0049  1.3479
 1531TIP3   OH226083   2.389   2.868   2.982  0.4652  0.3101  0.3010
 1531TIP3    H126084   2.400   2.853   2.888  3.3165 -1.7633  0.8525
 1531TIP3    H226085   2.477   2.864   3.018 -0.4572  1.8121  3.0315
 1532TIP3   OH226086   4.920   6.563  16.828  0.0993  0.5167  0.7914
 1532TIP3    H126087   4.955   6.567  16.917  0.4137  0.9817  0.6461
 1532TIP3    H226088   4.846   6.503  16.835 -0.4672  1.2757  1.5628
 1533TIP3   OH226089   1.918   5.479   0.332 -0.2961 -0.0197 -0.2363
 1533TIP3    H126090   1.963   5.445   0.409  0.0406  1.5679  0.3095
 1533TIP3    H226091   1.989   5.499   0.270 -0.5428 -0.9918 -0.8510
 1534TIP3   OH226092   2.683   0.018   1.484  0.3586  0.6748 -0.8667
 1534TIP3    H126093   2.686   0.048   1.575  0.3622  1.1446 -1.0202
 1534TIP3    H226094   2.755  -0.046   1.478 -0.9022 -0.8983 -0.0074
 1535TIP3   OH226095   3.831   6.199  13.880 -0.0410 -0.3601  0.2515
 1535TIP3    H126096   3.875   6.162  13.957  1.2552  1.2866  0.3820
 1535TIP3    H226097   3.738   6.198  13.902  0.1112 -1.8454  0.9413
 1536TIP3   OH226098   5.847   0.142   2.702 -0.0757 -0.5102  0.0633
 1536TIP3    H126099   5.790   0.211   2.668 -0.2610  1.0999  3.2558
 1536TIP3    H226100   5.936   0.171   2.679 -0.2848 -0.6501 -0.9587
 1537TIP3   OH226101   1.319   4.081  14.855  0.1554  0.4537 -0.1549
 1537TIP3    H126102   1.289   4.066  14.766  1.4659 -1.5855 -0.2967
 1537TIP3    H226103   1.285   4.007  14.905 -2.6656  2.7355  1.6943
 1538TIP3   OH226104   1.885   6.720   2.558  0.0134  0.3166  0.6277
 1538TIP3    H126105   1.887   6.675   2.642 -0.1524 -0.4508  0.2358
 1538TIP3    H226106   1.887   6.649   2.493 -2.5458  0.7503 -0.0272
 1539TIP3   OH226107   3.904   5.365   3.687 -0.1998  0.0101  0.2961
 1539TIP3    H126108   3.921   5.345   3.595  1.6376  0.9413  0.3865
 1539TIP3    H226109   3.991   5.374   3.726 -0.9494  0.7530  1.8771
 1540TIP3   OH226110   0.963   1.399  16.127  0.0771  0.3635  0.2397
 1540TIP3    H126111   0.906   1.331  16.093  1.0790 -1.3753  1.9081
 1540TIP3    H226112   1.051   1.361  16.124  0.5201  1.1166  2.2841
 1541TIP3   OH226113   3.551   0.220  13.784 -0.1586  0.2892  0.1133
 1541TIP3    H126114   3.640   0.255  13.775  1.1213 -1.4783  3.7039
 1541TIP3    H226115   3.557   0.130  13.752 -0.6907  0.2310  0.1671
 1542TIP3   OH226116   2.961   6.183   5.575 -0.8250 -0.5778 -0.3986
 1542TIP3    H126117   2.926   6.145   5.655 -1.9088  1.8097  0.3595
 1542TIP3    H226118   2.885   6.220   5.531  0.0075 -0.2899 -1.6277
 1543TIP3   OH226119   1.547   3.720   4.846 -0.2346 -0.3117 -0.0118
 1543TIP3    H126120   1.523   3.697   4.756  2.6446  0.9164 -1.2131
 1543TIP3    H226121   1.561   3.814   4.844  0.2360 -0.3199  1.6305
 1544TIP3   OH226122   6.765   0.999  13.797  0.1892  0.3933 -0.0003
 1544TIP3    H126123   6.783   1.043  13.880  1.1744 -0.3687  0.2133
 1544TIP3    H226124   6.807   0.913  13.806 -0.7682 -0.1888 -0.8076
 1545TIP3   OH226125   5.490   4.056   2.195 -0.0015 -0.0872  0.4418
 1545TIP3    H126126   5.499   4.140   2.240  1.6575 -0.9056  1.7236
 1545TIP3    H226127   5.499   3.990   2.264 -1.6052 -1.3612 -0.4839
 1546TIP3   OH226128   2.794   1.444  13.681 -0.4655  0.2919 -0.6006
 1546TIP3    H126129   2.800   1.493  13.599  0.7111  0.5697 -0.3736
 1546TIP3    H226130   2.791   1.352  13.655  1.7880  0.2680 -0.9479
 1547TIP3   OH226131   0.897   1.133   3.910  0.3788 -0.3551 -0.0575
 1547TIP3    H126132   0.917   1.218   3.870  0.5996  0.0418  0.8737
 1547TIP3    H226133   0.981   1.088   3.913  0.1950 -0.7671 -0.9012
 1548TIP3   OH226134   1.754   4.971  16.006  0.0625 -0.1581  0.3533
 1548TIP3    H126135   1.772   4.913  15.932 -1.4078 -1.2144  0.7667
 1548TIP3    H226136   1.712   5.048  15.967  2.3154  0.8555 -0.2333
 1549TIP3   OH226137   1.362   3.018   2.179 -0.2439  0.6022  0.3406
 1549TIP3    H126138   1.442   3.015   2.231 -0.1428  1.9744  0.2944
 1549TIP3    H226139   1.300   3.067   2.233 -1.3193 -1.0700  0.7012
 1550TIP3   OH226140   5.913   5.674   0.560 -0.3163  0.2468 -0.0856
 1550TIP3    H126141   5.869   5.696   0.478 -0.2302  0.0655 -0.1803
 1550TIP3    H226142   5.842   5.653   0.620 -0.3620  0.0483 -0.2096
 1551TIP3   OH226143   1.353   5.975  16.245  0.7324 -0.2957 -0.2756
 1551TIP3    H126144   1.409   5.918  16.298  0.9403  0.1650  0.0180
 1551TIP3    H226145   1.307   6.029  16.310  1.0915  0.3696 -0.5600
 1552TIP3   OH226146   0.767   2.649  10.838 -0.2550 -0.3058  0.0891
 1552TIP3    H126147   0.702   2.612  10.779 -0.2496  0.8379 -0.6518
 1552TIP3    H226148   0.842   2.590  10.831  0.4229  0.7350 -2.4443
 1553TIP3   OH226149   0.724   6.456   5.705 -0.0506  0.2665 -0.5846
 1553TIP3    H126150   0.635   6.449   5.738 -0.2348 -1.9892 -1.3559
 1553TIP3    H226151   0.777   6.409   5.770  0.6524  1.7586 -0.0286
 1554TIP3   OH226152   2.405   0.230   0.779  1.1171 -0.2254  0.3626
 1554TIP3    H126153   2.459   0.288   0.726 -0.7020  1.1488 -0.0772
 1554TIP3    H226154   2.400   0.273   0.864 -1.5407  1.1830 -0.4293
 1555TIP3   OH226155   2.028   3.855  14.511  0.2159 -0.1266  0.3169
 1555TIP3    H126156   2.030   3.760  14.506 -1.9919 -0.1979 -0.2225
 1555TIP3    H226157   2.110   3.879  14.554  0.2217 -2.3458  1.6927
 1556TIP3   OH226158   5.008   1.044  15.514 -0.3353  0.2295 -0.4209
 1556TIP3    H126159   4.928   1.093  15.496 -0.7743 -1.1756 -2.7240
 1556TIP3    H226160   5.010   0.975  15.448  0.3946 -2.7114  2.3769
 1557TIP3   OH226161   3.991   4.338   4.605  0.2332 -0.3700 -0.3750
 1557TIP3    H126162   4.084   4.360   4.598 -0.1144  0.8696 -1.5839
 1557TIP3    H226163   3.976   4.274   4.535  0.0174  0.0897 -0.7594
 1558TIP3   OH226164   0.464   1.294   0.434  0.1928 -0.6470  0.0743
 1558TIP3    H126165   0.475   1.242   0.514 -0.2792 -0.4689  0.2569
 1558TIP3    H226166   0.504   1.379   0.455 -0.0131 -0.5694  0.1531
 1559TIP3   OH226167   2.465   2.439   1.894 -0.1019 -0.0495 -0.2326
 1559TIP3    H126168   2.416   2.520   1.880 -0.9187 -0.3276  0.9227
 1559TIP3    H226169   2.403   2.380   1.936  0.7037 -1.0333 -0.3823
 1560TIP3   OH226170   4.095   4.522   0.215 -0.4957 -0.9582 -0.1446
 1560TIP3    H126171   4.079   4.428   0.227  2.0611 -1.3525  0.6679
 1560TIP3    H226172   4.086   4.560   0.302 -0.8278 -0.5524 -0.3506
 1561TIP3   OH226173   1.785   5.754   1.828  0.6011 -0.0314  0.6201
 1561TIP3    H126174   1.737   5.783   1.905  0.1514 -2.1713  1.2169
 1561TIP3    H226175   1.834   5.831   1.800 -0.5131  1.2613  2.0375
 1562TIP3   OH226176   3.656   2.361  15.205  0.2389 -0.2229  0.2009
 1562TIP3    H126177   3.651   2.376  15.299  1.1177 -3.1291  0.8074
 1562TIP3    H226178   3.744   2.391  15.180 -0.8708  3.0409 -0.3564
 1563TIP3   OH226179   2.332   3.030   5.158  0.5091 -0.3010 -0.2480
 1563TIP3    H126180   2.318   3.123   5.177 -0.7751 -0.3524 -0.8157
 1563TIP3    H226181   2.291   2.984   5.231 -0.1759 -0.4175 -0.6856
 1564TIP3   OH226182   0.017   3.665  14.159 -0.3716  0.2637 -0.1283
 1564TIP3    H126183  -0.009   3.675  14.250 -3.1898  0.1462 -0.8136
 1564TIP3    H226184   0.008   3.571  14.141  1.2886  0.0985 -0.2843
 1565TIP3   OH226185   1.549   5.951   0.593  0.1787 -0.4762 -0.4669
 1565TIP3    H126186   1.539   5.874   0.648 -1.4145 -0.6494 -0.9650
 1565TIP3    H226187   1.515   5.925   0.507 -1.4961  1.0966 -0.3416
 1566TIP3   OH226188   4.869   4.386  14.705  0.5335 -0.5102 -0.1052
 1566TIP3    H126189   4.962   4.402  14.714  0.5349 -0.2767 -0.5198
 1566TIP3    H226190   4.858   4.355  14.615 -0.1251  2.0352 -0.9850
 1567TIP3   OH226191   1.408   1.560   1.340  0.7714  0.2118 -0.1850
 1567TIP3    H126192   1.387   1.647   1.375  1.8319 -0.2233  1.6148
 1567TIP3    H226193   1.386   1.567   1.247 -1.8969  1.5047  0.4326
 1568TIP3   OH226194   2.544   4.549   0.881  0.5692 -0.5842 -0.2089
 1568TIP3    H126195   2.562   4.578   0.971 -1.2873  3.2380 -0.8424
 1568TIP3    H226196   2.593   4.610   0.826  0.4456 -1.8634 -1.7992
 1569TIP3   OH226197   6.760   3.111   3.605 -0.0061  0.1626 -0.2125
 1569TIP3    H126198   6.731   3.133   3.694  1.7460 -0.8094  0.6634
 1569TIP3    H226199   6.681   3.114   3.552 -1.9161 -2.9039  2.0832
 1570TIP3   OH226200   2.669   0.326   4.542 -0.1747  0.9310  0.3053
 1570TIP3    H126201   2.647   0.405   4.492  1.6992  1.0367 -0.4482
 1570TIP3    H226202   2.723   0.358   4.614  1.3030  0.3143 -0.4717
 1571TIP3   OH226203   1.815   4.415   0.879  0.0367 -0.0506 -0.3279
 1571TIP3    H126204   1.852   4.369   0.954  0.6926  0.2212 -0.4840
 1571TIP3    H226205   1.763   4.486   0.918  0.5284  0.2051 -0.1365
 1572TIP3   OH226206   5.601   1.015   0.734  0.4173 -0.1357  0.3889
 1572TIP3    H126207   5.598   0.973   0.648 -0.5026 -0.8283  0.7476
 1572TIP3    H226208   5.521   1.066   0.739 -1.0590 -2.4515  1.9680
 1573TIP3   OH226209   6.275   1.082   4.845 -0.4310 -0.5834 -0.9822
 1573TIP3    H126210   6.239   1.128   4.922 -0.5498  0.8139 -1.8434
 1573TIP3    H226211   6.356   1.043   4.877 -0.0824  0.6179 -0.3175
 1574TIP3   OH226212   0.320   0.705  14.696  0.3322  0.3649  0.0801
 1574TIP3    H126213   0.375   0.765  14.747  1.1807  0.0454 -0.4363
 1574TIP3    H226214   0.354   0.711  14.607 -0.7517  0.4664 -0.3434
 1575TIP3   OH226215   2.505   5.874   1.573 -0.0615 -0.3124 -0.2031
 1575TIP3    H126216   2.545   5.906   1.654  0.6275  3.1005 -1.7045
 1575TIP3    H226217   2.417   5.913   1.574  0.5139  1.1468 -1.7470
 1576TIP3   OH226218   1.452   5.118  16.257  0.2314  0.1082 -0.3878
 1576TIP3    H126219   1.544   5.102  16.278 -0.1433 -1.2687  0.3737
 1576TIP3    H226220   1.420   5.033  16.227 -1.1817  0.1393  0.9433
 1577TIP3   OH226221   2.124   2.665   0.717 -0.1431  0.0524  0.5060
 1577TIP3    H126222   2.076   2.727   0.771 -1.1383  1.0317 -1.4038
 1577TIP3    H226223   2.160   2.718   0.646  2.8538 -0.8490  1.2146
 1578TIP3   OH226224   3.987   5.491   0.539 -0.0171 -0.0472  0.7228
 1578TIP3    H126225   3.898   5.488   0.574 -0.4209  1.6004 -0.0516
 1578TIP3    H226226   4.040   5.528   0.610 -0.0032 -0.7178  1.0679
 1579TIP3   OH226227   3.213   4.823   5.186  0.3419 -0.0240 -0.3983
 1579TIP3    H126228   3.178   4.829   5.275  0.1918 -1.1161 -0.3615
 1579TIP3    H226229   3.142   4.854   5.131  0.4607  0.7298 -0.1458
 1580TIP3   OH226230   1.892   2.953  13.192  0.3011 -0.2711 -0.0291
 1580TIP3    H126231   1.952   3.010  13.144  0.4129 -0.4564 -0.1121
 1580TIP3    H226232   1.929   2.865  13.181 -0.7724 -0.5897 -1.3049
 1581TIP3   OH226233   3.082   4.486  14.881 -0.1199 -0.1647  0.1422
 1581TIP3    H126234   3.134   4.566  14.871  0.2968 -0.6187 -1.6090
 1581TIP3    H226235   3.072   4.476  14.976  0.9469  1.2412  0.4376
 1582TIP3   OH226236   2.578   3.439  14.827 -0.0280 -0.2998  0.2102
 1582TIP3    H126237   2.628   3.394  14.896 -1.0157 -1.4065  0.2533
 1582TIP3    H226238   2.643   3.491  14.780  1.5237 -2.9505 -0.8078
 1583TIP3   OH226239   6.187   5.075  14.789  0.0934  0.1571  0.3324
 1583TIP3    H126240   6.147   5.124  14.717  0.7636  0.3336  0.0677
 1583TIP3    H226241   6.175   5.132  14.866 -1.5613 -0.5108  0.5875
 1584TIP3   OH226242   3.567   4.386  14.635 -0.3313  0.3375  0.0989
 1584TIP3    H126243   3.574   4.458  14.573  1.2533  0.5054  0.4203
 1584TIP3    H226244   3.531   4.425  14.715  1.2928  1.0112  0.5540
 1585TIP3   OH226245   5.076   0.296   0.287 -1.0873  0.1003  0.3065
 1585TIP3    H126246   4.985   0.312   0.313 -0.4853  1.9241  1.5314
 1585TIP3    H226247   5.108   0.382   0.257 -0.1309 -0.7902 -1.4111
 1586TIP3   OH226248   1.850   3.702  12.819  0.1793 -0.8159  0.2086
 1586TIP3    H126249   1.792   3.633  12.789 -0.6004 -0.2461  0.3858
 1586TIP3    H226250   1.934   3.683  12.778 -0.5165 -0.7980 -1.2596
 1587TIP3   OH226251   1.410   3.299   1.754 -0.0833 -0.1215  0.1263
 1587TIP3    H126252   1.428   3.261   1.668  2.1642 -0.5907  0.7455
 1587TIP3    H226253   1.409   3.224   1.814 -0.7788  0.2897  0.6460
 1588TIP3   OH226254   4.848   6.500  15.823  0.5119 -0.1225  0.6173
 1588TIP3    H126255   4.754   6.487  15.811  0.0580  1.8015  1.7529
 1588TIP3    H226256   4.888   6.454  15.749 -1.2295 -1.8273  0.6445
 1589TIP3   OH226257   3.930   5.064  15.937 -1.1415 -0.3707  0.2222
 1589TIP3    H126258   3.941   5.159  15.925  1.8837 -0.7964 -1.4686
 1589TIP3    H226259   3.984   5.044  16.014 -1.0124 -0.8215  0.0190
 1590TIP3   OH226260   3.077   3.500  15.762 -0.1193  1.1921  0.2161
 1590TIP3    H126261   3.107   3.433  15.823  0.9136 -0.0558 -1.5554
 1590TIP3    H226262   2.983   3.509  15.779 -0.9906 -2.9008 -1.3441
 1591TIP3   OH226263   3.304   6.422  11.329  0.0491 -0.3829 -0.0950
 1591TIP3    H126264   3.320   6.497  11.271  1.4114 -0.5125  0.0753
 1591TIP3    H226265   3.317   6.457  11.417  1.2334 -0.9156 -0.0369
 1592TIP3   OH226266   3.984   0.065  16.549 -0.5831  0.2040  0.6124
 1592TIP3    H126267   3.964  -0.028  16.543 -1.0843  0.2858  0.9494
 1592TIP3    H226268   3.949   0.092  16.634 -0.6873  0.7552  0.3998
 1593TIP3   OH226269   3.490   1.785   1.191  0.2797  0.1649 -0.3492
 1593TIP3    H126270   3.508   1.859   1.134 -0.3517  0.3280 -0.3390
 1593TIP3    H226271   3.525   1.709   1.144  1.7419  0.5527  0.0348
 1594TIP3   OH226272   6.213   6.619  16.751 -0.1836  0.3343 -0.2967
 1594TIP3    H126273   6.141   6.569  16.712  0.8817 -1.1115 -0.4843
 1594TIP3    H226274   6.291   6.567  16.732  0.4124 -0.9174  4.2326
 1595TIP3   OH226275   4.859   5.206  15.627 -0.2295  0.5101  0.0802
 1595TIP3    H126276   4.890   5.294  15.605 -0.1973  0.5291  0.2012
 1595TIP3    H226277   4.830   5.213  15.718  1.3815 -0.0114  0.6680
 1596TIP3   OH226278   0.406   0.422  14.045  0.2976  0.2665 -0.5318
 1596TIP3    H126279   0.477   0.447  13.986  1.2023  0.3019  0.5447
 1596TIP3    H226280   0.446   0.363  14.108 -1.1291 -1.4789 -1.1746
 1597TIP3   OH226281   1.321   5.199  15.527 -0.5438 -0.0100 -0.2279
 1597TIP3    H126282   1.360   5.283  15.500 -0.3002  1.1126  3.2036
 1597TIP3    H226283   1.226   5.213  15.519 -0.5499  1.0274  1.3085
 1598TIP3   OH226284   1.991   3.254   3.541 -0.2472  0.0166  0.4916
 1598TIP3    H126285   2.010   3.329   3.485  0.2485  0.6716  1.5292
 1598TIP3    H226286   1.898   3.263   3.562 -0.7944 -0.9553 -1.2483
 1599TIP3   OH226287   6.396   1.163  12.715 -0.5185 -0.0001 -0.3567
 1599TIP3    H126288   6.366   1.248  12.747  0.9962  0.4505 -0.0662
 1599TIP3    H226289   6.490   1.161  12.735 -0.7171 -2.2446  0.7751
 1600TIP3   OH226290   3.023   2.003   4.467 -0.0414 -0.1299 -0.1042
 1600TIP3    H126291   2.963   2.046   4.528 -0.3064  2.3723 -1.9754
 1600TIP3    H226292   3.107   2.047   4.480  0.5987 -1.3921  0.2352
 1601TIP3   OH226293   0.833   5.677  12.036 -0.6289  0.0743  0.5564
 1601TIP3    H126294   0.755   5.686  11.983  1.1108  0.0329 -2.2170
 1601TIP3    H226295   0.839   5.758  12.086 -1.8405  0.5475 -0.0504
 1602TIP3   OH226296   6.013   4.311   0.990  0.0197  0.5237  0.5400
 1602TIP3    H126297   6.012   4.374   0.918  1.0909 -0.3752 -0.2888
 1602TIP3    H226298   5.981   4.361   1.065 -0.9531  1.5281 -0.4962
 1603TIP3   OH226299   3.377   3.369   4.049 -0.2214 -1.0795 -0.2497
 1603TIP3    H126300   3.460   3.417   4.059 -0.4779 -0.6053 -0.3712
 1603TIP3    H226301   3.330   3.418   3.982 -2.1707  0.8620  2.3280
 1604TIP3   OH226302   1.506   2.669   0.175 -0.0460 -0.0583 -0.0120
 1604TIP3    H126303   1.423   2.634   0.144  0.5388 -1.7153  0.1852
 1604TIP3    H226304   1.507   2.648   0.269  0.6754 -0.2401 -0.0536
 1605TIP3   OH226305   4.514   2.047  16.882  0.3209 -0.0132  0.3121
 1605TIP3    H126306   4.426   2.029  16.848  0.1037 -0.0469  0.8729
 1605TIP3    H226307   4.501   2.059  16.976  0.6962  1.5060  0.2003
 1606TIP3   OH226308   6.705   5.596  12.714 -0.1740 -0.3033 -0.1293
 1606TIP3    H126309   6.798   5.611  12.698  0.0687 -0.3302  1.1349
 1606TIP3    H226310   6.684   5.517  12.664  0.3320  0.0326 -0.8898
 1607TIP3   OH226311   6.682   1.922  13.603  0.1681  0.2056  0.3319
 1607TIP3    H126312   6.628   1.849  13.575 -1.3360  0.3442  2.5946
 1607TIP3    H226313   6.767   1.883  13.623  0.2787 -0.3975 -1.2303
 1608TIP3   OH226314   4.836   5.017   0.625 -0.0408  0.4705  0.0307
 1608TIP3    H126315   4.809   5.092   0.571 -1.0979  0.7822  0.9412
 1608TIP3    H226316   4.897   5.054   0.689  0.0390  0.4089 -0.0105
 1609TIP3   OH226317   0.653   5.096  16.230  0.0239  0.6289 -0.1062
 1609TIP3    H126318   0.636   5.006  16.204  1.7227 -0.0136  0.8461
 1609TIP3    H226319   0.615   5.149  16.160  0.0651 -0.8523 -1.2957
 1610TIP3   OH226320   3.242   6.389   4.519  0.3672 -0.4624 -0.9395
 1610TIP3    H126321   3.329   6.427   4.534 -0.2281 -0.1908  2.5166
 1610TIP3    H226322   3.193   6.459   4.474  1.4913 -0.0730 -1.5977
 1611TIP3   OH226323   4.421   2.401   5.050 -1.0526  0.1534  0.5649
 1611TIP3    H126324   4.419   2.400   4.955  0.2038 -1.8622  0.4884
 1611TIP3    H226325   4.458   2.486   5.073 -1.9990  0.9456 -0.6788
 1612TIP3   OH226326   2.851   0.943  15.711  0.1447 -0.3235  0.8335
 1612TIP3    H126327   2.839   0.902  15.626 -0.9623 -2.6039  2.0104
 1612TIP3    H226328   2.938   0.984  15.706 -0.7399  1.5182 -2.0525
 1613TIP3   OH226329   2.077   6.083   5.499 -0.3327  0.2605 -0.2982
 1613TIP3    H126330   2.142   6.128   5.444  0.9135 -0.9190  0.1654
 1613TIP3    H226331   2.110   6.094   5.588 -1.5466  0.8671  0.0993
 1614TIP3   OH226332   5.913   6.624   5.052  0.8412  0.6419  0.0038
 1614TIP3    H126333   5.998   6.587   5.077  0.5163  2.1456  3.9484
 1614TIP3    H226334   5.849   6.561   5.084  0.4314  1.3413  0.5978
 1615TIP3   OH226335   0.684   2.349  12.968 -0.1210 -0.0827  0.3837
 1615TIP3    H126336   0.629   2.419  13.003 -2.7332 -1.8846  0.1172
 1615TIP3    H226337   0.760   2.348  13.027 -1.2752  1.2001  2.0222
 1616TIP3   OH226338   5.577   1.869  11.679 -0.9200  0.2663  0.2599
 1616TIP3    H126339   5.520   1.792  11.682  0.8708 -1.1694 -0.2193
 1616TIP3    H226340   5.529   1.933  11.628 -0.3735 -2.4995 -4.2813
 1617TIP3   OH226341   2.973   4.336  15.090 -0.1307 -0.3320 -0.0540
 1617TIP3    H126342   3.004   4.402  15.152  2.1924  0.5593 -1.9892
 1617TIP3    H226343   2.892   4.372  15.054  0.7024  1.1653 -0.5167
 1618TIP3   OH226344   2.711   5.444  15.527  0.0184 -0.2887 -0.3503
 1618TIP3    H126345   2.793   5.434  15.575  0.1564  0.2974 -0.4483
 1618TIP3    H226346   2.658   5.501  15.582  0.6423  1.4061 -1.4150
 1619TIP3   OH226347   0.063   1.993  15.616 -0.2905 -0.2582 -0.2152
 1619TIP3    H126348   0.101   2.076  15.589  1.2004 -1.1276 -0.9397
 1619TIP3    H226349  -0.022   1.991  15.573 -0.6569  1.1938  0.3969
 1620TIP3   OH226350   3.824   4.982  11.691 -0.3670 -0.6439  0.6522
 1620TIP3    H126351   3.885   5.015  11.757 -0.4100  0.1729  0.2918
 1620TIP3    H226352   3.873   4.913  11.646 -0.2817 -1.0945  1.4225
 1621TIP3   OH226353   0.386   0.032   1.399  0.0592  0.0407 -0.3054
 1621TIP3    H126354   0.364  -0.056   1.368 -0.0092 -0.2687  0.5806
 1621TIP3    H226355   0.302   0.077   1.404 -0.2960 -0.7188  1.8004
 1622TIP3   OH226356   4.560   3.339  13.663  0.2618  0.3983 -0.7989
 1622TIP3    H126357   4.509   3.420  13.667  0.3577  0.6192 -2.8929
 1622TIP3    H226358   4.640   3.364  13.615  0.7316 -0.7190 -0.6225
 1623TIP3   OH226359   5.219   2.833  15.845 -0.5942  0.0094 -0.3753
 1623TIP3    H126360   5.192   2.858  15.756  1.8838 -4.2616 -2.6551
 1623TIP3    H226361   5.305   2.873  15.856 -0.2819 -0.6240 -0.5029
 1624TIP3   OH226362   2.526   4.576  15.079 -0.6002 -0.4571 -0.4222
 1624TIP3    H126363   2.462   4.570  15.150 -1.3180 -4.1642 -1.2079
 1624TIP3    H226364   2.475   4.562  14.999  0.7735 -0.4584 -1.3335
 1625TIP3   OH226365   5.414   1.834  10.387 -0.0146 -0.2033 -0.5528
 1625TIP3    H126366   5.327   1.819  10.426 -0.2557  0.3936 -0.8524
 1625TIP3    H226367   5.469   1.766  10.426 -0.7436 -0.9389 -0.7728
 1626TIP3   OH226368   4.839   5.387   3.987 -0.3024  0.4386  0.6386
 1626TIP3    H126369   4.830   5.443   3.910 -0.6531 -2.1071 -1.3094
 1626TIP3    H226370   4.761   5.405   4.039 -1.4307  0.3806 -0.9516
 1627TIP3   OH226371   5.569   5.147  14.139  0.1123 -0.0444 -0.7068
 1627TIP3    H126372   5.516   5.068  14.148  1.2213 -0.5392  2.6370
 1627TIP3    H226373   5.532   5.208  14.203  1.2115  0.9925 -1.0263
 1628TIP3   OH226374   4.208   0.948  14.191 -0.4558 -0.0752 -0.4474
 1628TIP3    H126375   4.300   0.941  14.167 -0.3624  0.6995 -0.3520
 1628TIP3    H226376   4.208   0.945  14.287 -0.7339 -2.1599 -0.4704
 1629TIP3   OH226377   5.943   5.043   3.009  0.4522 -0.7378 -0.2273
 1629TIP3    H126378   5.874   5.087   2.959 -1.8496 -1.9756  1.6494
 1629TIP3    H226379   5.933   4.950   2.986  2.2278 -0.8339 -0.7080
 1630TIP3   OH226380   5.547   5.251  15.075 -0.3855 -0.0331 -0.3008
 1630TIP3    H126381   5.629   5.300  15.071 -0.2373 -0.3278 -1.2165
 1630TIP3    H226382   5.484   5.313  15.111 -0.2843  0.9972 -1.7920
 1631TIP3   OH226383   4.351   6.574  14.395 -0.4551 -0.1292  0.8777
 1631TIP3    H126384   4.321   6.509  14.330  1.5061 -1.7798  1.5254
 1631TIP3    H226385   4.330   6.534  14.479 -0.6542  0.8464  1.3034
 1632TIP3   OH226386   5.901   4.154   6.219 -0.4829  0.0101  0.0062
 1632TIP3    H126387   5.938   4.073   6.184  0.7727  0.3926  0.3654
 1632TIP3    H226388   5.862   4.128   6.302 -0.6722 -0.3402 -0.1885
 1633TIP3   OH226389   2.093   1.703   0.064 -0.0066  0.2757 -0.2690
 1633TIP3    H126390   2.139   1.627   0.030 -0.4855  0.2757 -0.9352
 1633TIP3    H226391   2.041   1.735  -0.010 -0.1986  0.9450  0.1466
 1634TIP3   OH226392   1.906   3.656  11.110 -0.1549  0.0247 -0.4476
 1634TIP3    H126393   1.904   3.739  11.062  0.9920  0.6069  0.4621
 1634TIP3    H226394   1.991   3.619  11.090  1.0904  1.0793  2.3323
 1635TIP3   OH226395   1.865   4.546  13.068 -0.4399  0.3363  0.1746
 1635TIP3    H126396   1.823   4.616  13.117 -0.9256  0.7350 -0.7838
 1635TIP3    H226397   1.957   4.574  13.060 -0.1850 -0.0851  1.4599
 1636TIP3   OH226398   6.397   0.556  12.556 -0.1054  0.3582 -0.3651
 1636TIP3    H126399   6.407   0.470  12.598 -0.2660 -0.4258 -1.8655
 1636TIP3    H226400   6.363   0.613  12.626 -1.1942 -1.0959  0.3482
 1637TIP3   OH226401   3.035   2.041  11.435 -0.2870  0.1551  0.3817
 1637TIP3    H126402   3.105   2.102  11.456 -0.1753 -0.0409  0.5925
 1637TIP3    H226403   3.031   1.983  11.511 -0.3788 -0.1092  0.1769
 1638TIP3   OH226404   0.138   2.110   4.184  0.2080  0.1965  0.0582
 1638TIP3    H126405   0.068   2.045   4.173 -1.1521  1.1942  2.0814
 1638TIP3    H226406   0.115   2.181   4.124 -1.0195  0.8315  1.1966
 1639TIP3   OH226407   5.300   1.479   6.482 -0.0333 -0.0882  0.6513
 1639TIP3    H126408   5.234   1.525   6.535  1.2001  0.9412  1.3342
 1639TIP3    H226409   5.300   1.526   6.398  0.2242  0.2627  0.8475
 1640TIP3   OH226410   6.385   0.297   2.384  0.2175 -0.1749  0.1033
 1640TIP3    H126411   6.459   0.256   2.427  0.4605 -0.4753 -0.5843
 1640TIP3    H226412   6.313   0.235   2.393  0.4586 -0.5547 -0.5283
 1641TIP3   OH226413   1.764   1.657   1.545 -0.0857 -0.2609 -0.2265
 1641TIP3    H126414   1.804   1.666   1.459 -0.0268 -0.9651 -0.2819
 1641TIP3    H226415   1.730   1.744   1.565 -0.8862 -0.2920 -1.3495
 1642TIP3   OH226416   6.231   2.574   3.415 -0.3774  0.8402  0.3219
 1642TIP3    H126417   6.161   2.573   3.480  0.4369  0.4361  1.2033
 1642TIP3    H226418   6.253   2.482   3.402  0.2350  0.9850  0.3102
 1643TIP3   OH226419   6.153   0.645  11.553 -0.6238 -0.6252 -0.2825
 1643TIP3    H126420   6.139   0.589  11.476 -2.4879 -2.1299  1.0640
 1643TIP3    H226421   6.137   0.734  11.520 -0.7249 -1.1611 -1.7778
 1644TIP3   OH226422   6.617   2.556  17.176  0.3632 -0.0634  0.0909
 1644TIP3    H126423   6.628   2.539  17.270  0.9624 -0.6627 -0.0833
 1644TIP3    H226424   6.523   2.546  17.160  0.1781  0.5628  0.7226
 1645TIP3   OH226425   0.793   6.312   1.346 -0.4451 -0.2087 -0.2598
 1645TIP3    H126426   0.790   6.283   1.437 -2.9979  1.1596  0.1840
 1645TIP3    H226427   0.874   6.361   1.339  0.0932 -0.8578  1.0789
 1646TIP3   OH226428   0.107   3.203   4.880  0.2724 -0.1303  0.4010
 1646TIP3    H126429   0.189   3.171   4.917  0.7060  0.0941 -0.3426
 1646TIP3    H226430   0.117   3.298   4.879  0.3724 -0.1475 -0.5180
 1647TIP3   OH226431   1.359   6.046  14.920 -0.4843  0.2935 -0.4596
 1647TIP3    H126432   1.321   6.040  14.832 -0.0081 -1.4060 -0.5966
 1647TIP3    H226433   1.285   6.056  14.979 -1.0795 -1.5214 -0.8399
 1648TIP3   OH226434   6.505   4.517  16.594  0.0856  0.6469  0.4329
 1648TIP3    H126435   6.569   4.495  16.662  1.0743  0.3973 -0.5539
 1648TIP3    H226436   6.545   4.588  16.545  0.0163 -0.0780 -0.7308
 1649TIP3   OH226437   5.448   5.501  15.803  0.1925  0.6113  0.5211
 1649TIP3    H126438   5.400   5.481  15.883 -0.7492  0.8311  0.0261
 1649TIP3    H226439   5.514   5.431  15.796  0.8937  1.0956  1.9433
 1650TIP3   OH226440   1.910   2.248  14.786 -0.0373 -0.1015 -0.4997
 1650TIP3    H126441   1.958   2.171  14.756  0.1506 -1.0338  1.9300
 1650TIP3    H226442   1.827   2.214  14.819 -0.4056  0.8772 -0.3740
 1651TIP3   OH226443   6.774   6.463   6.259 -0.5591  0.2527  0.5431
 1651TIP3    H126444   6.845   6.527   6.263  1.2926 -1.6991  0.8588
 1651TIP3    H226445   6.744   6.466   6.168  1.9001 -0.8240 -0.3786
 1652TIP3   OH226446   0.684   0.707   5.201  0.3526 -0.3935 -0.2802
 1652TIP3    H126447   0.714   0.795   5.224 -0.1769 -0.2534 -0.1020
 1652TIP3    H226448   0.744   0.677   5.133 -0.1896  0.5826 -1.2141
 1653TIP3   OH226449   0.665   2.161   2.403  0.2560 -0.0790  0.6254
 1653TIP3    H126450   0.712   2.232   2.447  1.6246 -0.0271 -0.8576
 1653TIP3    H226451   0.731   2.117   2.349 -0.9708 -1.3020  0.0472
 1654TIP3   OH226452   2.004   1.937  15.732 -0.3253 -1.1078 -0.3052
 1654TIP3    H126453   2.046   1.885  15.664 -2.3658 -2.8272 -0.3474
 1654TIP3    H226454   2.061   1.926  15.809  0.9101 -0.8212 -1.1568
 1655TIP3   OH226455   0.389   0.881   4.742  0.3586 -0.1325  0.6740
 1655TIP3    H126456   0.427   0.799   4.709 -0.7912 -0.4043 -0.0203
 1655TIP3    H226457   0.369   0.864   4.834 -0.4873 -0.8712  0.3657
 1656TIP3   OH226458   3.181   2.666  13.148  0.4603 -0.2353 -0.3854
 1656TIP3    H126459   3.194   2.711  13.232  0.8460 -0.1272 -0.5006
 1656TIP3    H226460   3.150   2.579  13.172  0.3555 -0.1303 -0.1369
 1657TIP3   OH226461   3.388   3.266  17.009  0.5130 -0.2561 -0.3718
 1657TIP3    H126462   3.309   3.281  17.062 -0.7722 -0.4225 -2.1447
 1657TIP3    H226463   3.439   3.203  17.060  0.3979  1.1759  1.6526
 1658TIP3   OH226464   3.947   2.739  15.235  0.0329 -0.6336  0.6709
 1658TIP3    H126465   4.035   2.765  15.260 -0.0257 -1.5611  1.9392
 1658TIP3    H226466   3.933   2.780  15.149  2.9724 -3.1988 -1.2684
 1659TIP3   OH226467   3.471   4.921  15.264 -1.0335  0.2208 -0.5008
 1659TIP3    H126468   3.486   4.842  15.315  3.3264  1.6280  0.8198
 1659TIP3    H226469   3.423   4.979  15.323 -3.0732 -0.8631 -1.0113
 1660TIP3   OH226470   5.708   4.513  15.345 -0.0888 -0.7644  0.2338
 1660TIP3    H126471   5.743   4.601  15.359  1.2772 -0.7696 -2.3863
 1660TIP3    H226472   5.782   4.464  15.308 -0.9550 -2.8933  1.1560
 1661TIP3   OH226473   5.994   6.821  14.180 -0.0750 -0.0050 -0.3326
 1661TIP3    H126474   6.068   6.767  14.207 -0.4826 -0.5538 -0.2751
 1661TIP3    H226475   5.975   6.877  14.255 -1.2148 -1.5321  0.5849
 1662TIP3   OH226476   5.453   4.932  16.209  0.4606  0.4192  0.1500
 1662TIP3    H126477   5.526   4.979  16.168 -0.7720  0.2076 -2.4805
 1662TIP3    H226478   5.380   4.994  16.205 -0.2326 -0.3876  0.0675
 1663TIP3   OH226479   6.400   5.592   5.705  0.1752 -0.0836 -0.4225
 1663TIP3    H126480   6.341   5.668   5.696  0.5119  0.0657 -1.4222
 1663TIP3    H226481   6.444   5.585   5.621 -0.1997 -1.7037 -0.5155
 1664TIP3   OH226482   5.449   3.038   5.562 -0.1278 -0.4822  0.1998
 1664TIP3    H126483   5.497   3.042   5.645  0.4433 -1.6139 -0.0489
 1664TIP3    H226484   5.367   3.085   5.579 -0.1296 -0.9107  1.4857
 1665TIP3   OH226485   3.426   3.347   4.946 -0.5303  0.2824  0.2528
 1665TIP3    H126486   3.379   3.294   5.010 -0.3040 -1.6013 -1.0606
 1665TIP3    H226487   3.489   3.398   4.998 -2.5306  1.3040  1.8142
 1666TIP3   OH226488   2.281   2.623  15.178  0.9984 -0.1665  0.2754
 1666TIP3    H126489   2.329   2.540  15.176 -0.2810 -0.9337  0.2127
 1666TIP3    H226490   2.239   2.624  15.264 -0.0286 -0.1962 -0.2181
 1667TIP3   OH226491   3.732   0.473   1.571 -0.3301  0.3972 -0.3704
 1667TIP3    H126492   3.818   0.441   1.544 -0.0353  0.4484  0.4807
 1667TIP3    H226493   3.705   0.532   1.500  0.3971  0.4842 -0.5809
 1668TIP3   OH226494   3.056   1.129  13.811  0.4498 -0.2033  0.2609
 1668TIP3    H126495   3.121   1.199  13.818 -0.2006  0.5622 -1.1304
 1668TIP3    H226496   3.108   1.052  13.787  1.1418 -0.2135  1.6221
 1669TIP3   OH226497   6.235   4.944  11.236  0.5749 -0.5950 -0.1260
 1669TIP3    H126498   6.235   5.010  11.167  1.1859 -0.9208 -0.4456
 1669TIP3    H226499   6.238   4.994  11.317 -0.6808 -0.1926 -0.3101
 1670TIP3   OH226500   4.967   5.699  12.070 -0.4438 -0.2517  0.3304
 1670TIP3    H126501   5.025   5.737  12.136  0.5274  2.0124 -1.6718
 1670TIP3    H226502   4.937   5.617  12.108  1.5307  0.0632  2.7810
 1671TIP3   OH226503   1.350   5.825  11.216  0.0727 -0.5020  0.2089
 1671TIP3    H126504   1.308   5.740  11.231 -1.1111  0.4523  2.9217
 1671TIP3    H226505   1.395   5.845  11.298  0.0391  1.6338 -0.2214
 1672TIP3   OH226506   3.582   6.683  16.405 -0.2000  0.6487  0.2414
 1672TIP3    H126507   3.582   6.771  16.443 -0.3386  0.5699  0.4237
 1672TIP3    H226508   3.672   6.671  16.374  0.4799 -0.0279  2.2803
 1673TIP3   OH226509   1.903   5.333  14.712  0.2112 -0.6048  0.0446
 1673TIP3    H126510   1.953   5.318  14.793 -0.2822 -1.4145  0.2105
 1673TIP3    H226511   1.913   5.252  14.662 -0.6126 -0.6278 -0.0979
 1674TIP3   OH226512   2.806   5.172  17.014  0.2032 -0.1500  0.1704
 1674TIP3    H126513   2.839   5.084  17.029  1.2506  0.5154  2.3531
 1674TIP3    H226514   2.828   5.219  17.095  1.0130  2.5000 -1.4608
 1675TIP3   OH226515   1.634   0.566  16.021 -0.0690 -0.0183 -0.6843
 1675TIP3    H126516   1.685   0.621  16.081 -2.1519  1.5170 -0.1953
 1675TIP3    H226517   1.694   0.548  15.949  1.5065  0.7715  0.3633
 1676TIP3   OH226518   5.622   2.982   1.021  0.2119  0.0415  0.2422
 1676TIP3    H126519   5.547   3.040   1.011 -0.2036 -0.2275  1.6285
 1676TIP3    H226520   5.599   2.903   0.972 -0.8692 -0.4511  1.5072
 1677TIP3   OH226521   5.638   5.334   5.518  0.2919 -0.4251 -0.9187
 1677TIP3    H126522   5.698   5.329   5.444 -0.9358 -2.9658 -1.8440
 1677TIP3    H226523   5.555   5.363   5.480  0.0961 -0.0304 -0.2118
 1678TIP3   OH226524   0.784   4.499  14.880  0.0958  0.0301  0.1192
 1678TIP3    H126525   0.712   4.537  14.930 -0.2305 -1.7154  1.0457
 1678TIP3    H226526   0.743   4.432  14.825  0.9950 -1.1068  0.7855
 1679TIP3   OH226527   6.271   5.485  13.074 -0.2568  0.4502 -0.8743
 1679TIP3    H126528   6.366   5.497  13.069 -0.5005  2.0229 -3.1096
 1679TIP3    H226529   6.258   5.390  13.072  1.3545 -0.4000  5.5515
 1680TIP3   OH226530   2.760   3.533  15.709  0.0781 -0.5410 -0.5869
 1680TIP3    H126531   2.759   3.454  15.655  0.1118 -2.0328  1.4880
 1680TIP3    H226532   2.745   3.501  15.798 -0.1595  1.8349  0.2823
 1681TIP3   OH226533   6.107   2.122   0.809 -0.3706  0.0014  0.1522
 1681TIP3    H126534   6.112   2.217   0.798  1.5196 -0.0551  0.1200
 1681TIP3    H226535   6.052   2.092   0.737  2.9951  0.6614 -2.9599
 1682TIP3   OH226536   4.113   4.285   3.205  0.4168 -0.2587 -0.1765
 1682TIP3    H126537   4.089   4.257   3.116 -0.2995 -0.2223 -0.0002
 1682TIP3    H226538   4.174   4.218   3.236  1.8603  0.5059 -1.2474
 1683TIP3   OH226539   4.535   5.888   1.667 -0.3114 -0.0074 -0.2408
 1683TIP3    H126540   4.590   5.918   1.739  1.3774 -1.3236 -0.9133
 1683TIP3    H226541   4.543   5.957   1.601 -0.6411  0.4800  0.2192
 1684TIP3   OH226542   2.828   2.943  15.947  0.3371 -0.2425 -0.2493
 1684TIP3    H126543   2.820   2.873  16.012  1.3566 -0.1394  0.0086
 1684TIP3    H226544   2.901   2.997  15.979 -1.0283  1.5019  0.0925
 1685TIP3   OH226545   0.383   5.081  11.797 -0.3193  0.0294 -0.1256
 1685TIP3    H126546   0.388   4.987  11.814  0.1591  0.3619  1.9391
 1685TIP3    H226547   0.317   5.090  11.728  0.0844 -1.8450 -0.8214
 1686TIP3   OH226548   0.740   1.983   0.228  0.8148 -0.4405  0.2855
 1686TIP3    H126549   0.728   1.942   0.314 -0.8979 -0.8485 -0.0968
 1686TIP3    H226550   0.737   2.077   0.246  1.0297 -0.5167  0.7346
 1687TIP3   OH226551   3.238   4.327   4.715 -0.1270 -0.7297  0.1130
 1687TIP3    H126552   3.277   4.351   4.631  0.5141  1.2378  0.9025
 1687TIP3    H226553   3.144   4.330   4.700 -0.0262  0.0402 -0.4452
 1688TIP3   OH226554   3.374   6.637  12.116  0.6121  0.4953  0.1174
 1688TIP3    H126555   3.460   6.598  12.104  0.4820  0.1644  0.2488
 1688TIP3    H226556   3.383   6.692  12.194  0.6645  0.3451  0.2171
 1689TIP3   OH226557   2.716   2.267  15.677  0.1640 -0.6753 -0.3001
 1689TIP3    H126558   2.664   2.333  15.724 -0.0322 -1.2243  0.2698
 1689TIP3    H226559   2.670   2.255  15.594  1.2949  1.3433 -1.2945
 1690TIP3   OH226560   5.768   3.551  13.303  0.3595 -0.2546 -0.2887
 1690TIP3    H126561   5.791   3.463  13.333  0.1868 -0.6114 -1.1742
 1690TIP3    H226562   5.699   3.579  13.362  1.8185  0.1373  1.3221
 1691TIP3   OH226563   3.230   1.391  13.433 -0.6608  0.3239 -0.2582
 1691TIP3    H126564   3.319   1.375  13.465  0.5128  1.8237 -2.5086
 1691TIP3    H226565   3.231   1.358  13.344 -1.7734  2.0336 -0.9454
 1692TIP3   OH226566   5.577   5.247  12.875 -0.1893 -0.3667  0.1939
 1692TIP3    H126567   5.499   5.290  12.911 -0.7301 -2.8663  2.3097
 1692TIP3    H226568   5.651   5.297  12.911 -0.8042 -0.0505  1.0466
 1693TIP3   OH226569   4.851   6.073   5.299 -0.1604  0.0712 -0.1606
 1693TIP3    H126570   4.909   6.034   5.364 -0.0040 -1.6510 -1.2741
 1693TIP3    H226571   4.775   6.015   5.296  0.0715 -0.2014 -1.8553
 1694TIP3   OH226572   2.570   3.710   2.626  0.3988  0.1845  0.5509
 1694TIP3    H126573   2.538   3.628   2.663  1.2676 -0.7660 -0.6927
 1694TIP3    H226574   2.648   3.731   2.677 -0.6474  1.0499  1.8273
 1695TIP3   OH226575   4.705   2.871   4.210  0.5354  0.4452  0.3994
 1695TIP3    H126576   4.770   2.812   4.250 -0.1142  0.2607  1.2074
 1695TIP3    H226577   4.724   2.867   4.116  1.0559 -0.3840  0.5295
 1696TIP3   OH226578   4.559   5.471  14.521  0.3701  0.1291  0.7043
 1696TIP3    H126579   4.531   5.415  14.592  0.0237 -0.0880  0.3993
 1696TIP3    H226580   4.522   5.431  14.442  1.8508 -0.3933  0.2301
 1697TIP3   OH226581   5.761   1.305   0.706  0.4886 -0.2128  0.2049
 1697TIP3    H126582   5.669   1.332   0.709  0.4739 -0.2679  0.2493
 1697TIP3    H226583   5.794   1.322   0.794  0.4645 -0.3930  0.2491
 1698TIP3   OH226584   5.520   3.867  11.871  0.1778  0.2641  0.4572
 1698TIP3    H126585   5.468   3.945  11.885  0.3915  0.6022 -0.5333
 1698TIP3    H226586   5.489   3.833  11.787  2.3611  1.1569 -0.7816
 1699TIP3   OH226587   5.095   4.019   1.964  0.4641  0.1049 -0.1627
 1699TIP3    H126588   5.125   4.094   2.016 -0.6409  1.1214 -0.9450
 1699TIP3    H226589   5.037   3.971   2.022 -0.1249  0.7880 -0.1692
 1700TIP3   OH226590   3.131   5.377   0.111 -0.0847 -0.4260  0.3749
 1700TIP3    H126591   3.062   5.317   0.083  0.8654 -2.6262  2.3853
 1700TIP3    H226592   3.135   5.366   0.206  2.9873 -0.3638  0.3380
 1701TIP3   OH226593   0.141   2.421   3.015  0.4980 -0.4828 -0.0126
 1701TIP3    H126594   0.092   2.452   3.091  2.4340  0.5006  0.9324
 1701TIP3    H226595   0.147   2.497   2.957  2.2219 -0.0693  0.6468
 1702TIP3   OH226596   4.980   0.647  14.393 -0.4092  0.5614 -0.0558
 1702TIP3    H126597   5.019   0.695  14.467  0.9367 -1.6627  0.7862
 1702TIP3    H226598   4.943   0.568  14.432 -2.4714  0.7949 -1.3996
 1703TIP3   OH226599   1.858   0.536   4.780  0.4769  0.7726 -0.4068
 1703TIP3    H126600   1.908   0.579   4.849 -0.1143  1.2606 -0.2829
 1703TIP3    H226601   1.916   0.539   4.704  1.2929 -0.1217  0.1538
 1704TIP3   OH226602   2.300   6.471   5.142  0.2763 -0.1747  0.5609
 1704TIP3    H126603   2.263   6.419   5.071 -1.5479  0.7348  0.7707
 1704TIP3    H226604   2.226   6.524   5.174  2.0003  2.6833  0.2244
 1705TIP3   OH226605   0.526   2.519   3.881 -0.3942  0.1138 -0.1862
 1705TIP3    H126606   0.588   2.465   3.832 -1.2895 -1.6286  0.5079
 1705TIP3    H226607   0.578   2.561   3.949  0.2363 -0.2800 -0.4150
 1706TIP3   OH226608   5.670   4.554  13.163 -0.4614 -0.7279  0.8456
 1706TIP3    H126609   5.738   4.492  13.136  1.6435  1.1719  1.5205
 1706TIP3    H226610   5.676   4.625  13.099 -1.0908 -0.0382  1.5338
 1707TIP3   OH226611   4.184   4.021   5.919 -0.2889 -0.9538 -0.9393
 1707TIP3    H126612   4.242   4.041   5.845 -0.1494 -1.6250 -1.0200
 1707TIP3    H226613   4.096   4.023   5.882 -0.3548  0.4355 -0.7377
 1708TIP3   OH226614   1.794   1.789  13.860  0.4493  0.2486  0.6110
 1708TIP3    H126615   1.853   1.838  13.916 -0.5276 -0.3439  2.2431
 1708TIP3    H226616   1.851   1.742  13.800  1.4921  1.6382  0.4752
 1709TIP3   OH226617   1.036   1.840  16.249  0.3717 -0.1083 -0.0971
 1709TIP3    H126618   1.083   1.901  16.305 -0.3458  0.3643  0.0084
 1709TIP3    H226619   1.045   1.755  16.292  0.0977  0.1938  0.5629
 1710TIP3   OH226620   2.302   3.057   3.901 -0.1368 -0.1530 -0.2544
 1710TIP3    H126621   2.362   3.077   3.973 -0.5353 -0.5412  0.1906
 1710TIP3    H226622   2.276   3.143   3.869 -1.8245  0.1216  1.6367
 1711TIP3   OH226623   6.711   6.646  16.109 -0.6138  0.1930 -0.8824
 1711TIP3    H126624   6.745   6.705  16.176  0.4487 -2.2557  0.8966
 1711TIP3    H226625   6.626   6.617  16.142 -1.1764  0.7601 -1.7862
 1712TIP3   OH226626   4.729   1.500  13.039 -0.4213  0.1711 -0.3537
 1712TIP3    H126627   4.649   1.451  13.056 -0.2784 -0.1232 -0.5307
 1712TIP3    H226628   4.766   1.516  13.127 -0.8361  0.5899 -0.2516
 1713TIP3   OH226629   5.874   1.912  12.045 -0.3121  0.1399  0.1649
 1713TIP3    H126630   5.811   1.876  11.983 -0.1622 -0.0720  0.1363
 1713TIP3    H226631   5.831   1.903  12.130 -0.9060  1.2786  0.0004
 1714TIP3   OH226632   1.908   5.483   2.689 -0.5262  0.1093 -0.2230
 1714TIP3    H126633   1.814   5.491   2.708 -0.2947 -1.4302  2.0629
 1714TIP3    H226634   1.918   5.393   2.658  0.2478  0.0658  0.1359
 1715TIP3   OH226635   6.637   2.809   6.284 -0.1230 -0.1479  0.0701
 1715TIP3    H126636   6.606   2.883   6.337  0.7330  0.0212  0.3363
 1715TIP3    H226637   6.619   2.732   6.338 -0.0362 -0.0456  0.2458
 1716TIP3   OH226638   5.653   5.283  10.961  0.4380 -0.7736 -0.2018
 1716TIP3    H126639   5.611   5.207  10.920  0.2631  0.4033 -2.3188
 1716TIP3    H226640   5.729   5.301  10.905 -2.3748  3.8019 -3.1440
 1717TIP3   OH226641   3.870   3.226   4.075 -0.4543  0.0107 -0.6048
 1717TIP3    H126642   3.909   3.248   3.991  0.9645 -2.4736 -0.7113
 1717TIP3    H226643   3.788   3.182   4.053  0.0232 -0.8408 -0.7609
 1718TIP3   OH226644   0.026   4.542  12.953  0.2829  0.1467 -0.1392
 1718TIP3    H126645   0.009   4.554  13.046  0.6198  0.3559 -0.1000
 1718TIP3    H226646  -0.016   4.617  12.910 -0.5880 -0.3915 -0.2426
 1719TIP3   OH226647   0.547   0.119  15.983 -0.6784  0.0338  0.1036
 1719TIP3    H126648   0.630   0.071  15.981 -0.4032  0.4062  1.4775
 1719TIP3    H226649   0.526   0.135  15.891  0.4039 -0.6943 -0.2854
 1720TIP3   OH226650   1.810   1.229  11.927  0.3867 -0.0264 -0.5846
 1720TIP3    H126651   1.742   1.221  11.861 -0.6493  0.7232  0.3551
 1720TIP3    H226652   1.824   1.140  11.959 -0.9687 -0.0486 -0.0074
 1721TIP3   OH226653   4.543   3.260   5.618 -0.7062  0.4049 -0.3174
 1721TIP3    H126654   4.521   3.169   5.597 -2.5246  0.7451 -0.0304
 1721TIP3    H226655   4.464   3.310   5.595  0.4017  1.9908 -0.8878
 1722TIP3   OH226656   6.259   0.378  14.734  0.0964  0.2652 -0.1382
 1722TIP3    H126657   6.353   0.393  14.744 -0.0172  1.2333 -0.3969
 1722TIP3    H226658   6.226   0.370  14.823  0.1695  1.6350  0.0240
 1723TIP3   OH226659   0.007   6.764  11.467 -0.1285 -0.1895  0.0690
 1723TIP3    H126660  -0.015   6.850  11.500  1.3371  0.1291  0.2509
 1723TIP3    H226661  -0.029   6.763  11.378 -3.3604 -0.7602  1.2438
 1724TIP3   OH226662   6.342   0.193  10.466  0.1445  0.1086 -0.4019
 1724TIP3    H126663   6.394   0.215  10.390 -1.1250  1.1674 -1.0071
 1724TIP3    H226664   6.293   0.273  10.486 -0.7818 -0.6469  0.4963
 1725TIP3   OH226665   2.228   6.636   4.614 -0.1661  0.4219 -0.1697
 1725TIP3    H126666   2.180   6.692   4.676 -0.6360  1.7315 -1.6497
 1725TIP3    H226667   2.290   6.588   4.669 -0.9001  1.1523  1.3809
 1726TIP3   OH226668   0.665   3.424  16.268 -0.4166  0.0433 -0.0709
 1726TIP3    H126669   0.735   3.360  16.280 -0.9345 -0.3508  1.0373
 1726TIP3    H226670   0.634   3.409  16.179 -0.3206 -1.0527  0.0668
 1727TIP3   OH226671   4.353   3.269   6.628 -0.6081 -0.0081  0.2469
 1727TIP3    H126672   4.389   3.182   6.644 -0.1210  0.0370 -0.5748
 1727TIP3    H226673   4.381   3.291   6.539  1.0967  1.8823  1.1637
 1728TIP3   OH226674   0.374   2.948   6.264 -0.0374 -0.0541 -0.5193
 1728TIP3    H126675   0.292   2.910   6.295  0.1605  0.0566  0.1456
 1728TIP3    H226676   0.411   2.991   6.340  1.3135 -1.2593 -0.4422
 1729TIP3   OH226677   5.723   6.009  14.210 -0.2774  0.1141  0.6804
 1729TIP3    H126678   5.658   6.005  14.141  0.3884  1.9363 -0.1287
 1729TIP3    H226679   5.797   6.055  14.171  1.2568 -1.3050  1.7653
 1730TIP3   OH226680   1.847   5.179  16.784 -0.4386  0.6372 -0.2071
 1730TIP3    H126681   1.821   5.114  16.720 -1.4634  1.6428 -0.8518
 1730TIP3    H226682   1.938   5.158  16.804 -0.2298  0.0424 -1.6665
 1731TIP3   OH226683   0.152   3.402  11.578  0.6192  0.0774  0.4184
 1731TIP3    H126684   0.085   3.441  11.634 -1.0484 -1.6838 -0.2729
 1731TIP3    H226685   0.160   3.312  11.609 -0.4444 -0.9871 -2.2094
 1732TIP3   OH226686   5.791   2.684   1.640 -0.2691  0.1083 -0.2461
 1732TIP3    H126687   5.781   2.702   1.547 -1.8083 -0.5154 -0.2215
 1732TIP3    H226688   5.704   2.695   1.677 -0.1064 -1.5746  0.7674
 1733TIP3   OH226689   2.968   1.109  13.234  0.3896 -0.4792 -0.6007
 1733TIP3    H126690   2.981   1.186  13.178  0.1354  0.4886  0.6208
 1733TIP3    H226691   2.948   1.145  13.320  1.6341 -1.9128  0.3496
 1734TIP3   OH226692   4.109   5.649   4.979  0.5741 -0.0550  0.2490
 1734TIP3    H126693   4.044   5.650   5.049 -0.8438 -1.0159 -0.9883
 1734TIP3    H226694   4.083   5.721   4.922  0.9695 -0.0512  0.0743
 1735TIP3   OH226695   2.203   6.153   5.747  0.0987 -0.0518  0.1962
 1735TIP3    H126696   2.257   6.143   5.825 -0.4033  0.2978  0.5957
 1735TIP3    H226697   2.221   6.241   5.714  1.3633 -0.6866 -0.9070
 1736TIP3   OH226698   4.919   1.815  11.880  0.0327  0.1792 -0.3171
 1736TIP3    H126699   4.987   1.774  11.827  1.3138  1.1466  0.4987
 1736TIP3    H226700   4.898   1.750  11.947  0.1193 -0.1437 -0.6035
 1737TIP3   OH226701   4.356   0.762  13.027  0.1541  0.4233  0.2799
 1737TIP3    H126702   4.349   0.712  12.946  1.6371  0.0389  0.3685
 1737TIP3    H226703   4.430   0.821  13.013  0.8427 -0.0922  1.5685
 1738TIP3   OH226704   3.519   2.350   2.221  0.6109  0.0453 -0.0943
 1738TIP3    H126705   3.606   2.387   2.233  0.6035  0.1598 -0.3824
 1738TIP3    H226706   3.499   2.365   2.128 -0.7709  2.2862  0.5100
 1739TIP3   OH226707   5.681   2.679  11.673 -0.1067 -0.7228 -0.6323
 1739TIP3    H126708   5.746   2.616  11.642  0.5416 -0.6592  0.5417
 1739TIP3    H226709   5.619   2.627  11.725  1.2104 -0.2495  1.5234
 1740TIP3   OH226710   1.401   3.740   0.412 -0.0212 -0.1546 -0.0611
 1740TIP3    H126711   1.333   3.716   0.475 -1.1777  0.1201 -1.1644
 1740TIP3    H226712   1.470   3.676   0.425  0.0169  0.2218  1.8517
 1741TIP3   OH226713   6.230   2.014   5.616  0.1868  0.3315  0.2595
 1741TIP3    H126714   6.280   1.982   5.691 -0.4794  1.4766  1.2329
 1741TIP3    H226715   6.213   2.106   5.636  2.1929  1.4521 -2.4870
 1742TIP3   OH226716   1.633   1.845   4.723 -0.0283 -0.2647  0.6101
 1742TIP3    H126717   1.618   1.794   4.643 -0.4387  1.3365 -0.3931
 1742TIP3    H226718   1.694   1.792   4.775  0.1827 -1.3917 -0.7282
 1743TIP3   OH226719   5.767   4.511  16.115 -0.2967  0.0017 -0.4211
 1743TIP3    H126720   5.698   4.503  16.181 -0.0906 -1.9559 -0.3824
 1743TIP3    H226721   5.752   4.597  16.075 -1.1971  0.6967  1.2920
 1744TIP3   OH226722   6.557   5.742  13.425 -0.4430  0.2878  0.3477
 1744TIP3    H126723   6.463   5.754  13.441 -0.5264 -1.2344  1.1160
 1744TIP3    H226724   6.560   5.698  13.340 -0.5198 -0.9010  0.9389
 1745TIP3   OH226725   1.863   4.014  16.448 -0.0831  0.4387  0.2589
 1745TIP3    H126726   1.906   4.038  16.530 -0.5282  0.7647  0.4047
 1745TIP3    H226727   1.926   3.958  16.403  0.5383  1.0015  0.4113
 1746TIP3   OH226728   5.645   0.830  10.200 -0.0545 -0.6365  0.5693
 1746TIP3    H126729   5.681   0.867  10.281  0.0055  0.4733  0.0657
 1746TIP3    H226730   5.586   0.898  10.167  0.8321 -0.5316 -0.9190
 1747TIP3   OH226731   0.079   2.269  14.225  0.4461 -0.0037  0.1510
 1747TIP3    H126732   0.058   2.332  14.156  1.5210 -0.7275 -0.8714
 1747TIP3    H226733   0.005   2.209  14.227  0.7081 -0.3769 -0.8608
 1748TIP3   OH226734   1.096   3.764   2.692 -0.1207 -0.2531  0.4282
 1748TIP3    H126735   1.119   3.671   2.696  1.7490  0.1208 -0.2326
 1748TIP3    H226736   1.046   3.772   2.611 -1.7738 -0.9304  1.3448
 1749TIP3   OH226737   2.224   0.155  15.470  0.2937  0.3546  0.2338
 1749TIP3    H126738   2.139   0.181  15.505 -0.4266 -1.2730 -0.2168
 1749TIP3    H226739   2.250   0.228  15.414 -1.7664  0.0824 -1.1934
 1750TIP3   OH226740   6.257   3.368  16.185  0.2766  0.2309 -0.2545
 1750TIP3    H126741   6.282   3.276  16.191  1.0744  0.5337  2.3078
 1750TIP3    H226742   6.162   3.367  16.179  0.0052 -0.7932  2.7093
 1751TIP3   OH226743   4.059   1.220  12.629  0.6560 -0.2314 -0.0333
 1751TIP3    H126744   4.035   1.201  12.538  0.9443  0.3895 -0.2471
 1751TIP3    H226745   3.976   1.242  12.671  0.4068 -1.3142  0.0657
 1752TIP3   OH226746   5.267   4.655   5.330  0.1696  0.1255 -1.0225
 1752TIP3    H126747   5.333   4.612   5.384 -0.6248 -2.0485 -1.6736
 1752TIP3    H226748   5.195   4.675   5.390 -0.3603 -1.5186 -1.0534
 1753TIP3   OH226749   2.636   2.968  14.395  0.0629  0.0006 -0.9419
 1753TIP3    H126750   2.583   2.925  14.461  0.3648  0.7644 -0.1788
 1753TIP3    H226751   2.634   2.909  14.320  2.2629 -2.4565  0.7488
 1754TIP3   OH226752   5.067   5.481  12.231 -0.5334 -0.2007 -0.2343
 1754TIP3    H126753   4.990   5.511  12.279  0.1269 -0.0426  0.7643
 1754TIP3    H226754   5.126   5.448  12.299  1.1826  1.6724 -0.7300
 1755TIP3   OH226755   0.550   5.576   0.834 -0.0564 -0.8650  0.4590
 1755TIP3    H126756   0.540   5.626   0.915  0.4953  0.2032 -0.1159
 1755TIP3    H226757   0.483   5.507   0.841 -0.1185 -0.7056  1.7435
 1756TIP3   OH226758   1.527   5.971  16.880 -0.0706  0.2717 -0.2006
 1756TIP3    H126759   1.484   6.056  16.868  0.4530  0.6909  0.7797
 1756TIP3    H226760   1.620   5.990  16.871  0.0239 -0.2902 -0.4491
 1757TIP3   OH226761   2.409   4.712  14.212  0.3632 -0.1135 -0.5282
 1757TIP3    H126762   2.416   4.749  14.124  0.5458 -0.0892 -0.5046
 1757TIP3    H226763   2.316   4.692  14.222  0.1436  0.9569 -0.2926
 1758TIP3   OH226764   1.227   0.347   4.585  0.2257 -0.3219 -0.1254
 1758TIP3    H126765   1.271   0.380   4.507 -0.0244 -0.2745 -0.2484
 1758TIP3    H226766   1.163   0.284   4.552  0.5293 -0.7511  0.0878
 1759TIP3   OH226767   1.457   5.927   5.654 -0.1154  0.1266 -0.5130
 1759TIP3    H126768   1.403   6.004   5.672  0.0295  0.0136  0.5138
 1759TIP3    H226769   1.422   5.859   5.712  0.7056 -0.1340 -0.3002
 1760TIP3   OH226770   0.849   0.396  15.279  0.8587  0.1393  0.3561
 1760TIP3    H126771   0.940   0.417  15.256  0.3384  2.2545 -0.0372
 1760TIP3    H226772   0.835   0.442  15.362  0.1916 -0.3206  0.5034
 1761TIP3   OH226773   2.524   2.887   5.414  0.1531 -0.5096  0.6795
 1761TIP3    H126774   2.593   2.867   5.478  0.5335  0.8165  0.7157
 1761TIP3    H226775   2.502   2.802   5.375  0.9869 -1.1188  1.4929
 1762TIP3   OH226776   6.233   3.556   0.675  0.3923  0.5206  0.5229
 1762TIP3    H126777   6.284   3.479   0.703 -2.4676 -1.9353 -0.4422
 1762TIP3    H226778   6.292   3.605   0.618  2.6427 -0.4149  1.9334
 1763TIP3   OH226779   2.233   4.227  12.307 -0.2431  0.1119  0.5104
 1763TIP3    H126780   2.293   4.301  12.298  0.3618 -0.5159 -0.9255
 1763TIP3    H226781   2.168   4.239  12.238 -0.3445 -0.4951  0.4895
 1764TIP3   OH226782   1.575   0.371   2.755 -0.0517 -0.2630 -0.1728
 1764TIP3    H126783   1.576   0.347   2.662  2.0998 -1.1000  0.0035
 1764TIP3    H226784   1.597   0.464   2.756  0.0712 -0.2865 -0.5007
 1765TIP3   OH226785   2.280   3.193  13.321  0.0318 -0.3088  0.1021
 1765TIP3    H126786   2.219   3.234  13.260 -1.3389 -1.1687  0.8574
 1765TIP3    H226787   2.243   3.210  13.407  0.4987 -1.4035  0.5359
 1766TIP3   OH226788   1.926   2.312   2.280  0.6298 -0.2912  0.2020
 1766TIP3    H126789   1.909   2.270   2.196 -0.6735  0.9267 -0.1939
 1766TIP3    H226790   1.921   2.242   2.344 -1.9233 -0.7319 -0.3852
 1767TIP3   OH226791   3.418   0.470   2.288  0.2438  0.0543  0.9517
 1767TIP3    H126792   3.469   0.413   2.232 -0.2339 -0.4686  1.0433
 1767TIP3    H226793   3.417   0.426   2.373 -0.2266  0.1327  0.9903
 1768TIP3   OH226794   0.299   2.105   4.552  0.3095 -0.3653 -0.2496
 1768TIP3    H126795   0.301   2.200   4.539  1.4324 -0.3678 -0.2083
 1768TIP3    H226796   0.378   2.074   4.509  1.2049 -1.0005  1.7410
 1769TIP3   OH226797   0.395   2.981  17.165 -0.1972  0.0441 -0.8429
 1769TIP3    H126798   0.329   2.998  17.232 -0.3675  1.1894 -1.2663
 1769TIP3    H226799   0.355   3.013  17.084  0.6842  0.3090 -1.1871
 1770TIP3   OH226800   6.138   2.841   6.034  0.3886  0.0808 -0.5106
 1770TIP3    H126801   6.175   2.930   6.037  1.1225 -0.1024 -2.3480
 1770TIP3    H226802   6.044   2.854   6.036  0.4877  0.7927  0.6659
 1771TIP3   OH226803   2.906   4.691   1.611 -0.0146  0.1542  0.2694
 1771TIP3    H126804   2.967   4.630   1.652  0.5168  0.8087  0.4622
 1771TIP3    H226805   2.896   4.657   1.522  1.1424  0.3958  0.0289
 1772TIP3   OH226806   1.288   0.474   5.592 -0.1567 -0.2723 -0.1564
 1772TIP3    H126807   1.220   0.458   5.526 -0.8397 -0.1253  0.4956
 1772TIP3    H226808   1.347   0.399   5.584 -0.5520 -0.5515 -0.5409
 1773TIP3   OH226809   3.875   5.976  11.817 -0.8444  0.5021  0.2402
 1773TIP3    H126810   3.934   5.960  11.891  0.4813  2.2898 -0.3590
 1773TIP3    H226811   3.852   6.068  11.823  1.0631  1.3081 -2.6934
 1774TIP3   OH226812   5.546   1.557  13.464 -0.2689 -0.0242  0.3254
 1774TIP3    H126813   5.546   1.636  13.517 -0.7065 -1.4475  2.6037
 1774TIP3    H226814   5.625   1.509  13.491 -0.5560 -0.8377 -0.2240
 1775TIP3   OH226815   4.688   4.524  17.043  0.5932  0.2926  0.2579
 1775TIP3    H126816   4.765   4.489  16.998 -0.5742 -0.3197 -1.3387
 1775TIP3    H226817   4.674   4.610  17.003  1.2047  0.9854  1.4869
 1776TIP3   OH226818   0.034   3.897   2.445  0.0514  0.6381 -0.8482
 1776TIP3    H126819  -0.023   3.924   2.373  0.6372 -0.0945 -1.6046
 1776TIP3    H226820   0.122   3.906   2.410  0.4834  2.4234  0.5347
 1777TIP3   OH226821   2.578   0.509  12.320 -0.3980 -0.0448  0.2525
 1777TIP3    H126822   2.544   0.478  12.236  1.6137 -0.9446 -0.2859
 1777TIP3    H226823   2.617   0.594  12.300 -0.2044 -0.1135  0.3340
 1778TIP3   OH226824   4.061   3.671   0.316 -0.1725 -0.0231 -0.6429
 1778TIP3    H126825   4.103   3.668   0.230  0.6769 -1.6157 -0.2212
 1778TIP3    H226826   4.124   3.629   0.375 -1.3027 -0.1932  0.4986
 1779TIP3   OH226827   2.775   4.198   2.919 -0.3194 -0.2015  0.2038
 1779TIP3    H126828   2.717   4.259   2.874  1.9509  1.3719 -0.7858
 1779TIP3    H226829   2.797   4.133   2.852 -0.1544 -0.2146  0.2711
 1780TIP3   OH226830   3.127   1.553  12.865  0.1414  0.4195  0.3566
 1780TIP3    H126831   3.216   1.545  12.900  1.0225  1.5318 -1.4964
 1780TIP3    H226832   3.132   1.510  12.779 -0.8866  1.2066 -0.1133
 1781TIP3   OH226833   1.781   5.725  16.023  0.4234 -0.4197  0.0530
 1781TIP3    H126834   1.783   5.654  16.087  1.9721 -2.5193 -2.1433
 1781TIP3    H226835   1.718   5.788  16.058 -0.9088 -2.7861  2.1779
 1782TIP3   OH226836   5.535   2.479  11.121 -0.0068 -0.1272 -0.3652
 1782TIP3    H126837   5.627   2.474  11.095  0.6832 -0.3119  1.8896
 1782TIP3    H226838   5.512   2.388  11.144 -1.2961 -0.3951 -2.4687
 1783TIP3   OH226839   0.519   1.978   1.162  0.0518 -0.2115  0.1590
 1783TIP3    H126840   0.548   1.948   1.076  0.0539 -2.3520  0.8402
 1783TIP3    H226841   0.443   2.034   1.144 -0.4114 -1.2229 -1.2167
 1784TIP3   OH226842   6.447   3.997   1.637  0.1521  0.0444 -0.3486
 1784TIP3    H126843   6.471   4.089   1.648 -1.7912  0.6665 -0.8666
 1784TIP3    H226844   6.452   3.982   1.543  2.8878 -1.1739 -0.1181
 1785TIP3   OH226845   4.515   0.415  16.730 -0.5904  0.4620  0.2322
 1785TIP3    H126846   4.541   0.465  16.653  1.2822 -0.4972  0.1817
 1785TIP3    H226847   4.453   0.472  16.776  1.0448  2.6301 -0.0694
 1786TIP3   OH226848   6.738   1.846  14.146  0.2835  0.2696 -0.8303
 1786TIP3    H126849   6.643   1.860  14.147  0.2499  0.4681 -2.6616
 1786TIP3    H226850   6.759   1.815  14.234 -1.4739  0.2369 -0.3858
 1787TIP3   OH226851   4.632   1.359   5.518 -0.2272  0.0669  0.8270
 1787TIP3    H126852   4.681   1.440   5.502 -0.0035  0.1669  1.9665
 1787TIP3    H226853   4.540   1.385   5.510 -0.1481  0.3688  0.8921
 1788TIP3   OH226854   5.418   3.659  12.290 -0.1000  0.4438  0.8721
 1788TIP3    H126855   5.470   3.663  12.209  2.1637  0.6769  2.2443
 1788TIP3    H226856   5.330   3.684  12.263  0.8638  1.8479 -1.2892
 1789TIP3   OH226857   1.215   4.061  12.957 -0.5100 -0.4515  0.7301
 1789TIP3    H126858   1.217   4.151  12.989  1.4487  0.3226 -1.3580
 1789TIP3    H226859   1.149   4.061  12.888 -0.9473 -0.7915  1.1403
 1790TIP3   OH226860   3.180   6.339  11.904  0.2706 -0.4636 -0.4034
 1790TIP3    H126861   3.087   6.353  11.885 -0.0003 -2.2966 -0.6555
 1790TIP3    H226862   3.227   6.379  11.831 -0.3768 -0.3674 -0.7686
 1791TIP3   OH226863   3.887   2.473  15.170 -0.2001 -0.5760  0.4771
 1791TIP3    H126864   3.913   2.534  15.239 -0.0101  0.2312 -0.2892
 1791TIP3    H226865   3.923   2.511  15.089 -0.7516 -1.2910 -0.1206
 1792TIP3   OH226866   0.470   6.824  11.723  0.2172  0.4731  0.1133
 1792TIP3    H126867   0.525   6.849  11.649  0.7510 -2.0039 -0.4222
 1792TIP3    H226868   0.456   6.730  11.712 -3.9495  0.8555  0.3688
 1793TIP3   OH226869   2.556   4.932  16.190 -0.3060 -0.4680 -0.0323
 1793TIP3    H126870   2.469   4.903  16.162 -0.9926 -0.6087  2.1177
 1793TIP3    H226871   2.564   4.902  16.280  0.6547  2.3322  0.9324
 1794TIP3   OH226872   6.584   5.252   0.114  0.0285  0.1365 -0.2332
 1794TIP3    H126873   6.674   5.282   0.107  0.4973 -1.0869  0.2021
 1794TIP3    H226874   6.546   5.270   0.028  0.9774 -0.2115 -0.7491
 1795TIP3   OH226875   4.677   1.876  15.255 -0.5676  0.5370 -0.1392
 1795TIP3    H126876   4.766   1.910  15.248  0.9007 -2.8056  0.1810
 1795TIP3    H226877   4.645   1.872  15.165  0.1977  0.4426 -0.4168
 1796TIP3   OH226878   5.155   0.669   1.897  0.2075  0.6038  0.4058
 1796TIP3    H126879   5.140   0.625   1.814 -2.2527 -0.1991  1.1681
 1796TIP3    H226880   5.248   0.691   1.897  0.1464  1.2593 -2.8148
 1797TIP3   OH226881   2.143   2.625   1.634  0.0871 -0.3667 -0.6204
 1797TIP3    H126882   2.193   2.613   1.553 -0.1379 -1.7611 -0.5824
 1797TIP3    H226883   2.209   2.622   1.703  0.2738  0.7764 -0.7270
 1798TIP3   OH226884   1.657   6.436  12.444  0.8225  0.2513 -0.0690
 1798TIP3    H126885   1.745   6.464  12.419  0.3871 -0.0334 -2.1109
 1798TIP3    H226886   1.642   6.356  12.394 -0.6950  0.4519  0.0123
 1799TIP3   OH226887   3.975   3.609   0.683 -0.0388 -0.5027  0.0117
 1799TIP3    H126888   3.984   3.524   0.638 -0.2129 -1.0463  0.9784
 1799TIP3    H226889   3.997   3.590   0.774  3.0358  1.1323 -0.2600
 1800TIP3   OH226890   6.005   2.118  13.854  0.1475  0.2330  0.3951
 1800TIP3    H126891   6.038   2.142  13.940 -0.2910  1.3803  0.2695
 1800TIP3    H226892   6.069   2.156  13.793  1.1711 -1.6792  0.1973
 1801TIP3   OH226893   3.091   1.053  15.740 -0.1472 -0.8613  0.0474
 1801TIP3    H126894   3.085   1.144  15.713 -1.3379 -0.8821  0.1728
 1801TIP3    H226895   3.141   1.010  15.671  1.1109  0.0266  0.3880
 1802TIP3   OH226896   2.526   1.792  14.047 -0.0452 -0.1361  0.2392
 1802TIP3    H126897   2.525   1.708  14.093 -0.7997 -1.6246 -2.3060
 1802TIP3    H226898   2.559   1.771  13.960  3.2120  2.8749  0.5146
 1803TIP3   OH226899   4.165   0.228  11.981  0.6302 -0.2935 -0.7672
 1803TIP3    H126900   4.103   0.232  11.908 -0.4709  0.6723  0.1600
 1803TIP3    H226901   4.111   0.203  12.056  0.9006  2.4703  0.4787
 1804TIP3   OH226902   2.832   5.829   2.075  0.1326  0.6647 -0.1757
 1804TIP3    H126903   2.855   5.857   1.987 -0.9269 -1.4405 -1.1996
 1804TIP3    H226904   2.885   5.751   2.090  0.8458  1.4051  1.3790
 1805TIP3   OH226905   5.631   2.767   0.628 -0.2911 -0.7602 -0.2027
 1805TIP3    H126906   5.595   2.683   0.655 -2.1222  0.0110 -0.0863
 1805TIP3    H226907   5.724   2.761   0.648 -0.5076 -2.4998  0.4414
 1806TIP3   OH226908   6.291   0.024   5.292  0.2487 -0.5732 -0.2942
 1806TIP3    H126909   6.213   0.079   5.288  0.6382  0.0246  0.1381
 1806TIP3    H226910   6.364   0.086   5.288  0.7074 -1.1174 -0.6534
 1807TIP3   OH226911   6.626   5.969  15.498  0.0149  0.6577 -0.0664
 1807TIP3    H126912   6.713   6.006  15.480  0.0776  0.5600  0.0430
 1807TIP3    H226913   6.565   6.035  15.462  0.1412  0.4680 -0.6431
 1808TIP3   OH226914   2.303   3.957  13.068 -0.2429 -0.1345  0.1038
 1808TIP3    H126915   2.298   4.041  13.022 -0.4185 -0.6623 -0.8618
 1808TIP3    H226916   2.220   3.952  13.116 -0.1413  0.3358  0.3389
 1809TIP3   OH226917   4.490   0.049   2.550 -0.3769  0.3953  0.0333
 1809TIP3    H126918   4.570  -0.003   2.539 -0.9989 -0.4228 -0.7607
 1809TIP3    H226919   4.508   0.104   2.626  0.4429 -0.7134  0.6744
 1810TIP3   OH226920   0.007   0.365  16.344 -0.3223  0.5459 -0.2128
 1810TIP3    H126921   0.100   0.346  16.334 -0.1302 -0.7818  2.9695
 1810TIP3    H226922   0.005   0.456  16.374 -0.0966  0.7086 -0.6831
 1811TIP3   OH226923   6.022   0.930   1.637  0.0013  0.3292  0.3114
 1811TIP3    H126924   6.042   1.015   1.676  1.1519 -0.0168  0.5249
 1811TIP3    H226925   6.074   0.927   1.557  1.1953 -0.7730  1.0864
 1812TIP3   OH226926   3.320   6.338  17.051 -0.0863  0.2169  0.1033
 1812TIP3    H126927   3.369   6.334  17.134 -1.0621 -0.6565  0.6685
 1812TIP3    H226928   3.234   6.370  17.075  0.0376  1.2732 -0.8081
 1813TIP3   OH226929   0.417   0.739  14.453  0.1590 -0.3112  0.2445
 1813TIP3    H126930   0.409   0.739  14.358 -1.1289  2.2819  0.2713
 1813TIP3    H226931   0.476   0.812  14.472  0.6919 -1.0300  1.4328
 1814TIP3   OH226932   2.405   6.173  13.234  0.0334  0.0049 -0.3384
 1814TIP3    H126933   2.343   6.245  13.224 -0.8754 -0.7087 -0.0372
 1814TIP3    H226934   2.490   6.210  13.210 -0.7713  0.5509 -2.5798
 1815TIP3   OH226935   1.709   5.215   3.643  0.1738  1.2046  0.3792
 1815TIP3    H126936   1.781   5.237   3.583 -0.0867  0.8745 -0.0599
 1815TIP3    H226937   1.671   5.300   3.667  0.1955  1.3325 -0.0309
 1816TIP3   OH226938   2.798   2.092   2.639  0.0943  0.0039  0.0514
 1816TIP3    H126939   2.758   2.134   2.564  0.0308 -1.9347 -1.0726
 1816TIP3    H226940   2.779   1.999   2.627  1.2415 -0.4971  1.7631
 1817TIP3   OH226941   2.896   0.966  14.767 -0.6172 -0.2323  0.1373
 1817TIP3    H126942   2.924   0.899  14.705 -1.0379 -1.5397  1.3000
 1817TIP3    H226943   2.973   1.021  14.780 -0.1013 -0.8046 -0.4594
 1818TIP3   OH226944   0.414   0.794   0.501  0.0750  0.1036 -0.6900
 1818TIP3    H126945   0.440   0.800   0.409 -0.2066  1.5227 -0.6850
 1818TIP3    H226946   0.496   0.808   0.550  0.0718  0.1785 -0.7074
 1819TIP3   OH226947   3.811   0.047  12.723  0.1954  0.7020  0.4123
 1819TIP3    H126948   3.724   0.064  12.689  1.0288  3.1280 -0.7084
 1819TIP3    H226949   3.806   0.071  12.816 -0.7860 -1.1373  0.8853
 1820TIP3   OH226950   3.191   5.711   0.518  0.6949  0.0963 -0.0683
 1820TIP3    H126951   3.196   5.657   0.439 -1.8558  0.3134 -0.4831
 1820TIP3    H226952   3.251   5.669   0.579 -0.1271 -2.4296 -0.8520
 1821TIP3   OH226953   6.739   5.911  11.415  0.1576  0.7541  0.0704
 1821TIP3    H126954   6.705   5.939  11.330  0.7713  3.4015  0.6205
 1821TIP3    H226955   6.788   5.831  11.395 -3.7153 -1.5918 -1.1930
 1822TIP3   OH226956   5.514   2.608  13.212 -0.0250  0.1998  0.1122
 1822TIP3    H126957   5.538   2.693  13.249  1.4050  1.6011 -3.6196
 1822TIP3    H226958   5.424   2.620  13.181 -1.3808 -1.1064  3.0784
 1823TIP3   OH226959   1.659   3.018   4.918 -0.0744  0.0582 -0.2225
 1823TIP3    H126960   1.665   3.048   4.828 -0.4755 -0.5785 -0.4727
 1823TIP3    H226961   1.738   3.050   4.960 -0.3344  1.1539 -0.5560
 1824TIP3   OH226962   6.086   6.614   5.312  0.2542 -0.1439 -0.3775
 1824TIP3    H126963   6.135   6.694   5.335  0.2177  0.1640 -1.3443
 1824TIP3    H226964   6.025   6.602   5.385  0.4451  0.5628 -0.0912
 1825TIP3   OH226965   3.045   0.965   5.742  0.4282 -0.0515  0.0008
 1825TIP3    H126966   3.074   0.951   5.832  0.0366 -1.0193 -0.0211
 1825TIP3    H226967   2.953   0.991   5.750  0.5885  0.5591 -0.0836
 1826TIP3   OH226968   5.833   5.093   5.262 -0.1979  0.6542  0.0158
 1826TIP3    H126969   5.809   5.073   5.171  0.7349  1.1846 -0.3711
 1826TIP3    H226970   5.800   5.020   5.313 -1.2399  0.6196 -0.6755
 1827TIP3   OH226971   6.472   2.370  11.642  0.1410 -0.4120 -0.3383
 1827TIP3    H126972   6.536   2.299  11.643 -0.5359 -1.1001 -2.0863
 1827TIP3    H226973   6.491   2.418  11.561 -0.0236  0.8525  0.3427
 1828TIP3   OH226974   1.197   6.244   4.279 -0.0218  0.1772 -0.2486
 1828TIP3    H126975   1.196   6.218   4.371 -2.5344 -1.3111 -0.6161
 1828TIP3    H226976   1.289   6.261   4.260  1.0347 -2.7747  1.6440
 1829TIP3   OH226977   5.168   1.638  13.300  0.3482  0.9954  0.5401
 1829TIP3    H126978   5.144   1.730  13.300 -0.6315  0.7501 -0.2642
 1829TIP3    H226979   5.104   1.596  13.358  0.1637  0.6735  0.1108
 1830TIP3   OH226980   4.185   6.430  15.159  0.0845 -0.0047 -0.4293
 1830TIP3    H126981   4.243   6.405  15.231  0.4808  1.6011 -0.1434
 1830TIP3    H226982   4.117   6.483  15.200  2.0299  3.6640 -1.4820
 1831TIP3   OH226983   4.361   4.183  11.736  0.3991  0.1775 -0.2350
 1831TIP3    H126984   4.335   4.218  11.822 -0.5238 -0.2803 -0.3104
 1831TIP3    H226985   4.449   4.216  11.722 -0.4411  2.5768 -0.3587
 1832TIP3   OH226986   5.927   6.069  12.384  0.0990 -0.7224  0.4349
 1832TIP3    H126987   5.873   6.147  12.374 -1.9667 -1.9522  1.3354
 1832TIP3    H226988   5.978   6.064  12.303  0.9101  1.9623  0.7114
 1833TIP3   OH226989   5.081   0.338  14.147  0.0785 -0.2506  0.1892
 1833TIP3    H126990   5.138   0.409  14.178  1.5800 -0.9320 -0.8789
 1833TIP3    H226991   5.084   0.273  14.217  0.7811 -0.3590  0.0684
 1834TIP3   OH226992   1.966   2.348   0.703 -0.4065  0.0901  0.2205
 1834TIP3    H126993   1.953   2.315   0.792  0.8252  0.3414  0.5106
 1834TIP3    H226994   2.033   2.416   0.713  0.8880 -0.9272 -1.0924
 1835TIP3   OH226995   2.668   4.461  11.688  0.6751 -0.0815 -0.2048
 1835TIP3    H126996   2.605   4.462  11.616 -1.1434  0.0035  1.3227
 1835TIP3    H226997   2.663   4.549  11.725  1.6905 -0.0830 -0.0481
 1836TIP3   OH226998   1.562   5.969  14.473 -0.4551  0.2420  0.4706
 1836TIP3    H126999   1.556   6.003  14.563 -0.4460 -0.2540  0.6598
 1836TIP3    H227000   1.537   5.877  14.480 -0.6466  0.2518 -0.0714
 1837TIP3   OH227001   1.457   2.022   4.056  0.5314 -0.3354 -0.1726
 1837TIP3    H127002   1.481   2.069   4.136  0.5422 -0.7805  0.0896
 1837TIP3    H227003   1.510   2.062   3.987  0.9412 -0.3256  0.1432
 1838TIP3   OH227004   1.596   6.131  14.712 -0.7018  0.0616 -0.0987
 1838TIP3    H127005   1.523   6.193  14.718 -0.6841  0.0630  0.1086
 1838TIP3    H227006   1.631   6.127  14.801  0.6799  1.4105 -0.5283
 1839TIP3   OH227007   4.028   5.150  15.154 -0.4103 -0.4294  0.2214
 1839TIP3    H127008   3.949   5.202  15.164 -1.3241 -1.7514  0.0690
 1839TIP3    H227009   4.050   5.123  15.244 -1.2479 -1.6406  0.0828
 1840TIP3   OH227010   2.193   0.720  13.497 -0.1228  0.1150 -0.5510
 1840TIP3    H127011   2.117   0.676  13.459 -0.3313  1.6686 -2.0785
 1840TIP3    H227012   2.268   0.688  13.446 -0.1493  0.7417 -0.9978
 1841TIP3   OH227013   1.156   4.345   3.622  0.1920  0.3438  0.4367
 1841TIP3    H127014   1.239   4.305   3.648 -0.6101 -0.6666  1.4789
 1841TIP3    H227015   1.117   4.283   3.561  0.3582  1.0107 -0.3823
 1842TIP3   OH227016   1.540   5.856  10.534  0.0510 -0.7543  0.1463
 1842TIP3    H127017   1.467   5.917  10.538  1.2772  0.7487  0.5801
 1842TIP3    H227018   1.560   5.849  10.440 -0.9305 -1.5721 -0.0216
 1843TIP3   OH227019   5.899   2.878  12.879  1.0369  0.0729 -0.1523
 1843TIP3    H127020   5.844   2.805  12.908 -0.7643  0.4020 -2.3949
 1843TIP3    H227021   5.930   2.851  12.792  1.7399  1.2835 -0.2992
 1844TIP3   OH227022   2.761   2.428  15.358  0.1311  0.0039 -0.1665
 1844TIP3    H127023   2.745   2.499  15.421  0.8607 -0.2314  0.3048
 1844TIP3    H227024   2.693   2.364  15.377 -1.0764  0.9398 -1.1773
 1845TIP3   OH227025   3.500   2.369   0.385  0.5246 -0.3179 -0.7440
 1845TIP3    H127026   3.555   2.303   0.343  0.2480 -0.3414 -1.0725
 1845TIP3    H227027   3.421   2.373   0.330  0.4079  0.0616 -0.5510
 1846TIP3   OH227028   6.802   2.695  12.373  0.2328  0.3987 -0.3239
 1846TIP3    H127029   6.799   2.664  12.463  0.6893  0.2974 -0.3393
 1846TIP3    H227030   6.864   2.637  12.330 -2.8488 -2.1549 -1.7269
 1847TIP3   OH227031   1.618   2.404  12.187  0.2404  0.6682  0.0735
 1847TIP3    H127032   1.593   2.456  12.263 -1.7278 -1.0223  0.6486
 1847TIP3    H227033   1.690   2.454  12.147  0.6037  2.1410  2.3891
 1848TIP3   OH227034   3.272   0.513  14.170  0.0123 -0.2636  0.9207
 1848TIP3    H127035   3.292   0.432  14.123 -0.3983  0.7822 -1.2026
 1848TIP3    H227036   3.202   0.489  14.230  0.2616 -1.5937  0.7226
 1849TIP3   OH227037   5.939   3.914  14.942  0.6594  0.2054 -0.6136
 1849TIP3    H127038   5.963   3.994  14.989  1.1422 -0.4049  0.1995
 1849TIP3    H227039   5.852   3.932  14.908  1.1087  1.3996 -1.1825
 1850TIP3   OH227040   1.852   3.693  11.975 -0.1977 -0.2094  0.3533
 1850TIP3    H127041   1.788   3.712  11.906 -0.4482  1.1837  0.9373
 1850TIP3    H227042   1.800   3.658  12.047  0.0835 -1.8094 -0.1982
 1851TIP3   OH227043   0.734   0.010   2.441  0.1900  0.6391  0.2710
 1851TIP3    H127044   0.778   0.094   2.431 -0.7192  1.1448  0.3839
 1851TIP3    H227045   0.711   0.006   2.534  1.4210 -0.3562  0.5522
 1852TIP3   OH227046   4.155   5.395  11.541 -0.0241  0.2705  0.0842
 1852TIP3    H127047   4.086   5.443  11.587 -1.0914 -1.2119  0.1258
 1852TIP3    H227048   4.236   5.430  11.575 -0.7230  2.3622 -0.2539
 1853TIP3   OH227049   1.772   1.588  16.696 -0.1495  0.5153 -0.1037
 1853TIP3    H127050   1.718   1.546  16.763 -1.1243  2.2278  0.2551
 1853TIP3    H227051   1.861   1.560  16.716 -0.7325 -1.2475  0.1606
 1854TIP3   OH227052   4.665   6.220   1.918 -0.4693  0.3162  0.4096
 1854TIP3    H127053   4.709   6.290   1.967 -0.2405 -0.2243  0.9992
 1854TIP3    H227054   4.651   6.151   1.983  0.0784 -0.5257 -0.3388
 1855TIP3   OH227055   1.834   3.186  16.173 -0.1310  0.1092 -0.0186
 1855TIP3    H127056   1.823   3.097  16.142 -0.4691  0.3215 -0.5178
 1855TIP3    H227057   1.846   3.178  16.267 -0.3254 -0.4466 -0.0426
 1856TIP3   OH227058   2.857   3.968  15.551 -0.0203 -0.2458  0.6442
 1856TIP3    H127059   2.770   3.995  15.582 -0.7792 -1.0320 -0.6864
 1856TIP3    H227060   2.887   3.905  15.617 -0.5908 -0.2051  0.9509
 1857TIP3   OH227061   0.413   1.158   3.349  0.1167 -0.0121 -0.5251
 1857TIP3    H127062   0.447   1.234   3.303  0.2607  0.3309  0.1300
 1857TIP3    H227063   0.356   1.194   3.417  1.6898 -0.3538  1.0432
 1858TIP3   OH227064   0.503   6.164  15.778  0.1864  0.5671 -0.2703
 1858TIP3    H127065   0.407   6.169  15.774  0.1873  0.4461 -0.4454
 1858TIP3    H227066   0.526   6.096  15.715  0.3459  0.1529  0.2291
 1859TIP3   OH227067   4.348   2.265  13.586 -0.1068  0.0444 -0.3903
 1859TIP3    H127068   4.299   2.295  13.509  0.6145  1.8070 -0.2145
 1859TIP3    H227069   4.295   2.193  13.622 -1.7956  0.9038 -1.0512
 1860TIP3   OH227070   5.169   1.472  15.881  0.1602  0.2487 -0.1397
 1860TIP3    H127071   5.248   1.424  15.855  0.0932  1.2360 -2.3970
 1860TIP3    H227072   5.184   1.495  15.973  1.9187 -0.6879 -0.1522
 1861TIP3   OH227073   4.668   2.481  11.339  0.1692 -0.0530 -0.3773
 1861TIP3    H127074   4.583   2.437  11.341 -0.2534  0.6428 -1.8330
 1861TIP3    H227075   4.714   2.441  11.265  1.6870 -1.3785  1.2030
 1862TIP3   OH227076   4.312   0.150   3.082  0.6197 -0.4924  0.2349
 1862TIP3    H127077   4.260   0.125   3.158  0.9190  0.1459  0.6617
 1862TIP3    H227078   4.361   0.227   3.111  3.0109 -1.9732  0.3874
 1863TIP3   OH227079   3.510   5.201   4.383  0.1000 -0.2612  0.7415
 1863TIP3    H127080   3.603   5.210   4.363  0.4321 -0.7146  1.9896
 1863TIP3    H227081   3.502   5.228   4.474 -1.4643  2.3829 -0.0680
 1864TIP3   OH227082   0.630   0.401  12.821 -0.6534 -0.6742 -0.7522
 1864TIP3    H127083   0.611   0.354  12.740  0.2936  1.1552 -2.1070
 1864TIP3    H227084   0.725   0.415  12.819 -0.3738 -1.7941  1.3945
 1865TIP3   OH227085   1.734   6.334  13.194 -0.0301 -0.0539  0.0684
 1865TIP3    H127086   1.718   6.252  13.147  0.0010  0.0579 -0.1350
 1865TIP3    H227087   1.791   6.309  13.266 -0.4562 -0.3101  0.3222
 1866TIP3   OH227088   1.076   6.803   2.448 -0.0638  0.3304  0.6074
 1866TIP3    H127089   1.027   6.885   2.448  0.1147  0.4366  0.4099
 1866TIP3    H227090   1.035   6.751   2.518  0.3853  0.9217  1.3294
 1867TIP3   OH227091   6.224   4.293  15.210 -0.5252 -0.2823 -0.0909
 1867TIP3    H127092   6.308   4.279  15.166  0.2318  0.3717  1.0968
 1867TIP3    H227093   6.174   4.349  15.149  0.0295 -0.3851 -0.6528
 1868TIP3   OH227094   1.890   1.705   1.940  0.6991 -0.0471 -0.0614
 1868TIP3    H127095   1.933   1.675   2.020 -0.3700 -0.6313  0.3175
 1868TIP3    H227096   1.926   1.649   1.871 -0.0511 -1.1357  0.3855
 1869TIP3   OH227097   2.510   5.978  14.782  0.7026 -0.1291  0.3929
 1869TIP3    H127098   2.453   6.043  14.824 -1.1460 -0.7892 -0.9902
 1869TIP3    H227099   2.484   5.895  14.822  1.2981 -0.3351  0.3540
 1870TIP3   OH227100   1.299   6.268  12.833  0.5333  0.1691  0.9933
 1870TIP3    H127101   1.214   6.265  12.790  1.0007 -2.9642 -0.0089
 1870TIP3    H227102   1.280   6.248  12.925  0.1144  0.1826  0.9111
 1871TIP3   OH227103   3.842   6.733   0.178  0.1859 -0.5393  0.2079
 1871TIP3    H127104   3.855   6.739   0.083 -0.8612  2.9141  0.1283
 1871TIP3    H227105   3.906   6.793   0.215 -2.3515  1.8010  1.2012
 1872TIP3   OH227106   5.141   5.633  11.482 -0.0172  0.0980 -0.2541
 1872TIP3    H127107   5.147   5.589  11.397 -1.6890  1.7483 -1.3043
 1872TIP3    H227108   5.177   5.720  11.466  2.1464 -0.3972  1.4821
 1873TIP3   OH227109   3.118   2.524   2.430  1.0775 -0.2210  0.1163
 1873TIP3    H127110   3.155   2.491   2.348  1.5446 -0.5499  0.4509
 1873TIP3    H227111   3.177   2.595   2.456  1.8045 -1.0862  0.9188
 1874TIP3   OH227112   1.513   3.740  14.499 -0.0832  0.1691 -0.0003
 1874TIP3    H127113   1.521   3.834  14.512  2.8091 -0.0301  0.3939
 1874TIP3    H227114   1.449   3.712  14.563 -1.4212  1.8985 -0.4936
 1875TIP3   OH227115   0.297   4.920   1.182 -0.0226  0.1954  0.4539
 1875TIP3    H127116   0.223   4.939   1.240 -0.6406 -0.0496 -0.2465
 1875TIP3    H227117   0.260   4.865   1.113  0.8598 -0.0901  0.2043
 1876TIP3   OH227118   5.288   3.304   3.214 -0.0916 -0.1947 -0.1538
 1876TIP3    H127119   5.286   3.399   3.231 -0.3254 -0.0899 -0.7597
 1876TIP3    H227120   5.256   3.295   3.125 -0.6112 -0.8990  0.0985
 1877TIP3   OH227121   2.750   6.366   0.630  0.3502  0.4223 -0.1494
 1877TIP3    H127122   2.682   6.433   0.629  0.0230  0.0906 -1.6896
 1877TIP3    H227123   2.713   6.294   0.682 -0.6114  0.1208 -1.2275
 1878TIP3   OH227124   2.707   0.628   2.625  0.3222  0.1830 -0.4908
 1878TIP3    H127125   2.683   0.719   2.608  0.0061  0.5791  1.7837
 1878TIP3    H227126   2.624   0.580   2.629  0.2449  0.3999  1.2804
 1879TIP3   OH227127   0.254   5.364   5.172  0.1316  0.2224  0.3344
 1879TIP3    H127128   0.238   5.373   5.078  0.8161  0.6090  0.2487
 1879TIP3    H227129   0.234   5.450   5.208 -0.6462 -0.0749  0.6260
 1880TIP3   OH227130   0.726   1.492  14.421 -0.4448 -0.0473 -0.3475
 1880TIP3    H127131   0.670   1.421  14.390  0.9183 -0.7914 -1.1624
 1880TIP3    H227132   0.771   1.524  14.343  1.5364 -0.5980  0.5044
 1881TIP3   OH227133   6.130   6.112  14.528 -0.1957  0.0007 -0.1859
 1881TIP3    H127134   6.065   6.042  14.536 -1.5548  1.4081  2.1522
 1881TIP3    H227135   6.214   6.068  14.539 -0.8466 -1.5718 -1.1924
 1882TIP3   OH227136   3.096   6.009  12.285  0.1205  0.6714  0.4263
 1882TIP3    H127137   3.058   5.956  12.356 -0.2500 -1.8273 -1.4851
 1882TIP3    H227138   3.182   5.970  12.270  1.1469  2.6346  0.9216
 1883TIP3   OH227139   3.089   0.646  13.119  0.5118 -0.2552 -0.2093
 1883TIP3    H127140   3.071   0.650  13.213  1.8034  1.4535  0.0148
 1883TIP3    H227141   3.007   0.614  13.080 -0.5075  0.3311  1.3555
 1884TIP3   OH227142   6.269   3.613  11.677  0.2635 -0.7233 -0.4316
 1884TIP3    H127143   6.178   3.598  11.650  0.0935  0.8014 -0.7821
 1884TIP3    H227144   6.299   3.527  11.708 -0.6540 -1.7457 -2.1891
 1885TIP3   OH227145   5.816   3.884   3.562  0.5959 -0.2101  0.4542
 1885TIP3    H127146   5.785   3.850   3.646 -0.6365 -1.4403 -0.4548
 1885TIP3    H227147   5.870   3.814   3.526 -0.1194 -0.3301 -0.4285
 1886TIP3   OH227148   6.778   1.000  12.984  0.0252 -0.3570  0.3014
 1886TIP3    H127149   6.829   0.992  13.065 -0.9055  1.4989  1.1214
 1886TIP3    H227150   6.687   1.003  13.013 -0.3036  0.8185 -0.7585
 1887TIP3   OH227151   3.630   2.295  11.301  0.3634  0.1157 -0.2695
 1887TIP3    H127152   3.552   2.345  11.274 -0.8495 -1.3804  0.2858
 1887TIP3    H227153   3.599   2.205  11.304  2.0436 -0.4592  0.3944
 1888TIP3   OH227154   5.805   5.749   0.269 -0.1960 -0.1999 -0.1253
 1888TIP3    H127155   5.886   5.699   0.275  0.1685  0.4409  0.3732
 1888TIP3    H227156   5.811   5.795   0.185  0.8227  1.2856  0.7083
 1889TIP3   OH227157   3.658   0.942   5.033  0.5193 -0.2031 -0.7281
 1889TIP3    H127158   3.563   0.953   5.043  0.4303 -0.5812 -1.1471
 1889TIP3    H227159   3.694   0.979   5.114  0.1069  1.1303 -1.1291
 1890TIP3   OH227160   6.585   3.470  10.339 -0.2889 -1.1221  0.0599
 1890TIP3    H127161   6.588   3.393  10.396 -0.1318 -0.4598  0.9591
 1890TIP3    H227162   6.670   3.511  10.348 -0.7465 -0.2287  0.4484
 1891TIP3   OH227163   4.081   5.066  15.405  0.5035  0.4967  0.0104
 1891TIP3    H127164   3.989   5.040  15.413  0.1498  2.1904  2.4175
 1891TIP3    H227165   4.130   4.990  15.437 -0.0168 -0.4482 -1.3590
 1892TIP3   OH227166   5.536   5.728  14.496 -0.2277  0.0471 -0.1854
 1892TIP3    H127167   5.529   5.752  14.588 -0.0906 -0.8276  0.0624
 1892TIP3    H227168   5.559   5.635  14.497 -1.5959 -0.3280 -1.1098
 1893TIP3   OH227169   2.325   6.476   3.664 -0.2850 -0.0499  0.6962
 1893TIP3    H127170   2.293   6.404   3.718 -0.0355 -0.5790  0.1494
 1893TIP3    H227171   2.413   6.449   3.638  0.4163  1.1357  1.7209
 1894TIP3   OH227172   3.546   6.763   4.183  0.8520  0.4367 -0.0848
 1894TIP3    H127173   3.588   6.848   4.195  0.0042  0.8799 -0.1631
 1894TIP3    H227174   3.453   6.779   4.203  0.4474 -0.1674 -1.3437
 1895TIP3   OH227175   0.937   2.065   6.644  0.3865  0.1432  0.3895
 1895TIP3    H127176   0.911   2.046   6.554 -0.6772 -1.5585  1.0036
 1895TIP3    H227177   0.919   2.158   6.655 -2.1008 -0.1764 -0.3679
 1896TIP3   OH227178   1.864   4.992   4.791  0.2833  0.3715  0.1292
 1896TIP3    H127179   1.921   5.034   4.854 -1.3496  2.5962  0.2368
 1896TIP3    H227180   1.819   5.064   4.746 -1.2637 -1.2124 -1.0410
 1897TIP3   OH227181   2.635   2.310   2.384  0.0770  0.2851 -0.0478
 1897TIP3    H127182   2.727   2.301   2.409  0.3172 -1.4403 -1.3645
 1897TIP3    H227183   2.596   2.224   2.402 -1.2008  0.8782  0.1377
 1898TIP3   OH227184   1.513   6.745   5.672 -0.1832 -0.2228 -0.0028
 1898TIP3    H127185   1.444   6.679   5.670 -0.5738  0.0618  1.7426
 1898TIP3    H227186   1.529   6.767   5.581 -1.5713 -1.1517 -0.4954
 1899TIP3   OH227187   0.085   3.668  15.740 -0.2909 -0.5502 -0.0561
 1899TIP3    H127188   0.173   3.649  15.773  0.1411  1.8739  0.3602
 1899TIP3    H227189   0.095   3.668  15.645 -0.1296 -1.4105 -0.0498
 1900TIP3   OH227190   2.736   5.018   3.749  0.2321  0.5362 -0.5587
 1900TIP3    H127191   2.746   5.048   3.659  1.0982 -0.2516 -0.7345
 1900TIP3    H227192   2.813   4.962   3.765  0.8279  1.7435  1.1046
 1901TIP3   OH227193   2.132   3.122  12.116 -0.4569 -0.0836 -0.2724
 1901TIP3    H127194   2.126   3.058  12.186 -0.3293 -0.1217 -0.2952
 1901TIP3    H227195   2.189   3.081  12.051 -0.6180 -0.0715 -0.4229
 1902TIP3   OH227196   3.705   5.156  17.141  0.4869  0.3672  0.0447
 1902TIP3    H127197   3.748   5.072  17.129  0.1816  0.1058  0.6992
 1902TIP3    H227198   3.660   5.173  17.057  1.9651  0.7305 -0.7008
 1903TIP3   OH227199   5.038   0.081  13.639  0.1043  0.3313 -0.4014
 1903TIP3    H127200   5.000   0.162  13.605 -2.1776 -0.9600 -1.0939
 1903TIP3    H227201   5.006   0.075  13.729 -0.4067 -0.2064 -0.6178
 1904TIP3   OH227202   6.156   4.540  13.831  0.2850  0.3519 -0.2216
 1904TIP3    H127203   6.123   4.630  13.820 -0.1766  0.5114  1.9672
 1904TIP3    H227204   6.183   4.536  13.922  1.0779 -1.5209 -0.4960
 1905TIP3   OH227205   3.351   1.875   5.314 -0.2384 -0.2812 -0.0280
 1905TIP3    H127206   3.311   1.958   5.340  2.0415  0.3655  1.7406
 1905TIP3    H227207   3.444   1.887   5.332  0.2815 -2.9169 -0.6265
 1906TIP3   OH227208   2.253   0.588   4.420 -0.2851  0.2128  0.0640
 1906TIP3    H127209   2.167   0.625   4.401 -0.9225 -1.0617  0.3314
 1906TIP3    H227210   2.311   0.630   4.357 -0.9879  1.4890  0.2233
 1907TIP3   OH227211   5.277   1.250   4.436 -0.0768 -0.5549  0.5648
 1907TIP3    H127212   5.188   1.241   4.471 -0.3683 -1.4853 -0.3730
 1907TIP3    H227213   5.299   1.162   4.403  1.4588 -0.5156  1.3929
 1908TIP3   OH227214   4.025   2.600  14.941  0.3437  0.0402  0.2762
 1908TIP3    H127215   4.011   2.648  14.860 -0.3546 -0.7804 -0.1077
 1908TIP3    H227216   4.067   2.518  14.914  1.8400  0.5408  0.9571
 1909TIP3   OH227217   0.564   4.364  11.718 -0.1439  0.1447  0.1057
 1909TIP3    H127218   0.556   4.448  11.762  0.4332 -0.5307  1.5347
 1909TIP3    H227219   0.524   4.301  11.778  5.1158 -1.6177  2.2558
 1910TIP3   OH227220   1.668   1.461  16.453 -0.5911  0.4581 -0.7779
 1910TIP3    H127221   1.706   1.516  16.522 -1.9739  2.1078 -1.2593
 1910TIP3    H227222   1.661   1.375  16.493 -1.6911  1.4319  1.3613
 1911TIP3   OH227223   3.547   0.655  12.729  0.4627  0.6765  0.2352
 1911TIP3    H127224   3.490   0.594  12.775  1.8262 -0.3097  0.6717
 1911TIP3    H227225   3.608   0.687  12.796  2.0677 -0.2871 -0.6915
 1912TIP3   OH227226   6.537   4.267   0.128  0.1014  0.5084  0.4410
 1912TIP3    H127227   6.528   4.355   0.167  1.9343  1.0437 -0.2293
 1912TIP3    H227228   6.472   4.265   0.058 -0.2156  1.2009  0.7073
 1913TIP3   OH227229   1.006   2.541   4.434  0.0440 -0.2983 -0.0910
 1913TIP3    H127230   0.961   2.571   4.513  1.9382 -0.9758  1.3204
 1913TIP3    H227231   0.943   2.482   4.392 -0.8484 -0.2697  1.1465
 1914TIP3   OH227232   3.219   1.816  12.250 -0.3287  0.0740  0.0592
 1914TIP3    H127233   3.187   1.902  12.223 -2.6792 -0.6866  0.1503
 1914TIP3    H227234   3.258   1.830  12.336  0.6554  1.2690 -0.5559
 1915TIP3   OH227235   2.299   6.638  12.501 -0.4013  0.3228  0.0242
 1915TIP3    H127236   2.348   6.670  12.577  3.4951 -0.5373 -1.8879
 1915TIP3    H227237   2.296   6.712  12.441 -1.8624  0.4431  0.1943
 1916TIP3   OH227238   2.366   2.607  17.191 -0.1747  0.2633 -0.6843
 1916TIP3    H127239   2.404   2.520  17.184  1.2089  0.9547 -2.2761
 1916TIP3    H227240   2.275   2.596  17.162  0.7799 -0.1849 -3.8936
 1917TIP3   OH227241   3.068   3.973   2.665  0.2791  0.1587 -0.1402
 1917TIP3    H127242   3.077   4.047   2.724  0.4293 -0.6949  0.9286
 1917TIP3    H227243   3.124   3.995   2.590  0.0997  1.2360  0.0267
 1918TIP3   OH227244   6.222   3.967  10.315  0.6385  0.3885  0.1783
 1918TIP3    H127245   6.293   4.026  10.291 -0.7419  1.4940 -1.4490
 1918TIP3    H227246   6.166   4.021  10.372 -0.4156  0.5706 -0.9821
 1919TIP3   OH227247   0.551   5.487  12.137 -0.6641  0.0213  0.1341
 1919TIP3    H127248   0.489   5.459  12.069 -0.2358 -0.5566 -0.0247
 1919TIP3    H227249   0.617   5.537  12.089 -1.0176  0.6586  0.3061
 1920TIP3   OH227250   5.365   4.681   1.082  0.0105  0.2983 -0.3990
 1920TIP3    H127251   5.283   4.731   1.082 -0.2727 -0.1417 -1.7506
 1920TIP3    H227252   5.428   4.736   1.036 -0.4798 -0.8097 -2.4945
 1921TIP3   OH227253   4.140   2.552   0.664 -0.1675  0.0908  0.4093
 1921TIP3    H127254   4.089   2.540   0.583  3.3940 -1.8664 -1.7934
 1921TIP3    H227255   4.098   2.493   0.727 -0.6215 -1.5761 -1.3449
 1922TIP3   OH227256   1.490   2.573   6.665 -0.1793  0.4792  0.0252
 1922TIP3    H127257   1.535   2.493   6.637  1.2165  0.7958  1.2242
 1922TIP3    H227258   1.467   2.617   6.583 -0.9364 -1.0963 -0.6580
 1923TIP3   OH227259   5.686   5.495   2.684  0.2959 -0.6600  0.3552
 1923TIP3    H127260   5.763   5.439   2.677  1.1885  0.3454  1.5448
 1923TIP3    H227261   5.671   5.527   2.595  1.0386 -1.1550  0.0418
 1924TIP3   OH227262   5.601   0.605   5.705  0.0510  0.0549 -0.4729
 1924TIP3    H127263   5.524   0.661   5.704 -0.0834 -0.1014 -1.9236
 1924TIP3    H227264   5.613   0.581   5.797 -0.3362  1.8114  0.0662
 1925TIP3   OH227265   6.391   6.658   1.901 -0.0761 -0.5686 -0.0698
 1925TIP3    H127266   6.339   6.608   1.838  1.4222 -1.0214 -0.9927
 1925TIP3    H227267   6.437   6.723   1.848 -1.1644  1.1560  0.9789
 1926TIP3   OH227268   1.384   3.089  11.406  0.3340  0.2699  0.1188
 1926TIP3    H127269   1.363   3.066  11.316  0.9915 -0.2564  0.0883
 1926TIP3    H227270   1.314   3.148  11.433  0.2649  0.6401 -0.8209
 1927TIP3   OH227271   5.668   0.610   0.389 -0.1185 -0.0880 -0.7317
 1927TIP3    H127272   5.711   0.600   0.305  1.1498  0.9886 -0.2426
 1927TIP3    H227273   5.731   0.578   0.453 -0.9862 -0.7068 -0.1606
 1928TIP3   OH227274   3.154   2.424  12.461  0.9478 -0.5982  0.1145
 1928TIP3    H127275   3.084   2.463  12.514  0.4886 -1.1725 -0.0576
 1928TIP3    H227276   3.108   2.383  12.387  1.5462 -0.1026 -0.5501
 1929TIP3   OH227277   0.789   0.991  13.195  0.2943  0.4523  0.3368
 1929TIP3    H127278   0.861   0.943  13.155  0.7534  0.6052  0.9616
 1929TIP3    H227279   0.747   1.038  13.123  0.9935  0.5809  0.0160
 1930TIP3   OH227280   5.845   2.742   0.838  0.2267  0.0413  0.1150
 1930TIP3    H127281   5.873   2.724   0.748 -0.7609  0.9971 -0.4034
 1930TIP3    H227282   5.846   2.656   0.880  0.1022 -0.5224 -0.9847
 1931TIP3   OH227283   1.189   2.290   3.010 -0.0000 -0.5271 -0.3205
 1931TIP3    H127284   1.097   2.315   3.003 -0.0993 -0.5611  0.7090
 1931TIP3    H227285   1.234   2.369   3.040  0.2413 -0.6302 -0.4043
 1932TIP3   OH227286   4.973   2.456  16.729 -0.8403  0.4666  0.2114
 1932TIP3    H127287   4.927   2.386  16.775  1.7161 -1.3559  0.2270
 1932TIP3    H227288   5.011   2.413  16.652  3.8233  0.7078  2.0382
 1933TIP3   OH227289   2.758   0.719  14.360 -0.2833  0.0829 -0.2521
 1933TIP3    H127290   2.720   0.780  14.297  1.0406  1.1584 -0.0362
 1933TIP3    H227291   2.687   0.657  14.378 -1.7113  1.6357 -0.3524
 1934TIP3   OH227292   6.554   3.808  16.207  0.4935  0.7160  0.4821
 1934TIP3    H127293   6.588   3.878  16.151  2.2851  0.2969  0.9742
 1934TIP3    H227294   6.632   3.767  16.244 -0.5283 -1.2892  0.5306
 1935TIP3   OH227295   3.234   5.308   6.508 -0.9734 -0.0689  0.0614
 1935TIP3    H127296   3.327   5.302   6.485 -1.7129 -1.3200 -3.0140
 1935TIP3    H227297   3.210   5.398   6.489 -0.6652 -0.0699 -0.3398
 1936TIP3   OH227298   2.152   0.978   2.438 -0.1527  0.0713  0.5301
 1936TIP3    H127299   2.061   0.999   2.415 -0.4601  1.5378  2.7445
 1936TIP3    H227300   2.205   1.034   2.382 -0.4357 -2.1001 -2.1029
 1937TIP3   OH227301   2.073   3.495  12.986  0.0045 -0.1594 -0.1448
 1937TIP3    H127302   2.008   3.436  13.022  0.5792 -0.2808  0.7279
 1937TIP3    H227303   2.077   3.568  13.048  1.7999 -0.8987  0.6736
 1938TIP3   OH227304   0.891   1.425   0.467  0.0992  0.0365 -0.0822
 1938TIP3    H127305   0.884   1.521   0.466 -0.8070 -0.0057  0.9243
 1938TIP3    H227306   0.803   1.394   0.447  0.3829 -0.6017 -0.3858
 1939TIP3   OH227307   6.501   4.016   1.362 -0.1216  0.5231 -0.4290
 1939TIP3    H127308   6.533   3.943   1.310  0.8532  0.9735 -0.4868
 1939TIP3    H227309   6.532   4.094   1.316  1.2460  0.9334  1.0880
 1940TIP3   OH227310   2.877   5.186  15.508  0.3064  0.0475 -0.2621
 1940TIP3    H127311   2.912   5.109  15.552 -1.3760 -0.4034  0.3596
 1940TIP3    H227312   2.943   5.208  15.441  2.0058 -0.3963  1.1932
 1941TIP3   OH227313   3.921   2.465  12.447 -0.4194 -0.0548  0.8237
 1941TIP3    H127314   3.976   2.516  12.507 -1.8175  0.9295  1.3252
 1941TIP3    H227315   3.834   2.505  12.455 -1.3950 -2.0204  0.6284
 1942TIP3   OH227316   3.341   5.181   3.830 -0.6843 -0.2521  0.2058
 1942TIP3    H127317   3.325   5.275   3.826 -1.2000 -0.3180  0.6102
 1942TIP3    H227318   3.434   5.172   3.812 -0.7080  0.3043 -0.2217
 1943TIP3   OH227319   3.014   0.342   2.193  0.6530  0.6155  0.0004
 1943TIP3    H127320   2.948   0.293   2.144  0.5536  1.1408 -0.4062
 1943TIP3    H227321   3.097   0.321   2.150  0.7031  0.2648  0.2638
 1944TIP3   OH227322   5.946   5.295   2.065 -0.0480 -0.7532 -0.2348
 1944TIP3    H127323   6.006   5.366   2.090 -0.0836 -0.8244  0.0502
 1944TIP3    H227324   6.002   5.231   2.020  0.5288 -1.8659  1.9291
 1945TIP3   OH227325   1.907   2.051  14.317  0.1246  0.2718 -0.5487
 1945TIP3    H127326   1.892   2.035  14.410  1.8713 -0.5071 -0.3718
 1945TIP3    H227327   1.876   1.972  14.274  0.9868 -0.1359 -0.4427
 1946TIP3   OH227328   1.417   2.627  15.308 -0.2548  0.2350  0.4257
 1946TIP3    H127329   1.508   2.643  15.282  0.3178 -0.1606  2.0514
 1946TIP3    H227330   1.397   2.697  15.370 -1.0269  0.2595  0.1580
 1947TIP3   OH227331   4.193   0.451  14.353 -0.4700  0.5979 -0.5490
 1947TIP3    H127332   4.111   0.500  14.364 -0.5132  0.2116  1.1578
 1947TIP3    H227333   4.165   0.359  14.349 -0.1106  0.4319  0.4978
 1948TIP3   OH227334   4.994   6.142  15.721 -0.1900 -0.4117  0.5738
 1948TIP3    H127335   4.919   6.104  15.768  0.0384  0.3304  1.6007
 1948TIP3    H227336   4.958   6.219  15.677  0.1483  0.6006  1.9910
 1949TIP3   OH227337   3.890   2.240  10.814  0.2204 -0.3033 -0.0047
 1949TIP3    H127338   3.985   2.246  10.821  0.1710  0.1365  0.2907
 1949TIP3    H227339   3.861   2.330  10.799 -0.2652 -0.2358  1.2617
 1950TIP3   OH227340   0.307   5.428   0.789  0.0500 -0.3921 -0.1439
 1950TIP3    H127341   0.350   5.461   0.710  0.0653 -1.2837 -0.5169
 1950TIP3    H227342   0.214   5.426   0.767  0.3032 -3.7719 -1.3787
 1951TIP3   OH227343   5.302   1.613  16.638  0.4023  0.2749 -0.1043
 1951TIP3    H127344   5.280   1.661  16.559  0.3011  0.9484  0.3216
 1951TIP3    H227345   5.351   1.676  16.692 -0.0986  0.0429  0.6454
 1952TIP3   OH227346   3.255   5.124   1.367 -0.1247  0.1248 -0.1369
 1952TIP3    H127347   3.200   5.049   1.392 -0.7260  0.4850 -0.3572
 1952TIP3    H227348   3.308   5.091   1.295 -1.3572  0.2882 -1.1502
 1953TIP3   OH227349   6.812   2.918   3.201  0.4744  0.2245  0.3981
 1953TIP3    H127350   6.884   2.858   3.182 -0.5355 -0.7161 -0.6482
 1953TIP3    H227351   6.797   2.963   3.118 -0.4291  0.0848  0.4792
 1954TIP3   OH227352   2.877   3.111  14.808  0.2855  0.1268  0.5089
 1954TIP3    H127353   2.829   3.097  14.727  1.2342  0.0790 -0.0520
 1954TIP3    H227354   2.825   3.065  14.874  0.4649 -1.4153 -0.3787
 1955TIP3   OH227355   3.973   4.786  12.881 -0.1813 -0.8104  0.4073
 1955TIP3    H127356   4.014   4.756  12.963  0.2911 -0.4649  0.3074
 1955TIP3    H227357   4.020   4.867  12.860  0.3382 -1.3820 -0.6989
 1956TIP3   OH227358   1.242   6.597   2.523 -0.3874  0.6741  0.2434
 1956TIP3    H127359   1.243   6.519   2.468 -0.9305  1.4570 -0.9239
 1956TIP3    H227360   1.208   6.666   2.466  2.3232  2.3454  0.4476
 1957TIP3   OH227361   1.903   5.259   2.517  0.0146  0.1773 -0.0568
 1957TIP3    H127362   1.986   5.234   2.477 -0.5893 -1.1488 -0.5313
 1957TIP3    H227363   1.844   5.276   2.444  0.2909  2.8867  0.2267
 1958TIP3   OH227364   3.323   4.224  14.335  0.5442 -0.7074  0.2373
 1958TIP3    H127365   3.288   4.145  14.375  0.1619 -0.4510  0.4138
 1958TIP3    H227366   3.322   4.289  14.405  0.6536 -0.4862  0.0340
 1959TIP3   OH227367   6.338   5.334  10.642  0.2277 -0.4594  0.2344
 1959TIP3    H127368   6.375   5.247  10.634 -1.9479 -1.4569  0.3336
 1959TIP3    H227369   6.358   5.377  10.558 -1.5758 -2.2890 -1.2256
 1960TIP3   OH227370   2.268   5.478  17.080  0.0684  0.3989  0.1604
 1960TIP3    H127371   2.290   5.570  17.090 -0.8455  0.6173  0.2615
 1960TIP3    H227372   2.252   5.467  16.986  0.3353  0.3067  0.1254
 1961TIP3   OH227373   4.767   5.359   2.168  0.0470  0.1067  0.3179
 1961TIP3    H127374   4.787   5.267   2.183 -0.4012  0.2014  1.6859
 1961TIP3    H227375   4.676   5.360   2.139 -0.5418  0.1958  2.0256
 1962TIP3   OH227376   3.840   0.083  16.247 -0.2932 -0.0478  0.3869
 1962TIP3    H127377   3.778   0.152  16.223 -0.8113 -0.7783 -0.4116
 1962TIP3    H227378   3.855   0.096  16.341 -0.7890  0.8260  0.3532
 1963TIP3   OH227379   5.045   3.701   0.898 -0.1848 -0.2824 -0.2851
 1963TIP3    H127380   4.969   3.646   0.914 -0.5238  0.3944  0.5440
 1963TIP3    H227381   5.008   3.784   0.866  0.1285  0.3428  0.9161
 1964TIP3   OH227382   2.871   2.703   6.020  0.1349 -0.3227 -0.1621
 1964TIP3    H127383   2.864   2.773   6.085 -1.9937  0.6225 -1.3264
 1964TIP3    H227384   2.869   2.749   5.936  0.8146 -1.6731 -0.9492
 1965TIP3   OH227385   4.089   1.691  13.645  0.5728 -0.0274 -0.4187
 1965TIP3    H127386   4.082   1.698  13.550  0.4593 -2.1485 -0.6213
 1965TIP3    H227387   4.180   1.666  13.661  0.6678  0.5975  0.0671
 1966TIP3   OH227388   2.045   3.652   3.630 -0.5049 -0.1251 -0.5667
 1966TIP3    H127389   2.068   3.745   3.629  0.0306 -0.2432 -0.0125
 1966TIP3    H227390   2.093   3.617   3.706 -0.3443 -0.9379 -1.0374
 1967TIP3   OH227391   0.102   2.329  11.167 -0.0963 -0.3429 -0.2159
 1967TIP3    H127392   0.141   2.243  11.183 -1.2495 -0.8049  0.1687
 1967TIP3    H227393   0.160   2.390  11.211 -0.0868 -1.0682  0.8078
 1968TIP3   OH227394   5.305   6.363   4.812  0.1117  0.5053 -0.1463
 1968TIP3    H127395   5.322   6.337   4.903  2.4192 -0.9165 -0.9217
 1968TIP3    H227396   5.272   6.284   4.770 -0.5313  1.0469 -0.6840
 1969TIP3   OH227397   4.462   1.756  11.351 -0.2356  0.5582 -0.1804
 1969TIP3    H127398   4.479   1.843  11.314  1.7055  0.4072  0.2763
 1969TIP3    H227399   4.429   1.774  11.439  1.8218  0.8828  0.5927
 1970TIP3   OH227400   4.891   2.059  16.139 -0.6553  0.1923  0.2521
 1970TIP3    H127401   4.813   2.075  16.086 -1.5512  2.7808  2.1248
 1970TIP3    H227402   4.856   2.028  16.223  0.5738 -1.5218  0.1810
 1971TIP3   OH227403   4.190   5.495  14.087  0.2506  0.4035  0.3244
 1971TIP3    H127404   4.175   5.485  14.181 -2.0453  1.3393  0.1182
 1971TIP3    H227405   4.103   5.510  14.050  0.9493 -0.9876 -2.1115
 1972TIP3   OH227406   6.646   4.457   6.073  0.7337  0.0056  0.3068
 1972TIP3    H127407   6.569   4.438   6.127 -1.2389  1.9548 -1.5834
 1972TIP3    H227408   6.615   4.522   6.009  3.1782 -1.2495 -2.4092
 1973TIP3   OH227409   5.087   0.060   3.073 -0.0225 -0.1407  0.3575
 1973TIP3    H127410   5.157   0.120   3.097 -0.8750  1.6781 -1.3973
 1973TIP3    H227411   5.118   0.016   2.994  0.0205 -0.9956  0.8373
 1974TIP3   OH227412   0.781   2.336  11.025 -0.1853 -0.4458  0.3563
 1974TIP3    H127413   0.732   2.414  11.052  1.9967  0.0199  3.4862
 1974TIP3    H227414   0.714   2.274  10.996 -2.6760  0.3756  3.7384
 1975TIP3   OH227415   2.384   6.552  13.691 -0.2598  0.0797  0.0299
 1975TIP3    H127416   2.295   6.583  13.671  0.2733  1.1268 -0.8323
 1975TIP3    H227417   2.390   6.558  13.786 -0.1454  2.9412 -0.0620
 1976TIP3   OH227418   1.248   3.277  16.772  0.3389 -0.5721 -0.3485
 1976TIP3    H127419   1.320   3.259  16.833 -0.6678  0.0123  1.0789
 1976TIP3    H227420   1.291   3.305  16.692  1.7501  2.9705  1.4421
 1977TIP3   OH227421   0.426   2.584  16.424  0.2571 -0.2853 -0.4283
 1977TIP3    H127422   0.444   2.678  16.415 -0.7267 -0.1253 -0.8446
 1977TIP3    H227423   0.513   2.543  16.430  0.7087  0.5804 -0.9278
 1978TIP3   OH227424   3.956   1.991   4.595  0.2496  0.1289  0.2846
 1978TIP3    H127425   3.977   1.910   4.550 -1.7561 -0.1836 -0.2071
 1978TIP3    H227426   4.015   1.994   4.670  0.5209 -1.6622  0.1743
 1979TIP3   OH227427   1.128   6.600  12.450  0.2796  0.0176 -0.5841
 1979TIP3    H127428   1.131   6.571  12.541 -2.1721 -0.2613 -0.5318
 1979TIP3    H227429   1.084   6.685  12.453  0.5327  0.1916 -1.4789
 1980TIP3   OH227430   0.925   5.113  16.320 -0.2939  0.5443  0.5230
 1980TIP3    H127431   0.963   5.172  16.254 -0.9468 -0.4238 -0.7764
 1980TIP3    H227432   0.831   5.116  16.303 -0.3161 -1.1745  0.1030
 1981TIP3   OH227433   1.512   6.429   1.116  0.2649  0.6406 -0.1893
 1981TIP3    H127434   1.462   6.509   1.131 -1.2167 -0.5568  1.7164
 1981TIP3    H227435   1.456   6.377   1.058  0.3263  0.2159  0.1314
 1982TIP3   OH227436   1.368   5.084  12.054 -0.3799 -0.6431 -0.7605
 1982TIP3    H127437   1.462   5.101  12.051  0.3128 -3.4864  0.7476
 1982TIP3    H227438   1.358   4.998  12.012 -2.1294 -0.9051  0.0945
 1983TIP3   OH227439   5.049   1.724   1.629  0.3147  0.6108  0.0223
 1983TIP3    H127440   5.088   1.767   1.553 -1.6061 -0.6820 -1.8048
 1983TIP3    H227441   5.002   1.794   1.675  2.3919  1.6279  0.7487
 1984TIP3   OH227442   4.093   1.392   0.370  0.8738 -0.0037  0.3506
 1984TIP3    H127443   4.082   1.299   0.392  2.0268 -0.3190 -0.3220
 1984TIP3    H227444   4.006   1.430   0.383  0.6106 -0.9573  1.6243
 1985TIP3   OH227445   2.096   1.483  13.395  0.1251  0.1902 -0.1062
 1985TIP3    H127446   2.104   1.452  13.485  2.4060 -0.9962 -0.6370
 1985TIP3    H227447   2.106   1.578  13.401  0.9084  0.0642  0.8408
 1986TIP3   OH227448   0.610   5.231   0.374 -0.2094  0.2825  0.4709
 1986TIP3    H127449   0.554   5.253   0.299 -0.0662  1.7413  0.7522
 1986TIP3    H227450   0.632   5.139   0.362 -0.2131  0.4776 -1.2620
 1987TIP3   OH227451   3.503   5.539  16.955 -0.1731  0.4504 -0.5462
 1987TIP3    H127452   3.534   5.617  16.910 -2.2204  1.9599  0.4860
 1987TIP3    H227453   3.476   5.479  16.884 -3.0625  2.6405 -1.4991
 1988TIP3   OH227454   3.584   3.425  17.193 -0.1941  0.1960  0.1934
 1988TIP3    H127455   3.632   3.497  17.152  3.0571 -1.8228  0.0217
 1988TIP3    H227456   3.514   3.404  17.131  0.1270  1.7912 -0.7653
 1989TIP3   OH227457   0.974   2.024   0.418  0.0228 -0.2141  0.2779
 1989TIP3    H127458   0.900   2.046   0.474 -1.2676  0.5528 -1.6298
 1989TIP3    H227459   0.953   1.938   0.383  0.0458 -0.0223 -0.2204
 1990TIP3   OH227460   5.041   6.372   3.699  0.1128  0.1243  0.0523
 1990TIP3    H127461   5.003   6.333   3.778 -2.4118 -0.8773 -1.5125
 1990TIP3    H227462   4.991   6.453   3.686  1.4409  0.9967  0.1823
 1991TIP3   OH227463   3.055   5.462   0.692  0.0074 -0.2494 -0.3149
 1991TIP3    H127464   3.121   5.520   0.732 -1.7562  0.8485  1.1700
 1991TIP3    H227465   3.043   5.497   0.604 -0.0499  0.8603  0.1054
 1992TIP3   OH227466   6.267   4.531  14.087 -0.8812  0.2546 -0.1017
 1992TIP3    H127467   6.307   4.601  14.138 -3.3865  1.5425  0.2702
 1992TIP3    H227468   6.305   4.450  14.123  2.5749  1.3232 -0.9915
 1993TIP3   OH227469   0.894   4.189  14.273 -0.0005 -0.4465 -0.5540
 1993TIP3    H127470   0.986   4.164  14.274 -0.2635 -1.4054  0.4673
 1993TIP3    H227471   0.864   4.179  14.363 -1.1518 -0.2888 -0.8958
 1994TIP3   OH227472   5.614   1.408   4.375  0.6472 -0.2561 -0.4259
 1994TIP3    H127473   5.689   1.468   4.370  2.2914 -1.9287  1.7934
 1994TIP3    H227474   5.543   1.453   4.329  3.0008  1.3935 -2.7225
 1995TIP3   OH227475   1.086   3.033  16.734 -0.1925  0.4087  0.2618
 1995TIP3    H127476   1.129   3.119  16.742  0.6432 -0.1132  1.8476
 1995TIP3    H227477   1.113   3.001  16.648 -0.0114  1.4609 -0.0942
 1996TIP3   OH227478   2.935   6.750   3.271  0.2607 -0.2208  0.1526
 1996TIP3    H127479   2.970   6.693   3.203 -2.2438 -1.5607 -0.1603
 1996TIP3    H227480   2.896   6.823   3.224 -0.5873 -0.6422  0.1679
 1997TIP3   OH227481   5.669   5.618   5.990 -0.0817 -0.7384 -0.1335
 1997TIP3    H127482   5.607   5.679   6.031 -0.4962 -1.6797  0.6851
 1997TIP3    H227483   5.700   5.664   5.912  0.6095  1.0544  1.1296
 1998TIP3   OH227484   2.049   1.282   4.352  0.1475 -0.1159  0.0284
 1998TIP3    H127485   2.043   1.242   4.439 -1.2693  2.0363  1.0175
 1998TIP3    H227486   2.121   1.345   4.359 -0.0264  0.1269 -0.3224
 1999TIP3   OH227487   5.382   0.334   4.706 -0.2306  0.2350 -0.5709
 1999TIP3    H127488   5.327   0.345   4.629 -0.6749  1.1455 -0.1301
 1999TIP3    H227489   5.468   0.310   4.670 -0.6407 -0.1979 -1.3030
 2000TIP3   OH227490   5.235   2.908  12.091 -0.1078 -0.1879  0.5471
 2000TIP3    H127491   5.276   2.855  12.159  0.3003 -0.1335  0.3437
 2000TIP3    H227492   5.198   2.982  12.138 -0.0139 -0.2600  0.7357
 2001TIP3   OH227493   4.306   3.158  16.600 -0.3853 -0.1966  0.3297
 2001TIP3    H127494   4.381   3.118  16.556 -0.8578  0.2046 -0.8866
 2001TIP3    H227495   4.344   3.228  16.653  0.3573 -1.6291  1.7852
 2002TIP3   OH227496   5.077   4.195  14.454  0.1459  0.5935 -0.1819
 2002TIP3    H127497   5.058   4.113  14.409  0.7395  0.0154  0.5888
 2002TIP3    H227498   4.992   4.235  14.469 -0.3406 -0.8334  1.1559
 2003TIP3   OH227499   5.575   2.947  12.186  0.4367 -0.1084 -0.2772
 2003TIP3    H127500   5.580   3.016  12.119  1.9749  0.7411  0.6748
 2003TIP3    H227501   5.636   2.880  12.156  1.7291  0.6292  0.6351
 2004TIP3   OH227502   2.405   2.482  16.451 -0.9170 -0.6249  0.0281
 2004TIP3    H127503   2.394   2.576  16.437 -0.7306 -0.4361  1.0569
 2004TIP3    H227504   2.464   2.476  16.526  1.1146 -1.5697 -1.5243
 2005TIP3   OH227505   2.906   6.311  15.295  0.5331 -0.3660  0.0632
 2005TIP3    H127506   2.816   6.286  15.274  0.8600 -0.9910 -0.6457
 2005TIP3    H227507   2.897   6.375  15.366 -0.3962 -1.6168  1.1388
 2006TIP3   OH227508   2.909   2.352   2.475 -0.3941  0.1236 -0.5678
 2006TIP3    H127509   2.933   2.360   2.567 -0.4605 -0.2471 -0.5179
 2006TIP3    H227510   2.965   2.415   2.430  0.4589 -0.5286 -0.4238
 2007TIP3   OH227511   3.342   6.341  15.866  0.0205 -0.4469 -0.1142
 2007TIP3    H127512   3.270   6.279  15.860  1.0159 -1.6716  0.2714
 2007TIP3    H227513   3.414   6.292  15.906  0.7083  1.0703  0.6067
 2008TIP3   OH227514   1.843   3.930  14.266 -0.4579 -0.1210 -0.0946
 2008TIP3    H127515   1.883   3.917  14.352  0.3828  0.0980 -0.4400
 2008TIP3    H227516   1.796   3.849  14.248 -0.1532 -0.3903  0.3253
 2009TIP3   OH227517   5.121   4.315   3.792 -0.9043  0.0830 -0.6571
 2009TIP3    H127518   5.194   4.263   3.758 -1.3206 -1.9253  1.2859
 2009TIP3    H227519   5.115   4.390   3.733  1.2387 -0.8831 -2.2196
 2010TIP3   OH227520   0.337   6.045  10.609  0.6422  0.1475  0.2755
 2010TIP3    H127521   0.336   6.100  10.532  1.0118 -0.5164 -0.2107
 2010TIP3    H227522   0.340   6.106  10.683  2.3394  0.7584 -0.2726
 2011TIP3   OH227523   4.519   4.712  15.638  0.5873  0.1247 -0.3494
 2011TIP3    H127524   4.550   4.725  15.548  0.4600  0.7960 -0.2982
 2011TIP3    H227525   4.524   4.798  15.678 -2.4611  0.5849 -0.6830
 2012TIP3   OH227526   5.500   5.838  14.753 -0.4508 -0.4818 -0.5322
 2012TIP3    H127527   5.439   5.827  14.826  0.1776 -0.8182 -0.0523
 2012TIP3    H227528   5.544   5.921  14.772 -2.0323  0.7302 -1.8355
 2013TIP3   OH227529   3.028   6.345   2.330 -0.5042 -0.1061  0.0190
 2013TIP3    H127530   3.031   6.365   2.236  1.9075  0.3901  0.1509
 2013TIP3    H227531   2.991   6.423   2.370 -0.8915 -0.0476 -0.4445
 2014TIP3   OH227532   1.245   3.382   0.390  0.0007  0.5108  0.3346
 2014TIP3    H127533   1.254   3.419   0.478 -1.6281  1.3952  0.1620
 2014TIP3    H227534   1.168   3.425   0.353  0.2842 -0.2985 -1.3101
 2015TIP3   OH227535   4.919   0.426  11.829  0.5713 -0.4752 -0.0614
 2015TIP3    H127536   4.963   0.406  11.746  0.6814  2.2084 -0.7499
 2015TIP3    H227537   4.990   0.450  11.889  0.5516 -3.0278  1.0934
 2016TIP3   OH227538   6.230   2.824   0.878  0.3714 -0.2131  0.2571
 2016TIP3    H127539   6.299   2.874   0.922 -0.3859  1.2659 -0.1787
 2016TIP3    H227540   6.176   2.890   0.835  0.6362 -1.5349 -2.2969
 2017TIP3   OH227541   5.949   1.354  12.173 -0.0313 -0.6948 -0.7836
 2017TIP3    H127542   5.933   1.291  12.243 -0.5702 -1.5210 -1.6294
 2017TIP3    H227543   6.038   1.385  12.188  0.1040 -1.3826 -0.1352
 2018TIP3   OH227544   3.243   5.786  16.544 -0.4168 -0.1553 -0.0737
 2018TIP3    H127545   3.204   5.865  16.583  0.5927  0.5123 -0.3910
 2018TIP3    H227546   3.282   5.739  16.618  0.8223  0.7222 -0.1446
 2019TIP3   OH227547   5.094   2.928  11.670  0.0297 -0.1845  0.0910
 2019TIP3    H127548   5.004   2.905  11.650  0.2519 -1.4296  0.4088
 2019TIP3    H227549   5.093   3.023  11.683 -1.0468 -0.0553 -0.8081
 2020TIP3   OH227550   2.719   1.984   0.044 -0.1803 -0.2825  0.0043
 2020TIP3    H127551   2.625   1.988   0.028 -0.3983 -0.0397  1.2222
 2020TIP3    H227552   2.759   2.023  -0.034 -1.1032 -0.0094 -0.3373
 2021TIP3   OH227553   3.257   4.248  15.897  0.2507  0.2272  0.1691
 2021TIP3    H127554   3.191   4.303  15.855  0.7283 -0.3200 -1.3671
 2021TIP3    H227555   3.212   4.164  15.912  0.7006 -0.3140 -1.3415
 2022TIP3   OH227556   6.383   4.259   4.046 -0.0211 -0.2281 -0.2174
 2022TIP3    H127557   6.329   4.338   4.044  2.5934  1.6832 -1.1409
 2022TIP3    H227558   6.333   4.195   3.995 -3.4735 -0.2148  2.7685
 2023TIP3   OH227559   0.873   5.921  14.469 -0.5471  0.7950 -0.0335
 2023TIP3    H127560   0.956   5.874  14.477 -0.8297  0.0050 -1.5036
 2023TIP3    H227561   0.848   5.939  14.560 -0.3835 -1.8417  0.6143
 2024TIP3   OH227562   3.238   4.391   5.377 -0.5647  0.7872  0.0132
 2024TIP3    H127563   3.241   4.446   5.455 -0.3085  1.0497 -0.1769
 2024TIP3    H227564   3.273   4.447   5.307  1.0230 -0.0532  0.0861
 2025TIP3   OH227565   6.708   3.935   1.800  0.0689  0.2297  0.1188
 2025TIP3    H127566   6.637   3.891   1.753 -1.4952  1.9488  0.7014
 2025TIP3    H227567   6.679   4.027   1.805  2.8940  1.2564 -0.6168
 2026TIP3   OH227568   5.352   3.980  15.276 -0.3835 -0.5812  0.2073
 2026TIP3    H127569   5.429   3.926  15.295  0.3507  0.6052  0.6544
 2026TIP3    H227570   5.384   4.046  15.215 -1.1980 -0.4238 -0.0589
 2027TIP3   OH227571   5.627   2.822  16.792  0.2749  0.0915 -0.1570
 2027TIP3    H127572   5.602   2.876  16.867 -2.6148 -0.5944 -0.5064
 2027TIP3    H227573   5.570   2.745  16.798  1.7911 -1.2156 -1.6465
 2028TIP3   OH227574   4.712   0.645   1.577  0.6163 -0.4343  0.0980
 2028TIP3    H127575   4.670   0.660   1.492 -0.4190 -2.2955  0.2146
 2028TIP3    H227576   4.755   0.728   1.598 -0.3416  0.5344 -1.5393
 2029TIP3   OH227577   1.301   4.699  13.812  0.1999 -0.1752 -0.1092
 2029TIP3    H127578   1.377   4.726  13.863 -0.2695  1.3670 -0.1837
 2029TIP3    H227579   1.322   4.610  13.783  1.3479 -0.3091  1.0481
 2030TIP3   OH227580   0.243   4.116  11.564 -0.3061 -0.3558  0.0812
 2030TIP3    H127581   0.207   4.028  11.577 -0.2519 -0.7305 -1.9157
 2030TIP3    H227582   0.185   4.173  11.614 -0.8497 -1.4498  0.7370
 2031TIP3   OH227583   5.168   2.539  17.204  0.0874  0.6608 -0.2408
 2031TIP3    H127584   5.199   2.610  17.148  2.5160  1.4018  1.8790
 2031TIP3    H227585   5.229   2.467  17.188  0.2896  0.5904  0.8148
 2032TIP3   OH227586   2.169   4.671   2.146 -0.0343  0.5010 -0.7789
 2032TIP3    H127587   2.090   4.726   2.146 -0.4403  0.0595  1.7509
 2032TIP3    H227588   2.225   4.710   2.213  1.0541 -0.3295 -1.1819
 2033TIP3   OH227589   4.658   2.361  17.100  0.5239  0.0710  0.6364
 2033TIP3    H127590   4.626   2.379  17.188  1.4419  0.2260  0.9420
 2033TIP3    H227591   4.735   2.417  17.090  2.1345 -1.9807  0.7989
 2034TIP3   OH227592   4.954   0.746   1.310  0.4493 -0.0800 -0.1745
 2034TIP3    H127593   4.953   0.809   1.238 -3.8772 -0.2434 -0.4858
 2034TIP3    H227594   4.877   0.692   1.296  0.6112 -1.5007  3.4491
 2035TIP3   OH227595   0.469   2.305  15.876  0.0061  0.0981  0.2702
 2035TIP3    H127596   0.446   2.232  15.817  0.9683  0.0496 -0.0630
 2035TIP3    H227597   0.396   2.366  15.868  0.3588  0.3379 -1.3962
 2036TIP3   OH227598   1.276   1.190  11.503 -0.1907  0.4262  0.2496
 2036TIP3    H127599   1.300   1.240  11.424 -0.2360 -0.2013 -0.1676
 2036TIP3    H227600   1.336   1.223  11.570  1.0747 -0.2856 -0.4927
 2037TIP3   OH227601   1.298   0.159   3.110 -0.0913  0.0733 -0.2418
 2037TIP3    H127602   1.298   0.230   3.047 -0.6738  0.7203  0.4735
 2037TIP3    H227603   1.382   0.168   3.156 -0.1781  0.3184 -0.1312
 2038TIP3   OH227604   1.127   2.914   3.121  0.5786 -0.4595 -0.0824
 2038TIP3    H127605   1.078   2.954   3.049  0.4525  1.1279  0.8398
 2038TIP3    H227606   1.060   2.897   3.188  0.8070 -1.2795 -0.0521
 2039TIP3   OH227607   0.797   3.148  12.949 -0.4318 -0.7475 -0.1471
 2039TIP3    H127608   0.739   3.097  12.893  0.8011 -1.7891 -0.5210
 2039TIP3    H227609   0.753   3.149  13.034 -1.7164 -0.2086 -0.7956
 2040TIP3   OH227610   0.214   1.895   5.232  0.6558  0.5093 -0.1022
 2040TIP3    H127611   0.250   1.889   5.320  0.6153 -2.7897 -0.1800
 2040TIP3    H227612   0.119   1.897   5.245  0.6602  0.5257 -0.0733
 2041TIP3   OH227613   3.632   1.001  14.385  0.1679 -0.2352  0.1735
 2041TIP3    H127614   3.654   0.980  14.294 -0.2209  0.3207 -0.0555
 2041TIP3    H227615   3.615   1.095  14.385  1.0378 -0.0621  1.0027
 2042TIP3   OH227616   6.714   4.458  14.845 -0.0490  0.0212  0.5196
 2042TIP3    H127617   6.771   4.531  14.822  0.7643 -1.0797 -1.2225
 2042TIP3    H227618   6.716   4.454  14.941 -0.6917  2.6696  0.7003
 2043TIP3   OH227619   3.750   1.700  14.006  0.0071 -0.1340  0.1016
 2043TIP3    H127620   3.737   1.605  14.002 -0.5566 -0.1060  0.9308
 2043TIP3    H227621   3.778   1.716  14.096  0.6225  0.4303 -0.1832
 2044TIP3   OH227622   6.395   6.230  12.310  0.3300 -1.0872  0.3257
 2044TIP3    H127623   6.354   6.198  12.390  0.9831 -1.1216  0.6591
 2044TIP3    H227624   6.415   6.322  12.328 -0.3948 -0.8276 -0.1607
 2045TIP3   OH227625   1.482   2.255   4.875  0.2650  0.2564  0.4064
 2045TIP3    H127626   1.493   2.326   4.812 -0.9316  0.1779  0.0843
 2045TIP3    H227627   1.514   2.291   4.958 -0.7715  1.3479  0.3451
 2046TIP3   OH227628   6.292   6.255   5.027  0.1130  0.0124 -0.3365
 2046TIP3    H127629   6.348   6.178   5.033 -0.1391 -0.1614 -0.1936
 2046TIP3    H227630   6.204   6.220   5.014  0.1474  0.3027 -1.4463
 2047TIP3   OH227631   4.135   4.015  14.170 -0.0338 -0.0227  0.1204
 2047TIP3    H127632   4.165   3.937  14.217 -1.1310  0.2269  1.2972
 2047TIP3    H227633   4.054   4.040  14.215  0.0436  1.5176 -0.5493
 2048TIP3   OH227634   1.438   1.671   1.757  0.2123 -0.0261 -0.3131
 2048TIP3    H127635   1.382   1.702   1.686  0.7671 -1.0002 -1.2059
 2048TIP3    H227636   1.517   1.725   1.751  0.2435 -0.0830 -0.4028
 2049TIP3   OH227637   0.063   0.504   4.575 -0.2910  0.0482 -0.3742
 2049TIP3    H127638   0.084   0.580   4.630 -1.2269  0.0350  0.0205
 2049TIP3    H227639   0.014   0.540   4.502  1.9128  0.2237 -1.8667
 2050TIP3   OH227640   2.920   0.278  13.424 -0.1298 -0.3865  0.5104
 2050TIP3    H127641   2.889   0.188  13.409 -0.0362 -0.1335 -1.3684
 2050TIP3    H227642   2.999   0.267  13.476  0.8543 -1.5554 -1.1334
 2051TIP3   OH227643   6.488   1.327   1.411  0.2004  0.3659  0.3615
 2051TIP3    H127644   6.500   1.418   1.437  2.6615  0.2371 -0.1108
 2051TIP3    H227645   6.553   1.278   1.461 -0.3597 -0.9816 -0.1743
 2052TIP3   OH227646   0.509   6.610   2.700 -0.3393 -0.4276  0.3972
 2052TIP3    H127647   0.567   6.582   2.772 -0.9785  1.3788  1.6914
 2052TIP3    H227648   0.547   6.569   2.622  1.3610 -1.1190  1.5121
 2053TIP3   OH227649   2.119   4.675  14.727 -0.4958 -1.2378 -0.2472
 2053TIP3    H127650   2.119   4.582  14.706 -1.5146 -1.4446  0.5937
 2053TIP3    H227651   2.187   4.685  14.793 -2.2704 -1.9437  1.8023
 2054TIP3   OH227652   4.963   2.789  14.629  0.2279 -0.4397 -0.5310
 2054TIP3    H127653   4.934   2.772  14.540 -3.0323 -0.6105  0.4228
 2054TIP3    H227654   4.967   2.703  14.670 -1.6007 -0.2006  0.2872
 2055TIP3   OH227655   0.582   4.149   3.344  0.5387 -0.0988  0.1173
 2055TIP3    H127656   0.620   4.139   3.256  0.1377 -0.0786 -0.0581
 2055TIP3    H227657   0.536   4.233   3.340  0.1514 -0.3070  0.2110
 2056TIP3   OH227658   6.798   1.653   2.212 -0.3102  0.2093  0.0157
 2056TIP3    H127659   6.735   1.627   2.280  0.8179 -3.1566 -0.0685
 2056TIP3    H227660   6.871   1.691   2.261 -0.7869  0.6535  0.4022
 2057TIP3   OH227661   4.218   4.632  15.182  0.5542  0.2275 -0.0535
 2057TIP3    H127662   4.270   4.605  15.258  0.4083 -1.0337 -0.3688
 2057TIP3    H227663   4.160   4.557  15.166 -0.5900  1.1555 -0.3909
 2058TIP3   OH227664   1.054   1.428  15.287  0.6382  0.2754  0.2356
 2058TIP3    H127665   1.131   1.412  15.232  0.7093 -0.6450  0.5808
 2058TIP3    H227666   1.089   1.461  15.369  0.9082 -2.2843  1.2506
 2059TIP3   OH227667   6.279   3.209  15.295  0.2818 -0.5425 -0.1984
 2059TIP3    H127668   6.312   3.128  15.334  1.1376 -0.8905 -1.5605
 2059TIP3    H227669   6.357   3.259  15.274 -0.2379  1.5272  2.2526
 2060TIP3   OH227670   4.552   5.788   3.464 -0.2820 -0.1197 -0.2024
 2060TIP3    H127671   4.598   5.704   3.470  0.3331  0.2609  0.5167
 2060TIP3    H227672   4.467   5.773   3.505  0.0937 -0.2105  0.5476
 2061TIP3   OH227673   4.103   5.060  11.560  0.3657 -0.0257  0.0648
 2061TIP3    H127674   4.029   5.094  11.509  0.8572 -1.5719 -1.7986
 2061TIP3    H227675   4.126   5.131  11.619 -0.6084  1.6562 -1.4850
 2062TIP3   OH227676   1.145   0.176  16.256  0.1461  0.0498 -0.2513
 2062TIP3    H127677   1.204   0.106  16.283 -0.1101  0.2744  0.9454
 2062TIP3    H227678   1.195   0.227  16.192 -0.5231 -2.6504 -3.1631
 2063TIP3   OH227679   6.779   0.366  11.870  0.1481 -0.2583  0.5356
 2063TIP3    H127680   6.716   0.424  11.912  1.6385  1.0133  1.1142
 2063TIP3    H227681   6.772   0.386  11.777  0.2087  0.4212  0.6723
 2064TIP3   OH227682   4.917   6.566  14.127  0.3917  0.3382  0.1896
 2064TIP3    H127683   4.877   6.645  14.164 -1.6721  0.2120 -1.5593
 2064TIP3    H227684   4.892   6.496  14.187  0.7844  0.7597  0.8492
 2065TIP3   OH227685   0.438   1.600  11.960 -0.2591 -0.3602  0.7507
 2065TIP3    H127686   0.526   1.596  11.922  0.4139 -2.9032  2.3124
 2065TIP3    H227687   0.381   1.624  11.887  1.7160  1.6642 -0.2390
 2066TIP3   OH227688   4.757   5.891  14.601  0.3165  0.6071 -0.2783
 2066TIP3    H127689   4.798   5.893  14.687 -0.7209  1.3318  0.2192
 2066TIP3    H227690   4.810   5.951  14.548  1.9831 -1.1210 -0.6663
 2067TIP3   OH227691   1.371   5.705  12.329 -0.0350  0.0393 -0.2958
 2067TIP3    H127692   1.343   5.735  12.416  0.6756  0.4115 -0.1879
 2067TIP3    H227693   1.306   5.740  12.269 -1.1277 -1.0989  0.1850
 2068TIP3   OH227694   5.418   3.714   2.398  0.2363 -0.0335 -0.6055
 2068TIP3    H127695   5.377   3.628   2.396  0.8560 -0.4370  1.6950
 2068TIP3    H227696   5.345   3.775   2.410  0.0307 -0.5722  1.2446
 2069TIP3   OH227697   2.901   4.737   0.543  0.3479 -0.0071 -0.2603
 2069TIP3    H127698   2.890   4.673   0.473  1.9071 -0.4664 -0.1131
 2069TIP3    H227699   2.988   4.775   0.528 -0.6413  2.3550 -0.5479
 2070TIP3   OH227700   5.467   2.760   5.459  0.0803  0.3375 -0.0329
 2070TIP3    H127701   5.490   2.826   5.523 -1.0876  1.5209 -0.7812
 2070TIP3    H227702   5.541   2.699   5.458  1.3583  1.8484  0.3837
 2071TIP3   OH227703   4.471   2.820   3.991  0.7135 -0.2798  0.0056
 2071TIP3    H127704   4.398   2.861   3.944  0.5162 -0.0905  0.4753
 2071TIP3    H227705   4.501   2.887   4.052  0.5575 -0.7407  0.5959
 2072TIP3   OH227706   0.611   3.859  10.215  0.4322  0.0567 -0.6478
 2072TIP3    H127707   0.575   3.773  10.193  0.8671 -0.0661 -0.9000
 2072TIP3    H227708   0.534   3.916  10.224  0.1820 -0.1696 -1.3041
 2073TIP3   OH227709   3.384   4.741  13.464  0.1091  0.6430 -0.1296
 2073TIP3    H127710   3.368   4.647  13.455  0.8264  0.6204 -1.5168
 2073TIP3    H227711   3.307   4.775  13.509  0.3752 -0.7710  1.4933
 2074TIP3   OH227712   3.331   0.591  12.186  0.3070  0.1463 -0.3618
 2074TIP3    H127713   3.301   0.680  12.165  1.6070  0.8183  0.4851
 2074TIP3    H227714   3.401   0.575  12.123  1.4714  0.5688  0.7780
 2075TIP3   OH227715   1.814   4.445  11.643 -0.1378 -0.1363  0.5056
 2075TIP3    H127716   1.831   4.371  11.585  0.1534 -0.0524  0.4863
 2075TIP3    H227717   1.845   4.521  11.595  1.3261 -0.2027  1.3102
 2076TIP3   OH227718   4.573   1.109  14.162  0.0185  0.3375  0.0755
 2076TIP3    H127719   4.618   1.099  14.245 -0.6547  2.0942  0.6856
 2076TIP3    H227720   4.584   1.201  14.139 -0.3538  0.0263 -1.4716
 2077TIP3   OH227721   5.799   3.825   4.384  0.1621  0.0572 -0.2986
 2077TIP3    H127722   5.847   3.818   4.467 -0.1504 -1.0405 -0.1908
 2077TIP3    H227723   5.715   3.864   4.408 -0.5067 -1.5858  0.1742
 2078TIP3   OH227724   4.363   5.554  11.702 -0.6427  0.0689 -0.2925
 2078TIP3    H127725   4.342   5.635  11.748 -0.4020  0.2757 -0.5459
 2078TIP3    H227726   4.454   5.565  11.675 -1.2391  0.6079 -2.1919
 2079TIP3   OH227727   5.013   5.996  12.519  0.3777  0.3335  0.2562
 2079TIP3    H127728   5.061   5.927  12.564 -0.5653  1.2798  2.9412
 2079TIP3    H227729   4.951   6.029  12.585 -1.7249  1.3036 -2.0358
 2080TIP3   OH227730   1.982   3.623  16.464 -0.2216 -0.5681  0.9480
 2080TIP3    H127731   1.939   3.686  16.407 -1.6552 -1.9383  0.4327
 2080TIP3    H227732   1.974   3.660  16.552 -1.0512 -0.0470  0.6616
 2081TIP3   OH227733   6.586   4.260   1.586  0.1706 -0.3362 -0.6938
 2081TIP3    H127734   6.560   4.249   1.495  1.4733  1.5404 -1.3583
 2081TIP3    H227735   6.537   4.336   1.616 -0.7692 -1.3460  0.4244
 2082TIP3   OH227736   0.278   0.200   5.962 -0.5835  0.2181 -0.0854
 2082TIP3    H127737   0.338   0.255   5.911 -0.3897 -0.2272 -0.3542
 2082TIP3    H227738   0.223   0.158   5.896  0.2107 -1.0009 -0.0117
 2083TIP3   OH227739   2.532   3.444   0.219 -0.0245 -0.4619  0.3657
 2083TIP3    H127740   2.558   3.467   0.308  0.9113  3.6236 -0.7385
 2083TIP3    H227741   2.450   3.491   0.205 -0.8894 -2.1551 -0.5671
 2084TIP3   OH227742   3.115   4.948  13.458 -0.4952 -0.4138 -0.0018
 2084TIP3    H127743   3.065   5.027  13.442 -1.5844 -1.1185 -0.1733
 2084TIP3    H227744   3.127   4.909  13.372 -0.6776 -0.8568  0.1704
 2085TIP3   OH227745   1.580   1.699  11.297  0.1862 -0.1860 -0.1567
 2085TIP3    H127746   1.561   1.785  11.336  0.6850 -1.1657  2.4581
 2085TIP3    H227747   1.654   1.715  11.238  0.3120  1.1665  0.3253
 2086TIP3   OH227748   6.044   5.305  12.296 -0.8897  0.2618  0.3430
 2086TIP3    H127749   6.108   5.325  12.229 -2.0849 -0.1787 -0.9739
 2086TIP3    H227750   6.028   5.211  12.287 -3.2817  0.7051 -0.8519
 2087TIP3   OH227751   3.714   0.164   1.511  0.0849 -0.2634 -0.4114
 2087TIP3    H127752   3.651   0.233   1.490 -0.4053 -0.7989 -0.7276
 2087TIP3    H227753   3.755   0.194   1.593 -0.2433  0.3150 -0.4483
 2088TIP3   OH227754   0.768   6.039  14.698 -0.1800 -0.6547  0.0259
 2088TIP3    H127755   0.677   6.071  14.695 -0.3618 -0.8899  1.8249
 2088TIP3    H227756   0.819   6.117  14.721  0.3028 -0.1968 -2.4044
 2089TIP3   OH227757   6.559   0.031  12.588  0.2592  0.3165 -0.3087
 2089TIP3    H127758   6.626  -0.021  12.543 -1.0276 -1.5039 -0.1935
 2089TIP3    H227759   6.531   0.095  12.523  1.0879  0.1806 -0.8175
 2090TIP3   OH227760   1.755   4.751   2.248  0.3472  0.1573  0.0419
 2090TIP3    H127761   1.661   4.768   2.252  0.1878 -0.0971 -1.8791
 2090TIP3    H227762   1.762   4.655   2.246  0.6179  0.1799 -0.2356
 2091TIP3   OH227763   2.088   6.664   0.761 -0.3840  0.2854  0.1806
 2091TIP3    H127764   2.173   6.708   0.770 -0.1071  0.4331 -2.4660
 2091TIP3    H227765   2.034   6.726   0.712 -0.5795 -1.5002 -1.9950
 2092TIP3   OH227766   4.893   4.419  13.885 -0.0182 -0.2093 -0.5279
 2092TIP3    H127767   4.891   4.514  13.899 -2.3581 -0.1593 -0.8432
 2092TIP3    H227768   4.859   4.382  13.967 -1.0398 -0.6420 -1.1343
 2093TIP3   OH227769   2.455   1.268   4.628 -0.1707 -0.1400 -0.1732
 2093TIP3    H127770   2.474   1.286   4.536 -0.5313  2.2898  0.1752
 2093TIP3    H227771   2.395   1.337   4.654  1.3799  0.3494  2.4075
 2094TIP3   OH227772   0.061   0.360   5.944  0.0686 -0.4892 -0.0163
 2094TIP3    H127773   0.031   0.269   5.938 -0.4476 -0.5595  2.4179
 2094TIP3    H227774   0.150   0.353   5.980  0.3894 -0.0547 -0.7183
 2095TIP3   OH227775   4.737   0.539   4.144  0.2921  0.6985 -0.4133
 2095TIP3    H127776   4.699   0.457   4.112  1.1803  1.0398 -2.5569
 2095TIP3    H227777   4.764   0.520   4.233 -0.4631 -1.0199 -0.5083
 2096TIP3   OH227778   2.397   2.159   0.488  0.2450 -0.3687  0.0238
 2096TIP3    H127779   2.338   2.205   0.427 -0.0360 -2.4576 -1.3664
 2096TIP3    H227780   2.417   2.076   0.445  1.2354 -1.3186  2.1524
 2097TIP3   OH227781   2.292   0.032  14.169 -0.3150  0.1661  0.0508
 2097TIP3    H127782   2.337  -0.009  14.095 -0.4746 -0.5691  0.3476
 2097TIP3    H227783   2.316  -0.023  14.244  1.2999  1.9128  0.8949
 2098TIP3   OH227784   2.317   3.752  15.800 -0.3592  0.3148  0.2493
 2098TIP3    H127785   2.346   3.803  15.725  0.9261  1.8970  1.7469
 2098TIP3    H227786   2.398   3.731  15.847 -1.2569  1.1246  2.2520
 2099TIP3   OH227787   2.578   2.068   2.491  0.1399 -0.5344 -0.0858
 2099TIP3    H127788   2.512   1.999   2.488 -2.6348  1.9185 -2.2606
 2099TIP3    H227789   2.578   2.098   2.582 -1.4622 -0.9463  0.0857
 2100TIP3   OH227790   4.946   6.292  14.011 -0.0911  0.3616  0.6051
 2100TIP3    H127791   4.972   6.381  14.035 -0.6877 -0.0973  3.2218
 2100TIP3    H227792   4.855   6.300  13.985 -0.4438  0.4015  1.7994
 2101TIP3   OH227793   3.787   2.091   4.229 -0.3981  0.4491  0.5725
 2101TIP3    H127794   3.744   2.009   4.205 -2.1183  1.1702  1.0119
 2101TIP3    H227795   3.795   2.139   4.146  0.5634 -0.1196  0.3240
 2102TIP3   OH227796   1.439   3.638  17.048 -0.5318 -0.3295 -0.2698
 2102TIP3    H127797   1.521   3.621  17.095 -1.2719 -3.2655  0.1849
 2102TIP3    H227798   1.374   3.646  17.118 -0.7400  1.8103 -0.6365
 2103TIP3   OH227799   5.747   0.350  16.081  0.0839 -0.0609 -0.2068
 2103TIP3    H127800   5.809   0.326  16.012  0.7359 -1.6500  0.8705
 2103TIP3    H227801   5.671   0.384  16.034  0.2912 -1.5815 -1.7573
 2104TIP3   OH227802   5.591   3.561  15.694 -0.4478 -0.7081  0.6798
 2104TIP3    H127803   5.665   3.598  15.647 -1.6473  0.4845 -0.3488
 2104TIP3    H227804   5.535   3.636  15.713 -1.6671 -1.6595  0.9505
 2105TIP3   OH227805   5.135   5.955   4.123  0.1789 -0.4941 -0.1675
 2105TIP3    H127806   5.127   5.871   4.169  0.1287  0.9644  2.7125
 2105TIP3    H227807   5.055   5.963   4.072  0.3005 -2.2733 -0.6997
 2106TIP3   OH227808   5.778   3.873   2.337 -0.3385  0.5507 -0.1105
 2106TIP3    H127809   5.774   3.949   2.395 -0.2828 -0.8901  1.8923
 2106TIP3    H227810   5.688   3.840   2.334 -0.0908 -0.2054  0.3666
 2107TIP3   OH227811   1.013   1.992   2.256 -0.7129  0.6567 -0.1434
 2107TIP3    H127812   1.051   1.911   2.222 -1.9671  0.4816 -1.2178
 2107TIP3    H227813   1.084   2.033   2.305 -0.0382 -1.0644  0.4063
 2108TIP3   OH227814   0.707   6.069  11.158  0.0495  0.1420 -0.3918
 2108TIP3    H127815   0.763   6.146  11.146 -0.0093  0.2837  0.2345
 2108TIP3    H227816   0.714   6.048  11.251  0.5437 -0.9859 -0.6696
 2109TIP3   OH227817   3.524   4.262   5.538  0.1765 -0.2959 -0.4514
 2109TIP3    H127818   3.480   4.317   5.603 -1.0425 -0.5677 -1.0019
 2109TIP3    H227819   3.488   4.175   5.553  2.1206 -0.9843  0.4364
 2110TIP3   OH227820   0.592   0.372   1.777  0.8750 -0.0171  0.4254
 2110TIP3    H127821   0.672   0.424   1.766 -0.3727  1.6959 -1.0476
 2110TIP3    H227822   0.569   0.344   1.689 -0.4210 -0.0437  0.7538
 2111TIP3   OH227823   5.195   2.936   0.516 -0.2449 -0.1569  0.1812
 2111TIP3    H127824   5.131   2.889   0.569  0.8085 -0.9183  0.8279
 2111TIP3    H227825   5.227   3.005   0.574 -1.6515  1.2811 -0.7034
 2112TIP3   OH227826   5.604   5.448   2.379 -0.4558  0.1793 -0.3527
 2112TIP3    H127827   5.586   5.424   2.288 -3.8415  1.0944 -0.0548
 2112TIP3    H227828   5.552   5.386   2.430 -3.2224  3.0781  0.6506
 2113TIP3   OH227829   3.755   2.074   2.859  0.3405  0.9427  0.3881
 2113TIP3    H127830   3.850   2.072   2.848  0.2406  0.9060 -0.6179
 2113TIP3    H227831   3.722   2.103   2.774 -0.5496  0.9856  0.7348
 2114TIP3   OH227832   4.277   2.504   1.107  0.6621  0.5539  0.7880
 2114TIP3    H127833   4.292   2.581   1.052  1.0554 -0.0927 -0.0203
 2114TIP3    H227834   4.188   2.516   1.140  0.5526  1.1330  0.3111
 2115TIP3   OH227835   3.072   2.249   0.056 -0.2809 -0.0459  0.3369
 2115TIP3    H127836   3.024   2.310  -0.001  1.0897 -0.6241 -1.5189
 2115TIP3    H227837   3.036   2.163   0.034 -0.1231 -0.2238  0.7715
 2116TIP3   OH227838   4.465   1.539  16.316  0.4962  0.1690  0.1522
 2116TIP3    H127839   4.409   1.478  16.268  0.9560  1.0253 -1.5538
 2116TIP3    H227840   4.403   1.594  16.365  0.0059 -0.6078  0.4279
 2117TIP3   OH227841   3.046   3.962  15.221 -0.3994 -0.3873  0.0636
 2117TIP3    H127842   2.986   3.974  15.148 -0.9870 -0.3189  0.5486
 2117TIP3    H227843   3.075   4.050  15.243 -1.1242 -0.2831  0.6490
 2118TIP3   OH227844   1.833   0.267   4.048  0.0557  0.0056 -0.5779
 2118TIP3    H127845   1.918   0.224   4.041  0.4203  0.5004  0.6508
 2118TIP3    H227846   1.853   0.359   4.063 -0.6888  0.0147  0.4392
 2119TIP3   OH227847   5.929   1.482   5.610 -0.3741 -0.6287  0.2697
 2119TIP3    H127848   6.000   1.500   5.548 -0.9859 -1.8259 -0.8184
 2119TIP3    H227849   5.973   1.452   5.689  0.4863  2.0494  0.9053
 2120TIP3   OH227850   0.310   2.284  14.868  0.3882 -0.0497 -0.3333
 2120TIP3    H127851   0.336   2.373  14.845 -1.9519  0.6435 -0.5893
 2120TIP3    H227852   0.245   2.261  14.801 -0.3980 -1.2194  0.7946
 2121TIP3   OH227853   1.796   3.116   5.684 -0.8690 -0.3236  0.0378
 2121TIP3    H127854   1.793   3.104   5.779  0.3597  0.1112  0.1463
 2121TIP3    H227855   1.806   3.211   5.672 -0.9664 -0.3803 -0.5286
 2122TIP3   OH227856   4.254   5.476   0.948 -0.6120 -0.3899  0.3286
 2122TIP3    H127857   4.167   5.449   0.920  0.7760 -1.4276 -3.6826
 2122TIP3    H227858   4.285   5.534   0.878  2.0120 -0.2712  1.4537
 2123TIP3   OH227859   1.825   6.236  11.599 -0.1593 -0.1522  0.2797
 2123TIP3    H127860   1.847   6.209  11.509  0.2531 -1.0968  0.6564
 2123TIP3    H227861   1.760   6.173  11.628 -1.0806  0.7758  0.2945
 2124TIP3   OH227862   3.991   2.602   2.605 -0.0497 -0.5951  0.1634
 2124TIP3    H127863   3.924   2.630   2.667 -0.8532 -1.4734 -0.2886
 2124TIP3    H227864   4.008   2.679   2.551 -0.9787 -0.4682  0.0385
 2125TIP3   OH227865   3.816   3.639   4.034 -0.4360  0.3667 -0.3475
 2125TIP3    H127866   3.775   3.606   3.955 -1.5193  0.2978  0.2300
 2125TIP3    H227867   3.763   3.604   4.106  1.4193 -0.8885  0.5049
 2126TIP3   OH227868   0.727   5.047  13.515  0.0621 -0.1362 -0.5769
 2126TIP3    H127869   0.677   5.093  13.447  2.2368  1.6015 -1.1109
 2126TIP3    H227870   0.722   5.105  13.591  0.3259 -0.4969 -0.2790
 2127TIP3   OH227871   3.157   0.635  15.488 -0.1356  0.2273  0.2480
 2127TIP3    H127872   3.123   0.558  15.444  1.9032 -0.3766 -0.3986
 2127TIP3    H227873   3.148   0.706  15.424 -1.2863  0.3673  0.5515
 2128TIP3   OH227874   0.905   6.367  16.338 -0.2799 -0.0676  0.0160
 2128TIP3    H127875   0.823   6.357  16.290 -0.2834  1.7021 -0.3990
 2128TIP3    H227876   0.878   6.370  16.430 -1.0256  2.7845 -0.1885
 2129TIP3   OH227877   5.804   4.826   2.717 -0.2228  0.3668 -0.0353
 2129TIP3    H127878   5.820   4.750   2.773 -0.5392  0.3025 -0.0295
 2129TIP3    H227879   5.712   4.818   2.690 -0.5064  1.1766  0.6248
 2130TIP3   OH227880   4.254   4.785   5.123  0.0038  0.2399  0.1296
 2130TIP3    H127881   4.317   4.790   5.194  1.1515 -0.7494 -0.7607
 2130TIP3    H227882   4.178   4.739   5.161  0.4516  0.0437  0.7998
 2131TIP3   OH227883   2.037   1.062  14.169  0.4132  0.6893 -0.2551
 2131TIP3    H127884   2.068   1.148  14.142  0.8887  0.3114 -0.9773
 2131TIP3    H227885   2.117   1.012  14.184  0.2160  1.1974  3.1187
 2132TIP3   OH227886   1.525   0.116   3.809  0.3314 -0.6280  0.5735
 2132TIP3    H127887   1.603   0.077   3.848 -0.0329 -0.7145  1.2454
 2132TIP3    H227888   1.461   0.116   3.880 -0.6487 -1.6160 -0.2799
 2133TIP3   OH227889   6.143   6.038  15.126 -0.4545  0.1679  0.4577
 2133TIP3    H127890   6.093   6.100  15.179  2.5990  1.7591  1.6952
 2133TIP3    H227891   6.133   5.955  15.173 -1.1597  0.6440  1.1947
 2134TIP3   OH227892   1.195   6.716  14.442 -0.1343 -0.7547 -0.7022
 2134TIP3    H127893   1.254   6.699  14.369  1.6133 -1.5766  0.8407
 2134TIP3    H227894   1.115   6.669  14.419 -0.0117 -0.1707 -2.5220
 2135TIP3   OH227895   4.862   6.237  16.502 -0.3168 -0.3892 -0.2397
 2135TIP3    H127896   4.892   6.214  16.590  0.0803  0.8426 -0.0342
 2135TIP3    H227897   4.941   6.232  16.448 -0.3784 -0.2886 -0.3418
 2136TIP3   OH227898   3.837   0.130  12.992  0.3278  0.1535 -0.1560
 2136TIP3    H127899   3.916   0.092  13.029 -0.2815 -0.7350  0.2665
 2136TIP3    H227900   3.767   0.105  13.053 -0.4887 -0.2175 -1.2036
 2137TIP3   OH227901   3.909   6.230   5.938  0.0137  0.0427 -0.2806
 2137TIP3    H127902   3.983   6.283   5.968 -0.1856  0.1925 -0.0465
 2137TIP3    H227903   3.861   6.288   5.879 -0.8615  0.5516  0.8818
 2138TIP3   OH227904   6.349   2.596  15.671  0.1036 -0.3243  0.3778
 2138TIP3    H127905   6.365   2.514  15.624  2.9858 -0.9532  2.2331
 2138TIP3    H227906   6.261   2.623  15.643  0.6026 -1.9488 -3.2765
 2139TIP3   OH227907   3.387   1.262  17.207  0.4745  0.0944  0.2200
 2139TIP3    H127908   3.409   1.353  17.191  1.1276  0.0887  1.0105
 2139TIP3    H227909   3.294   1.263  17.230  0.4022  0.5126 -0.0882
 2140TIP3   OH227910   1.363   0.103  13.454  0.3923 -1.0615  0.3892
 2140TIP3    H127911   1.431   0.105  13.386 -0.8246  0.7265 -0.8616
 2140TIP3    H227912   1.342   0.196  13.469 -1.2514 -1.5450  1.2698
 2141TIP3   OH227913   6.746   1.037   0.080  0.0568 -0.2184  0.5626
 2141TIP3    H127914   6.734   0.945   0.104  1.1569 -0.2717  0.9966
 2141TIP3    H227915   6.816   1.067   0.138  0.8957  0.4091 -0.7176
 2142TIP3   OH227916   1.140   1.963  12.214  0.6494  0.0011 -0.3809
 2142TIP3    H127917   1.224   1.953  12.259  0.0393 -1.8197  0.4534
 2142TIP3    H227918   1.075   1.929  12.276 -0.9475  2.7552 -0.3781
 2143TIP3   OH227919   2.457   0.142  13.798 -0.0062  0.1150  0.1644
 2143TIP3    H127920   2.371   0.116  13.831  0.5814 -1.4412  0.5455
 2143TIP3    H227921   2.453   0.238  13.796 -1.6058  0.0942  0.5373
 2144TIP3   OH227922   5.643   0.637  13.581  0.2299  0.0889  0.1260
 2144TIP3    H127923   5.683   0.656  13.666  2.3866 -0.7216 -0.6326
 2144TIP3    H227924   5.618   0.722  13.547 -0.4847  0.4452  1.4569
 2145TIP3   OH227925   5.420   5.988   1.772 -0.0129  0.1400  0.2920
 2145TIP3    H127926   5.490   6.023   1.828 -0.1073 -0.3377  0.7143
 2145TIP3    H227927   5.340   5.998   1.824 -0.4974  1.9209 -0.7016
 2146TIP3   OH227928   6.516   5.846  11.551 -0.0896  0.4142  0.1341
 2146TIP3    H127929   6.607   5.856  11.523  0.2510 -0.1603  0.9910
 2146TIP3    H227930   6.468   5.828  11.470  0.5168  0.9307 -0.3545
 2147TIP3   OH227931   1.826   6.086   5.420 -0.1664  0.4617  0.1215
 2147TIP3    H127932   1.801   6.177   5.431 -0.2667  0.4549 -0.0473
 2147TIP3    H227933   1.912   6.080   5.461 -0.9838  0.1833  1.8839
 2148TIP3   OH227934   2.793   2.242  16.958 -0.2195 -0.2320 -0.3099
 2148TIP3    H127935   2.819   2.155  16.988  0.0881 -1.0251 -2.6920
 2148TIP3    H227936   2.701   2.249  16.984 -0.0971 -1.0479  0.3950
 2149TIP3   OH227937   4.654   2.563  12.367 -0.0871  0.2875 -0.6720
 2149TIP3    H127938   4.713   2.549  12.442 -0.1210  1.2617 -0.4515
 2149TIP3    H227939   4.577   2.510  12.387  0.1813  0.0119 -0.3467
 2150TIP3   OH227940   2.441   1.191  14.553 -0.4383  0.3691  0.0619
 2150TIP3    H127941   2.464   1.112  14.602 -0.6849  1.1518  1.4959
 2150TIP3    H227942   2.473   1.263  14.608  1.5720  1.2751 -2.1138
 2151TIP3   OH227943   0.806   5.546   3.663 -0.0560 -0.3179  0.1979
 2151TIP3    H127944   0.777   5.503   3.583 -0.1712 -2.4523  1.3314
 2151TIP3    H227945   0.882   5.599   3.636 -0.9197  0.0965 -1.5357
 2152TIP3   OH227946   3.333   6.278   2.828  0.0556 -0.2614 -0.4815
 2152TIP3    H127947   3.398   6.224   2.784 -1.7239 -1.8368 -1.3348
 2152TIP3    H227948   3.324   6.355   2.772  2.0567  0.6168  0.3306
 2153TIP3   OH227949   5.608   6.683   3.885 -0.2076 -0.0971 -0.1468
 2153TIP3    H127950   5.578   6.651   3.970 -0.5789 -0.0314 -0.2506
 2153TIP3    H227951   5.528   6.708   3.839 -0.0113 -0.1505 -0.5232
 2154TIP3   OH227952   0.628   3.925  14.988 -0.1622  0.2731 -0.2870
 2154TIP3    H127953   0.555   3.969  14.945 -0.0494  0.3687 -0.3811
 2154TIP3    H227954   0.630   3.837  14.950  0.9566  0.8674 -1.6998
 2155TIP3   OH227955   3.515   1.675  12.048 -0.0281 -0.4578  0.1176
 2155TIP3    H127956   3.459   1.720  12.111 -1.0767 -0.7474 -0.5858
 2155TIP3    H227957   3.594   1.730  12.042 -1.2985  1.3619 -0.8044
 2156TIP3   OH227958   6.579   0.691   2.875  0.0841  0.6132  0.2003
 2156TIP3    H127959   6.522   0.638   2.931 -0.4088  0.7698 -0.1471
 2156TIP3    H227960   6.519   0.744   2.823  0.4967 -0.1477 -1.1006
 2157TIP3   OH227961   1.763   0.856   2.464 -0.5146  0.2060 -0.0190
 2157TIP3    H127962   1.778   0.943   2.427 -1.8813  1.3733  1.9794
 2157TIP3    H227963   1.721   0.806   2.393 -1.1782  1.6937 -0.7128
 2158TIP3   OH227964   2.874   0.298   1.716  0.1760 -1.2171  0.0558
 2158TIP3    H127965   2.961   0.334   1.735 -0.0479  0.3135 -1.4879
 2158TIP3    H227966   2.876   0.278   1.622 -1.0999 -1.2439  0.0116
 2159TIP3   OH227967   6.231   1.614  13.655  0.1866  0.5232 -0.0659
 2159TIP3    H127968   6.264   1.590  13.569  0.1593 -0.7606  0.2656
 2159TIP3    H227969   6.173   1.689  13.639  1.9679  1.8206 -0.8672
 2160TIP3   OH227970   5.447   4.632   1.712 -0.4622  0.0324  0.3500
 2160TIP3    H127971   5.416   4.682   1.787  3.5323  2.1271  0.8982
 2160TIP3    H227972   5.532   4.598   1.740  1.0104  0.5308 -2.9981
 2161TIP3   OH227973   2.691   3.653   3.516 -0.6940 -0.1914  0.0385
 2161TIP3    H127974   2.740   3.589   3.465 -2.8122 -0.1357 -2.2899
 2161TIP3    H227975   2.693   3.733   3.463 -1.3757  0.4824  0.9870
 2162TIP3   OH227976   1.223   5.659   5.532 -0.4451  0.1224  0.2799
 2162TIP3    H127977   1.264   5.690   5.451 -0.6828 -0.3623 -0.0302
 2162TIP3    H227978   1.295   5.655   5.595  0.2413 -1.6732 -0.5254
 2163TIP3   OH227979   1.412   4.320   1.279 -0.0447  0.1929 -0.0258
 2163TIP3    H127980   1.361   4.388   1.324 -1.2323 -0.0460 -0.9690
 2163TIP3    H227981   1.369   4.238   1.304 -1.3829  0.1078 -2.3124
 2164TIP3   OH227982   6.738   3.382   3.090  0.1602 -0.0470 -0.4718
 2164TIP3    H127983   6.821   3.426   3.070 -0.2021  1.1117  0.3908
 2164TIP3    H227984   6.679   3.408   3.019  0.2602 -0.0220 -0.5457
 2165TIP3   OH227985   2.669   0.013   5.905  0.5701 -0.5393 -0.3343
 2165TIP3    H127986   2.663  -0.051   5.835  0.4846 -0.8263 -0.0679
 2165TIP3    H227987   2.696  -0.038   5.982 -2.7071 -0.9266  0.7296
 2166TIP3   OH227988   2.713   3.110   2.338  0.2854 -0.6274  0.7908
 2166TIP3    H127989   2.795   3.094   2.291 -1.0834 -1.0084 -1.6598
 2166TIP3    H227990   2.686   3.197   2.309 -0.6382 -0.8931  0.8340
 2167TIP3   OH227991   4.949   1.045   4.529  0.1928  0.0668  0.3005
 2167TIP3    H127992   5.019   0.980   4.535  0.3692  0.0868 -1.1135
 2167TIP3    H227993   4.898   1.018   4.452 -0.5361  0.8425  0.4924
 2168TIP3   OH227994   3.899   2.779   2.289  0.2754 -0.0694 -0.0838
 2168TIP3    H127995   3.820   2.831   2.297  1.4165  2.2669 -2.4072
 2168TIP3    H227996   3.951   2.802   2.366 -0.9765 -1.1707  1.1452
 2169TIP3   OH227997   6.687   5.065  13.493  0.2475  0.4416  0.3403
 2169TIP3    H127998   6.673   5.031  13.581  0.7589 -1.2519 -0.1817
 2169TIP3    H227999   6.600   5.090  13.463  0.1481  1.5958  1.5159
 2170TIP3   OH228000   5.208   6.183   2.768  0.3881 -0.7081 -0.4634
 2170TIP3    H128001   5.259   6.154   2.693  0.6545 -1.0378 -0.1625
 2170TIP3    H228002   5.267   6.242   2.816 -0.2319  0.5405 -1.1965
 2171TIP3   OH228003   1.919   0.234  12.766  0.4063 -0.4457 -0.1936
 2171TIP3    H128004   1.832   0.264  12.742 -1.0807 -4.7599 -1.0966
 2171TIP3    H228005   1.959   0.208  12.684  0.7046 -2.6039  0.5581
 2172TIP3   OH228006   0.457   5.926   4.847  0.1794 -0.1719 -0.6780
 2172TIP3    H128007   0.362   5.927   4.840 -0.2768 -2.4188  2.8245
 2172TIP3    H228008   0.483   5.838   4.819  1.2374  0.2553 -1.1309
 2173TIP3   OH228009   5.668   6.777   1.666 -0.5086  0.1300 -0.6569
 2173TIP3    H128010   5.702   6.788   1.754 -1.8018 -1.2658  0.0628
 2173TIP3    H228011   5.573   6.780   1.676 -0.7149 -1.4085 -1.7656
 2174TIP3   OH228012   6.386   5.993  14.304  0.0456  0.1364 -0.6898
 2174TIP3    H128013   6.334   5.915  14.326 -1.1523  0.8884 -0.7666
 2174TIP3    H228014   6.474   5.960  14.290 -0.3019 -1.1212 -0.0688
 2175TIP3   OH228015   6.502   5.594   4.309 -0.5960  0.8900 -0.2146
 2175TIP3    H128016   6.481   5.517   4.257  0.6958  0.7540 -0.5680
 2175TIP3    H228017   6.560   5.562   4.378  0.0616  1.5546 -0.4411
 2176TIP3   OH228018   5.575   3.635   2.589 -0.2865  0.5028 -0.6589
 2176TIP3    H128019   5.561   3.670   2.501 -1.2023 -1.0445 -1.1536
 2176TIP3    H228020   5.670   3.621   2.595 -0.0110  2.0919 -0.7850
 2177TIP3   OH228021   0.336   3.289   2.976  0.2298 -0.1418 -0.1160
 2177TIP3    H128022   0.368   3.330   2.896  0.7034  1.1000  0.6789
 2177TIP3    H228023   0.380   3.204   2.978  0.0959 -0.2540 -1.2375
 2178TIP3   OH228024   1.369   1.088   0.394  0.0866 -0.3264 -0.0937
 2178TIP3    H128025   1.371   1.168   0.342 -2.1435  0.2130  0.5311
 2178TIP3    H228026   1.369   1.017   0.330 -1.5360  0.2954 -0.8334
 2179TIP3   OH228027   5.543   0.966   4.168 -0.3274  0.1657  1.0363
 2179TIP3    H128028   5.585   0.933   4.089 -0.4081 -1.2899  1.5717
 2179TIP3    H228029   5.571   1.057   4.174  1.0070 -0.1665  0.2357
 2180TIP3   OH228030   1.943   5.343  14.307  0.0397 -0.3809  0.3562
 2180TIP3    H128031   1.955   5.429  14.267  1.6185 -0.1249  1.2819
 2180TIP3    H228032   1.890   5.359  14.385 -1.7199 -0.6453 -0.7479
 2181TIP3   OH228033   6.639   6.499  15.133 -0.6447  0.2181  0.0503
 2181TIP3    H128034   6.620   6.575  15.078  1.2233  1.7579  1.3970
 2181TIP3    H228035   6.628   6.531  15.222  1.7319 -0.5872  0.6958
 2182TIP3   OH228036   2.295   3.897   0.158  0.8797 -0.6038  0.5054
 2182TIP3    H128037   2.241   3.869   0.085 -1.6561 -0.3800  2.1943
 2182TIP3    H228038   2.342   3.974   0.125 -0.8514  0.0114 -0.6582
 2183TIP3   OH228039   3.916   4.069   4.466  0.0988 -0.6106 -0.4338
 2183TIP3    H128040   3.976   4.053   4.539  0.1663  1.4173  0.0095
 2183TIP3    H228041   3.871   3.985   4.453  0.7941 -1.2867  1.2672
 2184TIP3   OH228042   0.885   0.145   5.265  0.0743 -0.7457 -0.3497
 2184TIP3    H128043   0.792   0.147   5.242 -0.3343  0.1962  1.2252
 2184TIP3    H228044   0.930   0.169   5.184 -0.9631 -2.2063 -1.4189
 2185TIP3   OH228045   4.770   4.553  16.550 -0.4786 -0.1185 -0.2294
 2185TIP3    H128046   4.852   4.597  16.526 -0.0559 -0.8019 -0.0825
 2185TIP3    H228047   4.714   4.563  16.473  0.3461 -1.0663 -0.9835
 2186TIP3   OH228048   0.713   2.651  14.345  0.5966  0.3611 -0.5441
 2186TIP3    H128049   0.744   2.723  14.401  1.1674  1.3998 -2.1307
 2186TIP3    H228050   0.618   2.661  14.344  0.2491 -1.4595  2.5234
 2187TIP3   OH228051   5.627   0.067   2.848  0.0719  0.2351  0.0074
 2187TIP3    H128052   5.688   0.060   2.775 -0.4815 -1.0794 -0.3644
 2187TIP3    H228053   5.680   0.046   2.925  0.3620  0.3030 -0.1716
 2188TIP3   OH228054   4.606   4.474   2.166  0.4112 -0.1135  0.1210
 2188TIP3    H128055   4.573   4.410   2.229  0.5956 -1.2107 -0.8833
 2188TIP3    H228056   4.537   4.481   2.100  0.4292  0.6738  0.1684
 2189TIP3   OH228057   3.815   3.061  12.055  0.0106 -0.6898 -0.1745
 2189TIP3    H128058   3.760   3.051  12.134 -0.5542 -1.3525 -0.6333
 2189TIP3    H228059   3.868   3.139  12.072 -2.5022  1.2241 -0.5336
 2190TIP3   OH228060   3.457   4.010   5.560  0.2689  0.8461 -0.4548
 2190TIP3    H128061   3.442   3.935   5.618  0.7941  1.1621  0.1025
 2190TIP3    H228062   3.373   4.025   5.517  0.4710 -0.8570 -1.5407
 2191TIP3   OH228063   5.939   3.781   4.169  0.1497  0.2408  0.4967
 2191TIP3    H128064   5.930   3.690   4.142 -1.1699  0.1163  1.2779
 2191TIP3    H228065   5.885   3.788   4.248  0.6039  1.5857  0.7128
 2192TIP3   OH228066   1.919   1.049   0.215  0.1078 -0.0139  0.2553
 2192TIP3    H128067   1.848   1.111   0.228 -0.9211 -1.1380  0.1625
 2192TIP3    H228068   1.989   1.081   0.272 -0.0788  1.6659 -0.3937
 2193TIP3   OH228069   4.988   3.355   2.973  0.3465  0.5304 -0.1136
 2193TIP3    H128070   4.929   3.287   3.006  0.5383  0.5699  0.3271
 2193TIP3    H228071   4.995   3.418   3.045  0.8092  0.5959 -0.2093
 2194TIP3   OH228072   3.618   6.257  13.243  0.3436 -0.0376  0.0550
 2194TIP3    H128073   3.567   6.332  13.275  0.1371  0.2942 -1.0077
 2194TIP3    H228074   3.557   6.184  13.246  0.7613 -0.3654  1.8174
 2195TIP3   OH228075   5.289   0.332  14.367  0.2720  0.6357  0.6293
 2195TIP3    H128076   5.242   0.287  14.436 -0.7398  0.3313 -0.2375
 2195TIP3    H228077   5.374   0.287  14.361  0.5766  1.0011  1.9967
 2196TIP3   OH228078   3.637   0.305   6.536 -0.0842 -0.4666 -0.2644
 2196TIP3    H128079   3.609   0.229   6.485 -2.9374  0.8043 -0.7819
 2196TIP3    H228080   3.712   0.340   6.488 -0.1615 -1.6300 -1.2892
 2197TIP3   OH228081   0.166   1.801  13.522  0.1355  0.3215 -0.3926
 2197TIP3    H128082   0.155   1.708  13.504 -3.1311  0.0616  2.1602
 2197TIP3    H228083   0.235   1.804  13.589  1.0603 -0.0797 -1.2887
 2198TIP3   OH228084   4.268   6.104  13.860 -0.4019  0.0489  0.4047
 2198TIP3    H128085   4.229   6.019  13.879  0.2635 -0.7146 -1.4297
 2198TIP3    H228086   4.286   6.102  13.766  2.4098  1.0300  0.8157
 2199TIP3   OH228087   1.844   6.047  15.261  0.3914  0.6787 -0.3024
 2199TIP3    H128088   1.928   6.075  15.223  0.0533  0.7720 -1.0033
 2199TIP3    H228089   1.784   6.119  15.241 -0.0176  0.3100 -0.4018
 2200TIP3   OH228090   5.525   0.916  12.327 -0.8455 -0.5425  0.0958
 2200TIP3    H128091   5.578   0.949  12.401 -0.3933 -1.0062 -0.0153
 2200TIP3    H228092   5.449   0.876  12.369 -0.6046 -0.7802  0.3137
 2201TIP3   OH228093   6.760   2.590  11.499 -0.0564 -0.2588  0.0371
 2201TIP3    H128094   6.782   2.582  11.592 -1.7958  3.3361  0.9356
 2201TIP3    H228095   6.766   2.684  11.481 -0.7862 -0.7224 -3.2498
 2202TIP3   OH228096   4.480   5.860   0.147 -0.5025 -0.1131 -0.1033
 2202TIP3    H128097   4.417   5.789   0.157 -0.5626 -0.1550 -0.7462
 2202TIP3    H228098   4.497   5.865   0.053  0.3530 -0.0176  0.0440
 2203TIP3   OH228099   6.381   3.142  14.912 -0.0116  0.2200 -0.2113
 2203TIP3    H128100   6.288   3.129  14.932 -0.0820 -0.2794 -0.8297
 2203TIP3    H228101   6.382   3.170  14.821  0.3731  1.4568  0.1662
 2204TIP3   OH228102   4.702   5.413  10.329  0.7457  0.7020  0.1732
 2204TIP3    H128103   4.741   5.473  10.393  1.1247  3.4053 -2.4047
 2204TIP3    H228104   4.610   5.437  10.327  0.8952  1.2622 -0.8529
 2205TIP3   OH228105   4.207   4.988   3.915  0.3560 -0.3981 -0.4490
 2205TIP3    H128106   4.123   4.955   3.946  1.1183 -1.7643  0.2275
 2205TIP3    H228107   4.250   4.913   3.876  2.7208 -0.7166  2.3917
 2206TIP3   OH228108   1.023   2.389  14.746 -0.1027 -0.2975  0.3608
 2206TIP3    H128109   0.929   2.373  14.742  0.0674 -1.9396  1.5694
 2206TIP3    H228110   1.032   2.475  14.787 -1.0839 -0.7331  1.5271
 2207TIP3   OH228111   0.449   0.847   2.051 -0.0725 -0.3263 -0.0988
 2207TIP3    H128112   0.365   0.820   2.013  0.5275 -1.7812 -0.4796
 2207TIP3    H228113   0.453   0.941   2.036 -1.4242 -0.2987 -0.4735
 2208TIP3   OH228114   0.913   0.645  11.981  0.1276 -0.2541 -0.0273
 2208TIP3    H128115   0.824   0.676  11.965 -0.7775 -2.0434  1.1970
 2208TIP3    H228116   0.907   0.550  11.972  2.0838 -0.3659 -0.5907
 2209TIP3   OH228117   1.745   5.729   4.507  0.1021 -0.6625  0.2410
 2209TIP3    H128118   1.660   5.769   4.523  0.1256 -0.5955  0.1986
 2209TIP3    H228119   1.804   5.770   4.570  0.3161  0.0160 -0.3908
 2210TIP3   OH228120   0.460   6.824   2.317  0.3063  0.1108 -0.3953
 2210TIP3    H128121   0.538   6.839   2.372  0.6296 -0.4445 -0.6993
 2210TIP3    H228122   0.493   6.830   2.227  0.0508 -0.4051 -0.5246
 2211TIP3   OH228123   4.295   1.030  10.661  0.6526  0.2100 -0.0080
 2211TIP3    H128124   4.325   1.118  10.681  1.4693 -0.4271  1.7858
 2211TIP3    H228125   4.370   0.987  10.620  0.2423  0.3439 -0.9227
 2212TIP3   OH228126   6.033   0.883  13.167 -0.2722  0.2493  0.2359
 2212TIP3    H128127   6.029   0.788  13.182 -0.8055  0.4506  1.4981
 2212TIP3    H228128   5.962   0.900  13.105 -0.0761 -0.1961 -0.1131
 2213TIP3   OH228129   0.284   1.744  16.331 -0.2645 -0.1698  0.1682
 2213TIP3    H128130   0.194   1.749  16.299 -0.3978  0.1810  0.5909
 2213TIP3    H228131   0.306   1.834  16.355 -0.2859 -0.4612  1.3533
 2214TIP3   OH228132   2.568   0.356  13.149 -0.2019  0.2491 -0.4750
 2214TIP3    H128133   2.508   0.282  13.144 -0.4613  0.5289 -1.6188
 2214TIP3    H228134   2.545   0.400  13.231 -1.1422 -0.0052 -0.5946
 2215TIP3   OH228135   6.733   3.003   2.946  0.1794  0.0270  0.3617
 2215TIP3    H128136   6.777   3.088   2.937 -1.5867  0.7724 -2.4475
 2215TIP3    H228137   6.751   2.957   2.865 -2.3160 -0.5169  0.0136
 2216TIP3   OH228138   4.165   4.403  14.859 -0.7111 -0.3427  0.1533
 2216TIP3    H128139   4.150   4.310  14.878  1.4588 -0.9253 -0.7143
 2216TIP3    H228140   4.079   4.435  14.831 -1.3567 -2.2722 -0.2641
 2217TIP3   OH228141   1.770   0.063  13.089  0.2555  0.1358  0.0872
 2217TIP3    H128142   1.729  -0.023  13.083  1.0955 -0.3080  0.4846
 2217TIP3    H228143   1.854   0.052  13.043 -0.0125  0.9913 -0.6310
 2218TIP3   OH228144   5.253   4.031  14.821  0.5171 -0.0360 -0.3302
 2218TIP3    H128145   5.227   3.959  14.763  0.6064  0.0804 -0.5179
 2218TIP3    H228146   5.246   4.110  14.766 -1.8206  0.4106  0.5058
 2219TIP3   OH228147   4.775   6.625   4.637  0.5817  0.1514 -0.2255
 2219TIP3    H128148   4.789   6.661   4.549  1.2808 -0.2874 -0.3029
 2219TIP3    H228149   4.863   6.616   4.673  0.2673  0.9769  0.7975
 2220TIP3   OH228150   6.348   3.138  14.202 -0.5461 -0.6752 -0.6186
 2220TIP3    H128151   6.339   3.192  14.124 -0.4226 -1.6397 -1.3297
 2220TIP3    H228152   6.284   3.068  14.190  0.7950 -1.9310 -0.8450
 2221TIP3   OH228153   2.368   6.153   5.362  0.0067 -0.1996 -0.0699
 2221TIP3    H128154   2.434   6.158   5.293  0.1404  0.3716  0.0884
 2221TIP3    H228155   2.394   6.078   5.415  0.4402 -0.0734 -0.1011
 2222TIP3   OH228156   6.094   4.100  13.194 -0.3310 -0.0794  0.5103
 2222TIP3    H128157   6.171   4.052  13.223  0.2905  0.4342 -0.2652
 2222TIP3    H228158   6.073   4.062  13.109 -0.7150  0.0379  0.5523
 2223TIP3   OH228159   4.538   6.197   0.064  0.1147  0.1838  0.3003
 2223TIP3    H128160   4.481   6.272   0.047 -1.5415 -1.3722 -1.3419
 2223TIP3    H228161   4.590   6.225   0.140 -0.6768  2.8323 -0.0023
 2224TIP3   OH228162   3.593   4.432   7.101 -0.4159  0.7736  0.1126
 2224TIP3    H128163   3.568   4.462   7.188  1.4662  0.7733  0.7002
 2224TIP3    H228164   3.672   4.381   7.115  1.6597  3.1591 -1.8351
 2225TIP3   OH228165   4.782   2.663  16.901  0.3721  0.5948 -0.5648
 2225TIP3    H128166   4.854   2.601  16.916 -0.8202 -0.9132 -0.8831
 2225TIP3    H228167   4.756   2.691  16.989 -0.9582 -1.6104 -0.2001
 2226TIP3   OH228168   3.458   4.863  14.264 -0.5096 -0.0000 -0.0777
 2226TIP3    H128169   3.536   4.814  14.238 -0.9028  0.7343 -3.0142
 2226TIP3    H228170   3.389   4.798  14.268 -0.3769 -0.1828 -0.6895
 2227TIP3   OH228171   1.613   6.225   3.521  0.0117 -0.1146 -0.8494
 2227TIP3    H128172   1.679   6.188   3.462 -0.7052 -1.6617 -0.7180
 2227TIP3    H228173   1.640   6.197   3.608 -0.4792 -0.2194 -0.7314
 2228TIP3   OH228174   2.755   1.128  16.510  0.5108  0.0505  0.9252
 2228TIP3    H128175   2.764   1.222  16.493 -1.5639  0.1618  0.0637
 2228TIP3    H228176   2.837   1.090  16.479  1.0745  1.4828  0.5551
 2229TIP3   OH228177   6.548   3.082   5.371  0.1336  0.4842  0.0026
 2229TIP3    H128178   6.503   3.021   5.430 -0.2673  0.8561  0.0858
 2229TIP3    H228179   6.552   3.164   5.421 -0.5766  0.9199 -0.6294
 2230TIP3   OH228180   4.897   5.353   2.518 -0.4115 -0.1097  0.7631
 2230TIP3    H128181   4.939   5.423   2.467 -1.3552 -0.4796 -0.5911
 2230TIP3    H228182   4.880   5.392   2.603  2.3622  0.1491  1.3029
 2231TIP3   OH228183   3.760   6.535   1.664 -0.0378  0.0018 -0.2014
 2231TIP3    H128184   3.819   6.511   1.736  1.4895  3.8517  0.0782
 2231TIP3    H228185   3.817   6.540   1.587 -0.4691  1.2890 -0.4652
 2232TIP3   OH228186   1.362   3.916   5.455  0.3799  0.1156 -0.1375
 2232TIP3    H128187   1.406   3.957   5.381  0.7409  0.3085  0.1783
 2232TIP3    H228188   1.286   3.972   5.471  0.4891  0.2681 -0.1477
 2233TIP3   OH228189   3.214   6.548   4.900 -0.1244  1.0188  0.8700
 2233TIP3    H128190   3.270   6.596   4.840  0.2022 -1.1183 -0.6653
 2233TIP3    H228191   3.269   6.533   4.977  2.1282 -2.1201 -1.0742
 2234TIP3   OH228192   3.692   1.615  16.840 -0.2060  0.1123  0.4467
 2234TIP3    H128193   3.665   1.532  16.882 -1.1795 -0.2120 -0.7594
 2234TIP3    H228194   3.765   1.645  16.893  1.8279 -2.7673 -0.4645
 2235TIP3   OH228195   4.236   0.163   1.331  0.1037 -0.1092  0.3120
 2235TIP3    H128196   4.277   0.226   1.390  2.3599 -0.5640 -0.6690
 2235TIP3    H228197   4.148   0.151   1.366  0.9596  0.4940  2.9022
 2236TIP3   OH228198   4.002   2.508   0.454  0.4413 -0.2517 -0.3793
 2236TIP3    H128199   3.937   2.437   0.449 -0.1411  0.0900  1.5352
 2236TIP3    H228200   4.031   2.520   0.363 -1.3180 -1.2060 -1.1284
 2237TIP3   OH228201   4.827   1.228  14.385 -0.1779 -0.3681 -0.0910
 2237TIP3    H128202   4.774   1.307  14.379  0.2208 -0.1746 -1.6841
 2237TIP3    H228203   4.881   1.240  14.463 -0.2315  0.8568 -0.2356
 2238TIP3   OH228204   1.123   3.209  15.317 -0.5461 -0.1898  0.1745
 2238TIP3    H128205   1.218   3.222  15.315 -0.0630 -2.9642  0.8387
 2238TIP3    H228206   1.089   3.272  15.253  1.8191  0.1415 -0.8671
 2239TIP3   OH228207   1.686   5.545  16.199  0.1007 -0.0864 -0.5414
 2239TIP3    H128208   1.665   5.470  16.144 -1.2026  0.3469 -0.6837
 2239TIP3    H228209   1.662   5.517  16.288 -1.8978  0.6486 -0.7943
 2240TIP3   OH228210   2.847   0.036  13.977  0.2825  0.3131  0.5438
 2240TIP3    H128211   2.790   0.027  13.901  0.3651  3.0012  0.0834
 2240TIP3    H228212   2.816  -0.031  14.038 -1.5707 -0.0840 -0.7536
 2241TIP3   OH228213   5.528   0.136  14.365 -0.0688  0.3839  0.4461
 2241TIP3    H128214   5.560   0.083  14.438 -0.2196 -0.7544 -0.2788
 2241TIP3    H228215   5.492   0.072  14.303 -0.8835  1.3940 -0.1651
 2242TIP3   OH228216   1.954   6.759   4.114  0.2079 -0.0132 -0.2143
 2242TIP3    H128217   2.033   6.732   4.160  0.3801  1.1016  0.1785
 2242TIP3    H228218   1.980   6.838   4.066 -0.3690 -0.2904 -1.0024
 2243TIP3   OH228219   0.360   5.620  15.732 -0.1553 -0.1050  0.0629
 2243TIP3    H128220   0.441   5.637  15.781 -0.1586  0.6344 -0.1887
 2243TIP3    H228221   0.303   5.694  15.752 -1.6907 -1.6904  2.0758
 2244TIP3   OH228222   4.634   1.526   3.642 -0.5705  0.6135 -0.3812
 2244TIP3    H128223   4.650   1.432   3.635  0.0452  0.5089  1.7885
 2244TIP3    H228224   4.700   1.558   3.704 -1.4928  2.2642 -0.1820
 2245TIP3   OH228225   3.496   4.731  15.461  0.1154  0.6342 -0.1468
 2245TIP3    H128226   3.460   4.696  15.542  1.3392 -1.0867 -0.2766
 2245TIP3    H228227   3.590   4.712  15.466  0.3372  1.1673 -1.6240
 2246TIP3   OH228228   0.739   5.730  15.432  0.1610  0.1729  0.4500
 2246TIP3    H128229   0.708   5.802  15.377 -0.1074 -0.0533  0.3034
 2246TIP3    H228230   0.663   5.673  15.441 -0.0741  0.6633  1.8067
 2247TIP3   OH228231   4.504   4.711   2.897 -0.4073 -0.0362  0.2833
 2247TIP3    H128232   4.562   4.779   2.861 -0.1280 -0.7204 -0.5877
 2247TIP3    H228233   4.472   4.748   2.979  0.2816  0.8699  0.1575
 2248TIP3   OH228234   3.302   5.602  17.178 -0.1631 -0.2721  0.4152
 2248TIP3    H128235   3.351   5.561  17.108  0.4621  0.0857  0.6351
 2248TIP3    H228236   3.273   5.529  17.234  0.9105 -0.4267  0.7908
 2249TIP3   OH228237   0.557   0.585   2.815 -0.8447 -0.4804  0.2197
 2249TIP3    H128238   0.558   0.681   2.807 -1.7793 -0.3051  1.8760
 2249TIP3    H228239   0.513   0.555   2.735 -2.7765  0.6375  0.8153
 2250TIP3   OH228240   2.456   1.044   0.893  0.0743  0.6724  0.0243
 2250TIP3    H128241   2.530   1.028   0.952 -1.0702  3.3412  2.4582
 2250TIP3    H228242   2.496   1.069   0.810  1.8879  0.9515  0.9346
 2251TIP3   OH228243   6.799   4.831   3.307  0.0902  0.0321  0.0618
 2251TIP3    H128244   6.725   4.832   3.368 -0.1624  0.4416 -0.2448
 2251TIP3    H228245   6.781   4.904   3.247  0.9966  0.4487  0.2874
 2252TIP3   OH228246   0.009   1.608   1.560 -0.7607 -0.1396  0.1185
 2252TIP3    H128247   0.088   1.662   1.553  1.4313 -3.0943  0.1576
 2252TIP3    H228248   0.013   1.569   1.647 -1.0709 -1.9707 -0.6339
 2253TIP3   OH228249   5.035   1.455  13.526 -0.6101 -0.9177  0.0487
 2253TIP3    H128250   4.980   1.417  13.595  0.5005 -1.9766  0.3953
 2253TIP3    H228251   5.097   1.385  13.505 -0.2396 -0.2112 -1.2569
 2254TIP3   OH228252   2.006   4.654  13.326  0.7568 -0.0593  0.1126
 2254TIP3    H128253   1.994   4.560  13.336  0.9571  0.0774  1.7920
 2254TIP3    H228254   2.099   4.664  13.304  1.4379 -0.1102  2.7203
 2255TIP3   OH228255   1.692   4.412  13.410  0.2311 -0.1169  0.4219
 2255TIP3    H128256   1.783   4.437  13.397  0.5309 -0.6867  1.3420
 2255TIP3    H228257   1.660   4.473  13.477  0.2097 -0.5144  0.7758
 2256TIP3   OH228258   4.169   5.040  12.706  0.1582  0.6673  0.9896
 2256TIP3    H128259   4.092   5.087  12.676  1.1601  1.6115 -0.2217
 2256TIP3    H228260   4.204   4.997  12.628  0.5144 -0.2651  1.6420
 2257TIP3   OH228261   4.412   1.559  14.255 -0.2385 -0.5104  0.2577
 2257TIP3    H128262   4.406   1.655  14.264 -2.7578 -0.5476 -0.3339
 2257TIP3    H228263   4.431   1.528  14.343  0.0931  0.4876  0.5530
 2258TIP3   OH228264   5.820   1.980  12.709  0.4574 -0.0492 -0.0568
 2258TIP3    H128265   5.814   2.056  12.652  0.0457  0.5314  0.7356
 2258TIP3    H228266   5.835   1.906  12.650  0.1718  0.5476 -0.8932
 2259TIP3   OH228267   0.233   6.387   2.890  0.6546  0.7891 -0.3844
 2259TIP3    H128268   0.258   6.479   2.877 -0.4574  1.3610  1.1391
 2259TIP3    H228269   0.139   6.386   2.872  0.2486  0.4107  1.5473
 2260TIP3   OH228270   5.735   6.536  13.914 -0.5904  0.0007 -0.7353
 2260TIP3    H128271   5.670   6.603  13.894  1.6198  2.1793 -1.0290
 2260TIP3    H228272   5.771   6.562  13.999 -0.9401 -1.9083  0.0498
 2261TIP3   OH228273   2.719   0.225  12.279 -0.1189 -0.1617 -0.6164
 2261TIP3    H128274   2.802   0.244  12.322 -1.2590 -0.3807  1.9056
 2261TIP3    H228275   2.688   0.310  12.247  0.2025  0.2419  0.1285
 2262TIP3   OH228276   0.057   3.126  11.076  0.3728  0.0070 -0.9354
 2262TIP3    H128277   0.032   3.042  11.039  0.4541  0.4017 -1.9265
 2262TIP3    H228278   0.110   3.167  11.008  1.1420  0.4636 -0.0875
 2263TIP3   OH228279   3.806   5.516   0.737  0.8430  0.4396  0.0184
 2263TIP3    H128280   3.722   5.551   0.767 -0.1900  0.7777 -2.8825
 2263TIP3    H228281   3.871   5.578   0.770  0.0321  0.1485  2.3722
 2264TIP3   OH228282   6.163   2.195  12.230  0.2188 -0.3783  0.1202
 2264TIP3    H128283   6.114   2.252  12.289 -0.6146 -0.7994 -0.1498
 2264TIP3    H228284   6.098   2.163  12.167  0.6169 -1.7273  0.3484
 2265TIP3   OH228285   3.106   3.736   0.594  0.4205 -0.1243  0.3799
 2265TIP3    H128286   3.174   3.752   0.659 -0.8348  0.8344  1.5086
 2265TIP3    H228287   3.068   3.652   0.619 -0.0891  0.2629  0.9494
 2266TIP3   OH228288   1.280   1.114  12.511  0.0155  0.3009 -0.4182
 2266TIP3    H128289   1.186   1.109  12.495 -0.5560  0.7662  2.2996
 2266TIP3    H228290   1.297   1.205  12.533  1.0141  0.1048 -0.2892
 2267TIP3   OH228291   6.187   1.482  13.940 -0.3511 -0.3001  0.2656
 2267TIP3    H128292   6.209   1.573  13.920 -1.2036 -0.2695 -0.5869
 2267TIP3    H228293   6.211   1.434  13.861 -0.5535 -0.7103  0.4515
 2268TIP3   OH228294   2.041   3.668   4.031  0.2784  0.1569 -0.2478
 2268TIP3    H128295   1.968   3.610   4.055 -0.0543  1.7893  3.2827
 2268TIP3    H228296   2.000   3.739   3.982 -0.0268 -0.2594 -0.6134
 2269TIP3   OH228297   0.185   4.376  11.217 -0.2559  0.0750  0.0752
 2269TIP3    H128298   0.093   4.377  11.189 -0.2492  0.0194  0.0511
 2269TIP3    H228299   0.201   4.466  11.247 -0.0747  0.3162 -0.7204
 2270TIP3   OH228300   4.491   2.520  12.938 -0.9691  0.1660 -0.2634
 2270TIP3    H128301   4.547   2.591  12.905 -1.1712 -0.3311 -1.7202
 2270TIP3    H228302   4.521   2.442  12.892 -0.1374 -0.9306  1.9801
 2271TIP3   OH228303   4.732   1.194   2.540  0.3266 -0.2012 -0.6401
 2271TIP3    H128304   4.693   1.273   2.577  0.2054  0.5404 -2.2703
 2271TIP3    H228305   4.725   1.129   2.610  3.5807  2.0787  2.1821
 2272TIP3   OH228306   3.734   6.496  15.189  0.2932  0.2112 -0.2756
 2272TIP3    H128307   3.788   6.454  15.123  1.6456  2.5695 -0.7816
 2272TIP3    H228308   3.664   6.539  15.140 -0.1206 -0.0605  0.0680
 2273TIP3   OH228309   0.868   4.887   3.465 -0.2664  0.7887  0.4754
 2273TIP3    H128310   0.824   4.806   3.490  1.8247 -0.4315  0.3856
 2273TIP3    H228311   0.817   4.956   3.508 -1.9345 -0.5576  0.7781
 2274TIP3   OH228312   4.813   6.577   5.274 -0.4282  0.4692  0.1923
 2274TIP3    H128313   4.826   6.482   5.281  0.3712  0.5776  0.2533
 2274TIP3    H228314   4.856   6.601   5.192 -0.1103  0.8646  0.4707
 2275TIP3   OH228315   0.889   5.689   5.279 -0.1572 -0.2778  0.6916
 2275TIP3    H128316   0.907   5.778   5.249  0.7852 -0.2815  1.2181
 2275TIP3    H228317   0.973   5.657   5.311 -0.3474 -1.5731 -0.0244
 2276TIP3   OH228318   6.521   3.095  16.538  0.0797  0.1196 -0.3676
 2276TIP3    H128319   6.613   3.110  16.563  1.0133 -4.1789 -0.4721
 2276TIP3    H228320   6.515   3.129  16.448  1.7424  0.0519 -0.5386
 2277TIP3   OH228321   3.773   2.227  12.923 -0.4813  0.1423 -0.1220
 2277TIP3    H128322   3.852   2.175  12.912 -1.4353 -1.1691 -1.0307
 2277TIP3    H228323   3.760   2.232  13.018 -0.3486 -1.2488 -0.0170
 2278TIP3   OH228324   4.878   2.637  10.511  0.1486  0.0110 -0.1288
 2278TIP3    H128325   4.858   2.721  10.552 -3.0480 -1.4331  1.6012
 2278TIP3    H228326   4.969   2.620  10.536  0.6732  2.6185  0.0015
 2279TIP3   OH228327   0.815   0.384  12.355  0.2650  0.1901  0.0136
 2279TIP3    H128328   0.730   0.365  12.315 -0.1885 -1.2989  1.5561
 2279TIP3    H228329   0.832   0.309  12.412  2.7294  0.3431 -0.3928
 2280TIP3   OH228330   0.257   0.075   3.003  0.3506 -0.2487  0.5650
 2280TIP3    H128331   0.207   0.154   2.983 -3.0563 -2.3888 -0.1509
 2280TIP3    H228332   0.267   0.076   3.098 -1.1680  0.2519  0.7414
 2281TIP3   OH228333   2.376   2.327  17.153  0.7188  0.0133 -0.6720
 2281TIP3    H128334   2.297   2.293  17.112 -2.2217  3.5042  1.5539
 2281TIP3    H228335   2.438   2.338  17.081 -0.9822 -2.2293 -2.6146
 2282TIP3   OH228336   4.492   0.735  14.430 -0.0936  0.2196  0.0414
 2282TIP3    H128337   4.443   0.809  14.393  0.2614  1.3190  1.6688
 2282TIP3    H228338   4.525   0.687  14.353  0.4358  2.2621 -1.0756
 2283TIP3   OH228339   1.517   2.562   1.946  0.0939 -0.3821  0.0042
 2283TIP3    H128340   1.509   2.604   1.860 -0.9819  1.6706  1.0199
 2283TIP3    H228341   1.427   2.539   1.969  0.4073 -1.1448  0.4693
 2284TIP3   OH228342   4.732   1.980   2.904  0.4523 -0.8649  0.2185
 2284TIP3    H128343   4.827   1.991   2.897  0.5017 -2.1129 -1.7019
 2284TIP3    H228344   4.715   1.893   2.869 -1.1955 -1.6496  2.7084
 2285TIP3   OH228345   3.846   2.353  11.915  0.2413  0.5414 -0.3080
 2285TIP3    H128346   3.882   2.429  11.870  0.8430 -0.0624 -0.8658
 2285TIP3    H228347   3.920   2.314  11.960  0.5042 -1.1126 -2.0384
 2286TIP3   OH228348   1.909   3.612   1.074 -0.0024 -0.3158 -0.9208
 2286TIP3    H128349   1.814   3.622   1.081  0.1592  0.3783  0.7774
 2286TIP3    H228350   1.921   3.532   1.022 -1.5290 -1.0419 -0.2201
 2287TIP3   OH228351   0.330   0.876  13.153  0.4096  0.3537  0.3354
 2287TIP3    H128352   0.342   0.951  13.211  0.5422 -0.8117  1.9049
 2287TIP3    H228353   0.357   0.907  13.067  1.4000  1.8098  1.1286
 2288TIP3   OH228354   3.493   2.075   4.780 -0.1158  0.4796  0.1536
 2288TIP3    H128355   3.418   2.059   4.722 -1.6097  3.1674  1.1337
 2288TIP3    H228356   3.478   2.018   4.855  0.7789 -1.5627 -1.1246
 2289TIP3   OH228357   4.065   3.109   2.267  0.4173 -0.2653  0.0554
 2289TIP3    H128358   4.081   3.132   2.175  0.4909  0.5169  0.2564
 2289TIP3    H228359   3.971   3.122   2.278  0.5962  0.8357  0.4014
 2290TIP3   OH228360   3.783   5.408   2.393 -0.0123 -0.3666 -0.1091
 2290TIP3    H128361   3.833   5.473   2.441 -0.5984  0.1843 -0.2339
 2290TIP3    H228362   3.788   5.329   2.447  1.2645 -0.4252 -0.2827
 2291TIP3   OH228363   6.554   6.511   5.903  0.0908  0.4017 -0.0696
 2291TIP3    H128364   6.481   6.455   5.929  0.6785 -0.8927 -1.1409
 2291TIP3    H228365   6.515   6.598   5.894 -0.9487  0.0849  1.0689
 2292TIP3   OH228366   0.122   0.899   4.452 -0.0374  0.1929 -0.2898
 2292TIP3    H128367   0.175   0.978   4.454 -0.6626  0.6626  2.4932
 2292TIP3    H228368   0.032   0.930   4.456 -0.5460 -0.6394 -3.2009
 2293TIP3   OH228369   5.443   0.160  12.849  0.2979  0.5807  0.3264
 2293TIP3    H128370   5.387   0.128  12.920 -0.1443  3.0198  1.2105
 2293TIP3    H228371   5.532   0.149  12.882  0.1883 -0.1711  0.3813
 2294TIP3   OH228372   6.372   3.829   5.201  0.4459 -0.4030 -0.5358
 2294TIP3    H128373   6.307   3.817   5.132 -0.0300  1.8653 -0.5562
 2294TIP3    H228374   6.439   3.883   5.161  1.9046 -1.8756 -0.2044
 2295TIP3   OH228375   5.282   5.678  16.895  0.4233  0.1380  0.1345
 2295TIP3    H128376   5.237   5.753  16.935 -1.4229 -0.8796  0.0345
 2295TIP3    H228377   5.322   5.632  16.969  0.7916  0.6932  0.2918
 2296TIP3   OH228378   1.772   1.176  16.784 -0.0769  1.0122  0.2341
 2296TIP3    H128379   1.817   1.222  16.856  0.0444 -0.0463  0.8585
 2296TIP3    H228380   1.688   1.151  16.821  1.1183 -2.1782  1.0976
 2297TIP3   OH228381   3.428   4.047  15.168  0.3321 -0.4360  0.2435
 2297TIP3    H128382   3.471   3.963  15.185  0.3904 -0.1144  1.8017
 2297TIP3    H228383   3.426   4.090  15.253  0.2836  1.1432 -0.5316
 2298TIP3   OH228384   4.306   0.524   2.618 -0.5186  0.1653 -0.2331
 2298TIP3    H128385   4.368   0.522   2.545 -1.4819  1.0712 -1.1214
 2298TIP3    H228386   4.302   0.433   2.649  0.0093 -0.2130 -1.2297
 2299TIP3   OH228387   5.437   2.355  13.014  0.1384  0.4637 -1.0567
 2299TIP3    H128388   5.518   2.359  13.065  0.2901  2.3588 -1.3682
 2299TIP3    H228389   5.374   2.314  13.073  1.1147 -0.3340 -0.5356
 2300TIP3   OH228390   4.387   1.411   6.093 -0.3674  0.4227  0.1101
 2300TIP3    H128391   4.474   1.371   6.089 -0.2463  0.6900  0.0588
 2300TIP3    H228392   4.394   1.475   6.163  0.1524  2.0325 -1.3410
 2301TIP3   OH228393   0.377   1.019  15.531  0.3704 -0.3364 -0.0199
 2301TIP3    H128394   0.413   0.930  15.534  1.2888  0.0136  3.3481
 2301TIP3    H228395   0.351   1.037  15.622 -3.4559  1.4569 -1.2733
 2302TIP3   OH228396   3.894   5.632  15.661  0.0321 -0.0271 -0.1998
 2302TIP3    H128397   3.968   5.602  15.713  0.1798  0.9537  0.1815
 2302TIP3    H228398   3.826   5.567  15.676 -0.3293  0.8022  2.1886
 2303TIP3   OH228399   1.956   0.113   1.822  0.1323  0.2584 -0.4848
 2303TIP3    H128400   1.936   0.124   1.729  1.5155  1.7370 -0.6579
 2303TIP3    H228401   2.051   0.125   1.828  0.2204 -0.9059  0.9919
 2304TIP3   OH228402   6.679   6.021  13.185 -0.1172  0.6909  0.8709
 2304TIP3    H128403   6.633   5.955  13.237 -1.7294  0.6514 -0.5326
 2304TIP3    H228404   6.615   6.090  13.172 -0.0438  0.3744 -1.6436
 2305TIP3   OH228405   5.549   3.052   5.825 -0.4358 -0.5809 -0.6422
 2305TIP3    H128406   5.613   2.982   5.833  0.2757  0.2488  1.5332
 2305TIP3    H228407   5.600   3.129   5.798 -0.6367 -0.1246  0.2461
 2306TIP3   OH228408   1.635   3.852   4.435  0.0574 -0.0245 -0.0930
 2306TIP3    H128409   1.640   3.762   4.468 -0.5849 -0.9284 -2.2881
 2306TIP3    H228410   1.618   3.905   4.513 -0.8482 -1.9575  1.0941
 2307TIP3   OH228411   2.070   1.955   5.650 -0.3756 -0.0175 -0.0013
 2307TIP3    H128412   2.072   1.861   5.670 -0.3251 -0.0780 -0.2799
 2307TIP3    H228413   2.120   1.963   5.569  0.5007  0.3912  0.5647
 2308TIP3   OH228414   6.795   1.686   6.354  0.4663  0.0010 -0.1175
 2308TIP3    H128415   6.856   1.754   6.326 -0.5322  0.2042 -1.9768
 2308TIP3    H228416   6.830   1.606   6.315  0.7650 -0.2781  0.7148
 2309TIP3   OH228417   0.331   1.092   4.384 -0.0239 -0.2439  0.1512
 2309TIP3    H128418   0.419   1.066   4.357 -0.2657 -0.2885 -0.6231
 2309TIP3    H228419   0.340   1.184   4.408  0.3629 -0.4207  0.7022
 2310TIP3   OH228420   1.174   1.588   4.517 -0.3671 -0.0399 -0.2986
 2310TIP3    H128421   1.214   1.502   4.504 -0.7248  0.0922 -2.5257
 2310TIP3    H228422   1.160   1.623   4.429 -0.5793  2.1576  0.5221
 2311TIP3   OH228423   0.817   4.456  11.876  0.6248 -0.7309 -0.4518
 2311TIP3    H128424   0.744   4.486  11.822 -1.2256 -1.3475  1.5634
 2311TIP3    H228425   0.780   4.385  11.929  2.6585 -0.9867  0.7437
 2312TIP3   OH228426   1.340   0.023  13.096 -0.4979  0.5818 -0.4053
 2312TIP3    H128427   1.327   0.092  13.031 -0.2703 -0.1180 -1.2040
 2312TIP3    H228428   1.412   0.055  13.150 -0.7818  1.2336 -0.4027
 2313TIP3   OH228429   2.001   2.672  12.978 -0.1131 -0.4452 -0.2767
 2313TIP3    H128430   1.937   2.654  13.047  0.2440  1.5306  0.6359
 2313TIP3    H228431   2.051   2.590  12.971 -1.4547 -1.3642  0.3593
 2314TIP3   OH228432   5.277   2.189   2.096 -0.1329 -0.3823 -0.5784
 2314TIP3    H128433   5.219   2.154   2.164 -2.2207  1.0647 -1.4748
 2314TIP3    H228434   5.315   2.112   2.055 -3.4433 -1.6760 -1.5882
 2315TIP3   OH228435   5.575   2.937  17.057 -0.5774  1.2423  0.0468
 2315TIP3    H128436   5.538   2.872  17.117  1.1596  0.2518  0.1083
 2315TIP3    H228437   5.604   3.008  17.114  2.5498 -0.3887  0.7194
 2316TIP3   OH228438   0.939   3.406  12.416 -0.1079  0.1952 -0.5648
 2316TIP3    H128439   0.908   3.494  12.437  0.7143  0.4876 -0.5682
 2316TIP3    H228440   1.006   3.387  12.482 -2.1434 -1.5192  1.1747
 2317TIP3   OH228441   2.311   2.566   4.465  0.5416 -0.2986  0.5111
 2317TIP3    H128442   2.344   2.645   4.507 -0.8531  0.5057  0.1452
 2317TIP3    H228443   2.243   2.597   4.405  0.7320 -1.6686 -0.4633
 2318TIP3   OH228444   0.490   3.132  14.417  0.5734 -0.7856  0.4494
 2318TIP3    H128445   0.554   3.072  14.379  0.9713 -0.3341  0.3926
 2318TIP3    H228446   0.406   3.103  14.382  0.7928 -1.1435  0.2144
 2319TIP3   OH228447   1.996   5.531  14.570  0.3070  0.8236  0.0567
 2319TIP3    H128448   1.932   5.600  14.582 -1.3428 -0.5040 -0.7399
 2319TIP3    H228449   1.970   5.463  14.633  0.8450  0.2066 -0.3719
 2320TIP3   OH228450   0.655   3.584   3.410  0.3367  0.3165 -0.4176
 2320TIP3    H128451   0.713   3.574   3.334  0.2081 -0.5027 -0.4114
 2320TIP3    H228452   0.700   3.649   3.465  1.0083  0.0551 -0.6404
 2321TIP3   OH228453   6.717   6.818   0.386 -0.5561 -0.0779 -0.9045
 2321TIP3    H128454   6.754   6.893   0.339 -0.0140 -0.3132 -0.8637
 2321TIP3    H228455   6.719   6.746   0.322 -2.2976  0.2533 -1.3746
 2322TIP3   OH228456   6.786   6.600   4.940 -0.7476 -0.0766 -0.3086
 2322TIP3    H128457   6.739   6.522   4.970 -1.5215  0.8534  1.0118
 2322TIP3    H228458   6.717   6.660   4.912 -0.2166  0.5041 -0.3833
 2323TIP3   OH228459   0.685   5.308  15.659 -0.4745 -0.0433 -0.1178
 2323TIP3    H128460   0.635   5.287  15.580 -0.5719 -0.0837 -0.0470
 2323TIP3    H228461   0.747   5.375  15.631 -0.9168  0.3862 -0.1006
 2324TIP3   OH228462   1.951   5.549  13.847 -0.5287 -0.4321  0.3806
 2324TIP3    H128463   1.873   5.501  13.872 -1.3000  0.1595 -0.8241
 2324TIP3    H228464   1.945   5.558  13.752  1.2658 -0.8264  0.1950
 2325TIP3   OH228465   2.010   0.751   2.534 -0.3527 -0.3327 -0.3406
 2325TIP3    H128466   1.931   0.799   2.510 -0.3817 -0.1965  0.0070
 2325TIP3    H228467   2.081   0.816   2.528 -0.1621 -0.6137 -1.2700
 2326TIP3   OH228468   3.166   0.492  14.777  0.0132  0.1371  0.1632
 2326TIP3    H128469   3.081   0.537  14.769 -0.2161 -0.5219 -1.4763
 2326TIP3    H228470   3.178   0.448  14.693  1.1895 -1.2049  0.9814
 2327TIP3   OH228471   0.168   0.215   5.416  0.1936 -0.1041  0.0044
 2327TIP3    H128472   0.113   0.290   5.440  0.9977  0.2311  0.8820
 2327TIP3    H228473   0.106   0.144   5.400 -0.4870 -0.1723  2.4843
 2328TIP3   OH228474   2.157   2.095  14.451  0.4607 -0.2778  0.4651
 2328TIP3    H128475   2.100   2.084  14.376  1.2243 -0.4265 -0.1109
 2328TIP3    H228476   2.162   2.189  14.464  1.2218 -0.1837 -0.3946
 2329TIP3   OH228477   3.537   6.092   1.738  0.1241 -0.6680  0.4643
 2329TIP3    H128478   3.559   6.152   1.809  2.3439 -1.2949  0.3812
 2329TIP3    H228479   3.442   6.081   1.744 -0.3548  2.5691  0.6512
 2330TIP3   OH228480   3.081   3.563  14.773 -0.1098 -0.0117 -0.2687
 2330TIP3    H128481   3.126   3.481  14.794  1.3144  1.2353  1.9045
 2330TIP3    H228482   2.991   3.550  14.802 -0.4009 -1.3908 -1.6467
 2331TIP3   OH228483   5.907   6.314  13.879  0.0544  0.2199 -0.8392
 2331TIP3    H128484   5.858   6.386  13.919  1.1117  0.4318  0.1294
 2331TIP3    H228485   5.998   6.330  13.903  0.1825 -2.2377  0.7374
 2332TIP3   OH228486   0.093   6.220   6.169 -0.4992 -0.8318 -0.2993
 2332TIP3    H128487   0.052   6.155   6.226 -1.0833 -0.8458 -0.7268
 2332TIP3    H228488   0.040   6.298   6.179  1.2818  0.2246  1.6584
 2333TIP3   OH228489   2.932   6.638   4.480  0.5574  0.5065  0.2706
 2333TIP3    H128490   2.905   6.553   4.514  0.6512  0.5489  0.4490
 2333TIP3    H228491   2.969   6.684   4.555  1.4017  0.3427 -0.0356
 2334TIP3   OH228492   6.039   4.340   3.623  0.4698  0.1124 -0.4862
 2334TIP3    H128493   6.126   4.378   3.614  0.3314  0.1902 -1.7567
 2334TIP3    H228494   6.015   4.316   3.533 -0.2874 -1.0848  0.0137
 2335TIP3   OH228495   6.743   5.404  14.503 -0.4250  0.3783  0.3017
 2335TIP3    H128496   6.665   5.404  14.447 -0.3079  1.1776  0.1240
 2335TIP3    H228497   6.751   5.494  14.533  0.8100  0.4646 -0.2195
 2336TIP3   OH228498   3.351   0.819   4.326  0.3153 -0.0536 -0.6413
 2336TIP3    H128499   3.418   0.870   4.372 -0.3745 -0.5790  0.9900
 2336TIP3    H228500   3.396   0.738   4.302  0.7954  0.3946 -1.3159
 2337TIP3   OH228501   1.914   1.685  16.268  0.2189 -0.4764 -0.0918
 2337TIP3    H128502   1.827   1.706  16.303 -0.2349 -0.3729 -1.2431
 2337TIP3    H228503   1.973   1.701  16.341 -0.5499  1.0853  0.2376
 2338TIP3   OH228504   6.265   3.536  17.099 -0.1750  0.1578 -0.5537
 2338TIP3    H128505   6.306   3.479  17.034 -0.2124 -2.9502  1.9039
 2338TIP3    H228506   6.337   3.564  17.155 -0.6376 -1.0410  0.7058
 2339TIP3   OH228507   5.350   0.741   5.668 -0.0856  0.2499 -0.4777
 2339TIP3    H128508   5.352   0.676   5.599 -1.0484  0.7206 -0.9753
 2339TIP3    H228509   5.264   0.782   5.659 -1.2657 -1.2826  2.4815
 2340TIP3   OH228510   6.123   2.063   1.224 -0.0496  0.0771 -0.3606
 2340TIP3    H128511   6.089   1.984   1.183  2.0358 -2.4725  2.3208
 2340TIP3    H228512   6.081   2.066   1.311  0.8722  1.1781  0.0838
 2341TIP3   OH228513   0.135   1.169  13.677  0.5353 -0.1675  0.7507
 2341TIP3    H128514   0.046   1.133  13.680 -0.1512  0.8722 -2.5385
 2341TIP3    H228515   0.136   1.237  13.743 -0.8776 -0.6708  1.3340
 2342TIP3   OH228516   3.701   1.427  10.767  0.1130 -0.8260 -0.5288
 2342TIP3    H128517   3.715   1.498  10.830  0.5468 -1.1154 -0.2873
 2342TIP3    H228518   3.630   1.458  10.711  0.7931  0.1091 -0.8989
 2343TIP3   OH228519   1.640   0.392   4.691  0.4561 -0.2088 -0.1890
 2343TIP3    H128520   1.687   0.345   4.623  1.4638 -1.4966  1.3107
 2343TIP3    H228521   1.709   0.434   4.743 -0.1119 -0.8735  1.1617
 2344TIP3   OH228522   4.259   3.408   2.512  0.3234 -0.1093  0.3461
 2344TIP3    H128523   4.171   3.441   2.496  0.2409 -0.3298  0.3487
 2344TIP3    H228524   4.310   3.486   2.536  0.7518  0.4567 -2.1483
 2345TIP3   OH228525   6.062   1.944   4.388 -0.2921  0.2753 -0.3113
 2345TIP3    H128526   6.080   1.966   4.297 -0.0561  2.2065  0.1533
 2345TIP3    H228527   5.967   1.938   4.394 -0.2671 -0.9156 -0.8811
 2346TIP3   OH228528   4.629   2.268  12.195  0.0190 -0.2283  0.0111
 2346TIP3    H128529   4.665   2.356  12.185 -0.8903  0.2331  0.6415
 2346TIP3    H228530   4.610   2.240  12.105  0.9723 -0.0767 -0.2477
 2347TIP3   OH228531   6.576   6.385  13.645  0.1901 -0.0780 -0.3201
 2347TIP3    H128532   6.651   6.420  13.597  1.5360  0.2133  1.8693
 2347TIP3    H228533   6.613   6.322  13.706 -1.2941  0.2770  1.0269
 2348TIP3   OH228534   5.670   6.114   5.352  0.5862  0.0991 -0.1048
 2348TIP3    H128535   5.728   6.083   5.421 -0.2831  0.8086  0.9782
 2348TIP3    H228536   5.586   6.127   5.395 -0.2680 -0.4398 -1.5258
 2349TIP3   OH228537   6.635   2.370  11.415  0.4303  0.4420  0.0303
 2349TIP3    H128538   6.698   2.322  11.361  1.5625  1.2730  0.5730
 2349TIP3    H228539   6.672   2.457  11.423 -1.6030  1.4640 -0.9736
 2350TIP3   OH228540   2.246   5.730  16.513 -0.1725  0.1364  1.0172
 2350TIP3    H128541   2.209   5.675  16.443  0.1209  0.8759  0.2647
 2350TIP3    H228542   2.324   5.683  16.541 -0.5294 -0.3839  1.1604
 2351TIP3   OH228543   0.687   6.450   4.694 -0.6283 -0.0453  0.2228
 2351TIP3    H128544   0.707   6.391   4.621 -0.0572  1.3619 -0.8123
 2351TIP3    H228545   0.757   6.516   4.692  0.3307 -0.8294  3.0857
 2352TIP3   OH228546   4.978   6.552  12.972 -0.0996 -0.5208  0.0969
 2352TIP3    H128547   4.976   6.551  13.068  0.1203 -1.7348  0.1053
 2352TIP3    H228548   4.988   6.645  12.949  3.2597 -0.4206  1.3482
 2353TIP3   OH228549   2.636   1.366   1.412  0.0446 -0.0646 -0.3904
 2353TIP3    H128550   2.552   1.370   1.456 -0.0637  0.2600 -0.6180
 2353TIP3    H228551   2.624   1.418   1.332  0.3413 -0.3409 -0.6206
 2354TIP3   OH228552   0.452   6.411   5.537  0.7330  0.8649  0.2517
 2354TIP3    H128553   0.412   6.430   5.621  2.1090  1.0275  0.9033
 2354TIP3    H228554   0.435   6.489   5.483  1.2924  1.4848  0.9527
 2355TIP3   OH228555   5.567   1.725  10.705  0.7066 -0.6147 -0.5094
 2355TIP3    H128556   5.526   1.803  10.741  0.4890 -1.5890  1.5022
 2355TIP3    H228557   5.498   1.682  10.654  1.6143  1.9347 -4.3445
 2356TIP3   OH228558   6.100   3.080   6.439  0.1918  0.2637  0.3425
 2356TIP3    H128559   6.191   3.052   6.444  0.5043  1.1603 -0.1628
 2356TIP3    H228560   6.055   3.010   6.393  0.3733 -0.7515  1.6635
 2357TIP3   OH228561   6.612   3.375  17.007 -0.4394  0.2191 -0.1884
 2357TIP3    H128562   6.565   3.322  16.942  3.5758 -0.4896 -2.8684
 2357TIP3    H228563   6.624   3.460  16.964  1.9132 -0.1171 -0.3135
 2358TIP3   OH228564   4.654   0.534   5.556  0.0592  0.1522 -1.1452
 2358TIP3    H128565   4.641   0.508   5.465 -1.4157  0.9580 -1.1936
 2358TIP3    H228566   4.704   0.615   5.550  2.2225 -1.1058 -1.0975
 2359TIP3   OH228567   1.714   4.331   4.704 -0.2321  0.2362 -0.6181
 2359TIP3    H128568   1.759   4.414   4.690  0.0562  0.1116 -0.4368
 2359TIP3    H228569   1.713   4.290   4.618  0.7308 -0.1243 -0.4683
 2360TIP3   OH228570   1.918   0.586   2.761  0.1861 -0.9818  0.4169
 2360TIP3    H128571   1.930   0.653   2.694 -1.5098  0.1305  1.1588
 2360TIP3    H228572   1.871   0.631   2.832 -0.0567 -2.6900  1.3897
 2361TIP3   OH228573   5.769   4.238  10.490  0.0423  0.2413 -0.2923
 2361TIP3    H128574   5.676   4.226  10.507  0.6244 -0.4846  3.4609
 2361TIP3    H228575   5.780   4.333  10.482 -1.1465  0.2491 -2.5229
 2362TIP3   OH228576   3.206   4.622   1.252  0.2019  0.2572  0.0697
 2362TIP3    H128577   3.218   4.618   1.157 -3.9632  3.1539 -0.9168
 2362TIP3    H228578   3.273   4.683   1.282  0.6329  0.5215 -1.3359
 2363TIP3   OH228579   5.244   5.911  13.014 -0.0262 -0.2384 -0.1668
 2363TIP3    H128580   5.322   5.923  12.960  0.3829 -0.7096  0.3130
 2363TIP3    H228581   5.203   5.832  12.979  0.2934 -0.6011  0.2719
 2364TIP3   OH228582   1.192   0.744   5.588  0.0610 -0.3024  0.6284
 2364TIP3    H128583   1.243   0.664   5.573 -0.4446 -0.1406 -2.7102
 2364TIP3    H228584   1.101   0.714   5.588 -0.2049  0.2919 -1.7934
 2365TIP3   OH228585   4.275   1.088   4.537  0.0036 -0.0323 -0.4062
 2365TIP3    H128586   4.360   1.121   4.510  0.0539  0.1747  0.0084
 2365TIP3    H228587   4.220   1.166   4.546  0.0476 -0.0750  0.2976
 2366TIP3   OH228588   1.534   1.197  15.515 -0.2140 -0.1165  0.0276
 2366TIP3    H128589   1.525   1.146  15.596  0.9422  1.4071  1.1981
 2366TIP3    H228590   1.445   1.228  15.497 -0.0501  2.6246  2.9619
 2367TIP3   OH228591   4.235   3.403  12.101  0.0545  0.1999 -0.4234
 2367TIP3    H128592   4.234   3.452  12.019  1.0283 -0.6847 -1.0014
 2367TIP3    H228593   4.294   3.329  12.084 -0.2618 -0.3870  0.8565
 2368TIP3   OH228594   6.329   0.829   2.173  0.2772  0.0217  0.4719
 2368TIP3    H128595   6.386   0.751   2.172  0.0196 -0.1672 -0.7870
 2368TIP3    H228596   6.387   0.900   2.203  0.0135 -0.9597  3.7733
 2369TIP3   OH228597   3.870   2.858   5.507  0.1092 -0.5473 -0.2007
 2369TIP3    H128598   3.848   2.825   5.420  2.1593 -0.9188 -0.6297
 2369TIP3    H228599   3.851   2.952   5.502 -1.8902 -0.9091 -0.2808
 2370TIP3   OH228600   5.784   0.155  14.051 -0.7376 -1.0085  0.2543
 2370TIP3    H128601   5.700   0.146  14.006 -0.5246 -0.7800 -0.1935
 2370TIP3    H228602   5.821   0.067  14.050 -1.5117 -1.3787  1.5433
 2371TIP3   OH228603   3.060   0.379   2.479 -0.6914  0.0609  0.4170
 2371TIP3    H128604   3.042   0.396   2.386  0.7038 -1.2356 -0.1488
 2371TIP3    H228605   3.139   0.324   2.477 -0.8388 -0.2595  2.3660
 2372TIP3   OH228606   6.055   0.603   0.291  0.1950  0.1907 -0.3505
 2372TIP3    H128607   5.992   0.618   0.361  0.1044  1.2827 -0.6379
 2372TIP3    H228608   6.140   0.607   0.334  0.1155  0.0789 -0.1813
 2373TIP3   OH228609   2.205   4.684   6.962 -0.3601 -0.0771  0.0565
 2373TIP3    H128610   2.149   4.730   6.900 -0.6703 -0.2595  0.1969
 2373TIP3    H228611   2.279   4.743   6.977 -0.9924  0.6024  0.6200
 2374TIP3   OH228612   2.224   6.630   6.096 -0.5470 -0.2446 -0.1614
 2374TIP3    H128613   2.298   6.687   6.073 -0.7090  0.8686  1.8552
 2374TIP3    H228614   2.148   6.674   6.057 -0.6161  0.7279  1.0296
 2375TIP3   OH228615   0.742   2.515   1.095  0.0971  0.3327 -0.0347
 2375TIP3    H128616   0.759   2.551   1.182 -0.7465 -0.7621  0.6070
 2375TIP3    H228617   0.660   2.557   1.067 -0.8946 -1.0357  0.7198
 2376TIP3   OH228618   6.739   2.407   4.397  0.5994  0.0070  0.1747
 2376TIP3    H128619   6.797   2.482   4.405  0.7863 -0.2974  2.3490
 2376TIP3    H228620   6.676   2.418   4.469 -0.5255 -0.9522 -0.6214
 2377TIP3   OH228621   0.177   3.751   3.201  0.1503  0.2839  0.1538
 2377TIP3    H128622   0.244   3.809   3.239  0.6045 -0.4278  0.4697
 2377TIP3    H228623   0.227   3.687   3.150 -0.3280  0.0459 -0.0172
 2378TIP3   OH228624   1.445   1.968   0.581 -0.0172 -0.1798 -0.0292
 2378TIP3    H128625   1.382   1.956   0.652  0.9296  0.2326  0.9066
 2378TIP3    H228626   1.502   2.039   0.611  0.0734  0.3746 -1.4530
 2379TIP3   OH228627   1.506   2.502  15.957  0.9855  0.4373 -0.1185
 2379TIP3    H128628   1.588   2.456  15.973  0.8777  0.4039  0.3366
 2379TIP3    H228629   1.523   2.555  15.879  1.5074  0.5943  0.0993
 2380TIP3   OH228630   3.649   0.657   5.186  0.3264 -0.4592  0.0362
 2380TIP3    H128631   3.671   0.720   5.118  0.2836  0.2560  0.6713
 2380TIP3    H228632   3.723   0.596   5.186 -0.0460 -0.9297 -1.1754
 2381TIP3   OH228633   0.380   5.553   0.127 -0.3922 -0.6477  0.3331
 2381TIP3    H128634   0.380   5.648   0.144 -0.1984 -0.4972 -0.4761
 2381TIP3    H228635   0.291   5.526   0.146 -0.9263  0.0215 -1.1193
 2382TIP3   OH228636   0.507   3.823  10.620  0.1629  0.0655 -0.0443
 2382TIP3    H128637   0.496   3.753  10.685  2.1174 -0.0407  0.2344
 2382TIP3    H228638   0.545   3.896  10.669 -1.3315  1.1661 -0.4496
 2383TIP3   OH228639   2.951   0.793  14.571  0.3549 -0.3682 -0.5444
 2383TIP3    H128640   2.889   0.787  14.498  1.5747  2.3067 -1.9822
 2383TIP3    H228641   3.005   0.714  14.564 -0.4575 -0.8484 -1.6405
 2384TIP3   OH228642   4.124   2.434   3.620  0.1309 -0.3048 -0.3803
 2384TIP3    H128643   4.171   2.393   3.548 -1.1052 -2.7762  0.1271
 2384TIP3    H228644   4.169   2.403   3.699  0.0354  0.5017  0.0040
 2385TIP3   OH228645   3.503   4.556  13.180  0.3734 -0.7378  0.3373
 2385TIP3    H128646   3.566   4.547  13.109  1.9865 -1.6315  1.8077
 2385TIP3    H228647   3.553   4.536  13.259 -1.5354 -0.5210  1.6660
 2386TIP3   OH228648   2.204   5.101   5.468 -0.1719 -0.1324  0.6766
 2386TIP3    H128649   2.238   5.167   5.407 -0.5948 -0.6743 -0.1624
 2386TIP3    H228650   2.127   5.066   5.425  0.4907 -1.7383  0.7233
 2387TIP3   OH228651   3.140   0.994  15.988  0.1831 -0.0687 -0.5351
 2387TIP3    H128652   3.112   1.014  15.899 -0.2477  0.2504 -0.3315
 2387TIP3    H228653   3.225   0.951  15.977  0.4445  0.5703 -1.0581
 2388TIP3   OH228654   4.521   0.803  16.200  0.8452  0.1733 -0.5159
 2388TIP3    H128655   4.530   0.749  16.121  1.4956  0.3137 -0.5422
 2388TIP3    H228656   4.463   0.752  16.257  0.8559 -0.2094 -0.8392
 2389TIP3   OH228657   1.615   4.331   5.442  0.1525  0.0995 -0.3159
 2389TIP3    H128658   1.565   4.333   5.361 -0.0918  0.7080 -0.1542
 2389TIP3    H228659   1.698   4.372   5.420  0.7236 -1.1825 -0.6628
 2390TIP3   OH228660   2.445   2.732  11.507 -0.5246 -0.5969 -0.4270
 2390TIP3    H128661   2.435   2.643  11.475 -3.6870 -1.7545  3.0472
 2390TIP3    H228662   2.503   2.725  11.583 -2.7106 -0.3426  1.4026
 2391TIP3   OH228663   5.011   0.813  15.348  0.3268 -0.4186  0.0155
 2391TIP3    H128664   4.952   0.747  15.312 -0.2971 -1.0675  2.0535
 2391TIP3    H228665   5.077   0.763  15.397  1.8508  0.3547 -1.1604
 2392TIP3   OH228666   5.500   6.755  16.386 -0.2303  0.1256  0.1073
 2392TIP3    H128667   5.573   6.735  16.327 -1.6558 -0.5800 -1.5000
 2392TIP3    H228668   5.477   6.846  16.366 -0.1155  0.1887  0.2591
 2393TIP3   OH228669   2.762   2.104  16.528 -0.1652 -0.4704 -0.7051
 2393TIP3    H128670   2.715   2.097  16.445 -0.9759  0.9547 -0.3822
 2393TIP3    H228671   2.830   2.169  16.511 -0.2863 -0.2308 -0.2611
 2394TIP3   OH228672   3.899   4.616  12.187  0.2742  0.1789 -0.1633
 2394TIP3    H128673   3.933   4.660  12.109  3.0100 -0.2648  0.6658
 2394TIP3    H228674   3.849   4.683  12.233  1.0180  1.2800 -0.9159
 2395TIP3   OH228675   5.586   3.326   4.951  0.1725 -0.0042  0.5623
 2395TIP3    H128676   5.638   3.379   4.891 -1.2581 -1.2385 -1.9541
 2395TIP3    H228677   5.496   3.338   4.921 -0.3019 -2.8681  0.5761
 2396TIP3   OH228678   0.434   3.620   5.966  0.4962 -0.2215  0.3109
 2396TIP3    H128679   0.506   3.661   6.014 -0.1022  1.6886 -0.3631
 2396TIP3    H228680   0.453   3.638   5.874 -0.6439 -0.0335  0.1044
 2397TIP3   OH228681   5.221   4.778  14.726 -0.2413  0.3939  0.4790
 2397TIP3    H128682   5.173   4.718  14.782  0.9764 -0.4265  0.6910
 2397TIP3    H228683   5.239   4.854  14.783  0.3504 -0.1151  0.9852
 2398TIP3   OH228684   0.098   4.005  12.455 -0.1588 -0.2512  0.4398
 2398TIP3    H128685   0.188   4.034  12.439 -0.5647  1.1535  0.5543
 2398TIP3    H228686   0.107   3.919  12.496  1.2066  0.5481  1.9204
 2399TIP3   OH228687   3.519   0.889  16.696  0.0559  0.6007 -0.1816
 2399TIP3    H128688   3.535   0.808  16.746  0.8311  0.9312  0.1174
 2399TIP3    H228689   3.602   0.907  16.652 -1.2723 -1.1040 -3.7670
 2400TIP3   OH228690   6.489   1.005  13.668 -0.3971 -0.1912  0.5912
 2400TIP3    H128691   6.475   1.082  13.613  1.1201  0.6132  1.2570
 2400TIP3    H228692   6.568   1.026  13.719  0.2929 -2.3388  0.5185
 2401TIP3   OH228693   6.368   4.469  12.523 -0.9417  0.4676  0.3382
 2401TIP3    H128694   6.316   4.521  12.462 -0.8905 -0.1145 -0.2007
 2401TIP3    H228695   6.377   4.384  12.481 -1.6020 -0.2076  1.5190
 2402TIP3   OH228696   2.588   2.372  15.907 -0.4276  0.0568 -0.1312
 2402TIP3    H128697   2.495   2.351  15.900 -0.5344 -0.3267  1.7576
 2402TIP3    H228698   2.591   2.443  15.972  0.6258 -0.4244  0.3770
 2403TIP3   OH228699   2.190   3.758  15.305  0.1399  0.0529 -0.0485
 2403TIP3    H128700   2.126   3.765  15.234 -1.2159  0.4270  1.1768
 2403TIP3    H228701   2.272   3.789  15.265 -0.7921  1.1703 -1.1862
 2404TIP3   OH228702   4.628   1.673   3.132 -0.1355  0.0005  0.0692
 2404TIP3    H128703   4.583   1.749   3.093  0.1811  1.0237  1.6101
 2404TIP3    H228704   4.601   1.599   3.078  3.0673  1.7015 -4.5047
 2405TIP3   OH228705   4.558   5.202  17.098 -0.3189  0.0053  0.2108
 2405TIP3    H128706   4.604   5.173  17.020  0.3768  1.9106 -0.1426
 2405TIP3    H228707   4.501   5.272  17.068  0.5111  1.2998  1.5014
 2406TIP3   OH228708   4.207   4.113   3.778  0.4984  0.2451  0.0746
 2406TIP3    H128709   4.182   4.028   3.742 -0.6912 -0.0846  1.5465
 2406TIP3    H228710   4.171   4.177   3.716  1.0039 -0.3017 -0.8031
 2407TIP3   OH228711   4.912   1.047  16.565 -0.2777  0.2229  0.0557
 2407TIP3    H128712   4.856   0.974  16.591  1.1382 -0.5994  0.9425
 2407TIP3    H228713   4.866   1.125  16.596 -2.4150 -0.1377 -1.9803
 2408TIP3   OH228714   1.265   6.708   1.964 -0.6272 -0.7329  0.1058
 2408TIP3    H128715   1.174   6.682   1.948 -0.4813 -0.3840 -1.4452
 2408TIP3    H228716   1.259   6.773   2.034 -1.5003 -1.1336  0.4242
 2409TIP3   OH228717   5.302   1.485  12.214 -0.0628 -0.6194 -0.0365
 2409TIP3    H128718   5.337   1.574  12.214 -1.1832 -0.1212 -2.1113
 2409TIP3    H228719   5.369   1.433  12.259  1.7832  0.8185 -0.9730
 2410TIP3   OH228720   3.148   1.708   1.883  0.0892 -0.1626 -0.1757
 2410TIP3    H128721   3.148   1.680   1.792 -0.2314 -0.6453 -0.0308
 2410TIP3    H228722   3.060   1.742   1.899  0.7090  1.7461 -0.5798
 2411TIP3   OH228723   2.675   2.517  13.966  0.0353 -0.2499 -0.1574
 2411TIP3    H128724   2.610   2.503  13.897  0.3150  0.8360 -0.6486
 2411TIP3    H228725   2.622   2.535  14.044 -0.3159 -2.6350  0.2247
 2412TIP3   OH228726   6.445   0.450  13.002  0.2787 -0.1996  0.1540
 2412TIP3    H128727   6.471   0.540  12.981  1.3072 -0.3047  0.8637
 2412TIP3    H228728   6.517   0.417  13.056 -0.5452 -1.1360  0.7039
 2413TIP3   OH228729   1.788   1.394  14.965  0.1529 -0.0194 -0.4355
 2413TIP3    H128730   1.744   1.387  14.880 -0.6992 -1.8338  0.0965
 2413TIP3    H228731   1.734   1.342  15.024  0.5486  1.4546  1.3248
 2414TIP3   OH228732   1.592   1.834  13.001 -0.1164 -0.1419 -0.0508
 2414TIP3    H128733   1.559   1.846  12.912  0.8202 -2.6089 -0.8278
 2414TIP3    H228734   1.688   1.838  12.992 -0.0207  0.3074  0.9901
 2415TIP3   OH228735   3.586   0.403  10.866  0.2980 -0.0534  0.6131
 2415TIP3    H128736   3.625   0.394  10.779  3.7385 -0.7194  2.0507
 2415TIP3    H228737   3.589   0.497  10.884  3.9278 -0.2076  1.6137
 2416TIP3   OH228738   1.578   6.273  15.989  0.1546  0.2708  0.1980
 2416TIP3    H128739   1.630   6.216  15.932  0.6334  0.8773  0.0137
 2416TIP3    H228740   1.512   6.215  16.028  1.0929 -0.5508  0.5957
 2417TIP3   OH228741   4.958   1.451   1.431  0.7195  0.0676 -0.2672
 2417TIP3    H128742   4.955   1.495   1.515  1.6546  0.0513 -0.2104
 2417TIP3    H228743   4.989   1.519   1.370  0.3633 -0.0099 -0.5394
 2418TIP3   OH228744   4.989   4.878   1.342  0.4477  0.1763  0.1266
 2418TIP3    H128745   5.019   4.963   1.373 -0.3507  1.0003 -1.2754
 2418TIP3    H228746   4.915   4.856   1.399  0.3263  0.6730  0.1650
 2419TIP3   OH228747   0.501   1.411  16.922  0.1439  0.5843  0.4172
 2419TIP3    H128748   0.499   1.356  16.843  0.5836  1.0903  0.0457
 2419TIP3    H228749   0.566   1.369  16.979 -0.6252 -0.1376  0.7877
 2420TIP3   OH228750   6.043   5.362   5.118  0.0515  0.5159 -0.2132
 2420TIP3    H128751   6.102   5.383   5.045  1.4921 -1.2997  0.3500
 2420TIP3    H228752   6.092   5.299   5.171 -1.8046  0.1624  1.1780
 2421TIP3   OH228753   5.306   4.666   5.067  0.0325  0.3906 -0.4559
 2421TIP3    H128754   5.295   4.662   5.161  0.9597 -0.2621 -0.3611
 2421TIP3    H228755   5.370   4.736   5.054  0.2608  0.1642 -0.5612
 2422TIP3   OH228756   1.651   5.935   4.770  0.6108 -0.1240 -0.5299
 2422TIP3    H128757   1.671   5.882   4.847 -0.1053 -0.8387 -0.8222
 2422TIP3    H228758   1.559   5.915   4.750 -1.3547  4.5520  2.0756
 2423TIP3   OH228759   6.750   1.910  16.690 -0.6416  0.6312 -0.3988
 2423TIP3    H128760   6.825   1.968  16.699  0.0843 -0.1232 -1.3448
 2423TIP3    H228761   6.676   1.961  16.721  0.4827  0.8056  2.2542
 2424TIP3   OH228762   6.242   2.678  15.068  0.0224  0.1030 -0.0844
 2424TIP3    H128763   6.327   2.635  15.057  1.7116  3.6399 -2.7361
 2424TIP3    H228764   6.188   2.640  14.999 -0.2221 -1.2908  0.8366
 2425TIP3   OH228765   6.057   2.425  17.023 -0.4788 -0.1163  0.3529
 2425TIP3    H128766   5.994   2.497  17.022 -0.9352 -0.4375  2.1875
 2425TIP3    H228767   6.078   2.413  17.116  3.0490  0.6003 -0.2183
 2426TIP3   OH228768   1.413   2.613   1.023 -0.1783 -0.0345  0.5074
 2426TIP3    H128769   1.405   2.519   1.040 -0.9094 -0.4391 -1.8597
 2426TIP3    H228770   1.323   2.645   1.020  0.0380  0.5743  0.4214
 2427TIP3   OH228771   0.623   3.699  14.075 -0.1667  0.1384  0.3749
 2427TIP3    H128772   0.708   3.734  14.048 -0.0558  1.0868  1.8575
 2427TIP3    H228773   0.645   3.618  14.122 -0.0238  0.5469  1.0383
 2428TIP3   OH228774   5.180   6.280   4.206  0.5168  0.2962  0.2126
 2428TIP3    H128775   5.256   6.302   4.152 -0.5535  1.8878 -0.7417
 2428TIP3    H228776   5.154   6.364   4.245  1.4870 -0.8194  3.6418
 2429TIP3   OH228777   6.137   2.827   4.972  0.4993  0.1426 -0.6047
 2429TIP3    H128778   6.046   2.821   4.943  0.2720  0.7452 -0.0408
 2429TIP3    H228779   6.158   2.921   4.965  0.2348  0.4340  1.7483
 2430TIP3   OH228780   2.351   1.543   5.357 -0.3237 -0.3716  0.3299
 2430TIP3    H128781   2.331   1.588   5.275 -2.8998 -2.1355 -0.1286
 2430TIP3    H228782   2.419   1.480   5.333  2.3622  2.1782  0.6999
 2431TIP3   OH228783   5.999   2.868   6.300  0.2562 -0.2723  0.1786
 2431TIP3    H128784   5.940   2.805   6.259  0.6643 -0.8916  0.5181
 2431TIP3    H228785   6.085   2.826   6.297  0.4842  0.1424  0.6663
 2432TIP3   OH228786   0.345   3.340  15.871 -0.7432  0.3089 -0.3648
 2432TIP3    H128787   0.402   3.327  15.795  1.0219  0.0571  0.9494
 2432TIP3    H228788   0.288   3.413  15.845  0.7559  1.1588 -1.4232
 2433TIP3   OH228789   1.636   3.192  10.956  0.1864  0.8452  0.2214
 2433TIP3    H128790   1.549   3.160  10.980  0.3108  1.0555  0.9812
 2433TIP3    H228791   1.619   3.270  10.903 -0.1059 -0.0711 -1.0788
 2434TIP3   OH228792   6.111   4.215  17.040  0.0911 -0.0132 -0.0451
 2434TIP3    H128793   6.015   4.213  17.032 -0.0631  1.7520  1.0007
 2434TIP3    H228794   6.140   4.135  16.995 -1.7817  0.0570 -1.5040
 2435TIP3   OH228795   2.635   5.931   4.947 -0.2857 -0.1620  0.4467
 2435TIP3    H128796   2.724   5.931   4.983  0.0405 -1.5540 -0.2759
 2435TIP3    H228797   2.644   5.885   4.863 -1.6302 -0.0129  0.2068
 2436TIP3   OH228798   5.093   5.695  12.933 -0.5763  0.4534 -0.5624
 2436TIP3    H128799   5.022   5.691  12.998  1.2770 -1.7421  1.5615
 2436TIP3    H228800   5.093   5.608  12.893  0.7197  0.5102 -0.7220
 2437TIP3   OH228801   4.122   4.324   3.954 -0.6276 -0.3654 -0.2350
 2437TIP3    H128802   4.078   4.267   3.891 -1.8521  0.5149 -0.2058
 2437TIP3    H228803   4.210   4.286   3.964 -1.1817 -1.8222 -0.7324
 2438TIP3   OH228804   5.271   0.265  15.255 -0.2589  0.1684 -0.3568
 2438TIP3    H128805   5.345   0.224  15.210 -0.2226  0.0829 -0.2190
 2438TIP3    H228806   5.310   0.327  15.316 -0.3252  0.6072 -0.7607
 2439TIP3   OH228807   5.643   3.152   4.568  0.6174 -0.7738 -0.1864
 2439TIP3    H128808   5.659   3.099   4.490 -0.3822 -1.0485 -0.2201
 2439TIP3    H228809   5.548   3.151   4.579  0.6549  0.1872  0.3961
 2440TIP3   OH228810   1.401   2.949   1.070 -0.2886  0.7803  0.3407
 2440TIP3    H128811   1.349   2.946   1.151  0.5264 -0.9641  0.8486
 2440TIP3    H228812   1.345   2.908   1.004 -0.7424  1.7191  0.1230
 2441TIP3   OH228813   4.876   3.110   3.119 -0.0967 -0.5783  0.7006
 2441TIP3    H128814   4.856   3.019   3.140 -1.8453 -0.0094  1.7121
 2441TIP3    H228815   4.814   3.161   3.171  0.2849  1.1727 -0.4603
 2442TIP3   OH228816   5.242   2.298  12.053 -0.7628  0.3355 -0.4822
 2442TIP3    H128817   5.179   2.299  11.981 -0.7596 -0.0144 -0.4907
 2442TIP3    H228818   5.198   2.343  12.125 -1.8131 -1.6621  0.1849
 2443TIP3   OH228819   4.211   2.660   5.418 -0.3736 -0.6257 -0.2072
 2443TIP3    H128820   4.238   2.699   5.334 -0.2670 -0.7513 -0.2323
 2443TIP3    H228821   4.124   2.625   5.401 -0.3114 -0.7400 -0.2953
 2444TIP3   OH228822   4.739   0.960   1.497 -0.1742  0.1069  0.3003
 2444TIP3    H128823   4.655   0.935   1.459 -0.8078  2.7287 -0.2237
 2444TIP3    H228824   4.758   1.046   1.458  1.1928  1.0230  2.7805
 2445TIP3   OH228825   1.764   4.989  16.622 -0.0134 -0.3469 -0.4372
 2445TIP3    H128826   1.683   4.939  16.631 -0.8211  0.8439 -0.8019
 2445TIP3    H228827   1.814   4.943  16.555 -0.4454 -1.0215 -0.3029
 2446TIP3   OH228828   3.702   5.047   3.542 -0.3539 -0.2968 -0.6815
 2446TIP3    H128829   3.680   5.070   3.632  1.2146  0.2257 -0.4117
 2446TIP3    H228830   3.725   4.954   3.546 -1.5500 -0.6141 -0.8039
 2447TIP3   OH228831   5.781   3.341   5.985 -0.8297 -0.3531 -0.3084
 2447TIP3    H128832   5.719   3.275   6.016 -3.3608  1.6064 -0.8162
 2447TIP3    H228833   5.809   3.387   6.064 -0.7532 -0.6253 -0.1731
 2448TIP3   OH228834   2.522   5.053   3.954 -0.3162 -0.4131  0.2803
 2448TIP3    H128835   2.550   5.019   3.869  0.7274 -2.9454  1.5170
 2448TIP3    H228836   2.531   5.148   3.947  1.0079 -0.6453 -2.0048
 2449TIP3   OH228837   2.498   1.004   1.479 -0.0850 -0.1039  0.6619
 2449TIP3    H128838   2.582   1.020   1.520 -0.9009  0.9265  2.0198
 2449TIP3    H228839   2.457   0.935   1.532  0.2930 -1.3622 -0.6143
 2450TIP3   OH228840   6.685   2.800  14.238  0.1952  0.2319 -0.0226
 2450TIP3    H128841   6.745   2.779  14.310  1.5988  2.2013 -0.5044
 2450TIP3    H228842   6.656   2.889  14.257 -2.0303 -0.3844 -0.2414
 2451TIP3   OH228843   1.282   1.101  14.255 -0.4440 -0.4666  0.6536
 2451TIP3    H128844   1.375   1.084  14.266 -0.3648  0.9339  2.7212
 2451TIP3    H228845   1.241   1.015  14.260  0.7416 -1.1133 -0.4878
 2452TIP3   OH228846   4.184   0.490   0.991 -0.1940  0.7372  0.0841
 2452TIP3    H128847   4.204   0.407   1.034  0.5837  1.0424  0.3316
 2452TIP3    H228848   4.089   0.488   0.977 -0.2819  0.1090  0.7158
 2453TIP3   OH228849   5.789   4.012   4.780 -0.5819 -0.2034  0.0068
 2453TIP3    H128850   5.720   4.043   4.721  0.4754  1.4146 -0.4441
 2453TIP3    H228851   5.803   4.084   4.841 -0.8335 -1.4049  1.5222
 2454TIP3   OH228852   0.881   4.477   0.340  0.4546 -0.5903 -0.4699
 2454TIP3    H128853   0.894   4.528   0.420  0.7221 -1.2373 -0.0889
 2454TIP3    H228854   0.821   4.407   0.366 -0.1108 -0.3283 -1.0498
 2455TIP3   OH228855   6.676   0.141   3.029 -0.5452  0.1865 -0.1586
 2455TIP3    H128856   6.763   0.156   2.992 -0.6626  2.3838  0.3102
 2455TIP3    H228857   6.660   0.048   3.014  1.6489 -0.1754 -0.7335
 2456TIP3   OH228858   1.597   3.183   5.192 -0.5449  0.9549 -0.5409
 2456TIP3    H128859   1.667   3.130   5.231 -0.7369  0.2231 -1.1822
 2456TIP3    H228860   1.639   3.267   5.174  0.6054  0.0837 -2.2351
 2457TIP3   OH228861   6.518   3.872  15.009  0.0576  0.0923 -0.4697
 2457TIP3    H128862   6.458   3.944  14.992 -0.4118 -0.5639 -1.7500
 2457TIP3    H228863   6.474   3.820  15.077 -0.5775 -0.0857 -1.0058
 2458TIP3   OH228864   3.188   3.061   4.895 -0.8719  0.1045 -0.9993
 2458TIP3    H128865   3.238   2.989   4.858 -1.2334 -0.3470 -0.6200
 2458TIP3    H228866   3.136   3.021   4.964 -1.0475  0.7374 -0.7594
 2459TIP3   OH228867   6.045   4.873  14.694  0.0069 -0.4748 -0.2559
 2459TIP3    H128868   6.098   4.940  14.739 -0.4928 -0.5737  0.5016
 2459TIP3    H228869   6.082   4.869  14.606  0.8547 -0.0924  0.0645
 2460TIP3   OH228870   4.893   4.740  12.967  0.4698  0.0896  0.2203
 2460TIP3    H128871   4.829   4.810  12.980  0.0177 -0.1755 -0.5616
 2460TIP3    H228872   4.897   4.696  13.052 -0.5215 -0.0042  0.2359
 2461TIP3   OH228873   1.806   1.940   3.357  0.3998 -0.0579  0.0581
 2461TIP3    H128874   1.720   1.915   3.324  0.6030 -0.7126  0.0173
 2461TIP3    H228875   1.855   1.966   3.279  0.1765  0.5268  0.1053
 2462TIP3   OH228876   0.835   5.564  14.229  0.5447  0.3436  0.0395
 2462TIP3    H128877   0.802   5.482  14.192 -0.7536  0.7967  0.1695
 2462TIP3    H228878   0.813   5.631  14.164 -0.4352  0.9173  0.9339
 2463TIP3   OH228879   5.903   2.922   2.396  0.3221  0.1928  0.1936
 2463TIP3    H128880   5.946   2.884   2.319 -0.2207 -1.0492  0.4706
 2463TIP3    H228881   5.836   2.858   2.420 -1.8861  2.1865 -0.3587
 2464TIP3   OH228882   1.158   6.526   4.439 -0.6888 -0.2753  0.2214
 2464TIP3    H128883   1.097   6.498   4.371 -1.0646 -1.1166  0.8838
 2464TIP3    H228884   1.173   6.619   4.421 -0.9466 -0.4244 -0.8709
 2465TIP3   OH228885   6.124   3.193  16.005  0.5529  0.3269  0.2861
 2465TIP3    H128886   6.104   3.115  16.058  2.3201  0.7225  1.6270
 2465TIP3    H228887   6.217   3.186  15.986  0.6567  1.9130  0.0941
 2466TIP3   OH228888   2.892   5.497  12.335 -0.3184  0.1149 -0.0876
 2466TIP3    H128889   2.847   5.510  12.252 -1.6679  2.8280  0.9413
 2466TIP3    H228890   2.980   5.531  12.321 -0.1007 -0.7143 -0.7699
 2467TIP3   OH228891   4.080   3.852  15.611  0.6135 -0.6145  0.5476
 2467TIP3    H128892   4.173   3.874  15.609  1.0806 -2.3313  1.7049
 2467TIP3    H228893   4.042   3.914  15.673  0.8032  0.5578 -0.4512
 2468TIP3   OH228894   6.812   4.501  16.506  0.6341 -0.5672 -0.7458
 2468TIP3    H128895   6.866   4.426  16.480  0.0089 -1.1121 -0.4738
 2468TIP3    H228896   6.870   4.553  16.562  0.6311 -1.5632  0.2150
 2469TIP3   OH228897   3.891   5.966  10.528 -0.0907 -0.0138 -0.2621
 2469TIP3    H128898   3.936   5.903  10.473  1.5484  0.4497  0.5011
 2469TIP3    H228899   3.798   5.957  10.504  0.4647 -0.3640 -2.5055
 2470TIP3   OH228900   1.755   1.843  15.687  0.4538 -0.1219  0.0866
 2470TIP3    H128901   1.827   1.904  15.702  0.4386  0.0244 -0.3966
 2470TIP3    H228902   1.700   1.851  15.765 -0.3160  1.5718 -0.5644
 2471TIP3   OH228903   0.815   5.641   1.763  0.3071  0.3115  0.0091
 2471TIP3    H128904   0.782   5.608   1.679  1.5632  1.5195 -1.0221
 2471TIP3    H228905   0.825   5.563   1.818 -1.7293 -0.3665 -0.5104
 2472TIP3   OH228906   2.245   5.005   6.619 -0.3119 -0.2097 -0.0194
 2472TIP3    H128907   2.165   4.977   6.575  0.6839 -3.8923  0.2458
 2472TIP3    H228908   2.315   4.988   6.555  0.4008  2.8307 -0.2063
 2473TIP3   OH228909   2.219   0.681  13.910 -0.3485 -0.7222  0.1698
 2473TIP3    H128910   2.208   0.620  13.837 -1.5148 -0.3589  0.0334
 2473TIP3    H228911   2.311   0.709  13.903 -0.0707 -1.7115 -0.3413
 2474TIP3   OH228912   5.000   3.197  17.007  0.5934 -0.3123 -0.0871
 2474TIP3    H128913   5.071   3.138  17.034  0.1068 -1.3016 -0.8689
 2474TIP3    H228914   4.972   3.162  16.923 -0.7362  0.1392  0.1506
 2475TIP3   OH228915   3.065   6.295  13.196 -0.0023  0.1054 -0.6587
 2475TIP3    H128916   3.065   6.310  13.291  1.5589 -0.2142 -0.5828
 2475TIP3    H228917   3.069   6.200  13.187  2.0697  0.1841 -0.9860
 2476TIP3   OH228918   4.355   5.628  10.589  0.1086  0.1787 -0.5057
 2476TIP3    H128919   4.271   5.588  10.568  0.1674 -0.0104 -0.3884
 2476TIP3    H228920   4.353   5.641  10.684  0.5342 -0.5984 -0.3778
 2477TIP3   OH228921   6.452   5.259  12.161  0.1140 -0.1085 -0.3837
 2477TIP3    H128922   6.507   5.235  12.086 -1.0162 -1.7570 -0.7327
 2477TIP3    H228923   6.364   5.263  12.125 -0.2390  0.7275  0.5421
 2478TIP3   OH228924   3.819   6.303  16.868  0.6612  0.7863  0.2153
 2478TIP3    H128925   3.783   6.241  16.804  2.3930  0.1178 -0.1480
 2478TIP3    H228926   3.766   6.383  16.855 -2.1892 -0.7749  1.2843
 2479TIP3   OH228927   4.431   4.440   1.906  0.3814 -0.0193 -0.4699
 2479TIP3    H128928   4.348   4.429   1.952  0.8889  1.7650  0.9643
 2479TIP3    H228929   4.469   4.352   1.904 -1.0237 -0.6651 -0.1706
 2480TIP3   OH228930   0.076   4.191   1.306  0.4063 -0.1408  0.2592
 2480TIP3    H128931   0.140   4.126   1.333  0.5140 -0.8523 -1.5838
 2480TIP3    H228932   0.109   4.274   1.342  1.8387 -0.6433  0.1355
 2481TIP3   OH228933   3.587   2.757   0.620  0.3698  0.3173 -0.0475
 2481TIP3    H128934   3.659   2.819   0.605  0.6586 -0.1167 -0.5130
 2481TIP3    H228935   3.617   2.676   0.578 -0.3125  0.0751 -0.0739
 2482TIP3   OH228936   4.835   2.567   0.528 -0.3942  0.0912 -0.1935
 2482TIP3    H128937   4.753   2.521   0.544 -0.8022  0.4769 -1.1180
 2482TIP3    H228938   4.896   2.529   0.591 -1.3077 -0.1122  0.5904
 2483TIP3   OH228939   4.111   0.595  15.227 -0.3050  0.7186 -0.6447
 2483TIP3    H128940   4.192   0.646  15.227  0.0226  0.2157 -0.5130
 2483TIP3    H228941   4.045   0.653  15.264  0.4584  0.4304  1.2642
 2484TIP3   OH228942   3.384   5.401  12.542 -0.4104 -0.4440 -0.2003
 2484TIP3    H128943   3.294   5.430  12.529 -0.0602  0.9681  0.4296
 2484TIP3    H228944   3.417   5.386  12.453 -1.2313 -0.8997 -0.4372
 2485TIP3   OH228945   5.735   1.880  15.325  0.5385  0.0492  0.3593
 2485TIP3    H128946   5.816   1.830  15.314  0.3207 -0.0263 -1.2531
 2485TIP3    H228947   5.752   1.963  15.281  0.0781  0.4378  0.9058
 2486TIP3   OH228948   4.069   5.288  12.231  0.1983  0.5922 -0.6170
 2486TIP3    H128949   4.040   5.276  12.140  2.9280 -1.5094 -1.3708
 2486TIP3    H228950   4.035   5.211  12.277  0.7567  0.4472 -0.4432
 2487TIP3   OH228951   4.902   4.629  12.192 -0.1632  0.1579 -0.2771
 2487TIP3    H128952   4.846   4.657  12.264 -0.1668  0.4122 -0.3785
 2487TIP3    H228953   4.889   4.695  12.124 -1.4781 -0.9891 -1.1883
 2488TIP3   OH228954   2.108   1.717   5.737 -0.3262  0.6805  0.0210
 2488TIP3    H128955   2.079   1.739   5.826  0.8156  1.7228  0.1596
 2488TIP3    H228956   2.200   1.695   5.747  0.2241  2.3236 -1.1143
 2489TIP3   OH228957   1.056   4.728   0.879 -0.0772 -0.7124 -0.1244
 2489TIP3    H128958   0.964   4.725   0.853 -0.0679  0.4661 -0.3175
 2489TIP3    H228959   1.087   4.813   0.848  0.7067 -0.5028  1.1912
 2490TIP3   OH228960   0.605   5.014   3.341  0.1008  0.1685  0.0740
 2490TIP3    H128961   0.657   5.041   3.417  1.1256  1.0410 -0.9129
 2490TIP3    H228962   0.568   5.096   3.307 -1.8996 -0.4111  0.6864
 2491TIP3   OH228963   1.805   2.063  12.629 -0.3173 -0.7899  0.2096
 2491TIP3    H128964   1.759   2.138  12.591 -1.0458 -0.8621  0.9078
 2491TIP3    H228965   1.889   2.060  12.583 -0.1423  0.6471  0.3743
 2492TIP3   OH228966   1.356   5.031   1.281  0.5336 -0.5785  0.0784
 2492TIP3    H128967   1.303   5.091   1.229  1.6664 -0.4682 -1.0066
 2492TIP3    H228968   1.299   4.956   1.298 -1.1279  1.0095  1.9797
 2493TIP3   OH228969   1.059   4.538   0.133 -0.0839  0.3412  0.3703
 2493TIP3    H128970   1.127   4.471   0.139 -0.2963  0.1330  0.4724
 2493TIP3    H228971   0.997   4.515   0.202  0.6984  1.6200  1.5470
 2494TIP3   OH228972   2.207   1.076   5.798  0.7257  0.2349 -0.1738
 2494TIP3    H128973   2.210   1.172   5.797  0.2065  0.2496 -0.7072
 2494TIP3    H228974   2.139   1.053   5.735  0.0968 -0.4600  0.7286
 2495TIP3   OH228975   2.440   1.860   3.207  0.1137 -0.1972  0.4704
 2495TIP3    H128976   2.519   1.914   3.199 -0.1016 -0.0977 -1.3449
 2495TIP3    H228977   2.451   1.793   3.141 -1.0227 -0.5920  0.6702
 2496TIP3   OH228978   3.861   1.203  15.442 -0.3513 -0.0347 -0.1591
 2496TIP3    H128979   3.847   1.109  15.451 -2.3196 -0.1240 -2.8183
 2496TIP3    H228980   3.948   1.211  15.402  0.5141 -0.5650  1.5343
 2497TIP3   OH228981   0.018   3.535  16.558 -0.2242 -0.5242  0.1201
 2497TIP3    H128982   0.059   3.511  16.641 -1.8535 -1.2769  0.7474
 2497TIP3    H228983   0.063   3.482  16.492  1.5185  0.5467  0.3860
 2498TIP3   OH228984   3.062   5.655   2.068  0.4028 -0.6222  0.0743
 2498TIP3    H128985   3.053   5.611   2.153 -2.2992 -0.3438  0.0080
 2498TIP3    H228986   3.037   5.589   2.004  2.0777 -0.7143 -0.5260
 2499TIP3   OH228987   1.221   4.009   5.699  0.0194  0.1023  0.2366
 2499TIP3    H128988   1.177   4.044   5.776  1.4422  0.9344  0.7199
 2499TIP3    H228989   1.189   4.062   5.626 -0.9020 -0.3167  0.3218
 2500TIP3   OH228990   3.268   5.888   3.986  0.5974  0.7005  0.1073
 2500TIP3    H128991   3.304   5.809   3.945 -1.6327 -0.4442  0.1832
 2500TIP3    H228992   3.214   5.927   3.918  1.0518  1.7362  0.3310
 2501TIP3   OH228993   2.553   3.536  16.398  0.3201 -0.1504 -0.0466
 2501TIP3    H128994   2.548   3.499  16.311 -0.9839  0.6608 -0.3466
 2501TIP3    H228995   2.601   3.471  16.450 -1.3240 -1.9394 -0.6839
 2502TIP3   OH228996   1.672   0.201   2.973  0.0868 -0.1097 -0.0061
 2502TIP3    H128997   1.640   0.272   2.918  2.5271  2.1148  1.1667
 2502TIP3    H228998   1.618   0.205   3.052  0.7896  1.1383  0.4396
 2503TIP3   OH228999   4.683   2.255  13.272 -0.0607 -0.6727 -0.2785
 2503TIP3    H129000   4.749   2.268  13.340  0.3518  1.9469 -1.0489
 2503TIP3    H229001   4.732   2.262  13.190 -1.1865  0.8950 -0.8613
 2504TIP3   OH229002   1.349   3.346   4.946 -0.0858  0.3349 -0.2751
 2504TIP3    H129003   1.321   3.431   4.980 -1.7768  0.5133 -1.9371
 2504TIP3    H229004   1.275   3.288   4.964  0.5018 -0.4495 -0.3597
 2505TIP3   OH229005   6.565   3.612  16.597  0.1740 -0.2518  0.2188
 2505TIP3    H129006   6.512   3.561  16.536  0.2259  0.6317 -0.5801
 2505TIP3    H229007   6.655   3.588  16.578  0.1736 -0.1934  0.1421
 2506TIP3   OH229008   1.294   6.490   4.730 -0.1095  0.0337 -0.3472
 2506TIP3    H129009   1.331   6.404   4.710  0.5958  0.0920  0.6432
 2506TIP3    H229010   1.264   6.523   4.645  2.7428  0.2796 -1.3738
 2507TIP3   OH229011   0.822   6.211   0.144 -0.1198  0.0938 -0.1412
 2507TIP3    H129012   0.796   6.202   0.236  0.0413  1.6872  0.0836
 2507TIP3    H229013   0.917   6.226   0.147 -0.3921  2.0546 -0.4150
 2508TIP3   OH229014   3.197   5.877  14.735  0.1954 -0.1847  0.5237
 2508TIP3    H129015   3.194   5.967  14.701  0.1656 -0.1879  0.5168
 2508TIP3    H229016   3.241   5.886  14.820  1.8635 -0.4090 -0.2607
 2509TIP3   OH229017   4.507   6.635   0.310  0.1990 -0.5424  0.5341
 2509TIP3    H129018   4.584   6.608   0.260  0.1697 -1.0378  0.7457
 2509TIP3    H229019   4.504   6.574   0.383  0.2667  0.1979  1.1700
 2510TIP3   OH229020   4.974   4.059  11.175  0.1264  0.1721  0.0292
 2510TIP3    H129021   4.969   3.970  11.141 -2.5789  0.2210  0.1384
 2510TIP3    H229022   5.013   4.050  11.262 -0.5618 -0.9703  0.2283
 2511TIP3   OH229023   4.654   1.841   4.495 -0.2279 -0.2431 -0.2477
 2511TIP3    H129024   4.559   1.834   4.499 -0.1491 -0.8526  0.8298
 2511TIP3    H229025   4.682   1.764   4.445 -0.1930 -1.0336  0.9639
 2512TIP3   OH229026   1.072   4.133  11.275  0.0316  0.2523  0.3200
 2512TIP3    H129027   0.988   4.164  11.241 -0.3654  0.9570  1.8301
 2512TIP3    H229028   1.050   4.094  11.360  1.2558  0.7393  0.8875
 2513TIP3   OH229029   5.990   3.584   4.692 -0.0976  0.3964  0.2333
 2513TIP3    H129030   5.924   3.578   4.761 -0.0896 -0.1776  0.1977
 2513TIP3    H229031   6.014   3.493   4.674 -0.0255  0.5437 -0.4564
 2514TIP3   OH229032   0.857   6.609  16.710  0.3911 -0.5658 -0.3043
 2514TIP3    H129033   0.871   6.636  16.801  2.2027 -1.4002 -0.2820
 2514TIP3    H229034   0.858   6.513  16.714  0.7792 -0.6108 -1.2348
 2515TIP3   OH229035   1.845   1.903   0.803  0.5033  0.0029 -0.0092
 2515TIP3    H129036   1.919   1.842   0.810 -0.7474 -1.5010  0.5862
 2515TIP3    H229037   1.882   1.988   0.829  2.2429 -0.4965 -0.6814
 2516TIP3   OH229038   0.017   2.455   3.256  0.3988 -0.0277  0.3187
 2516TIP3    H129039  -0.046   2.390   3.288 -0.0106 -1.0996 -2.3352
 2516TIP3    H229040  -0.027   2.539   3.266 -0.4970 -0.5207  0.6324
 2517TIP3   OH229041   2.090   2.714  15.001  0.5100 -0.6774 -0.1386
 2517TIP3    H129042   2.159   2.684  15.059 -0.1800 -0.9790  0.5433
 2517TIP3    H229043   2.097   2.658  14.924  2.0616  0.3752 -0.7899
 2518TIP3   OH229044   0.003   5.521  10.988 -0.5117  0.3707 -0.7414
 2518TIP3    H129045  -0.037   5.599  10.949 -0.8975  0.1317 -0.8189
 2518TIP3    H229046   0.024   5.548  11.078  0.3182  0.8998 -1.0792
 2519TIP3   OH229047   5.956   6.686   5.549 -0.3795  0.2971  0.4799
 2519TIP3    H129048   5.875   6.672   5.597  0.1359 -0.3993  1.1627
 2519TIP3    H229049   5.987   6.772   5.578 -0.2490  0.0301  1.1363
 2520TIP3   OH229050   4.696   5.580  16.389 -0.0002 -0.1414 -0.8756
 2520TIP3    H129051   4.693   5.546  16.478  0.0143  1.1183 -0.3830
 2520TIP3    H229052   4.729   5.507  16.337  0.3474 -0.7699  0.1990
 2521TIP3   OH229053   3.781   4.252  12.838  1.0433 -0.4935 -0.1399
 2521TIP3    H129054   3.742   4.182  12.890 -0.5173 -0.5273 -1.2754
 2521TIP3    H229055   3.798   4.322  12.901  1.6219 -1.4917  0.8255
 2522TIP3   OH229056   2.882   5.771  13.115  0.8650 -0.3660  0.1338
 2522TIP3    H129057   2.791   5.770  13.087  1.2123  0.0413 -1.0938
 2522TIP3    H229058   2.882   5.819  13.197 -0.1085 -0.9652  0.4967
 2523TIP3   OH229059   6.068   4.979  15.194  0.1725  0.1720 -0.0577
 2523TIP3    H129060   5.998   4.983  15.128  0.6648  0.4744 -0.5679
 2523TIP3    H229061   6.142   4.940  15.147  1.2493  2.4253 -0.3438
 2524TIP3   OH229062   6.658   2.399   1.531  0.4255  0.2578 -0.1512
 2524TIP3    H129063   6.658   2.358   1.444  0.3261 -0.2590  0.0889
 2524TIP3    H229064   6.692   2.487   1.515 -0.7555  0.6063 -0.9068
 2525TIP3   OH229065   5.191   0.831   1.180 -0.4730  0.1489  0.3984
 2525TIP3    H129066   5.191   0.735   1.184 -0.5050  0.1400  0.1972
 2525TIP3    H229067   5.147   0.858   1.261 -0.5777 -0.0076  0.3946
 2526TIP3   OH229068   1.007   5.120   4.542  0.3272  0.1587 -0.0030
 2526TIP3    H129069   0.952   5.124   4.464 -1.3145 -1.7625  0.9561
 2526TIP3    H229070   1.067   5.047   4.526 -0.3654 -0.5826  0.7058
 2527TIP3   OH229071   3.528   3.859   0.838  0.0018  0.3479 -0.1291
 2527TIP3    H129072   3.499   3.929   0.897 -0.1304  2.0525 -2.0963
 2527TIP3    H229073   3.605   3.822   0.879 -1.3444 -0.0638  2.1824
 2528TIP3   OH229074   6.573   5.871  16.757 -0.7171  0.1537  0.1081
 2528TIP3    H129075   6.649   5.830  16.716 -0.5504 -0.8405  1.3597
 2528TIP3    H229076   6.610   5.921  16.830 -1.2922 -0.6737  0.9792
 2529TIP3   OH229077   3.046   6.352  12.800  0.5450  0.6444  0.1533
 2529TIP3    H129078   3.092   6.433  12.824  0.8525  0.3577  0.5470
 2529TIP3    H229079   2.979   6.380  12.738 -0.3204  1.4301  1.3813
 2530TIP3   OH229080   5.779   6.688   0.549 -0.0320  0.2126 -0.5324
 2530TIP3    H129081   5.802   6.666   0.459  3.5130  0.3823  0.1970
 2530TIP3    H229082   5.858   6.728   0.585 -1.5632  0.8163  2.4688
 2531TIP3   OH229083   6.671   3.406   5.448 -0.1356 -0.0868  0.0272
 2531TIP3    H129084   6.690   3.441   5.360 -0.5615 -0.8041 -0.3568
 2531TIP3    H229085   6.745   3.436   5.501 -0.0599  0.6810 -0.4793
 2532TIP3   OH229086   1.843   6.094  16.141  0.6062  0.1657  0.2644
 2532TIP3    H129087   1.827   6.173  16.090 -0.2247  0.0829  0.3882
 2532TIP3    H229088   1.824   6.022  16.080 -0.2420  0.0668  0.6333
 2533TIP3   OH229089   4.650   2.243  10.874  0.5582  0.2581  0.0417
 2533TIP3    H129090   4.666   2.295  10.795 -1.0854 -2.8706 -2.6262
 2533TIP3    H229091   4.554   2.235  10.878  0.7136 -2.6636  0.0948
 2534TIP3   OH229092   0.675   5.291  11.767  0.0851 -0.1467 -0.2932
 2534TIP3    H129093   0.731   5.342  11.710  0.3202 -2.1533 -1.9793
 2534TIP3    H229094   0.587   5.324  11.751  0.5207  2.0403  1.3035
 2535TIP3   OH229095   3.164   1.694   4.894  0.6010 -0.9952 -0.1229
 2535TIP3    H129096   3.259   1.689   4.892  0.5927 -0.9643 -0.8156
 2535TIP3    H229097   3.143   1.726   4.982  1.2762 -0.0407 -0.2918
 2536TIP3   OH229098   2.523   4.977   6.533  0.2271  0.0807  0.1129
 2536TIP3    H129099   2.534   4.941   6.620 -1.8426  1.1272  0.8845
 2536TIP3    H229100   2.571   5.060   6.534  1.8893 -0.8332 -0.4523
 2537TIP3   OH229101   1.375   6.637  14.901  0.2035  0.1456 -0.4465
 2537TIP3    H129102   1.315   6.605  14.968  0.4519 -0.4623 -0.5150
 2537TIP3    H229103   1.418   6.713  14.942 -0.6969  0.6728 -0.4504
 2538TIP3   OH229104   3.380   1.188   1.511  0.3813  0.3470 -0.4538
 2538TIP3    H129105   3.460   1.237   1.491 -0.2200  1.2149 -0.7816
 2538TIP3    H229106   3.309   1.249   1.490 -0.3995 -0.7969 -1.2514
 2539TIP3   OH229107   1.895   4.351   3.323  0.0365 -0.0586 -0.2620
 2539TIP3    H129108   1.903   4.442   3.349 -0.7339  0.4357 -1.6790
 2539TIP3    H229109   1.817   4.320   3.369 -0.4683  0.3924 -0.7928
 2540TIP3   OH229110   6.655   4.293  17.008  0.2690  0.1707 -0.4255
 2540TIP3    H129111   6.699   4.370  16.971 -0.1916 -0.2915 -2.0222
 2540TIP3    H229112   6.569   4.325  17.035  0.6620  0.5457  0.3964
 2541TIP3   OH229113   1.664   6.817   0.856  0.5746 -0.1784 -0.9978
 2541TIP3    H129114   1.673   6.723   0.840  0.6554 -0.2288 -0.6723
 2541TIP3    H229115   1.597   6.823   0.924 -1.0664  0.1282 -2.5714
 2542TIP3   OH229116   0.081   5.698  13.206  0.4570 -0.2194  0.4779
 2542TIP3    H129117   0.016   5.704  13.276 -0.6285  1.5818 -0.5744
 2542TIP3    H229118   0.045   5.634  13.145  0.0614  0.1700  0.2964
 2543TIP3   OH229119   5.333   0.503   5.509 -0.2628  0.4850 -0.0404
 2543TIP3    H129120   5.395   0.495   5.436 -0.6513 -1.0828 -0.2466
 2543TIP3    H229121   5.260   0.447   5.484 -0.1061 -0.6573  1.8472
 2544TIP3   OH229122   6.118   0.260  17.074 -0.0798 -0.2814  0.3606
 2544TIP3    H129123   6.080   0.197  17.013 -0.5566 -1.2242  1.5924
 2544TIP3    H229124   6.147   0.333  17.018 -1.8174 -0.4352 -0.8388
 2545TIP3   OH229125   0.547   2.602   5.123  0.1176  0.0435  0.0337
 2545TIP3    H129126   0.640   2.622   5.133  0.1275  0.1770 -0.3385
 2545TIP3    H229127   0.545   2.509   5.100  0.1709  0.1078 -0.2258
 2546TIP3   OH229128   6.655   5.882  12.560 -0.2004  1.1079  0.1957
 2546TIP3    H129129   6.685   5.899  12.649  1.9236  0.2330 -0.2779
 2546TIP3    H229130   6.605   5.801  12.567 -0.1880  1.1336  0.6266
 2547TIP3   OH229131   1.639   6.507   5.997 -0.2953  0.1442 -0.2870
 2547TIP3    H129132   1.607   6.575   6.056  0.9118 -0.1309  0.7208
 2547TIP3    H229133   1.666   6.436   6.054  2.9812  0.7175 -0.9206
 2548TIP3   OH229134   3.807   3.184  13.028  0.0721  0.1978 -0.0076
 2548TIP3    H129135   3.783   3.128  12.955  0.6516  0.5266 -0.4547
 2548TIP3    H229136   3.736   3.248  13.033 -1.0346 -1.0445  1.0387
 2549TIP3   OH229137   0.206   5.671  16.645  0.6128 -0.6220 -0.7238
 2549TIP3    H129138   0.197   5.577  16.661 -0.5541 -0.1769  1.6264
 2549TIP3    H229139   0.282   5.697  16.698  1.7224 -0.3935 -2.3413
 2550TIP3   OH229140   4.765   6.620  16.389  0.1184 -0.3189 -0.6779
 2550TIP3    H129141   4.707   6.549  16.415 -1.0333  0.4047 -1.1838
 2550TIP3    H229142   4.714   6.671  16.326  1.1730  0.5579 -0.8583
 2551TIP3   OH229143   2.245   3.770  13.267  0.2009  0.3172 -0.5214
 2551TIP3    H129144   2.239   3.674  13.270 -0.8398  0.3261 -1.6149
 2551TIP3    H229145   2.159   3.798  13.235  0.7064  1.5838 -0.8207
 2552TIP3   OH229146   3.410   5.288   0.250  0.4782  0.1690  0.0966
 2552TIP3    H129147   3.392   5.292   0.156 -0.3127 -0.3090  0.2148
 2552TIP3    H229148   3.505   5.279   0.256  0.5309  0.1234 -0.6589
 2553TIP3   OH229149   4.924   5.632   0.734 -0.0379 -0.0971  0.1147
 2553TIP3    H129150   5.006   5.634   0.783  1.0615  0.7095 -1.6427
 2553TIP3    H229151   4.893   5.541   0.741  1.2881 -0.5421  0.3770
 2554TIP3   OH229152   2.353   6.518   0.626  0.0315 -0.7506  0.0732
 2554TIP3    H129153   2.439   6.542   0.659 -0.1781  0.0526  0.0504
 2554TIP3    H229154   2.293   6.541   0.696 -0.2495 -0.5761 -0.2232
 2555TIP3   OH229155   6.742   4.411  11.131  0.0057 -0.5058 -0.3718
 2555TIP3    H129156   6.697   4.374  11.056  0.1354 -0.5483 -0.4296
 2555TIP3    H229157   6.673   4.450  11.184 -0.2608 -1.7303  0.2150
 2556TIP3   OH229158   0.052   3.968  11.897 -0.3416  0.0576  0.3469
 2556TIP3    H129159   0.144   3.996  11.901 -0.3887  0.2351  0.1862
 2556TIP3    H229160   0.050   3.900  11.831 -0.0597 -0.9765  1.3639
 2557TIP3   OH229161   3.739   0.501  11.389  0.5919  0.2653  0.2400
 2557TIP3    H129162   3.686   0.468  11.462  1.0827 -0.0273  0.4664
 2557TIP3    H229163   3.678   0.503  11.315  0.0996  0.5269  0.6413
 2558TIP3   OH229164   4.882   4.582   6.202 -0.5564  0.1552  0.0720
 2558TIP3    H129165   4.922   4.668   6.187  1.4798 -0.8381 -0.4845
 2558TIP3    H229166   4.830   4.567   6.123  0.5337  0.1209 -0.6664
 2559TIP3   OH229167   5.518   6.061   4.350 -0.1062 -0.1930  0.1195
 2559TIP3    H129168   5.453   6.020   4.292 -1.8569  1.9924  0.3994
 2559TIP3    H229169   5.495   6.031   4.437 -1.5410  1.4468  0.3536
 2560TIP3   OH229170   2.500   2.689  16.936 -0.3922 -0.0844  0.2200
 2560TIP3    H129171   2.535   2.734  17.013 -0.5340 -2.1926  1.5907
 2560TIP3    H229172   2.406   2.708  16.937 -0.2714  0.5557  0.0679
 2561TIP3   OH229173   5.812   3.308   4.330 -0.2842  0.0704  0.0503
 2561TIP3    H129174   5.781   3.280   4.243 -0.8408 -2.4839  0.9748
 2561TIP3    H229175   5.731   3.323   4.379 -0.0052 -0.6584  0.7421
 2562TIP3   OH229176   3.714   2.184  14.854 -0.2658  0.2217 -0.0114
 2562TIP3    H129177   3.763   2.193  14.772 -2.2771 -0.8351 -1.4037
 2562TIP3    H229178   3.781   2.193  14.922  1.4610  1.2619 -1.7267
 2563TIP3   OH229179   5.723   4.866   2.312 -0.1500 -0.2436  0.0789
 2563TIP3    H129180   5.770   4.810   2.250 -0.1761 -0.1417 -0.0324
 2563TIP3    H229181   5.757   4.954   2.296 -1.3838  0.0594 -0.9624
 2564TIP3   OH229182   6.568   4.316  10.927 -0.2013 -0.0730  0.0379
 2564TIP3    H129183   6.508   4.243  10.944 -0.8333  0.1105 -1.3520
 2564TIP3    H229184   6.521   4.373  10.867  0.8473  0.7696 -0.0069
 2565TIP3   OH229185   5.998   0.816   5.774  0.1243 -0.0131 -0.2591
 2565TIP3    H129186   6.039   0.902   5.782  1.8108 -0.8941  1.3545
 2565TIP3    H229187   5.909   0.828   5.805  0.3212  1.1497 -0.1051
 2566TIP3   OH229188   5.037   3.757  11.424  0.3101  0.2647  0.1155
 2566TIP3    H129189   5.017   3.796  11.339 -0.6072  0.5583  0.4580
 2566TIP3    H229190   5.008   3.666  11.416  1.5473 -0.1134 -0.3523
 2567TIP3   OH229191   3.737   6.124  16.311  0.3077 -0.0815 -0.2762
 2567TIP3    H129192   3.766   6.211  16.284 -0.7613  0.2359 -0.4474
 2567TIP3    H229193   3.808   6.066  16.285 -0.9066  0.0127 -4.7314
 2568TIP3   OH229194   0.228   0.677   1.697  0.2960 -0.4181 -0.1537
 2568TIP3    H129195   0.286   0.618   1.745  0.9444  1.6568  1.7506
 2568TIP3    H229196   0.152   0.622   1.675  0.0529 -1.5890  3.0800
 2569TIP3   OH229197   0.418   1.235   4.114  0.3658  0.2179  0.2762
 2569TIP3    H129198   0.408   1.139   4.118  1.0700  0.0411 -1.1918
 2569TIP3    H229199   0.388   1.266   4.199  1.2299 -1.4135  1.2361
 2570TIP3   OH229200   5.663   1.474   4.023 -0.2626  0.5101  0.2329
 2570TIP3    H129201   5.744   1.434   4.055 -1.0410  0.5856  2.4512
 2570TIP3    H229202   5.639   1.421   3.947  0.4758 -1.1849  1.1332
 2571TIP3   OH229203   1.998   0.069  12.939  0.1773  0.0005  0.0067
 2571TIP3    H129204   2.093   0.067  12.931  0.8056  3.1767  3.4819
 2571TIP3    H229205   1.968   0.122  12.865  1.6457  1.9830  0.7483
 2572TIP3   OH229206   4.979   3.317  12.658 -0.3837 -0.1725  0.2707
 2572TIP3    H129207   5.001   3.409  12.640  0.8507 -0.7082 -1.2001
 2572TIP3    H229208   4.904   3.299  12.601  0.5345 -0.5545 -0.8568
 2573TIP3   OH229209   0.624   1.958  13.461 -0.7197 -0.5060  0.2949
 2573TIP3    H129210   0.600   2.015  13.534 -1.6487  0.1903 -0.5335
 2573TIP3    H229211   0.553   1.969  13.397  0.9862  0.4280 -1.5695
 2574TIP3   OH229212   4.793   4.454   0.516 -0.5671 -0.0565  0.0250
 2574TIP3    H129213   4.731   4.513   0.474 -1.5437  0.1077  1.6135
 2574TIP3    H229214   4.828   4.505   0.590  0.4268 -0.6283 -0.0302
 2575TIP3   OH229215   5.148   3.653   2.119 -0.0455  0.1811  0.5881
 2575TIP3    H129216   5.178   3.738   2.088  0.0931 -0.5188 -1.3119
 2575TIP3    H229217   5.207   3.631   2.192  0.3500  1.3758  0.6397
 2576TIP3   OH229218   1.345   4.078  16.328  0.2759  0.8431  0.3881
 2576TIP3    H129219   1.314   4.110  16.243 -0.3252 -0.8124 -0.0463
 2576TIP3    H229220   1.342   3.983  16.320 -0.6205  0.6320  2.5527
 2577TIP3   OH229221   2.642   0.775   4.227 -0.4898 -0.6266 -0.7385
 2577TIP3    H129222   2.552   0.783   4.196 -0.0545  2.0089 -1.5090
 2577TIP3    H229223   2.694   0.765   4.148  0.0397 -0.6514 -0.3931
 2578TIP3   OH229224   4.805   0.847   6.251  0.2671  0.1025 -0.3278
 2578TIP3    H129225   4.853   0.831   6.333  0.4039  0.3095 -0.3655
 2578TIP3    H229226   4.856   0.915   6.207 -1.1306  1.7945  0.5390
 2579TIP3   OH229227   4.492   0.885  12.733 -0.0077  0.2247 -0.2041
 2579TIP3    H129228   4.450   0.805  12.703 -0.1740  0.3713 -0.3648
 2579TIP3    H229229   4.482   0.946  12.661  1.3623 -0.0388 -0.6495
 2580TIP3   OH229230   1.999   5.539   1.910 -0.2187 -0.2784  0.1705
 2580TIP3    H129231   2.057   5.472   1.946  0.0043 -1.0135 -1.4916
 2580TIP3    H229232   1.944   5.493   1.846  0.1284  1.1417 -1.2212
 2581TIP3   OH229233   3.272   0.161  10.058 -0.2933 -0.3744 -0.0941
 2581TIP3    H129234   3.345   0.110  10.025 -0.3655 -1.2595  1.0487
 2581TIP3    H229235   3.310   0.219  10.124 -0.4307 -0.0015 -0.3446
 2582TIP3   OH229236   6.048   2.272   4.080 -0.0526 -0.1646 -0.2083
 2582TIP3    H129237   6.106   2.324   4.136 -0.1014  0.4688 -0.7371
 2582TIP3    H229238   6.106   2.209   4.037  0.3221  0.6905 -0.9976
 2583TIP3   OH229239   6.748   4.944  11.702  0.7388  0.3688 -0.4092
 2583TIP3    H129240   6.761   5.038  11.715  0.6597  0.2239  0.8757
 2583TIP3    H229241   6.834   4.906  11.714  0.4897  0.1311  0.7670
 2584TIP3   OH229242   1.319   1.225  13.615  0.1829 -0.2362  0.6408
 2584TIP3    H129243   1.336   1.163  13.685 -0.8812  1.0612  2.1273
 2584TIP3    H229244   1.382   1.296  13.629  0.3116 -0.2037 -0.0520
 2585TIP3   OH229245   2.872   0.640   4.841  0.0011  0.0904  0.6323
 2585TIP3    H129246   2.800   0.700   4.823 -0.8378 -1.3879 -1.4150
 2585TIP3    H229247   2.929   0.647   4.764  1.7668  0.7657  1.9275
 2586TIP3   OH229248   3.220   5.060   1.826 -0.7474 -0.6789 -0.9936
 2586TIP3    H129249   3.292   5.009   1.790  0.1135  0.8261 -1.4799
 2586TIP3    H229250   3.185   5.006   1.897  1.8973 -0.8051  0.3285
 2587TIP3   OH229251   0.011   2.789  11.696  0.1282  0.3251  0.2824
 2587TIP3    H129252   0.086   2.818  11.749  0.0994  0.6992  0.1163
 2587TIP3    H229253  -0.011   2.864  11.642  1.0561 -0.4950 -1.3011
 2588TIP3   OH229254   1.356   5.340  16.047 -0.0142 -0.6143  0.0361
 2588TIP3    H129255   1.321   5.411  16.101  0.1324  0.4900 -1.2612
 2588TIP3    H229256   1.370   5.380  15.961 -1.1695 -2.5432 -1.1180
 2589TIP3   OH229257   5.799   1.044   4.528  0.7584 -0.6187  0.0490
 2589TIP3    H129258   5.891   1.068   4.520  0.4289  0.1198 -2.0424
 2589TIP3    H229259   5.760   1.115   4.578  1.2510 -0.8206  0.7449
 2590TIP3   OH229260   6.507   3.858  15.473 -0.1323  0.0408  0.5042
 2590TIP3    H129261   6.460   3.823  15.398  0.3157 -0.5834  0.5122
 2590TIP3    H229262   6.550   3.782  15.513 -0.0326  0.4267  1.1505
 2591TIP3   OH229263   2.546   2.269  15.458  0.1228  0.0524  0.2107
 2591TIP3    H129264   2.506   2.356  15.469 -0.5692 -0.2565  0.1770
 2591TIP3    H229265   2.487   2.210  15.504  0.0201 -0.5484 -0.6853
 2592TIP3   OH229266   1.402   4.806   6.413 -0.2145  0.5872  0.1505
 2592TIP3    H129267   1.370   4.829   6.326 -3.0301  0.3026  1.0232
 2592TIP3    H229268   1.399   4.887   6.463  0.3297  0.5184  0.3078
 2593TIP3   OH229269   0.032   5.467  11.629  0.0622  0.6301 -0.5474
 2593TIP3    H129270   0.000   5.501  11.545 -1.0733 -0.3898 -0.5586
 2593TIP3    H229271   0.015   5.537  11.691 -0.8362  0.6846 -0.8407
 2594TIP3   OH229272   4.106   4.810   2.691 -0.0713  0.0353 -0.1931
 2594TIP3    H129273   4.101   4.903   2.712 -0.2525 -0.3025  1.3592
 2594TIP3    H229274   4.042   4.798   2.620 -2.5544  0.5267  1.8191
 2595TIP3   OH229275   1.235   4.955  16.912 -0.0951  0.1693 -0.0753
 2595TIP3    H129276   1.250   5.006  16.991  2.1047  1.6038 -1.3103
 2595TIP3    H229277   1.158   4.995  16.872 -0.9649 -0.2970  1.0976
 2596TIP3   OH229278   6.162   4.952   0.394 -0.2035 -0.3435  0.3352
 2596TIP3    H129279   6.134   4.861   0.396 -3.3655  0.5339  2.0225
 2596TIP3    H229280   6.113   4.991   0.322  1.1602  0.0933 -0.4108
 2597TIP3   OH229281   5.850   4.302  15.714 -0.0444 -0.1251 -0.1470
 2597TIP3    H129282   5.785   4.323  15.781  0.7807 -0.7776  0.8797
 2597TIP3    H229283   5.800   4.261  15.644 -0.7672 -0.4665  0.5553
 2598TIP3   OH229284   3.991   5.164  14.078 -0.3362 -1.1047 -0.0500
 2598TIP3    H129285   3.945   5.092  14.035 -0.7608 -0.5951 -0.4669
 2598TIP3    H229286   3.982   5.238  14.018  1.8670 -1.2307 -0.6235
 2599TIP3   OH229287   1.192   2.540   4.982  0.0268  0.1618 -0.2833
 2599TIP3    H129288   1.132   2.484   5.030  1.5122 -0.2668  1.1665
 2599TIP3    H229289   1.156   2.542   4.893 -3.5676  2.0782  1.0263
 2600TIP3   OH229290   3.684   4.963   1.074  0.4800 -0.3232 -0.0970
 2600TIP3    H129291   3.720   4.875   1.083 -1.0768 -0.8087  2.3398
 2600TIP3    H229292   3.608   4.952   1.017  0.9014 -0.3353 -0.6648
 2601TIP3   OH229293   0.482   0.138  14.579 -0.3885  0.1093 -0.1187
 2601TIP3    H129294   0.557   0.195  14.563 -0.0729 -0.2548  0.0607
 2601TIP3    H229295   0.406   0.193  14.559 -0.0629  0.3221 -0.7813
 2602TIP3   OH229296   4.916   0.321  11.503  0.0408  0.1194  0.2756
 2602TIP3    H129297   4.952   0.352  11.420 -0.4395  0.1200  0.0657
 2602TIP3    H229298   4.910   0.226  11.493 -0.5265  0.1676  0.0986
 2603TIP3   OH229299   4.444   4.645   0.736 -0.3242  0.3186 -0.1097
 2603TIP3    H129300   4.516   4.630   0.797 -1.8985  0.2143  1.8190
 2603TIP3    H229301   4.427   4.739   0.741  0.5459  0.5842 -1.6308
 2604TIP3   OH229302   2.943   4.689  14.390  0.4077  0.3461  0.1124
 2604TIP3    H129303   2.933   4.725  14.478  0.6768  0.5348  0.0676
 2604TIP3    H229304   2.924   4.763  14.332  1.5920  0.6064  0.0241
 2605TIP3   OH229305   4.858   1.521   5.115 -0.2058  0.3115  0.1606
 2605TIP3    H129306   4.942   1.534   5.159  0.3396  0.1175 -0.7992
 2605TIP3    H229307   4.815   1.606   5.120 -0.3233  0.1984  1.3872
 2606TIP3   OH229308   1.486   5.445   3.715  0.8050 -0.0288 -0.0649
 2606TIP3    H129309   1.499   5.538   3.736  1.5736 -0.1476  0.0107
 2606TIP3    H229310   1.394   5.429   3.734 -0.8771  2.0179 -4.8686
 2607TIP3   OH229311   1.985   4.933  12.545 -0.2758 -0.1414  0.1190
 2607TIP3    H129312   2.016   4.919  12.635 -1.5954 -2.4629  0.2968
 2607TIP3    H229313   2.035   4.871  12.492 -0.5491  0.1708 -0.5166
 2608TIP3   OH229314   5.301   0.806  14.529  0.1448 -0.1365  0.0544
 2608TIP3    H129315   5.226   0.847  14.485  2.3335  2.2374 -1.7777
 2608TIP3    H229316   5.327   0.735  14.471 -1.0096 -1.4483  1.0572
 2609TIP3   OH229317   1.907   2.156   1.626  0.0942  0.1830 -0.0874
 2609TIP3    H129318   1.934   2.081   1.572 -0.4184 -0.1337  0.0918
 2609TIP3    H229319   1.989   2.189   1.663  0.3025 -0.4199 -0.0002
 2610TIP3   OH229320   5.673   3.422   4.686 -0.7747 -0.3784  0.4350
 2610TIP3    H129321   5.584   3.402   4.655 -0.3294 -0.2603 -0.9636
 2610TIP3    H229322   5.730   3.397   4.614  0.2812  0.2722  1.0264
 2611TIP3   OH229323   6.383   5.829  11.943 -0.0609  0.0819  0.0251
 2611TIP3    H129324   6.467   5.822  11.899 -0.4890 -0.4027 -0.7400
 2611TIP3    H229325   6.326   5.769  11.895 -0.4729 -0.6816  1.4079
 2612TIP3   OH229326   1.144   6.008  12.770 -0.5139  0.8035  0.2547
 2612TIP3    H129327   1.236   5.999  12.744 -0.4931 -0.6292  0.7401
 2612TIP3    H229328   1.122   6.100  12.750  0.7000  0.8808 -0.8612
 2613TIP3   OH229329   4.070   2.656  13.320  0.2208  0.2312  0.2182
 2613TIP3    H129330   3.983   2.669  13.358 -0.1779 -0.4933 -0.4194
 2613TIP3    H229331   4.130   2.680  13.390 -0.4679  1.6256  0.3752
 2614TIP3   OH229332   0.799   3.616  12.970  0.1192  0.0325 -0.6342
 2614TIP3    H129333   0.813   3.609  12.876  0.4173 -1.0274 -0.5274
 2614TIP3    H229334   0.869   3.564  13.009 -0.4679 -0.2047  0.1412
 2615TIP3   OH229335   0.346   3.810   0.923  0.3812 -0.1084 -0.0387
 2615TIP3    H129336   0.424   3.861   0.905  0.2515  0.5883  1.2256
 2615TIP3    H229337   0.379   3.728   0.960  0.5307  0.7133  1.7618
 2616TIP3   OH229338   1.686   1.757  12.269 -0.3981 -0.0232  0.4178
 2616TIP3    H129339   1.660   1.730  12.181 -1.4140  0.8093  0.4455
 2616TIP3    H229340   1.781   1.769  12.263 -0.3634 -0.5891 -0.3857
 2617TIP3   OH229341   6.237   3.869  14.830  0.0514  0.2109  0.7382
 2617TIP3    H129342   6.155   3.902  14.868 -1.2124 -0.0150 -1.5875
 2617TIP3    H229343   6.293   3.946  14.824 -0.9516  0.9175  0.0829
 2618TIP3   OH229344   0.268   3.207  15.510  0.0187 -0.3085  0.2864
 2618TIP3    H129345   0.274   3.125  15.558  1.1121 -0.7872 -0.6092
 2618TIP3    H229346   0.178   3.209  15.478 -0.6740 -0.0590  2.1441
 2619TIP3   OH229347   2.830   1.375  14.239  0.1621  0.3080 -0.0861
 2619TIP3    H129348   2.883   1.357  14.317  0.9168  1.2739 -0.3505
 2619TIP3    H229349   2.884   1.347  14.165 -1.0015 -1.6644 -0.2620
 2620TIP3   OH229350   0.378   3.108  13.789 -0.3198 -0.5944  0.0965
 2620TIP3    H129351   0.461   3.149  13.810 -0.6660  0.1810 -0.0135
 2620TIP3    H229352   0.400   3.016  13.772  0.8653  0.0356 -2.1163
 2621TIP3   OH229353   2.571   3.091  11.528 -0.4055  0.3521 -0.7201
 2621TIP3    H129354   2.624   3.169  11.542 -0.1710  0.3839 -1.7454
 2621TIP3    H229355   2.498   3.100  11.590  0.2666  0.7710  0.0241
 2622TIP3   OH229356   3.287   6.635   3.519 -0.0250 -0.0285  0.0477
 2622TIP3    H129357   3.266   6.703   3.583  0.6072 -0.9386  1.2751
 2622TIP3    H229358   3.316   6.682   3.441 -0.8942  1.1091  0.3902
 2623TIP3   OH229359   4.064   6.201  15.650 -0.3308  0.3909 -0.1880
 2623TIP3    H129360   4.034   6.283  15.612  0.4095  0.8737  0.2469
 2623TIP3    H229361   4.039   6.206  15.742 -0.2981  0.1271 -0.1638
 2624TIP3   OH229362   0.214   1.034   2.768  0.4583 -0.3117  0.1919
 2624TIP3    H129363   0.265   1.095   2.714  0.3631  1.2079  1.7309
 2624TIP3    H229364   0.153   1.090   2.816 -0.3808 -1.7517  0.8582
 2625TIP3   OH229365   1.358   2.686  13.629 -0.0765 -0.2318  0.4113
 2625TIP3    H129366   1.282   2.741  13.649 -1.0123 -1.2248 -0.2889
 2625TIP3    H229367   1.402   2.675  13.713  0.5945  2.1706  0.4707
 2626TIP3   OH229368   4.585   6.179  13.147  0.4764  0.0822 -0.2252
 2626TIP3    H129369   4.581   6.226  13.064 -1.0949  1.5619  0.6293
 2626TIP3    H229370   4.505   6.127  13.149 -0.7941  1.9621  1.3800
 2627TIP3   OH229371   2.355   6.185  16.595 -0.5628  0.4065  0.7095
 2627TIP3    H129372   2.310   6.248  16.539  0.0849 -0.5599 -0.9726
 2627TIP3    H229373   2.294   6.112  16.603  0.3946 -0.6530 -1.0930
 2628TIP3   OH229374   4.778   4.157  13.246  0.0138  0.2426 -0.0677
 2628TIP3    H129375   4.790   4.252  13.248 -1.0733  0.4208 -0.8602
 2628TIP3    H229376   4.757   4.133  13.336  3.2506  0.2849  0.8025
 2629TIP3   OH229377   3.547   6.679   2.798 -0.7957 -0.0386 -0.7867
 2629TIP3    H129378   3.602   6.660   2.721  0.4688 -0.2501  0.1323
 2629TIP3    H229379   3.462   6.703   2.761  0.1871  1.3425 -2.3198
 2630TIP3   OH229380   5.555   4.342  13.928  0.1021 -0.0452  0.6219
 2630TIP3    H129381   5.530   4.251  13.917 -0.7387  0.1719  0.7134
 2630TIP3    H229382   5.620   4.341  13.999  1.2725 -0.7507 -0.4056
 2631TIP3   OH229383   6.797   3.493  15.488 -0.2858 -0.4273 -0.2184
 2631TIP3    H129384   6.818   3.405  15.459  0.0512 -0.8304  1.1644
 2631TIP3    H229385   6.791   3.486  15.583  0.4971  1.1891 -0.0092
 2632TIP3   OH229386   0.363   4.364  14.139 -0.4471 -0.5404 -0.5408
 2632TIP3    H129387   0.351   4.384  14.232 -0.1346  1.7779 -0.9186
 2632TIP3    H229388   0.458   4.369  14.126 -0.5567  0.1632 -1.1450
 2633TIP3   OH229389   2.832   1.571   1.260 -0.5494  0.1070 -0.5323
 2633TIP3    H129390   2.865   1.509   1.195  0.8888  0.7762 -0.4850
 2633TIP3    H229391   2.910   1.621   1.287 -1.4460  1.0785  0.3502
 2634TIP3   OH229392   3.524   0.482  11.225  0.0411  0.0177  0.6319
 2634TIP3    H129393   3.494   0.392  11.216  0.3149 -0.0808  0.7281
 2634TIP3    H229394   3.443   0.534  11.220 -0.1468 -0.2488  0.8901
 2635TIP3   OH229395   4.602   1.118  16.768  0.1354 -0.1818 -0.3955
 2635TIP3    H129396   4.562   1.162  16.842 -0.3482 -0.3273 -0.5642
 2635TIP3    H229397   4.596   1.181  16.696  1.8989  0.5183  0.0334
 2636TIP3   OH229398   4.447   0.875  11.143  0.1906 -0.5536  0.4005
 2636TIP3    H129399   4.375   0.864  11.081 -0.9217 -2.1238  1.8805
 2636TIP3    H229400   4.432   0.960  11.183  0.8168  0.3968 -1.2891
 2637TIP3   OH229401   2.665   4.903   4.930 -0.2575 -0.4664  0.2964
 2637TIP3    H129402   2.674   4.981   4.984  0.8033 -1.4357  1.6073
 2637TIP3    H229403   2.574   4.904   4.902 -0.5354  0.7012  1.1540
 2638TIP3   OH229404   3.739   6.107   4.740 -0.0066 -0.4020  0.1736
 2638TIP3    H129405   3.768   6.136   4.826  0.2910 -0.9467  0.2615
 2638TIP3    H229406   3.758   6.182   4.682  0.8008 -0.4315  0.3850
 2639TIP3   OH229407   0.333   5.776  11.995 -0.0476 -0.3655 -0.2447
 2639TIP3    H129408   0.238   5.770  11.999  0.0367 -1.8933  2.5787
 2639TIP3    H229409   0.363   5.685  12.001  1.5384  0.1749  1.0297
 2640TIP3   OH229410   2.838   5.651   2.963  0.2037 -0.3190  0.0023
 2640TIP3    H129411   2.926   5.676   2.934  0.8756 -0.9090  1.4178
 2640TIP3    H229412   2.831   5.690   3.050  0.3473 -2.9099  1.2650
 2641TIP3   OH229413   6.086   5.703  11.335  0.0197 -0.2333 -0.0644
 2641TIP3    H129414   6.120   5.697  11.245 -3.0787 -1.8363 -1.2919
 2641TIP3    H229415   6.131   5.778  11.373  2.1953 -0.0962 -2.6012
 2642TIP3   OH229416   4.978   6.126  14.978 -0.2327  0.1382 -0.5509
 2642TIP3    H129417   4.994   6.214  14.944  0.4795  0.2666  0.0872
 2642TIP3    H229418   5.058   6.104  15.027 -0.3795 -0.8842 -0.7461
 2643TIP3   OH229419   5.969   1.692  16.078  0.2065 -0.2783 -0.0817
 2643TIP3    H129420   6.035   1.718  16.015  0.1100 -0.4465 -0.2514
 2643TIP3    H229421   5.890   1.739  16.051  0.5023  0.7537  0.7236
 2644TIP3   OH229422   3.317   3.923  15.937 -0.5074 -0.3827 -0.5311
 2644TIP3    H129423   3.304   3.840  15.891 -1.8540 -0.0827 -0.7378
 2644TIP3    H229424   3.231   3.963  15.938 -0.0933  0.5336  0.5189
 2645TIP3   OH229425   0.545   0.807   5.893 -0.2643  0.3643  0.9552
 2645TIP3    H129426   0.634   0.819   5.859 -0.0329  0.7707  1.6799
 2645TIP3    H229427   0.488   0.828   5.819  0.2274  1.1824  0.7955
 2646TIP3   OH229428   2.563   3.856  12.346 -0.0370  0.0682  0.2664
 2646TIP3    H129429   2.510   3.869  12.267 -0.4997  0.0192  0.5625
 2646TIP3    H229430   2.524   3.915  12.411  1.6151  1.6834 -0.1182
 2647TIP3   OH229431   1.490   4.747   5.552  0.3275 -0.0446  0.1977
 2647TIP3    H129432   1.507   4.807   5.625  0.6988  0.6092 -0.4085
 2647TIP3    H229433   1.401   4.769   5.524  0.2057 -0.2576  0.4114
 2648TIP3   OH229434   4.604   1.351  11.088  0.0834 -0.3272  0.7634
 2648TIP3    H129435   4.629   1.398  11.008  0.2870 -0.6190  0.6545
 2648TIP3    H229436   4.627   1.411  11.159 -2.6677  1.1802  0.5495
 2649TIP3   OH229437   6.162   5.557   2.865 -0.5042  0.2358 -0.4666
 2649TIP3    H129438   6.107   5.508   2.925 -1.4281 -1.0354 -2.2524
 2649TIP3    H229439   6.234   5.498   2.843  1.7646  1.9015  1.8909
 2650TIP3   OH229440   5.634   5.140   0.669 -0.5860 -0.0262  0.0775
 2650TIP3    H129441   5.601   5.230   0.674 -0.0735  0.1381  0.6621
 2650TIP3    H229442   5.608   5.110   0.582  1.0840  1.4406 -0.9998
 2651TIP3   OH229443   4.976   1.885   4.589 -0.0363  0.3182  0.7296
 2651TIP3    H129444   5.005   1.820   4.524  0.1340 -0.1666  1.2839
 2651TIP3    H229445   5.048   1.948   4.594 -1.0613  1.8133 -1.4033
 2652TIP3   OH229446   4.067   5.302  15.895  0.3838  0.2295 -0.1330
 2652TIP3    H129447   4.141   5.242  15.902  0.7209  0.7004  0.4111
 2652TIP3    H229448   4.045   5.302  15.801  1.3095  0.3643 -0.3599
 2653TIP3   OH229449   3.228   3.760   6.833 -0.3545 -0.3415 -0.7453
 2653TIP3    H129450   3.138   3.743   6.861 -0.7356  1.3199 -0.8024
 2653TIP3    H229451   3.233   3.856   6.827  0.8592 -0.4564 -2.5564
 2654TIP3   OH229452   2.355   1.837   1.769  0.0341  0.0064 -0.1887
 2654TIP3    H129453   2.360   1.744   1.746 -2.0499 -0.1127 -0.3733
 2654TIP3    H229454   2.364   1.882   1.685 -1.8886 -0.2016 -0.5639
 2655TIP3   OH229455   6.079   4.719   5.092  0.1059  0.1247 -0.2141
 2655TIP3    H129456   6.162   4.736   5.136  0.4999 -0.6227 -0.6502
 2655TIP3    H229457   6.034   4.657   5.149 -0.4749  1.0734  0.3828
 2656TIP3   OH229458   2.372   0.237  16.727  0.0040  0.3287  0.4292
 2656TIP3    H129459   2.279   0.212  16.729  0.4820 -1.8309 -1.1931
 2656TIP3    H229460   2.373   0.322  16.681 -1.1192  0.0734 -0.0983
 2657TIP3   OH229461   2.836   3.809   5.759  0.0512 -0.0202  0.0461
 2657TIP3    H129462   2.871   3.847   5.840 -1.7432  2.0773 -0.0668
 2657TIP3    H229463   2.901   3.831   5.693  1.2718 -1.2831  0.7757
 2658TIP3   OH229464   4.813   1.545  14.451  0.7491  0.4523  0.5145
 2658TIP3    H129465   4.890   1.562  14.397 -0.0942  0.7293 -0.6415
 2658TIP3    H229466   4.821   1.607  14.523  1.1188  1.1698 -0.1184
 2659TIP3   OH229467   0.070   2.259  11.804 -0.7290  0.1227  0.5085
 2659TIP3    H129468   0.034   2.254  11.893  2.8704  0.8357  2.2098
 2659TIP3    H229469   0.058   2.351  11.779 -2.1856 -0.1867  0.0006
 2660TIP3   OH229470   3.205   4.447   4.031 -0.8076  0.6519  0.0885
 2660TIP3    H129471   3.232   4.539   4.027  0.0589  0.4875  1.3792
 2660TIP3    H229472   3.286   4.398   4.017 -1.2547  0.0744 -0.5272
 2661TIP3   OH229473   1.528   5.466   4.907  0.4888  0.1666  0.1612
 2661TIP3    H129474   1.472   5.432   4.838  0.5276 -0.8637  0.6215
 2661TIP3    H229475   1.583   5.531   4.864 -1.3162  1.5135 -0.2231
 2662TIP3   OH229476   1.913   0.896   0.922 -0.2443  0.7519 -0.3620
 2662TIP3    H129477   1.925   0.815   0.972  1.0409  0.9543 -0.3221
 2662TIP3    H229478   1.996   0.943   0.931 -0.8294  1.8937 -0.7195
 2663TIP3   OH229479   6.688   5.547   5.662 -0.0284 -0.6891  0.3056
 2663TIP3    H129480   6.673   5.554   5.757 -2.1923  2.6378 -0.1190
 2663TIP3    H229481   6.767   5.598   5.646 -2.2974  3.1298 -0.0160
 2664TIP3   OH229482   6.342   0.380   2.741  0.0288 -0.2157 -0.7634
 2664TIP3    H129483   6.285   0.450   2.772  0.3208  0.0984 -0.9157
 2664TIP3    H229484   6.428   0.422   2.731  0.6427 -1.0092  0.8297
 2665TIP3   OH229485   6.455   1.451  12.536  0.5709  0.1434 -0.0118
 2665TIP3    H129486   6.521   1.389  12.567 -0.5495 -1.6163 -1.0130
 2665TIP3    H229487   6.413   1.484  12.616  0.1110 -1.6323  0.5189
 2666TIP3   OH229488   5.940   1.621   2.634  0.2938  0.2976 -0.4061
 2666TIP3    H129489   5.851   1.654   2.641 -0.5765 -1.6072 -1.7083
 2666TIP3    H229490   5.943   1.547   2.695  0.7367 -0.1397 -0.9544
 2667TIP3   OH229491   1.320   2.633   3.800 -0.2681  0.3280 -0.5158
 2667TIP3    H129492   1.285   2.711   3.757  1.3053  1.0942 -0.4789
 2667TIP3    H229493   1.396   2.609   3.748  0.7641  0.3407  0.9412
 2668TIP3   OH229494   6.168   4.300  14.772 -0.2438  0.4304 -0.5008
 2668TIP3    H129495   6.124   4.385  14.778  0.5290  0.8406 -0.5005
 2668TIP3    H229496   6.250   4.318  14.726 -0.7561 -0.6018 -1.9006
 2669TIP3   OH229497   5.352   4.697  16.119 -0.0073  0.3331 -0.2909
 2669TIP3    H129498   5.389   4.643  16.049 -0.4078  1.0514 -1.0760
 2669TIP3    H229499   5.405   4.777  16.117  0.2875  0.1704  0.5590
 2670TIP3   OH229500   5.068   4.836   0.280  0.2063 -0.6146  0.0767
 2670TIP3    H129501   5.060   4.931   0.290 -0.3861 -0.6448 -0.1039
 2670TIP3    H229502   5.157   4.817   0.309  0.9430  0.2104 -1.5229
 2671TIP3   OH229503   0.095   3.871   0.383 -0.3256  0.2468  0.0500
 2671TIP3    H129504   0.119   3.781   0.404  0.6079  0.1794 -1.2136
 2671TIP3    H229505   0.089   3.873   0.288 -1.1093  1.3398  0.1039
 2672TIP3   OH229506   6.563   1.073   1.293  0.0193 -0.0763  0.0149
 2672TIP3    H129507   6.544   1.091   1.201  2.3822  1.5489 -0.2511
 2672TIP3    H229508   6.549   1.156   1.337 -0.5668 -0.7038  1.0445
 2673TIP3   OH229509   3.158   0.564   5.831 -0.4007 -0.3712 -0.1756
 2673TIP3    H129510   3.089   0.585   5.768 -1.9186  0.0983  1.5837
 2673TIP3    H229511   3.113   0.551   5.914  1.6543  0.2986  1.1279
 2674TIP3   OH229512   0.450   2.770  15.785 -0.0219 -0.3931  0.4349
 2674TIP3    H129513   0.364   2.769  15.826  0.1912 -0.3289  0.8912
 2674TIP3    H229514   0.448   2.846  15.726 -0.0652 -0.0163  0.9162
 2675TIP3   OH229515   3.014   2.039   1.332  0.3156  0.0806  0.3064
 2675TIP3    H129516   3.028   1.998   1.417 -0.3037 -0.6026  0.0961
 2675TIP3    H229517   3.094   2.023   1.283  0.3634 -0.2342  0.4877
 2676TIP3   OH229518   2.114   2.443  14.390  0.2608 -0.6506 -0.0809
 2676TIP3    H129519   2.087   2.529  14.358  0.5917 -0.8252 -0.8395
 2676TIP3    H229520   2.044   2.418  14.451  1.0386  0.9213  1.5352
 2677TIP3   OH229521   6.553   3.888   0.084  0.5052 -0.0338  0.0484
 2677TIP3    H129522   6.605   3.817   0.122  1.6141 -0.1237 -1.5224
 2677TIP3    H229523   6.590   3.968   0.122 -0.1292 -0.2219  1.1059
 2678TIP3   OH229524   1.301   4.498  16.490  0.4396  0.0391  0.3902
 2678TIP3    H129525   1.359   4.445  16.545  2.0266  0.4512 -0.7983
 2678TIP3    H229526   1.347   4.504  16.407 -1.4050  0.3064 -0.6613
 2679TIP3   OH229527   2.837   4.241   0.485  0.4011 -0.8070 -0.2697
 2679TIP3    H129528   2.931   4.232   0.501  0.6386 -1.9895 -2.0503
 2679TIP3    H229529   2.807   4.152   0.466 -0.4107 -0.0547 -2.8549
 2680TIP3   OH229530   2.453   4.486   4.403  0.1165  0.6146 -0.4043
 2680TIP3    H129531   2.371   4.444   4.380 -0.0919  1.2431 -0.8538
 2680TIP3    H229532   2.427   4.571   4.439  0.5920  1.8156 -2.6577
 2681TIP3   OH229533   0.342   5.241  16.651 -0.2632  0.0833 -0.8810
 2681TIP3    H129534   0.376   5.273  16.735  1.3294 -0.5893 -1.2215
 2681TIP3    H229535   0.352   5.315  16.591 -0.1751  0.1592 -0.7737
 2682TIP3   OH229536   4.835   2.543   4.130 -0.2254 -0.0538 -0.7631
 2682TIP3    H129537   4.886   2.624   4.138 -0.0725 -0.2926  1.1047
 2682TIP3    H229538   4.770   2.548   4.200 -1.1498 -0.9239 -1.5123
 2683TIP3   OH229539   0.778   2.319   5.696  0.1628 -0.2785  0.0174
 2683TIP3    H129540   0.719   2.359   5.760 -0.7181 -1.0148 -0.3121
 2683TIP3    H229541   0.866   2.339   5.729 -0.2579  1.0498  0.3829
 2684TIP3   OH229542   0.864   2.933  12.391 -0.3510 -0.5442  0.0140
 2684TIP3    H129543   0.856   3.015  12.342  0.5686 -0.3889  0.1001
 2684TIP3    H229544   0.946   2.894  12.360 -0.8577 -1.5211 -0.1519
 2685TIP3   OH229545   5.872   5.805   3.300  0.0581 -0.2691 -0.2635
 2685TIP3    H129546   5.874   5.873   3.367 -1.4379  0.1381 -0.5970
 2685TIP3    H229547   5.950   5.752   3.317 -0.0026  0.1337  1.4760
 2686TIP3   OH229548   4.507   3.032   0.299  0.3049 -0.0466 -0.6152
 2686TIP3    H129549   4.426   2.998   0.262 -0.3249  1.9823 -1.2699
 2686TIP3    H229550   4.479   3.108   0.351  1.5897 -0.5466  0.8807
 2687TIP3   OH229551   0.199   2.883   3.786 -0.3720 -0.4365  0.2414
 2687TIP3    H129552   0.256   2.957   3.763 -1.3772  0.5397  0.8049
 2687TIP3    H229553   0.257   2.807   3.786  0.3465  0.0331 -2.1602
 2688TIP3   OH229554   5.237   2.944  13.917  0.5297 -0.1204 -0.2539
 2688TIP3    H129555   5.201   2.947  14.005  0.1338  0.8736 -0.4424
 2688TIP3    H229556   5.164   2.918  13.861  1.2070 -2.5924 -0.0920
 2689TIP3   OH229557   2.678   5.629  11.136 -0.0153  0.1629  0.2809
 2689TIP3    H129558   2.627   5.701  11.100 -0.3145  0.5512  1.4484
 2689TIP3    H229559   2.764   5.636  11.094 -0.6012  0.0957 -0.9624
 2690TIP3   OH229560   4.677   6.774   5.444 -0.0953 -0.4765 -0.2381
 2690TIP3    H129561   4.718   6.691   5.418  1.3164  0.0251  0.2946
 2690TIP3    H229562   4.718   6.796   5.527 -0.8562  0.5007 -0.0981
 2691TIP3   OH229563   1.882   1.079  13.897  0.0989  0.0582 -0.1091
 2691TIP3    H129564   1.844   1.001  13.937 -1.4256  0.1893 -1.1870
 2691TIP3    H229565   1.975   1.075  13.919  0.0892 -2.1258 -0.2504
 2692TIP3   OH229566   0.657   2.714   2.278 -0.0638  0.4259  0.0651
 2692TIP3    H129567   0.750   2.692   2.267  0.0309  0.0583  1.4691
 2692TIP3    H229568   0.615   2.631   2.298 -0.3829  0.8673  1.2904
 2693TIP3   OH229569   2.276   1.980  12.746 -0.1502 -0.3957 -0.2681
 2693TIP3    H129570   2.320   2.058  12.712  1.2415 -0.7793  0.5412
 2693TIP3    H229571   2.238   2.008  12.829  0.6902 -0.6565  0.2153
 2694TIP3   OH229572   4.888   6.601  11.611  0.7379  1.2262  0.8815
 2694TIP3    H129573   4.949   6.530  11.633  0.2954 -0.6837 -3.2896
 2694TIP3    H229574   4.802   6.560  11.614  0.2393  2.2507  0.7106
 2695TIP3   OH229575   4.496   6.315   5.318 -0.9544 -0.1648 -0.1294
 2695TIP3    H129576   4.581   6.307   5.275 -1.7976 -2.3488 -1.5565
 2695TIP3    H229577   4.479   6.229   5.355 -1.4302  0.9507  2.4623
 2696TIP3   OH229578   2.335   2.226  14.736 -0.1294 -1.0152  0.6783
 2696TIP3    H129579   2.424   2.245  14.706  0.6593 -1.4165  2.6128
 2696TIP3    H229580   2.290   2.310  14.735  0.4781 -0.6895  0.3608
 2697TIP3   OH229581   2.074   5.911   4.246  0.3910  0.0180 -0.4639
 2697TIP3    H129582   2.065   5.926   4.152 -0.0806 -0.8102 -0.5579
 2697TIP3    H229583   2.018   5.976   4.287 -1.1547 -1.0224 -0.8441
 2698TIP3   OH229584   1.039   0.812   3.497  0.8034 -0.2627  0.7224
 2698TIP3    H129585   1.117   0.788   3.547 -0.1274  1.4209  3.1813
 2698TIP3    H229586   0.976   0.743   3.516  0.8861 -0.3296  0.7540
 2699TIP3   OH229587   1.709   2.985  12.893  0.2751 -0.1488 -0.2497
 2699TIP3    H129588   1.657   2.973  12.972 -0.3268  0.5074 -0.5308
 2699TIP3    H229589   1.646   3.015  12.827  0.8672 -0.1150 -0.8187
 2700TIP3   OH229590   5.355   6.543   5.437 -0.3677  0.0249 -0.1624
 2700TIP3    H129591   5.282   6.592   5.476  0.3203  0.7069  0.3052
 2700TIP3    H229592   5.314   6.487   5.371 -1.3129  0.3874  0.1007
 2701TIP3   OH229593   3.333   3.140  11.735  0.0366 -0.8108  0.6703
 2701TIP3    H129594   3.260   3.079  11.722  0.2266 -1.8746  3.6665
 2701TIP3    H229595   3.406   3.099  11.689 -0.5551 -1.2440  0.0757
 2702TIP3   OH229596   1.800   3.443   1.790  0.3227 -0.2417 -0.1696
 2702TIP3    H129597   1.761   3.405   1.869  0.7728  1.2979  0.8448
 2702TIP3    H229598   1.850   3.372   1.751  1.6551 -0.5654  1.9973
 2703TIP3   OH229599   1.694   3.503   6.139  0.6470 -0.2723  0.0213
 2703TIP3    H129600   1.603   3.480   6.158 -0.2722  2.9659 -0.0002
 2703TIP3    H229601   1.732   3.522   6.225  0.8548 -0.0701 -0.1171
 2704TIP3   OH229602   1.773   4.008   5.164 -0.4120  0.1960  0.1975
 2704TIP3    H129603   1.809   4.043   5.083  0.8750 -1.5950 -0.0704
 2704TIP3    H229604   1.816   3.923   5.174 -2.5786 -0.8465  1.3268
 2705TIP3   OH229605   1.491   6.520  16.076  0.3818 -0.3319 -0.6396
 2705TIP3    H129606   1.525   6.432  16.059  0.6147 -1.2898  3.6361
 2705TIP3    H229607   1.561   6.565  16.123 -0.9101  0.8947  0.2191
 2706TIP3   OH229608   6.313   4.580   0.468  0.0935 -0.2999  0.2982
 2706TIP3    H129609   6.228   4.552   0.502 -0.8753  0.6125 -1.2272
 2706TIP3    H229610   6.334   4.660   0.516  0.4691 -0.9181  1.1881
 2707TIP3   OH229611   5.898   4.544   4.371 -0.2532  0.4828 -0.1623
 2707TIP3    H129612   5.869   4.475   4.312  0.2081  0.8948 -0.8861
 2707TIP3    H229613   5.818   4.588   4.398 -0.6372 -0.8114  0.9437
 2708TIP3   OH229614   5.411   2.459   3.951 -0.3056 -0.1433 -0.2804
 2708TIP3    H129615   5.373   2.453   4.038  0.8754 -1.9914  0.1673
 2708TIP3    H229616   5.434   2.369   3.928  2.7486  0.6782 -0.9322
 2709TIP3   OH229617   0.066   3.875   0.915  0.2647  0.1867 -0.7099
 2709TIP3    H129618   0.053   3.903   0.824  1.0834  1.6984 -0.3933
 2709TIP3    H229619   0.160   3.856   0.921  0.2235  0.1405 -0.1790
 2710TIP3   OH229620   5.961   0.541   2.843 -0.3923 -0.2600  0.9153
 2710TIP3    H129621   5.947   0.635   2.831 -1.2237 -0.5231 -0.4088
 2710TIP3    H229622   6.013   0.515   2.767 -0.5062 -0.9251  1.0618
 2711TIP3   OH229623   4.766   0.094   3.727  0.3182  0.1022 -0.1488
 2711TIP3    H129624   4.797   0.004   3.729 -0.9663 -0.3616 -0.2795
 2711TIP3    H229625   4.673   0.087   3.707 -0.1299  1.3805  1.2938
 2712TIP3   OH229626   3.843   2.930  13.912  0.3560  0.4238  0.0627
 2712TIP3    H129627   3.797   2.992  13.969 -0.5194  0.4693 -0.6816
 2712TIP3    H229628   3.773   2.887  13.863  1.0654 -0.0599 -0.5301
 2713TIP3   OH229629   4.652   0.108  11.316  0.2465 -0.3014  0.0001
 2713TIP3    H129630   4.699   0.177  11.364  1.3693  0.4945 -2.0914
 2713TIP3    H229631   4.560   0.132  11.324  0.6284  1.6631 -0.8973
 2714TIP3   OH229632   6.389   2.546   4.037 -0.0658  0.4258  0.6117
 2714TIP3    H129633   6.293   2.547   4.038 -0.1989 -0.6383 -2.1397
 2714TIP3    H229634   6.413   2.621   3.982  0.8903  2.1520  3.1691
 2715TIP3   OH229635   4.912   2.406  10.769  0.4355  0.4252 -0.0781
 2715TIP3    H129636   4.972   2.354  10.822  1.4431  1.2646 -0.3489
 2715TIP3    H229637   4.949   2.401  10.680  0.4383  1.4007 -0.1440
 2716TIP3   OH229638   5.391   6.044   4.731 -0.3178 -0.8627 -0.1655
 2716TIP3    H129639   5.362   6.049   4.822  0.6615  0.9772  0.0992
 2716TIP3    H229640   5.310   6.045   4.680 -0.9148  2.5504  0.6045
 2717TIP3   OH229641   1.904   2.294   2.632  0.6578  0.1281  0.2902
 2717TIP3    H129642   1.843   2.312   2.560 -0.4143 -1.6921  0.6889
 2717TIP3    H229643   1.884   2.362   2.697 -0.5183 -0.0529  0.1437
 2718TIP3   OH229644   0.793   1.905  12.798  0.2971 -0.2954 -0.4736
 2718TIP3    H129645   0.835   1.854  12.729  2.0776 -1.7665  1.5545
 2718TIP3    H229646   0.826   1.866  12.880 -2.5516  0.6272  1.2411
 2719TIP3   OH229647   1.489   0.625   4.104 -0.5697 -0.6177  0.5852
 2719TIP3    H129648   1.446   0.668   4.030 -0.0572  0.4275  0.8693
 2719TIP3    H229649   1.508   0.536   4.074 -0.7622 -0.3336 -0.3789
 2720TIP3   OH229650   1.228   4.213  17.049  0.5432  0.4515  0.3776
 2720TIP3    H129651   1.183   4.128  17.042  1.4924 -0.0071 -0.4157
 2720TIP3    H229652   1.295   4.210  16.981  0.5780  1.8622  0.3247
 2721TIP3   OH229653   1.400   1.313   0.239 -0.0550  0.5047  0.0499
 2721TIP3    H129654   1.347   1.361   0.302  1.4748  1.3039  0.7886
 2721TIP3    H229655   1.396   1.367   0.159 -2.1369 -0.6013 -0.6687
 2722TIP3   OH229656   3.424   5.685  12.362 -0.3929 -0.2169 -0.2784
 2722TIP3    H129657   3.418   5.695  12.457  0.6727 -0.3268 -0.1834
 2722TIP3    H229658   3.508   5.641  12.348  0.5539  1.7662 -1.3864
 2723TIP3   OH229659   2.398   0.139  13.457 -0.2257 -0.1591  0.2443
 2723TIP3    H129660   2.310   0.119  13.489 -0.7402  0.0763 -0.9387
 2723TIP3    H229661   2.454   0.072  13.495 -1.0004 -0.5766  0.6634
 2724TIP3   OH229662   5.407   0.038   1.088 -0.8900  0.5434  0.3100
 2724TIP3    H129663   5.400   0.056   1.182 -0.7455 -0.9324  0.6204
 2724TIP3    H229664   5.319   0.051   1.054 -1.1756  0.0466  0.8462
 2725TIP3   OH229665   2.592   1.231  13.849  0.2607  0.3388 -0.1018
 2725TIP3    H129666   2.630   1.244  13.762  0.5573  0.2147  0.0106
 2725TIP3    H229667   2.598   1.137  13.864  1.0245  0.4703  0.4267
 2726TIP3   OH229668   3.664   2.560  12.524 -0.4375  0.5623 -0.1290
 2726TIP3    H129669   3.641   2.488  12.582 -0.2227 -0.9389 -1.8121
 2726TIP3    H229670   3.587   2.570  12.467  0.7676 -0.6762 -2.0976
 2727TIP3   OH229671   5.956   1.551   3.399  0.3851  0.1306  0.0980
 2727TIP3    H129672   5.921   1.636   3.372 -1.3808 -0.6712 -0.2554
 2727TIP3    H229673   5.963   1.501   3.318 -0.2713 -0.6467  0.5097
 2728TIP3   OH229674   6.139   4.922  11.774 -0.4633  0.0450  0.0624
 2728TIP3    H129675   6.053   4.944  11.811 -1.3475  1.3511 -2.5311
 2728TIP3    H229676   6.122   4.846  11.718  0.8327 -1.8562  2.0755
 2729TIP3   OH229677   6.430   6.745  11.376  0.0244  0.0277  0.6033
 2729TIP3    H129678   6.341   6.739  11.410 -0.0697  3.5447  1.3896
 2729TIP3    H229679   6.423   6.807  11.303  1.7280 -0.2035  0.1951
 2730TIP3   OH229680   6.353   3.817   4.829  0.0215  0.0775 -0.6019
 2730TIP3    H129681   6.428   3.779   4.784 -0.7219 -0.1692 -1.6674
 2730TIP3    H229682   6.313   3.874   4.765 -1.9985 -1.5023 -0.8528
 2731TIP3   OH229683   5.645   0.778   4.492  0.1805  0.1783  0.3806
 2731TIP3    H129684   5.704   0.852   4.504  0.0682  0.2892  0.2439
 2731TIP3    H229685   5.568   0.800   4.545  0.2722  0.0202  0.5822
 2732TIP3   OH229686   2.078   3.280  15.982  0.3419 -0.1873 -0.2903
 2732TIP3    H129687   2.005   3.326  15.940 -0.0361 -0.4567  0.0582
 2732TIP3    H229688   2.037   3.230  16.053  0.8401 -0.5068 -0.2210
 2733TIP3   OH229689   0.729   6.444   2.200 -0.3139  0.5597  0.0102
 2733TIP3    H129690   0.789   6.413   2.268 -2.7401 -0.4272  1.8846
 2733TIP3    H229691   0.760   6.532   2.179  2.1905 -0.1865  0.2800
 2734TIP3   OH229692   4.686   5.198  13.620  0.4673  0.2336  0.5055
 2734TIP3    H129693   4.708   5.279  13.575  3.7102  0.3554  2.0166
 2734TIP3    H229694   4.717   5.129  13.562  1.3385  0.2648  0.9145
 2735TIP3   OH229695   5.430   6.066  16.503 -0.1337 -0.5359 -0.4029
 2735TIP3    H129696   5.412   5.971  16.503  0.2785 -0.7934  3.6290
 2735TIP3    H229697   5.497   6.077  16.570 -0.3652  2.6731 -0.5760
 2736TIP3   OH229698   6.780   1.171  11.312  0.4145 -0.0612  0.7681
 2736TIP3    H129699   6.753   1.224  11.387 -0.6035 -1.4097  1.3991
 2736TIP3    H229700   6.706   1.175  11.252  0.9519  0.4587  0.1325
 2737TIP3   OH229701   2.010   3.322   1.626  0.0676  0.2680  0.0290
 2737TIP3    H129702   2.040   3.319   1.535  2.3195  0.8740  0.6898
 2737TIP3    H229703   2.026   3.412   1.654  3.0578 -0.7561  2.0963
 2738TIP3   OH229704   4.729   2.985  13.893  0.3452  0.3758 -0.1730
 2738TIP3    H129705   4.657   3.047  13.894 -0.0096 -0.0402  0.5702
 2738TIP3    H229706   4.737   2.955  13.984  1.5913  0.5766 -0.1938
 2739TIP3   OH229707   6.226   3.869   4.121 -0.7551  0.1510 -0.0830
 2739TIP3    H129708   6.138   3.892   4.150 -1.7024 -0.2266 -2.4079
 2739TIP3    H229709   6.232   3.906   4.033  1.1476 -0.4848 -0.2627
 2740TIP3   OH229710   0.320   1.632  16.924 -0.1495  0.7021  0.9809
 2740TIP3    H129711   0.259   1.622  16.850  0.7196  1.2841  0.1706
 2740TIP3    H229712   0.387   1.565  16.909  0.5218  1.4146  0.7331
 2741TIP3   OH229713   3.036   2.108   3.361 -0.7689  0.9890  0.4531
 2741TIP3    H129714   3.095   2.179   3.337 -1.8060  1.1913 -1.8523
 2741TIP3    H229715   2.989   2.141   3.438  1.9481  0.8416  2.3003
 2742TIP3   OH229716   1.758   5.646  14.685 -0.7650  0.3351  0.4852
 2742TIP3    H129717   1.812   5.725  14.687  0.2621 -0.2699 -1.2171
 2742TIP3    H229718   1.706   5.651  14.765 -2.3480  3.8527 -0.5395
 2743TIP3   OH229719   1.311   1.116   1.571 -0.1505  0.3767  0.8552
 2743TIP3    H129720   1.327   1.206   1.600  0.7939 -0.1424  2.0489
 2743TIP3    H229721   1.383   1.097   1.510 -0.9249  0.7474 -0.2051
 2744TIP3   OH229722   6.521   3.606   1.517  0.4457  0.1972  0.0856
 2744TIP3    H129723   6.465   3.614   1.440  0.9015  1.2241 -0.1479
 2744TIP3    H229724   6.591   3.670   1.503  2.1812 -1.5927 -0.0352
 2745TIP3   OH229725   1.220   6.780   6.395 -0.1338  0.0058  0.2769
 2745TIP3    H129726   1.157   6.851   6.382 -1.5180 -1.3605 -1.0440
 2745TIP3    H229727   1.170   6.712   6.441 -0.0300 -1.5200 -1.6787
 2746TIP3   OH229728   4.486   2.126  17.135  0.0898  0.1013  0.3943
 2746TIP3    H129729   4.449   2.174  17.209 -0.3199  0.7014 -0.1941
 2746TIP3    H229730   4.569   2.170  17.116 -0.8285  1.3619 -0.8959
 2747TIP3   OH229731   4.475   3.364  14.479  0.3230 -0.2156  0.1189
 2747TIP3    H129732   4.555   3.379  14.429  0.2984 -2.0588 -0.5524
 2747TIP3    H229733   4.505   3.342  14.567  0.5537 -0.7009 -0.0785
 2748TIP3   OH229734   0.248   0.013  10.486 -0.3287  0.1145 -0.2215
 2748TIP3    H129735   0.181   0.068  10.445  0.0130 -1.0234 -2.5232
 2748TIP3    H229736   0.330   0.062  10.474 -0.3150  0.0615 -0.3474
 2749TIP3   OH229737   1.234   2.086  16.077  0.1921 -0.2484 -0.0142
 2749TIP3    H129738   1.151   2.053  16.043 -0.1506  0.4902  0.1010
 2749TIP3    H229739   1.213   2.170  16.117  1.1643  0.4817 -0.9523
 2750TIP3   OH229740   4.168   5.755  15.530  0.0236 -0.0727 -0.1764
 2750TIP3    H129741   4.162   5.748  15.435  0.9206 -0.6241 -0.1982
 2750TIP3    H229742   4.240   5.696  15.554 -0.8637 -0.7529  0.9402
 2751TIP3   OH229743   1.892   4.810   1.077  0.0921  0.4987 -0.1951
 2751TIP3    H129744   1.840   4.800   1.157  0.6903 -0.3116  0.1137
 2751TIP3    H229745   1.947   4.886   1.093 -0.1141  0.6139 -0.0257
 2752TIP3   OH229746   2.261   4.970   1.784 -0.1957  0.2766  0.7422
 2752TIP3    H129747   2.326   4.978   1.853 -0.2302 -0.7245  0.8925
 2752TIP3    H229748   2.269   4.881   1.752  0.1608  0.8603 -0.9092
 2753TIP3   OH229749   2.476   4.999   5.284  0.5511  0.2524  0.0743
 2753TIP3    H129750   2.440   4.925   5.234 -0.1038 -0.3593  1.3782
 2753TIP3    H229751   2.404   5.062   5.289  1.0530  0.9263 -0.8847
 2754TIP3   OH229752   1.158   2.052   3.742 -0.4137  0.5780  0.6061
 2754TIP3    H129753   1.064   2.065   3.752 -0.3855  0.3035  1.2447
 2754TIP3    H229754   1.178   2.090   3.656 -1.2489 -0.1270  0.0852
 2755TIP3   OH229755   3.012   4.472  13.775  0.2506 -0.2860 -0.2545
 2755TIP3    H129756   3.031   4.381  13.752 -0.6295 -0.8034  0.9944
 2755TIP3    H229757   2.920   4.485  13.753 -0.1122 -0.2462  1.2301
 2756TIP3   OH229758   5.445   3.546  12.573  0.0334 -0.3681  0.7751
 2756TIP3    H129759   5.453   3.453  12.553  0.4718 -0.3054  0.6420
 2756TIP3    H229760   5.466   3.590  12.490 -0.4250 -0.1577  0.7679
 2757TIP3   OH229761   0.411   6.683   6.005  0.3115  0.3185  0.0386
 2757TIP3    H129762   0.396   6.731   6.086  2.6949  0.7249  0.3056
 2757TIP3    H229763   0.330   6.633   5.992  0.3705 -0.9559  3.4849
 2758TIP3   OH229764   3.153   2.664   3.629 -0.1497 -0.0761  0.2169
 2758TIP3    H129765   3.058   2.660   3.619 -0.1848 -0.9824  0.8040
 2758TIP3    H229766   3.187   2.670   3.540 -0.7443  0.1128 -0.0031
 2759TIP3   OH229767   0.989   6.395   5.538 -0.4576  0.5310  0.2239
 2759TIP3    H129768   0.990   6.327   5.606  1.5336  1.8003  1.5537
 2759TIP3    H229769   0.908   6.444   5.555 -3.6135 -3.0405 -2.5896
 2760TIP3   OH229770   3.601   6.227  11.171 -0.8253  0.2946  0.3023
 2760TIP3    H129771   3.683   6.217  11.123 -0.1025  0.9885  1.3262
 2760TIP3    H229772   3.552   6.147  11.154 -0.1592  0.0925 -0.7421
 2761TIP3   OH229773   5.225   4.713  12.191 -0.2930  0.3769 -0.0656
 2761TIP3    H129774   5.163   4.679  12.126  0.3782 -0.6302 -0.2148
 2761TIP3    H229775   5.187   4.688  12.276 -1.1833  1.7164 -0.0379
 2762TIP3   OH229776   1.957   2.776   1.266 -0.4443 -0.1220  0.4640
 2762TIP3    H129777   1.953   2.837   1.340  0.4746  0.1495  0.3011
 2762TIP3    H229778   1.929   2.692   1.302  0.6889 -0.1607  1.3210
 2763TIP3   OH229779   5.351   5.580  14.215  0.1701  0.0501 -0.3014
 2763TIP3    H129780   5.442   5.554  14.228  0.3615  1.1723  0.7651
 2763TIP3    H229781   5.301   5.524  14.275  0.2490 -0.0029 -0.2855
 2764TIP3   OH229782   3.302   2.867  12.691  0.4073 -0.5213 -0.1075
 2764TIP3    H129783   3.347   2.837  12.771  1.8385  1.1084 -0.2559
 2764TIP3    H229784   3.373   2.890  12.631 -0.6399 -1.9104 -1.9907
 2765TIP3   OH229785   3.599   0.184   4.182 -0.8648  0.2223  0.4065
 2765TIP3    H129786   3.607   0.233   4.264 -1.2950  0.5118  0.2802
 2765TIP3    H229787   3.532   0.232   4.132 -0.5695  0.0788 -0.1331
 2766TIP3   OH229788   5.064   5.769  16.303  0.4847  0.2141  0.2088
 2766TIP3    H129789   4.973   5.796  16.293  0.7186  0.7408 -0.5961
 2766TIP3    H229790   5.080   5.709  16.230  0.9189  0.5246  0.0376
 2767TIP3   OH229791   0.903   2.507   3.957 -0.1480 -0.1567  0.3183
 2767TIP3    H129792   0.874   2.571   4.023 -1.6236 -0.6700  0.2110
 2767TIP3    H229793   0.860   2.425   3.983  0.7001 -0.7967 -0.2744
 2768TIP3   OH229794   3.844   6.654  16.321 -0.4027 -0.1723 -0.4907
 2768TIP3    H129795   3.839   6.727  16.260  0.8447  1.7194  1.5182
 2768TIP3    H229796   3.937   6.633  16.325 -0.5440 -0.6814  0.2844
 2769TIP3   OH229797   1.456   4.988   0.564 -0.2694 -0.3967 -0.5243
 2769TIP3    H129798   1.528   4.992   0.627  0.7401 -1.9199 -1.5042
 2769TIP3    H229799   1.474   5.059   0.502  0.1072 -0.4418 -0.4681
 2770TIP3   OH229800   3.123   6.521  12.554 -0.0925 -0.2968  0.1138
 2770TIP3    H129801   3.156   6.608  12.579  1.2270 -0.9212  0.5940
 2770TIP3    H229802   3.035   6.539  12.520  1.0824  1.5633 -2.2469
 2771TIP3   OH229803   5.686   0.965   5.200  0.3169 -0.2818  0.6277
 2771TIP3    H129804   5.705   0.963   5.106  2.8549 -1.3469  1.0832
 2771TIP3    H229805   5.591   0.968   5.205  0.1121  2.1700 -1.9591
 2772TIP3   OH229806   2.964   3.042  11.987 -0.1214 -0.1494  0.3309
 2772TIP3    H129807   2.981   2.955  11.951 -2.2079 -0.7042  0.5448
 2772TIP3    H229808   2.960   3.099  11.911  1.2543 -0.2101  0.1875
 2773TIP3   OH229809   5.206   4.236   3.245  0.0986  0.4251  0.1668
 2773TIP3    H129810   5.294   4.265   3.269 -0.7616  3.6673 -0.0983
 2773TIP3    H229811   5.180   4.295   3.174 -2.0956 -0.7650 -0.0880
 2774TIP3   OH229812   0.510   5.706  14.009  0.3081  0.2603 -0.2224
 2774TIP3    H129813   0.505   5.722  14.103  0.4903  0.5339 -0.2567
 2774TIP3    H229814   0.568   5.775  13.976 -0.8634  1.0304 -0.7394
 2775TIP3   OH229815   6.497   4.426  15.130 -0.2698 -0.6384  0.3350
 2775TIP3    H129816   6.580   4.383  15.110  0.0296 -0.0922  0.3992
 2775TIP3    H229817   6.486   4.415  15.224  2.0852  3.2905  1.3144
 2776TIP3   OH229818   5.135   1.668   4.984  0.1501  0.1660 -0.5751
 2776TIP3    H129819   5.164   1.750   4.945  0.5226  0.3604  0.0917
 2776TIP3    H229820   5.104   1.692   5.071  2.1793 -0.6540  0.4376
 2777TIP3   OH229821   3.077   6.278  15.931  0.1593  0.3895  0.3061
 2777TIP3    H129822   3.069   6.367  15.965 -1.7791 -0.6402  2.9914
 2777TIP3    H229823   2.995   6.236  15.956  0.4858 -1.8511 -1.9865
 2778TIP3   OH229824   0.632   0.535  13.372 -0.5754  0.1447 -0.6530
 2778TIP3    H129825   0.627   0.622  13.332 -3.6601 -0.2579 -1.3813
 2778TIP3    H229826   0.632   0.474  13.298 -0.5178 -0.5116 -0.1249
 2779TIP3   OH229827   0.753   0.953  10.612 -0.0102 -0.0801 -0.3092
 2779TIP3    H129828   0.817   0.894  10.651  0.1721 -0.3445 -0.9992
 2779TIP3    H229829   0.750   1.028  10.672 -1.4265 -1.4459  1.4415
 2780TIP3   OH229830   6.231   6.262  16.978 -0.1550  0.0896 -0.0782
 2780TIP3    H129831   6.323   6.278  16.999 -0.6798  2.0537  0.9280
 2780TIP3    H229832   6.233   6.225  16.889  1.6740 -1.6398  0.5953
 2781TIP3   OH229833   3.488   2.103  12.870 -0.8387 -0.6886 -0.0869
 2781TIP3    H129834   3.562   2.043  12.883  0.7474  1.0557 -0.6364
 2781TIP3    H229835   3.494   2.166  12.941 -0.9593  0.2876 -0.9227
 2782TIP3   OH229836   3.536   5.574  15.943 -0.1509 -0.3175  0.1670
 2782TIP3    H129837   3.584   5.637  15.997 -0.8503 -0.3447  0.8391
 2782TIP3    H229838   3.555   5.600  15.853 -1.4287  1.6587  0.3996
 2783TIP3   OH229839   6.648   0.182   5.834  0.1159  0.5169  0.3429
 2783TIP3    H129840   6.647   0.093   5.869  2.0933  0.1059 -0.4811
 2783TIP3    H229841   6.564   0.219   5.859 -0.2851 -1.1906  1.7205
 2784TIP3   OH229842   3.433   0.208  13.058 -0.1718 -0.2627  0.2408
 2784TIP3    H129843   3.417   0.270  13.129  0.2937  1.5418 -1.1483
 2784TIP3    H229844   3.356   0.216  13.002 -0.1170 -0.9780  0.0568
 2785TIP3   OH229845   2.306   2.942   6.003  0.0399 -0.6332 -0.3109
 2785TIP3    H129846   2.295   2.984   6.088 -0.2469 -0.8184 -0.2547
 2785TIP3    H229847   2.384   2.886   6.014  0.4653 -0.0701 -0.4093
 2786TIP3   OH229848   0.914   6.546  12.286  0.3850 -0.2588  0.1053
 2786TIP3    H129849   0.914   6.541  12.191 -1.1469 -2.1787  0.1478
 2786TIP3    H229850   1.007   6.549  12.310  0.8055  2.3377 -1.4514
 2787TIP3   OH229851   6.721   4.644  12.020 -0.0245  0.3573  0.1250
 2787TIP3    H129852   6.729   4.733  12.056 -1.1821  0.4974  0.0866
 2787TIP3    H229853   6.726   4.587  12.096 -3.2359  0.6901  0.7295
 2788TIP3   OH229854   5.634   2.489   4.318 -0.2421 -0.1169 -0.2072
 2788TIP3    H129855   5.628   2.582   4.298  1.4748 -0.2744 -1.6420
 2788TIP3    H229856   5.689   2.453   4.249 -0.6272 -2.1581  0.4928
 2789TIP3   OH229857   1.079   0.603  12.473  0.2515  0.4825  0.8873
 2789TIP3    H129858   1.106   0.682  12.425  1.4489  0.0729  0.8561
 2789TIP3    H229859   0.990   0.622  12.503  0.7606  2.1158  1.4585
 2790TIP3   OH229860   3.507   1.467   2.533 -0.3198  0.0451 -0.1685
 2790TIP3    H129861   3.503   1.527   2.458  2.0206  0.8149  0.2418
 2790TIP3    H229862   3.581   1.499   2.585  1.7468 -3.7452 -0.4580
 2791TIP3   OH229863   1.761   0.854  12.745 -0.4809  0.3960  0.4829
 2791TIP3    H129864   1.745   0.843  12.839  1.2941  1.0272  0.8881
 2791TIP3    H229865   1.822   0.785  12.722 -0.0614  0.9011  0.0410
 2792TIP3   OH229866   6.299   6.017   0.042 -0.0830  0.1148 -0.2332
 2792TIP3    H129867   6.340   6.093   0.083  1.3687  0.3737 -2.0566
 2792TIP3    H229868   6.216   6.050   0.007  0.8329  1.0755 -1.5956
 2793TIP3   OH229869   2.062   1.996   4.605  0.1562  0.5667  0.5987
 2793TIP3    H129870   2.073   1.906   4.575  0.8555 -0.3251  3.2766
 2793TIP3    H229871   1.985   2.028   4.557 -1.0784 -1.9860  0.7324
 2794TIP3   OH229872   0.595   3.015  12.221 -0.3553 -0.2627 -0.3812
 2794TIP3    H129873   0.633   2.940  12.176  1.3081  0.5051 -0.3662
 2794TIP3    H229874   0.671   3.066  12.250 -1.3145 -0.3568  2.7179
 2795TIP3   OH229875   1.148   5.196  17.035  0.0882 -0.1389  0.5371
 2795TIP3    H129876   1.176   5.239  17.116  0.6720  0.9287 -0.2106
 2795TIP3    H229877   1.210   5.227  16.969 -1.4008  0.3909 -0.6747
 2796TIP3   OH229878   4.128   0.862  16.313 -0.5237 -0.2102  0.0421
 2796TIP3    H129879   4.118   0.900  16.400  1.0096  0.9516 -0.2419
 2796TIP3    H229880   4.197   0.796  16.324 -2.5069 -2.3699  0.3256
 2797TIP3   OH229881   1.383   5.250  12.971 -0.0855 -0.0753 -0.4873
 2797TIP3    H129882   1.453   5.188  12.992  0.6687  0.8351 -0.2376
 2797TIP3    H229883   1.332   5.256  13.052 -0.2196 -0.4289 -0.5421
 2798TIP3   OH229884   2.914   4.977   1.253  0.1532 -0.1626 -0.4160
 2798TIP3    H129885   2.933   4.996   1.161 -2.4251  1.1122 -0.7805
 2798TIP3    H229886   2.830   5.021   1.269 -0.4407 -2.0117  2.0025
 2799TIP3   OH229887   2.972   0.167  15.883 -0.2648  0.2363  0.0158
 2799TIP3    H129888   3.044   0.223  15.913  1.6333 -2.0669 -0.0428
 2799TIP3    H229889   2.920   0.225  15.827  1.2378  2.1145  0.4248
 2800TIP3   OH229890   4.977   2.789   0.636 -0.8302 -0.2916  0.1956
 2800TIP3    H129891   5.053   2.737   0.663  0.6637  1.2828 -0.7407
 2800TIP3    H229892   4.908   2.725   0.622  0.9773 -2.0909 -1.1423
 2801TIP3   OH229893   0.544   3.264   3.197  0.1025 -0.0818 -0.0938
 2801TIP3    H129894   0.469   3.259   3.256  0.3225  2.3294  0.4957
 2801TIP3    H229895   0.549   3.178   3.156 -1.3001 -1.1647  1.8953
 2802TIP3   OH229896   3.595   3.287  16.816  0.0568  0.5672  0.2374
 2802TIP3    H129897   3.667   3.322  16.869  0.3556 -0.6128  0.6380
 2802TIP3    H229898   3.518   3.297  16.872 -0.0232  1.3858 -0.0030
 2803TIP3   OH229899   0.880   4.339   4.858  0.1919 -0.6307 -0.2505
 2803TIP3    H129900   0.848   4.335   4.948 -0.5156 -0.7712 -0.5048
 2803TIP3    H229901   0.821   4.399   4.814 -1.7440 -3.2725 -1.5015
 2804TIP3   OH229902   1.574   4.635  11.608 -0.1432  0.0013 -0.1958
 2804TIP3    H129903   1.537   4.554  11.572 -1.2317 -0.1629  1.2150
 2804TIP3    H229904   1.665   4.634  11.579 -0.3903 -1.2257 -1.0341
 2805TIP3   OH229905   5.037   1.407   2.625 -0.2669 -0.1460 -0.0313
 2805TIP3    H129906   5.017   1.438   2.713 -1.6464  0.0625 -0.3912
 2805TIP3    H229907   4.973   1.451   2.569 -0.3277 -1.3315 -0.9449
 2806TIP3   OH229908   0.894   5.277   5.593 -0.3781 -0.5409 -0.2979
 2806TIP3    H129909   0.799   5.286   5.587 -0.3649 -0.0119  0.2354
 2806TIP3    H229910   0.914   5.294   5.685  0.0085 -2.9159  0.1134
 2807TIP3   OH229911   0.140   2.628  16.483 -0.4990 -0.4801  0.2724
 2807TIP3    H129912   0.130   2.673  16.567  0.0400 -1.6147  0.9689
 2807TIP3    H229913   0.228   2.591  16.486  0.3280  1.1419 -1.6625
 2808TIP3   OH229914   1.337   4.396   2.716 -0.0890 -0.0674 -0.8122
 2808TIP3    H129915   1.400   4.430   2.653 -0.0094 -0.6400 -1.0492
 2808TIP3    H229916   1.284   4.334   2.666  0.2798 -0.8869 -0.2196
 2809TIP3   OH229917   5.106   5.832  16.555 -0.1626 -0.0284 -0.8591
 2809TIP3    H129918   5.088   5.752  16.604  0.9813 -0.9822 -1.9029
 2809TIP3    H229919   5.076   5.812  16.466  2.8355 -0.5026 -1.8760
 2810TIP3   OH229920   6.187   2.150   2.175 -0.3496  0.3372 -0.4190
 2810TIP3    H129921   6.223   2.173   2.261 -2.3638 -0.6662  0.7769
 2810TIP3    H229922   6.259   2.108   2.129  0.8482  1.1071  0.6778
 2811TIP3   OH229923   3.753   3.872  15.482 -0.5861  0.7596 -0.0900
 2811TIP3    H129924   3.748   3.962  15.450  1.8608  0.9857 -0.0392
 2811TIP3    H229925   3.708   3.874  15.566 -3.3094  1.1543 -1.4527
 2812TIP3   OH229926   4.387   6.579   5.357 -0.0483  0.1880 -0.3809
 2812TIP3    H129927   4.399   6.486   5.340 -1.0003  0.2081 -1.2305
 2812TIP3    H229928   4.460   6.621   5.312 -0.1288 -0.0796 -0.7601
 2813TIP3   OH229929   1.343   4.292  14.206  0.0929  0.0580 -0.3630
 2813TIP3    H129930   1.288   4.241  14.147  1.6951 -1.1183 -0.9256
 2813TIP3    H229931   1.363   4.373  14.158  1.3201 -0.8540 -1.4746
 2814TIP3   OH229932   0.646   4.767   1.832  0.2068  0.2144  0.7500
 2814TIP3    H129933   0.560   4.810   1.837 -0.4251 -0.8516 -0.4611
 2814TIP3    H229934   0.626   4.674   1.825  1.3626  0.0810 -1.5830
 2815TIP3   OH229935   2.103   2.254  13.606 -1.1332 -0.8623 -0.0144
 2815TIP3    H129936   2.009   2.272  13.609 -0.8087  1.0243  0.8980
 2815TIP3    H229937   2.136   2.309  13.535 -0.5301 -0.2218  0.7291
 2816TIP3   OH229938   3.737   1.974   2.215  0.2034 -0.0267 -0.0420
 2816TIP3    H129939   3.646   1.998   2.232 -0.6478 -1.5869 -2.0252
 2816TIP3    H229940   3.764   1.926   2.294 -0.5715  0.6684  0.6752
 2817TIP3   OH229941   2.576   5.306  14.630 -0.4759 -0.4531 -0.3594
 2817TIP3    H129942   2.519   5.233  14.657 -0.3327 -0.3775  0.1517
 2817TIP3    H229943   2.558   5.375  14.694  2.3746 -1.4419  1.7041
 2818TIP3   OH229944   3.164   3.488  13.933  0.0910  0.5027  0.1593
 2818TIP3    H129945   3.188   3.546  14.005 -0.0242 -0.3176  0.8841
 2818TIP3    H229946   3.081   3.523  13.901 -0.1203  0.5907  0.7775
 2819TIP3   OH229947   3.361   6.812   3.259  0.3159 -0.1065  0.1999
 2819TIP3    H129948   3.456   6.812   3.244  0.6614  2.7980  1.5812
 2819TIP3    H229949   3.324   6.773   3.180  2.5429  2.4051 -2.3185
 2820TIP3   OH229950   6.097   6.721   0.264  0.1306 -0.7188 -0.0648
 2820TIP3    H129951   6.187   6.747   0.243  0.5629 -1.9928  0.1245
 2820TIP3    H229952   6.062   6.794   0.315  1.3505 -0.5717  0.6000
 2821TIP3   OH229953   6.748   5.989  12.784 -0.4861  0.1451  0.0619
 2821TIP3    H129954   6.838   6.013  12.805 -0.7652 -0.5113  2.2981
 2821TIP3    H229955   6.703   5.987  12.869 -2.7128  0.8266 -1.0198
 2822TIP3   OH229956   6.555   5.139   1.244  0.5491 -0.0239 -0.0804
 2822TIP3    H129957   6.534   5.207   1.180  0.0307 -1.1971 -1.2051
 2822TIP3    H229958   6.517   5.171   1.326 -0.4692  0.6425 -0.7774
 2823TIP3   OH229959   4.358   3.456   6.371 -0.0221  0.5489  0.2767
 2823TIP3    H129960   4.348   3.522   6.439  1.5496 -0.3580  1.4737
 2823TIP3    H229961   4.442   3.476   6.330 -1.0496  1.2227 -1.6154
 2824TIP3   OH229962   6.729   0.321  16.078 -0.0656  0.6327  0.2308
 2824TIP3    H129963   6.766   0.307  16.165  0.9580  2.2617  0.1074
 2824TIP3    H229964   6.642   0.283  16.082  1.0234 -1.9509  1.0351
 2825TIP3   OH229965   4.992   3.444   3.235 -0.5654 -0.2953  0.2921
 2825TIP3    H129966   5.074   3.483   3.267  0.3665  0.2108 -2.4343
 2825TIP3    H229967   4.928   3.465   3.302  1.0214  1.4828  1.3703
 2826TIP3   OH229968   3.417   1.834  15.612 -0.0417 -1.0047 -0.4843
 2826TIP3    H129969   3.339   1.864  15.565 -1.3044 -1.3124  1.3092
 2826TIP3    H229970   3.455   1.914  15.648 -1.3064 -1.0598  1.1583
 2827TIP3   OH229971   4.404   0.178  14.293  0.1603  0.0651  0.4111
 2827TIP3    H129972   4.332   0.116  14.281 -0.1041  0.0490  1.8923
 2827TIP3    H229973   4.476   0.125  14.328  0.0152  0.5174  1.4450
 2828TIP3   OH229974   2.320   3.947   1.531 -0.7143 -0.4288  0.1683
 2828TIP3    H129975   2.358   4.034   1.541  0.0102 -0.8026  0.7055
 2828TIP3    H229976   2.313   3.935   1.436 -0.6113  0.1216  0.0868
 2829TIP3   OH229977   5.876   0.225  15.743  0.5645 -0.0214  0.0886
 2829TIP3    H129978   5.965   0.192  15.731  0.5810  0.3170 -0.7940
 2829TIP3    H229979   5.854   0.267  15.659 -0.6038 -0.5246  0.1206
 2830TIP3   OH229980   0.184   2.791  15.898  0.4082 -0.2925  0.5899
 2830TIP3    H129981   0.178   2.885  15.881  0.5791 -0.7987 -2.9756
 2830TIP3    H229982   0.143   2.750  15.822  4.2598 -3.1615 -0.2546
 2831TIP3   OH229983   0.244   3.006  14.325 -0.5863  0.2368 -0.0075
 2831TIP3    H129984   0.310   2.954  14.281 -0.0522  1.4118 -0.6509
 2831TIP3    H229985   0.180   2.943  14.358 -0.4982 -0.7406 -1.6316
 2832TIP3   OH229986   1.376   5.961  11.984  0.4038 -0.0507 -0.2778
 2832TIP3    H129987   1.340   5.912  11.911  0.9278 -1.1556  0.1847
 2832TIP3    H229988   1.310   6.028  12.003 -0.1311 -0.3078 -1.1795
 2833TIP3   OH229989   6.318   6.379   5.990 -0.1669  0.0713  0.1919
 2833TIP3    H129990   6.327   6.409   6.080  0.9707  4.6505 -1.1575
 2833TIP3    H229991   6.228   6.404   5.966  0.4907  1.6930 -0.7109
 2834TIP3   OH229992   6.825   5.810   3.279 -0.3542  0.2668 -0.4446
 2834TIP3    H129993   6.794   5.835   3.366 -1.1023 -0.6136 -0.4358
 2834TIP3    H229994   6.745   5.785   3.232  0.2967 -2.1827 -0.3910
 2835TIP3   OH229995   2.192   1.211  12.772 -0.1583 -0.6663  0.3067
 2835TIP3    H129996   2.135   1.169  12.836  0.2328 -0.7112  0.6301
 2835TIP3    H229997   2.133   1.242  12.703 -0.5611 -0.7743  0.6027
 2836TIP3   OH229998   2.592   0.645  16.937  0.1607 -0.0389 -0.1029
 2836TIP3    H129999   2.533   0.626  17.009 -0.0213 -0.1924 -0.2910
 2836TIP3    H230000   2.661   0.699  16.976 -0.5135  0.7991 -0.0464
 2837TIP3   OH230001   6.700   4.815  11.130  0.3478 -0.6059  0.1342
 2837TIP3    H130002   6.684   4.875  11.057  0.4802  1.4064  1.6651
 2837TIP3    H230003   6.626   4.755  11.128 -0.4185  0.3268 -0.7814
 2838TIP3   OH230004   6.036   2.787  11.373  0.3321  0.8051  0.5736
 2838TIP3    H130005   5.941   2.781  11.361  0.4438 -1.4479  0.4188
 2838TIP3    H230006   6.057   2.877  11.350 -1.8505  1.5641  1.2633
 2839TIP3   OH230007   4.717   3.127  12.318 -0.0510 -0.3300 -0.8844
 2839TIP3    H130008   4.641   3.156  12.369  0.8741 -0.0961  0.4074
 2839TIP3    H230009   4.722   3.033  12.333  1.6670  0.0767  1.5661
 2840TIP3   OH230010   3.208   0.374  12.903  0.6920 -0.1566 -0.3341
 2840TIP3    H130011   3.156   0.297  12.924 -1.0187  0.2511 -2.7368
 2840TIP3    H230012   3.146   0.438  12.869  2.3408  1.5794 -0.3171
 2841TIP3   OH230013   5.873   4.838  11.425 -0.3896 -0.2365  0.0834
 2841TIP3    H130014   5.849   4.895  11.499 -1.8477 -1.3135  0.4790
 2841TIP3    H230015   5.789   4.810  11.388  0.3163 -1.0529 -0.9492
 2842TIP3   OH230016   4.958   0.860   0.760 -0.0105 -0.1181 -0.1785
 2842TIP3    H130017   4.935   0.792   0.823 -0.4891 -0.0005 -0.2238
 2842TIP3    H230018   4.997   0.813   0.687  1.2035 -0.1926  0.5019
 2843TIP3   OH230019   1.279   2.334  15.854 -0.0204 -0.4935  0.0443
 2843TIP3    H130020   1.276   2.387  15.775  0.1972 -1.0506 -0.3458
 2843TIP3    H230021   1.334   2.383  15.915 -1.5411  0.7704  0.4872
 2844TIP3   OH230022   1.059   4.402  12.879 -0.4706  0.2784 -0.0675
 2844TIP3    H130023   1.020   4.365  12.959 -1.9197  0.7688 -0.5059
 2844TIP3    H230024   1.055   4.331  12.815 -0.2852  0.2058  0.0023
 2845TIP3   OH230025   1.496   5.829  10.235 -0.1173  0.5239  0.3781
 2845TIP3    H130026   1.423   5.865  10.185 -0.8165  0.6192  1.4527
 2845TIP3    H230027   1.556   5.903  10.246 -1.6883  1.5600  2.8465
 2846TIP3   OH230028   6.702   6.167  13.804 -0.0705  0.7272 -0.3702
 2846TIP3    H130029   6.716   6.100  13.737 -0.3019  1.7982 -1.5270
 2846TIP3    H230030   6.786   6.212  13.810 -0.1253  0.7958 -0.1202
 2847TIP3   OH230031   6.127   1.755   3.543 -0.2836 -0.1949  0.2339
 2847TIP3    H130032   6.199   1.815   3.565 -0.7218 -0.4423  2.5932
 2847TIP3    H230033   6.146   1.727   3.453  2.4817 -0.1333  0.7098
 2848TIP3   OH230034   5.487   5.893  15.464  0.1361  0.6216 -0.0799
 2848TIP3    H130035   5.449   5.980  15.476  1.2913  1.3300 -1.2430
 2848TIP3    H230036   5.423   5.833  15.501 -1.2025  1.8952 -0.2630
 2849TIP3   OH230037   5.039   0.165   3.397  0.2975 -0.3396 -0.6555
 2849TIP3    H130038   5.064   0.131   3.483 -0.5286  0.1181 -0.2201
 2849TIP3    H230039   5.097   0.240   3.384 -0.9028  0.8391  0.4399
 2850TIP3   OH230040   2.407   4.142  14.395  0.3472 -0.5786 -0.1243
 2850TIP3    H130041   2.351   4.065  14.393 -1.0756  0.4143 -0.4328
 2850TIP3    H230042   2.438   4.152  14.305  0.9228 -1.0471  0.0170
 2851TIP3   OH230043   0.681   0.361   5.041  0.3350 -0.0763 -0.2122
 2851TIP3    H130044   0.717   0.397   4.960  0.8956 -1.2239 -0.4990
 2851TIP3    H230045   0.604   0.415   5.059  2.2937  2.6847  0.5831
 2852TIP3   OH230046   2.239   4.649   4.669 -0.0829  0.1500  0.0480
 2852TIP3    H130047   2.225   4.561   4.705  1.5565 -0.2878 -0.2940
 2852TIP3    H230048   2.158   4.668   4.621 -0.2471 -1.4235 -0.3646
 2853TIP3   OH230049   0.238   1.096   2.363  0.0828  0.2496 -0.3147
 2853TIP3    H130050   0.267   1.005   2.354  2.2966  0.6099  2.0425
 2853TIP3    H230051   0.260   1.136   2.279  0.4116 -1.0470 -0.8778
 2854TIP3   OH230052   4.145   1.880  11.736  0.0418 -0.4082  0.4238
 2854TIP3    H130053   4.112   1.912  11.819 -1.8596 -3.8620  1.1806
 2854TIP3    H230054   4.067   1.856  11.686  1.1951 -2.6092 -0.4873
 2855TIP3   OH230055   6.296   0.240   4.547  0.0553  0.7399  0.0642
 2855TIP3    H130056   6.204   0.238   4.573 -0.0312 -1.0989 -0.2747
 2855TIP3    H230057   6.295   0.238   4.451  0.4557  0.8277  0.0532
 2856TIP3   OH230058   2.147   0.259   3.617 -0.2489  0.4398 -0.5903
 2856TIP3    H130059   2.106   0.343   3.640 -1.8358 -0.2202 -0.9263
 2856TIP3    H230060   2.121   0.243   3.526  1.9383  0.6506 -1.3373
 2857TIP3   OH230061   5.872   1.008   3.873  0.2623  0.2779  0.0387
 2857TIP3    H130062   5.862   0.972   3.785  0.0243 -0.1960  0.2602
 2857TIP3    H230063   5.811   0.959   3.927  1.7360 -0.7320  0.8381
 2858TIP3   OH230064   4.195   0.293   0.354  0.3644 -0.7370 -0.1441
 2858TIP3    H130065   4.275   0.292   0.302 -1.1807  0.5385 -2.7138
 2858TIP3    H230066   4.223   0.263   0.441  3.2919 -1.8809 -1.3493
 2859TIP3   OH230067   3.275   2.202   4.408 -0.7103 -0.7113  0.5659
 2859TIP3    H130068   3.267   2.127   4.348 -0.8549 -1.7939  1.9016
 2859TIP3    H230069   3.187   2.237   4.414 -0.3729  0.5962 -1.2940
 2860TIP3   OH230070   6.246   1.883   0.579  0.0406 -0.1637 -0.2237
 2860TIP3    H130071   6.217   1.818   0.515 -1.3948 -1.9994  2.1635
 2860TIP3    H230072   6.166   1.914   0.620  0.9918 -0.7951  2.2880
 2861TIP3   OH230073   1.984   0.091   6.132 -0.0954  0.0609  0.5638
 2861TIP3    H130074   1.926   0.151   6.085  2.6735  1.7497 -1.0112
 2861TIP3    H230075   1.967   0.005   6.092 -2.8513  0.0081  1.6087
 2862TIP3   OH230076   5.197   0.032  16.705  0.5080  0.6512  0.4574
 2862TIP3    H130077   5.106   0.054  16.726 -0.0562 -0.5891 -0.5548
 2862TIP3    H230078   5.244   0.043  16.788 -1.1733 -1.7176  1.8460
 2863TIP3   OH230079   4.932   0.930   5.145 -0.1124 -0.2037 -0.2264
 2863TIP3    H130080   4.940   0.949   5.052 -0.6792  3.1401  0.3025
 2863TIP3    H230081   4.978   1.002   5.189  1.4353 -2.4266  2.1491
 2864TIP3   OH230082   2.880   6.638   5.499 -0.9510 -0.1895 -0.4116
 2864TIP3    H130083   2.884   6.647   5.595 -2.6843  0.4836 -0.3748
 2864TIP3    H230084   2.854   6.547   5.485 -0.1235 -0.4556 -0.2745
 2865TIP3   OH230085   6.720   3.376  16.207  0.2616 -0.7992 -0.5402
 2865TIP3    H130086   6.784   3.376  16.136  0.8007 -0.9808 -0.0601
 2865TIP3    H230087   6.773   3.383  16.287 -0.3879  0.4473 -0.1972
 2866TIP3   OH230088   1.971   5.601  14.221 -0.0820 -0.6879  0.1591
 2866TIP3    H130089   2.050   5.622  14.272 -0.4455  0.7878  0.1702
 2866TIP3    H230090   1.982   5.650  14.140 -0.2709 -1.7228 -0.5024
 2867TIP3   OH230091   5.053   6.714  12.305  0.0893  0.4877  0.3692
 2867TIP3    H130092   5.095   6.648  12.250 -0.7216 -0.7618  1.1842
 2867TIP3    H230093   4.983   6.750  12.250  1.0302  1.2609 -0.3522
 2868TIP3   OH230094   5.839   1.321  12.487 -0.0631 -0.4188 -0.4573
 2868TIP3    H130095   5.759   1.281  12.520 -0.5385  0.1032 -0.9593
 2868TIP3    H230096   5.908   1.285  12.543 -0.6492 -0.8197  0.0269
 2869TIP3   OH230097   6.812   1.287  16.374  0.4222 -0.1117 -0.7003
 2869TIP3    H130098   6.840   1.252  16.459  0.1017  0.1562 -0.4842
 2869TIP3    H230099   6.729   1.331  16.392  0.2617 -0.2125 -1.1890
 2870TIP3   OH230100   0.820   1.572  14.167  0.0665  0.1917  0.4159
 2870TIP3    H130101   0.749   1.592  14.107  0.5601 -0.1562 -0.3070
 2870TIP3    H230102   0.881   1.519  14.115  1.0459  0.8102  0.8974
 2871TIP3   OH230103   4.903   5.117   4.076 -0.3264 -0.7186 -0.1034
 2871TIP3    H130104   4.925   5.079   3.992  0.4949 -2.1876  0.7371
 2871TIP3    H230105   4.901   5.211   4.060 -0.4825 -0.9805 -1.8079
 2872TIP3   OH230106   1.779   3.346  13.351 -0.5531 -0.8848  0.1947
 2872TIP3    H130107   1.711   3.279  13.346 -0.9558 -0.4825  0.1133
 2872TIP3    H230108   1.733   3.428  13.330 -0.5786 -0.2492  2.4814
 2873TIP3   OH230109   1.089   5.127   2.092  0.9284  0.4198  0.1602
 2873TIP3    H130110   1.020   5.061   2.099 -1.0670  2.4670  1.5452
 2873TIP3    H230111   1.042   5.206   2.065  2.5886  2.0832  1.8741
 2874TIP3   OH230112   0.820   2.963  16.781  0.0693 -0.0026 -0.5710
 2874TIP3    H130113   0.907   2.984  16.748 -0.2481  1.7945 -0.3933
 2874TIP3    H230114   0.835   2.927  16.868  0.6355  0.0308 -0.6481
 2875TIP3   OH230115   3.409   3.907  11.074 -0.0159 -0.2355  0.3744
 2875TIP3    H130116   3.383   3.824  11.034  0.0493 -0.7142  1.2753
 2875TIP3    H230117   3.502   3.916  11.052  0.5506 -1.5018  2.0152
 2876TIP3   OH230118   4.589   2.416   4.514 -0.0164  0.5254 -0.3200
 2876TIP3    H130119   4.558   2.409   4.424  1.1582 -0.4191 -0.6757
 2876TIP3    H230120   4.676   2.375   4.513  0.0842  0.6362  1.2047
 2877TIP3   OH230121   6.670   3.304   4.925 -0.2147 -0.2032 -0.1922
 2877TIP3    H130122   6.593   3.274   4.973  0.2149 -0.0296  0.6382
 2877TIP3    H230123   6.744   3.264   4.971  0.1486 -1.5158 -1.8249
 2878TIP3   OH230124   0.943   3.312   2.439  0.0283  0.2871  0.4685
 2878TIP3    H130125   0.960   3.405   2.426  0.6539  0.1735  0.4632
 2878TIP3    H230126   0.849   3.302   2.421  0.4579  0.4579 -2.3162
 2879TIP3   OH230127   6.704   3.832  13.980  0.5598  0.1288  0.5952
 2879TIP3    H130128   6.655   3.775  14.040  2.6827 -1.1469  1.2234
 2879TIP3    H230129   6.791   3.793  13.976  1.7041  2.5728 -0.0704
 2880TIP3   OH230130   6.080   6.070  14.836  0.2525 -0.1259  0.5149
 2880TIP3    H130131   6.022   6.010  14.789 -0.9138  0.2003  1.4884
 2880TIP3    H230132   6.083   6.037  14.925 -0.1571  1.0610  0.9924
 2881TIP3   OH230133   6.452   5.707   1.863  0.0273 -0.0003  0.2482
 2881TIP3    H130134   6.506   5.632   1.889  0.4098  0.6768  1.4826
 2881TIP3    H230135   6.506   5.756   1.801 -0.0738 -0.5409 -0.2692
 2882TIP3   OH230136   4.405   1.737   0.244 -0.0333  0.3675  0.1892
 2882TIP3    H130137   4.489   1.741   0.198  0.2912 -0.4981  0.6803
 2882TIP3    H230138   4.410   1.657   0.296 -1.5528 -0.2508 -0.5404
 2883TIP3   OH230139   1.752   6.128  14.347 -0.2875 -0.4486 -0.0584
 2883TIP3    H130140   1.667   6.118  14.389  0.1972  0.5556  1.2606
 2883TIP3    H230141   1.792   6.041  14.351 -1.0742 -0.8349 -0.3352
 2884TIP3   OH230142   1.213   0.567   4.801 -0.2811 -0.1961  0.0549
 2884TIP3    H130143   1.130   0.613   4.808 -0.7988 -0.7459 -1.8142
 2884TIP3    H230144   1.233   0.568   4.708  1.2304 -1.0872  0.3356
 2885TIP3   OH230145   1.571   2.869  13.825 -0.3147  0.2574 -0.1701
 2885TIP3    H130146   1.517   2.945  13.801 -1.0023 -0.2369 -0.2282
 2885TIP3    H230147   1.534   2.839  13.909  1.2788  1.2244  0.9188
 2886TIP3   OH230148   4.282   6.785  16.365  0.0828 -0.4895  0.0930
 2886TIP3    H130149   4.227   6.727  16.417  0.6551 -0.3619  0.8693
 2886TIP3    H230150   4.227   6.812  16.292 -0.7381 -0.6961  0.6206
 2887TIP3   OH230151   3.223   1.798   3.532  0.2905 -0.5891  0.0526
 2887TIP3    H130152   3.240   1.709   3.562  0.3563 -0.7515 -0.4462
 2887TIP3    H230153   3.282   1.853   3.584  1.3306 -0.9971 -0.6655
 2888TIP3   OH230154   5.108   1.996  12.483  0.1648 -0.1883  0.0375
 2888TIP3    H130155   5.050   1.997  12.559  1.1451 -2.3082  0.9104
 2888TIP3    H230156   5.051   2.016  12.409 -1.2927 -0.3121  1.0827
 2889TIP3   OH230157   4.797   2.826  13.129 -0.1616 -0.3800  0.1324
 2889TIP3    H130158   4.732   2.896  13.133  0.6583  0.4113 -0.1337
 2889TIP3    H230159   4.766   2.760  13.192 -0.7975  0.3495  0.5896
 2890TIP3   OH230160   4.097   5.725  16.489 -0.3356  0.0470  0.2716
 2890TIP3    H130161   4.117   5.633  16.474  0.5566  0.4294 -1.1189
 2890TIP3    H230162   4.004   5.732  16.467 -0.3729 -0.5005  0.2344
 2891TIP3   OH230163   1.329   6.543   3.211  0.4200  0.1251 -0.5955
 2891TIP3    H130164   1.364   6.626   3.243  2.9936 -1.0849  0.0705
 2891TIP3    H230165   1.365   6.478   3.272 -0.2583 -1.6204 -1.9783
 2892TIP3   OH230166   4.892   4.499   2.948 -0.4949  0.7442  0.2825
 2892TIP3    H130167   4.898   4.566   2.880 -1.3650  0.7450  0.1951
 2892TIP3    H230168   4.823   4.531   3.007  0.6755  1.0594  1.5246
 2893TIP3   OH230169   3.528   6.524  14.779  0.9536  0.6955 -0.0617
 2893TIP3    H130170   3.621   6.518  14.756  0.9706  0.5352  0.0451
 2893TIP3    H230171   3.514   6.452  14.841  0.7129  0.5944 -0.2313
 2894TIP3   OH230172   5.469   4.850  13.020 -0.3411 -0.2952  0.6245
 2894TIP3    H130173   5.374   4.856  13.027 -0.3866 -1.4901  1.3882
 2894TIP3    H230174   5.502   4.884  13.103  0.0411  1.9997 -0.3812
 2895TIP3   OH230175   6.091   4.928   2.048 -0.4957 -0.4580 -0.4100
 2895TIP3    H130176   6.013   4.872   2.050 -1.8632  1.3776  0.8146
 2895TIP3    H230177   6.149   4.889   2.114 -0.7754 -1.2845 -0.6405
 2896TIP3   OH230178   2.764   5.342  14.168 -0.1945  0.4898  0.6524
 2896TIP3    H130179   2.777   5.350  14.262  2.0997  0.9939  0.3524
 2896TIP3    H230180   2.847   5.307  14.135 -0.5884  1.2383 -1.2891
 2897TIP3   OH230181   2.515   3.037  13.441  0.9271 -0.1894  0.2307
 2897TIP3    H130182   2.545   3.028  13.532  1.1450 -1.0327  0.0900
 2897TIP3    H230183   2.437   3.092  13.446  1.2391  0.2047  0.8649
 2898TIP3   OH230184   6.775   5.751   2.333 -0.0637  0.2753  0.1728
 2898TIP3    H130185   6.719   5.807   2.388  1.2045  0.8623  0.9180
 2898TIP3    H230186   6.756   5.778   2.244 -0.7405  0.6812  0.4296
 2899TIP3   OH230187   1.003   0.104   2.830  0.2598  0.2778  0.1209
 2899TIP3    H130188   1.053   0.181   2.857  0.2032  1.0282 -1.7344
 2899TIP3    H230189   1.045   0.031   2.874 -0.0974  1.3958  2.4929
 2900TIP3   OH230190   0.111   5.621   3.016  0.2039 -0.0992  0.1083
 2900TIP3    H130191   0.162   5.550   3.054 -0.4327  0.0367  1.2709
 2900TIP3    H230192   0.169   5.697   3.021  0.2273 -0.1444  0.5734
 2901TIP3   OH230193   0.048   0.693  11.343  0.1536 -0.1347  0.0645
 2901TIP3    H130194   0.110   0.697  11.416 -0.1064  1.1245  0.2479
 2901TIP3    H230195  -0.001   0.775  11.349  0.3482  0.1528 -1.7377
 2902TIP3   OH230196   5.601   1.255   5.103  0.4648  1.1249  0.0066
 2902TIP3    H130197   5.582   1.303   5.022  0.2489  0.9754 -0.0325
 2902TIP3    H230198   5.555   1.172   5.092  0.6742  0.9892  0.1604
 2903TIP3   OH230199   4.159   3.834   0.685 -0.0215  0.5065 -0.7391
 2903TIP3    H130200   4.133   3.883   0.607 -1.7072  1.9209  0.6164
 2903TIP3    H230201   4.100   3.758   0.687 -1.1090  1.3387 -0.0281
 2904TIP3   OH230202   3.767   3.614  16.037 -0.0785 -0.4173 -0.3142
 2904TIP3    H130203   3.708   3.593  16.109  0.1250 -3.3404 -0.8842
 2904TIP3    H230204   3.803   3.530  16.010  1.0273  0.7669 -2.8517
 2905TIP3   OH230205   2.485   4.252   2.043 -0.6023  0.5165 -0.1810
 2905TIP3    H130206   2.533   4.275   1.964 -0.7377  1.4561  0.0018
 2905TIP3    H230207   2.478   4.334   2.092 -0.4201 -0.0716  0.8586
 2906TIP3   OH230208   5.777   4.279   4.231  0.2425 -0.0941  0.1609
 2906TIP3    H130209   5.707   4.324   4.184  1.6607  1.8381 -0.2463
 2906TIP3    H230210   5.807   4.212   4.170 -0.8464 -0.5687  0.1201
 2907TIP3   OH230211   5.318   0.646  16.820 -0.2617 -0.0264 -1.1344
 2907TIP3    H130212   5.321   0.730  16.866 -2.4127  0.5839 -1.9939
 2907TIP3    H230213   5.396   0.647  16.764  1.7055 -0.2313  1.4199
 2908TIP3   OH230214   4.182   2.269  11.996 -0.6224  0.4384 -0.3965
 2908TIP3    H130215   4.173   2.348  12.049 -2.5151  0.5670 -0.8274
 2908TIP3    H230216   4.133   2.203  12.045 -0.7807  0.0746 -1.0461
 2909TIP3   OH230217   2.267   1.730   5.146 -0.3651  0.3873  0.0202
 2909TIP3    H130218   2.208   1.796   5.182  0.1014  1.7599 -1.5634
 2909TIP3    H230219   2.287   1.762   5.058  1.6943 -0.6971  0.0271
 2910TIP3   OH230220   6.303   3.524   3.564  1.2332  0.2594 -0.1549
 2910TIP3    H130221   6.349   3.539   3.481  2.0185  0.2952  0.2799
 2910TIP3    H230222   6.265   3.609   3.586  1.8746  0.5067  0.0238
 2911TIP3   OH230223   0.079   6.086  17.020  0.5791  0.1645  0.3199
 2911TIP3    H130224   0.145   6.023  17.048  0.8986  0.1145 -0.5113
 2911TIP3    H230225  -0.001   6.058  17.063  0.8679 -0.4042  0.4987
 2912TIP3   OH230226   6.380   1.643   5.283 -0.1143 -0.1148 -0.6089
 2912TIP3    H130227   6.364   1.737   5.280 -0.3987 -0.1725 -0.8993
 2912TIP3    H230228   6.310   1.604   5.230 -0.5631 -0.5680  0.2982
 2913TIP3   OH230229   2.229   5.954   5.007 -0.2229  0.6578 -0.0682
 2913TIP3    H130230   2.149   5.943   4.955 -0.8637  0.6156  0.8955
 2913TIP3    H230231   2.197   5.975   5.095  0.8434  2.2010 -0.0079
 2914TIP3   OH230232   0.589   1.742  16.853  1.3081 -0.0042 -0.3450
 2914TIP3    H130233   0.506   1.707  16.885  0.6213  2.1805  0.4292
 2914TIP3    H230234   0.611   1.687  16.778 -0.7356 -0.7339 -0.4610
 2915TIP3   OH230235   1.402   1.031  11.694 -0.1746  0.3081  0.2470
 2915TIP3    H130236   1.307   1.031  11.680  0.0484 -0.0793 -1.5946
 2915TIP3    H230237   1.418   1.106  11.750 -1.5122  0.7884  0.0240
 2916TIP3   OH230238   2.916   6.756   0.619  0.2690  0.0591  0.2198
 2916TIP3    H130239   2.953   6.681   0.571  0.9595  0.9096 -0.6299
 2916TIP3    H230240   2.859   6.799   0.555 -0.4988 -0.0029  0.8533
 2917TIP3   OH230241   4.685   6.086   2.184  0.0411 -0.0468  0.5063
 2917TIP3    H130242   4.630   6.123   2.253  1.8931  0.8127  1.6160
 2917TIP3    H230243   4.703   5.997   2.213 -3.6742 -1.7529 -1.7182
 2918TIP3   OH230244   0.909   6.665  15.333 -0.2818 -0.1451 -0.4479
 2918TIP3    H130245   0.837   6.715  15.294  0.1565 -0.7936 -2.1433
 2918TIP3    H230246   0.881   6.652  15.424 -2.7046 -1.0347 -1.2334
 2919TIP3   OH230247   3.607   3.095   0.774  0.3231  0.3009  0.1629
 2919TIP3    H130248   3.594   3.182   0.736  1.0006  1.0903  1.6512
 2919TIP3    H230249   3.580   3.104   0.865 -1.3522 -1.5677 -0.0871
 2920TIP3   OH230250   4.768   5.926  14.193  0.1922  0.5452  0.2876
 2920TIP3    H130251   4.728   6.009  14.218  0.7303  2.1751 -3.5441
 2920TIP3    H230252   4.862   5.939  14.204  0.2630  0.3836 -0.0831
 2921TIP3   OH230253   5.208   1.450   4.839 -0.1474  0.4238  0.4324
 2921TIP3    H130254   5.286   1.466   4.787 -0.3918  1.8951  0.4681
 2921TIP3    H230255   5.205   1.523   4.901 -1.0979 -0.0619  0.9933
 2922TIP3   OH230256   0.600   2.965   1.652 -0.7621 -0.1227  0.0861
 2922TIP3    H130257   0.623   2.906   1.580 -1.0129  2.4083 -2.2261
 2922TIP3    H230258   0.677   2.966   1.709  1.3876  1.1974 -2.6246
 2923TIP3   OH230259   1.194   3.732  15.357 -0.0936 -0.7033  0.6755
 2923TIP3    H130260   1.123   3.772  15.307  0.9227 -0.8104 -0.9241
 2923TIP3    H230261   1.247   3.806  15.385 -0.0047 -0.7169  0.5442
 2924TIP3   OH230262   3.208   1.814  16.506  0.4298  0.0842  0.6927
 2924TIP3    H130263   3.235   1.878  16.571 -0.5924 -0.4063  1.6144
 2924TIP3    H230264   3.270   1.827  16.433  1.2302  1.0157  1.5100
 2925TIP3   OH230265   1.192   2.802  11.731  0.1623  0.0260  0.2535
 2925TIP3    H130266   1.144   2.835  11.655  2.5726 -0.6118 -1.6841
 2925TIP3    H230267   1.284   2.813  11.708  1.0177 -2.1337  2.1903
 2926TIP3   OH230268   1.841   5.984   0.028  0.0992 -0.0643  0.0118
 2926TIP3    H130269   1.768   5.931  -0.003  0.2350 -0.8351  0.9540
 2926TIP3    H230270   1.855   5.954   0.118  0.2786  1.4685  0.5180
 2927TIP3   OH230271   0.029   3.327  15.083  0.0612  0.4594 -0.2078
 2927TIP3    H130272   0.105   3.292  15.036 -0.5194  0.8620 -1.4719
 2927TIP3    H230273  -0.046   3.283  15.043 -0.4860  1.2594 -0.0707
 2928TIP3   OH230274   4.803   5.093   0.125 -0.3283 -0.2575  0.1808
 2928TIP3    H130275   4.753   5.171   0.103  0.1540  0.1326  0.4287
 2928TIP3    H230276   4.753   5.050   0.194 -0.3817  0.0561  0.3353
 2929TIP3   OH230277   2.803   3.792  16.726 -0.1938  0.3639  0.6455
 2929TIP3    H130278   2.722   3.741  16.728  0.3320 -0.4753  0.9963
 2929TIP3    H230279   2.775   3.882  16.743 -0.8989 -0.1322  2.3130
 2930TIP3   OH230280   1.516   1.203   1.887 -0.3919  0.1616 -0.6501
 2930TIP3    H130281   1.518   1.216   1.793 -0.4382 -0.5406 -0.7514
 2930TIP3    H230282   1.588   1.143   1.906 -0.5875  0.0308 -0.2876
 2931TIP3   OH230283   1.992   3.310  13.540 -0.2241  0.2115  0.0869
 2931TIP3    H130284   1.901   3.319  13.511  0.5863 -0.6197 -3.0895
 2931TIP3    H230285   2.003   3.217  13.558  0.0938  0.2482  0.0869
 2932TIP3   OH230286   0.038   2.788  12.135 -0.4155 -0.9085  0.2405
 2932TIP3    H130287  -0.023   2.758  12.202 -0.3623  2.8479  2.2553
 2932TIP3    H230288   0.116   2.815  12.183  1.2514 -1.7379 -1.8270
 2933TIP3   OH230289   1.086   2.639   1.659 -0.1400  0.2984  0.0218
 2933TIP3    H130290   1.076   2.544   1.668 -0.7910  0.4428  0.9542
 2933TIP3    H230291   1.086   2.672   1.749 -0.7019  1.2527 -0.3131
 2934TIP3   OH230292   6.706   2.609  15.350 -0.5157  0.1541  0.3619
 2934TIP3    H130293   6.616   2.641  15.353 -0.4363  0.4409 -0.1702
 2934TIP3    H230294   6.759   2.684  15.376 -0.4179  0.0365  0.5060
 2935TIP3   OH230295   0.792   2.688  13.324 -0.4412  0.1050  0.3396
 2935TIP3    H130296   0.886   2.668  13.323 -0.7589 -1.6080  0.7299
 2935TIP3    H230297   0.766   2.685  13.232 -0.3276 -0.5893  0.3250
 2936TIP3   OH230298   5.095   6.489  15.933 -0.2103  0.0910 -0.4495
 2936TIP3    H130299   5.100   6.395  15.949 -1.4234  0.1657  0.4813
 2936TIP3    H230300   5.007   6.503  15.898 -0.1924  0.9247 -0.1799
 2937TIP3   OH230301   2.691   3.941   2.464 -0.2891 -0.1990 -0.3251
 2937TIP3    H130302   2.646   3.868   2.507  0.8091 -1.2664 -0.9223
 2937TIP3    H230303   2.632   3.966   2.392 -0.5012 -0.7573 -0.3507
 2938TIP3   OH230304   1.239   6.476   5.380 -0.0587 -0.2507  0.6720
 2938TIP3    H130305   1.254   6.560   5.335 -1.6978 -0.7821 -0.9894
 2938TIP3    H230306   1.155   6.487   5.424 -0.0594 -0.8611  0.8313
 2939TIP3   OH230307   5.906   3.296   3.853 -0.3851 -0.4109 -0.2553
 2939TIP3    H130308   5.998   3.306   3.827 -0.6424 -0.3826 -1.1796
 2939TIP3    H230309   5.894   3.202   3.864 -0.1784 -0.3940  0.1128
 2940TIP3   OH230310   4.900   5.702   2.619 -0.1391  0.0682 -0.4229
 2940TIP3    H130311   4.933   5.752   2.693  0.0444 -0.0877 -0.3995
 2940TIP3    H230312   4.823   5.657   2.653  0.3621 -0.5742 -0.1249
 2941TIP3   OH230313   0.857   1.835  13.454 -0.7209  0.4195 -0.1703
 2941TIP3    H130314   0.879   1.869  13.540 -0.9301 -2.1101  0.9670
 2941TIP3    H230315   0.769   1.868  13.437 -1.3048 -0.3008  1.3155
 2942TIP3   OH230316   0.242   0.667   2.841  0.4805 -0.2562  0.1635
 2942TIP3    H130317   0.316   0.727   2.828  0.8924 -0.9196 -0.6304
 2942TIP3    H230318   0.190   0.709   2.909  0.4894  1.2728 -0.7176
 2943TIP3   OH230319   4.991   1.875   5.801  0.6695 -0.3964 -0.1836
 2943TIP3    H130320   5.065   1.841   5.851  0.0105 -1.1643  0.3090
 2943TIP3    H230321   4.955   1.945   5.856  0.1344 -1.0309  0.2895
 2944TIP3   OH230322   1.370   4.330   5.603 -0.7327 -0.4362  0.5863
 2944TIP3    H130323   1.416   4.369   5.677 -0.5771 -0.0178  0.2742
 2944TIP3    H230324   1.439   4.292   5.549 -0.8729 -1.0506  0.8262
 2945TIP3   OH230325   1.250   5.343   3.838 -0.1518 -0.7639  0.0173
 2945TIP3    H130326   1.276   5.373   3.925  2.0060  0.7346 -1.0336
 2945TIP3    H230327   1.155   5.352   3.836 -0.0141  2.0283  1.2938
 2946TIP3   OH230328   3.977   0.670  16.771  0.2250 -0.0829 -0.1741
 2946TIP3    H130329   4.071   0.669  16.757  0.1625 -0.0363 -0.6042
 2946TIP3    H230330   3.966   0.643  16.862  0.7646  1.6365  0.4510
 2947TIP3   OH230331   3.395   5.841   3.713  0.5297 -0.8564  0.0943
 2947TIP3    H130332   3.373   5.929   3.743 -1.1961 -1.2258  0.0215
 2947TIP3    H230333   3.430   5.854   3.625 -0.4095 -0.2851 -0.2142
 2948TIP3   OH230334   4.534   4.986  14.275  0.1744  0.6613 -0.0784
 2948TIP3    H130335   4.564   5.009  14.362  2.1898  0.6453 -0.7127
 2948TIP3    H230336   4.586   5.041  14.216  1.2363 -1.5993 -1.3785
 2949TIP3   OH230337   5.418   6.271   2.261  0.3111 -0.0780 -0.3418
 2949TIP3    H130338   5.381   6.358   2.249  0.5824 -0.1348 -1.8045
 2949TIP3    H230339   5.513   6.286   2.269  0.2303 -0.1308  0.9874
 2950TIP3   OH230340   0.828   4.756   3.918  0.0175  0.1123  0.4089
 2950TIP3    H130341   0.800   4.736   3.829 -0.2473 -0.3754  0.5985
 2950TIP3    H230342   0.881   4.835   3.909 -0.8795  0.6699 -0.0410
 2951TIP3   OH230343   4.280   5.265   0.648 -0.3939 -0.0334 -0.4421
 2951TIP3    H130344   4.292   5.239   0.557  0.5243  0.6151 -0.5221
 2951TIP3    H230345   4.363   5.243   0.691 -0.6441  0.1089  0.1352
 2952TIP3   OH230346   1.256   5.504  16.239 -0.2836 -0.0812 -0.4661
 2952TIP3    H130347   1.167   5.538  16.231  1.1022  3.6684 -1.7474
 2952TIP3    H230348   1.285   5.533  16.326  0.0521 -0.4259 -0.4596
 2953TIP3   OH230349   3.074   4.332   6.964  0.1499 -0.0546 -0.4818
 2953TIP3    H130350   3.036   4.254   7.005  0.1399 -0.1346 -0.6452
 2953TIP3    H230351   3.119   4.377   7.036  0.5506 -0.4502 -0.4873
 2954TIP3   OH230352   1.822   3.153   0.362 -0.0886 -0.4211  0.3784
 2954TIP3    H130353   1.821   3.236   0.314  0.4726 -1.9207 -2.4225
 2954TIP3    H230354   1.912   3.145   0.394  0.3687 -0.7200 -0.9066
 2955TIP3   OH230355   0.607   0.375   1.276 -0.1914 -0.7911 -0.3744
 2955TIP3    H130356   0.532   0.373   1.217 -0.0636  1.9371 -0.7589
 2955TIP3    H230357   0.682   0.394   1.219 -0.1155  2.2493  0.5351
 2956TIP3   OH230358   3.801   5.829  14.521  0.2824  0.6369  0.3113
 2956TIP3    H130359   3.797   5.734  14.531  0.3625  0.4298 -1.3693
 2956TIP3    H230360   3.730   5.862  14.576 -0.3639 -0.4672  0.1612
 2957TIP3   OH230361   2.971   4.965  12.664  0.1650  0.1614  0.0889
 2957TIP3    H130362   2.993   5.020  12.739 -0.0479  0.4449 -0.0565
 2957TIP3    H230363   2.883   4.933  12.683  0.7062 -1.0525  0.7186
 2958TIP3   OH230364   0.706   4.176   4.670  0.3218  0.1384 -0.5954
 2958TIP3    H130365   0.755   4.094   4.664  0.7205  0.4148 -1.2245
 2958TIP3    H230366   0.735   4.216   4.752  0.0460 -0.3914 -0.2312
 2959TIP3   OH230367   4.761   2.635  10.797  0.2383 -0.1255 -0.2116
 2959TIP3    H130368   4.819   2.699  10.837 -0.2498  1.5354 -2.0075
 2959TIP3    H230369   4.814   2.555  10.792  1.7780  0.8441 -0.2346
 2960TIP3   OH230370   5.214   3.967   1.439 -0.3752 -0.7080 -0.5481
 2960TIP3    H130371   5.201   3.876   1.415  0.2981 -0.7150 -0.8978
 2960TIP3    H230372   5.257   3.964   1.524 -1.4586 -0.6958  0.0180
 2961TIP3   OH230373   5.653   3.357   2.587  0.2102  0.0521  1.0560
 2961TIP3    H130374   5.716   3.427   2.566  0.2274 -0.5643 -1.2722
 2961TIP3    H230375   5.567   3.396   2.566  0.1358 -0.2772  0.7411
 2962TIP3   OH230376   1.056   3.034   2.126 -0.7767  0.6925  0.6173
 2962TIP3    H130377   0.967   3.000   2.129 -0.3865 -0.3763  1.0182
 2962TIP3    H230378   1.071   3.070   2.214 -0.1911 -0.9229  1.2306
 2963TIP3   OH230379   3.440   2.584  12.753  0.1898 -0.3588  0.2550
 2963TIP3    H130380   3.408   2.645  12.686  1.3314 -1.2617 -1.1907
 2963TIP3    H230381   3.397   2.501  12.732  3.0086 -1.5259 -1.5456
 2964TIP3   OH230382   4.930   2.592   5.046 -0.1987 -0.1939  0.2027
 2964TIP3    H130383   4.863   2.660   5.056  0.0991  0.2031 -0.4036
 2964TIP3    H230384   5.012   2.641   5.047  0.1145 -0.7040  1.2578
 2965TIP3   OH230385   0.074   1.990  13.338 -0.5790  0.1529  0.4030
 2965TIP3    H130386  -0.017   2.017  13.352 -1.2520 -1.3751 -0.7271
 2965TIP3    H230387   0.085   1.912  13.393 -0.3799 -0.4312 -0.4447
 2966TIP3   OH230388   2.076   5.684   0.504 -0.1107 -0.1691 -0.6724
 2966TIP3    H130389   2.096   5.702   0.413 -0.4789 -0.4234 -0.8061
 2966TIP3    H230390   2.161   5.667   0.545  0.1915  1.2514 -0.6667
 2967TIP3   OH230391   5.450   1.599  11.476  0.8457 -0.2766 -0.2298
 2967TIP3    H130392   5.534   1.580  11.517  0.5930 -0.6200  0.1392
 2967TIP3    H230393   5.464   1.581  11.383  0.3162 -3.5688  0.1943
 2968TIP3   OH230394   2.545   6.373  15.575 -0.1232  0.0544 -0.7987
 2968TIP3    H130395   2.515   6.453  15.619 -1.1296 -0.5733 -0.3216
 2968TIP3    H230396   2.634   6.393  15.547 -0.1381  1.1200 -0.1206
 2969TIP3   OH230397   4.565   5.813  15.140 -0.4993  0.6766 -0.0189
 2969TIP3    H130398   4.535   5.731  15.180 -0.9621  1.2291  0.8020
 2969TIP3    H230399   4.658   5.799  15.124 -0.4943  0.1239  0.4591
 2970TIP3   OH230400   2.707   6.753  11.346  0.2800  0.0309  0.4883
 2970TIP3    H130401   2.646   6.790  11.282 -0.2376  1.1470  1.5888
 2970TIP3    H230402   2.651   6.719  11.416  0.8386 -1.1170  0.3991
 2971TIP3   OH230403   1.196   4.677  16.262 -0.2008 -0.1377  0.5010
 2971TIP3    H130404   1.134   4.686  16.334  0.5983 -2.4935  1.5734
 2971TIP3    H230405   1.188   4.585  16.235  1.8778 -0.1666 -0.1897
 2972TIP3   OH230406   0.768   6.446   1.888  0.0799  0.2010  0.2364
 2972TIP3    H130407   0.689   6.500   1.889  0.4796  0.7955  0.7040
 2972TIP3    H230408   0.755   6.385   1.960 -0.1601 -0.0085  0.0157
 2973TIP3   OH230409   4.939   6.211   2.706  0.0340 -0.3970  0.2278
 2973TIP3    H130410   4.897   6.210   2.792  0.6832 -0.7073  0.5515
 2973TIP3    H230411   5.029   6.184   2.723 -0.0354 -1.2613 -0.6720
 2974TIP3   OH230412   4.263   0.300  15.562  0.1014  0.3695  0.1444
 2974TIP3    H130413   4.205   0.366  15.599  0.5228  0.6739  0.2736
 2974TIP3    H230414   4.282   0.241  15.635 -1.9064 -1.1102 -0.4383
 2975TIP3   OH230415   4.359   5.953   5.090 -1.0490  0.1009  0.0233
 2975TIP3    H130416   4.391   5.870   5.055  0.3337  0.7993 -0.4533
 2975TIP3    H230417   4.436   6.010   5.090 -2.3584  1.9983 -1.4916
 2976TIP3   OH230418   4.817   0.659   5.986  0.1994 -0.1741  0.5186
 2976TIP3    H130419   4.797   0.732   6.045 -0.7000 -0.2192  0.2885
 2976TIP3    H230420   4.759   0.673   5.911  3.0365  1.3011 -1.5945
 2977TIP3   OH230421   5.188   5.843  12.256  0.2708  0.3446 -0.2040
 2977TIP3    H130422   5.278   5.810  12.250  0.7772  1.8735 -1.9497
 2977TIP3    H230423   5.152   5.800  12.333  2.4338 -0.4632  0.4345
 2978TIP3   OH230424   3.348   1.083  13.756 -0.2607  0.2373  0.6232
 2978TIP3    H130425   3.391   1.012  13.709  0.8567  0.5145  1.1877
 2978TIP3    H230426   3.331   1.048  13.844 -1.2035  0.1382  0.4169
 2979TIP3   OH230427   5.738   3.563  13.762 -0.2945  0.7765  0.2362
 2979TIP3    H130428   5.666   3.626  13.756  0.6243  1.7176 -1.5275
 2979TIP3    H230429   5.813   3.608  13.724  1.0719 -0.4538  1.3412
 2980TIP3   OH230430   6.729   6.684   6.732 -0.1431 -0.1417  0.1820
 2980TIP3    H130431   6.772   6.649   6.654  0.4125 -0.3325  0.5661
 2980TIP3    H230432   6.748   6.620   6.800  0.0699  0.4231  0.6676
 2981TIP3   OH230433   0.685   3.092  17.135 -0.6668 -0.2655  0.1835
 2981TIP3    H130434   0.720   3.147  17.205  0.2489 -1.0491  0.3540
 2981TIP3    H230435   0.601   3.062  17.169  1.1029 -3.2052  2.3927
 2982TIP3   OH230436   2.291   3.734  16.533  0.6182 -0.2214 -0.0670
 2982TIP3    H130437   2.280   3.680  16.454  0.1093 -0.4162  0.1340
 2982TIP3    H230438   2.384   3.756  16.533  0.4897  0.3926 -1.1250
 2983TIP3   OH230439   5.113   0.502   0.134 -0.0199 -0.0873  0.4797
 2983TIP3    H130440   5.198   0.483   0.174 -0.6407 -0.9997  1.4378
 2983TIP3    H230441   5.134   0.548   0.053  1.4853 -2.1867 -0.4156
 2984TIP3   OH230442   6.006   5.440  14.448  0.3236  0.3587  0.7675
 2984TIP3    H130443   5.941   5.398  14.392 -0.3052 -0.9789  2.4048
 2984TIP3    H230444   5.956   5.502  14.501  0.9655  1.8774 -0.3137
 2985TIP3   OH230445   6.332   3.156   3.767  0.6065 -0.0245 -0.3390
 2985TIP3    H130446   6.331   3.168   3.861  1.3292 -1.1084 -0.1664
 2985TIP3    H230447   6.365   3.067   3.755  0.7664  0.1858 -1.6179
 2986TIP3   OH230448   3.669   3.528   2.034  0.6039  0.0338  0.2065
 2986TIP3    H130449   3.751   3.499   2.074 -0.1826  0.3975  2.1616
 2986TIP3    H230450   3.609   3.455   2.049  1.0421 -1.2564 -3.2204
 2987TIP3   OH230451   2.283   0.624  16.302  0.3453  0.0616  0.7689
 2987TIP3    H130452   2.307   0.692  16.364 -1.3433  2.0022 -0.5762
 2987TIP3    H230453   2.364   0.607  16.253  0.9937  0.4982  1.6667
 2988TIP3   OH230454   2.051   1.928   1.803  1.1374  0.1455  0.4095
 2988TIP3    H130455   2.038   1.833   1.813  1.8984  0.0560  0.6174
 2988TIP3    H230456   2.023   1.947   1.714  0.1535 -0.1253  0.6454
 2989TIP3   OH230457   1.201   5.086  13.126 -0.3807 -0.3399 -0.2661
 2989TIP3    H130458   1.115   5.049  13.110 -0.2350 -1.4327  1.2477
 2989TIP3    H230459   1.262   5.019  13.096 -0.0714 -0.1428 -0.0882
 2990TIP3   OH230460   3.370   6.218  12.105  0.4002  0.4132  0.0185
 2990TIP3    H130461   3.342   6.136  12.144  0.9432 -0.1521 -0.7564
 2990TIP3    H230462   3.293   6.248  12.056  0.4069  0.0413 -0.2218
 2991TIP3   OH230463   6.666   1.511  16.310 -0.4660  0.1060 -0.0039
 2991TIP3    H130464   6.648   1.605  16.309 -0.4463  0.1091 -0.2354
 2991TIP3    H230465   6.761   1.504  16.305 -0.4612  0.0772  0.1499
 2992TIP3   OH230466   1.573   3.399  10.784  0.0757 -0.5277  0.1781
 2992TIP3    H130467   1.652   3.385  10.733  0.6680 -3.2254  1.6271
 2992TIP3    H230468   1.600   3.458  10.854  0.4715 -0.4251 -0.0582
 2993TIP3   OH230469   3.242   1.995   5.923  0.4458  0.1780 -0.2304
 2993TIP3    H130470   3.186   2.071   5.938 -0.1375 -0.2188 -0.3740
 2993TIP3    H230471   3.227   1.972   5.831  0.2040 -0.4337 -0.0461
 2994TIP3   OH230472   3.921   6.526   2.765  0.0221  0.1716 -0.4655
 2994TIP3    H130473   3.863   6.453   2.745  0.2779 -0.4633  0.9792
 2994TIP3    H230474   4.007   6.485   2.777  0.1562  0.6784  0.4139
 2995TIP3   OH230475   2.274   6.182   2.617  0.2253  0.4709  0.1097
 2995TIP3    H130476   2.240   6.125   2.686  1.0147 -0.7808 -0.4943
 2995TIP3    H230477   2.195   6.218   2.575 -0.3117 -0.4659  0.2753
 2996TIP3   OH230478   3.485   5.594   4.537 -0.3824  0.0313 -1.3008
 2996TIP3    H130479   3.571   5.559   4.516 -0.3834  0.4149 -1.9544
 2996TIP3    H230480   3.478   5.674   4.485  0.0247  1.5774  0.9016
 2997TIP3   OH230481   4.327   5.871  12.251 -0.1625  0.2067 -0.4933
 2997TIP3    H130482   4.244   5.911  12.277 -0.5576 -1.3420  0.8119
 2997TIP3    H230483   4.370   5.937  12.197 -2.0910  1.1793 -0.9344
 2998TIP3   OH230484   3.818   1.893   1.414 -0.0816  0.0409 -0.1636
 2998TIP3    H130485   3.817   1.799   1.396  1.2611  0.0093 -0.1508
 2998TIP3    H230486   3.847   1.899   1.505 -1.6371  0.4302  0.3438
 2999TIP3   OH230487   5.571   4.555   5.823 -0.0869 -0.1262 -0.2714
 2999TIP3    H130488   5.549   4.535   5.913  0.3380  0.8326  0.0612
 2999TIP3    H230489   5.663   4.582   5.826  0.4158 -1.5946 -1.2369
 3000TIP3   OH230490   2.700   3.244   1.374 -0.0506  0.7766 -0.1598
 3000TIP3    H130491   2.713   3.313   1.440  0.6190  1.7922 -1.3221
 3000TIP3    H230492   2.613   3.262   1.338 -0.1874  0.5541  0.0567
 3001TIP3   OH230493   1.546   6.660  16.573  0.4862  0.1634 -0.0172
 3001TIP3    H130494   1.483   6.733  16.579  1.9713  1.3614  2.7015
 3001TIP3    H230495   1.629   6.699  16.599  1.5309 -2.3237  0.5748
 3002TIP3   OH230496   0.329   2.877  14.714  0.3712  0.6236  0.0562
 3002TIP3    H130497   0.292   2.834  14.637 -2.2428  0.7841  1.1427
 3002TIP3    H230498   0.422   2.887  14.693 -0.2578  0.7980 -3.1313
 3003TIP3   OH230499   0.408   1.308   4.923  0.7204 -0.1652  0.2654
 3003TIP3    H130500   0.431   1.382   4.981  2.4143 -0.9945  0.7318
 3003TIP3    H230501   0.467   1.317   4.849 -0.8628  0.3955 -0.9812
 3004TIP3   OH230502   5.584   0.016   2.159 -0.4260 -0.4198  0.3782
 3004TIP3    H130503   5.496   0.014   2.121 -0.7295 -2.0481  1.0523
 3004TIP3    H230504   5.625   0.095   2.124 -2.5164  0.9605  0.8853
 3005TIP3   OH230505   2.623   1.202   0.028 -0.3088 -0.4133  0.1255
 3005TIP3    H130506   2.611   1.165   0.115 -1.7655 -1.1007 -0.3292
 3005TIP3    H230507   2.716   1.189   0.008  0.8063  2.3695  2.6887
 3006TIP3   OH230508   1.031   4.703  13.370 -0.1424  0.2278 -0.1587
 3006TIP3    H130509   1.044   4.797  13.364 -2.2160  0.5519 -0.1173
 3006TIP3    H230510   0.975   4.690  13.446  1.0624 -1.1700  0.5419
 3007TIP3   OH230511   2.645   0.911  14.206  0.1327 -0.5177 -0.4189
 3007TIP3    H130512   2.718   0.947  14.156 -1.0719 -0.0230 -1.9356
 3007TIP3    H230513   2.597   0.988  14.237 -0.1825 -0.8258 -0.1361
 3008TIP3   OH230514   2.478   3.276   1.227  0.2174  0.5695 -0.2717
 3008TIP3    H130515   2.455   3.186   1.206 -2.1414  0.9049  0.5265
 3008TIP3    H230516   2.500   3.316   1.143  3.6473 -1.2494 -0.3969
 3009TIP3   OH230517   1.535   5.346   0.076  0.6256 -0.9867  0.4585
 3009TIP3    H130518   1.569   5.361   0.164 -0.0781  1.5435  0.4000
 3009TIP3    H230519   1.611   5.320   0.024  1.9256  1.4116  1.0084
 3010TIP3   OH230520   3.709   6.078   1.042  0.1544 -0.4542 -0.0687
 3010TIP3    H130521   3.659   6.160   1.040 -0.1322 -0.6174  0.3044
 3010TIP3    H230522   3.661   6.020   0.984 -0.1370 -0.6378  0.3547
 3011TIP3   OH230523   4.313   3.269   1.045 -0.0898 -0.6907 -0.3012
 3011TIP3    H130524   4.238   3.316   1.083  0.1125 -0.3538 -0.3205
 3011TIP3    H230525   4.374   3.337   1.020  0.7887 -1.0029  0.8739
 3012TIP3   OH230526   6.689   2.990  16.177 -0.2586 -0.3154  0.2821
 3012TIP3    H130527   6.757   3.057  16.190 -0.9546  0.1451  1.7369
 3012TIP3    H230528   6.706   2.926  16.246  0.0552 -1.3801 -0.7602
 3013TIP3   OH230529   4.729   4.564   3.142  0.0280  0.5374  0.0899
 3013TIP3    H130530   4.798   4.594   3.202  0.3888  0.5083 -0.3092
 3013TIP3    H230531   4.651   4.613   3.169  0.3060  0.8832  0.2698
 3014TIP3   OH230532   6.788   3.682   1.731 -0.6726  0.5161  0.3148
 3014TIP3    H130533   6.791   3.777   1.741  1.0393  0.5001  0.1692
 3014TIP3    H230534   6.820   3.666   1.642 -0.9096 -0.2101  0.3521
 3015TIP3   OH230535   6.506   6.600  10.845  0.0990 -0.6268  0.0766
 3015TIP3    H130536   6.579   6.538  10.851  0.0326 -0.7231 -0.0871
 3015TIP3    H230537   6.521   6.646  10.762 -0.5224 -1.2907 -0.4235
 3016TIP3   OH230538   3.145   3.415  16.881 -0.1885  0.1936  0.1769
 3016TIP3    H130539   3.216   3.476  16.860 -0.5837  1.4616  2.1803
 3016TIP3    H230540   3.068   3.452  16.839  0.2177 -1.0628 -1.8098
 3017TIP3   OH230541   5.734   3.659   1.009  0.8647  0.1526 -0.4146
 3017TIP3    H130542   5.777   3.683   1.091  1.0164  2.1336 -1.0220
 3017TIP3    H230543   5.674   3.732   0.992 -2.8080 -2.4207  0.3533
 3018TIP3   OH230544   1.805   6.311   0.106 -0.2376 -0.3114  0.1175
 3018TIP3    H130545   1.781   6.385   0.163  1.2374 -0.4693  0.9783
 3018TIP3    H230546   1.726   6.257   0.103 -0.3763 -0.2893  2.0229
 3019TIP3   OH230547   6.506   6.409   1.939 -0.0455  0.4057 -0.3976
 3019TIP3    H130548   6.459   6.486   1.906  0.1158  0.5284 -0.3496
 3019TIP3    H230549   6.585   6.405   1.885 -0.8572 -0.7398 -1.5552
 3020TIP3   OH230550   6.703   1.309  15.991 -0.4015  0.0483 -0.2897
 3020TIP3    H130551   6.794   1.331  15.971  0.0555 -2.1658 -0.8768
 3020TIP3    H230552   6.704   1.284  16.084 -0.8227  1.8415  0.2361
 3021TIP3   OH230553   0.391   5.601   4.843 -1.1563  0.3147 -0.5199
 3021TIP3    H130554   0.347   5.637   4.920 -1.4551 -1.1888  0.0432
 3021TIP3    H230555   0.343   5.521   4.824 -1.6624  1.0824 -2.8354
 3022TIP3   OH230556   0.244   3.475  13.883  0.2713 -0.7464  0.1509
 3022TIP3    H130557   0.277   3.386  13.892  0.2454 -0.8630 -0.8138
 3022TIP3    H230558   0.156   3.472  13.921  0.9637 -0.6544  1.8766
 3023TIP3   OH230559   4.089   0.920   5.476 -0.3243 -0.4535 -0.7250
 3023TIP3    H130560   4.020   0.977   5.509  1.6096  2.3086 -1.1548
 3023TIP3    H230561   4.135   0.889   5.555 -0.0744  0.3432 -0.5539
 3024TIP3   OH230562   4.426   5.324  13.054  0.4666  0.6999  0.0430
 3024TIP3    H130563   4.418   5.419  13.044 -0.1134  0.6412 -0.0892
 3024TIP3    H230564   4.341   5.296  13.086 -0.1370 -0.0522 -2.0744
 3025TIP3   OH230565   6.293   0.958  15.055 -0.1019  0.1774  0.3032
 3025TIP3    H130566   6.251   1.027  15.005  0.6867 -0.9566 -2.0837
 3025TIP3    H230567   6.383   0.989  15.069  0.4175 -0.5049 -1.2475
 3026TIP3   OH230568   4.347   6.213  15.629  0.1006  0.4744  0.4507
 3026TIP3    H130569   4.383   6.159  15.698  0.2647  2.2851  1.8662
 3026TIP3    H230570   4.254   6.222  15.651 -0.0512  0.3322 -0.0924
 3027TIP3   OH230571   0.751   5.997  11.435 -0.1990 -0.2293  0.1398
 3027TIP3    H130572   0.658   6.019  11.443 -0.6235 -1.7389 -0.3560
 3027TIP3    H230573   0.765   5.929  11.501  0.4221 -0.3939 -0.1588
 3028TIP3   OH230574   0.349   3.985  10.968 -0.8559 -0.0715 -0.5768
 3028TIP3    H130575   0.377   4.043  11.039  0.3557 -1.1888 -0.1068
 3028TIP3    H230576   0.261   4.015  10.946 -0.7501  1.1184  0.5164
 3029TIP3   OH230577   1.221   5.339  12.768 -0.3894 -0.5096  0.2685
 3029TIP3    H130578   1.206   5.341  12.863 -2.3392  0.3452 -0.0187
 3029TIP3    H230579   1.312   5.311  12.760 -0.2860 -1.0031  2.3761
 3030TIP3   OH230580   2.100   2.312   2.939  0.4241 -0.0682  0.1726
 3030TIP3    H130581   2.142   2.345   2.860  2.1994  0.2119  1.1837
 3030TIP3    H230582   2.131   2.222   2.948 -0.3353 -0.3417  0.1963
 3031TIP3   OH230583   1.186   0.011   6.053  0.1503 -0.2607 -0.2641
 3031TIP3    H130584   1.101   0.016   6.096 -0.6401 -0.2665 -1.7521
 3031TIP3    H230585   1.230   0.092   6.078  0.3169 -0.9041  1.6860
 3032TIP3   OH230586   3.953   6.588   0.633  0.4160 -0.3936  0.3637
 3032TIP3    H130587   4.020   6.589   0.701  0.5921  1.4406  0.2062
 3032TIP3    H230588   3.883   6.642   0.667  0.0577 -0.3161 -0.4785
 3033TIP3   OH230589   3.019   3.758   1.751 -0.2407  0.1827  0.0722
 3033TIP3    H130590   3.110   3.758   1.721 -0.3844  2.8128 -0.5866
 3033TIP3    H230591   2.968   3.774   1.672 -1.3618 -1.7382  0.3612
 3034TIP3   OH230592   6.110   3.414   6.165 -0.1276 -0.1718 -0.2231
 3034TIP3    H130593   6.200   3.399   6.195 -0.3877 -2.3363 -0.4098
 3034TIP3    H230594   6.071   3.327   6.161 -1.6628  0.5268 -1.9730
 3035TIP3   OH230595   5.109   5.298   3.951 -0.0657  0.2574 -0.1065
 3035TIP3    H130596   5.095   5.217   3.902 -1.3513  0.5379 -0.2204
 3035TIP3    H230597   5.023   5.340   3.954  0.6829  1.9153 -0.5616
 3036TIP3   OH230598   3.141   4.275  12.083  0.4738 -0.3850  0.3027
 3036TIP3    H130599   3.177   4.313  12.003 -0.8377  2.4862  0.9725
 3036TIP3    H230600   3.054   4.315  12.093  0.1159 -1.5223  2.5583
 3037TIP3   OH230601   4.127   1.779  11.367  0.1467  0.3830 -0.1104
 3037TIP3    H130602   4.129   1.858  11.420  1.3229 -0.0137  0.4668
 3037TIP3    H230603   4.133   1.707  11.430 -1.0143 -0.1774 -0.6180
 3038TIP3   OH230604   3.539   3.185   5.581 -0.1066 -0.0462 -0.3341
 3038TIP3    H130605   3.593   3.257   5.549 -0.1868 -0.8499 -2.4332
 3038TIP3    H230606   3.452   3.201   5.543  0.1136 -1.7186 -1.6700
 3039TIP3   OH230607   3.303   5.955  15.614  0.7251  0.1772  0.2762
 3039TIP3    H130608   3.274   5.871  15.576  2.9131 -0.9797  0.9566
 3039TIP3    H230609   3.336   6.004  15.539  0.3478  0.0172  0.0011
 3040TIP3   OH230610   4.522   2.574  16.764 -0.0551 -0.0221 -0.3107
 3040TIP3    H130611   4.462   2.518  16.813 -1.2086  1.1786 -0.2851
 3040TIP3    H230612   4.601   2.577  16.818 -1.0306  0.6672  1.1329
 3041TIP3   OH230613   4.014   6.080  16.724 -0.3112 -0.6944 -0.1009
 3041TIP3    H130614   3.967   6.015  16.672  0.6588 -0.8589 -0.7871
 3041TIP3    H230615   4.021   6.041  16.811  0.5568 -1.6789 -0.5885
 3042TIP3   OH230616   6.669   4.722  16.425  0.4598 -0.5921 -0.1690
 3042TIP3    H130617   6.717   4.639  16.418 -1.0770 -1.5505  0.0507
 3042TIP3    H230618   6.737   4.789  16.423  1.7746 -1.8576 -0.1694
 3043TIP3   OH230619   2.988   1.410  12.407  0.1287 -0.5713  0.5809
 3043TIP3    H130620   3.073   1.368  12.425  0.5936  0.2113  0.2811
 3043TIP3    H230621   2.971   1.463  12.485 -0.9325 -2.0293  1.3850
 3044TIP3   OH230622   3.966   6.536  15.327 -0.6028  0.2045 -0.3882
 3044TIP3    H130623   3.955   6.489  15.410 -0.6132  1.1987  0.1986
 3044TIP3    H230624   3.882   6.526  15.283 -0.3839 -0.8752 -0.5772
 3045TIP3   OH230625   3.102   3.773  15.417 -0.1857 -0.3325  0.1244
 3045TIP3    H130626   3.192   3.773  15.450  0.1328 -0.5574 -0.7258
 3045TIP3    H230627   3.090   3.861  15.380 -0.3340 -0.2900  0.2705
 3046TIP3   OH230628   4.605   4.285  12.905 -0.2894 -0.1902 -0.9050
 3046TIP3    H130629   4.619   4.379  12.889 -0.0732 -0.0116  0.2434
 3046TIP3    H230630   4.510   4.275  12.902 -0.4398  0.4232  0.6761
 3047TIP3   OH230631   2.176   0.543   4.126 -0.4279 -0.5734  0.5355
 3047TIP3    H130632   2.205   0.509   4.042 -0.9192  0.6421 -0.1429
 3047TIP3    H230633   2.161   0.636   4.111 -3.0830 -0.8103  1.2577
 3048TIP3   OH230634   4.283   2.267   3.195  0.3168 -0.2677  0.5313
 3048TIP3    H130635   4.255   2.178   3.177 -0.4665  0.1731 -0.5125
 3048TIP3    H230636   4.374   2.270   3.165 -0.5328  0.0661 -2.2706
 3049TIP3   OH230637   1.675   4.098  12.944 -0.5730 -0.1825  0.2396
 3049TIP3    H130638   1.757   4.055  12.919 -0.8160 -1.0010  0.7779
 3049TIP3    H230639   1.702   4.179  12.986 -0.0164 -0.6304  0.7656
 3050TIP3   OH230640   5.436   2.884   3.350  0.1200  0.1915  0.6584
 3050TIP3    H130641   5.454   2.976   3.369  1.1662 -0.3292  2.3718
 3050TIP3    H230642   5.374   2.858   3.419  0.9210 -0.7307  1.0453
 3051TIP3   OH230643   2.541   6.743  13.548  0.1601 -0.0476  0.2961
 3051TIP3    H130644   2.582   6.709  13.469 -0.0387 -0.3317  0.3142
 3051TIP3    H230645   2.488   6.671  13.581 -0.3744  0.3201  0.2584
 3052TIP3   OH230646   0.387   4.289   5.107 -0.4499  0.7616  0.0717
 3052TIP3    H130647   0.292   4.275   5.111 -0.5728  1.3181 -0.6557
 3052TIP3    H230648   0.401   4.371   5.155 -0.3352  0.6809  0.1765
 3053TIP3   OH230649   0.558   4.643  15.049  0.3646  0.0210  0.3676
 3053TIP3    H130650   0.554   4.716  14.987 -0.2995 -0.2053  0.1367
 3053TIP3    H230651   0.472   4.602  15.043  0.3213 -0.0569  1.3778
 3054TIP3   OH230652   3.324   3.936   1.928  0.0105  0.0253  0.0955
 3054TIP3    H130653   3.319   3.860   1.986 -2.3489  0.3575  0.4431
 3054TIP3    H230654   3.292   4.009   1.982  1.0421  1.0364 -0.6127
 3055TIP3   OH230655   3.785   5.245   5.855 -0.0324 -0.5581 -0.0706
 3055TIP3    H130656   3.769   5.175   5.918 -1.5986  0.7021  1.0144
 3055TIP3    H230657   3.702   5.255   5.808 -1.0420  2.6387  2.0398
 3056TIP3   OH230658   6.221   6.583  14.406 -0.0712 -0.3760  0.2827
 3056TIP3    H130659   6.191   6.646  14.472  2.7526 -0.4712  1.8407
 3056TIP3    H230660   6.265   6.637  14.341  1.7253 -0.5767  1.2548
 3057TIP3   OH230661   3.768   4.120  16.616  0.1567 -0.1232 -0.3910
 3057TIP3    H130662   3.750   4.142  16.525 -1.4707 -0.2530 -0.1400
 3057TIP3    H230663   3.782   4.026  16.616 -0.3400 -0.2036 -0.4623
 3058TIP3   OH230664   4.315   4.223  14.193 -0.1687 -0.0079  0.6753
 3058TIP3    H130665   4.275   4.307  14.168 -0.4581 -0.1844  0.5378
 3058TIP3    H230666   4.253   4.157  14.163 -0.1543 -0.2582  1.1869
 3059TIP3   OH230667   6.182   6.603  13.721 -0.2058 -0.2970 -0.5058
 3059TIP3    H130668   6.247   6.556  13.667  1.5204  2.0156 -0.5930
 3059TIP3    H230669   6.099   6.584  13.678  0.5845 -1.9662 -1.4432
 3060TIP3   OH230670   3.824   3.940   1.049  0.0542 -0.2490  0.0385
 3060TIP3    H130671   3.765   3.870   1.021 -0.7692  0.5083 -0.1966
 3060TIP3    H230672   3.870   3.966   0.969 -1.6739  1.3334 -0.5098
 3061TIP3   OH230673   3.169   3.001  14.078  0.2335  0.7592  0.0170
 3061TIP3    H130674   3.126   2.991  13.993  0.6615  2.3123 -0.4157
 3061TIP3    H230675   3.238   2.935  14.079 -0.6445 -0.1789 -0.2618
 3062TIP3   OH230676   1.747   3.110  13.772  0.0489 -0.2170  0.2970
 3062TIP3    H130677   1.682   3.070  13.830 -1.3774  0.9021 -0.4569
 3062TIP3    H230678   1.723   3.079  13.684  0.6067  0.1246  0.0145
 3063TIP3   OH230679   0.638   4.296  15.591 -0.0022 -0.6479  0.0037
 3063TIP3    H130680   0.582   4.219  15.591  0.8442 -1.2948 -1.5084
 3063TIP3    H230681   0.577   4.369  15.578 -0.6016 -1.2433 -0.6150
 3064TIP3   OH230682   4.221   4.131   1.926  0.7888  0.1942 -0.1556
 3064TIP3    H130683   4.218   4.079   2.007 -0.9556  2.1506  1.1506
 3064TIP3    H230684   4.267   4.211   1.952  2.3285 -0.1034 -1.7931
 3065TIP3   OH230685   3.079   5.413  14.638 -0.2435  0.9194  0.1396
 3065TIP3    H130686   3.151   5.366  14.679 -1.6862 -0.5703  1.1365
 3065TIP3    H230687   3.049   5.354  14.569 -3.2633 -0.7139  2.5775
 3066TIP3   OH230688   6.697   5.295   5.222 -0.5481 -0.3616  0.5051
 3066TIP3    H130689   6.683   5.325   5.312 -0.8759 -0.9742  0.6581
 3066TIP3    H230690   6.759   5.222   5.230  1.5126  1.2227 -0.0044
 3067TIP3   OH230691   6.768   1.909   5.298 -0.0500  0.0695  0.6036
 3067TIP3    H130692   6.733   1.901   5.210  0.6131  0.7546  0.2705
 3067TIP3    H230693   6.691   1.907   5.355 -0.4018 -1.8945  0.1376
 3068TIP3   OH230694   2.425   5.550  13.247  0.1415 -0.4347  0.2565
 3068TIP3    H130695   2.398   5.617  13.310  2.2020 -1.3404  2.2486
 3068TIP3    H230696   2.479   5.596  13.184 -1.9830  0.4953 -0.9837
 3069TIP3   OH230697   6.812   5.058   4.238  0.5708 -0.1733 -0.2574
 3069TIP3    H130698   6.756   5.131   4.211 -0.1888  0.5763  2.8538
 3069TIP3    H230699   6.892   5.100   4.270  0.6191 -0.7674  0.4436
 3070TIP3   OH230700   3.025   0.829   0.467  0.1399  0.1354 -0.3462
 3070TIP3    H130701   3.000   0.770   0.538  0.6683 -1.1306 -1.1837
 3070TIP3    H230702   2.957   0.817   0.401  0.7476 -0.2414 -0.9077
 3071TIP3   OH230703   1.666   0.980  11.864 -0.2980 -0.9351 -0.3133
 3071TIP3    H130704   1.601   0.945  11.803  0.2738 -0.5795 -1.1587
 3071TIP3    H230705   1.618   0.996  11.945 -0.8688 -2.3231 -0.3616
 3072TIP3   OH230706   1.968   4.313   4.256 -0.2947 -0.0175  0.5237
 3072TIP3    H130707   1.935   4.288   4.169  1.2682  0.3321 -0.1932
 3072TIP3    H230708   1.913   4.264   4.317 -1.8359  0.2006 -0.6290
 3073TIP3   OH230709   1.490   4.113   2.997 -0.2875 -0.2195  0.1572
 3073TIP3    H130710   1.500   4.092   2.904 -0.3209 -0.8910  0.3002
 3073TIP3    H230711   1.552   4.184   3.012  1.5124 -1.6933  0.1389
 3074TIP3   OH230712   5.916   1.452  14.559  0.4296 -0.5710 -0.1116
 3074TIP3    H130713   5.907   1.373  14.505 -0.1998  0.7721 -2.0882
 3074TIP3    H230714   5.831   1.497  14.550  0.8142  0.3843  0.8731
 3075TIP3   OH230715   1.624   6.530   0.875  0.0375 -0.0210  0.3326
 3075TIP3    H130716   1.682   6.456   0.853  1.3330  0.1176  2.9167
 3075TIP3    H230717   1.584   6.505   0.959 -2.7128  0.4884 -0.7185
 3076TIP3   OH230718   6.778   4.558   4.608  1.0113  0.5554 -0.2727
 3076TIP3    H130719   6.748   4.587   4.522  0.9762 -0.8387 -0.7586
 3076TIP3    H230720   6.698   4.525   4.650  1.1756  0.4644 -0.0338
 3077TIP3   OH230721   4.885   4.046  14.119 -0.0173 -0.1715 -0.2503
 3077TIP3    H130722   4.831   3.990  14.063  0.1054 -0.2266 -0.3136
 3077TIP3    H230723   4.974   4.033  14.087  0.3121 -1.5723  1.0764
 3078TIP3   OH230724   1.191   0.101  11.493  0.1177 -0.0200 -0.6018
 3078TIP3    H130725   1.284   0.095  11.517  0.0388  0.7760 -0.0770
 3078TIP3    H230726   1.185   0.178  11.436 -0.3665  0.4905  0.1226
 3079TIP3   OH230727   2.606   3.854  15.934  0.5446 -0.5851  0.7794
 3079TIP3    H130728   2.687   3.807  15.916 -0.0668 -0.8448 -1.7692
 3079TIP3    H230729   2.571   3.813  16.013  2.4371 -1.0627  1.4092
 3080TIP3   OH230730   1.440   3.952  12.837 -0.0403 -0.0431  0.0870
 3080TIP3    H130731   1.368   4.005  12.873 -0.1667  0.1098 -0.3802
 3080TIP3    H230732   1.517   3.982  12.884 -0.2168  0.1023  0.2862
 3081TIP3   OH230733   4.646   1.033  14.426  0.1260 -0.0879 -0.0768
 3081TIP3    H130734   4.726   1.085  14.419 -0.7163  1.2921  0.0554
 3081TIP3    H230735   4.675   0.948  14.459  1.6085  0.1339 -0.7324
 3082TIP3   OH230736   3.399   5.283  12.815 -0.2612  0.1706  0.5878
 3082TIP3    H130737   3.353   5.366  12.830 -2.8901 -1.0292 -0.2618
 3082TIP3    H230738   3.409   5.278  12.720  2.4402  0.7429  0.7849
 3083TIP3   OH230739   1.595   5.540  16.846 -0.0441  0.2103  0.1490
 3083TIP3    H130740   1.647   5.559  16.924 -0.0190 -2.4806  0.8777
 3083TIP3    H230741   1.524   5.483  16.877 -1.2461  0.7625 -1.4598
 3084TIP3   OH230742   6.137   2.013   1.599 -0.2416 -0.3091  0.1489
 3084TIP3    H130743   6.044   1.990   1.600 -0.0459 -1.1484  0.3383
 3084TIP3    H230744   6.174   1.957   1.531 -0.2455  1.6275 -1.5361
 3085TIP3   OH230745   3.941   2.746  11.604  0.2154 -0.4454 -0.4743
 3085TIP3    H130746   3.916   2.760  11.512  0.8503 -0.4786 -0.6539
 3085TIP3    H230747   3.949   2.834  11.640 -0.2371 -0.4354 -0.3934
 3086TIP3   OH230748   2.513   4.226   3.728 -0.2848 -0.2302 -0.9437
 3086TIP3    H130749   2.603   4.200   3.746 -0.3431  1.0936  1.6878
 3086TIP3    H230750   2.516   4.322   3.722 -1.4944 -0.1755 -0.9609
 3087TIP3   OH230751   4.480   3.761  11.360 -0.3012 -0.1384 -0.6318
 3087TIP3    H130752   4.520   3.677  11.337 -1.4617 -1.2875  1.3374
 3087TIP3    H230753   4.431   3.786  11.281  1.9989 -0.0217 -2.1239
 3088TIP3   OH230754   3.071   4.041   1.757 -0.3372  0.2910  0.1809
 3088TIP3    H130755   3.029   3.955   1.771  0.1653 -0.3106 -1.7448
 3088TIP3    H230756   3.099   4.067   1.844 -1.1140 -1.1815  0.9287
 3089TIP3   OH230757   1.805   5.150   5.214 -0.1692  0.3001 -0.5215
 3089TIP3    H130758   1.764   5.200   5.143 -1.9690 -0.1110  0.1562
 3089TIP3    H230759   1.763   5.064   5.210 -0.2291  0.2237  0.9253
 3090TIP3   OH230760   6.487   5.555   3.685  0.7195 -0.0733 -0.3256
 3090TIP3    H130761   6.486   5.630   3.744  1.3547 -0.5126  0.2674
 3090TIP3    H230762   6.556   5.574   3.622  0.0711  0.3764 -0.9046
 3091TIP3   OH230763   4.328   6.787  10.959  0.0573  0.1838  0.2113
 3091TIP3    H130764   4.338   6.798  10.865  1.0919  0.9496  0.3981
 3091TIP3    H230765   4.376   6.860  10.998 -0.7910  0.1765  1.3295
 3092TIP3   OH230766   1.628   4.797   1.879 -0.5998 -0.3145 -0.0585
 3092TIP3    H130767   1.620   4.793   1.975 -1.1137 -0.9121 -0.1158
 3092TIP3    H230768   1.569   4.868   1.853 -1.0474 -0.6491  0.0170
 3093TIP3   OH230769   2.870   2.662  17.190  0.6551  0.5021 -0.3391
 3093TIP3    H130770   2.876   2.569  17.170  0.5534  0.1337  1.2170
 3093TIP3    H230771   2.893   2.706  17.108  0.3910 -0.8800 -1.1882
 3094TIP3   OH230772   2.414   0.521   5.901  0.2752 -0.1579  0.6184
 3094TIP3    H130773   2.326   0.533   5.937  0.6572 -0.6328  1.7318
 3094TIP3    H230774   2.431   0.427   5.910  1.6867  0.2194  2.2952
 3095TIP3   OH230775   1.848   6.085  13.092  0.2295 -0.1456  0.1904
 3095TIP3    H130776   1.853   6.017  13.160  1.0255 -0.1710  0.1109
 3095TIP3    H230777   1.829   6.036  13.012 -1.8707 -0.0159  0.5435
 3096TIP3   OH230778   4.969   3.157   2.658 -0.0919 -0.1110  0.1057
 3096TIP3    H130779   5.061   3.145   2.683 -0.1899  1.7136  1.6177
 3096TIP3    H230780   4.955   3.252   2.664 -2.0991 -0.3524 -0.0028
 3097TIP3   OH230781   3.973   3.320   0.629  0.4082  0.0251 -0.5879
 3097TIP3    H130782   4.045   3.261   0.605  0.7722  0.2466 -0.0764
 3097TIP3    H230783   3.903   3.299   0.568 -0.0120 -1.9756  0.4919
 3098TIP3   OH230784   1.403   3.180   1.487 -0.5817 -0.1890 -0.2182
 3098TIP3    H130785   1.458   3.115   1.531 -2.0751 -0.4509  1.3346
 3098TIP3    H230786   1.454   3.205   1.409  0.4088 -2.5649 -0.4153
 3099TIP3   OH230787   5.593   3.772  14.666 -0.1001  0.2952 -0.1885
 3099TIP3    H130788   5.611   3.718  14.743  1.0043  1.3939  0.3607
 3099TIP3    H230789   5.515   3.733  14.627  0.1090 -1.1059  0.7165
 3100TIP3   OH230790   0.377   3.129  16.463 -0.1747  0.9564 -0.2916
 3100TIP3    H130791   0.416   3.209  16.499 -0.4741  1.3472 -0.8302
 3100TIP3    H230792   0.452   3.071  16.448  0.0541  1.1666  0.0092
 3101TIP3   OH230793   3.664   3.325   2.858  0.4335  0.0312  0.0494
 3101TIP3    H130794   3.707   3.368   2.932  2.3417 -1.1631 -0.2966
 3101TIP3    H230795   3.572   3.322   2.882  0.9063  0.2567  2.0858
 3102TIP3   OH230796   0.161   6.630  15.442 -0.5265 -0.7192 -0.0124
 3102TIP3    H130797   0.169   6.599  15.352 -0.1303  2.6825 -1.3098
 3102TIP3    H230798   0.252   6.637  15.473 -0.3237  1.9149 -0.9298
 3103TIP3   OH230799   0.147   0.284  17.182 -0.5360  0.3879  0.2883
 3103TIP3    H130800   0.200   0.208  17.156 -1.2643  0.2334 -0.8238
 3103TIP3    H230801   0.210   0.356  17.191 -0.0296  0.0081 -0.1426
 3104TIP3   OH230802   5.367   5.405  16.580  0.3739  1.0782 -0.0484
 3104TIP3    H130803   5.459   5.381  16.570 -0.3734 -0.9899 -4.1528
 3104TIP3    H230804   5.367   5.501  16.582  2.6364  1.1137  1.8477
 3105TIP3   OH230805   5.841   2.260   5.003 -0.1212  0.0022  0.0176
 3105TIP3    H130806   5.781   2.229   4.936  0.5783 -0.3251 -0.4683
 3105TIP3    H230807   5.921   2.208   4.991 -0.4772 -1.1365  2.0393
 3106TIP3   OH230808   2.400   4.471   1.778  0.6959  0.3823 -0.6230
 3106TIP3    H130809   2.354   4.397   1.738  0.0266  1.2883 -1.5960
 3106TIP3    H230810   2.370   4.471   1.869 -0.1817  0.1208 -0.8970
 3107TIP3   OH230811   5.906   2.815  16.729  0.5684 -0.2972  0.2213
 3107TIP3    H130812   5.915   2.859  16.644  1.0537 -0.4960  0.1610
 3107TIP3    H230813   5.818   2.836  16.758  0.6515  0.3742  0.0041
 3108TIP3   OH230814   1.651   5.756  11.325 -0.2489  0.2597 -0.0053
 3108TIP3    H130815   1.603   5.830  11.363 -0.2297 -0.2453  1.0559
 3108TIP3    H230816   1.742   5.773  11.348 -0.5215 -1.6727  3.2582
 3109TIP3   OH230817   5.841   1.166   2.594 -0.4133 -0.0555 -0.6323
 3109TIP3    H130818   5.900   1.241   2.590  1.2207 -1.0114  2.3242
 3109TIP3    H230819   5.753   1.204   2.587  0.3946  1.9355 -0.6876
 3110TIP3   OH230820   0.830   0.927   2.624 -0.3224 -0.5111  0.5227
 3110TIP3    H130821   0.891   0.997   2.598 -2.1336  0.6765 -0.6982
 3110TIP3    H230822   0.873   0.846   2.594  0.4631  0.3242 -0.7111
 3111TIP3   OH230823   5.517   2.184   3.964 -0.0471 -0.0635  0.2577
 3111TIP3    H130824   5.422   2.176   3.956 -0.0708 -0.8184  1.0864
 3111TIP3    H230825   5.550   2.095   3.949  0.7079  0.5257 -1.9314
 3112TIP3   OH230826   5.652   4.339  11.345 -0.3814 -0.5855  0.2382
 3112TIP3    H130827   5.660   4.424  11.302 -1.6368 -0.1196  0.8798
 3112TIP3    H230828   5.687   4.276  11.282 -1.5251  0.1558 -1.2007
 3113TIP3   OH230829   0.806   4.083   6.265  0.4342 -0.1932  0.4440
 3113TIP3    H130830   0.885   4.034   6.288  0.8239  0.8069  1.2816
 3113TIP3    H230831   0.838   4.170   6.239 -0.3704  0.1311  0.5110
 3114TIP3   OH230832   2.325   2.772  12.233  0.3988  0.4591  0.0397
 3114TIP3    H130833   2.333   2.844  12.296 -0.1938 -0.1097  0.7820
 3114TIP3    H230834   2.414   2.756  12.204  0.6356  0.9617  0.4688
 3115TIP3   OH230835   2.803   0.730   1.513  0.1441  0.1338 -0.2189
 3115TIP3    H130836   2.858   0.685   1.448 -2.0883 -3.0143 -0.1039
 3115TIP3    H230837   2.835   0.699   1.597  0.8955  1.6810  0.1101
 3116TIP3   OH230838   4.541   4.584  13.227  0.2356 -0.0973 -0.5669
 3116TIP3    H130839   4.503   4.574  13.140  1.6550 -2.3588 -0.9903
 3116TIP3    H230840   4.509   4.509  13.276  3.2506 -1.6187 -0.6840
 3117TIP3   OH230841   1.230   6.516   3.751  0.5136  0.2754  0.6379
 3117TIP3    H130842   1.153   6.567   3.774  0.4076  0.6138 -0.3929
 3117TIP3    H230843   1.272   6.567   3.681 -0.0481 -1.4329 -1.0247
 3118TIP3   OH230844   1.350   2.002  12.403 -0.5117  0.3521 -0.6869
 3118TIP3    H130845   1.441   1.991  12.374 -0.2048 -1.1967  0.6745
 3118TIP3    H230846   1.343   2.094  12.429  1.0477  0.2237  0.3077
 3119TIP3   OH230847   6.585   1.520   3.146 -0.4609  0.4501 -0.0711
 3119TIP3    H130848   6.602   1.572   3.225 -0.4893  1.5226 -0.7562
 3119TIP3    H230849   6.529   1.575   3.092 -1.4409 -0.7704 -0.3265
 3120TIP3   OH230850   2.736   0.506  16.618  0.4435  0.0445 -0.2869
 3120TIP3    H130851   2.690   0.485  16.537 -0.6211  1.4324 -0.0940
 3120TIP3    H230852   2.668   0.543  16.674  1.2622 -0.4431  1.0668
 3121TIP3   OH230853   3.705   1.231  13.694  0.4379  0.1537 -0.3346
 3121TIP3    H130854   3.784   1.201  13.739  0.7366  0.0448 -0.9283
 3121TIP3    H230855   3.728   1.317  13.659 -0.1919  0.7859  0.7639
 3122TIP3   OH230856   0.563   6.564   6.324 -0.2098 -0.4438 -0.4838
 3122TIP3    H130857   0.613   6.483   6.327 -0.5785 -0.6654 -0.3087
 3122TIP3    H230858   0.630   6.633   6.324  0.1939 -0.7600 -2.9853
 3123TIP3   OH230859   3.943   0.201   4.641 -0.5649  0.0131 -0.2946
 3123TIP3    H130860   4.036   0.223   4.634 -0.2344 -1.7053 -2.5552
 3123TIP3    H230861   3.898   0.276   4.605 -0.1225  1.0423  1.2063
 3124TIP3   OH230862   2.004   1.216   0.667 -0.2487  0.5332  0.0730
 3124TIP3    H130863   1.912   1.199   0.689 -0.9153  2.1325 -1.2766
 3124TIP3    H230864   2.025   1.148   0.602 -0.4314  0.0902  0.4712
 3125TIP3   OH230865   0.224   4.403  12.840  0.3121 -0.0944 -0.7523
 3125TIP3    H130866   0.148   4.455  12.868  0.7032  0.0171  0.1364
 3125TIP3    H230867   0.187   4.323  12.805 -0.1969 -0.9836  1.6062
 3126TIP3   OH230868   3.343   1.967  16.682  0.1007  0.8306 -0.0128
 3126TIP3    H130869   3.310   1.926  16.761 -1.1661 -0.7759 -1.3081
 3126TIP3    H230870   3.438   1.956  16.687  0.2331  2.2484  2.0086
 3127TIP3   OH230871   1.180   1.787  14.377 -0.3515  0.0935 -0.3565
 3127TIP3    H130872   1.184   1.693  14.394 -1.3451 -0.1500 -1.3778
 3127TIP3    H230873   1.261   1.821  14.414 -0.3229 -1.0455  0.7203
 3128TIP3   OH230874   3.028   3.437   0.602 -0.7540  0.3190 -0.0421
 3128TIP3    H130875   3.035   3.343   0.618  1.1611  0.3901 -0.3088
 3128TIP3    H230876   3.055   3.448   0.511  0.6793  1.3068  0.4743
 3129TIP3   OH230877   2.250   0.301   4.382  0.0437  0.1827 -0.4728
 3129TIP3    H130878   2.169   0.306   4.331  0.9883  0.6165 -2.0092
 3129TIP3    H230879   2.270   0.393   4.403  0.1142  0.0692 -0.0294
 3130TIP3   OH230880   0.784   3.554   4.604  0.6607  0.0873  0.2941
 3130TIP3    H130881   0.762   3.472   4.649  1.2573  0.4567  1.2693
 3130TIP3    H230882   0.879   3.557   4.604  0.7298 -0.2962 -1.7497
 3131TIP3   OH230883   3.158   1.815  11.575  0.5502 -0.1321  0.2734
 3131TIP3    H130884   3.223   1.820  11.504 -0.8382 -0.6434 -1.1044
 3131TIP3    H230885   3.192   1.873  11.643  1.3638  1.3426 -1.3120
 3132TIP3   OH230886   0.556   5.778   2.366 -0.3756 -0.8082 -0.8446
 3132TIP3    H130887   0.499   5.843   2.408  1.6202  0.6588 -0.2638
 3132TIP3    H230888   0.581   5.719   2.436 -0.7166 -1.1140 -0.9784
 3133TIP3   OH230889   5.093   2.325  12.967  0.5934  0.5657  0.2395
 3133TIP3    H130890   5.075   2.384  12.894 -1.6981 -0.2806  0.0370
 3133TIP3    H230891   5.129   2.247  12.927 -1.0576 -0.0622 -0.0895
 3134TIP3   OH230892   2.168   0.947  11.902  0.0133 -0.0259 -0.6200
 3134TIP3    H130893   2.113   0.966  11.827  0.2455  0.5767 -0.6431
 3134TIP3    H230894   2.255   0.978  11.877  0.2295 -0.4026 -0.3487
 3135TIP3   OH230895   1.010   0.873  14.237  0.3502 -0.1540  0.1960
 3135TIP3    H130896   0.955   0.951  14.243  0.7580  0.2181 -0.6913
 3135TIP3    H230897   1.023   0.845  14.328 -0.5431  0.2818  0.4664
 3136TIP3   OH230898   2.045   3.435  13.782  0.1504  0.5516  0.5967
 3136TIP3    H130899   2.055   3.385  13.701 -0.2368  2.3712 -0.6338
 3136TIP3    H230900   1.950   3.442  13.793  0.2013  1.0607  0.7187
 3137TIP3   OH230901   4.136   1.418   4.786 -0.1125 -0.2224  0.5557
 3137TIP3    H130902   4.100   1.480   4.722  0.3399  0.7599  1.2145
 3137TIP3    H230903   4.068   1.409   4.852 -0.2066 -0.4863  0.4225
 3138TIP3   OH230904   2.495   0.021   1.242 -0.0157 -0.1570  0.1586
 3138TIP3    H130905   2.552   0.041   1.167 -1.1440  1.5723 -0.2788
 3138TIP3    H230906   2.540   0.060   1.317  0.0307  0.0451  0.0271
 3139TIP3   OH230907   0.558   5.241   4.228  0.0426  0.0279 -0.5206
 3139TIP3    H130908   0.601   5.201   4.304 -0.7321  0.5179  0.1928
 3139TIP3    H230909   0.539   5.168   4.170 -0.0121 -0.4582  0.0974
 3140TIP3   OH230910   1.494   1.359   2.780 -0.0415  0.1055 -0.5841
 3140TIP3    H130911   1.518   1.275   2.821 -1.7317  0.1426  0.5982
 3140TIP3    H230912   1.509   1.424   2.848 -0.9769  0.4344 -0.6734
 3141TIP3   OH230913   4.599   2.730   3.309  0.1705 -0.5006 -0.0115
 3141TIP3    H130914   4.526   2.723   3.248 -0.3957  0.3447  0.5471
 3141TIP3    H230915   4.575   2.674   3.383  0.6796 -1.2212 -0.3791
 3142TIP3   OH230916   4.844   6.581   1.766  0.2382 -0.4097 -0.0606
 3142TIP3    H130917   4.753   6.551   1.764 -0.7058  2.1656  0.2105
 3142TIP3    H230918   4.887   6.535   1.694 -1.3100 -1.5461 -0.3028
 3143TIP3   OH230919   0.727   2.483  15.430  0.3802 -0.0791 -0.1893
 3143TIP3    H130920   0.689   2.531  15.357  0.3315  1.3998  0.7677
 3143TIP3    H230921   0.674   2.508  15.506  0.6271 -1.3222  0.4216
 3144TIP3   OH230922   2.587   1.920  15.435 -0.3737  0.1981  0.9927
 3144TIP3    H130923   2.614   1.973  15.360 -0.7731  0.8312  1.2867
 3144TIP3    H230924   2.644   1.949  15.506 -0.1651 -0.2231  1.0021
 3145TIP3   OH230925   0.422   0.150  13.664 -0.3498  0.3597 -0.1563
 3145TIP3    H130926   0.487   0.081  13.661 -2.0681 -1.3191 -2.2474
 3145TIP3    H230927   0.472   0.232  13.660  1.6368 -0.8548 -1.8544
 3146TIP3   OH230928   2.671   2.460   5.904  0.6863  0.2475 -0.3415
 3146TIP3    H130929   2.662   2.503   5.819 -1.4878  1.8129  0.6099
 3146TIP3    H230930   2.643   2.526   5.968 -3.2285 -2.5304  1.2066
 3147TIP3   OH230931   6.414   3.696  11.058 -1.1004  0.4220  0.0257
 3147TIP3    H130932   6.502   3.718  11.088 -0.7268  1.0736 -1.4646
 3147TIP3    H230933   6.425   3.616  11.006 -1.5170  0.0773  0.4557
 3148TIP3   OH230934   3.033   2.327   4.016  0.1510  0.0037 -0.6200
 3148TIP3    H130935   2.980   2.248   4.003 -0.9209  0.2606  1.7791
 3148TIP3    H230936   3.012   2.356   4.104  1.3014  2.4363 -1.0703
 3149TIP3   OH230937   2.742   2.500  12.306 -0.3696  0.3973  0.0028
 3149TIP3    H130938   2.671   2.445  12.341  0.6678 -0.1297  1.3780
 3149TIP3    H230939   2.783   2.445  12.239 -0.8099  0.4230 -0.2916
 3150TIP3   OH230940   6.811   0.006  14.444  0.2219 -0.3568  0.4902
 3150TIP3    H130941   6.719   0.013  14.417  0.1705 -0.2099  0.6942
 3150TIP3    H230942   6.853  -0.045  14.375  0.5520  1.7366 -0.9745
 3151TIP3   OH230943   6.669   5.339   2.352  0.3167  0.4327  0.3425
 3151TIP3    H130944   6.693   5.247   2.343  0.6101  0.5050  0.4001
 3151TIP3    H230945   6.745   5.380   2.392  0.4358  0.8265 -0.2813
 3152TIP3   OH230946   1.112   1.555  15.569 -0.6756 -0.7435  0.1261
 3152TIP3    H130947   1.110   1.615  15.644 -0.9652  1.0350 -1.2442
 3152TIP3    H230948   1.165   1.481  15.599 -0.5834  0.0265  1.9941
 3153TIP3   OH230949   5.052   1.654  14.601 -0.1518  0.4491 -0.1072
 3153TIP3    H130950   5.089   1.633  14.515 -0.5984  1.0568 -0.4583
 3153TIP3    H230951   5.128   1.672  14.657  0.0998  2.1098 -0.9223
 3154TIP3   OH230952   0.353   0.686  16.250  0.2758 -0.2657  0.7942
 3154TIP3    H130953   0.388   0.736  16.176  1.6571  0.0159  1.5921
 3154TIP3    H230954   0.287   0.629  16.211  1.1125 -0.2844 -0.6969
 3155TIP3   OH230955   3.663   3.716  16.703  0.0009  0.6681  0.0516
 3155TIP3    H130956   3.605   3.718  16.778  0.9105  0.2385  0.7831
 3155TIP3    H230957   3.739   3.768  16.730  1.2227 -1.1174  0.1957
 3156TIP3   OH230958   4.023   0.981   3.084 -0.2201 -0.6982  0.6220
 3156TIP3    H130959   4.090   0.918   3.110 -1.6039 -2.5428 -0.0799
 3156TIP3    H230960   3.945   0.955   3.134 -0.4132  1.5288  1.5844
 3157TIP3   OH230961   1.182   2.992   5.691 -0.0487  0.1246 -0.1091
 3157TIP3    H130962   1.098   3.011   5.734  0.2748 -0.0743  0.6128
 3157TIP3    H230963   1.183   2.897   5.682 -0.6011  0.2199 -1.5754
 3158TIP3   OH230964   3.027   0.380  13.834 -1.0297  0.0313  0.9456
 3158TIP3    H130965   3.088   0.306  13.839 -0.9932 -0.0936 -0.7906
 3158TIP3    H230966   3.083   0.457  13.835 -0.7874 -0.0854 -0.7522
 3159TIP3   OH230967   3.903   0.367  13.548 -0.3354  0.1166  0.1959
 3159TIP3    H130968   3.873   0.292  13.599 -1.9032  0.7786  0.2814
 3159TIP3    H230969   3.870   0.351  13.460  1.1046 -0.2888 -0.3040
 3160TIP3   OH230970   0.508   1.113  16.443  0.5495 -0.5726  0.2177
 3160TIP3    H130971   0.475   1.201  16.459 -2.7776 -1.7964  1.0925
 3160TIP3    H230972   0.465   1.085  16.362  2.2646 -1.1055 -0.5415
 3161TIP3   OH230973   0.649   3.798   5.259  0.3159  0.5580 -0.0366
 3161TIP3    H130974   0.589   3.749   5.316 -0.5916  0.6365 -0.8904
 3161TIP3    H230975   0.693   3.731   5.207 -0.7151  0.6007 -1.0020
 3162TIP3   OH230976   6.617   3.043  14.269 -0.2036 -0.3051 -0.0281
 3162TIP3    H130977   6.529   3.074  14.253  0.0903  0.0818 -0.9914
 3162TIP3    H230978   6.674   3.109  14.229  0.4586 -1.4824 -1.1436
 3163TIP3   OH230979   6.093   2.430   2.245  0.1402 -0.3108  0.4201
 3163TIP3    H130980   6.088   2.449   2.151  0.1613 -0.7323  0.3323
 3163TIP3    H230981   6.141   2.348   2.250  0.2150 -0.2450  0.8075
 3164TIP3   OH230982   4.709   5.014   3.517 -0.4319 -0.1282  0.4120
 3164TIP3    H130983   4.651   5.089   3.521  1.9499  2.1147 -2.5660
 3164TIP3    H230984   4.760   5.018   3.598 -0.5338  1.3133  0.4170
 3165TIP3   OH230985   0.056   4.189   4.836  0.3444 -0.0258  0.0738
 3165TIP3    H130986   0.079   4.166   4.747  1.3193 -1.7251  0.7271
 3165TIP3    H230987   0.120   4.256   4.861  2.0443 -1.7355  0.4774
 3166TIP3   OH230988   1.533   4.076  13.800 -0.4042  0.1126  0.7250
 3166TIP3    H130989   1.550   4.012  13.731 -0.9386  2.2423 -1.5279
 3166TIP3    H230990   1.597   4.055  13.868  1.7139 -0.7359 -1.3735
 3167TIP3   OH230991   0.636   2.311  11.797  0.1622 -0.3451  0.6456
 3167TIP3    H130992   0.601   2.392  11.760  0.6182 -0.3112  0.2701
 3167TIP3    H230993   0.559   2.260  11.822 -0.1457 -0.1245  0.1641
 3168TIP3   OH230994   0.335   2.733  14.946 -0.5689 -0.1083  0.5054
 3168TIP3    H130995   0.285   2.654  14.965  0.8308 -1.5501 -1.3689
 3168TIP3    H230996   0.313   2.754  14.855 -1.1055  1.8393  1.0478
 3169TIP3   OH230997   2.643   1.600   2.075  0.0049  0.5722 -0.3816
 3169TIP3    H130998   2.684   1.682   2.103  1.4520  0.0570 -0.8555
 3169TIP3    H230999   2.619   1.556   2.156  0.4276  0.8967 -0.0736
 3170TIP3   OH231000   3.744   6.420   1.223  0.1151  0.5928  0.1204
 3170TIP3    H131001   3.757   6.490   1.159 -2.2606  1.0469  0.0543
 3170TIP3    H231002   3.833   6.398   1.252  1.0070  2.9408 -0.5596
 3171TIP3   OH231003   6.343   1.141  14.335  0.0490 -0.5086  0.5644
 3171TIP3    H131004   6.278   1.114  14.270 -0.3545  0.2182  0.6638
 3171TIP3    H231005   6.291   1.162  14.413  0.3201  0.8844  0.3860
 3172TIP3   OH231006   0.959   5.188   3.333  1.0866  0.3816  0.2629
 3172TIP3    H131007   0.894   5.118   3.333  2.4456 -0.9347 -0.6652
 3172TIP3    H231008   1.009   5.174   3.414  0.8413  0.7984  0.4904
 3173TIP3   OH231009   1.864   2.304   5.984 -0.2528  0.0021  1.1296
 3173TIP3    H131010   1.865   2.278   5.892 -2.3087  2.0340  0.4367
 3173TIP3    H231011   1.778   2.276   6.016  0.0766  0.1328  2.1688
 3174TIP3   OH231012   3.220   6.271   3.924 -0.0854 -0.5407  0.1786
 3174TIP3    H131013   3.163   6.196   3.942  2.2216 -2.1666  1.3125
 3174TIP3    H231014   3.222   6.318   4.007 -1.5020  0.8251 -0.5240
 3175TIP3   OH231015   3.681   3.384   1.797  0.4463  0.0933  0.1986
 3175TIP3    H131016   3.696   3.435   1.877  1.2601 -0.3835  0.3604
 3175TIP3    H231017   3.767   3.349   1.774 -0.0251 -0.8861 -0.1342
 3176TIP3   OH231018   3.252   5.487   5.507  0.1681  0.3664 -0.4236
 3176TIP3    H131019   3.332   5.525   5.543 -0.9512  2.2713  0.2481
 3176TIP3    H231020   3.217   5.434   5.578  1.0911 -0.9332 -0.9150
 3177TIP3   OH231021   1.314   6.117   3.358  0.3045 -0.0317 -0.2462
 3177TIP3    H131022   1.339   6.200   3.400  2.4986 -0.5596 -0.4057
 3177TIP3    H231023   1.353   6.050   3.414  0.2460 -0.8804 -1.2022
 3178TIP3   OH231024   3.702   5.458   0.395  0.0753  0.0905  0.2026
 3178TIP3    H131025   3.702   5.552   0.375 -0.7976  0.0291 -0.0953
 3178TIP3    H231026   3.723   5.416   0.312  3.3580  0.1031  0.8969
 3179TIP3   OH231027   5.247   1.018  11.092 -0.9302  0.0899  0.0702
 3179TIP3    H131028   5.246   1.060  11.179 -1.4422  0.6158 -0.1862
 3179TIP3    H231029   5.231   1.090  11.031 -0.5712 -0.2808 -0.4664
 3180TIP3   OH231030   5.277   6.520   1.172 -0.1831  0.6883  0.3435
 3180TIP3    H131031   5.368   6.527   1.202 -0.2493  1.9358  0.3180
 3180TIP3    H231032   5.245   6.610   1.173 -0.9416  0.4603 -1.1514
 3181TIP3   OH231033   1.990   1.664   0.799 -0.0883  0.0341  0.2092
 3181TIP3    H131034   2.072   1.647   0.753 -0.4459 -1.2329  0.0140
 3181TIP3    H231035   1.978   1.588   0.856 -2.5597 -1.2700 -1.8723
 3182TIP3   OH231036   0.807   0.523   4.446 -0.7053 -0.2726  0.3006
 3182TIP3    H131037   0.876   0.531   4.381 -0.3652 -0.5938  0.6084
 3182TIP3    H231038   0.734   0.574   4.412 -0.3359  0.0154 -0.0614
 3183TIP3   OH231039   4.990   4.499  14.244 -1.2659  0.1375  0.0300
 3183TIP3    H131040   4.951   4.422  14.204 -0.8401 -0.2150  0.2822
 3183TIP3    H231041   5.055   4.529  14.180 -0.3299 -0.6383  0.5908
 3184TIP3   OH231042   1.445   4.783  14.159  0.9233 -0.2697  0.0499
 3184TIP3    H131043   1.352   4.804  14.168  0.6276 -1.1618 -0.7844
 3184TIP3    H231044   1.480   4.855  14.106  0.5746 -0.2670 -0.1835
 3185TIP3   OH231045   6.283   1.898  15.758  0.3511 -0.1337 -0.4411
 3185TIP3    H131046   6.378   1.890  15.748  0.8295  0.7879  2.4868
 3185TIP3    H231047   6.264   1.861  15.844 -2.4551 -3.0515 -2.1060
 3186TIP3   OH231048   1.491   2.737   2.658 -1.2878 -0.6269  0.3868
 3186TIP3    H131049   1.469   2.803   2.723 -0.7900  1.5507 -1.5367
 3186TIP3    H231050   1.586   2.736   2.656 -1.2803 -1.6966  0.6338
 3187TIP3   OH231051   6.059   0.466  16.305 -0.6517 -0.1185 -0.6938
 3187TIP3    H131052   6.033   0.509  16.224 -1.3434  0.1225 -0.3569
 3187TIP3    H231053   5.998   0.499  16.371  0.2363  0.1101  0.0466
 3188TIP3   OH231054   6.411   3.485  15.412 -0.0300  0.1318  0.3620
 3188TIP3    H131055   6.431   3.548  15.481  1.6232  1.2655 -1.0540
 3188TIP3    H231056   6.399   3.402  15.458  0.1510  1.0042  2.0728
 3189TIP3   OH231057   4.092   6.193  12.975 -0.3390 -0.2348 -0.1169
 3189TIP3    H131058   4.108   6.138  12.898 -0.6959  1.1216 -1.1989
 3189TIP3    H231059   4.041   6.267  12.942  0.3331  0.8938  1.2284
 3190TIP3   OH231060   6.431   1.285  14.715  0.3435 -0.3058  0.2382
 3190TIP3    H131061   6.466   1.360  14.667  1.9040 -3.2259 -3.6972
 3190TIP3    H231062   6.502   1.257  14.772 -0.1945  0.9821  1.6145
 3191TIP3   OH231063   4.230   0.333  15.188  0.5994 -0.3991  0.0743
 3191TIP3    H131064   4.163   0.285  15.139  1.2578 -0.5936 -0.6545
 3191TIP3    H231065   4.188   0.416  15.211  0.2869 -0.2864 -0.8554
 3192TIP3   OH231066   2.468   1.834   5.349 -0.3377  0.7246 -0.2348
 3192TIP3    H131067   2.488   1.852   5.257  0.9699  0.3148 -0.0517
 3192TIP3    H231068   2.500   1.745   5.363 -2.1871  0.0665  0.1644
 3193TIP3   OH231069   4.462   6.384   0.472 -0.7330 -0.6302  0.2660
 3193TIP3    H131070   4.439   6.309   0.527  4.6601 -2.8590  0.0232
 3193TIP3    H231071   4.446   6.355   0.382  0.2735 -1.0739  0.2250
 3194TIP3   OH231072   1.931   0.738   3.913 -0.2552  0.0734  0.1053
 3194TIP3    H131073   1.942   0.727   3.819 -1.3255  0.1022 -0.0438
 3194TIP3    H231074   1.863   0.806   3.921 -1.1570 -0.8813  0.8646
 3195TIP3   OH231075   0.176   2.048  11.693 -0.1207 -0.7471  0.0468
 3195TIP3    H131076   0.119   2.117  11.727 -1.6380 -2.0689  0.3262
 3195TIP3    H231077   0.264   2.085  11.696 -0.6083  0.4103  2.2470
 3196TIP3   OH231078   2.938   0.062   0.906 -0.6612  0.2170 -0.2438
 3196TIP3    H131079   2.941   0.025   0.994 -1.6720  0.5791 -0.0393
 3196TIP3    H231080   2.944  -0.014   0.848  1.8458  0.0929  0.0663
 3197TIP3   OH231081   2.898   2.007   3.611 -0.0507  0.2936 -0.0478
 3197TIP3    H131082   2.871   1.947   3.681  0.8470  2.5207  2.3825
 3197TIP3    H231083   2.963   1.957   3.561  0.2546 -0.9705  1.5226
 3198TIP3   OH231084   0.610   2.135   5.545 -0.2316 -0.8585 -0.0851
 3198TIP3    H131085   0.668   2.185   5.603 -0.4880 -1.6941  0.9105
 3198TIP3    H231086   0.525   2.177   5.555  0.0101 -0.1057 -0.9760
 3199TIP3   OH231087   6.042   5.517   2.180 -0.2361 -0.0248  0.5571
 3199TIP3    H131088   6.124   5.564   2.197  1.0203 -1.9953  0.2315
 3199TIP3    H231089   6.004   5.502   2.267  1.4129 -1.8808  1.0239
 3200TIP3   OH231090   1.047   2.274   0.300  0.1142 -0.3315  0.3255
 3200TIP3    H131091   0.998   2.350   0.271  1.1055  0.4239  0.5967
 3200TIP3    H231092   0.986   2.201   0.290 -1.6566  0.7901  2.2189
 3201TIP3   OH231093   4.009   3.183   5.257 -0.5561  0.9010 -0.3228
 3201TIP3    H131094   3.951   3.144   5.192 -1.3011 -2.1499  1.9089
 3201TIP3    H231095   3.955   3.191   5.336  0.3148  4.3828  0.0893
 3202TIP3   OH231096   1.367   2.086   0.030 -0.1752 -0.0285  0.0890
 3202TIP3    H131097   1.370   2.180   0.045  0.3483 -0.0979  0.4513
 3202TIP3    H231098   1.353   2.048   0.117 -1.0053 -0.2601 -0.1368
 3203TIP3   OH231099   6.668   3.729  15.840 -0.2650  0.2045  0.6187
 3203TIP3    H131100   6.682   3.802  15.901  1.1308  0.5572 -0.0838
 3203TIP3    H231101   6.751   3.722  15.792 -1.2068 -0.2691 -1.0169
 3204TIP3   OH231102   2.795   5.868   0.713 -0.3863  0.0389  0.3558
 3204TIP3    H131103   2.787   5.963   0.719 -0.6015  0.0900 -0.5661
 3204TIP3    H231104   2.705   5.836   0.724 -0.9094  0.1726 -2.6375
 3205TIP3   OH231105   4.375   2.412   1.339 -0.4440 -0.1901  0.1877
 3205TIP3    H131106   4.338   2.471   1.406 -0.2721 -1.6471  1.6364
 3205TIP3    H231107   4.340   2.444   1.257 -2.5880  0.2746  1.2092
 3206TIP3   OH231108   3.373   3.018  16.365  0.0803  0.2396  0.3887
 3206TIP3    H131109   3.422   3.008  16.446 -0.9949 -1.0779  0.9205
 3206TIP3    H231110   3.431   2.983  16.297  1.2969  2.0579  0.4300
 3207TIP3   OH231111   4.352   2.920  12.471  0.0623  0.4164  0.0742
 3207TIP3    H131112   4.356   2.857  12.399 -0.8052  1.6290 -1.1133
 3207TIP3    H231113   4.338   2.867  12.549  0.0058 -0.8960 -0.7896
 3208TIP3   OH231114   4.787   4.846  16.183  0.0321  0.1370 -0.2744
 3208TIP3    H131115   4.788   4.838  16.278  0.2017  1.2673 -0.1672
 3208TIP3    H231116   4.703   4.889  16.164  0.2796  0.4849 -0.5836
 3209TIP3   OH231117   5.800   0.803  12.392 -0.5405 -0.4110 -0.3241
 3209TIP3    H131118   5.854   0.775  12.466  0.3630  0.5310 -0.5960
 3209TIP3    H231119   5.747   0.875  12.428 -0.1482  0.0033 -0.5681
 3210TIP3   OH231120   0.210   2.402  15.771 -0.7766  0.2344  0.1086
 3210TIP3    H131121   0.205   2.492  15.737 -1.5928  0.6324  1.2185
 3210TIP3    H231122   0.147   2.400  15.843 -0.6348 -1.1873  0.2219
 3211TIP3   OH231123   4.403   0.437  11.726 -0.5530 -0.1191  0.5815
 3211TIP3    H131124   4.354   0.357  11.706  0.1730  0.1310 -2.6801
 3211TIP3    H231125   4.491   0.420  11.694  0.6498  0.7372  3.1466
 3212TIP3   OH231126   1.055   4.892  14.647 -0.4575 -0.2024 -0.3841
 3212TIP3    H131127   0.985   4.837  14.612 -1.3273  1.0348 -0.6578
 3212TIP3    H231128   1.043   4.890  14.742 -0.0246 -1.0622 -0.3407
 3213TIP3   OH231129   5.116   6.299   5.166 -0.6400 -0.0282 -0.0719
 3213TIP3    H131130   5.105   6.317   5.260  2.4408 -1.8091  0.7751
 3213TIP3    H231131   5.068   6.218   5.151 -0.7186 -0.0086  0.0729
 3214TIP3   OH231132   0.734   4.771  12.494 -0.3104  0.2348  0.0845
 3214TIP3    H131133   0.801   4.838  12.481 -0.6540  0.2176 -2.1410
 3214TIP3    H231134   0.766   4.720  12.569  1.6253  0.8567 -0.2486
 3215TIP3   OH231135   0.344   2.490  14.663 -0.2399  0.1486  0.4226
 3215TIP3    H131136   0.338   2.445  14.579 -0.0914  0.4853  0.2300
 3215TIP3    H231137   0.256   2.525  14.677  0.2015  1.7061 -0.5064
 3216TIP3   OH231138   3.810   4.774   1.583 -0.1836 -0.7100 -0.3436
 3216TIP3    H131139   3.805   4.693   1.532  1.0840 -0.8503 -0.2776
 3216TIP3    H231140   3.820   4.843   1.518  0.7487 -0.8186 -0.3206
 3217TIP3   OH231141   3.016   0.216   0.214  0.3663 -0.3454 -0.1566
 3217TIP3    H131142   2.933   0.204   0.261 -0.4477  0.1853 -1.4097
 3217TIP3    H231143   3.022   0.310   0.200  0.4960 -0.5053 -1.2667
 3218TIP3   OH231144   5.963   0.846   0.112  0.0817  0.2809  0.3766
 3218TIP3    H131145   6.047   0.890   0.121  0.4890 -0.4832  0.4517
 3218TIP3    H231146   5.913   0.872   0.189  0.8253 -0.4591  1.1311
 3219TIP3   OH231147   1.780   3.481  12.678 -0.1077  0.0411  0.2308
 3219TIP3    H131148   1.737   3.476  12.592 -1.3265 -1.0833  0.8779
 3219TIP3    H231149   1.864   3.437  12.665  0.7167  1.8262 -0.9249
 3220TIP3   OH231150   0.866   6.265   5.828 -0.0691  0.2184  0.6318
 3220TIP3    H131151   0.886   6.183   5.781  0.8039  1.2528 -0.9048
 3220TIP3    H231152   0.950   6.292   5.864 -0.3518  0.4412  1.1225
 3221TIP3   OH231153   1.903   4.594   6.632 -0.0913 -0.0520  0.0086
 3221TIP3    H131154   1.938   4.641   6.557  0.7845 -0.2577  0.2766
 3221TIP3    H231155   1.976   4.592   6.695 -0.3201 -1.2063  0.2523
 3222TIP3   OH231156   2.143   5.025   2.119  0.6968  0.4281 -0.0709
 3222TIP3    H131157   2.117   5.110   2.085 -2.3774  0.2518  1.5212
 3222TIP3    H231158   2.090   4.962   2.071  0.2062 -0.2342  1.2709
 3223TIP3   OH231159   0.161   2.714  16.165 -0.5876 -0.0135  0.4478
 3223TIP3    H131160   0.184   2.755  16.081 -1.0587 -0.9385 -0.1615
 3223TIP3    H231161   0.157   2.786  16.227  0.6118  0.5868 -0.1389
 3224TIP3   OH231162   5.224   3.252   2.955  0.2907 -0.0356 -0.2133
 3224TIP3    H131163   5.252   3.246   2.864 -0.3364 -0.2874 -0.3910
 3224TIP3    H231164   5.130   3.270   2.951  0.0383 -1.1442  0.3858
 3225TIP3   OH231165   6.661   4.896   3.551 -0.3594  0.0016  0.0947
 3225TIP3    H131166   6.661   4.981   3.506  3.0294 -0.9782 -2.1252
 3225TIP3    H231167   6.695   4.916   3.638 -0.2704  1.0164 -0.1521
 3226TIP3   OH231168   0.617   0.055  14.350 -0.1578  0.2756 -0.3361
 3226TIP3    H131169   0.561   0.081  14.423 -0.8171 -0.4627 -0.5699
 3226TIP3    H231170   0.615  -0.040  14.350 -0.3118  0.2612 -1.4215
 3227TIP3   OH231171   6.465   1.489  11.675 -0.5194  0.4835 -0.1592
 3227TIP3    H131172   6.459   1.518  11.767  0.6907 -1.4404  0.5887
 3227TIP3    H231173   6.382   1.445  11.659 -0.9551  1.2861 -0.1919
 3228TIP3   OH231174   4.085   4.277   3.583  0.3346 -0.2732  0.1860
 3228TIP3    H131175   4.031   4.348   3.550  0.2475  0.3268  1.5265
 3228TIP3    H231176   4.065   4.203   3.526 -0.1050  0.5758 -0.7980
 3229TIP3   OH231177   5.197   4.875   1.547  0.2706  0.2191  0.0772
 3229TIP3    H131178   5.204   4.846   1.456  0.2552  1.9692 -0.5128
 3229TIP3    H231179   5.162   4.964   1.541 -0.5804  0.0361  1.8555
 3230TIP3   OH231180   2.002   4.595  15.727 -0.2122  0.7593  0.4901
 3230TIP3    H131181   1.936   4.556  15.669 -0.6105  3.6296 -1.1625
 3230TIP3    H231182   2.080   4.542  15.713 -0.1700  1.4718 -3.1078
 3231TIP3   OH231183   5.270   1.294   1.299 -0.1370 -0.0163 -0.5494
 3231TIP3    H131184   5.285   1.303   1.205 -1.2473 -0.8651 -0.8324
 3231TIP3    H231185   5.351   1.256   1.333  0.4766  0.7960 -1.0569
 3232TIP3   OH231186   4.533   3.646   1.591  0.1513  0.5922  0.3154
 3232TIP3    H131187   4.577   3.685   1.515 -1.4254 -2.0654 -2.1899
 3232TIP3    H231188   4.593   3.577   1.619 -0.1730  0.2342  0.1326
 3233TIP3   OH231189   4.754   6.526  12.815 -0.5136  0.5158 -0.0342
 3233TIP3    H131190   4.702   6.606  12.825 -0.2301  1.0639 -2.4384
 3233TIP3    H231191   4.825   6.537  12.879 -0.6814  2.0341 -0.0682
 3234TIP3   OH231192   6.635   1.276   4.198  0.6304  0.2074  0.1450
 3234TIP3    H131193   6.580   1.226   4.137 -0.1896  0.9167  0.2812
 3234TIP3    H231194   6.670   1.347   4.145  0.7238  0.2504  0.2668
 3235TIP3   OH231195   5.057   0.368   3.105  0.2192  0.1410 -0.1934
 3235TIP3    H131196   4.981   0.308   3.107 -0.2803  0.7798  0.4673
 3235TIP3    H231197   5.133   0.309   3.108 -0.2294 -0.5307 -1.3214
 3236TIP3   OH231198   0.451   5.472   3.310 -0.2843  0.2378 -0.1432
 3236TIP3    H131199   0.430   5.564   3.325 -0.1988  0.2599 -0.1583
 3236TIP3    H231200   0.472   5.438   3.397 -0.7006  0.1331 -0.0785
 3237TIP3   OH231201   6.477   2.650  14.150 -0.1088  0.1785  0.1579
 3237TIP3    H131202   6.439   2.694  14.074  0.3078  1.8163  0.8663
 3237TIP3    H231203   6.546   2.709  14.181  3.0628 -2.6032 -0.9966
 3238TIP3   OH231204   4.571   3.662   2.028 -0.0530 -0.3322  0.4222
 3238TIP3    H131205   4.493   3.664   2.083 -0.4586  0.3215 -0.1630
 3238TIP3    H231206   4.624   3.591   2.064  0.6685  1.3439  2.9639
 3239TIP3   OH231207   2.858   4.579  13.039  0.0905 -0.0221 -0.5193
 3239TIP3    H131208   2.883   4.623  12.958  1.2916  1.7526  0.7362
 3239TIP3    H231209   2.907   4.497  13.038  0.9445  0.4788 -1.1106
 3240TIP3   OH231210   6.247   6.604  11.033 -0.3359 -0.6051  0.5203
 3240TIP3    H131211   6.316   6.621  10.969 -0.5483 -0.3574  0.3566
 3240TIP3    H231212   6.167   6.597  10.981 -0.4608 -0.7314  0.7262
 3241TIP3   OH231213   4.134   1.129   1.056  0.2600  0.3107  0.4047
 3241TIP3    H131214   4.168   1.102   0.970  0.4432  0.3817  0.4549
 3241TIP3    H231215   4.045   1.092   1.059  0.0095  0.8480 -0.0801
 3242TIP3   OH231216   4.138   6.675   3.954 -0.3958  0.0015  0.3145
 3242TIP3    H131217   4.048   6.690   3.981  0.2654  2.1485  1.6065
 3242TIP3    H231218   4.138   6.689   3.859 -1.9471 -3.2708 -0.2907
 3243TIP3   OH231219   4.174   1.846  12.553  0.7124 -0.4210 -0.0478
 3243TIP3    H131220   4.210   1.916  12.607  0.5890 -0.0429 -0.4544
 3243TIP3    H231221   4.247   1.818  12.497  0.4580  0.1677 -0.6885
 3244TIP3   OH231222   5.317   0.535   1.180 -0.4045  0.1205  0.6451
 3244TIP3    H131223   5.254   0.522   1.250  0.0444 -0.6162  0.9195
 3244TIP3    H231224   5.388   0.475   1.200  1.3007  2.2409  1.4018
 3245TIP3   OH231225   2.046   5.120   1.721  0.4681  0.1862  0.3128
 3245TIP3    H131226   1.955   5.093   1.734  0.4941 -0.6507 -1.0269
 3245TIP3    H231227   2.098   5.043   1.745  0.9372  1.0191  2.1845
 3246TIP3   OH231228   5.317   3.130   4.901  0.1852 -0.3441 -0.0778
 3246TIP3    H131229   5.389   3.097   4.954 -0.6181 -1.5226  0.3413
 3246TIP3    H231230   5.239   3.090   4.939 -1.2760  3.8997  1.9689
 3247TIP3   OH231231   6.125   0.920   3.801 -0.0622  0.0003 -0.4029
 3247TIP3    H131232   6.042   0.944   3.843  0.7079  0.0439  1.1760
 3247TIP3    H231233   6.191   0.941   3.867  1.0872 -1.3972 -1.0724
 3248TIP3   OH231234   0.937   4.682   5.199  0.3186  0.3216 -0.2671
 3248TIP3    H131235   0.968   4.770   5.219 -1.3289  1.1652 -1.1667
 3248TIP3    H231236   0.917   4.686   5.105  0.1735 -1.0047 -0.2993
 3249TIP3   OH231237   2.439   0.856  11.595  0.1924  0.2687 -0.9264
 3249TIP3    H131238   2.509   0.901  11.641  0.9599 -1.6192 -0.1411
 3249TIP3    H231239   2.449   0.764  11.620 -1.0563 -0.4150 -2.7442
 3250TIP3   OH231240   2.982   3.859  13.129  0.2604  0.1273 -0.3843
 3250TIP3    H131241   3.019   3.800  13.194  0.6402 -0.2187 -0.9075
 3250TIP3    H231242   2.891   3.871  13.156  0.0693 -0.9966 -0.4800
 3251TIP3   OH231243   4.119   6.569   4.307  0.1018 -0.3997  0.3753
 3251TIP3    H131244   4.151   6.498   4.251 -1.2267 -2.3851  2.0190
 3251TIP3    H231245   4.112   6.530   4.394 -1.5121  1.5084  1.1716
 3252TIP3   OH231246   0.200   6.487  14.415  0.5003  0.1050  0.4114
 3252TIP3    H131247   0.284   6.440  14.420  0.0753 -0.5399  2.5603
 3252TIP3    H231248   0.137   6.426  14.452 -1.0932  0.3573 -1.6855
 3253TIP3   OH231249   0.522   2.748  11.334  0.3069 -0.1869  0.3805
 3253TIP3    H131250   0.428   2.739  11.320  0.2310  0.0649  0.7128
 3253TIP3    H231251   0.530   2.803  11.412  0.7246 -0.5969  0.6351
 3254TIP3   OH231252   1.693   4.555  13.653 -0.1717  0.9057 -0.7798
 3254TIP3    H131253   1.775   4.572  13.700 -1.3070  0.8305  1.3252
 3254TIP3    H231254   1.670   4.465  13.677 -2.1565  1.7639  0.7629
 3255TIP3   OH231255   0.748   2.685   1.903  0.0019  0.2867 -0.1261
 3255TIP3    H131256   0.806   2.642   1.965 -1.1101 -3.7004 -1.5449
 3255TIP3    H231257   0.806   2.725   1.839  1.1391 -0.2632  0.5376
 3256TIP3   OH231258   6.833   1.678  13.206  0.6271 -0.3769 -0.0956
 3256TIP3    H131259   6.909   1.683  13.264 -0.1142 -1.4996  1.0200
 3256TIP3    H231260   6.829   1.586  13.180  0.1539 -0.1463 -0.8773
 3257TIP3   OH231261   5.344   2.343   6.451  0.0858  0.3331  0.3632
 3257TIP3    H131262   5.406   2.285   6.408 -1.6655 -0.0536 -1.8766
 3257TIP3    H231263   5.388   2.372   6.530  2.0863 -1.8804  0.1656
 3258TIP3   OH231264   0.457   1.188   5.848 -0.0602  0.5675 -0.2573
 3258TIP3    H131265   0.447   1.283   5.850 -0.2814  0.5406  0.1165
 3258TIP3    H231266   0.513   1.171   5.773 -1.5042  0.8576 -1.4544
 3259TIP3   OH231267   6.705   2.626   3.608  0.2695 -0.4303  1.0155
 3259TIP3    H131268   6.688   2.660   3.520  1.7073 -0.8286  0.5597
 3259TIP3    H231269   6.748   2.697   3.654  0.2181 -0.4818  1.1425
 3260TIP3   OH231270   0.547   6.130   1.847 -0.4281 -0.0824 -0.2035
 3260TIP3    H131271   0.616   6.156   1.908 -0.4928 -0.2357 -0.0634
 3260TIP3    H231272   0.560   6.036   1.835 -0.6395 -0.1216 -0.1390
 3261TIP3   OH231273   1.302   5.559  14.429 -0.3763 -0.6252  0.4278
 3261TIP3    H131274   1.224   5.601  14.463 -0.0492  1.0694 -0.7598
 3261TIP3    H231275   1.375   5.603  14.474 -0.0653 -0.9392  0.2357
 3262TIP3   OH231276   5.770   4.800   3.831 -0.4442 -0.5728  0.7858
 3262TIP3    H131277   5.835   4.837   3.770  0.4492  1.2004  2.6858
 3262TIP3    H231278   5.724   4.734   3.779  1.5394 -0.5120 -1.2314
 3263TIP3   OH231279   3.677   3.930  14.999  0.2019 -0.3179  0.2037
 3263TIP3    H131280   3.600   3.904  14.949 -0.1608 -0.4721  0.8226
 3263TIP3    H231281   3.668   3.882  15.082  0.7708 -0.0495  0.4230
 3264TIP3   OH231282   2.250   4.661  17.167 -0.1117  0.0338  0.0728
 3264TIP3    H131283   2.169   4.638  17.121 -0.2558 -1.6004  1.0762
 3264TIP3    H231284   2.220   4.711  17.244 -0.2436 -0.9992  0.7158
 3265TIP3   OH231285   5.624   3.113  14.631  0.1144  0.0566  0.0035
 3265TIP3    H131286   5.599   3.178  14.697 -0.5714 -0.2728  0.0751
 3265TIP3    H231287   5.687   3.159  14.575  1.1748  0.1592  1.2221
 3266TIP3   OH231288   2.080   1.996  15.460  0.7081  0.7150  0.2701
 3266TIP3    H131289   2.023   2.059  15.505  0.3300 -0.2726  1.2038
 3266TIP3    H231290   2.050   1.998  15.369 -0.3875  0.6891  0.6197
 3267TIP3   OH231291   4.827   0.993  16.017  0.0216 -0.5604 -0.3316
 3267TIP3    H131292   4.775   0.985  16.097 -0.1722 -1.0599 -0.5079
 3267TIP3    H231293   4.868   1.080  16.024  2.0503 -1.5657  1.5518
 3268TIP3   OH231294   5.697   1.750  17.019 -0.2446 -0.3170 -0.2059
 3268TIP3    H131295   5.687   1.754  16.924 -2.1554 -2.3465 -0.1843
 3268TIP3    H231296   5.676   1.659  17.041  3.5737 -0.9445  1.8504
 3269TIP3   OH231297   2.791   1.739   3.457 -0.3389 -0.2362 -0.3374
 3269TIP3    H131298   2.827   1.699   3.536  0.3017 -0.9219 -0.9564
 3269TIP3    H231299   2.701   1.707   3.453 -1.0165  1.3308  1.1197
 3270TIP3   OH231300   0.416   1.473  14.110 -0.4582 -0.0620  0.3070
 3270TIP3    H131301   0.455   1.440  14.029 -0.1570  0.8625  0.0666
 3270TIP3    H231302   0.433   1.404  14.174  0.0727 -0.4193 -0.2036
 3271TIP3   OH231303   2.088   1.926   5.182  0.4910 -0.2022  0.0374
 3271TIP3    H131304   2.015   1.953   5.237  0.3346 -2.8080  1.2896
 3271TIP3    H231305   2.058   1.941   5.093 -1.7408 -1.4246  0.5088
 3272TIP3   OH231306   4.287   2.628   2.327 -0.3804  0.2192 -0.4956
 3272TIP3    H131307   4.336   2.691   2.275  1.5066  1.6843  2.7494
 3272TIP3    H231308   4.203   2.670   2.343 -0.3434  0.4810 -0.9936
 3273TIP3   OH231309   6.696   4.966  14.631  0.1971  0.5196  0.4578
 3273TIP3    H131310   6.753   4.977  14.707  0.5392 -1.0955  0.4686
 3273TIP3    H231311   6.608   4.985  14.664  0.6108  2.4954  0.5706
 3274TIP3   OH231312   1.344   0.065  14.594  0.0390  0.2998 -0.0984
 3274TIP3    H131313   1.303  -0.002  14.539  1.4100 -1.0543  0.4559
 3274TIP3    H231314   1.432   0.075  14.557  0.8745 -0.4017  1.6042
 3275TIP3   OH231315   5.075   6.315   5.461  0.6140  0.0584 -0.2921
 3275TIP3    H131316   5.093   6.401   5.500  0.4585  0.3161 -0.7819
 3275TIP3    H231317   4.982   6.301   5.479  0.5906  0.0850 -0.3939
 3276TIP3   OH231318   6.653   1.385  12.008 -0.4362  0.0554  0.3003
 3276TIP3    H131319   6.583   1.320  12.015 -0.0836 -0.4053 -0.3035
 3276TIP3    H231320   6.733   1.337  12.026 -0.2968  0.6675  1.3718
 3277TIP3   OH231321   5.103   6.351   2.361  0.3249 -0.0290 -0.3162
 3277TIP3    H131322   5.181   6.300   2.384 -0.5072 -1.1068  0.1529
 3277TIP3    H231323   5.030   6.293   2.380 -0.7000  1.6359  1.0817
 3278TIP3   OH231324   0.966   1.803   4.139  0.3869 -0.0397  0.1197
 3278TIP3    H131325   0.974   1.711   4.163  1.0134 -0.1431 -0.4613
 3278TIP3    H231326   1.054   1.828   4.111  0.4799  1.0273  1.2990
 3279TIP3   OH231327   2.424   6.136  17.190  0.0017 -0.3879  0.0421
 3279TIP3    H131328   2.400   6.181  17.109  0.1281 -2.0953 -0.9772
 3279TIP3    H231329   2.424   6.206  17.256 -0.5084  0.9716 -1.3217
 3280TIP3   OH231330   5.141   1.905  13.820  0.0258  0.2750  0.7743
 3280TIP3    H131331   5.215   1.921  13.879  1.4705 -0.6204 -0.7118
 3280TIP3    H231332   5.173   1.931  13.734 -1.5148  0.1502  0.1376
 3281TIP3   OH231333   6.659   2.169  11.665 -0.1803 -0.2256  0.1892
 3281TIP3    H131334   6.713   2.164  11.744  0.2985  2.1148  0.0714
 3281TIP3    H231335   6.645   2.077  11.640  2.5207 -0.9543  1.0179
 3282TIP3   OH231336   5.087   5.315  16.001 -0.4673 -0.3520 -0.2065
 3282TIP3    H131337   5.118   5.257  16.070  1.1437  1.7654  1.0025
 3282TIP3    H231338   5.167   5.344  15.957 -1.3496 -0.3443 -1.8695
 3283TIP3   OH231339   0.861   4.309  15.148  0.1380  0.6627 -0.4103
 3283TIP3    H131340   0.801   4.331  15.219  0.6200  0.9223 -0.0753
 3283TIP3    H231341   0.808   4.259  15.086 -0.0859 -0.2902  0.5200
 3284TIP3   OH231342   4.960   6.407  14.895 -0.2232  0.0189  0.0210
 3284TIP3    H131343   5.018   6.416  14.820  0.1795 -1.4673  0.1077
 3284TIP3    H231344   4.892   6.472  14.882 -0.4113 -0.5161 -1.8685
 3285TIP3   OH231345   3.363   1.686  10.415 -0.6228  0.1491 -0.1077
 3285TIP3    H131346   3.444   1.706  10.367  0.0986  1.3099  1.4918
 3285TIP3    H231347   3.335   1.771  10.450 -2.3483 -0.3000 -0.3267
 3286TIP3   OH231348   1.130   6.432   1.726 -0.3175  0.4414  0.1876
 3286TIP3    H131349   1.214   6.445   1.770 -0.5205 -0.8534  1.0353
 3286TIP3    H231350   1.152   6.387   1.644 -0.1088  1.0839 -0.1180
 3287TIP3   OH231351   3.797   3.860   3.772  0.2762 -0.3582  0.3090
 3287TIP3    H131352   3.892   3.854   3.788  0.4593 -0.1860 -0.6552
 3287TIP3    H231353   3.768   3.769   3.773  0.9029 -0.6406 -1.8525
 3288TIP3   OH231354   2.263   4.166  14.007 -0.2402 -0.0004 -0.1545
 3288TIP3    H131355   2.261   4.258  14.033 -0.8585 -0.3750  1.1961
 3288TIP3    H231356   2.241   4.118  14.086  0.0165 -1.3211 -0.8551
 3289TIP3   OH231357   3.436   1.653  14.875  0.0365  0.3017 -0.2037
 3289TIP3    H131358   3.522   1.665  14.915 -0.4116  3.1223  0.1059
 3289TIP3    H231359   3.406   1.742  14.855 -3.2938 -0.4662  0.7382
 3290TIP3   OH231360   4.374   5.826  14.355 -0.1959 -0.0774  0.9756
 3290TIP3    H131361   4.363   5.781  14.439  1.9109  0.0365  1.3612
 3290TIP3    H231362   4.417   5.908  14.378  2.3633 -0.9459 -0.3598
 3291TIP3   OH231363   3.862   5.984  14.887 -0.5266 -0.9889  0.9822
 3291TIP3    H131364   3.847   5.945  14.973 -1.9220 -0.6116  0.9382
 3291TIP3    H231365   3.936   5.936  14.851 -0.0966 -1.3284  2.2855
 3292TIP3   OH231366   2.594   0.646   1.957 -0.3313  0.4021 -0.0716
 3292TIP3    H131367   2.613   0.560   1.918  1.3740  0.3090  0.8599
 3292TIP3    H231368   2.575   0.626   2.049  1.1993  1.1020  0.4174
 3293TIP3   OH231369   3.250   1.035  15.108 -0.1199 -0.1010  0.2439
 3293TIP3    H131370   3.173   1.080  15.141 -1.2889  0.4208 -2.8577
 3293TIP3    H231371   3.316   1.103  15.098 -0.5157  0.1713 -0.5715
 3294TIP3   OH231372   6.168   3.595   1.856  0.3222 -0.4821  0.3645
 3294TIP3    H131373   6.175   3.679   1.811  2.0676 -1.4184 -1.2099
 3294TIP3    H231374   6.170   3.530   1.786 -0.5445 -1.8725  1.5841
 3295TIP3   OH231375   2.525   5.624  15.685 -0.7864  0.0105 -0.1542
 3295TIP3    H131376   2.502   5.559  15.751 -0.1245 -0.7680 -0.6628
 3295TIP3    H231377   2.452   5.687  15.686 -1.3796 -0.6698  0.4350
 3296TIP3   OH231378   5.927   2.045  13.144  0.3063  0.4760  0.2971
 3296TIP3    H131379   5.968   2.100  13.211 -2.8195  0.3971  2.5057
 3296TIP3    H231380   5.967   1.959  13.155  0.8428  0.8166  1.1018
 3297TIP3   OH231381   6.264   1.247   1.233 -0.5704 -0.3544 -0.3599
 3297TIP3    H131382   6.322   1.225   1.161  0.0536  0.7898 -0.2348
 3297TIP3    H231383   6.322   1.279   1.302 -1.3453  1.1129 -0.3418
 3298TIP3   OH231384   4.195   3.144   2.508 -0.1460  0.2280  0.1897
 3298TIP3    H131385   4.221   3.236   2.502 -4.1535  1.5064 -1.5401
 3298TIP3    H231386   4.132   3.133   2.437 -0.7370 -3.5837  1.0848
 3299TIP3   OH231387   1.325   4.171  15.130 -0.3161 -1.5140  0.4831
 3299TIP3    H131388   1.369   4.156  15.046 -1.1229  0.7678 -0.4171
 3299TIP3    H231389   1.246   4.116  15.125  0.1287 -2.1457  0.1908
 3300TIP3   OH231390   4.002   2.491   5.364 -0.3145  0.3010  0.2484
 3300TIP3    H131391   4.014   2.407   5.408  0.6181  1.1960  1.8076
 3300TIP3    H231392   3.910   2.512   5.378 -0.7777 -0.8373 -0.9116
 3301TIP3   OH231393   5.756   0.317  13.469  0.2720 -0.2547 -0.0985
 3301TIP3    H131394   5.713   0.331  13.553 -1.9740 -0.5082 -1.1160
 3301TIP3    H231395   5.755   0.222  13.458  1.3805 -0.2861 -0.0422
 3302TIP3   OH231396   3.111   3.958   0.999  0.0413  0.6031 -0.3277
 3302TIP3    H131397   3.091   3.864   1.003  2.6295 -0.0015  2.1132
 3302TIP3    H231398   3.152   3.977   1.084 -2.3222  4.4913  0.1684
 3303TIP3   OH231399   3.146   3.030  15.028 -0.1056  0.0133 -0.0033
 3303TIP3    H131400   3.177   3.121  15.038 -0.3991  0.3304 -1.6265
 3303TIP3    H231401   3.209   2.991  14.967  0.7182 -1.2681  1.6031
 3304TIP3   OH231402   6.622   4.724  13.110  0.4315  0.4614  0.3052
 3304TIP3    H131403   6.631   4.714  13.016  0.4434  0.8712  0.2611
 3304TIP3    H231404   6.598   4.816  13.122 -3.6667 -0.4264  0.3684
 3305TIP3   OH231405   4.120   5.543   1.941 -0.1850 -0.0940  0.1452
 3305TIP3    H131406   4.053   5.605   1.968  0.1171  0.3238 -0.0470
 3305TIP3    H231407   4.112   5.471   2.002  0.5087  0.8358  1.3731
 3306TIP3   OH231408   2.633   5.289   4.760  0.1947 -0.0068  0.1289
 3306TIP3    H131409   2.546   5.330   4.756 -0.1270 -0.6472  0.4335
 3306TIP3    H231410   2.677   5.320   4.681  0.1195  1.2777  0.5628
 3307TIP3   OH231411   4.784   4.439  12.673  0.4444  0.3593 -0.1132
 3307TIP3    H131412   4.855   4.445  12.737  0.3256 -1.2336  0.2086
 3307TIP3    H231413   4.784   4.347  12.646 -0.4961  0.6792 -1.2680
 3308TIP3   OH231414   6.602   1.110   0.481 -0.1818 -0.5244 -0.0526
 3308TIP3    H131415   6.586   1.196   0.519 -0.1683 -0.9731  1.0292
 3308TIP3    H231416   6.680   1.121   0.426 -1.1182  0.4988 -1.2177
 3309TIP3   OH231417   6.816   1.807  14.838  0.1063  0.4157 -0.3046
 3309TIP3    H131418   6.725   1.795  14.809  0.5235  0.0130 -1.5072
 3309TIP3    H231419   6.829   1.740  14.905 -0.8158  1.2087  0.6967
 3310TIP3   OH231420   2.188   6.415  12.225  0.4729 -0.0601 -0.1968
 3310TIP3    H131421   2.190   6.423  12.320  0.1547  1.5158 -0.3062
 3310TIP3    H231422   2.098   6.437  12.201  0.3961 -0.9832 -0.8417
 3311TIP3   OH231423   4.310   6.718  13.635  0.0865  0.2779  0.0658
 3311TIP3    H131424   4.323   6.718  13.540  0.7283  1.8673  0.1310
 3311TIP3    H231425   4.362   6.643  13.665 -0.9766 -0.8906 -0.9169
 3312TIP3   OH231426   1.262   0.125  10.667 -0.6568  0.5967  0.4921
 3312TIP3    H131427   1.235   0.216  10.678 -0.3926  0.8384 -0.7578
 3312TIP3    H231428   1.345   0.130  10.620 -2.1694 -0.3202 -2.5601
 3313TIP3   OH231429   5.645   1.034  11.809 -0.0081  0.4255  0.5549
 3313TIP3    H131430   5.628   0.987  11.890 -2.2275 -0.8976 -0.5705
 3313TIP3    H231431   5.741   1.037  11.803  0.2270 -1.4572  2.1009
 3314TIP3   OH231432   5.683   5.369   0.031 -0.0694  0.0175 -0.1563
 3314TIP3    H131433   5.614   5.303   0.028 -2.7953  2.7251 -1.5381
 3314TIP3    H231434   5.672   5.411   0.117 -0.2384  0.5089 -0.4128
 3315TIP3   OH231435   1.185   5.610  10.568  0.1277 -0.3723  0.1228
 3315TIP3    H131436   1.113   5.626  10.630 -0.9046 -1.5199 -0.7516
 3315TIP3    H231437   1.148   5.552  10.502  0.8775  1.5638 -2.1716
 3316TIP3   OH231438   2.092   4.747   1.578  0.1896  0.0766 -0.1611
 3316TIP3    H131439   2.089   4.658   1.543 -1.4585 -0.4215  1.1224
 3316TIP3    H231440   2.019   4.751   1.640  1.3177  1.7719  1.1475
 3317TIP3   OH231441   6.087   6.139   4.251  0.2544  0.1667 -0.0812
 3317TIP3    H131442   5.992   6.127   4.251  0.0617  1.4416 -1.3386
 3317TIP3    H231443   6.113   6.128   4.342 -1.3344  1.4940  0.5757
 3318TIP3   OH231444   2.409   6.719  16.214  0.0230  0.0941 -0.3051
 3318TIP3    H131445   2.362   6.734  16.132 -2.1891  1.1687  1.0533
 3318TIP3    H231446   2.386   6.795  16.268  0.9045 -0.8928  1.5341
 3319TIP3   OH231447   4.187   1.888  16.095 -0.2972  0.5027 -0.0869
 3319TIP3    H131448   4.139   1.867  16.175  2.0360  0.1723  1.3270
 3319TIP3    H231449   4.120   1.912  16.032 -2.3075 -0.3445  1.6225
 3320TIP3   OH231450   6.273   5.670  12.475  0.1730  0.2998 -0.1796
 3320TIP3    H131451   6.330   5.615  12.421  0.3263  0.5079 -0.2330
 3320TIP3    H231452   6.331   5.705  12.543  0.2931  1.1554 -0.7027
 3321TIP3   OH231453   4.130   2.175   0.572  0.0890  0.9023  0.8126
 3321TIP3    H131454   4.151   2.121   0.648  1.9095  1.0324  0.4496
 3321TIP3    H231455   4.092   2.254   0.608  2.0553  1.4885  1.7133
 3322TIP3   OH231456   0.178   1.489   4.112 -0.0504 -0.5755 -0.7369
 3322TIP3    H131457   0.217   1.418   4.162  0.7498  0.6316  0.4234
 3322TIP3    H231458   0.196   1.568   4.163 -3.0097  0.2188 -0.7001
 3323TIP3   OH231459   5.615   1.847   0.571  0.2026  0.0390 -0.5750
 3323TIP3    H131460   5.630   1.910   0.642  0.0533  2.3035 -2.4048
 3323TIP3    H231461   5.533   1.804   0.593 -0.1439  1.1292  0.3383
 3324TIP3   OH231462   4.838   0.589  15.215 -0.5571 -0.3272  0.0271
 3324TIP3    H131463   4.856   0.522  15.280  1.3750 -0.5705 -0.6764
 3324TIP3    H231464   4.887   0.561  15.137 -1.1236  0.9958 -0.8499
 3325TIP3   OH231465   5.173   5.092   5.625 -0.0258 -0.4068 -0.2598
 3325TIP3    H131466   5.267   5.109   5.622 -0.3001  1.1542 -1.9930
 3325TIP3    H231467   5.160   5.044   5.707  1.9698  1.3233  1.1775
 3326TIP3   OH231468   4.130   5.100  16.460 -0.0446  0.4163 -0.1978
 3326TIP3    H131469   4.215   5.124  16.424  0.7008  0.3018  1.4111
 3326TIP3    H231470   4.147   5.023  16.514 -1.1704  0.3696  0.1182
 3327TIP3   OH231471   2.236   3.117   1.463 -0.4058  0.8136  0.1475
 3327TIP3    H131472   2.249   3.048   1.398  0.6296  0.8563  0.2866
 3327TIP3    H231473   2.208   3.193   1.412  0.9829  1.0233 -0.3650
 3328TIP3   OH231474   2.781   2.504  13.035 -0.0412 -0.0299  0.2320
 3328TIP3    H131475   2.743   2.437  13.092 -1.4239 -0.8094 -1.5404
 3328TIP3    H231476   2.742   2.586  13.065  0.5037 -0.1860  1.4323
 3329TIP3   OH231477   2.097   1.522  14.387 -0.2444 -0.2406  0.0439
 3329TIP3    H131478   2.031   1.537  14.319  1.4105 -0.4786 -1.6876
 3329TIP3    H231479   2.051   1.470  14.453 -1.5951 -1.0409 -1.4456
 3330TIP3   OH231480   6.061   5.906   3.621 -0.0341 -0.5598  0.0461
 3330TIP3    H131481   5.976   5.930   3.584 -0.6477 -1.4790  0.8256
 3330TIP3    H231482   6.059   5.938   3.711  1.2680  1.2316 -0.4947
 3331TIP3   OH231483   1.009   4.920   6.224 -0.0534 -0.3304  0.0216
 3331TIP3    H131484   1.062   4.945   6.300  0.6162 -3.0267  0.5373
 3331TIP3    H231485   1.022   4.826   6.216 -3.0623 -0.7431 -1.2124
 3332TIP3   OH231486   0.753   5.479  13.884  0.2721  0.1981  0.2136
 3332TIP3    H131487   0.771   5.444  13.971 -0.0614  0.5099  0.4108
 3332TIP3    H231488   0.783   5.570  13.888  3.2145 -0.5863 -0.9578
 3333TIP3   OH231489   2.694   6.391  15.822  0.1622 -0.1692  0.9044
 3333TIP3    H131490   2.632   6.437  15.764 -0.1898  1.2597  2.3425
 3333TIP3    H231491   2.744   6.461  15.864  1.8295 -1.2532  0.8238
 3334TIP3   OH231492   5.686   3.837  13.371 -0.1345 -0.2663  0.2117
 3334TIP3    H131493   5.606   3.787  13.353 -1.0464  0.7235  1.3042
 3334TIP3    H231494   5.660   3.928  13.360  1.4574  0.0177 -1.5695
 3335TIP3   OH231495   6.558   2.956   0.715  0.1805  0.3036 -0.6020
 3335TIP3    H131496   6.611   3.035   0.707 -0.9023  1.3606  1.7905
 3335TIP3    H231497   6.471   2.983   0.683 -0.1246  0.0108 -0.0289
 3336TIP3   OH231498   4.100   1.862   0.727 -0.0587  0.0128 -0.3250
 3336TIP3    H131499   4.186   1.836   0.758 -0.4276 -0.6246  0.1825
 3336TIP3    H231500   4.064   1.915   0.797 -0.2069  0.0095 -0.3979
 3337TIP3   OH231501   6.205   2.251   3.372 -0.4064  0.2285  0.1295
 3337TIP3    H131502   6.141   2.296   3.318 -1.0973  0.8282  1.4204
 3337TIP3    H231503   6.154   2.198   3.432  0.3538 -0.5537  0.1160
 3338TIP3   OH231504   2.284   1.469  15.193 -0.1865 -0.3371  0.1710
 3338TIP3    H131505   2.217   1.418  15.145 -0.1070  0.1269 -0.4488
 3338TIP3    H231506   2.332   1.515  15.124 -2.4842  3.3908  0.7790
 3339TIP3   OH231507   6.651   3.637  13.776 -0.6699  0.5048  0.3513
 3339TIP3    H131508   6.714   3.708  13.761  0.0661 -0.1575  0.2518
 3339TIP3    H231509   6.611   3.657  13.861 -2.3442  2.4185 -0.7892
 3340TIP3   OH231510   0.653   2.639  13.559  0.7102 -0.3993 -0.2639
 3340TIP3    H131511   0.704   2.587  13.622 -0.1727  0.3374  1.1156
 3340TIP3    H231512   0.718   2.691  13.513  1.3680 -0.7984  0.1864
 3341TIP3   OH231513   1.721   4.387   5.136  0.0224 -0.4183 -0.0901
 3341TIP3    H131514   1.632   4.422   5.136 -0.4580 -1.5117 -1.9937
 3341TIP3    H231515   1.767   4.439   5.202 -1.9197  0.3932  0.7059
 3342TIP3   OH231516   2.891   6.397   2.607  0.3375 -0.2719 -0.2666
 3342TIP3    H131517   2.853   6.484   2.616  1.4115  0.2227 -0.4032
 3342TIP3    H231518   2.835   6.352   2.544 -0.4041  0.2006  0.0398
 3343TIP3   OH231519   5.676   6.437   1.990 -0.2218 -0.2026 -0.1301
 3343TIP3    H131520   5.609   6.369   1.980  0.4136 -0.8343 -0.1067
 3343TIP3    H231521   5.680   6.479   1.904 -1.3225  0.4793  0.1331
 3344TIP3   OH231522   4.546   0.708  15.781  0.1832  0.4568  0.4225
 3344TIP3    H131523   4.630   0.743  15.751 -0.5465  1.2411 -0.7907
 3344TIP3    H231524   4.480   0.757  15.731 -0.9928 -0.2904  1.1878
 3345TIP3   OH231525   0.629   1.054  12.473 -0.3182 -0.1826 -0.2882
 3345TIP3    H131526   0.714   1.016  12.449  0.4709  0.9447  0.6728
 3345TIP3    H231527   0.569   0.979  12.473  0.5488 -0.9123 -1.4808
 3346TIP3   OH231528   5.297   4.614   5.776 -0.5123  0.6108  0.1207
 3346TIP3    H131529   5.383   4.577   5.753 -1.3983 -1.1505 -0.5655
 3346TIP3    H231530   5.317   4.696   5.820  1.5137  0.5289 -0.5450
 3347TIP3   OH231531   4.686   0.751  12.219  0.8246  0.2029  0.0351
 3347TIP3    H131532   4.739   0.673  12.204  1.2204  0.2780  1.0062
 3347TIP3    H231533   4.687   0.763  12.314 -2.3223 -0.7504  0.3010
 3348TIP3   OH231534   5.012   1.706   1.306 -0.4267 -0.2170  0.1455
 3348TIP3    H131535   5.087   1.765   1.301 -1.5138  1.1517 -0.6141
 3348TIP3    H231536   4.959   1.728   1.229 -0.8432 -2.2436 -0.2129
 3349TIP3   OH231537   6.666   1.479   4.659 -0.4372 -0.2378  0.0418
 3349TIP3    H131538   6.614   1.465   4.579 -1.6991  1.0520  0.5875
 3349TIP3    H231539   6.618   1.547   4.706  1.5448  0.6758  0.8140
 3350TIP3   OH231540   5.858   0.138  17.152 -0.3111  0.1225 -0.0254
 3350TIP3    H131541   5.829   0.190  17.077  1.2834  1.6884  0.3796
 3350TIP3    H231542   5.806   0.171  17.225 -0.0454  0.4335  0.0276
 3351TIP3   OH231543   5.933   4.828  11.973 -0.1082  0.6491 -0.5299
 3351TIP3    H131544   5.970   4.795  12.055  1.1379 -0.5970 -1.5546
 3351TIP3    H231545   5.932   4.923  11.984 -0.7553  0.4732  1.2420
 3352TIP3   OH231546   1.307   1.896  15.850 -0.2898 -0.2645  0.3962
 3352TIP3    H131547   1.388   1.942  15.870 -0.5838  0.2378  0.4425
 3352TIP3    H231548   1.300   1.900  15.755  1.6060 -3.4881 -0.0357
 3353TIP3   OH231549   6.461   3.122   1.586  0.1232  0.3163  0.6644
 3353TIP3    H131550   6.539   3.147   1.635  0.3221 -1.9582  1.6462
 3353TIP3    H231551   6.389   3.133   1.648  0.1668 -1.0599  0.9815
 3354TIP3   OH231552   4.434   5.365   0.117 -0.2927  0.0655  0.2286
 3354TIP3    H131553   4.354   5.315   0.101 -0.0337 -0.6069  1.0054
 3354TIP3    H231554   4.493   5.304   0.159 -0.4919  1.3981  2.6110
 3355TIP3   OH231555   5.228   0.464  16.291  0.2587 -0.2436  0.1636
 3355TIP3    H131556   5.250   0.397  16.227 -2.0468 -2.1315  1.2091
 3355TIP3    H231557   5.250   0.547  16.248  1.5825 -1.5507 -1.8386
 3356TIP3   OH231558   4.521   0.762  11.994  0.2734  0.0544 -0.0918
 3356TIP3    H131559   4.554   0.778  12.082 -1.2419 -1.0387  0.7356
 3356TIP3    H231560   4.457   0.691  12.005 -1.1509  0.9711 -1.7995
 3357TIP3   OH231561   4.425   2.331  14.624 -0.0580 -0.0912  0.9275
 3357TIP3    H131562   4.407   2.369  14.538  0.3285 -1.7297  0.0690
 3357TIP3    H231563   4.481   2.395  14.667 -1.6125  1.5381  0.6496
 3358TIP3   OH231564   3.212   2.724  13.773  0.1715 -0.1929  0.0434
 3358TIP3    H131565   3.270   2.792  13.809 -0.6807  0.6457 -0.1090
 3358TIP3    H231566   3.153   2.703  13.844 -0.1335 -0.1284 -0.1900
 3359TIP3   OH231567   5.186   2.127   5.700  0.7349 -0.1129 -0.0837
 3359TIP3    H131568   5.193   2.222   5.712  3.4438 -0.3926  1.2106
 3359TIP3    H231569   5.205   2.090   5.786  0.2834 -1.8824 -0.6971
 3360TIP3   OH231570   1.712   3.937  16.816  0.5866  0.4139 -0.7585
 3360TIP3    H131571   1.735   3.921  16.907  2.3007  0.6278 -1.1280
 3360TIP3    H231572   1.793   3.922  16.767  0.1266  1.8814 -2.0604
 3361TIP3   OH231573   5.859   3.745  13.113  0.1162 -0.0522  0.2490
 3361TIP3    H131574   5.845   3.685  13.186 -1.5240 -0.9840 -0.7707
 3361TIP3    H231575   5.774   3.787  13.099  0.7123  1.0104 -0.3632
 3362TIP3   OH231576   4.681   0.783   5.458  0.4713  0.2337 -0.8344
 3362TIP3    H131577   4.764   0.831   5.464 -0.3236  1.8976 -2.2869
 3362TIP3    H231578   4.676   0.756   5.367 -0.9727  0.9249 -0.9850
 3363TIP3   OH231579   2.356   3.597   0.750 -0.0746 -0.3319 -0.4435
 3363TIP3    H131580   2.446   3.599   0.718 -0.1229 -1.4346 -0.6547
 3363TIP3    H231581   2.365   3.608   0.845  0.3905 -1.8737 -0.2901
 3364TIP3   OH231582   2.337   4.572  16.293 -0.1994 -0.1160  0.0818
 3364TIP3    H131583   2.378   4.519  16.361 -0.3575  0.0186  0.2837
 3364TIP3    H231584   2.343   4.519  16.213 -0.8599 -0.6759  0.3974
 3365TIP3   OH231585   2.395   3.306   2.468 -0.2766  0.0445 -0.1878
 3365TIP3    H131586   2.463   3.247   2.500  0.3098  1.8069  2.0807
 3365TIP3    H231587   2.444   3.373   2.419 -0.6004  0.2423 -0.2386
 3366TIP3   OH231588   2.415   1.862   0.647  0.5402 -0.3744 -0.5976
 3366TIP3    H131589   2.358   1.785   0.652  0.5191 -0.3744 -0.8475
 3366TIP3    H231590   2.361   1.929   0.604  0.7325 -0.3799 -0.8502
 3367TIP3   OH231591   0.781   1.820   1.161  0.4098 -0.4206 -0.4244
 3367TIP3    H131592   0.798   1.745   1.218  0.7847 -0.2292 -0.2807
 3367TIP3    H231593   0.815   1.895   1.209 -0.5488 -0.0629 -0.2806
 3368TIP3   OH231594   6.619   2.542   6.423  0.1705 -0.3642 -0.2850
 3368TIP3    H131595   6.612   2.470   6.360 -1.0810  1.5572 -2.5131
 3368TIP3    H231596   6.550   2.524   6.487  1.2083 -2.1473  0.4200
 3369TIP3   OH231597   1.656   5.165  14.245 -0.0804 -0.3163  0.8857
 3369TIP3    H131598   1.741   5.195  14.214 -0.6283  0.7928  0.4061
 3369TIP3    H231599   1.670   5.145  14.338  0.2928  1.6824  1.3109
 3370TIP3   OH231600   6.176   5.507  17.103 -0.0887  0.6395  0.0937
 3370TIP3    H131601   6.205   5.417  17.117  1.4044  0.9773 -0.5776
 3370TIP3    H231602   6.253   5.552  17.067 -1.0191  2.0011 -0.3050
 3371TIP3   OH231603   0.743   4.780  11.109  0.5783 -1.0619  0.6030
 3371TIP3    H131604   0.787   4.771  11.024 -0.2365  0.5910 -0.0383
 3371TIP3    H231605   0.815   4.798  11.171  0.8896  2.4112 -0.5615
 3372TIP3   OH231606   3.315   4.576  16.389  0.3279  0.2893 -0.3742
 3372TIP3    H131607   3.240   4.583  16.330  0.9156 -0.3279 -1.2061
 3372TIP3    H231608   3.387   4.619  16.343  0.5328  0.7440  0.3516
 3373TIP3   OH231609   3.483   5.350  17.191  0.2647 -0.0797 -0.0481
 3373TIP3    H131610   3.531   5.268  17.181  1.2333  0.4334  0.2903
 3373TIP3    H231611   3.469   5.381  17.101 -0.8895 -1.0362 -0.2244
 3374TIP3   OH231612   4.891   2.680  11.256  0.2870 -0.1406  0.0639
 3374TIP3    H131613   4.869   2.625  11.331  1.2622  1.2584  1.4349
 3374TIP3    H231614   4.978   2.714  11.277  0.9513 -0.3637 -2.1184
 3375TIP3   OH231615   3.736   0.459   1.969  0.6386 -0.1633 -0.0543
 3375TIP3    H131616   3.714   0.502   2.051 -0.7367 -1.5102  0.3438
 3375TIP3    H231617   3.832   0.463   1.964  0.8479 -0.9647  2.1681
 3376TIP3   OH231618   2.491   4.795   6.014  0.5221 -0.0459 -0.5744
 3376TIP3    H131619   2.477   4.813   6.107  1.8966  0.0757 -0.3726
 3376TIP3    H231620   2.408   4.757   5.984  0.0956 -0.1687  0.7200
 3377TIP3   OH231621   1.140   4.298   3.990  0.4948 -0.1689  0.4209
 3377TIP3    H131622   1.085   4.241   3.937 -1.3420  0.0906  1.9251
 3377TIP3    H231623   1.092   4.382   3.992  0.1864 -0.3229  2.8466
 3378TIP3   OH231624   6.425   2.999   0.975 -0.3517 -0.0683 -0.1797
 3378TIP3    H131625   6.438   3.014   1.068  1.2358 -2.6846  0.1379
 3378TIP3    H231626   6.445   3.083   0.934 -2.4522  1.5477  1.8489
 3379TIP3   OH231627   0.258   1.341   5.210 -0.3186  0.3580  0.8312
 3379TIP3    H131628   0.200   1.378   5.143 -0.3631  0.9404  1.1839
 3379TIP3    H231629   0.223   1.253   5.226 -0.1052  0.0920 -0.1419
 3380TIP3   OH231630   4.418   3.835   3.783  0.2651 -0.0855 -0.5282
 3380TIP3    H131631   4.335   3.830   3.829  0.3588 -1.3050 -0.4795
 3380TIP3    H231632   4.480   3.869   3.848  0.0989 -0.4789 -0.1631
 3381TIP3   OH231633   0.824   6.101  12.879  0.1524  0.1657  0.1002
 3381TIP3    H131634   0.809   6.177  12.823 -1.4399 -1.5934 -2.0548
 3381TIP3    H231635   0.745   6.096  12.933 -0.5155 -0.8247 -0.9239
 3382TIP3   OH231636   4.947   5.951   3.921  0.4154 -0.1260 -0.0606
 3382TIP3    H131637   4.899   5.936   3.839 -1.2613  2.1656  0.4206
 3382TIP3    H231638   4.884   5.930   3.990  0.0527  2.7052  0.5857
 3383TIP3   OH231639   5.889   6.614  13.536 -0.1758  0.1457  0.0773
 3383TIP3    H131640   5.914   6.606  13.444 -0.3130  2.7534 -0.2715
 3383TIP3    H231641   5.903   6.527  13.572  1.1278 -0.6364 -2.0992
 3384TIP3   OH231642   6.381   3.137  15.926 -0.1245  0.7747  0.1100
 3384TIP3    H131643   6.459   3.192  15.933 -0.5220  1.6938 -1.9772
 3384TIP3    H231644   6.368   3.126  15.832 -1.3469 -1.0850  0.4478
 3385TIP3   OH231645   2.842   1.404   0.620 -0.0981 -0.2617 -0.4361
 3385TIP3    H131646   2.900   1.419   0.695  0.2866  0.3198 -0.8432
 3385TIP3    H231647   2.795   1.486   0.608  0.0745 -0.2419 -1.0261
 3386TIP3   OH231648   6.791   6.428   1.938 -0.3356  0.3896  0.3992
 3386TIP3    H131649   6.852   6.501   1.948  0.7290 -0.4476  0.1442
 3386TIP3    H231650   6.795   6.381   2.021  0.2147 -0.2925 -0.0018
 3387TIP3   OH231651   5.348   4.127   3.917  0.1236 -0.2874  0.0083
 3387TIP3    H131652   5.348   4.036   3.888 -3.0931 -0.0557 -1.0759
 3387TIP3    H231653   5.382   4.176   3.842  1.7898 -0.5186  0.5675
 3388TIP3   OH231654   1.735   0.139  13.550 -0.0002  0.3751 -0.2946
 3388TIP3    H131655   1.659   0.182  13.509 -0.3453 -0.1069 -0.1712
 3388TIP3    H231656   1.741   0.179  13.637  0.2681  0.8575 -0.5355
 3389TIP3   OH231657   6.136   6.629   1.214  0.5323 -0.3859  0.3809
 3389TIP3    H131658   6.102   6.660   1.298  2.3246  0.1480  0.9551
 3389TIP3    H231659   6.104   6.693   1.150  1.3076  0.7196  1.0613
 3390TIP3   OH231660   6.221   4.935  17.158 -0.2564 -0.2882  0.4127
 3390TIP3    H131661   6.217   4.883  17.078 -0.0558  0.3829 -0.0467
 3390TIP3    H231662   6.312   4.925  17.188 -0.3784 -0.6808  0.6589
 3391TIP3   OH231663   1.385   0.889   6.080  0.5744 -0.1953 -0.2025
 3391TIP3    H131664   1.480   0.902   6.078  0.7553 -1.4366 -0.9301
 3391TIP3    H231665   1.353   0.935   6.003  0.6537 -0.2433 -0.2647
 3392TIP3   OH231666   5.196   5.827   3.822 -0.6010  0.2522 -0.4110
 3392TIP3    H131667   5.123   5.870   3.866 -1.3533 -1.1314 -0.2448
 3392TIP3    H231668   5.158   5.748   3.784  0.0156  1.3059 -3.5277
 3393TIP3   OH231669   4.808   3.907  15.283  0.4023 -0.3414 -0.1486
 3393TIP3    H131670   4.752   3.861  15.220  1.4823 -0.8719 -0.7486
 3393TIP3    H231671   4.852   3.974  15.231 -0.0267  0.4029  0.4209
 3394TIP3   OH231672   0.627   3.434   0.721 -0.9590 -0.2581 -0.1241
 3394TIP3    H131673   0.533   3.430   0.706 -0.9407  0.7503 -0.5732
 3394TIP3    H231674   0.665   3.439   0.634 -0.5670  0.6867  0.0936
 3395TIP3   OH231675   5.906   6.118   1.002 -0.1109  0.1202  0.9160
 3395TIP3    H131676   5.953   6.182   0.948 -0.3758 -0.7281 -0.3606
 3395TIP3    H231677   5.975   6.071   1.048  0.1423  0.6053  1.0445
 3396TIP3   OH231678   3.524   1.219   5.217  0.1548 -0.5279 -0.6999
 3396TIP3    H131679   3.551   1.277   5.146  1.5911 -0.3328 -0.0365
 3396TIP3    H231680   3.432   1.202   5.200 -0.5944  2.6447 -0.4776
 3397TIP3   OH231681   2.597   5.022   1.303  0.3476 -0.1794  0.0729
 3397TIP3    H131682   2.590   5.111   1.337 -2.0139  0.1133 -0.9850
 3397TIP3    H231683   2.561   5.027   1.214  3.9979 -1.4028 -1.6935
 3398TIP3   OH231684   0.490   2.957  16.056  0.7688 -0.1966 -0.4016
 3398TIP3    H131685   0.542   2.909  15.992  0.5563 -1.1516  0.1267
 3398TIP3    H231686   0.411   2.981  16.008  1.7649  1.5042 -1.2893
 3399TIP3   OH231687   1.082   4.237  11.847 -0.2221  0.1779  0.1011
 3399TIP3    H131688   1.083   4.293  11.925  2.1308  0.0327  0.2648
 3399TIP3    H231689   1.124   4.156  11.875 -1.1789 -0.6669 -0.8233
 3400TIP3   OH231690   6.545   6.670   2.170 -0.5042 -0.6448 -0.0032
 3400TIP3    H131691   6.450   6.672   2.179 -0.5872  0.9294 -0.8000
 3400TIP3    H231692   6.560   6.639   2.080 -0.3520  0.6827 -0.4581
 3401TIP3   OH231693   5.779   1.121   5.880 -0.0984  0.0958  0.5419
 3401TIP3    H131694   5.842   1.071   5.931  0.7403  1.0169  0.4398
 3401TIP3    H231695   5.711   1.058   5.856 -1.1757 -0.1566  3.7531
 3402TIP3   OH231696   5.202   1.200  10.048  0.3589 -0.6209 -0.1801
 3402TIP3    H131697   5.161   1.196  10.135  1.1502 -0.0730  0.2341
 3402TIP3    H231698   5.156   1.271  10.003 -0.5340 -1.3706 -0.4781
 3403TIP3   OH231699   0.022   3.476   4.740 -0.0160 -0.3569 -0.3811
 3403TIP3    H131700  -0.030   3.527   4.678  0.9945  1.3416  0.0923
 3403TIP3    H231701  -0.031   3.399   4.759 -1.0125 -0.1533 -2.1748
 3404TIP3   OH231702   4.652   4.224   6.175 -0.1500 -0.2692 -0.3898
 3404TIP3    H131703   4.613   4.311   6.188 -0.5714 -0.7221  1.7208
 3404TIP3    H231704   4.738   4.242   6.135 -0.5200  1.0594 -0.6396
 3405TIP3   OH231705   0.411   4.763  14.374 -0.6218  0.1328 -0.4249
 3405TIP3    H131706   0.439   4.855  14.368 -1.3082  0.5236  1.7004
 3405TIP3    H231707   0.464   4.718  14.308  1.7703  1.5909  0.3496
 3406TIP3   OH231708   2.558   1.305   4.899  0.0876  0.2635 -0.0834
 3406TIP3    H131709   2.549   1.227   4.954 -0.6257  0.9426  0.7879
 3406TIP3    H231710   2.509   1.284   4.820  0.3296 -0.3649 -0.0720
 3407TIP3   OH231711   5.706   0.501   2.292  0.5823  0.2257  0.4012
 3407TIP3    H131712   5.796   0.531   2.304  0.9090  0.1594 -1.5359
 3407TIP3    H231713   5.654   0.581   2.283  0.4317  0.2628  1.4597
 3408TIP3   OH231714   2.893   4.460   1.077  0.1873  0.0415 -0.0652
 3408TIP3    H131715   2.908   4.480   0.985  0.1323 -0.4051 -0.1734
 3408TIP3    H231716   2.899   4.364   1.082  1.5110  0.1346  0.6246
 3409TIP3   OH231717   0.245   6.673  14.044  0.0441  0.3234  0.4385
 3409TIP3    H131718   0.305   6.739  14.079  0.2657 -0.0366  0.7575
 3409TIP3    H231719   0.176   6.666  14.110  1.6768 -2.0594  2.0686
 3410TIP3   OH231720   2.855   5.436  16.420 -0.1668  0.3366 -0.1192
 3410TIP3    H131721   2.905   5.498  16.472  0.4076 -1.2189  1.2389
 3410TIP3    H231722   2.903   5.354  16.425 -1.7658 -0.6852 -0.4766
 3411TIP3   OH231723   6.618   4.955   1.548  0.6880  0.0334  0.6916
 3411TIP3    H131724   6.601   4.957   1.642 -0.4357  1.2775  0.4894
 3411TIP3    H231725   6.688   5.019   1.535 -0.5326  1.3539  0.4555
 3412TIP3   OH231726   5.187   0.332  10.846  0.1761 -0.1396  0.4777
 3412TIP3    H131727   5.220   0.243  10.862  1.8405  0.6778  1.9156
 3412TIP3    H231728   5.140   0.354  10.926 -0.1345  0.3225  0.1698
 3413TIP3   OH231729   5.944   3.826   4.594  0.2836 -0.2290 -0.2781
 3413TIP3    H131730   5.977   3.737   4.604  0.8147  0.0018  0.0324
 3413TIP3    H231731   5.921   3.853   4.683  2.7378  0.9419  0.0646
 3414TIP3   OH231732   3.796   0.404   2.245 -0.3882  0.0563  0.0559
 3414TIP3    H131733   3.832   0.423   2.331 -1.4622 -2.3081  1.1147
 3414TIP3    H231734   3.873   0.388   2.190  0.3034  1.4695  0.5550
 3415TIP3   OH231735   3.801   1.641  16.377 -0.2842 -0.2571 -0.5358
 3415TIP3    H131736   3.803   1.719  16.321  1.5201 -0.2871 -0.5465
 3415TIP3    H231737   3.816   1.568  16.318 -0.7130 -0.5170 -0.3332
 3416TIP3   OH231738   3.693   2.886  17.011 -0.0119  0.1654  0.2288
 3416TIP3    H131739   3.689   2.791  17.020 -1.1947  0.2978  1.3642
 3416TIP3    H231740   3.772   2.902  16.959  0.1373 -1.4315 -0.0742
 3417TIP3   OH231741   0.189   3.120   5.338 -0.7673  0.0727  0.5323
 3417TIP3    H131742   0.147   3.034   5.337  1.2230 -0.9427 -0.4623
 3417TIP3    H231743   0.248   3.118   5.413  1.6063 -0.6965 -1.2297
 3418TIP3   OH231744   1.624   2.413  11.752 -0.6435 -0.8644  0.1569
 3418TIP3    H131745   1.697   2.474  11.740  0.5699 -2.6052 -2.4578
 3418TIP3    H231746   1.551   2.455  11.707 -0.1372 -0.7876 -0.6285
 3419TIP3   OH231747   3.250   4.749   1.538 -0.3244 -0.4343 -0.2951
 3419TIP3    H131748   3.320   4.811   1.557 -0.7482  0.3014 -1.0456
 3419TIP3    H231749   3.171   4.803   1.530 -0.9011 -1.1941  0.0846
 3420TIP3   OH231750   6.091   1.838  13.035 -0.0318  0.1318 -0.2265
 3420TIP3    H131751   6.161   1.784  12.996  0.3960 -0.2952  1.0884
 3420TIP3    H231752   6.118   1.851  13.125 -1.0635  1.0132 -0.0244
 3421TIP3   OH231753   0.188   5.255  15.960  0.3624  0.3828 -0.1650
 3421TIP3    H131754   0.106   5.301  15.977 -0.6844 -1.2039 -0.6640
 3421TIP3    H231755   0.204   5.269  15.866 -0.2582 -0.6720 -0.4466
 3422TIP3   OH231756   6.054   2.133  14.741  0.1125  0.6070 -0.0513
 3422TIP3    H131757   6.134   2.174  14.774  0.0656  1.7291 -1.2524
 3422TIP3    H231758   6.085   2.060  14.687  0.2838  0.4992  0.1900
 3423TIP3   OH231759   3.451   1.241   2.411 -0.1804  0.1810 -0.1900
 3423TIP3    H131760   3.473   1.269   2.322 -0.6567  0.7349 -0.1381
 3423TIP3    H231761   3.460   1.320   2.464  1.8181 -0.5021  0.5970
 3424TIP3   OH231762   1.008   1.754  10.650  0.0840 -0.0760  0.2186
 3424TIP3    H131763   1.047   1.755  10.562  1.4047  0.0374  0.7709
 3424TIP3    H231764   0.985   1.662  10.665  1.7408 -0.4807  0.5033
 3425TIP3   OH231765   6.187   3.963  12.423  0.2767 -0.1168 -0.3927
 3425TIP3    H131766   6.179   3.876  12.461  2.7304  0.7973  2.5560
 3425TIP3    H231767   6.239   3.950  12.344 -1.8143 -1.5763 -1.6545
 3426TIP3   OH231768   4.590   5.176  12.014 -0.1288  0.2908 -0.1071
 3426TIP3    H131769   4.620   5.110  11.951  1.7985  0.3907  0.6519
 3426TIP3    H231770   4.520   5.223  11.968 -0.8883 -1.6106 -1.0341
 3427TIP3   OH231771   6.165   6.178  14.246  0.3245 -0.3612  0.0218
 3427TIP3    H131772   6.149   6.199  14.338  2.6520  2.2871 -0.0421
 3427TIP3    H231773   6.255   6.147  14.244 -0.3663 -2.5178 -1.1655
 3428TIP3   OH231774   1.835   1.192   4.850 -0.4331  0.1611 -0.2563
 3428TIP3    H131775   1.913   1.245   4.835 -0.6910  0.4515 -0.5882
 3428TIP3    H231776   1.863   1.124   4.911  0.3583 -0.3743 -1.1919
 3429TIP3   OH231777   4.686   3.006   0.103 -0.7450  0.0877 -0.4395
 3429TIP3    H131778   4.759   3.058   0.136 -0.1181 -1.0605  0.0369
 3429TIP3    H231779   4.619   3.015   0.171 -0.5357  0.0410 -0.2231
 3430TIP3   OH231780   0.547   4.562   4.423  0.1352 -0.1181  0.4917
 3430TIP3    H131781   0.569   4.487   4.368 -0.7085 -0.4950  0.6652
 3430TIP3    H231782   0.490   4.616   4.367  1.6790  1.0080 -0.0662
 3431TIP3   OH231783   5.914   3.693  16.337 -0.1404  0.1202 -0.0546
 3431TIP3    H131784   5.916   3.779  16.378 -0.9314 -0.2181  0.7377
 3431TIP3    H231785   5.951   3.634  16.404  0.8393 -0.1028 -0.7653
 3432TIP3   OH231786   1.272   5.347  15.123 -0.4137  0.3860  0.2745
 3432TIP3    H131787   1.181   5.317  15.119  0.0218 -1.0062  0.1368
 3432TIP3    H231788   1.319   5.275  15.166  0.9139  0.3062 -1.2022
 3433TIP3   OH231789   4.549   5.394   6.006 -0.7635 -0.4757 -0.1331
 3433TIP3    H131790   4.467   5.381   6.053 -0.9751  0.8770 -0.1066
 3433TIP3    H231791   4.610   5.332   6.047 -0.5954  1.4419  2.8286
 3434TIP3   OH231792   5.281   2.554  16.111  0.5334 -0.5308  0.5182
 3434TIP3    H131793   5.336   2.617  16.065 -0.4204  1.1024  1.5148
 3434TIP3    H231794   5.207   2.538  16.052  0.0228  0.4733  0.8652
 3435TIP3   OH231795   0.630   2.505  11.556  0.0678  0.1763 -0.2265
 3435TIP3    H131796   0.604   2.470  11.471 -1.7537 -3.2995  1.5366
 3435TIP3    H231797   0.558   2.563  11.581 -0.9527 -1.1719  0.1245
 3436TIP3   OH231798   4.250   5.047   4.687  0.1632  0.2884 -0.0697
 3436TIP3    H131799   4.250   4.973   4.747  0.9646  2.2113  2.4976
 3436TIP3    H231800   4.168   5.093   4.707  0.2116  0.7036 -0.8131
 3437TIP3   OH231801   6.553   5.199  15.686  0.5835  0.1194 -0.0013
 3437TIP3    H131802   6.542   5.113  15.646 -0.0562 -0.7692  1.9752
 3437TIP3    H231803   6.468   5.242  15.673 -0.1289 -0.7358  1.6241
 3438TIP3   OH231804   4.166   6.138  11.417 -0.5352 -0.0645  0.0623
 3438TIP3    H131805   4.186   6.211  11.476  1.0342 -0.4971  0.1165
 3438TIP3    H231806   4.086   6.100  11.452 -1.3519  1.5693  0.0798
 3439TIP3   OH231807   6.059   3.247  16.350  0.3037  0.5211 -0.7256
 3439TIP3    H131808   6.124   3.219  16.414  1.0150  0.5209 -1.4255
 3439TIP3    H231809   6.025   3.330  16.385  2.0945  1.5421 -1.2615
 3440TIP3   OH231810   0.835   6.202   0.604  0.1060 -0.1056 -0.0196
 3440TIP3    H131811   0.765   6.182   0.666 -0.9920  2.0816 -0.4313
 3440TIP3    H231812   0.797   6.182   0.518  0.9304 -1.2847 -0.1387
 3441TIP3   OH231813   5.901   1.045   0.648 -0.4632 -0.1591  0.5386
 3441TIP3    H131814   5.844   0.969   0.663  0.6906 -1.2412 -0.4370
 3441TIP3    H231815   5.842   1.121   0.659 -1.9932 -1.2148 -0.0147
 3442TIP3   OH231816   2.326   0.365  14.742 -0.5366  0.2485  0.3281
 3442TIP3    H131817   2.257   0.412  14.694  1.7545  0.4622 -3.0910
 3442TIP3    H231818   2.355   0.427  14.809 -1.8423  1.1898  0.0667
 3443TIP3   OH231819   4.141   6.130   5.238  0.3617  0.4782  0.0384
 3443TIP3    H131820   4.164   6.073   5.165 -0.3143  0.5156 -0.2156
 3443TIP3    H231821   4.113   6.212   5.196 -0.0209  0.5014  0.3380
 3444TIP3   OH231822   4.189   0.364   3.500  0.1257 -0.4345 -0.7378
 3444TIP3    H131823   4.215   0.272   3.506  0.5084 -0.4005 -1.7635
 3444TIP3    H231824   4.130   0.377   3.575  2.7865 -0.5761  1.5646
 3445TIP3   OH231825   6.196   0.424   0.972 -0.5080 -0.1801 -0.4770
 3445TIP3    H131826   6.110   0.381   0.963 -2.3684  2.8475  1.1685
 3445TIP3    H231827   6.220   0.411   1.063  0.1496  0.0584 -0.6137
 3446TIP3   OH231828   6.664   0.824   5.482 -0.1269  0.3421 -0.1775
 3446TIP3    H131829   6.739   0.860   5.529 -0.3931 -0.9022  1.2920
 3446TIP3    H231830   6.635   0.895   5.425  2.6267  0.6090 -1.4162
 3447TIP3   OH231831   4.982   5.992   5.066 -0.2528 -0.2167 -0.0832
 3447TIP3    H131832   4.994   5.897   5.075 -2.3480 -0.3671  2.3317
 3447TIP3    H231833   4.956   6.021   5.154  0.9922  2.7469 -0.5748
 3448TIP3   OH231834   4.821   5.652  14.173 -0.0781  0.1709  0.0150
 3448TIP3    H131835   4.733   5.616  14.162 -0.5227  1.2489 -0.0817
 3448TIP3    H231836   4.807   5.746  14.188  1.1241  0.6572 -1.5967
 3449TIP3   OH231837   4.879   2.147  14.729 -0.5689  0.0961  0.3497
 3449TIP3    H131838   4.822   2.159  14.653  1.8350  0.1683 -1.5844
 3449TIP3    H231839   4.890   2.052  14.735  0.1413  0.1390 -0.1458
 3450TIP3   OH231840   2.986   6.404  15.691 -0.3771 -0.1081 -0.0115
 3450TIP3    H131841   3.067   6.453  15.705 -0.8954  0.4013  1.3517
 3450TIP3    H231842   3.003   6.319  15.733 -0.4587 -0.0875  0.0630
 3451TIP3   OH231843   3.785   6.803  15.130  0.1609  0.3260 -0.1458
 3451TIP3    H131844   3.833   6.781  15.209 -0.4190  0.4444  0.2488
 3451TIP3    H231845   3.698   6.828  15.161 -0.9696 -2.1984 -0.9958
 3452TIP3   OH231846   1.953   5.633   2.456 -0.5902 -0.3753  0.2660
 3452TIP3    H131847   1.864   5.621   2.424 -0.8677  0.8852  0.5110
 3452TIP3    H231848   1.967   5.562   2.518 -1.6589 -0.2005  0.7174
 3453TIP3   OH231849   1.638   5.134   2.606 -0.1420  0.1391 -0.5706
 3453TIP3    H131850   1.632   5.148   2.512  0.9054 -0.0862 -0.6855
 3453TIP3    H231851   1.613   5.218   2.645  0.4626  0.5680 -1.0846
 3454TIP3   OH231852   6.333   5.772   4.073 -0.9367 -0.8688 -0.4075
 3454TIP3    H131853   6.261   5.835   4.068 -0.7158 -0.5263  0.4324
 3454TIP3    H231854   6.297   5.699   4.124  0.3990  1.0083  3.6687
 3455TIP3   OH231855   6.078   6.068  16.060 -0.0926 -0.4420  0.4352
 3455TIP3    H131856   6.038   6.112  15.985  0.7490 -1.0815 -0.4189
 3455TIP3    H231857   6.169   6.096  16.057  0.3074 -1.6978  0.2581
 3456TIP3   OH231858   5.953   6.500   0.207 -0.4495  0.7666 -0.1467
 3456TIP3    H131859   5.948   6.426   0.268 -1.1710  0.8143 -0.1349
 3456TIP3    H231860   5.999   6.568   0.255  0.1495  0.3606 -0.1277
 3457TIP3   OH231861   5.104   4.918   3.641  0.5431 -0.2556  0.8585
 3457TIP3    H131862   5.080   4.936   3.550 -0.1788 -1.4255  0.7920
 3457TIP3    H231863   5.105   4.823   3.647  1.2401 -0.2010  1.9191
 3458TIP3   OH231864   4.193   5.189   3.301 -0.0666  0.4352 -0.0788
 3458TIP3    H131865   4.248   5.121   3.339  1.1881  1.7843  0.6306
 3458TIP3    H231866   4.151   5.147   3.225 -0.6153 -1.5517  1.2570
 3459TIP3   OH231867   5.640   4.883   1.067  0.1091 -0.0960 -0.1909
 3459TIP3    H131868   5.552   4.918   1.077 -0.5219 -1.6448 -0.0579
 3459TIP3    H231869   5.681   4.898   1.152 -0.4480 -0.4683  0.1524
 3460TIP3   OH231870   1.394   5.375  11.996 -0.4057 -0.5445  0.1314
 3460TIP3    H131871   1.375   5.290  12.036  0.9797 -0.9021  0.0700
 3460TIP3    H231872   1.362   5.366  11.907  1.2500 -1.6438 -0.4012
 3461TIP3   OH231873   2.756   2.414   2.837 -0.0808 -0.2478 -0.1386
 3461TIP3    H131874   2.785   2.363   2.912 -3.2385 -0.6362  0.9644
 3461TIP3    H231875   2.735   2.500   2.873 -0.6806 -0.1354 -0.7251
 3462TIP3   OH231876   0.304   1.088  12.662 -0.1600  0.3467 -0.2867
 3462TIP3    H131877   0.233   1.149  12.643 -0.4610  1.6236  3.8623
 3462TIP3    H231878   0.382   1.143  12.666  0.4754 -0.4491 -1.3850
 3463TIP3   OH231879   3.209   4.514   2.749 -0.2586  0.2301  0.5224
 3463TIP3    H131880   3.253   4.498   2.833 -0.5397  1.7082  0.9805
 3463TIP3    H231881   3.223   4.607   2.732 -0.6776  0.0716 -0.8150
 3464TIP3   OH231882   5.774   5.897  11.557 -0.1116  0.0723  0.0340
 3464TIP3    H131883   5.801   5.815  11.597 -0.7490 -0.9357 -1.5248
 3464TIP3    H231884   5.680   5.903  11.576 -0.3438 -0.2414 -0.9939
 3465TIP3   OH231885   4.296   2.743   3.674  0.2812 -0.1403  0.0001
 3465TIP3    H131886   4.208   2.718   3.647 -0.2614  2.0690 -0.4323
 3465TIP3    H231887   4.293   2.740   3.770 -0.5870  0.8817  0.0202
 3466TIP3   OH231888   1.290   4.864   6.160  0.2994  0.2703 -0.0764
 3466TIP3    H131889   1.221   4.923   6.130 -0.1802 -0.4336 -0.3730
 3466TIP3    H231890   1.251   4.777   6.156  1.7590 -0.3831 -2.0691
 3467TIP3   OH231891   3.925   1.919  14.212 -0.6120  0.0073 -0.2828
 3467TIP3    H131892   4.009   1.926  14.167  0.0649 -1.1327  0.7553
 3467TIP3    H231893   3.941   1.956  14.299 -1.1947 -0.2265 -0.0723
 3468TIP3   OH231894   1.436   6.801  11.038 -0.4503 -0.5003 -0.2796
 3468TIP3    H131895   1.497   6.872  11.018 -3.0139  1.9659  0.0330
 3468TIP3    H231896   1.466   6.767  11.122  1.7650 -0.9789 -1.1799
 3469TIP3   OH231897   1.736   1.255   3.682 -0.0708 -0.0457  0.2334
 3469TIP3    H131898   1.700   1.344   3.689  1.2848  0.5548 -0.1634
 3469TIP3    H231899   1.659   1.198   3.684 -1.0326  1.1788 -0.4136
 3470TIP3   OH231900   4.654   0.614   2.060 -0.1395  0.2025  0.0133
 3470TIP3    H131901   4.559   0.621   2.070 -0.0980  0.4349  0.2581
 3470TIP3    H231902   4.675   0.672   1.987  0.0135  1.4751  1.0383
 3471TIP3   OH231903   4.014   6.548   6.017  0.5040 -0.0759  0.7572
 3471TIP3    H131904   4.092   6.581   6.062  0.9653  0.5423 -0.4402
 3471TIP3    H231905   3.965   6.501   6.084  2.0851 -0.7751  1.4625
 3472TIP3   OH231906   1.246   2.871   3.698 -0.5433 -0.2704  0.5856
 3472TIP3    H131907   1.208   2.937   3.755 -1.0204 -0.7144  0.7872
 3472TIP3    H231908   1.292   2.921   3.630  0.5425  0.2764  1.6735
 3473TIP3   OH231909   0.477   3.097   4.618  0.1113 -0.1269  0.0732
 3473TIP3    H131910   0.397   3.142   4.642  1.4572  0.8351  3.2273
 3473TIP3    H231911   0.458   3.004   4.631 -1.1494 -0.1638 -1.6348
 3474TIP3   OH231912   5.761   1.164   1.606 -0.3142 -0.1469 -0.8989
 3474TIP3    H131913   5.692   1.229   1.619  0.4629  0.3124  1.3357
 3474TIP3    H231914   5.715   1.082   1.594 -1.2700  0.4204 -1.2308
 3475TIP3   OH231915   4.675   0.515  15.617 -0.1169  0.5224 -0.6151
 3475TIP3    H131916   4.627   0.440  15.581 -1.1708  1.0122 -0.2968
 3475TIP3    H231917   4.689   0.492  15.709 -0.9412  0.9285 -0.3730
 3476TIP3   OH231918   1.257   4.976  11.292  0.3521  0.1927  0.0870
 3476TIP3    H131919   1.196   4.996  11.363 -0.5022 -2.5623  0.2419
 3476TIP3    H231920   1.274   5.060  11.251 -3.7691  1.1183 -0.1327
 3477TIP3   OH231921   3.596   0.212   2.881  0.0651 -0.0149  0.0909
 3477TIP3    H131922   3.569   0.304   2.876 -0.8767 -0.1804  1.4111
 3477TIP3    H231923   3.628   0.191   2.794 -0.1210  1.4452 -0.3550
 3478TIP3   OH231924   6.685   0.005   0.780  0.7322 -0.2308 -0.2635
 3478TIP3    H131925   6.734   0.086   0.770  0.4663 -0.2028 -1.6285
 3478TIP3    H231926   6.663   0.001   0.873  2.5871  0.1527  0.2308
 3479TIP3   OH231927   1.460   0.370  16.125  0.2688 -0.3129 -0.1589
 3479TIP3    H131928   1.522   0.441  16.111 -0.4920  0.3300 -0.3187
 3479TIP3    H231929   1.509   0.291  16.103  0.4870  0.3063 -2.0746
 3480TIP3   OH231930   1.723   2.368   3.710  0.3646 -0.5899 -0.5675
 3480TIP3    H131931   1.654   2.414   3.661  0.0057 -0.9645 -0.4195
 3480TIP3    H231932   1.744   2.427   3.782 -1.2359 -1.3266  0.5718
 3481TIP3   OH231933   5.440   5.799   6.076  0.1615  0.2746 -0.6609
 3481TIP3    H131934   5.348   5.775   6.070 -0.1030  1.0983 -0.1683
 3481TIP3    H231935   5.453   5.819   6.169  1.0876 -0.7682 -0.5457
 3482TIP3   OH231936   5.617   5.080   3.953  0.3105  0.1320  1.1561
 3482TIP3    H131937   5.708   5.106   3.970  0.1519  2.5719 -1.1779
 3482TIP3    H231938   5.565   5.155   3.983 -0.8326 -0.6070  1.0588
 3483TIP3   OH231939   0.249   1.927   3.916 -0.1332  0.1279 -0.4657
 3483TIP3    H131940   0.181   1.936   3.983 -0.1817  2.5852 -0.7462
 3483TIP3    H231941   0.331   1.929   3.965 -0.2086 -0.8329 -0.2864
 3484TIP3   OH231942   2.726   1.074  14.973 -0.1512 -0.5993 -0.1074
 3484TIP3    H131943   2.789   1.050  14.905 -1.3786 -0.6800 -1.2495
 3484TIP3    H231944   2.716   0.994  15.025  1.0702 -0.4325  0.4317
 3485TIP3   OH231945   2.996   0.594  14.257 -0.2110  0.0743  0.0862
 3485TIP3    H131946   2.916   0.642  14.276 -0.8490 -0.7037 -0.5753
 3485TIP3    H231947   3.008   0.603  14.163 -0.0532 -0.6230  0.0315
 3486TIP3   OH231948   4.226   4.525   2.665  0.0635 -0.3130  0.0223
 3486TIP3    H131949   4.248   4.479   2.746 -0.0857  0.3931  0.4739
 3486TIP3    H231950   4.218   4.617   2.691  1.4751  0.1612 -1.0649
 3487TIP3   OH231951   3.682   1.113  12.510 -0.1237 -0.1187 -0.1545
 3487TIP3    H131952   3.627   1.126  12.433 -0.2230 -0.4277 -0.1361
 3487TIP3    H231953   3.770   1.098  12.474  0.1264  1.2539 -0.1552
 3488TIP3   OH231954   0.012   5.269  13.861  0.0480 -0.2929  0.9856
 3488TIP3    H131955   0.021   5.198  13.925 -1.0458 -1.0932  0.2977
 3488TIP3    H231956  -0.068   5.315  13.887 -0.9063 -1.1603 -0.2501
 3489TIP3   OH231957   0.356   3.675  11.985 -0.4581  1.0990  0.3745
 3489TIP3    H131958   0.286   3.700  12.045 -0.3578  0.1385  0.9158
 3489TIP3    H231959   0.318   3.605  11.931  0.5786 -0.7568  1.8937
 3490TIP3   OH231960   4.044   3.065   1.120  0.3132 -0.0728 -1.0490
 3490TIP3    H131961   3.951   3.044   1.110 -0.1588  1.5284 -0.2838
 3490TIP3    H231962   4.082   2.985   1.158 -0.4595 -1.2246 -2.5676
 3491TIP3   OH231963   1.316   5.792   5.293  0.1168 -0.0186 -0.3228
 3491TIP3    H131964   1.317   5.728   5.222 -1.7542 -0.8814  0.3406
 3491TIP3    H231965   1.285   5.872   5.252 -1.0233 -0.5323 -0.5142
 3492TIP3   OH231966   4.027   4.844  15.720 -0.4651 -0.0499 -0.5176
 3492TIP3    H131967   3.948   4.795  15.702 -1.4815  1.2050  0.3131
 3492TIP3    H231968   4.053   4.817  15.808 -1.1532  0.9965  0.0340
 3493TIP3   OH231969   4.128   4.053  11.452  0.7003 -0.3944 -0.4880
 3493TIP3    H131970   4.144   3.970  11.497 -2.0514 -0.6066  0.2887
 3493TIP3    H231971   4.215   4.092  11.442  2.0246 -3.0810 -0.3783
 3494TIP3   OH231972   3.120   0.888   1.201  0.1511  0.0370 -0.9794
 3494TIP3    H131973   3.151   0.951   1.136  0.0035 -1.8692 -2.9933
 3494TIP3    H231974   3.192   0.880   1.263  0.7976  0.9441 -1.5926
 3495TIP3   OH231975   5.584   4.027  16.312  0.2325  0.2680 -0.0560
 3495TIP3    H131976   5.500   4.005  16.273 -0.6411  0.7665  1.4602
 3495TIP3    H231977   5.648   4.002  16.246 -1.1851  2.2560 -2.3629
 3496TIP3   OH231978   4.823   6.762  15.603 -0.4757  0.8581  0.2818
 3496TIP3    H131979   4.909   6.729  15.629 -0.1480  2.8352  1.9437
 3496TIP3    H231980   4.831   6.857  15.608 -3.1486  1.1102  1.9850
 3497TIP3   OH231981   2.197   1.042  11.027 -0.3293  0.0933  0.0388
 3497TIP3    H131982   2.157   1.066  11.111 -0.2459  0.3004  0.0212
 3497TIP3    H231983   2.153   0.961  11.001 -0.6673  0.2659  0.0678
 3498TIP3   OH231984   2.356   0.284  16.188  0.6925  0.0168 -0.3305
 3498TIP3    H131985   2.357   0.380  16.183 -0.3761  0.0126 -0.9049
 3498TIP3    H231986   2.274   0.259  16.145 -0.8699 -0.9457  2.9021
 3499TIP3   OH231987   3.672   1.382  12.027 -0.0681 -0.5281  0.0553
 3499TIP3    H131988   3.599   1.320  12.033 -0.3009 -0.2047  0.7914
 3499TIP3    H231989   3.633   1.467  12.049  0.4078 -0.2540 -0.1483
 3500TIP3   OH231990   5.972   1.431  13.652 -0.0854 -0.2140  0.3786
 3500TIP3    H131991   5.993   1.524  13.653 -0.4451 -0.1057 -0.7308
 3500TIP3    H231992   6.033   1.393  13.589  0.1872 -0.7667  0.9671
 3501TIP3   OH231993   6.148   6.453  14.155  0.4249  0.5578  0.3448
 3501TIP3    H131994   6.126   6.363  14.182 -3.8696  1.6874  1.3853
 3501TIP3    H231995   6.177   6.495  14.235  0.2002  0.6484  0.3808
 3502TIP3   OH231996   5.892   6.464   6.430 -0.2531  0.1126 -0.6602
 3502TIP3    H131997   5.946   6.542   6.415 -0.0487 -0.3968 -2.8872
 3502TIP3    H231998   5.954   6.392   6.434 -0.6489 -0.3326 -2.0607
 3503TIP3   OH231999   0.811   1.422   2.994  0.0688 -0.5468  0.3341
 3503TIP3    H132000   0.906   1.413   2.990  0.0294 -0.6647 -0.3673
 3503TIP3    H232001   0.780   1.336   3.025  0.1894 -0.5062  0.5667
 3504TIP3   OH232002   2.914   3.570  16.932  1.0839 -0.0362  0.1141
 3504TIP3    H132003   2.859   3.638  16.894  2.6356 -0.3994 -3.1254
 3504TIP3    H232004   2.980   3.618  16.982 -0.9586  0.4616  2.5268
 3505TIP3   OH232005   5.527   2.582  16.887  0.0414  0.0705 -0.1997
 3505TIP3    H132006   5.591   2.513  16.903 -0.6849 -0.6755 -0.4038
 3505TIP3    H232007   5.486   2.597  16.972  1.5596  1.6903  0.2924
 3506TIP3   OH232008   3.270   6.343   0.862  0.6819 -0.2793  0.4475
 3506TIP3    H132009   3.287   6.301   0.945 -0.4060 -1.5876  0.0494
 3506TIP3    H232010   3.179   6.319   0.841  0.1092  2.0121  0.0402
 3507TIP3   OH232011   3.784   6.781   4.652  0.2162  0.4518 -0.0719
 3507TIP3    H132012   3.835   6.726   4.711  2.6395 -0.0571 -2.4521
 3507TIP3    H232013   3.824   6.868   4.658 -0.5483  0.7941  0.1971
 3508TIP3   OH232014   4.341   1.364  14.952  0.1695 -0.0753 -0.5405
 3508TIP3    H132015   4.409   1.298  14.955  0.2866  0.0315 -0.7800
 3508TIP3    H232016   4.332   1.394  15.042 -0.4240 -0.9609 -0.2920
 3509TIP3   OH232017   3.435   0.125  12.034 -0.0936  0.7083  0.6386
 3509TIP3    H132018   3.353   0.091  12.070 -0.6975  0.4656 -0.9162
 3509TIP3    H232019   3.415   0.145  11.943  1.9843 -0.8030 -0.2278
 3510TIP3   OH232020   6.414   3.766   4.272  0.2886 -0.0767  0.3908
 3510TIP3    H132021   6.329   3.797   4.239 -0.1343 -0.8318  0.7462
 3510TIP3    H232022   6.407   3.671   4.270  0.9983 -0.1390  0.7631
 3511TIP3   OH232023   5.961   0.316  13.266  0.3455  0.6604  0.2038
 3511TIP3    H132024   6.032   0.325  13.330  0.3315 -1.8394  0.6745
 3511TIP3    H232025   5.882   0.304  13.319 -0.1135  1.3077 -0.3151
 3512TIP3   OH232026   6.278   5.278   2.821  0.0328  0.7348  0.0514
 3512TIP3    H132027   6.271   5.185   2.801  0.2297  0.5549  0.7872
 3512TIP3    H232028   6.225   5.321   2.754  1.1817  0.2173 -1.2669
 3513TIP3   OH232029   6.419   3.528   1.753 -0.2202  0.1893 -0.4523
 3513TIP3    H132030   6.448   3.563   1.668 -0.6653  1.5998 -0.0395
 3513TIP3    H232031   6.355   3.591   1.784 -1.0071 -0.9818  0.3675
 3514TIP3   OH232032   1.084   5.925   2.490 -0.2901  0.1037  0.5243
 3514TIP3    H132033   1.161   5.982   2.490  0.2130 -0.5037 -1.5223
 3514TIP3    H232034   1.120   5.837   2.504 -0.5539 -0.2335 -0.8368
 3515TIP3   OH232035   4.136   6.836   4.333 -0.2726  0.2066 -0.0172
 3515TIP3    H132036   4.144   6.742   4.312 -2.2526  0.5328 -2.6822
 3515TIP3    H232037   4.047   6.845   4.367 -0.7010  1.2969 -1.3256
 3516TIP3   OH232038   3.431   0.720   5.814 -0.2449  0.4575 -0.5855
 3516TIP3    H132039   3.337   0.709   5.824 -0.1277  0.0701  0.1636
 3516TIP3    H232040   3.449   0.810   5.841 -0.5423  0.9064 -1.8299
 3517TIP3   OH232041   5.100   3.711  16.387 -0.5764 -0.1713  0.0903
 3517TIP3    H132042   5.097   3.722  16.292  0.4969 -2.4455 -0.2702
 3517TIP3    H232043   5.030   3.649  16.406 -0.6074  0.0619  0.7559
 3518TIP3   OH232044   2.567   2.353  14.801 -0.0660  0.1232  0.6446
 3518TIP3    H132045   2.487   2.380  14.847 -1.3461 -1.2604 -0.6730
 3518TIP3    H232046   2.594   2.431  14.752 -1.0155  0.4041  0.5488
 3519TIP3   OH232047   6.676   2.260  15.921  0.0734 -0.3062 -0.2448
 3519TIP3    H132048   6.679   2.168  15.895 -2.1155  0.1017 -2.3636
 3519TIP3    H232049   6.639   2.260  16.009 -2.6203 -1.4302 -1.2722
 3520TIP3   OH232050   4.034   0.217  14.393 -0.3103 -0.2576  0.1434
 3520TIP3    H132051   4.043   0.139  14.338 -2.6029 -0.0042 -0.7435
 3520TIP3    H232052   4.011   0.182  14.479 -1.5286 -0.6328 -0.2948
 3521TIP3   OH232053   3.797   3.203  15.985 -0.2587 -0.0118 -0.2170
 3521TIP3    H132054   3.721   3.215  15.928 -1.1607 -0.7771  0.7939
 3521TIP3    H232055   3.857   3.273  15.959 -1.3723  0.7245 -0.9081
 3522TIP3   OH232056   5.560   0.881  11.348 -0.0116 -0.4655  0.1501
 3522TIP3    H132057   5.560   0.894  11.253  0.7900  0.7528  0.2851
 3522TIP3    H232058   5.497   0.945  11.381  1.1205  0.5103  0.5485
 3523TIP3   OH232059   4.430   3.821  11.822  0.3293 -0.0965  0.0251
 3523TIP3    H132060   4.369   3.747  11.824  1.7825 -1.3667 -0.3129
 3523TIP3    H232061   4.470   3.817  11.735  2.6343 -0.8344  1.0393
 3524TIP3   OH232062   5.778   2.636   1.351 -0.5807 -0.0647 -0.6190
 3524TIP3    H132063   5.778   2.705   1.284  0.4241 -0.3999 -0.9770
 3524TIP3    H232064   5.867   2.602   1.351 -0.4093  0.2898  1.3044
 3525TIP3   OH232065   3.639   0.047  11.768 -0.2849  0.2644  0.2499
 3525TIP3    H132066   3.717   0.102  11.770 -1.0726  1.5251 -1.0444
 3525TIP3    H232067   3.566   0.110  11.765 -1.2817 -0.8631  0.0530
 3526TIP3   OH232068   4.842   2.770   1.969 -0.2929  0.2213 -0.1415
 3526TIP3    H132069   4.890   2.766   2.052  0.5832  0.3392 -0.6321
 3526TIP3    H232070   4.789   2.849   1.976  0.6704  0.8801 -0.1664
 3527TIP3   OH232071   5.006   3.872   5.372  0.5219  0.4621 -0.4572
 3527TIP3    H132072   4.981   3.964   5.372  0.5180  0.4604 -0.2848
 3527TIP3    H232073   4.987   3.841   5.461  1.8554  0.6519 -0.0839
 3528TIP3   OH232074   5.148   6.630  11.904 -0.5976 -0.0934 -0.1659
 3528TIP3    H132075   5.207   6.556  11.916 -0.0254  0.2342 -0.8972
 3528TIP3    H232076   5.072   6.610  11.959 -0.9290 -1.7409 -1.1685
 3529TIP3   OH232077   6.774   5.947  13.635 -0.5040 -0.2483 -0.3962
 3529TIP3    H132078   6.793   5.856  13.612  1.1743 -0.3452  1.1856
 3529TIP3    H232079   6.851   5.995  13.604 -0.2378  0.2440  0.9692
 3530TIP3   OH232080   3.163   2.150  16.806  0.1739 -0.0848 -0.1825
 3530TIP3    H132081   3.237   2.186  16.855  0.2200 -0.7707  0.2725
 3530TIP3    H232082   3.201   2.078  16.756 -0.3574 -1.1990  0.9383
 3531TIP3   OH232083   1.801   6.414  13.635 -0.0971  0.0317  1.3318
 3531TIP3    H132084   1.807   6.505  13.606 -0.0007 -0.5714 -0.7162
 3531TIP3    H232085   1.881   6.399  13.685 -1.1252  1.6462  3.6296
 3532TIP3   OH232086   1.263   5.547   1.001 -0.1351  0.2168 -0.0525
 3532TIP3    H132087   1.334   5.561   1.064 -0.3231  0.3525  0.1307
 3532TIP3    H232088   1.193   5.506   1.052 -0.0890 -0.1600 -0.2936
 3533TIP3   OH232089   6.071   0.147   0.375  0.1665 -0.4108 -0.6748
 3533TIP3    H132090   6.165   0.167   0.377  0.3891 -1.4124  1.3338
 3533TIP3    H232091   6.037   0.184   0.456 -1.1764 -0.2098 -1.2973
 3534TIP3   OH232092   2.797   0.670  12.988 -0.3316  0.6557 -0.0640
 3534TIP3    H132093   2.795   0.659  13.083 -0.4397  1.0623 -0.0185
 3534TIP3    H232094   2.732   0.607  12.956 -0.3072  0.5299  0.1303
 3535TIP3   OH232095   1.888   4.293  13.687 -0.1867 -0.1525 -0.5269
 3535TIP3    H132096   1.913   4.202  13.700  0.1743  0.0316  0.0615
 3535TIP3    H232097   1.844   4.318  13.768 -0.9202 -0.0107 -0.9551
 3536TIP3   OH232098   4.874   0.800   4.390  0.5466 -0.1337 -0.2413
 3536TIP3    H132099   4.865   0.813   4.296  0.8237 -0.0697 -0.2591
 3536TIP3    H232100   4.784   0.799   4.423  0.4557 -0.0142 -0.4858
 3537TIP3   OH232101   2.779   2.915   0.760  0.2308 -0.0538  0.2292
 3537TIP3    H132102   2.840   2.880   0.695 -0.3395 -0.3876 -0.1283
 3537TIP3    H232103   2.749   2.998   0.722 -0.7656 -0.6631 -0.3459
 3538TIP3   OH232104   0.012   4.669  14.754 -0.6029  0.1936 -0.7863
 3538TIP3    H132105   0.103   4.698  14.761 -0.6202  0.3125 -1.0735
 3538TIP3    H232106  -0.015   4.693  14.666 -1.4680  1.7465 -0.1445
 3539TIP3   OH232107   6.374   2.130   1.523 -0.6682 -0.3266 -0.2284
 3539TIP3    H132108   6.356   2.168   1.437 -1.6102  0.0469  0.1249
 3539TIP3    H232109   6.290   2.097   1.553 -0.4199 -0.1271  0.7078
 3540TIP3   OH232110   4.123   5.452   5.476  0.9099  0.3852 -0.0504
 3540TIP3    H132111   4.155   5.491   5.395 -2.5096  0.8701 -1.3231
 3540TIP3    H232112   4.133   5.358   5.463 -0.5594  0.3943 -1.5758
 3541TIP3   OH232113   5.525   5.147   0.414  0.3402 -0.4234  0.0318
 3541TIP3    H132114   5.485   5.227   0.380  1.9976  0.1539 -0.6315
 3541TIP3    H232115   5.494   5.078   0.355 -1.6195 -0.4465  0.9819
 3542TIP3   OH232116   6.029   2.218  14.128 -0.1289 -0.1023  0.3594
 3542TIP3    H132117   5.969   2.290  14.109 -2.1263 -1.1393  2.2951
 3542TIP3    H232118   6.091   2.255  14.191 -0.2968  0.2848  0.3013
 3543TIP3   OH232119   5.544   0.052  13.690  0.2982 -0.2289  0.2337
 3543TIP3    H132120   5.452   0.028  13.677  0.0139  1.0880 -0.3639
 3543TIP3    H232121   5.545   0.147  13.680  1.7319 -0.2275  0.2484
 3544TIP3   OH232122   5.554   3.913  12.871 -0.0749  0.1536  0.5790
 3544TIP3    H132123   5.493   3.981  12.841 -0.6569  0.5043  2.4542
 3544TIP3    H232124   5.498   3.841  12.899  0.5380 -1.0997 -1.2420
 3545TIP3   OH232125   5.750   5.783   4.265 -0.0777 -0.3865 -0.1857
 3545TIP3    H132126   5.765   5.828   4.182 -0.2527  0.5687  0.2895
 3545TIP3    H232127   5.656   5.763   4.264 -0.2617  0.4046  0.1466
 3546TIP3   OH232128   4.309   3.247   1.794  0.6354 -1.3949 -0.3990
 3546TIP3    H132129   4.228   3.233   1.744  0.6448 -2.0748 -0.2329
 3546TIP3    H232130   4.379   3.237   1.730  0.5875 -0.6456 -0.5764
 3547TIP3   OH232131   3.238   3.659   5.425 -0.4665  0.1368 -0.2965
 3547TIP3    H132132   3.305   3.593   5.408  1.2244  1.4858  0.7510
 3547TIP3    H232133   3.241   3.717   5.348 -0.5902  0.0662 -0.3544
 3548TIP3   OH232134   6.684   1.359   1.040 -0.1532  0.6047 -0.3905
 3548TIP3    H132135   6.708   1.390   1.128  0.9919 -0.0097 -0.4714
 3548TIP3    H232136   6.694   1.436   0.984  1.5188  0.4370 -0.3842
 3549TIP3   OH232137   5.474   0.089   0.798  0.4590 -0.2784 -0.2288
 3549TIP3    H132138   5.394   0.092   0.850  0.0574 -1.2348 -0.7699
 3549TIP3    H232139   5.517   0.008   0.825  1.1366  0.1111 -0.1143
 3550TIP3   OH232140   4.882   6.513  15.357  0.0911 -0.1629  0.4791
 3550TIP3    H132141   4.922   6.483  15.276 -0.7523 -0.0656  0.0049
 3550TIP3    H232142   4.790   6.485  15.351 -0.3615  1.1538  0.6994
 3551TIP3   OH232143   2.241   3.709   5.147  0.4384  0.1524 -0.1413
 3551TIP3    H132144   2.222   3.803   5.142 -2.0307 -0.0965  2.3074
 3551TIP3    H232145   2.167   3.668   5.102 -0.3884 -0.6337  1.8144
 3552TIP3   OH232146   0.072   5.452  14.789 -0.1306 -0.4425  0.0666
 3552TIP3    H132147   0.113   5.451  14.702  0.2475 -0.0929  0.2376
 3552TIP3    H232148   0.124   5.514  14.840 -0.9580  0.1303  0.2513
 3553TIP3   OH232149   4.412   4.775   5.323 -0.0394  0.1815 -0.9265
 3553TIP3    H132150   4.390   4.846   5.382  0.6233  0.6054 -1.1858
 3553TIP3    H232151   4.506   4.783   5.308  0.1497 -1.0645 -0.5542
 3554TIP3   OH232152   3.913   5.537  15.243 -1.0181 -0.0347  0.2697
 3554TIP3    H132153   3.902   5.448  15.278  0.1402 -0.2154  0.2179
 3554TIP3    H232154   3.868   5.593  15.306  0.9178 -0.3629  2.0727
 3555TIP3   OH232155   2.922   5.935  16.472 -0.2213  0.0503  0.3425
 3555TIP3    H132156   2.964   5.890  16.399 -0.2748  0.5824 -0.0202
 3555TIP3    H232157   2.963   5.898  16.550 -0.7141 -1.0949  0.0912
 3556TIP3   OH232158   6.038   1.174   2.875  0.3330 -0.0061  0.5338
 3556TIP3    H132159   6.081   1.106   2.823  0.2694 -0.8283  1.5131
 3556TIP3    H232160   6.094   1.251   2.866  0.5813 -0.2796 -0.3296
 3557TIP3   OH232161   5.080   3.318   2.119  0.2058 -0.5558 -0.2467
 3557TIP3    H132162   5.030   3.375   2.177 -0.0790  0.0624 -1.0847
 3557TIP3    H232163   5.015   3.257   2.084 -0.1479  0.6967 -1.8911
 3558TIP3   OH232164   2.565   2.363   4.509 -0.5185  0.6288  0.8564
 3558TIP3    H132165   2.475   2.396   4.515 -0.7505  0.4276 -1.0077
 3558TIP3    H232166   2.592   2.383   4.420  0.4345 -1.4907  0.6181
 3559TIP3   OH232167   6.649   1.951  10.987 -0.4355 -0.0834  0.0109
 3559TIP3    H132168   6.561   1.987  10.998 -0.2501 -0.0430  1.6295
 3559TIP3    H232169   6.635   1.862  10.956 -1.0882 -0.3468  1.0294
 3560TIP3   OH232170   5.935   4.752   4.601 -0.0583 -0.1900  0.4662
 3560TIP3    H132171   5.954   4.834   4.557  0.8303 -0.7079 -0.1479
 3560TIP3    H232172   6.002   4.744   4.668 -0.0764 -0.4624  0.4528
 3561TIP3   OH232173   1.783   3.868   3.082 -0.2904 -0.1296 -0.3630
 3561TIP3    H132174   1.816   3.897   2.997  1.7139 -1.8779 -0.2600
 3561TIP3    H232175   1.852   3.892   3.144 -2.5286  2.8687  1.2127
 3562TIP3   OH232176   2.178   0.151  14.541 -0.1019 -0.0180 -0.5976
 3562TIP3    H132177   2.213   0.180  14.625 -1.9387 -0.4350  0.3716
 3562TIP3    H232178   2.144   0.230  14.500 -1.0900 -0.1067  0.0238
 3563TIP3   OH232179   5.749   0.611  11.442 -0.1543 -0.2668  0.1030
 3563TIP3    H132180   5.780   0.526  11.474  2.2325  0.4187 -0.1459
 3563TIP3    H232181   5.766   0.672  11.514  0.0899  0.3261 -0.4437
 3564TIP3   OH232182   1.428   3.234  12.233 -0.3440  0.4286  0.6670
 3564TIP3    H132183   1.365   3.165  12.210 -1.4534  1.1571  1.4417
 3564TIP3    H232184   1.513   3.195  12.215 -0.9253 -1.2633  1.3873
 3565TIP3   OH232185   1.981   3.756   6.162  0.1144  0.3010  0.0101
 3565TIP3    H132186   2.005   3.841   6.200  1.0577  0.8360 -1.6808
 3565TIP3    H232187   2.030   3.693   6.215 -1.6225  0.6367  2.1425
 3566TIP3   OH232188   0.849   3.270   4.798 -0.7917  0.4407  0.2584
 3566TIP3    H132189   0.826   3.263   4.705  3.9607 -1.0573 -1.0929
 3566TIP3    H232190   0.902   3.192   4.815  0.9037  2.1072  3.3846
 3567TIP3   OH232191   3.754   4.198  15.342  0.0871  0.4179 -0.0794
 3567TIP3    H132192   3.675   4.252  15.342  1.4602  2.5876  0.7589
 3567TIP3    H232193   3.770   4.179  15.249 -1.8220 -0.7789 -0.2099
 3568TIP3   OH232194   2.277   0.825  11.393 -0.1349  0.3082 -0.8286
 3568TIP3    H132195   2.264   0.733  11.412  0.1016  0.6074  0.8886
 3568TIP3    H232196   2.334   0.857  11.463  0.6376  1.5273 -1.9581
 3569TIP3   OH232197   4.046   1.585   0.639 -0.3540 -0.2235 -0.3176
 3569TIP3    H132198   4.067   1.678   0.646  1.4578 -0.6922  1.4671
 3569TIP3    H232199   4.130   1.543   0.619 -0.7189 -1.6671  0.9978
 3570TIP3   OH232200   4.276   0.911   5.192  0.5052  0.0753 -0.2938
 3570TIP3    H132201   4.342   0.975   5.219 -0.3139  0.1818  1.6788
 3570TIP3    H232202   4.287   0.839   5.254 -0.2101 -0.5888 -0.9259
 3571TIP3   OH232203   6.707   1.461  17.004  0.1282  0.4415 -0.6766
 3571TIP3    H132204   6.779   1.418  17.051  0.2708 -1.1490 -2.2507
 3571TIP3    H232205   6.746   1.542  16.971  0.6773  0.4453 -0.0520
 3572TIP3   OH232206   6.326   3.676  14.671 -0.2114  0.0431  0.4292
 3572TIP3    H132207   6.354   3.728  14.596 -2.5513 -0.1376 -0.6258
 3572TIP3    H232208   6.293   3.741  14.733  0.4132  0.0722  0.7469
 3573TIP3   OH232209   1.718   1.857  16.457 -0.2635  0.1728 -0.6496
 3573TIP3    H132210   1.674   1.870  16.542 -0.1821 -1.5065 -0.3028
 3573TIP3    H232211   1.806   1.892  16.470 -0.9849  2.1962 -0.8669
 3574TIP3   OH232212   5.881   6.363   5.401 -0.8290 -0.0969  0.0129
 3574TIP3    H132213   5.854   6.290   5.457  1.0823 -0.3740  0.6374
 3574TIP3    H232214   5.976   6.354   5.393 -0.4435  2.6385  0.5590
 3575TIP3   OH232215   5.721   3.684  16.809  0.5778 -0.1341 -0.2236
 3575TIP3    H132216   5.627   3.699  16.818  0.5653 -0.9924  1.1826
 3575TIP3    H232217   5.754   3.765  16.770 -0.6907  0.2996 -0.4302
 3576TIP3   OH232218   0.019   1.119   0.307  0.0732  0.1717  0.5512
 3576TIP3    H132219   0.085   1.088   0.369 -0.1049 -0.3157  0.5008
 3576TIP3    H232220   0.023   1.215   0.314  0.9218  0.1529  0.4026
 3577TIP3   OH232221   5.462   0.345  14.960 -0.1531 -0.3568 -0.4779
 3577TIP3    H132222   5.480   0.309  14.874 -0.3941  0.3976 -0.8505
 3577TIP3    H232223   5.489   0.277  15.021  1.5516 -0.2633 -1.0867
 3578TIP3   OH232224   1.385   1.688  16.038  0.3645 -0.2383 -0.2544
 3578TIP3    H132225   1.333   1.766  16.020  0.8909  0.1799  0.0285
 3578TIP3    H232226   1.412   1.697  16.129 -0.9513 -1.5663  0.2941
 3579TIP3   OH232227   2.988   2.550  15.027 -0.1569 -0.4707  0.3432
 3579TIP3    H132228   3.016   2.515  14.942 -0.1889 -0.4514  0.3246
 3579TIP3    H232229   3.058   2.611  15.052 -0.3104 -0.2214  0.1720
 3580TIP3   OH232230   4.667   1.148   2.990  0.0392 -0.1989  0.5215
 3580TIP3    H132231   4.660   1.130   2.896  0.6845  1.7837  0.0309
 3580TIP3    H232232   4.761   1.146   3.008 -0.0321  0.1350  0.9586
 3581TIP3   OH232233   2.403   6.014  13.769  0.0535 -0.5964  0.3787
 3581TIP3    H132234   2.483   5.982  13.728 -0.1274 -0.3720 -0.1701
 3581TIP3    H232235   2.423   6.104  13.794  0.8109 -1.3334  2.6130
 3582TIP3   OH232236   6.619   5.586   2.692  0.3828  0.2278  0.3304
 3582TIP3    H132237   6.566   5.664   2.674 -0.1424 -0.1155  0.3625
 3582TIP3    H232238   6.611   5.532   2.613  1.7749  0.7653 -0.2031
 3583TIP3   OH232239   6.111   0.740   5.256 -0.1477 -0.1905 -0.0973
 3583TIP3    H132240   6.073   0.735   5.344 -1.3539 -0.3598 -0.6107
 3583TIP3    H232241   6.121   0.649   5.229  1.0027 -0.1630  0.1637
 3584TIP3   OH232242   0.244   1.673  15.851 -0.2873 -0.3655 -0.1045
 3584TIP3    H132243   0.194   1.593  15.865 -2.2306  0.8348  0.1634
 3584TIP3    H232244   0.313   1.670  15.917  0.5270 -2.4191 -0.9618
 3585TIP3   OH232245   0.622   4.564  16.427 -0.2658 -0.0717 -0.3503
 3585TIP3    H132246   0.582   4.644  16.393 -0.7630  0.2597  0.9629
 3585TIP3    H232247   0.591   4.495  16.369 -1.8679  0.3444 -0.0350
 3586TIP3   OH232248   3.625   0.104   5.347 -0.7741 -0.4555  0.1115
 3586TIP3    H132249   3.589   0.193   5.354 -0.6493 -0.3472 -0.4978
 3586TIP3    H232250   3.649   0.096   5.255 -0.0232 -0.8283  0.3327
 3587TIP3   OH232251   2.016   2.210  16.048  0.4462  0.0130 -0.4329
 3587TIP3    H132252   2.002   2.152  16.122  3.3285 -0.6073 -0.2429
 3587TIP3    H232253   2.074   2.161  15.989  3.5826  2.7463  0.0351
 3588TIP3   OH232254   2.697   6.347   4.287  0.1408 -0.2636  0.0239
 3588TIP3    H132255   2.679   6.334   4.380  0.5662 -2.2534 -0.1423
 3588TIP3    H232256   2.637   6.288   4.241 -0.2127  0.8373 -1.0067
 3589TIP3   OH232257   1.100   5.213   5.382 -0.3200  0.2852  0.0059
 3589TIP3    H132258   1.136   5.301   5.387 -0.2186  0.2380  0.1148
 3589TIP3    H232259   1.019   5.216   5.432 -0.4551  0.3860 -0.2193
 3590TIP3   OH232260   4.996   4.250  10.659  0.5929  0.0967 -0.3480
 3590TIP3    H132261   4.909   4.223  10.628  0.8624  0.2755 -1.3024
 3590TIP3    H232262   4.980   4.332  10.707  0.0877 -0.5029  0.5403
 3591TIP3   OH232263   0.272   3.879   2.319  0.2340 -0.9663 -0.3757
 3591TIP3    H132264   0.365   3.898   2.323  0.2364 -1.2143  1.9224
 3591TIP3    H232265   0.239   3.933   2.247  2.2595 -1.5454 -1.8157
 3592TIP3   OH232266   2.876   3.314   1.920  0.2352  0.3754  0.0073
 3592TIP3    H132267   2.851   3.282   1.834 -1.0837  1.3904 -0.0124
 3592TIP3    H232268   2.895   3.407   1.907 -1.5886  0.9357  1.0900
 3593TIP3   OH232269   2.727   2.844   1.043  0.4976  0.4629  0.0771
 3593TIP3    H132270   2.717   2.875   0.953  0.1055  1.4692  0.4502
 3593TIP3    H232271   2.649   2.790   1.059  1.3126 -0.9947 -0.6619
 3594TIP3   OH232272   6.490   1.021   4.992 -0.7528 -0.1916 -0.5319
 3594TIP3    H132273   6.478   0.949   5.054 -1.3461  0.6724  0.3794
 3594TIP3    H232274   6.579   1.008   4.958  0.0488 -0.0440  1.3590
 3595TIP3   OH232275   6.639   1.451  12.977 -0.3905 -0.2187 -0.0202
 3595TIP3    H132276   6.712   1.480  12.923 -0.7307  0.1937 -0.2618
 3595TIP3    H232277   6.679   1.391  13.040 -0.1991 -1.8871 -1.6368
 3596TIP3   OH232278   0.141   3.607   0.456 -0.7704 -0.6632  0.0277
 3596TIP3    H132279   0.076   3.585   0.523  0.6216 -1.1239  1.3068
 3596TIP3    H232280   0.143   3.531   0.399 -0.4235 -1.2520  0.7917
 3597TIP3   OH232281   4.131   3.698   5.278 -0.2801 -0.1252 -0.1987
 3597TIP3    H132282   4.066   3.767   5.283  0.9809  1.2001 -1.2271
 3597TIP3    H232283   4.201   3.727   5.337  0.8408  0.1506 -1.6329
 3598TIP3   OH232284   0.762   0.988  11.996 -0.4821  0.0532 -0.1245
 3598TIP3    H132285   0.787   0.948  12.080 -0.4875  2.0223  0.8681
 3598TIP3    H232286   0.845   1.004  11.952 -0.4281 -0.0802 -0.0736
 3599TIP3   OH232287   2.897   2.990  11.164  0.0220  0.2749 -0.1449
 3599TIP3    H132288   2.845   3.067  11.185 -2.4598 -1.3312  0.0127
 3599TIP3    H232289   2.881   2.975  11.071 -0.4133 -0.6360  0.0635
 3600TIP3   OH232290   5.707   6.253  12.314 -0.1116 -0.0273 -0.6144
 3600TIP3    H132291   5.672   6.170  12.282  0.4853 -0.2448 -0.7124
 3600TIP3    H232292   5.655   6.272  12.392 -0.2464 -0.4915 -0.5871
 3601TIP3   OH232293   3.013   1.316  11.620  0.5400 -0.6160 -0.0635
 3601TIP3    H132294   3.000   1.256  11.547  0.7847  0.3468 -0.9240
 3601TIP3    H232295   3.047   1.396  11.580 -0.3695  0.3315  0.9717
 3602TIP3   OH232296   0.002   0.880   3.583  0.2430  0.3531  0.8190
 3602TIP3    H132297  -0.006   0.846   3.494  4.8797  0.1281  0.2548
 3602TIP3    H232298  -0.033   0.969   3.578 -1.7877 -0.4406 -0.4999
 3603TIP3   OH232299   3.461   0.577   3.025 -0.2271  0.1277  0.5434
 3603TIP3    H132300   3.385   0.566   3.083  0.2270  0.0712  1.1413
 3603TIP3    H232301   3.535   0.547   3.077  0.1393 -0.3624 -0.2398
 3604TIP3   OH232302   0.577   2.819   6.117 -0.0110  0.5748 -0.0995
 3604TIP3    H132303   0.594   2.729   6.147 -0.5126  0.3036 -0.6112
 3604TIP3    H232304   0.541   2.864   6.193  0.0076  0.2691  0.0911
 3605TIP3   OH232305   6.538   2.084  17.170  0.4386 -0.1933 -0.1681
 3605TIP3    H132306   6.580   2.032  17.101  2.2730 -0.0586  0.7809
 3605TIP3    H232307   6.611   2.113  17.225 -0.8184  1.1062  0.8721
 3606TIP3   OH232308   0.418   4.342  13.245 -0.0099 -0.0154 -0.0920
 3606TIP3    H132309   0.472   4.412  13.282 -2.0438  0.2134  2.7631
 3606TIP3    H232310   0.431   4.269  13.305  0.2159 -1.3303 -1.6880
 3607TIP3   OH232311   5.550   4.224  13.120 -0.0067 -0.2102 -0.1166
 3607TIP3    H132312   5.579   4.308  13.156 -0.5671 -0.2212  0.3902
 3607TIP3    H232313   5.568   4.230  13.026  0.0170  0.4551 -0.0744
 3608TIP3   OH232314   1.248   4.759  15.671 -0.1497  0.3549 -0.2848
 3608TIP3    H132315   1.186   4.816  15.625  1.1537  0.7699 -1.6043
 3608TIP3    H232316   1.220   4.761  15.763 -0.4132  2.7940 -0.3681
 3609TIP3   OH232317   6.568   5.691  14.146 -0.5670 -0.1108  0.1067
 3609TIP3    H132318   6.639   5.754  14.135 -0.2889 -0.0308  2.0762
 3609TIP3    H232319   6.496   5.726  14.092  0.3751  0.5904 -0.7210
 3610TIP3   OH232320   0.523   5.617  15.189 -0.0180 -1.0832 -0.4575
 3610TIP3    H132321   0.460   5.559  15.148 -0.1774 -1.1911 -0.0705
 3610TIP3    H232322   0.503   5.611  15.283 -1.9785  1.8024 -0.5595
 3611TIP3   OH232323   2.707   5.258   1.439 -0.3398 -0.2203 -0.6167
 3611TIP3    H132324   2.700   5.346   1.403 -4.5981 -0.7165 -1.5670
 3611TIP3    H232325   2.666   5.264   1.525 -0.2630 -1.1782 -0.4971
 3612TIP3   OH232326   2.353   0.826   1.695 -0.0627  0.2702 -0.1009
 3612TIP3    H132327   2.288   0.832   1.626  1.4477  0.1852 -1.5963
 3612TIP3    H232328   2.340   0.739   1.733 -1.6152  0.7394  0.4874
 3613TIP3   OH232329   6.548   1.946   5.475  0.2206  0.3571  0.2748
 3613TIP3    H132330   6.596   2.015   5.520  0.5940 -0.2234  0.7833
 3613TIP3    H232331   6.497   1.903   5.543  0.2964 -0.1220  0.0358
 3614TIP3   OH232332   6.721   2.876  16.890  0.0257  0.4130  0.1196
 3614TIP3    H132333   6.777   2.833  16.954  1.2834  2.5531  0.5842
 3614TIP3    H232334   6.632   2.851  16.914  0.6572 -1.8225  0.3375
 3615TIP3   OH232335   0.416   5.105  14.782  0.1698 -0.4858 -0.3168
 3615TIP3    H132336   0.474   5.151  14.842 -1.6797  0.6941  0.6522
 3615TIP3    H232337   0.439   5.139  14.695  1.4554 -0.6758 -0.0737
 3616TIP3   OH232338   0.216   6.376   4.947  0.1271  0.1087 -0.1300
 3616TIP3    H132339   0.162   6.335   4.880 -2.3483  0.8260  1.2695
 3616TIP3    H232340   0.219   6.468   4.922  2.3014 -0.1727 -1.1291
 3617TIP3   OH232341   2.876   1.574  12.611  0.0078  1.0851 -0.0543
 3617TIP3    H132342   2.851   1.666  12.603 -2.1176  0.4450 -1.4467
 3617TIP3    H232343   2.868   1.555  12.705  0.8396  2.3758  0.3072
 3618TIP3   OH232344   0.984   3.081  16.022  0.5190 -0.2583  0.4732
 3618TIP3    H132345   1.042   3.075  16.098  1.0033 -2.2742  0.0057
 3618TIP3    H232346   0.898   3.102  16.058  0.8385 -0.7448  1.5420
 3619TIP3   OH232347   1.532   4.173  16.954  0.4662 -0.9299 -0.3237
 3619TIP3    H132348   1.510   4.136  16.868 -0.5791 -1.4573  0.1495
 3619TIP3    H232349   1.572   4.101  17.002 -1.1969 -1.3972  0.4546
 3620TIP3   OH232350   1.756   3.481  14.076 -0.1400 -0.0760 -0.4299
 3620TIP3    H132351   1.723   3.547  14.137  0.8644  0.9948 -1.0173
 3620TIP3    H232352   1.805   3.420  14.131 -0.0571  0.3366 -0.0374
 3621TIP3   OH232353   1.509   4.889  12.580 -0.5394 -0.0063  0.0899
 3621TIP3    H132354   1.531   4.916  12.491  0.9152 -1.4303 -0.0231
 3621TIP3    H232355   1.474   4.968  12.621  4.7582  2.7390  0.2239
 3622TIP3   OH232356   3.061   6.306  13.465 -0.3601  0.0369 -0.0431
 3622TIP3    H132357   3.095   6.378  13.518 -3.1577  2.2066 -0.9376
 3622TIP3    H232358   3.079   6.227  13.517  1.5566  1.4964  1.6557
 3623TIP3   OH232359   2.950   2.775  13.625 -0.3744 -0.4125 -0.5859
 3623TIP3    H132360   2.876   2.753  13.682 -0.1916 -2.2323 -0.9704
 3623TIP3    H232361   3.017   2.809  13.684 -1.4888  1.2876 -0.2343
 3624TIP3   OH232362   2.645   1.138  15.778  0.3914  0.0096 -0.1574
 3624TIP3    H132363   2.574   1.089  15.819  1.1008  0.1085  1.2304
 3624TIP3    H232364   2.714   1.074  15.765  0.8430  0.3562  0.4866
 3625TIP3   OH232365   0.614   0.890   0.718 -0.1316  0.1907 -0.3511
 3625TIP3    H132366   0.697   0.880   0.672 -0.0346 -0.8084  0.0221
 3625TIP3    H232367   0.615   0.822   0.785 -1.3642 -0.0001 -0.4980
 3626TIP3   OH232368   1.493   5.470   1.229 -0.1152 -0.5034  0.3623
 3626TIP3    H132369   1.569   5.480   1.287  0.7181 -0.6684 -0.6894
 3626TIP3    H232370   1.467   5.379   1.239  0.5689 -0.7601 -0.1764
 3627TIP3   OH232371   5.631   2.104   0.274 -0.2820 -0.4189  0.0110
 3627TIP3    H132372   5.565   2.108   0.343 -1.1812 -2.7634 -0.6009
 3627TIP3    H232373   5.681   2.024   0.294  0.2382 -0.4605 -1.3521
 3628TIP3   OH232374   1.494   2.811   0.588 -0.2816  0.7699  0.0808
 3628TIP3    H132375   1.579   2.829   0.630  0.4044 -1.2424 -0.3537
 3628TIP3    H232376   1.493   2.869   0.512  1.2215  0.0648 -0.5125
 3629TIP3   OH232377   6.457   5.453   0.880 -0.1173  0.5898 -0.5629
 3629TIP3    H132378   6.441   5.388   0.812 -0.8670  1.2839 -1.0775
 3629TIP3    H232379   6.374   5.502   0.886  0.4215  1.4759 -0.1808
 3630TIP3   OH232380   5.499   2.934   2.234 -0.2581 -0.0791  0.2599
 3630TIP3    H132381   5.492   2.879   2.157 -0.7883 -0.7580  0.7771
 3630TIP3    H232382   5.489   3.023   2.202  1.7385 -0.1691 -0.7488
 3631TIP3   OH232383   6.407   5.123  16.201 -0.4882  0.2152  0.2690
 3631TIP3    H132384   6.413   5.034  16.235 -0.9970 -0.2824 -0.8941
 3631TIP3    H232385   6.429   5.115  16.108  0.2525  1.4382  0.3091
 3632TIP3   OH232386   6.756   0.633  16.428 -0.2147  0.4974  0.4440
 3632TIP3    H132387   6.790   0.698  16.368 -2.1536  0.7068 -0.4893
 3632TIP3    H232388   6.737   0.681  16.508  0.3640  0.6231  0.5144
 3633TIP3   OH232389   5.381   1.703  11.043 -0.2572  0.2196  0.3112
 3633TIP3    H132390   5.331   1.711  11.124 -0.8189  0.8472 -0.0836
 3633TIP3    H232391   5.465   1.745  11.062 -0.1401 -0.2229  0.7689
 3634TIP3   OH232392   0.306   6.175  10.370 -0.1564 -0.0195 -0.4059
 3634TIP3    H132393   0.225   6.206  10.410  0.6675 -0.7494  1.9815
 3634TIP3    H232394   0.368   6.247  10.381  1.0314 -1.3776  2.8517
 3635TIP3   OH232395   2.411   3.969   1.149 -0.0049 -0.7080  0.2417
 3635TIP3    H132396   2.486   4.028   1.138 -0.0774 -0.9641 -2.1067
 3635TIP3    H232397   2.346   4.001   1.087 -1.7931 -0.6713  2.0137
 3636TIP3   OH232398   1.636   6.817  13.975  0.2553  0.7279 -0.0258
 3636TIP3    H132399   1.665   6.901  13.939  2.5074 -0.6626 -1.7939
 3636TIP3    H232400   1.570   6.786  13.913  1.5408 -0.0439 -1.0779
 3637TIP3   OH232401   0.870   6.619   0.715  0.1915  0.1489 -0.2113
 3637TIP3    H132402   0.922   6.552   0.671  1.2363  1.2639 -0.6949
 3637TIP3    H232403   0.828   6.571   0.787 -1.0136 -1.5603 -1.9278
 3638TIP3   OH232404   2.765   5.783  15.746 -0.4050 -0.9755 -0.3297
 3638TIP3    H132405   2.681   5.743  15.724  0.0866 -2.4072  0.3044
 3638TIP3    H232406   2.811   5.717  15.798  0.0680  0.7628  1.5940
 3639TIP3   OH232407   5.698   2.427  11.540 -0.1204 -0.5723 -0.1720
 3639TIP3    H132408   5.774   2.388  11.498 -0.5052 -0.3720 -1.0619
 3639TIP3    H232409   5.725   2.440  11.631  1.1163  0.0361 -0.6032
 3640TIP3   OH232410   0.935   0.749   5.816  0.2379  0.6411  0.3874
 3640TIP3    H132411   0.941   0.669   5.868  0.4931 -0.3026 -1.0435
 3640TIP3    H232412   0.845   0.750   5.784  0.8174 -0.2553 -1.3688
 3641TIP3   OH232413   6.436   5.192   5.781  0.4726  0.6471  0.1683
 3641TIP3    H132414   6.475   5.154   5.702  2.3314  2.1995  0.2670
 3641TIP3    H232415   6.368   5.129   5.807 -0.3371  0.1765 -2.7352
 3642TIP3   OH232416   0.538   2.077  15.085  0.5232 -0.3812  1.0147
 3642TIP3    H132417   0.602   2.006  15.088 -0.1797 -1.1188 -0.5150
 3642TIP3    H232418   0.475   2.055  15.154 -1.0058 -2.6069 -0.9436
 3643TIP3   OH232419   6.746   4.051  13.587 -0.3272 -0.0972  0.3250
 3643TIP3    H132420   6.700   4.046  13.503  0.6910  0.8976 -0.2990
 3643TIP3    H232421   6.725   4.138  13.621 -1.3517 -0.7614  1.4939
 3644TIP3   OH232422   6.836   2.953  14.899  0.1213 -0.2407  0.4561
 3644TIP3    H132423   6.908   3.016  14.891 -0.1611  0.2757  1.7078
 3644TIP3    H232424   6.874   2.877  14.942  0.3598 -0.7822 -0.6676
 3645TIP3   OH232425   2.317   4.796   5.130 -0.1789 -0.1732  0.2004
 3645TIP3    H132426   2.339   4.735   5.060  2.3919 -0.2780  0.9828
 3645TIP3    H232427   2.363   4.762   5.207 -0.0656  1.8095  1.0643
 3646TIP3   OH232428   6.684   1.891   3.479 -0.5931 -0.1646 -0.1840
 3646TIP3    H132429   6.599   1.894   3.437 -0.9888  2.1277  0.6533
 3646TIP3    H232430   6.746   1.919   3.412 -0.3779 -2.1718 -0.9010
 3647TIP3   OH232431   0.841   2.359   6.396 -0.1518  0.3747 -0.3197
 3647TIP3    H132432   0.848   2.426   6.328  2.3659  1.3984  0.8085
 3647TIP3    H232433   0.907   2.293   6.371  0.6887  0.6863  0.9818
 3648TIP3   OH232434   5.297   5.855  13.710 -0.4558 -0.0981  0.0516
 3648TIP3    H132435   5.218   5.861  13.655 -1.0661  1.4118  1.0201
 3648TIP3    H232436   5.316   5.946  13.733 -0.8817 -0.7322  3.2663
 3649TIP3   OH232437   3.627   3.403  14.110  0.0758  0.0762 -0.5727
 3649TIP3    H132438   3.706   3.446  14.145 -0.4101  0.2857  0.3005
 3649TIP3    H232439   3.555   3.441  14.160 -0.5861 -0.1255 -1.3562
 3650TIP3   OH232440   1.593   1.662  12.514 -1.1048  0.2263  0.7012
 3650TIP3    H132441   1.677   1.691  12.550 -0.1415 -1.1668 -0.3557
 3650TIP3    H232442   1.585   1.708  12.431 -0.2825 -1.3311 -0.2718
 3651TIP3   OH232443   3.262   5.988  11.705  0.3005 -0.1205 -0.2104
 3651TIP3    H132444   3.308   6.072  11.709 -1.1816  0.6969  0.8353
 3651TIP3    H232445   3.170   6.012  11.695 -0.4976 -1.4663  2.7166
 3652TIP3   OH232446   5.409   2.608  10.502 -0.2804 -0.0663  0.1247
 3652TIP3    H132447   5.434   2.516  10.491  0.6400 -0.0308  1.7299
 3652TIP3    H232448   5.492   2.656  10.497 -0.8528  0.8363 -1.8009
 3653TIP3   OH232449   1.228   1.811  12.568  0.0401  0.5223 -0.1393
 3653TIP3    H132450   1.135   1.819  12.547 -0.0967 -1.3904 -0.3903
 3653TIP3    H232451   1.272   1.863  12.500 -0.8197  1.2536 -0.1500
 3654TIP3   OH232452   3.732   3.192  17.202 -0.5678  0.4070  0.4638
 3654TIP3    H132453   3.693   3.279  17.207 -0.9106  0.2656  0.2870
 3654TIP3    H232454   3.666   3.138  17.158 -0.5848 -0.0747  1.0559
 3655TIP3   OH232455   0.439   0.355   1.019  0.3979 -0.7081 -0.0656
 3655TIP3    H132456   0.404   0.443   1.014  1.7032 -0.0516  1.4074
 3655TIP3    H232457   0.455   0.330   0.928 -0.7828  0.2154 -0.5509
 3656TIP3   OH232458   4.510   6.546   2.575 -0.1714 -0.4254 -0.1380
 3656TIP3    H132459   4.444   6.614   2.587 -0.7336 -0.8749 -0.5539
 3656TIP3    H232460   4.594   6.590   2.585 -0.5042  0.5161 -1.2608
 3657TIP3   OH232461   5.903   1.767   1.360  0.2395 -0.0098  0.1600
 3657TIP3    H132462   5.906   1.803   1.449  0.9437  0.5943 -0.0942
 3657TIP3    H232463   5.938   1.679   1.369 -0.3925 -0.2260  0.6005
 3658TIP3   OH232464   6.657   4.768   0.220 -0.0874 -0.2262  0.2469
 3658TIP3    H132465   6.669   4.863   0.215 -0.7141 -0.1661 -0.2029
 3658TIP3    H232466   6.697   4.743   0.303  1.1590  0.2617 -0.1755
 3659TIP3   OH232467   3.782   3.669  13.915  0.2320 -0.0990  0.4346
 3659TIP3    H132468   3.793   3.762  13.892  1.1165 -0.5480 -1.1204
 3659TIP3    H232469   3.698   3.665  13.960  0.3360  1.5105  0.8487
 3660TIP3   OH232470   6.641   5.539   2.961  1.1975  0.4484  0.7275
 3660TIP3    H132471   6.702   5.469   2.937  1.3396  0.4991  0.9372
 3660TIP3    H232472   6.639   5.596   2.885 -1.4019 -1.4515 -0.8053
 3661TIP3   OH232473   3.763   2.131   0.711  0.1042  0.3732  0.1211
 3661TIP3    H132474   3.725   2.096   0.791 -1.6142 -0.0817 -0.8353
 3661TIP3    H232475   3.796   2.217   0.736 -2.0795  1.0537  0.9714
 3662TIP3   OH232476   5.718   1.230   1.121 -0.5447 -0.1382  0.0852
 3662TIP3    H132477   5.727   1.138   1.144 -1.9967 -0.1537  0.6767
 3662TIP3    H232478   5.786   1.244   1.055  1.5183 -0.9179  1.9185
 3663TIP3   OH232479   2.721   6.684   3.637  0.2303  0.1279  0.2707
 3663TIP3    H132480   2.816   6.672   3.632  0.1058 -0.7210 -0.2255
 3663TIP3    H232481   2.689   6.606   3.682 -0.2826  0.1611 -0.0288
 3664TIP3   OH232482   5.215   2.338  14.952 -0.5188 -0.9714 -0.1641
 3664TIP3    H132483   5.220   2.420  14.902 -1.0890 -1.9042 -1.8304
 3664TIP3    H232484   5.231   2.270  14.887 -0.9779 -2.2441  1.0122
 3665TIP3   OH232485   1.756   3.660  14.684  0.6647  0.6674  0.1916
 3665TIP3    H132486   1.807   3.734  14.652  0.4659  1.0123  0.6609
 3665TIP3    H232487   1.673   3.666  14.637  0.1499  1.5141  1.1674
 3666TIP3   OH232488   4.574   2.197   0.668  0.4920 -0.0748 -0.2176
 3666TIP3    H132489   4.541   2.150   0.744  1.3193 -0.0775  0.1490
 3666TIP3    H232490   4.668   2.184   0.670  0.5230 -0.1896 -1.3259
 3667TIP3   OH232491   5.414   1.676   1.297  0.2162  0.3056 -0.0687
 3667TIP3    H132492   5.453   1.763   1.298  1.7355 -0.3226  1.8551
 3667TIP3    H232493   5.479   1.620   1.340 -1.4007 -1.4621  0.2179
 3668TIP3   OH232494   3.149   6.582   0.833 -0.1054 -0.3768 -0.2101
 3668TIP3    H132495   3.223   6.522   0.846 -1.1305 -1.5910  0.3005
 3668TIP3    H232496   3.106   6.549   0.754 -0.2598  0.1335 -0.3369
 3669TIP3   OH232497   5.219   0.145  12.270  0.4818 -0.2434 -0.5058
 3669TIP3    H132498   5.152   0.077  12.285 -0.0929  0.5285  0.5237
 3669TIP3    H232499   5.169   0.226  12.264  1.2480  0.2043 -0.9025
 3670TIP3   OH232500   3.009   4.350  13.073 -0.0903 -0.1814  0.1487
 3670TIP3    H132501   3.002   4.272  13.017  1.7554 -0.8386  0.7412
 3670TIP3    H232502   3.100   4.350  13.102 -0.0831  2.1319  0.3057
 3671TIP3   OH232503   3.210   0.366   6.141  0.3075  0.3741 -0.1241
 3671TIP3    H132504   3.269   0.319   6.200  0.1994  1.1205  0.6089
 3671TIP3    H232505   3.125   0.324   6.155  0.1444  0.9686  0.7680
 3672TIP3   OH232506   3.486   2.012  13.469  0.1660  0.0868 -0.7659
 3672TIP3    H132507   3.395   1.982  13.461  0.3515 -0.5475 -0.5764
 3672TIP3    H232508   3.533   1.937  13.505  0.2027  1.3423  2.0451
 3673TIP3   OH232509   3.641   4.181  10.994 -0.0704 -0.6815 -0.0334
 3673TIP3    H132510   3.617   4.173  10.901  1.3523  0.8514 -0.5819
 3673TIP3    H232511   3.658   4.092  11.022 -1.7518 -1.3241 -0.8677
 3674TIP3   OH232512   6.048   1.451  15.357 -0.1748  0.2079 -0.6356
 3674TIP3    H132513   6.128   1.503  15.349 -1.0674  1.4102 -2.6643
 3674TIP3    H232514   6.075   1.361  15.339  0.9587  0.3427  0.2865
 3675TIP3   OH232515   0.516   6.140   3.199  0.2203 -0.1340 -0.2197
 3675TIP3    H132516   0.548   6.050   3.195  0.0910 -0.1853 -0.1107
 3675TIP3    H232517   0.446   6.143   3.134 -0.6988 -0.4882  0.7257
 3676TIP3   OH232518   4.870   6.306   4.435  0.8754 -0.6341  0.2412
 3676TIP3    H132519   4.941   6.244   4.421  0.5074 -1.2859  1.1217
 3676TIP3    H232520   4.877   6.368   4.363  1.2329 -1.7202 -0.6892
 3677TIP3   OH232521   4.281   6.477  14.644  0.9189 -0.1578  0.1621
 3677TIP3    H132522   4.189   6.500  14.652  1.1135  1.7318 -1.9147
 3677TIP3    H232523   4.282   6.385  14.619 -0.4134 -0.1048 -0.1087
 3678TIP3   OH232524   2.140   2.894   1.964 -0.0695 -0.2346 -0.1060
 3678TIP3    H132525   2.151   2.974   1.912  1.4838  1.6472  2.8185
 3678TIP3    H232526   2.046   2.884   1.974 -0.3069  2.0105  0.4582
 3679TIP3   OH232527   3.756   2.000  16.146 -0.0514 -0.0327 -0.3515
 3679TIP3    H132528   3.788   2.083  16.182  0.2658  0.6677 -2.1595
 3679TIP3    H232529   3.707   1.960  16.218 -0.6689  1.9681  0.3972
 3680TIP3   OH232530   1.836   4.048   0.941 -0.6068 -0.5177  0.1863
 3680TIP3    H132531   1.865   3.970   0.987 -2.0735 -0.6927  0.8799
 3680TIP3    H232532   1.846   4.119   1.004  2.9719  0.3861 -1.1817
 3681TIP3   OH232533   2.219   5.551  13.914 -0.2033  0.4575 -0.4187
 3681TIP3    H132534   2.129   5.519  13.907  0.3662 -1.4062  0.1386
 3681TIP3    H232535   2.211   5.636  13.958 -1.7729  0.9987 -1.6494
 3682TIP3   OH232536   4.772   0.714   2.701 -0.5157 -0.7231  0.6474
 3682TIP3    H132537   4.797   0.637   2.650 -0.3445  0.1908 -0.6954
 3682TIP3    H232538   4.844   0.727   2.763  0.8711 -0.0006 -1.0392
 3683TIP3   OH232539   0.442   3.903   0.646 -0.5378  0.0345 -0.2332
 3683TIP3    H132540   0.494   3.940   0.718 -0.4663 -0.4366 -0.0394
 3683TIP3    H232541   0.488   3.821   0.624  1.0910  1.4990 -2.7055
 3684TIP3   OH232542   6.626   6.454   0.469  0.3258 -1.2102  0.0655
 3684TIP3    H132543   6.544   6.433   0.425  2.1136 -1.4961 -3.5036
 3684TIP3    H232544   6.691   6.455   0.399  3.3352 -0.5877  2.6439
 3685TIP3   OH232545   4.009   2.292  14.151  0.0523  0.3215 -0.4421
 3685TIP3    H132546   4.064   2.265  14.078 -0.5351  1.7848 -1.4704
 3685TIP3    H232547   3.940   2.345  14.111 -1.4464 -0.4880  0.9386
 3686TIP3   OH232548   4.565   4.121   0.382 -0.4483 -0.7364  0.3363
 3686TIP3    H132549   4.602   4.104   0.295  1.8002 -0.0883  1.1235
 3686TIP3    H232550   4.564   4.216   0.389  0.5748 -0.7854  1.4763
 3687TIP3   OH232551   5.088   3.789  12.922  0.4745  0.0826  0.2384
 3687TIP3    H132552   5.126   3.726  12.983  1.1323  0.7332  0.4943
 3687TIP3    H232553   5.140   3.780  12.842  0.1558 -0.1533  0.0524
 3688TIP3   OH232554   5.508   0.180  15.621 -0.1095  0.0345 -0.1213
 3688TIP3    H132555   5.549   0.248  15.675  0.2066 -1.4408  1.5798
 3688TIP3    H232556   5.560   0.101  15.637 -0.2723 -0.5921 -2.2951
 3689TIP3   OH232557   0.125   2.305  16.277  0.3493  0.1525  0.1547
 3689TIP3    H132558   0.205   2.356  16.264  0.3184  0.1184 -0.1835
 3689TIP3    H232559   0.068   2.331  16.205  0.8446 -1.3542 -0.8225
 3690TIP3   OH232560   5.840   2.304   5.303 -0.6097 -0.2744 -0.2956
 3690TIP3    H132561   5.910   2.355   5.344 -0.6376  0.1142 -0.7255
 3690TIP3    H232562   5.855   2.315   5.209 -0.3529 -1.4116 -0.4079
 3691TIP3   OH232563   2.328   4.406   5.211  0.3291 -0.4801  0.0267
 3691TIP3    H132564   2.349   4.498   5.194  2.9634 -0.7230  1.3790
 3691TIP3    H232565   2.326   4.365   5.125 -1.0337  0.8211 -0.6078
 3692TIP3   OH232566   2.083   3.202  15.691 -0.4545 -0.3610  0.0240
 3692TIP3    H132567   2.015   3.140  15.716 -0.5382 -0.5190 -0.5762
 3692TIP3    H232568   2.113   3.240  15.773 -1.8512  0.3231  0.2582
 3693TIP3   OH232569   0.119   1.101   3.202 -0.2177 -0.0577 -0.0060
 3693TIP3    H132570   0.105   1.184   3.249 -4.2037 -0.2906 -0.4326
 3693TIP3    H232571   0.118   1.126   3.109  1.7052 -0.2930 -0.1258
 3694TIP3   OH232572   0.022   3.818  11.386  0.5258 -0.0823  0.0655
 3694TIP3    H132573  -0.044   3.887  11.389 -0.2686 -0.5212 -3.3519
 3694TIP3    H232574   0.101   3.863  11.356  1.3475  0.0755  2.2626
 3695TIP3   OH232575   1.930   3.037   3.314  0.1541  0.3613 -0.0250
 3695TIP3    H132576   1.923   3.031   3.218 -1.8015 -1.2392  0.1730
 3695TIP3    H232577   1.853   3.087   3.340 -0.3291 -0.8184  0.8478
 3696TIP3   OH232578   1.665   5.656  12.525 -0.1302  0.7557  0.0728
 3696TIP3    H132579   1.618   5.621  12.449  0.8897  0.6930 -0.5484
 3696TIP3    H232580   1.712   5.732  12.492  2.1503 -0.5620  0.0334
 3697TIP3   OH232581   0.882   6.614   2.657 -0.6783  0.0788 -0.3784
 3697TIP3    H132582   0.970   6.630   2.691 -0.5735  0.9227 -1.0271
 3697TIP3    H232583   0.840   6.559   2.724 -0.9794  2.8241  1.8783
 3698TIP3   OH232584   5.158   0.364  16.014  0.2359  0.0384  0.3204
 3698TIP3    H132585   5.119   0.322  15.938 -0.9660  0.0437  0.9050
 3698TIP3    H232586   5.097   0.434  16.037  1.3177  0.9728  0.4249
 3699TIP3   OH232587   5.209   1.284  14.941  0.0062  0.2474 -0.5794
 3699TIP3    H132588   5.241   1.304  14.853 -0.1577 -0.3936 -0.7916
 3699TIP3    H232589   5.230   1.361  14.992  0.1326  0.6186 -1.1776
 3700TIP3   OH232590   1.189   5.406   4.949  0.3515 -0.7893 -0.2049
 3700TIP3    H132591   1.098   5.387   4.927 -1.0127 -0.5405  4.3275
 3700TIP3    H232592   1.222   5.325   4.987  0.2577  0.4925  2.8502
 3701TIP3   OH232593   6.223   3.165   1.720 -0.4643  0.1357 -0.5457
 3701TIP3    H132594   6.162   3.113   1.668 -1.2996 -0.4038  0.9443
 3701TIP3    H232595   6.187   3.254   1.716 -1.0362 -0.0734 -0.1465
 3702TIP3   OH232596   3.482   4.651   6.527  0.0082 -0.0289 -0.4227
 3702TIP3    H132597   3.425   4.577   6.507 -0.2907 -0.3314  1.3581
 3702TIP3    H232598   3.424   4.727   6.525 -0.0843 -0.0972 -0.3445
 3703TIP3   OH232599   3.653   3.593  12.787  0.0959 -0.1208  0.1315
 3703TIP3    H132600   3.635   3.675  12.740  1.0817  1.2680  2.0453
 3703TIP3    H232601   3.748   3.588  12.790  0.0345 -0.9940  0.6327
 3704TIP3   OH232602   3.252   6.817  14.234  0.0745  0.8460 -0.1983
 3704TIP3    H132603   3.246   6.830  14.328 -3.8891  0.7047 -0.2677
 3704TIP3    H232604   3.284   6.727  14.223  0.4229  0.8163  0.9979
 3705TIP3   OH232605   3.787   1.283   1.050 -0.0549 -0.0643 -0.0268
 3705TIP3    H132606   3.693   1.290   1.039 -0.5046 -0.3429  2.8905
 3705TIP3    H232607   3.823   1.354   0.996 -1.8247 -0.4408 -1.8017
 3706TIP3   OH232608   4.326   4.229  12.968 -0.7200  0.1402  0.4536
 3706TIP3    H132609   4.279   4.174  12.906  0.1171 -1.1607  0.9394
 3706TIP3    H232610   4.296   4.199  13.054 -0.0444  0.2529  0.7328
 3707TIP3   OH232611   1.520   6.529   1.996 -0.3654 -0.0081  0.3975
 3707TIP3    H132612   1.551   6.451   2.043  1.4000 -0.8746 -1.9709
 3707TIP3    H232613   1.493   6.589   2.065  0.0914 -1.9497  2.4015
 3708TIP3   OH232614   0.445   2.864   2.346 -0.2550  0.0658 -0.0108
 3708TIP3    H132615   0.391   2.849   2.269 -0.7275  1.2283  0.0769
 3708TIP3    H232616   0.529   2.823   2.324 -0.1435  0.9624 -1.4483
 3709TIP3   OH232617   2.645   4.293   4.493  0.2877  0.3420  0.3337
 3709TIP3    H132618   2.731   4.326   4.516  1.0565 -0.8468 -0.6625
 3709TIP3    H232619   2.606   4.361   4.439  1.2938  0.2086 -0.5891
 3710TIP3   OH232620   5.678   6.567  12.423  0.4608 -0.4118  0.3854
 3710TIP3    H132621   5.641   6.567  12.335  0.7999  0.5609  0.2216
 3710TIP3    H232622   5.651   6.484  12.461 -0.3117 -0.5197 -0.3751
 3711TIP3   OH232623   1.652   2.396   5.079  0.5491  0.2422  0.2609
 3711TIP3    H132624   1.617   2.351   5.157 -0.4569 -0.3886 -0.5237
 3711TIP3    H232625   1.580   2.454   5.052  0.4206 -0.4465 -0.9006
 3712TIP3   OH232626   6.287   3.604  12.996 -0.1811 -0.0037  0.3642
 3712TIP3    H132627   6.225   3.532  12.984 -0.1676 -0.2039  1.4121
 3712TIP3    H232628   6.273   3.633  13.086 -0.4496  1.5662 -0.1562
 3713TIP3   OH232629   0.860   3.734   3.489  0.0818  0.3540  0.2248
 3713TIP3    H132630   0.921   3.664   3.510 -0.2155 -0.3564 -1.1591
 3713TIP3    H232631   0.907   3.789   3.426  0.1682  1.1951  0.9999
 3714TIP3   OH232632   0.496   0.881  14.805  0.8296 -0.6983  0.3680
 3714TIP3    H132633   0.438   0.957  14.797  2.0774  0.1464 -1.4630
 3714TIP3    H232634   0.502   0.865  14.899 -1.2010  0.0669  0.6730
 3715TIP3   OH232635   2.521   0.034  10.986 -0.5424 -0.2949  0.0235
 3715TIP3    H132636   2.502   0.034  10.892  2.5011 -0.9113 -0.6856
 3715TIP3    H232637   2.458  -0.029  11.023 -0.5931 -1.4470 -1.8926
 3716TIP3   OH232638   1.319   6.385   2.370 -0.1781  0.2149 -0.2036
 3716TIP3    H132639   1.398   6.352   2.328  0.2101 -1.3802  1.6399
 3716TIP3    H232640   1.259   6.404   2.298  1.6228  0.8544 -1.6076
 3717TIP3   OH232641   6.422   6.097  13.817  0.7570 -0.2656  0.5380
 3717TIP3    H132642   6.510   6.134  13.822  0.7189 -0.2542  1.3154
 3717TIP3    H232643   6.430   6.024  13.756  0.9334  0.7339 -0.6681
 3718TIP3   OH232644   0.513   3.337  15.280  0.2320  0.1270 -0.3089
 3718TIP3    H132645   0.598   3.322  15.238  1.0237 -2.6855  1.9532
 3718TIP3    H232646   0.462   3.258  15.260 -1.4721  1.2845 -0.7176
 3719TIP3   OH232647   3.646   1.089   3.300 -0.3461 -0.0185 -0.4008
 3719TIP3    H132648   3.615   1.003   3.272 -0.0150  0.5833 -2.8078
 3719TIP3    H232649   3.582   1.117   3.366 -1.1727 -1.5353 -0.5089
 3720TIP3   OH232650   6.775   5.188   3.532 -0.3320  0.3971  0.0216
 3720TIP3    H132651   6.714   5.227   3.469  0.0322  2.3823  0.8028
 3720TIP3    H232652   6.742   5.216   3.618 -0.6551 -1.9955  0.7583
 3721TIP3   OH232653   1.683   5.956  12.901 -0.3828  0.5205 -0.5064
 3721TIP3    H132654   1.633   5.955  12.819 -2.3945  1.7495  0.6139
 3721TIP3    H232655   1.692   5.863  12.925 -2.7997  0.2435 -0.4274
 3722TIP3   OH232656   2.815   3.440  12.442  0.0211 -0.3028 -0.5886
 3722TIP3    H132657   2.756   3.373  12.407  0.0785 -0.7216  0.0968
 3722TIP3    H232658   2.762   3.519  12.446 -0.3406 -0.5469 -0.4928
 3723TIP3   OH232659   4.213   3.825   4.814 -0.4059  0.3904 -0.5969
 3723TIP3    H132660   4.124   3.856   4.831 -0.5190  0.1597 -0.7715
 3723TIP3    H232661   4.256   3.830   4.899 -1.0716 -1.0859 -0.1434
 3724TIP3   OH232662   5.318   2.800   0.302  0.1131  0.1821  0.0154
 3724TIP3    H132663   5.319   2.705   0.287  2.3512  0.1641 -0.2009
 3724TIP3    H232664   5.235   2.817   0.346  0.4525 -2.1760  1.7738
 3725TIP3   OH232665   3.520   0.401  13.392  0.1420  0.2211  0.4309
 3725TIP3    H132666   3.527   0.457  13.469  2.0016 -2.3579  2.3020
 3725TIP3    H232667   3.443   0.346  13.409 -0.6171  0.9529 -0.5397
 3726TIP3   OH232668   5.313   1.697   5.399 -0.7266  0.1358  0.1681
 3726TIP3    H132669   5.298   1.685   5.493 -1.6300  0.8777  0.1390
 3726TIP3    H232670   5.393   1.749   5.394 -0.6699  0.0861  0.5341
 3727TIP3   OH232671   4.268   1.819  15.581  0.0254 -1.1306 -0.3172
 3727TIP3    H132672   4.204   1.772  15.634 -0.3624  1.1704  1.4292
 3727TIP3    H232673   4.222   1.840  15.500 -0.5511 -1.6864 -0.1410
 3728TIP3   OH232674   2.346   2.414  15.810 -0.0316 -0.1436 -0.6746
 3728TIP3    H132675   2.389   2.435  15.727  0.1876 -0.7805 -0.7263
 3728TIP3    H232676   2.253   2.425  15.792  0.1120  1.9231 -0.3698
 3729TIP3   OH232677   2.390   2.740  10.984 -0.4188  0.3245  0.3411
 3729TIP3    H132678   2.321   2.764  10.922 -0.4883 -0.8942 -0.0708
 3729TIP3    H232679   2.391   2.645  10.984  1.2035  0.3042  0.4027
 3730TIP3   OH232680   6.080   3.147   4.423  0.1169 -0.0976 -0.1408
 3730TIP3    H132681   6.083   3.235   4.386  1.6080 -0.6563 -1.4671
 3730TIP3    H232682   5.990   3.138   4.454 -0.4471  1.4148 -1.2005
 3731TIP3   OH232683   1.323   0.330   2.901 -0.8830 -0.3501  0.4058
 3731TIP3    H132684   1.398   0.311   2.845 -1.0572 -1.5953  0.5816
 3731TIP3    H232685   1.260   0.373   2.842  0.0340  0.9402  0.3192
 3732TIP3   OH232686   4.200   0.213  16.444  0.1888  0.1620  0.1415
 3732TIP3    H132687   4.133   0.164  16.493 -0.0870  1.7462  1.4262
 3732TIP3    H232688   4.279   0.160  16.452 -0.6708 -1.3147 -0.6658
 3733TIP3   OH232689   4.420   2.797   3.111  0.5695  0.4179  0.3356
 3733TIP3    H132690   4.469   2.727   3.069  0.1289 -0.0129  0.5273
 3733TIP3    H232691   4.334   2.759   3.129 -0.3078  1.5667 -1.1951
 3734TIP3   OH232692   5.832   2.592  17.088 -0.2718 -0.1317  0.3641
 3734TIP3    H132693   5.792   2.565  17.171  0.2172 -1.1516  0.2872
 3734TIP3    H232694   5.775   2.662  17.056 -1.5359 -0.9788  0.6530
 3735TIP3   OH232695   6.380   1.082  16.973 -0.5578 -0.4984 -0.0634
 3735TIP3    H132696   6.370   1.163  16.922 -1.0170 -0.7469 -0.3780
 3735TIP3    H232697   6.353   1.106  17.062  0.2637 -0.0578  0.0744
 3736TIP3   OH232698   0.215   3.724   5.644 -0.0758  0.1369 -1.2397
 3736TIP3    H132699   0.149   3.791   5.665 -0.4965 -0.5963 -0.0860
 3736TIP3    H232700   0.166   3.642   5.644  0.7590 -0.3723 -0.7821
 3737TIP3   OH232701   0.481   1.628   3.016 -0.4316  0.0761 -0.1467
 3737TIP3    H132702   0.546   1.630   3.087  1.4071  2.0533 -1.7437
 3737TIP3    H232703   0.409   1.575   3.051  0.0938  1.4135  3.3918
 3738TIP3   OH232704   1.151   0.834  15.046  0.0622 -0.3455 -0.2622
 3738TIP3    H132705   1.187   0.765  15.101  0.9892 -0.0139 -0.4445
 3738TIP3    H232706   1.135   0.906  15.105 -1.5058 -0.9020  0.0480
 3739TIP3   OH232707   3.558   6.693   5.257 -0.3055 -0.4346 -0.8542
 3739TIP3    H132708   3.491   6.738   5.206 -2.4360 -1.2275  1.0542
 3739TIP3    H232709   3.576   6.751   5.331 -0.4582 -1.1421 -0.2476
 3740TIP3   OH232710   6.209   0.699  15.111 -0.5284 -0.5968 -0.2690
 3740TIP3    H132711   6.258   0.768  15.066  2.1540 -1.3284  1.3059
 3740TIP3    H232712   6.173   0.742  15.189  0.0073 -0.6659  0.0202
 3741TIP3   OH232713   6.190   3.113  12.523 -0.1918 -0.5784  0.1337
 3741TIP3    H132714   6.200   3.163  12.604 -1.1450  0.9888 -0.6664
 3741TIP3    H232715   6.130   3.165  12.470 -0.6962 -2.2664 -1.0339
 3742TIP3   OH232716   1.466   1.406   3.061 -0.3766  0.2636  0.4763
 3742TIP3    H132717   1.462   1.319   3.101  1.4792  0.2716  0.7904
 3742TIP3    H232718   1.441   1.466   3.131  0.3441  0.1033  0.8806
 3743TIP3   OH232719   0.876   0.471  16.259  0.6782  0.1620 -0.3998
 3743TIP3    H132720   0.793   0.431  16.286 -0.0925  2.7632  1.4163
 3743TIP3    H232721   0.936   0.451  16.330  1.0780 -0.1010 -0.8103
 3744TIP3   OH232722   2.137   3.040   1.191  0.7182 -0.1975 -0.4420
 3744TIP3    H132723   2.167   3.077   1.108 -0.1008  0.9740 -0.2516
 3744TIP3    H232724   2.178   2.953   1.195  3.2405  0.8861 -0.6327
 3745TIP3   OH232725   3.691   0.400  11.885 -0.4498 -0.3501 -0.4148
 3745TIP3    H132726   3.689   0.346  11.806  0.9390 -2.7304  1.0531
 3745TIP3    H232727   3.781   0.433  11.888 -0.3791 -0.5984  0.3542
 3746TIP3   OH232728   3.546   2.746  15.792  0.0260  0.1378 -0.6235
 3746TIP3    H132729   3.559   2.841  15.786  0.1574  0.1276 -0.5006
 3746TIP3    H232730   3.566   2.714  15.704  0.9443  0.1109 -0.4150
 3747TIP3   OH232731   4.850   3.975  11.522 -0.2550 -0.5440  0.2324
 3747TIP3    H132732   4.781   3.960  11.457 -0.5827  1.1608  0.1410
 3747TIP3    H232733   4.917   3.910  11.502 -1.5374 -1.8137 -0.0933
 3748TIP3   OH232734   0.724   1.726   0.756 -0.2883  0.0007 -0.1787
 3748TIP3    H132735   0.790   1.676   0.804  0.4403  0.9280 -0.2040
 3748TIP3    H232736   0.751   1.721   0.664  0.2227  1.0724 -0.0968
 3749TIP3   OH232737   1.326   1.384   1.596  0.6867  0.5341  0.0614
 3749TIP3    H132738   1.241   1.423   1.613  0.5621  0.4287 -0.3040
 3749TIP3    H232739   1.385   1.459   1.585  0.4635  0.6295 -0.5542
 3750TIP3   OH232740   6.822   1.884  10.663  0.1486  0.0267 -0.0000
 3750TIP3    H132741   6.908   1.851  10.634  0.0961 -1.0821  1.0481
 3750TIP3    H232742   6.760   1.817  10.634 -0.1715  0.0536  0.6091
 3751TIP3   OH232743   2.326   0.594   1.808  0.1814 -0.0432  0.5281
 3751TIP3    H132744   2.394   0.527   1.816  0.2492  0.1313  1.6614
 3751TIP3    H232745   2.282   0.592   1.893 -0.4251  0.7024  0.2371
 3752TIP3   OH232746   5.646   2.004   6.065  0.2453  0.0558 -0.3418
 3752TIP3    H132747   5.594   1.954   6.128  1.7980 -0.1745  0.7974
 3752TIP3    H232748   5.706   2.056   6.118  0.8053  0.7636 -1.6084
 3753TIP3   OH232749   5.060   0.587  17.058  0.5322 -0.3511  0.3691
 3753TIP3    H132750   5.005   0.655  17.097  1.1756  0.4280 -0.0323
 3753TIP3    H232751   5.095   0.628  16.979  1.7891 -0.7639  0.6911
 3754TIP3   OH232752   2.422   5.218  13.699  0.0185  0.4067 -0.0918
 3754TIP3    H132753   2.390   5.246  13.784 -0.1276  0.5159 -0.1828
 3754TIP3    H232754   2.512   5.251  13.695 -0.4235  1.6021 -0.5427
 3755TIP3   OH232755   0.456   2.848  16.328 -0.0995  0.2307 -0.4848
 3755TIP3    H132756   0.465   2.870  16.235  0.7602 -1.9732 -0.9896
 3755TIP3    H232757   0.546   2.845  16.361 -0.1306 -2.1320 -0.4418
 3756TIP3   OH232758   0.826   5.321  12.708 -0.4182 -0.1421  0.1224
 3756TIP3    H132759   0.767   5.320  12.634  0.7626 -1.2804 -0.8599
 3756TIP3    H232760   0.803   5.400  12.757 -1.6184  0.3024 -1.1096
 3757TIP3   OH232761   1.183   2.526   0.362  0.2826  0.0775 -0.3076
 3757TIP3    H132762   1.198   2.558   0.274 -1.0685 -0.9685 -0.9664
 3757TIP3    H232763   1.184   2.430   0.354  1.9574 -0.0832  1.1677
 3758TIP3   OH232764   5.124   4.921  13.708  0.2039 -0.2529 -1.0731
 3758TIP3    H132765   5.049   4.978  13.723 -0.2802 -0.8145 -1.3018
 3758TIP3    H232766   5.109   4.885  13.620 -1.0388 -2.9625  0.1219
 3759TIP3   OH232767   2.437   1.693  16.524 -0.0708  0.0178 -0.3442
 3759TIP3    H132768   2.437   1.700  16.429 -0.3375 -0.6926 -0.4024
 3759TIP3    H232769   2.512   1.745  16.552  1.8635 -2.1342 -1.1533
 3760TIP3   OH232770   3.258   2.973  13.624  0.4384 -0.0134  0.2689
 3760TIP3    H132771   3.274   3.064  13.648  0.3705 -0.3150  1.4887
 3760TIP3    H232772   3.191   2.942  13.685  1.0081 -1.1000  0.3770
 3761TIP3   OH232773   4.248   0.234   5.337 -0.3763 -0.6103  0.2898
 3761TIP3    H132774   4.331   0.190   5.352 -0.7482 -0.6908  2.3921
 3761TIP3    H232775   4.245   0.303   5.403 -1.4552  0.1705 -0.5365
 3762TIP3   OH232776   6.635   6.257  14.084  0.0555 -0.1028  1.0787
 3762TIP3    H132777   6.631   6.216  13.998 -0.6035  0.9468  0.5826
 3762TIP3    H232778   6.671   6.190  14.141  0.0169 -0.9933  0.0886
 3763TIP3   OH232779   3.573   5.210  11.450 -0.4665  0.1151 -0.3198
 3763TIP3    H132780   3.638   5.228  11.518  1.4025 -1.3685 -1.5993
 3763TIP3    H232781   3.574   5.115  11.441 -0.6201  0.2693 -2.4252
 3764TIP3   OH232782   0.129   4.535  11.937  0.2198  0.2902 -0.2211
 3764TIP3    H132783   0.036   4.535  11.958  0.2578  2.4928  0.1559
 3764TIP3    H232784   0.169   4.592  12.002  1.6732  0.2917 -1.0639
 3765TIP3   OH232785   4.776   0.145  16.732  0.4388 -0.6181  0.0236
 3765TIP3    H132786   4.849   0.155  16.794  2.2806 -2.0020 -1.7970
 3765TIP3    H232787   4.777   0.052  16.708 -3.0056 -1.0728  1.1048
 3766TIP3   OH232788   1.001   3.600   2.963 -0.4555  0.5084 -0.5255
 3766TIP3    H132789   0.993   3.695   2.971  0.9087  0.6730 -0.8123
 3766TIP3    H232790   0.998   3.583   2.869  1.1806  0.5036 -0.6119
 3767TIP3   OH232791   1.551   1.915  13.979  0.1734  0.4621  0.3341
 3767TIP3    H132792   1.476   1.907  13.921 -0.5006  1.0112  1.1080
 3767TIP3    H232793   1.625   1.935  13.921  0.1359 -1.8956 -0.6538
 3768TIP3   OH232794   4.929   4.236   3.186 -0.3268 -0.3697 -0.3774
 3768TIP3    H132795   4.902   4.320   3.224  1.0204 -0.3224  0.5441
 3768TIP3    H232796   5.024   4.233   3.199 -0.4361 -2.3671  0.3071
 3769TIP3   OH232797   3.037   0.775   6.157  0.1466  0.2744 -0.1575
 3769TIP3    H132798   2.983   0.846   6.122 -1.5893 -1.1949 -0.6097
 3769TIP3    H232799   2.985   0.737   6.227  1.2619 -0.2406  0.4153
 3770TIP3   OH232800   0.677   3.718   4.935 -0.4642 -0.3093  0.0008
 3770TIP3    H132801   0.751   3.706   4.874 -1.4642 -1.4387 -1.0495
 3770TIP3    H232802   0.639   3.630   4.944 -0.9610  0.0297  1.4825
 3771TIP3   OH232803   5.842   1.745  12.890  0.6308 -0.1310 -0.8890
 3771TIP3    H132804   5.887   1.662  12.910 -0.9651 -0.5537  1.3506
 3771TIP3    H232805   5.768   1.746  12.950 -0.6011  1.9672 -2.3558
 3772TIP3   OH232806   4.935   5.539  15.265  0.3150  0.0559  0.0974
 3772TIP3    H132807   4.996   5.567  15.334 -0.0389 -0.2179  0.5326
 3772TIP3    H232808   4.899   5.456  15.298 -0.6330  0.4398  0.0688
 3773TIP3   OH232809   2.855   3.725  16.046  0.4519  0.2088  0.2206
 3773TIP3    H132810   2.896   3.665  16.108  0.2866 -0.3148 -0.1753
 3773TIP3    H232811   2.861   3.811  16.088 -0.5127 -0.2756  1.4047
 3774TIP3   OH232812   5.395   1.821  16.430  0.6172 -0.3189  1.4488
 3774TIP3    H132813   5.489   1.805  16.423  0.3315 -2.3428  1.6166
 3774TIP3    H232814   5.388   1.899  16.485  2.1969  0.3277  0.8061
 3775TIP3   OH232815   6.146   0.951  14.403  0.4548 -0.7226  0.1127
 3775TIP3    H132816   6.106   0.994  14.328  2.4226  0.4553 -0.3468
 3775TIP3    H232817   6.133   0.858  14.387  0.2320 -0.4641 -1.3567
 3776TIP3   OH232818   5.675   3.230   4.098 -0.2124 -0.3500 -0.1425
 3776TIP3    H132819   5.616   3.182   4.157 -1.1444  0.2048 -0.5955
 3776TIP3    H232820   5.667   3.186   4.014  1.4484 -1.4111  0.2009
 3777TIP3   OH232821   4.799   3.781   2.768  0.0952  0.0023  0.6209
 3777TIP3    H132822   4.818   3.874   2.754 -1.2973  0.1179 -0.7866
 3777TIP3    H232823   4.882   3.744   2.799  0.5803  1.7670  1.5622
 3778TIP3   OH232824   3.560   1.404   1.472  0.2467 -0.0057  0.0287
 3778TIP3    H132825   3.594   1.493   1.461 -0.3749  0.0334 -2.2571
 3778TIP3    H232826   3.633   1.347   1.448  0.4950 -0.1124  1.0116
 3779TIP3   OH232827   0.943   3.332   1.950  0.0262  0.3702  0.2659
 3779TIP3    H132828   0.903   3.300   1.869  1.2782  0.0159 -0.2242
 3779TIP3    H232829   1.028   3.289   1.955 -0.1266  0.1688  1.9212
 3780TIP3   OH232830   0.264   4.781   2.125  0.1090  0.1699 -0.0470
 3780TIP3    H132831   0.248   4.834   2.203  2.8523 -0.3530  1.0009
 3780TIP3    H232832   0.199   4.712   2.130 -2.2576  2.2357 -0.3763
 3781TIP3   OH232833   1.305   3.590  11.074 -0.4398 -0.5473  0.1659
 3781TIP3    H132834   1.246   3.551  11.009 -1.5088  0.8022  0.2706
 3781TIP3    H232835   1.354   3.657  11.025 -0.1976 -0.5260  0.4359
 3782TIP3   OH232836   5.151   1.968  12.908  0.3588  0.0444 -0.9303
 3782TIP3    H132837   5.174   2.053  12.872  0.3431  0.2488 -0.4688
 3782TIP3    H232838   5.219   1.951  12.974 -1.8675  1.6529  2.0404
 3783TIP3   OH232839   3.290   0.123   2.464  0.2755 -0.3240 -0.3806
 3783TIP3    H132840   3.285   0.085   2.552 -1.3739  0.9712  0.1513
 3783TIP3    H232841   3.355   0.193   2.473  1.9056 -1.7083 -0.8709
 3784TIP3   OH232842   1.569   5.518  11.200 -0.1532 -0.1532 -0.2130
 3784TIP3    H132843   1.486   5.551  11.233  1.4213  1.5630  2.4057
 3784TIP3    H232844   1.632   5.587  11.219  2.1616 -1.9874 -0.6706
 3785TIP3   OH232845   0.134   6.119  13.564 -0.6541  0.8982 -0.3589
 3785TIP3    H132846   0.214   6.077  13.531 -0.5241  0.5568  0.3705
 3785TIP3    H232847   0.164   6.200  13.604 -0.7347  1.0007 -0.5044
 3786TIP3   OH232848   4.542   3.339   5.275 -0.4675  0.1363 -0.0887
 3786TIP3    H132849   4.466   3.372   5.324 -1.3802  0.5484 -1.6929
 3786TIP3    H232850   4.506   3.271   5.219  0.8618 -1.5200  0.9831
 3787TIP3   OH232851   6.242   0.012   2.795 -0.3160  0.4726  0.0315
 3787TIP3    H132852   6.228  -0.078   2.826 -0.6173  1.0151  1.5215
 3787TIP3    H232853   6.328   0.009   2.753  0.2980 -0.2034  1.2882
 3788TIP3   OH232854   4.978   1.257  15.118 -0.3411  0.4406  0.5510
 3788TIP3    H132855   4.913   1.314  15.077 -0.1252 -0.5540 -1.2516
 3788TIP3    H232856   5.062   1.289  15.085 -0.1924 -0.6325 -0.1512
 3789TIP3   OH232857   3.409   1.919  11.496  0.2976 -0.2703  0.2870
 3789TIP3    H132858   3.495   1.886  11.473  0.9332  1.3676  0.1750
 3789TIP3    H232859   3.392   1.990  11.434 -0.4787  0.3980  1.2201
 3790TIP3   OH232860   2.812   3.359  15.930  0.1792  0.0154  0.1150
 3790TIP3    H132861   2.895   3.314  15.943 -0.0777 -1.2018 -2.0060
 3790TIP3    H232862   2.746   3.291  15.939 -0.3072  0.1827 -1.6677
 3791TIP3   OH232863   4.148   4.202  14.423  0.3868 -0.5393  0.7615
 3791TIP3    H132864   4.212   4.182  14.355  1.4980  1.3205  1.2045
 3791TIP3    H232865   4.146   4.123  14.477  1.3658 -1.0901  0.0229
 3792TIP3   OH232866   4.179   6.332   0.762 -0.0100 -0.0173  0.3867
 3792TIP3    H132867   4.141   6.379   0.836 -0.2169  1.8471 -0.8342
 3792TIP3    H232868   4.104   6.294   0.716  0.2334 -3.1624  2.2614
 3793TIP3   OH232869   6.714   6.141  16.162  0.4565  0.6195 -1.1457
 3793TIP3    H132870   6.633   6.152  16.210  0.3684 -0.2646 -1.0726
 3793TIP3    H232871   6.730   6.226  16.122  0.0488  1.1013 -0.3118
 3794TIP3   OH232872   4.755   0.063   1.689  0.2589 -0.0001 -0.9009
 3794TIP3    H132873   4.790  -0.011   1.737  2.0553  0.4300 -1.4890
 3794TIP3    H232874   4.756   0.135   1.752  0.2292 -0.0400 -0.8547
 3795TIP3   OH232875   1.806   4.588   4.774  0.0735  0.0692 -0.3515
 3795TIP3    H132876   1.869   4.621   4.838 -1.0546 -0.0269  0.8225
 3795TIP3    H232877   1.784   4.664   4.721  0.9203  0.1752 -0.5725
 3796TIP3   OH232878   6.056   3.348   0.102 -0.7771 -0.0473 -0.1845
 3796TIP3    H132879   6.089   3.428   0.143 -0.8098  0.1328 -0.5099
 3796TIP3    H232880   6.039   3.289   0.176  0.3099 -0.1591 -0.0164
 3797TIP3   OH232881   1.924   1.525  12.888  0.3927 -0.0438  0.0739
 3797TIP3    H132882   2.009   1.569  12.894 -0.4884  1.6418  0.9719
 3797TIP3    H232883   1.882   1.566  12.813 -0.0346 -0.0964  0.2827
 3798TIP3   OH232884   4.672   2.763  17.204  0.6394 -0.1672  0.1304
 3798TIP3    H132885   4.724   2.713  17.267  0.6113 -0.9349 -0.4466
 3798TIP3    H232886   4.653   2.845  17.249  1.8697 -0.1077  0.5612
 3799TIP3   OH232887   3.295   0.396  14.566  0.1058 -0.3951  0.3905
 3799TIP3    H132888   3.366   0.427  14.622  0.7071 -1.2835  0.1336
 3799TIP3    H232889   3.332   0.323  14.518 -0.7770 -0.4262 -0.2708
 3800TIP3   OH232890   4.243   4.848  12.220  0.9808 -0.0140  0.3249
 3800TIP3    H132891   4.218   4.777  12.280 -0.8658  0.2127 -0.1268
 3800TIP3    H232892   4.221   4.815  12.133  1.9634  0.3644 -0.0829
 3801TIP3   OH232893   3.485   6.387   3.653 -0.5522 -0.1161  0.1439
 3801TIP3    H132894   3.495   6.364   3.560 -0.3399 -0.9998  0.3782
 3801TIP3    H232895   3.432   6.467   3.652 -0.0734  0.2124 -0.7656
 3802TIP3   OH232896   5.359   5.588   0.335 -0.1620 -0.1788  0.0046
 3802TIP3    H132897   5.308   5.555   0.410 -0.5569  0.1123 -0.1306
 3802TIP3    H232898   5.315   5.670   0.310  1.0376  0.6771  0.5902
 3803TIP3   OH232899   1.619   4.655   0.552  0.5263 -0.6950 -0.2323
 3803TIP3    H132900   1.707   4.658   0.588  0.0094  0.5331  0.9975
 3803TIP3    H232901   1.621   4.716   0.478  1.3836 -2.6644 -1.9356
 3804TIP3   OH232902   4.751   6.029  15.829 -0.1492 -0.0960 -0.2235
 3804TIP3    H132903   4.719   6.058  15.914 -0.5887  0.4500 -0.5657
 3804TIP3    H232904   4.689   5.961  15.802 -0.9229  0.8138 -0.7918
 3805TIP3   OH232905   0.720   6.461   2.804  0.6594 -0.0384 -0.0995
 3805TIP3    H132906   0.692   6.464   2.896 -0.0756 -1.1509 -0.2567
 3805TIP3    H232907   0.690   6.375   2.773 -0.0564  0.7396 -1.6771
 3806TIP3   OH232908   2.337   5.144  15.853  0.3849  0.3022  0.1890
 3806TIP3    H132909   2.248   5.132  15.819  0.6092 -0.4117 -0.1650
 3806TIP3    H232910   2.380   5.060  15.837  1.2969  0.8285 -0.1697
 3807TIP3   OH232911   1.818   3.438   3.660 -0.4834 -0.3846  0.4213
 3807TIP3    H132912   1.732   3.465   3.693  0.3795  1.5638  1.2484
 3807TIP3    H232913   1.860   3.520   3.633  0.7857 -1.3983 -0.8307
 3808TIP3   OH232914   3.725   6.094  12.044  0.2265  0.2980  0.2211
 3808TIP3    H132915   3.639   6.131  12.026 -0.0328 -0.8535 -1.1210
 3808TIP3    H232916   3.787   6.154  12.003 -0.1665 -0.4991 -1.6419
 3809TIP3   OH232917   6.731   2.505  14.834 -0.5822  0.2794  0.0368
 3809TIP3    H132918   6.748   2.440  14.902 -1.4802 -0.4575 -0.4364
 3809TIP3    H232919   6.683   2.458  14.766 -0.5502  1.2420 -0.6762
 3810TIP3   OH232920   5.719   5.407   3.128  0.3713  0.2689  0.0109
 3810TIP3    H132921   5.757   5.398   3.216  1.1668 -0.5689 -0.4133
 3810TIP3    H232922   5.699   5.318   3.101  0.9581  0.4380 -1.0256
 3811TIP3   OH232923   2.533   3.428   6.225 -0.3044  0.0829  0.1548
 3811TIP3    H132924   2.487   3.512   6.219  2.0971  1.6274  1.6103
 3811TIP3    H232925   2.536   3.410   6.319  0.2436 -1.0173 -0.0664
 3812TIP3   OH232926   0.218   4.389   2.088 -0.0384 -0.0454 -0.0961
 3812TIP3    H132927   0.287   4.426   2.032 -0.7422 -0.1454 -1.0536
 3812TIP3    H232928   0.159   4.345   2.027  0.0422 -1.5839  0.8961
 3813TIP3   OH232929   3.352   0.063  11.442 -0.3676  0.6566 -0.0335
 3813TIP3    H132930   3.281   0.027  11.495 -0.3820  0.5209 -0.1472
 3813TIP3    H232931   3.371  -0.004  11.377  0.2023  0.4916  0.3059
 3814TIP3   OH232932   3.299   6.226  14.915 -0.5689  0.3932  0.6901
 3814TIP3    H132933   3.329   6.136  14.926  1.1605  1.1581  3.1584
 3814TIP3    H232934   3.262   6.229  14.827 -1.8785 -3.0107  0.9906
 3815TIP3   OH232935   4.285   3.406   2.031  0.1604 -0.5410  0.1282
 3815TIP3    H132936   4.191   3.405   2.049 -0.5317  0.2500 -2.8189
 3815TIP3    H232937   4.296   3.345   1.958  1.1553  2.2578 -2.2754
 3816TIP3   OH232938   0.770   5.821   4.271  0.4164  0.5136  0.9149
 3816TIP3    H132939   0.816   5.900   4.243 -0.4282  0.9248  0.6423
 3816TIP3    H232940   0.838   5.755   4.281  1.0896  1.1882  0.8124
 3817TIP3   OH232941   3.713   6.380  11.713  0.0331 -0.6220  0.0471
 3817TIP3    H132942   3.675   6.381  11.625 -0.2885  1.9719  0.1544
 3817TIP3    H232943   3.641   6.406  11.770  1.0390  0.8847  0.6807
 3818TIP3   OH232944   4.605   6.727  10.616 -0.3912 -0.3164  0.1488
 3818TIP3    H132945   4.660   6.792  10.574 -1.2278  0.0180 -0.4620
 3818TIP3    H232946   4.531   6.777  10.651 -0.6643 -0.8370  0.3312
 3819TIP3   OH232947   5.894   3.208  15.351 -0.5005  0.9053 -0.1637
 3819TIP3    H132948   5.801   3.185  15.350 -0.1652 -0.5573 -0.0396
 3819TIP3    H232949   5.913   3.231  15.442 -0.6677  0.9140 -0.1324
 3820TIP3   OH232950   6.761   4.603   0.016 -0.3282 -0.5281  0.2152
 3820TIP3    H132951   6.750   4.650   0.099  0.2569 -0.3312  0.1823
 3820TIP3    H232952   6.826   4.535   0.035  0.6279  0.2098 -0.3614
 3821TIP3   OH232953   1.586   0.112  16.674  0.3595 -0.2529 -0.2122
 3821TIP3    H132954   1.527   0.172  16.629 -0.5106 -2.7311 -2.6479
 3821TIP3    H232955   1.542   0.092  16.756 -1.8856 -1.3587 -1.5869
 3822TIP3   OH232956   5.659   2.126  12.054 -0.6981  0.0843  0.4840
 3822TIP3    H132957   5.604   2.049  12.068  0.4333 -0.7451  0.4503
 3822TIP3    H232958   5.704   2.109  11.971 -1.1997  1.2576 -0.0593
 3823TIP3   OH232959   5.587   1.610   0.784  0.0769 -0.1048 -0.0481
 3823TIP3    H132960   5.540   1.540   0.830 -0.0474 -0.3706 -0.5697
 3823TIP3    H232961   5.595   1.578   0.694 -0.5049  0.8084 -0.4390
 3824TIP3   OH232962   3.906   3.416  14.612  0.0320 -0.2710  0.7932
 3824TIP3    H132963   3.902   3.377  14.525 -2.9549  1.9106 -0.2188
 3824TIP3    H232964   3.973   3.484  14.605 -0.7775  0.4627 -0.1246
 3825TIP3   OH232965   0.231   5.282   2.845  0.1314  0.0390  0.4812
 3825TIP3    H132966   0.209   5.249   2.758  0.2362  1.2736 -0.0345
 3825TIP3    H232967   0.276   5.365   2.829  0.3676  0.1740  1.7105
 3826TIP3   OH232968   5.985   1.247   1.466  0.0239 -0.0185  0.2948
 3826TIP3    H132969   6.032   1.165   1.453  1.0061  0.1214  2.5016
 3826TIP3    H232970   5.900   1.222   1.501  0.0502 -0.1305  0.2771
 3827TIP3   OH232971   3.892   4.047  15.752 -0.9814  0.1539 -0.2106
 3827TIP3    H132972   3.900   4.106  15.827  0.2107  0.4383 -0.5418
 3827TIP3    H232973   3.821   4.085  15.700 -2.2037 -0.3420  1.0038
 3828TIP3   OH232974   3.027   4.410   2.372 -0.5375  0.2441  0.2550
 3828TIP3    H132975   2.985   4.354   2.308  0.3708  1.3938 -1.4134
 3828TIP3    H232976   2.995   4.378   2.457 -3.9195  0.4202 -0.8187
 3829TIP3   OH232977   3.368   0.462   4.541  0.1509  0.0468  0.1039
 3829TIP3    H132978   3.272   0.464   4.532  0.1138  1.6374  0.5139
 3829TIP3    H232979   3.389   0.544   4.585  1.6154 -0.8453  1.1349
 3830TIP3   OH232980   1.476   4.467  16.271  0.3898  0.1262 -0.0487
 3830TIP3    H132981   1.542   4.536  16.274  1.2288 -0.6814  1.0682
 3830TIP3    H232982   1.448   4.464  16.180  1.2616  1.0765 -0.3624
 3831TIP3   OH232983   0.095   1.944   4.441 -0.4981 -0.1911  0.8128
 3831TIP3    H132984   0.171   1.967   4.495  0.8580 -0.2960 -0.9784
 3831TIP3    H232985   0.097   2.007   4.369 -2.8555  0.5904  1.3183
 3832TIP3   OH232986   3.102   4.243   3.872  0.7740 -0.8401  0.0333
 3832TIP3    H132987   3.155   4.166   3.891  0.0055 -1.6484 -0.9543
 3832TIP3    H232988   3.120   4.303   3.944  0.8259 -2.2405  1.2396
 3833TIP3   OH232989   1.826   1.266   3.964  0.1106  0.2279  0.2407
 3833TIP3    H132990   1.878   1.345   3.976 -2.1771  1.5905  1.7101
 3833TIP3    H232991   1.788   1.275   3.877  1.2061 -0.1624 -0.3099
 3834TIP3   OH232992   6.725   5.709  14.498  0.1649 -0.3018 -0.6229
 3834TIP3    H132993   6.634   5.728  14.472 -0.2962 -2.1537 -0.4819
 3834TIP3    H232994   6.732   5.747  14.586 -0.7068 -0.7502 -0.3460
 3835TIP3   OH232995   1.002   3.208   5.328  0.7746 -0.1253  0.2220
 3835TIP3    H132996   0.951   3.286   5.347  0.5718 -0.5514  1.5182
 3835TIP3    H232997   0.938   3.144   5.298  1.1169  0.6113 -2.3519
 3836TIP3   OH232998   1.451   5.305  16.470 -1.2408 -0.2221  0.5447
 3836TIP3    H132999   1.541   5.337  16.465 -1.5255  0.7360  1.2986
 3836TIP3    H233000   1.443   5.246  16.395  0.1509 -0.6961  0.7350
 3837TIP3   OH233001   5.841   3.000   3.846 -0.2010 -0.2840  0.3064
 3837TIP3    H133002   5.882   2.914   3.840 -0.7169 -0.4502 -3.3433
 3837TIP3    H233003   5.848   3.035   3.757 -1.2357  2.8926  1.3624
 3838TIP3   OH233004   0.419   6.128  14.078  0.0034  0.3156  0.1562
 3838TIP3    H133005   0.488   6.099  14.018 -0.6968  0.0401 -0.5409
 3838TIP3    H233006   0.360   6.180  14.023 -0.2412  0.7092  0.7845
 3839TIP3   OH233007   4.564   0.412   1.319  0.2004  0.1244  0.1275
 3839TIP3    H133008   4.564   0.341   1.255  1.5353  0.6792 -0.5305
 3839TIP3    H233009   4.471   0.425   1.340 -0.6003  1.5046 -3.5218
 3840TIP3   OH233010   4.923   2.041   5.043 -0.3366 -0.2494  0.1897
 3840TIP3    H133011   4.976   1.995   5.107  1.6415  1.0039 -0.4676
 3840TIP3    H233012   4.935   2.133   5.063 -0.8622  0.1179 -1.0563
 3841TIP3   OH233013   6.047   1.290  12.836 -0.3335  0.0410  0.5563
 3841TIP3    H133014   6.077   1.295  12.746 -1.5777 -0.9529  0.0556
 3841TIP3    H233015   6.076   1.204  12.867  0.1982  0.4242  1.1538
 3842TIP3   OH233016   3.369   2.046  17.149 -0.6439  0.2938 -0.3686
 3842TIP3    H133017   3.392   2.132  17.111 -3.0794  1.8260  1.3882
 3842TIP3    H233018   3.446   2.022  17.201  0.0575  1.4454 -0.8249
 3843TIP3   OH233019   4.902   4.600  13.200  0.1820  0.4629 -0.5341
 3843TIP3    H133020   4.890   4.522  13.254  0.4829 -0.0996 -1.2468
 3843TIP3    H233021   4.997   4.603  13.184 -0.0206 -0.1957 -2.1404
 3844TIP3   OH233022   3.417   1.524  17.160  0.1232  0.1998  0.0633
 3844TIP3    H133023   3.366   1.588  17.210 -0.7693  1.4581 -2.3204
 3844TIP3    H233024   3.376   1.523  17.074  0.9750 -2.6253 -0.3965
 3845TIP3   OH233025   1.045   6.518   6.229 -0.2287  0.1056  0.8128
 3845TIP3    H133026   1.042   6.565   6.146 -0.6190  3.6626  2.6855
 3845TIP3    H233027   1.004   6.433   6.209 -0.0628  0.6636 -2.6236
 3846TIP3   OH233028   4.422   6.241  14.969  0.2791 -0.3312  0.0469
 3846TIP3    H133029   4.425   6.315  14.907 -1.5803 -0.3573 -0.1445
 3846TIP3    H233030   4.505   6.245  15.016  0.1064  2.0948  0.2598
 3847TIP3   OH233031   4.900   2.371  14.866  0.3548 -0.0410  0.5019
 3847TIP3    H133032   4.925   2.282  14.842  2.9444  0.3069  1.5313
 3847TIP3    H233033   4.900   2.419  14.783  2.8143 -0.2350  0.3133
 3848TIP3   OH233034   4.569   1.705   1.649 -0.4250 -0.0657 -0.2357
 3848TIP3    H133035   4.610   1.634   1.698  0.0694 -0.3712 -1.0741
 3848TIP3    H233036   4.526   1.662   1.575 -1.5990  0.3349  0.1978
 3849TIP3   OH233037   0.002   5.025  14.881 -0.3691  0.3949  0.2563
 3849TIP3    H133038  -0.063   5.089  14.909  0.7742  0.9349  1.8551
 3849TIP3    H233039   0.044   4.996  14.962  2.5520  1.3905 -0.7536
 3850TIP3   OH233040   1.012   3.985   4.650  0.3980 -0.4396 -0.2765
 3850TIP3    H133041   1.045   3.957   4.565 -1.7980  0.2165 -1.4175
 3850TIP3    H233042   0.943   3.923   4.671 -0.8785  0.9259 -0.2763
 3851TIP3   OH233043   5.371   1.957   5.115 -0.1654  0.4365  0.1002
 3851TIP3    H133044   5.408   2.045   5.121  0.5925  0.0415  1.9786
 3851TIP3    H233045   5.412   1.909   5.187  0.3300 -1.8099 -1.5737
 3852TIP3   OH233046   1.122   6.233  14.084 -0.2248 -0.5110 -0.2366
 3852TIP3    H133047   1.178   6.159  14.060  0.4535  0.1634 -0.7610
 3852TIP3    H233048   1.075   6.202  14.162 -0.7621 -1.8851 -1.0603
 3853TIP3   OH233049   2.431   1.691   1.489 -0.0126  0.1926  0.0958
 3853TIP3    H133050   2.516   1.731   1.472 -0.2613  0.4024 -0.6876
 3853TIP3    H233051   2.370   1.764   1.496 -0.4274 -0.0077 -1.1089
 3854TIP3   OH233052   6.693   2.653   2.657  0.3348 -0.2745  0.3364
 3854TIP3    H133053   6.621   2.606   2.616  0.5151 -1.4525  1.3169
 3854TIP3    H233054   6.734   2.588   2.715  1.2117  0.8150  0.9693
 3855TIP3   OH233055   4.034   0.763  15.817 -0.7269 -0.3492 -0.4899
 3855TIP3    H133056   3.939   0.763  15.802 -1.1716  0.4798  1.8923
 3855TIP3    H233057   4.044   0.736  15.908  1.3149  0.1184 -0.5242
 3856TIP3   OH233058   0.200   0.629   5.594 -0.5322 -0.1821  0.4529
 3856TIP3    H133059   0.258   0.703   5.614  1.0765 -1.2231 -0.1182
 3856TIP3    H233060   0.112   0.660   5.616  0.2271  1.4958  1.2822
 3857TIP3   OH233061   4.309   3.853  13.483 -0.2563  1.0222  0.0960
 3857TIP3    H133062   4.326   3.782  13.421  0.3705 -1.2252  2.6195
 3857TIP3    H233063   4.274   3.808  13.561  1.3936  3.3043  2.3115
 3858TIP3   OH233064   3.994   1.723   4.996 -0.3397  0.1306 -0.5969
 3858TIP3    H133065   4.051   1.674   5.054 -0.9564 -1.0224 -0.9356
 3858TIP3    H233066   3.906   1.707   5.029 -0.5784  0.7981 -0.8826
 3859TIP3   OH233067   5.478   6.489   1.747  0.2550  0.1661 -0.6557
 3859TIP3    H133068   5.414   6.560   1.741 -1.1160 -1.0966 -1.8437
 3859TIP3    H233069   5.426   6.409   1.732  1.4688 -1.2400  1.9591
 3860TIP3   OH233070   5.803   2.510  11.210  0.1782  0.3765  0.1127
 3860TIP3    H133071   5.777   2.589  11.256 -0.2142 -0.8932  2.1806
 3860TIP3    H233072   5.792   2.440  11.274 -0.0030 -1.4460 -1.8090
 3861TIP3   OH233073   3.723   6.793   3.787  0.1161  0.7156  0.5584
 3861TIP3    H133074   3.661   6.732   3.827  0.5248  0.9553  1.5713
 3861TIP3    H233075   3.758   6.844   3.860  2.6673 -0.4363  0.2489
 3862TIP3   OH233076   0.951   2.985  12.678  0.1861  0.0304  0.4965
 3862TIP3    H133077   0.882   3.046  12.706  0.1734  0.2361  0.0303
 3862TIP3    H233078   0.933   2.971  12.585  1.8702  1.5672 -0.1108
 3863TIP3   OH233079   5.497   2.797   5.090 -0.1630 -0.1616  0.1395
 3863TIP3    H133080   5.579   2.783   5.137  0.1645 -0.3104 -0.4589
 3863TIP3    H233081   5.468   2.884   5.118  0.1827 -0.1224  0.3836
 3864TIP3   OH233082   5.916   4.032   0.413  0.0828 -0.1278  0.1202
 3864TIP3    H133083   5.861   3.959   0.441  1.2529 -0.0845  2.9292
 3864TIP3    H233084   5.998   3.992   0.385  0.5104  0.0392  1.0921
 3865TIP3   OH233085   3.713   6.014  15.558 -0.0657 -0.7349 -0.2781
 3865TIP3    H133086   3.751   5.945  15.503  2.8309  0.8330 -0.4221
 3865TIP3    H233087   3.720   6.093  15.504 -2.2153 -0.0500  0.3433
 3866TIP3   OH233088   5.442   0.574   2.718 -0.0861 -0.1594  0.7542
 3866TIP3    H133089   5.472   0.584   2.628 -0.5432 -0.8983  0.5102
 3866TIP3    H233090   5.409   0.484   2.723 -1.5981  0.3918  1.1890
 3867TIP3   OH233091   5.132   2.546   2.131  0.0872  0.0706  0.5803
 3867TIP3    H133092   5.043   2.580   2.141  0.2434  0.5308  0.4433
 3867TIP3    H233093   5.159   2.522   2.219 -0.3567 -0.5409  0.5533
 3868TIP3   OH233094   6.766   0.003   2.014 -0.7103  0.2626 -0.3421
 3868TIP3    H133095   6.681   0.024   2.053 -0.4687  0.1395  0.2666
 3868TIP3    H233096   6.753  -0.084   1.976 -0.3702 -0.5506  1.3124
 3869TIP3   OH233097   1.900   2.125   0.267  0.2315 -0.1075  0.0744
 3869TIP3    H133098   1.918   2.125   0.360 -1.4861 -0.2031  0.4444
 3869TIP3    H233099   1.804   2.131   0.261 -0.1295 -4.1272 -1.5661
 3870TIP3   OH233100   3.303   1.426   5.386 -0.0957  0.2691  0.0079
 3870TIP3    H133101   3.289   1.490   5.456 -2.9794 -0.7185  0.4698
 3870TIP3    H233102   3.370   1.466   5.331  1.8861  1.3675  2.9342
 3871TIP3   OH233103   1.216   4.902  12.730 -0.0235  0.2788 -0.1585
 3871TIP3    H133104   1.183   4.814  12.751 -2.6862  0.8373 -1.5113
 3871TIP3    H233105   1.187   4.917  12.640 -1.2667  3.2094  0.6252
 3872TIP3   OH233106   0.697   1.979  16.836 -0.4608  0.2571 -0.2916
 3872TIP3    H133107   0.687   1.889  16.866  1.1711 -0.3159 -1.3490
 3872TIP3    H233108   0.646   1.983  16.755  1.8622 -0.6256 -1.8702
 3873TIP3   OH233109   5.822   4.246   0.223 -0.2294  0.2305 -0.4065
 3873TIP3    H133110   5.838   4.174   0.284 -1.3462 -0.5959 -1.0401
 3873TIP3    H233111   5.881   4.228   0.149  1.0032  1.1413  0.3167
 3874TIP3   OH233112   2.340   1.349   3.927 -0.0447  0.0307  0.1794
 3874TIP3    H133113   2.300   1.263   3.916  1.7488 -0.5850 -2.2509
 3874TIP3    H233114   2.281   1.409   3.880  0.1651 -0.3626 -0.6091
 3875TIP3   OH233115   3.836   0.343  14.262  0.2721  0.7193  0.5134
 3875TIP3    H133116   3.826   0.437  14.282 -0.0001  0.5405  1.2791
 3875TIP3    H233117   3.908   0.315  14.320 -0.1097  0.3126  0.7923
 3876TIP3   OH233118   2.565   4.004   0.677  0.2874  0.4569  0.0928
 3876TIP3    H133119   2.485   3.987   0.727  0.4618  0.3329  0.3308
 3876TIP3    H233120   2.609   4.074   0.726  0.3846  0.4377  0.0325
 3877TIP3   OH233121   3.995   1.499  14.220 -0.0642  0.4901  0.5396
 3877TIP3    H133122   4.073   1.444  14.217 -0.9605 -0.8604  1.1606
 3877TIP3    H233123   3.952   1.485  14.135 -0.3865  0.0868  0.7681
 3878TIP3   OH233124   2.191   4.292  11.373 -0.0984 -0.3851 -0.5826
 3878TIP3    H133125   2.188   4.256  11.461 -0.0819  0.5126 -0.2050
 3878TIP3    H233126   2.284   4.306  11.356 -0.1269 -0.2017 -0.5908
 3879TIP3   OH233127   3.279   4.063  11.257  0.1433 -0.4080 -0.4260
 3879TIP3    H133128   3.195   4.082  11.214  0.1180 -0.6819 -0.4971
 3879TIP3    H233129   3.314   3.988  11.210  0.6474 -0.0140 -0.6946
 3880TIP3   OH233130   0.785   0.936   5.297 -0.2743 -0.2383  0.3259
 3880TIP3    H133131   0.830   0.918   5.380  2.4535  0.9663 -0.7934
 3880TIP3    H233132   0.728   1.010   5.317 -1.9295 -1.7877  1.7759
 3881TIP3   OH233133   4.998   6.374  12.648 -0.0538  0.0775 -0.0418
 3881TIP3    H133134   4.962   6.345  12.564  0.1441 -0.5514  0.0915
 3881TIP3    H233135   4.967   6.465  12.656  0.0092  0.1796 -0.8369
 3882TIP3   OH233136   2.558   5.256   6.353  0.2244  0.2585 -0.0092
 3882TIP3    H133137   2.489   5.261   6.419  0.1568 -0.6873  0.0144
 3882TIP3    H233138   2.597   5.343   6.352  0.5733  0.1692  1.6614
 3883TIP3   OH233139   5.161   6.123  11.308  0.3890 -0.0891 -0.4393
 3883TIP3    H133140   5.196   6.187  11.246  1.5732  0.7372  0.9989
 3883TIP3    H233141   5.122   6.177  11.378  2.9883 -0.7764  1.7060
 3884TIP3   OH233142   6.435   4.002   0.802  0.3418 -0.3380  0.2621
 3884TIP3    H133143   6.365   3.983   0.739  0.3169 -2.1675  0.8079
 3884TIP3    H233144   6.411   4.088   0.838 -0.4196  0.0779 -1.1450
 3885TIP3   OH233145   0.144   2.685   2.890 -0.1750  0.2073 -0.7234
 3885TIP3    H133146   0.148   2.651   2.800 -1.0234  1.6543 -1.3353
 3885TIP3    H233147   0.055   2.717   2.900 -0.1980 -0.2699  0.7828
 3886TIP3   OH233148   3.602   4.669  14.827  0.2663 -0.3581 -0.4783
 3886TIP3    H133149   3.615   4.587  14.874  0.8584  0.0389  0.0620
 3886TIP3    H233150   3.691   4.702  14.811  0.0160  1.1527  1.0301
 3887TIP3   OH233151   5.805   0.166   0.218  0.2973  0.2477  0.1423
 3887TIP3    H133152   5.756   0.107   0.275  0.0329 -0.0965 -0.4280
 3887TIP3    H233153   5.891   0.175   0.260  0.1579 -0.1135  0.5104
 3888TIP3   OH233154   1.371   5.323  16.929  0.2884  0.3479  0.2190
 3888TIP3    H133155   1.344   5.301  16.840 -0.0887 -0.0823  0.4347
 3888TIP3    H233156   1.440   5.261  16.951 -1.3771 -1.2673  1.1477
 3889TIP3   OH233157   3.098   0.243   5.882 -0.3192 -0.0888  0.0546
 3889TIP3    H133158   3.054   0.228   5.966  0.4739  0.6968  0.6239
 3889TIP3    H233159   3.085   0.336   5.864 -0.0893 -0.1541 -0.4792
 3890TIP3   OH233160   5.575   1.216   4.577  0.0110  0.0759  0.8396
 3890TIP3    H133161   5.531   1.160   4.513  0.6322  0.9340 -0.3772
 3890TIP3    H233162   5.578   1.302   4.535  5.3153 -0.4095 -0.4806
 3891TIP3   OH233163   5.514   1.788   0.007  0.1381 -0.6332 -0.1672
 3891TIP3    H133164   5.575   1.807  -0.064  0.3318  2.1747  0.6337
 3891TIP3    H233165   5.568   1.748   0.075  0.8869  0.7370  0.0743
 3892TIP3   OH233166   0.465   5.360  11.060 -0.3938  0.3919 -0.0545
 3892TIP3    H133167   0.402   5.327  10.996  0.4737 -0.0905 -0.6817
 3892TIP3    H233168   0.501   5.281  11.101 -0.2435  0.6652  0.3511
 3893TIP3   OH233169   3.731   3.498  16.550  0.0121 -0.0965  0.0043
 3893TIP3    H133170   3.776   3.434  16.605  0.0665  0.9280  1.1902
 3893TIP3    H233171   3.705   3.568  16.610  1.2946  1.7440 -1.4351
 3894TIP3   OH233172   4.620   3.994   5.772 -0.3916 -0.0629 -0.0249
 3894TIP3    H133173   4.658   4.041   5.698  0.6695 -0.1721  0.4302
 3894TIP3    H233174   4.690   3.991   5.837 -1.8062  1.5446  1.6861
 3895TIP3   OH233175   4.392   2.461  12.385 -0.3663  0.7587  0.1251
 3895TIP3    H133176   4.365   2.370  12.391  1.5264  0.1798  0.4474
 3895TIP3    H233177   4.310   2.510  12.379 -1.4294 -0.9108  0.4556
 3896TIP3   OH233178   5.259   2.294  11.400  1.0731  0.1248 -0.3053
 3896TIP3    H133179   5.265   2.346  11.320  2.0157 -0.3431 -0.5508
 3896TIP3    H233180   5.300   2.348  11.467  0.0556  0.6259 -0.0611
 3897TIP3   OH233181   0.610   4.430  14.016  0.0840  0.0046  0.1933
 3897TIP3    H133182   0.592   4.447  13.924 -1.6225  1.6496  0.7673
 3897TIP3    H233183   0.699   4.394  14.017  0.3801  0.5401 -2.0203
 3898TIP3   OH233184   5.866   5.901   2.311  0.3513  0.1370 -0.0738
 3898TIP3    H133185   5.947   5.903   2.261 -0.0508 -0.9288 -0.7923
 3898TIP3    H233186   5.833   5.991   2.306  1.2227  0.4591 -0.1973
 3899TIP3   OH233187   4.345   4.669   0.160  0.0944  0.4288 -0.4515
 3899TIP3    H133188   4.334   4.584   0.117 -1.1748  0.7387 -0.7828
 3899TIP3    H233189   4.319   4.654   0.251 -0.7702  0.6107 -0.6668
 3900TIP3   OH233190   1.127   4.118   6.231 -0.2431  0.3360 -0.5007
 3900TIP3    H133191   1.116   4.213   6.232  2.0557  0.6552 -0.0939
 3900TIP3    H233192   1.222   4.105   6.230 -0.4941 -1.9614  0.2246
 3901TIP3   OH233193   2.648   1.289  15.106  0.8571 -0.1933  0.5698
 3901TIP3    H133194   2.678   1.211  15.059  1.8154  0.2510  0.4087
 3901TIP3    H233195   2.599   1.255  15.181  1.5135 -0.9598  0.6634
 3902TIP3   OH233196   0.051   2.584   1.106  0.5061 -0.5927 -0.2622
 3902TIP3    H133197   0.036   2.540   1.022  1.1346 -0.4510 -0.4595
 3902TIP3    H233198   0.103   2.661   1.083  2.5975 -1.6990  0.4757
 3903TIP3   OH233199   5.990   6.636  15.667  0.0692 -0.6015 -0.0501
 3903TIP3    H133200   5.974   6.655  15.760  0.8931 -0.7850  0.1381
 3903TIP3    H233201   5.929   6.566  15.646  0.3240 -1.0088  0.5354
 3904TIP3   OH233202   2.626   4.961  13.781 -0.4276  0.0804 -0.6528
 3904TIP3    H133203   2.620   5.043  13.831 -0.3221 -0.4189  0.1867
 3904TIP3    H233204   2.605   4.892  13.845 -0.5189 -0.5493 -1.3528
 3905TIP3   OH233205   0.102   0.097   5.801  0.2396 -0.3110  0.0382
 3905TIP3    H133206   0.068   0.164   5.742 -0.8252  1.7133  2.7343
 3905TIP3    H233207   0.084   0.014   5.757 -1.4129  1.0361 -1.9737
 3906TIP3   OH233208   2.423   5.904  16.935  0.3398 -0.0986 -0.0853
 3906TIP3    H133209   2.418   6.000  16.938  0.8618 -0.0991  1.3014
 3906TIP3    H233210   2.478   5.886  16.859  0.9371  0.7437  0.1268
 3907TIP3   OH233211   0.767   5.987   2.349  0.2944 -0.6605  0.1907
 3907TIP3    H133212   0.860   6.010   2.355  0.3371 -0.7588 -0.0668
 3907TIP3    H233213   0.752   5.928   2.423  0.5582 -1.0473 -0.0628
 3908TIP3   OH233214   4.433   5.356  11.186  0.2873  0.3062 -0.3274
 3908TIP3    H133215   4.418   5.451  11.182 -0.5354  0.2611  0.9479
 3908TIP3    H233216   4.465   5.333  11.099 -1.0610  1.4964 -1.1821
 3909TIP3   OH233217   1.557   2.993   1.637 -0.0529  0.4193  0.2199
 3909TIP3    H133218   1.508   2.963   1.713  1.2656  1.6428  1.6231
 3909TIP3    H233219   1.639   3.027   1.673  0.8590  0.5182 -1.8153
 3910TIP3   OH233220   4.056   4.030  14.614 -0.0966  0.1950  0.5683
 3910TIP3    H133221   4.029   3.940  14.632  1.5388  0.0016  2.3345
 3910TIP3    H233222   3.980   4.083  14.638 -0.8552 -0.6505  0.0996
 3911TIP3   OH233223   1.384   1.537   1.992 -0.1078 -0.0471 -0.7214
 3911TIP3    H133224   1.372   1.592   1.915  0.5188 -1.3836 -1.8237
 3911TIP3    H233225   1.474   1.505   1.984 -0.5470 -1.4543 -0.2893
 3912TIP3   OH233226   3.356   4.467   3.558  0.1062  0.1059 -0.2550
 3912TIP3    H133227   3.353   4.495   3.467 -1.1270 -1.1468 -0.6327
 3912TIP3    H233228   3.266   4.478   3.589 -0.1350 -2.1265 -0.0461
 3913TIP3   OH233229   3.056   2.830  11.837  0.2362 -0.5511 -0.2914
 3913TIP3    H133230   2.985   2.853  11.777  1.2851 -0.7545 -1.6918
 3913TIP3    H233231   3.135   2.836  11.782  1.1375 -1.7187  0.8308
 3914TIP3   OH233232   3.781   2.222   5.369  0.0726  0.2342  0.0364
 3914TIP3    H133233   3.818   2.243   5.284  2.1649 -2.4688  0.1344
 3914TIP3    H233234   3.689   2.201   5.351  0.2658  0.5490 -1.4000
 3915TIP3   OH233235   5.740   5.631  15.544 -0.4441  0.3241  0.0907
 3915TIP3    H133236   5.713   5.668  15.628  0.1610  0.1382  0.3663
 3915TIP3    H233237   5.831   5.605  15.557 -0.0385  1.1694 -0.9131
 3916TIP3   OH233238   0.098   4.719  16.640  0.0374  0.6872  0.4757
 3916TIP3    H133239   0.081   4.768  16.560 -0.1313  0.6178  0.4688
 3916TIP3    H233240   0.194   4.717  16.647  0.1449 -1.1699 -0.9062
 3917TIP3   OH233241   6.025   4.161  14.979 -0.0564 -0.0958  0.0027
 3917TIP3    H133242   6.065   4.192  14.898  0.0466 -0.7631 -0.2124
 3917TIP3    H233243   6.029   4.236  15.039 -0.5234  0.5361 -0.7421
 3918TIP3   OH233244   5.433   4.683  12.390 -0.1000 -0.3780 -0.2437
 3918TIP3    H133245   5.374   4.642  12.452 -0.3443 -0.3452 -0.4536
 3918TIP3    H233246   5.382   4.692  12.310 -0.1589  0.6257 -0.1067
 3919TIP3   OH233247   0.139   0.075  13.735 -0.5634 -0.2630  0.2519
 3919TIP3    H133248   0.222   0.116  13.711 -0.9693  0.2785 -0.2486
 3919TIP3    H233249   0.161  -0.017  13.749  0.0398 -0.2058 -0.2826
 3920TIP3   OH233250   0.144   2.559   4.805  0.3687  0.0635 -0.5787
 3920TIP3    H133251   0.126   2.606   4.723  2.1725  0.2645 -0.9097
 3920TIP3    H233252   0.237   2.535   4.799  0.4777 -0.1485  1.3050
 3921TIP3   OH233253   4.670   3.491   5.693 -0.1676 -0.4422  0.2860
 3921TIP3    H133254   4.756   3.473   5.730 -0.3072 -0.1685  0.7441
 3921TIP3    H233255   4.633   3.405   5.674  0.3222 -0.5533 -0.1785
 3922TIP3   OH233256   6.120   1.941  16.692  0.5951 -0.2107 -0.1590
 3922TIP3    H133257   6.043   1.954  16.637  0.3059  0.3807  0.3673
 3922TIP3    H233258   6.160   2.028  16.697 -0.4925  0.2225  2.1650
 3923TIP3   OH233259   1.139   5.125   1.772  0.4334  0.1116  0.2584
 3923TIP3    H133260   1.066   5.175   1.811 -0.2021 -1.0833  0.6620
 3923TIP3    H233261   1.207   5.190   1.757 -1.7495  1.9527 -3.0351
 3924TIP3   OH233262   5.362   0.994   1.459  0.8404  0.7761 -0.7266
 3924TIP3    H133263   5.420   1.070   1.453  0.2832  1.1488 -1.5703
 3924TIP3    H233264   5.279   1.029   1.490 -0.0625  0.9133 -3.0896
 3925TIP3   OH233265   0.816   0.575  15.500  0.4313 -0.3077 -0.4883
 3925TIP3    H133266   0.854   0.654  15.540 -0.7816 -0.3380  0.8184
 3925TIP3    H233267   0.745   0.551  15.559  0.3536 -2.0095 -1.2335
 3926TIP3   OH233268   1.981   4.657  16.002  0.5270  0.6626 -0.4437
 3926TIP3    H133269   1.907   4.603  16.032 -2.0118  2.8919 -2.1462
 3926TIP3    H233270   1.973   4.656  15.907  3.0200  0.6713 -0.7055
 3927TIP3   OH233271   1.424   4.314  12.146  0.2468 -0.0232  0.0253
 3927TIP3    H133272   1.478   4.369  12.203 -0.4398  0.8373 -0.1245
 3927TIP3    H233273   1.487   4.264  12.094  0.8873  0.3159  0.4587
 3928TIP3   OH233274   2.188   6.478   3.236 -0.3884  0.3049 -0.4814
 3928TIP3    H133275   2.276   6.458   3.204 -0.4520  0.0014 -0.4684
 3928TIP3    H233276   2.202   6.539   3.308 -0.3014  1.8066 -1.7362
 3929TIP3   OH233277   1.932   6.239  15.892 -0.5911  0.1497 -0.3407
 3929TIP3    H133278   2.006   6.181  15.913 -0.2797  1.5328  2.9328
 3929TIP3    H233279   1.968   6.327  15.898 -2.1273  0.8121 -0.5456
 3930TIP3   OH233280   2.309   0.013   5.292 -0.2913 -0.1078  0.0942
 3930TIP3    H133281   2.256  -0.004   5.214 -0.8640  0.0591  0.4498
 3930TIP3    H233282   2.364  -0.065   5.300 -1.1254 -0.6938  0.2532
 3931TIP3   OH233283   5.464   6.323  14.174  0.0529 -0.2756 -0.0544
 3931TIP3    H133284   5.428   6.339  14.087 -0.4452  1.4883  0.4446
 3931TIP3    H233285   5.516   6.401  14.193 -1.6287  0.3916  2.1141
 3932TIP3   OH233286   2.054   5.336   0.541 -0.1471  0.0845 -0.6275
 3932TIP3    H133287   2.112   5.369   0.472 -1.0057  1.0350 -0.9176
 3932TIP3    H233288   2.105   5.346   0.621  0.5294 -0.1959 -1.0118
 3933TIP3   OH233289   6.493   5.827   0.145  0.0728  0.2885 -0.0153
 3933TIP3    H133290   6.454   5.742   0.166  0.2151  0.3427  0.4933
 3933TIP3    H233291   6.422   5.878   0.106 -0.3586  0.3698  0.8463
 3934TIP3   OH233292   0.017   5.133  12.241 -0.3397 -0.1685 -0.3387
 3934TIP3    H133293  -0.017   5.206  12.189 -0.2183  0.9692  1.1069
 3934TIP3    H233294   0.111   5.131  12.222  0.3113  2.2735  2.0689
 3935TIP3   OH233295   0.961   1.402   1.673 -0.3413 -0.0942  0.3306
 3935TIP3    H133296   0.942   1.336   1.607  0.3037 -0.9375  0.9632
 3935TIP3    H233297   1.025   1.460   1.631  1.0058 -1.3228  0.5726
 3936TIP3   OH233298   1.853   4.619   3.331 -0.3659  0.3187  0.3860
 3936TIP3    H133299   1.789   4.657   3.392 -0.3402  0.0508  0.5824
 3936TIP3    H233300   1.907   4.693   3.304  0.0353  0.3298  1.2005
 3937TIP3   OH233301   5.057   0.665   4.988  0.6986  0.4610 -0.4312
 3937TIP3    H133302   5.012   0.608   5.051 -0.1364  1.7324  0.1825
 3937TIP3    H233303   5.054   0.618   4.905  2.7234 -1.7332  0.6329
 3938TIP3   OH233304   5.298   2.914   5.311  0.6865  0.1888 -0.6216
 3938TIP3    H133305   5.353   2.868   5.373  1.9519  1.0253 -1.0851
 3938TIP3    H233306   5.318   3.007   5.325 -0.8349  0.5538 -0.5943
 3939TIP3   OH233307   5.402   0.998  10.104 -0.6209 -0.2286  0.4940
 3939TIP3    H133308   5.351   0.918  10.094 -1.4807  0.2723  0.7893
 3939TIP3    H233309   5.354   1.064  10.053  0.1249  0.0818  0.1780
 3940TIP3   OH233310   0.573   0.796   4.942 -0.6368 -0.0952 -0.6353
 3940TIP3    H133311   0.539   0.837   5.021  2.1468 -0.6276  0.9444
 3940TIP3    H233312   0.562   0.702   4.956  0.8997 -0.2533 -0.3148
 3941TIP3   OH233313   1.836   0.038   0.341 -0.4216  0.1625  0.6035
 3941TIP3    H133314   1.814   0.131   0.356  0.3343  0.3435  0.6223
 3941TIP3    H233315   1.929   0.032   0.363  0.4393  0.1082 -2.5587
 3942TIP3   OH233316   3.023   4.706   4.726 -0.1325  0.2496 -0.3176
 3942TIP3    H133317   3.076   4.684   4.649  0.8994  1.5842 -0.0148
 3942TIP3    H233318   2.963   4.773   4.694 -0.2600  0.2121 -0.1560
 3943TIP3   OH233319   3.456   5.041   3.431 -0.8110 -0.0768 -0.2846
 3943TIP3    H133320   3.417   4.971   3.485  0.5488 -1.5794 -1.1443
 3943TIP3    H233321   3.544   5.052   3.468 -0.1978 -0.4712 -1.5793
 3944TIP3   OH233322   1.605   3.760  11.750 -0.3772  0.0867  0.1393
 3944TIP3    H133323   1.588   3.666  11.758 -1.8897  0.3494  0.4420
 3944TIP3    H233324   1.612   3.775  11.656 -0.2377 -0.3062  0.0822
 3945TIP3   OH233325   2.607   1.408  12.204 -0.5379 -0.1751  0.2802
 3945TIP3    H133326   2.593   1.345  12.134  0.1231 -0.1667  0.1317
 3945TIP3    H233327   2.568   1.367  12.281  1.1892 -1.4703  0.5267
 3946TIP3   OH233328   6.670   0.862   4.740  0.3619  0.5662 -0.1036
 3946TIP3    H133329   6.679   0.913   4.660  1.7798  2.1432  1.0135
 3946TIP3    H233330   6.701   0.919   4.810  0.3859 -1.2162  1.4390
 3947TIP3   OH233331   5.937   5.440   6.086  0.0069  0.6078  0.6316
 3947TIP3    H133332   5.998   5.386   6.035 -0.3717  0.8291 -0.0696
 3947TIP3    H233333   5.993   5.501   6.134  0.3303  1.4719 -0.7639
 3948TIP3   OH233334   3.169   1.298   1.860 -0.4204  0.4244  0.2070
 3948TIP3    H133335   3.170   1.237   1.934  1.5043  2.9103  2.4180
 3948TIP3    H233336   3.242   1.270   1.805 -2.0640 -1.6424 -1.1430
 3949TIP3   OH233337   0.910   2.760   6.184  0.1004  0.6481 -0.2524
 3949TIP3    H133338   0.986   2.815   6.164  0.7440  0.4502  1.5166
 3949TIP3    H233339   0.868   2.803   6.258  1.9251 -2.3462  2.7628
 3950TIP3   OH233340   3.288   1.854  16.933 -0.1252  0.6587  0.4674
 3950TIP3    H133341   3.215   1.800  16.903 -0.5576  1.6306 -0.3089
 3950TIP3    H233342   3.261   1.885  17.020  0.4628 -0.9426  1.2601
 3951TIP3   OH233343   6.426   6.759  13.400 -0.3465 -0.0467  0.1867
 3951TIP3    H133344   6.421   6.667  13.425 -0.0923 -0.1761 -0.2358
 3951TIP3    H233345   6.519   6.776  13.388 -0.3170  0.4974  1.1025
 3952TIP3   OH233346   3.117   1.262   2.210 -0.1069 -0.4736  0.3558
 3952TIP3    H133347   3.151   1.258   2.299 -0.1096 -2.5395  0.3109
 3952TIP3    H233348   3.064   1.342   2.208  1.9095  0.9633  1.4210
 3953TIP3   OH233349   0.070   4.066   3.287 -0.3991 -0.2946 -0.1440
 3953TIP3    H133350   0.069   4.148   3.337 -0.6979 -0.5111  0.2150
 3953TIP3    H233351   0.162   4.039   3.286 -0.5128 -0.7855  1.1329
 3954TIP3   OH233352   4.514   5.181   4.783  0.5859 -0.0458  0.1122
 3954TIP3    H133353   4.461   5.127   4.842  1.8833  0.4839  1.8553
 3954TIP3    H233354   4.561   5.118   4.728  0.0760 -0.5906  0.2941
 3955TIP3   OH233355   0.820   3.467  11.253  0.7863 -0.3979 -0.1738
 3955TIP3    H133356   0.788   3.453  11.163  1.8521  2.1827 -1.0647
 3955TIP3    H233357   0.795   3.388  11.300 -2.3697 -0.6652 -2.0250
 3956TIP3   OH233358   4.431   4.485  15.806 -0.5089  0.2959 -0.0465
 3956TIP3    H133359   4.456   4.459  15.717  0.6099  2.2429 -0.3736
 3956TIP3    H233360   4.435   4.581  15.804 -2.6229  0.4795  1.5099
 3957TIP3   OH233361   3.381   1.885   1.858 -0.1743  0.0248  0.2900
 3957TIP3    H133362   3.400   1.868   1.766 -1.7930  1.0169 -0.2600
 3957TIP3    H233363   3.299   1.840   1.874  0.3221 -0.5263  1.4013
 3958TIP3   OH233364   1.476   0.638   4.610 -0.2469 -0.1183  0.1029
 3958TIP3    H133365   1.474   0.687   4.527  0.9278  2.1903  1.3427
 3958TIP3    H233366   1.534   0.564   4.592  0.1859  0.4780 -1.0683
 3959TIP3   OH233367   1.352   5.528   3.247 -0.4261  0.3988 -0.4475
 3959TIP3    H133368   1.379   5.530   3.338  0.8188  2.4876 -0.7905
 3959TIP3    H233369   1.307   5.611   3.233  0.3749  0.6282 -1.9789
 3960TIP3   OH233370   4.244   3.101  13.906  1.0045  0.2197 -0.8203
 3960TIP3    H133371   4.337   3.124  13.911  0.7463  1.4278 -1.3095
 3960TIP3    H233372   4.198   3.185  13.910  0.0008 -0.2281 -2.2495
 3961TIP3   OH233373   1.254   1.746  11.207 -0.1268 -0.0268 -0.5873
 3961TIP3    H133374   1.183   1.788  11.158  0.7025  2.6717  0.3195
 3961TIP3    H233375   1.334   1.782  11.168  0.6811 -1.1269 -0.0039
 3962TIP3   OH233376   1.050   1.276  14.303 -0.1688  0.3369 -0.7537
 3962TIP3    H133377   0.966   1.259  14.262  0.0908 -2.1961 -0.3813
 3962TIP3    H233378   1.110   1.213  14.263  1.2882  1.2784 -0.1562
 3963TIP3   OH233379   6.267   1.447  11.321 -0.4599  0.3367 -0.3642
 3963TIP3    H133380   6.212   1.516  11.357 -0.0384  0.8776 -0.7418
 3963TIP3    H233381   6.351   1.456  11.366 -0.2601  0.3653 -0.7330
 3964TIP3   OH233382   1.021   3.966  14.753 -0.1069  0.3221 -0.5828
 3964TIP3    H133383   0.991   4.020  14.680 -0.1765  1.0990  0.0193
 3964TIP3    H233384   0.951   3.902  14.766 -0.5191  0.7775 -0.5749
 3965TIP3   OH233385   0.394   1.686   3.501 -0.1257  0.5247 -0.3947
 3965TIP3    H133386   0.484   1.696   3.533 -0.1060 -1.1716  0.2186
 3965TIP3    H233387   0.388   1.745   3.426  2.2932 -1.0231 -1.9638
 3966TIP3   OH233388   5.580   4.347   0.988 -0.1124 -0.1934  0.3326
 3966TIP3    H133389   5.624   4.337   1.073  1.2410 -0.9288 -0.4065
 3966TIP3    H233390   5.487   4.355   1.009  0.3781  2.2420  2.0422
 3967TIP3   OH233391   0.542   0.199  13.372 -0.1879  0.5998 -0.1099
 3967TIP3    H133392   0.603   0.128  13.389 -0.9580 -0.0258  0.1067
 3967TIP3    H233393   0.569   0.235  13.287  0.3162  0.1716 -0.1333
 3968TIP3   OH233394   1.574   0.105   2.530 -0.4712 -0.0131  0.3318
 3968TIP3    H133395   1.567   0.029   2.587 -0.4560 -0.3274 -0.0748
 3968TIP3    H233396   1.662   0.098   2.492  0.2510  1.2025  1.6648
 3969TIP3   OH233397   0.143   6.199   0.604  0.0374  0.2534 -1.0199
 3969TIP3    H133398   0.122   6.292   0.608 -0.3465  0.1396  0.1740
 3969TIP3    H233399   0.184   6.180   0.688 -1.5064 -1.0028 -0.4994
 3970TIP3   OH233400   2.229   2.371   5.549 -0.3667  0.1233  0.1083
 3970TIP3    H133401   2.223   2.451   5.496  0.3833  0.5001  0.5685
 3970TIP3    H233402   2.149   2.322   5.529 -2.7317  2.6138  2.4540
 3971TIP3   OH233403   0.167   0.248   4.523 -0.1687  0.4430 -0.3037
 3971TIP3    H133404   0.090   0.200   4.554  0.3292  0.4272  1.0005
 3971TIP3    H233405   0.166   0.330   4.572 -0.5220  1.4098 -1.8656
 3972TIP3   OH233406   1.645   6.592   4.092  0.5090  0.2685  0.3404
 3972TIP3    H133407   1.572   6.609   4.033 -0.1158 -0.2983  0.9276
 3972TIP3    H233408   1.656   6.497   4.090 -0.0334  0.1464  1.6947
 3973TIP3   OH233409   0.873   4.334  14.012 -0.0210  0.6039  0.2275
 3973TIP3    H133410   0.899   4.299  14.097  0.8888  1.5111  0.3417
 3973TIP3    H233411   0.944   4.393  13.987 -0.0951  0.0914 -1.3386
 3974TIP3   OH233412   6.010   4.772  12.753 -0.1921 -0.1194  0.1408
 3974TIP3    H133413   6.064   4.846  12.725 -1.0519  0.7767  0.8088
 3974TIP3    H233414   6.055   4.695  12.717  0.2459  0.7729 -1.3265
 3975TIP3   OH233415   0.682   5.931  12.505  0.5293  0.4512  0.5450
 3975TIP3    H133416   0.758   5.972  12.463 -0.3927 -0.3438 -2.0677
 3975TIP3    H233417   0.608   5.986  12.480 -0.2387 -0.8114 -0.0647
 3976TIP3   OH233418   3.046   6.217   3.083  0.2856  0.0530 -0.2129
 3976TIP3    H133419   3.028   6.285   3.018 -0.2270 -0.8403 -1.0389
 3976TIP3    H233420   3.009   6.250   3.164 -1.1570  0.1897 -0.9022
 3977TIP3   OH233421   1.281   4.890  14.527 -0.1626  0.2478  0.1094
 3977TIP3    H133422   1.288   4.983  14.506  1.1836  0.6311  1.9419
 3977TIP3    H233423   1.203   4.883  14.582  0.8607  0.6970  1.6737
 3978TIP3   OH233424   4.809   3.529  15.537 -0.0508  0.4028  0.1553
 3978TIP3    H133425   4.894   3.492  15.558  0.0551  0.8972  0.6288
 3978TIP3    H233426   4.828   3.620  15.515 -0.3939  0.3752 -0.2641
 3979TIP3   OH233427   3.272   4.473   2.487  0.0731 -0.3685 -0.3356
 3979TIP3    H133428   3.188   4.481   2.441 -0.3593 -0.1295  0.4863
 3979TIP3    H233429   3.249   4.468   2.579  1.0189  0.6707 -0.0235
 3980TIP3   OH233430   2.067   1.143   1.324  0.4570 -0.1217  0.4411
 3980TIP3    H133431   2.050   1.102   1.409  0.1600  1.5535  1.2388
 3980TIP3    H233432   1.981   1.151   1.284  0.3585  0.7478  0.8040
 3981TIP3   OH233433   0.762   3.827  16.274 -1.0756 -0.3207 -0.1493
 3981TIP3    H133434   0.811   3.758  16.228  0.4743  1.2492 -0.9707
 3981TIP3    H233435   0.790   3.819  16.365  2.1540  1.5523 -0.8303
 3982TIP3   OH233436   5.851   2.555  13.253  0.5667 -0.2048 -0.0595
 3982TIP3    H133437   5.793   2.480  13.243 -0.7624  0.7900 -0.2064
 3982TIP3    H233438   5.851   2.573  13.348  0.4277 -0.0658 -0.0845
 3983TIP3   OH233439   4.260   0.660   3.590 -0.1195  0.0449 -0.1107
 3983TIP3    H133440   4.184   0.718   3.594 -0.0119  0.3158 -1.5254
 3983TIP3    H233441   4.224   0.577   3.558 -0.0925 -0.3558  0.8739
 3984TIP3   OH233442   1.998   2.645   4.653  0.4645  0.1506  0.3292
 3984TIP3    H133443   1.936   2.663   4.582 -0.2407  0.3786  0.9900
 3984TIP3    H233444   2.037   2.561   4.630 -1.1314 -0.7068  0.6019
 3985TIP3   OH233445   0.604   1.376  13.275 -0.3461 -0.2360 -0.2262
 3985TIP3    H133446   0.612   1.395  13.182  0.9504 -1.0278 -0.3113
 3985TIP3    H233447   0.688   1.336  13.298 -0.4140  0.4932  1.4164
 3986TIP3   OH233448   3.477   4.912   0.577  0.0246  0.2207 -0.0531
 3986TIP3    H133449   3.436   4.828   0.561  1.2822 -0.1597 -1.6057
 3986TIP3    H233450   3.505   4.942   0.490 -2.2898  3.3011  0.1002
 3987TIP3   OH233451   6.221   1.915  14.659  0.9953  0.2615 -0.5807
 3987TIP3    H133452   6.294   1.960  14.701 -0.1845  1.0553  0.7146
 3987TIP3    H233453   6.201   1.842  14.716 -1.0123  1.7009  0.6823
 3988TIP3   OH233454   0.011   0.579  14.182 -0.2872 -0.3429  0.0584
 3988TIP3    H133455  -0.036   0.495  14.187  0.8603 -1.1098 -1.3319
 3988TIP3    H233456  -0.029   0.624  14.107  1.4487 -1.2313 -1.4832
 3989TIP3   OH233457   1.366   6.363   1.841 -0.4098  0.7514  0.1018
 3989TIP3    H133458   1.415   6.318   1.772 -0.8222  0.8925 -0.2893
 3989TIP3    H233459   1.432   6.416   1.887  0.4780 -1.5984  1.7686
 3990TIP3   OH233460   2.427   3.862   1.975 -0.4867 -0.3014 -0.5193
 3990TIP3    H133461   2.454   3.949   2.005  2.7194 -1.6268  0.9232
 3990TIP3    H233462   2.347   3.877   1.925 -1.6292  3.1173  1.9864
 3991TIP3   OH233463   5.619   0.175   5.658 -0.5169 -0.6512 -0.3025
 3991TIP3    H133464   5.572   0.186   5.575 -0.0450  1.9579 -0.3138
 3991TIP3    H233465   5.706   0.210   5.641 -0.1367 -0.8730  1.0585
 3992TIP3   OH233466   1.259   1.233  15.406  0.3952 -0.1359 -0.3605
 3992TIP3    H133467   1.261   1.264  15.316  0.8554 -0.1051 -0.3392
 3992TIP3    H233468   1.218   1.146  15.400 -1.5993  0.7497 -0.3259
 3993TIP3   OH233469   5.152   0.542  15.172  0.0145 -0.0969  0.3809
 3993TIP3    H133470   5.136   0.533  15.266  1.5031 -1.9040  0.5110
 3993TIP3    H233471   5.202   0.623  15.164  2.1446 -1.2026  1.5177
 3994TIP3   OH233472   1.742   6.103   3.742 -0.6159 -0.4669  0.0780
 3994TIP3    H133473   1.801   6.088   3.816  0.9480  2.0796 -0.5046
 3994TIP3    H233474   1.775   6.045   3.673  1.9446  1.5371 -0.5300
 3995TIP3   OH233475   2.044   4.499  13.919  0.5962  0.3134 -0.2145
 3995TIP3    H133476   2.005   4.523  13.835  1.8234 -0.3813 -1.0328
 3995TIP3    H233477   1.970   4.476  13.975 -0.2198  0.1883 -1.3111
 3996TIP3   OH233478   1.512   6.698   2.214 -0.4510 -0.2344  0.2045
 3996TIP3    H133479   1.505   6.696   2.309  0.5183  0.5087  0.3106
 3996TIP3    H233480   1.592   6.749   2.197 -1.1167  0.4541 -1.0126
 3997TIP3   OH233481   1.793   5.828   3.543 -0.5411 -0.1244  0.4743
 3997TIP3    H133482   1.721   5.794   3.490  0.7499 -1.4153 -0.5800
 3997TIP3    H233483   1.826   5.904   3.494 -0.8260  0.1097  0.6487
 3998TIP3   OH233484   5.898   1.770  12.512  0.2118 -0.8029 -0.0963
 3998TIP3    H133485   5.904   1.697  12.450 -3.7684 -0.0061 -1.7301
 3998TIP3    H233486   5.925   1.846  12.461 -1.2214 -0.4052 -0.2862
 3999TIP3   OH233487   1.216   6.319  16.805  0.5102  0.2226 -0.1613
 3999TIP3    H133488   1.224   6.364  16.889 -0.4085  3.0670 -1.4659
 3999TIP3    H233489   1.256   6.379  16.742 -0.8954 -0.7134 -2.0392
 4000TIP3   OH233490   0.050   1.244  12.110  0.8655 -0.2294 -0.1911
 4000TIP3    H133491   0.124   1.280  12.061  0.8533 -0.7210 -0.5773
 4000TIP3    H233492   0.088   1.180  12.170  0.8168 -0.0434  0.0407
 4001TIP3   OH233493   3.141   5.441  16.202  0.0403 -0.0933 -0.4887
 4001TIP3    H133494   3.174   5.359  16.238 -1.1002  0.6746  2.7176
 4001TIP3    H233495   3.181   5.509  16.257  0.1444  1.4627 -2.3638
 4002TIP3   OH233496   3.267   3.099   4.066 -0.5929 -0.7382 -0.2855
 4002TIP3    H133497   3.276   3.055   4.151 -2.6257  0.0528  0.4196
 4002TIP3    H233498   3.299   3.188   4.082 -1.7498 -0.3432 -0.0826
 4003TIP3   OH233499   3.151   2.682  15.450 -0.7990  0.1389  0.4109
 4003TIP3    H133500   3.059   2.707  15.439 -0.2901  1.7266 -0.4744
 4003TIP3    H233501   3.173   2.714  15.538 -1.1432 -0.4315  0.7085
 4004TIP3   OH233502   1.744   5.995  16.400 -0.4957 -0.9198 -0.1470
 4004TIP3    H133503   1.742   5.899  16.398 -0.3212 -0.9100 -1.2475
 4004TIP3    H233504   1.780   6.020  16.315 -1.3820  0.1551 -0.2266
 4005TIP3   OH233505   5.752   0.736  15.255 -0.9093 -0.1244 -0.1339
 4005TIP3    H133506   5.748   0.756  15.348  0.2438  1.2058 -0.3443
 4005TIP3    H233507   5.710   0.650  15.247 -0.4593 -0.5471  1.6892
 4006TIP3   OH233508   3.289   6.008  14.464 -0.3479 -0.4255 -0.2281
 4006TIP3    H133509   3.353   5.937  14.454  1.8276  1.6286 -1.9225
 4006TIP3    H233510   3.250   6.016  14.377 -0.5671  0.4298 -0.0541
 4007TIP3   OH233511   4.446   6.273   2.570  0.1837  0.4558 -0.0738
 4007TIP3    H133512   4.484   6.361   2.561 -1.0451  1.1828  1.3998
 4007TIP3    H233513   4.457   6.252   2.663 -0.4924 -0.4953 -0.1981
 4008TIP3   OH233514   4.352   3.269  11.168 -0.5166 -0.2389 -0.2516
 4008TIP3    H133515   4.436   3.260  11.213 -1.7892 -2.8324  1.9013
 4008TIP3    H233516   4.362   3.217  11.088 -0.1299 -0.8049  0.1534
 4009TIP3   OH233517   0.719   2.523   0.545  0.0829  0.2732  0.1727
 4009TIP3    H133518   0.692   2.507   0.636 -0.3542  1.7800  0.3324
 4009TIP3    H233519   0.661   2.467   0.493  0.9403 -1.2942  0.8447
 4010TIP3   OH233520   5.818   5.275  12.454 -0.4375  0.1424 -0.2999
 4010TIP3    H133521   5.901   5.295  12.409  0.2331  0.2191  0.9248
 4010TIP3    H233522   5.812   5.340  12.524 -2.0291  0.7304 -0.9398
 4011TIP3   OH233523   4.934   0.844  11.940 -0.4161  0.5809 -0.1127
 4011TIP3    H133524   4.898   0.932  11.932 -1.4317  0.3082  1.1182
 4011TIP3    H233525   4.863   0.787  11.912 -0.1928  0.1016  0.2890
 4012TIP3   OH233526   5.983   0.882  15.258  0.0887 -0.0757  0.6012
 4012TIP3    H133527   5.907   0.824  15.248  0.3880 -0.3115 -0.3466
 4012TIP3    H233528   5.945   0.969  15.267 -0.3039 -0.2267  0.4258
 4013TIP3   OH233529   5.406   6.579   0.389 -0.2161 -0.4185  0.7185
 4013TIP3    H133530   5.438   6.599   0.476 -0.9356  0.2356  0.8438
 4013TIP3    H233531   5.333   6.639   0.375 -0.9655 -1.4086  0.1895
 4014TIP3   OH233532   2.308   5.215  13.044  0.5355  0.2917  0.4153
 4014TIP3    H133533   2.335   5.135  13.000  0.5621  0.5987 -0.1360
 4014TIP3    H233534   2.293   5.278  12.973  0.5532  0.7872  0.8411
 4015TIP3   OH233535   1.244   0.286  11.310 -0.0797 -0.0496 -0.7688
 4015TIP3    H133536   1.260   0.287  11.216  0.7432  1.9692 -0.6476
 4015TIP3    H233537   1.179   0.355  11.324  0.6258  0.4385  0.2440
 4016TIP3   OH233538   6.824   5.244  13.298 -0.6368  0.0491 -0.7249
 4016TIP3    H133539   6.817   5.334  13.329 -2.9438  0.4831 -2.2179
 4016TIP3    H233540   6.775   5.193  13.363  2.0068 -0.4671  0.9952
 4017TIP3   OH233541   1.183   2.837  15.759 -0.2270  0.0573 -0.3085
 4017TIP3    H133542   1.171   2.929  15.779  0.5804  0.1427 -0.1850
 4017TIP3    H233543   1.101   2.795  15.787  0.0578  0.4777  1.2723
 4018TIP3   OH233544   0.809   1.350  12.526 -0.5525 -0.6850  0.1533
 4018TIP3    H133545   0.885   1.363  12.583 -0.4526  0.8854 -0.2823
 4018TIP3    H233546   0.826   1.268  12.481  0.9559 -0.2961 -0.0196
 4019TIP3   OH233547   0.301   5.594  11.521  0.2532 -0.6898  0.6611
 4019TIP3    H133548   0.329   5.571  11.433  1.2262  1.3955  0.3736
 4019TIP3    H233549   0.210   5.562  11.526 -0.3619  0.4688 -1.6546
 4020TIP3   OH233550   0.857   5.345   3.045 -0.2514  0.2135 -1.3406
 4020TIP3    H133551   0.942   5.359   3.087 -0.6165 -0.0764 -0.4768
 4020TIP3    H233552   0.801   5.412   3.082 -0.4870  0.1902 -1.6523
 4021TIP3   OH233553   1.108   3.116  15.766 -0.1674  0.1762  0.3349
 4021TIP3    H133554   1.178   3.173  15.798 -0.7298  0.7907  0.4810
 4021TIP3    H233555   1.037   3.127  15.829 -0.7708  0.3297 -0.3632
 4022TIP3   OH233556   1.286   2.879  16.125  0.0617  0.0676 -0.4419
 4022TIP3    H133557   1.252   2.944  16.186 -0.6045  0.2508 -0.9932
 4022TIP3    H233558   1.315   2.930  16.049 -1.3587 -0.3215 -1.2888
 4023TIP3   OH233559   4.448   4.583  14.850  0.0405 -0.3637  0.1129
 4023TIP3    H133560   4.440   4.514  14.784  0.2188  0.3390 -0.6607
 4023TIP3    H233561   4.358   4.601  14.878 -0.3796  1.2558 -1.9935
 4024TIP3   OH233562   6.407   0.758   4.773 -0.0681 -0.2134 -0.1422
 4024TIP3    H133563   6.406   0.686   4.836 -0.3440  1.1298  1.4340
 4024TIP3    H233564   6.499   0.783   4.766 -0.0794 -0.1387 -0.0200
 4025TIP3   OH233565   6.628   2.100   2.061  0.0542  0.5240  0.0404
 4025TIP3    H133566   6.670   2.174   2.018 -2.6910  2.4936  0.4677
 4025TIP3    H233567   6.578   2.057   1.991 -0.5868  0.8159  0.3090
 4026TIP3   OH233568   6.740   5.411   1.492 -0.3887 -0.6762  0.2126
 4026TIP3    H133569   6.798   5.446   1.559  0.6424 -1.3113 -0.3174
 4026TIP3    H233570   6.662   5.467   1.496  1.2773  1.9391 -0.8104
 4027TIP3   OH233571   0.773   4.680   3.617 -0.0361  0.1586 -0.3691
 4027TIP3    H133572   0.682   4.696   3.643  0.6357 -1.1115  3.4190
 4027TIP3    H233573   0.773   4.592   3.580 -0.2727 -0.1556  0.3563
 4028TIP3   OH233574   4.860   1.191   0.970  0.1698  0.1039 -0.0073
 4028TIP3    H133575   4.908   1.148   1.041 -0.6438 -1.3955 -0.3061
 4028TIP3    H233576   4.787   1.236   1.013  0.0108 -0.3214  0.1759
 4029TIP3   OH233577   4.769   5.002   5.420 -0.0403  0.3857 -0.0425
 4029TIP3    H133578   4.757   5.097   5.422  1.3416  0.6109 -1.0810
 4029TIP3    H233579   4.741   4.973   5.507  1.5497  2.0183  1.1040
 4030TIP3   OH233580   2.869   2.777  15.379 -0.6213 -0.1324 -0.0954
 4030TIP3    H133581   2.839   2.776  15.288  0.7310 -1.2213 -0.5689
 4030TIP3    H233582   2.877   2.870  15.401 -0.9645  0.1436 -1.0922
 4031TIP3   OH233583   0.870   5.304  17.096  0.0747 -0.0893  0.5615
 4031TIP3    H133584   0.873   5.399  17.083  1.8403 -0.1144  0.5541
 4031TIP3    H233585   0.950   5.272  17.056 -1.3680 -1.8362 -1.0968
 4032TIP3   OH233586   1.151   3.260   1.377  0.6046  0.4484  0.5862
 4032TIP3    H133587   1.239   3.258   1.416  1.0587  1.8304 -0.2786
 4032TIP3    H233588   1.110   3.338   1.415  0.7737  1.3822 -1.0518
 4033TIP3   OH233589   6.110   5.175   1.646 -0.2866 -0.2537 -0.3412
 4033TIP3    H133590   6.035   5.117   1.635  0.1653 -0.7301 -0.9579
 4033TIP3    H233591   6.112   5.193   1.740 -1.1387 -0.2699 -0.3085
 4034TIP3   OH233592   0.611   2.572   1.616  0.2128  0.9236 -0.3842
 4034TIP3    H133593   0.561   2.509   1.668  0.1133  2.5663  1.6319
 4034TIP3    H233594   0.701   2.561   1.644  0.2393  1.4370 -0.2505
 4035TIP3   OH233595   5.676   2.959  11.714  0.0702  0.0008  0.0538
 4035TIP3    H133596   5.614   3.018  11.671  0.8341  0.5177 -0.3630
 4035TIP3    H233597   5.623   2.883  11.739 -0.3895 -0.3741 -1.8809
 4036TIP3   OH233598   5.225   0.238  11.585 -0.5092  0.0152 -0.0472
 4036TIP3    H133599   5.195   0.320  11.545  0.0581  1.1755  1.7787
 4036TIP3    H233600   5.164   0.222  11.656 -0.0923 -0.6624  0.1666
 4037TIP3   OH233601   2.879   3.520  13.922 -0.1161  0.0871 -0.4441
 4037TIP3    H133602   2.818   3.449  13.941 -0.9624  0.9369  0.0914
 4037TIP3    H233603   2.914   3.545  14.008 -1.0551  1.3849 -0.4136
 4038TIP3   OH233604   2.338   1.209   0.224 -0.1654 -0.5173 -0.3007
 4038TIP3    H133605   2.428   1.177   0.237 -0.0147 -1.2347 -2.7145
 4038TIP3    H233606   2.332   1.225   0.130 -2.3393  0.3221 -0.0624
 4039TIP3   OH233607   6.319   2.033  15.132 -0.5326 -0.0892 -0.5992
 4039TIP3    H133608   6.310   2.081  15.050 -0.2928 -1.0361 -1.1913
 4039TIP3    H233609   6.228   2.019  15.161 -0.6112  0.4891 -0.5412
 4040TIP3   OH233610   2.726   3.496   0.423  0.1243 -0.6602  0.0281
 4040TIP3    H133611   2.727   3.584   0.385 -0.7631 -0.4732  0.4318
 4040TIP3    H233612   2.819   3.474   0.434  0.4254 -0.5741 -1.9014
 4041TIP3   OH233613   0.968   6.283  15.047  0.2287 -0.4209 -0.4474
 4041TIP3    H133614   0.987   6.377  15.044 -2.5902  0.2322 -1.8589
 4041TIP3    H233615   0.918   6.271  15.127  1.0632 -0.8635  0.0209
 4042TIP3   OH233616   5.075   2.289  16.463 -0.3234  0.3373 -0.3936
 4042TIP3    H133617   5.038   2.218  16.410  0.0760 -1.1772  1.2532
 4042TIP3    H233618   5.139   2.330  16.406  0.1137 -1.2540 -1.1135
 4043TIP3   OH233619   6.719   1.609   3.408 -0.3897  0.2560 -0.7965
 4043TIP3    H133620   6.716   1.679   3.474  1.0962 -0.9622  0.6579
 4043TIP3    H233621   6.806   1.618   3.369 -0.3395 -0.5163 -0.8744
 4044TIP3   OH233622   0.613   5.627   0.394  0.1275  0.1961 -0.3540
 4044TIP3    H133623   0.695   5.671   0.416 -0.7555  1.5269  0.4430
 4044TIP3    H233624   0.632   5.579   0.314  1.2118  1.8868 -1.1686
 4045TIP3   OH233625   2.938   1.099  15.375  0.3076 -0.5440  0.6791
 4045TIP3    H133626   2.950   1.005  15.362  3.3193 -0.1431 -0.1952
 4045TIP3    H233627   2.951   1.112  15.469 -2.1165 -1.1532  1.1692
 4046TIP3   OH233628   1.031   5.961  16.335 -0.1108  0.1505 -0.1031
 4046TIP3    H133629   1.062   6.051  16.323  1.2043 -0.3366 -0.5434
 4046TIP3    H233630   0.991   5.961  16.422 -0.6496  1.2867 -0.3224
 4047TIP3   OH233631   5.781   3.389   1.015  0.1443 -0.0340  0.2576
 4047TIP3    H133632   5.739   3.360   0.933 -0.2435  0.5994  0.2233
 4047TIP3    H233633   5.784   3.485   1.007  1.5826 -0.0589  0.2793
 4048TIP3   OH233634   0.125   4.158  13.815 -0.6846  0.0949 -0.3844
 4048TIP3    H133635   0.167   4.177  13.899  0.5642 -2.0298 -0.4456
 4048TIP3    H233636   0.042   4.116  13.838 -1.6114  1.8946 -0.2670
 4049TIP3   OH233637   4.222   3.457  16.047  0.1293 -0.3179  0.1015
 4049TIP3    H133638   4.283   3.390  16.017  1.0042  0.0506  0.9968
 4049TIP3    H233639   4.266   3.540  16.027 -0.6853 -0.0038 -0.4642
 4050TIP3   OH233640   5.300   3.161  12.854 -0.2118  0.2884  1.0789
 4050TIP3    H133641   5.297   3.256  12.867 -0.8617  0.3853  0.2528
 4050TIP3    H233642   5.391   3.143  12.829 -0.3920  0.8656 -0.0184
 4051TIP3   OH233643   2.995   3.555   2.579 -0.0746 -0.1956 -0.3397
 4051TIP3    H133644   2.947   3.558   2.496 -0.2693 -0.7675 -0.2494
 4051TIP3    H233645   3.041   3.640   2.583 -1.2425  0.4563 -0.3193
 4052TIP3   OH233646   2.023   1.334   2.414 -0.1341 -0.1058 -0.3691
 4052TIP3    H133647   2.100   1.365   2.462 -0.6379  1.1990 -0.3614
 4052TIP3    H233648   2.046   1.345   2.322  0.0484 -0.6277 -0.3864
 4053TIP3   OH233649   2.114   0.266   6.633 -0.3416  0.1566  0.0905
 4053TIP3    H133650   2.137   0.291   6.723  0.8773  0.9395 -0.4033
 4053TIP3    H233651   2.117   0.348   6.584 -0.1010 -0.3903 -0.8378
 4054TIP3   OH233652   6.669   6.758   5.562  0.1706  0.4313  0.5224
 4054TIP3    H133653   6.710   6.674   5.542 -0.6701 -0.2380  1.5109
 4054TIP3    H233654   6.706   6.819   5.498  1.2700 -0.5463  0.1987
 4055TIP3   OH233655   4.729   5.536   5.027  1.0503 -0.7373 -0.2604
 4055TIP3    H133656   4.670   5.464   5.003  0.1391 -0.4495  1.0360
 4055TIP3    H233657   4.790   5.541   4.953  0.6817 -2.3448 -0.7374
 4056TIP3   OH233658   2.529   2.102   4.068 -0.5049 -0.1710 -0.2920
 4056TIP3    H133659   2.593   2.100   3.997 -0.9658  0.8966 -0.7630
 4056TIP3    H233660   2.582   2.097   4.148  0.2376  1.2101 -0.6537
 4057TIP3   OH233661   2.620   6.566  15.294  0.6309  0.2926 -0.6425
 4057TIP3    H133662   2.565   6.513  15.237 -2.9698  0.1833  2.5238
 4057TIP3    H233663   2.676   6.503  15.339 -0.4288 -0.3432 -0.1757
 4058TIP3   OH233664   6.680   5.190   4.759  0.2045  0.5327 -0.4354
 4058TIP3    H133665   6.624   5.196   4.837  1.1329 -0.1010  0.2999
 4058TIP3    H233666   6.700   5.280   4.737 -1.1032  0.7697 -0.7093
 4059TIP3   OH233667   5.394   1.077  13.445  0.5382 -0.1471  0.7263
 4059TIP3    H133668   5.358   1.130  13.516 -0.8062 -0.8380  0.5747
 4059TIP3    H233669   5.447   1.139  13.394  0.8746  0.5327  1.8534
 4060TIP3   OH233670   6.309   4.228   2.783 -0.6242  0.1499 -0.6367
 4060TIP3    H133671   6.363   4.153   2.807 -2.5159 -1.1257 -0.1405
 4060TIP3    H233672   6.313   4.285   2.860 -1.3418 -0.7874  0.1368
 4061TIP3   OH233673   3.116   6.027  13.200  0.2876 -0.7009  0.1384
 4061TIP3    H133674   3.046   6.014  13.135 -0.3884  2.8386 -0.0570
 4061TIP3    H233675   3.098   5.963  13.268  0.3040 -3.7455 -2.5088
 4062TIP3   OH233676   4.290   5.912   1.847 -0.0258 -0.0007 -0.3294
 4062TIP3    H133677   4.338   5.969   1.906  0.0356 -0.3630 -0.0255
 4062TIP3    H233678   4.356   5.878   1.787 -0.1155  0.4947 -0.7106
 4063TIP3   OH233679   1.127   4.369  16.796  0.0662  0.2545 -0.0539
 4063TIP3    H133680   1.061   4.303  16.815 -0.6849  1.1378  0.4703
 4063TIP3    H233681   1.086   4.428  16.733  1.5652 -1.0631 -2.4532
 4064TIP3   OH233682   4.203   4.465   3.386  0.1678 -0.1805  0.6701
 4064TIP3    H133683   4.136   4.405   3.356  1.1288 -0.3248 -1.3836
 4064TIP3    H233684   4.156   4.547   3.404 -0.6170 -0.3332 -0.5488
 4065TIP3   OH233685   3.623   6.712  11.152 -0.4667  0.3367  0.8180
 4065TIP3    H133686   3.693   6.647  11.151 -0.9033 -0.1943  2.4289
 4065TIP3    H233687   3.669   6.796  11.159  0.0393 -0.0074  1.9049
 4066TIP3   OH233688   0.320   6.759  12.718  0.1392  0.5279  0.0295
 4066TIP3    H133689   0.337   6.771  12.811  1.2874  1.7363 -0.3058
 4066TIP3    H233690   0.285   6.844  12.689  0.7899  0.5113 -0.8424
 4067TIP3   OH233691   6.055   4.323   1.284  0.3111 -0.1799  0.0272
 4067TIP3    H133692   6.112   4.352   1.212  1.3244  2.4834  1.7765
 4067TIP3    H233693   6.111   4.264   1.335  0.6117  0.2983  0.2582
 4068TIP3   OH233694   2.559   4.615   6.589  0.1510  0.0140 -0.2139
 4068TIP3    H133695   2.575   4.591   6.498  0.8398  1.5230 -0.5150
 4068TIP3    H233696   2.568   4.532   6.637  3.5820 -0.2696 -1.0568
 4069TIP3   OH233697   3.335   6.746  10.970  0.1392  0.7936 -0.3767
 4069TIP3    H133698   3.372   6.834  10.984  1.3462  0.0473  1.5228
 4069TIP3    H233699   3.387   6.710  10.899 -0.0134  1.4207 -0.8157
 4070TIP3   OH233700   2.100   4.914  12.792  0.0522  0.1620  0.2161
 4070TIP3    H133701   2.107   4.934  12.885 -0.4649 -1.3478  0.6037
 4070TIP3    H233702   2.190   4.897  12.764  0.1010 -0.3572  0.6798
 4071TIP3   OH233703   5.420   4.023  11.414  0.2966  0.4240  0.2637
 4071TIP3    H133704   5.485   4.051  11.349  1.7600 -1.1391  0.9669
 4071TIP3    H233705   5.418   3.927  11.405  0.5783  0.1642  2.5117
 4072TIP3   OH233706   5.632   3.532   4.087 -0.2571 -0.3979 -0.0447
 4072TIP3    H133707   5.620   3.437   4.096 -3.4900  0.0475  1.6598
 4072TIP3    H233708   5.584   3.554   4.007  0.6568 -0.1769 -0.5468
 4073TIP3   OH233709   0.230   1.732   1.552 -0.0132 -0.0732  0.0921
 4073TIP3    H133710   0.288   1.737   1.475 -2.0334 -2.3169 -1.7457
 4073TIP3    H233711   0.289   1.711   1.624  1.7511 -0.0661 -1.2624
 4074TIP3   OH233712   5.836   6.269  14.885 -0.0036  0.9430 -0.4461
 4074TIP3    H133713   5.768   6.311  14.937  0.2490 -1.3095  1.9482
 4074TIP3    H233714   5.917   6.313  14.910  0.3800 -1.1954  2.6642
 4075TIP3   OH233715   4.222   5.166  13.759  0.3581  0.0588 -0.4149
 4075TIP3    H133716   4.146   5.110  13.745  1.5974 -2.0595  0.5848
 4075TIP3    H233717   4.195   5.253  13.731 -1.5243 -1.1365 -2.6230
 4076TIP3   OH233718   2.549   6.599  13.071 -0.0962 -0.1428  0.0224
 4076TIP3    H133719   2.600   6.587  13.151 -0.1088 -2.5639 -0.2704
 4076TIP3    H233720   2.458   6.602  13.101 -0.0450 -0.0128  0.1676
 4077TIP3   OH233721   1.887   4.729   4.285 -0.3103 -0.7007  0.0533
 4077TIP3    H133722   1.852   4.710   4.198 -0.5366  2.4745 -0.6450
 4077TIP3    H233723   1.980   4.705   4.279 -0.4767 -1.1884 -0.7886
 4078TIP3   OH233724   2.118   2.835   3.380 -0.6057 -0.1179  0.5213
 4078TIP3    H133725   2.167   2.788   3.313 -1.6912  0.1608 -0.5111
 4078TIP3    H233726   2.056   2.889   3.331  0.0549  1.7898  1.7012
 4079TIP3   OH233727   6.663   6.147   0.163  0.1956 -0.2285 -0.0168
 4079TIP3    H133728   6.720   6.171   0.236  0.8645  0.3554 -0.7139
 4079TIP3    H233729   6.577   6.183   0.186  0.2141 -0.6910  0.8134
 4080TIP3   OH233730   3.358   0.597  16.084  0.1251  0.1991 -0.2314
 4080TIP3    H133731   3.413   0.564  16.155  1.7107  2.1794 -0.4568
 4080TIP3    H233732   3.373   0.691  16.084 -2.0951  0.6260 -1.3610
 4081TIP3   OH233733   5.635   4.012  11.236  1.0266  0.2010  0.0887
 4081TIP3    H133734   5.705   4.073  11.258  0.9032  0.5834 -0.5578
 4081TIP3    H233735   5.678   3.947  11.180  0.7078  0.8659 -0.9484
 4082TIP3   OH233736   0.503   4.714  13.907 -0.1689  0.0846 -0.0592
 4082TIP3    H133737   0.582   4.747  13.949 -0.2033 -0.9045  0.8305
 4082TIP3    H233738   0.432   4.741  13.965 -0.2769 -0.7799  0.2201
 4083TIP3   OH233739   0.235   5.132   2.272 -0.0363  0.3928  0.0864
 4083TIP3    H133740   0.276   5.148   2.357  0.5237 -0.0402 -0.0968
 4083TIP3    H233741   0.296   5.170   2.208  0.5905 -1.1203 -0.2558
 4084TIP3   OH233742   3.806   2.814  14.994 -0.1641 -0.2540  0.0339
 4084TIP3    H133743   3.749   2.795  15.068  0.4178 -0.6022  0.3970
 4084TIP3    H233744   3.759   2.780  14.918 -0.2232 -0.9642  0.3845
 4085TIP3   OH233745   6.744   5.981  14.954  0.1891 -0.4883 -0.5149
 4085TIP3    H133746   6.717   5.927  15.028  2.1458 -0.2793  0.4170
 4085TIP3    H233747   6.686   6.057  14.957  0.7592 -0.0615  1.3765
 4086TIP3   OH233748   3.166   3.747  15.771 -0.1280  0.3956 -0.1207
 4086TIP3    H133749   3.160   3.653  15.752 -0.1160 -0.1302  2.1087
 4086TIP3    H233750   3.077   3.771  15.799  0.2247  0.6333  0.8473
 4087TIP3   OH233751   0.384   5.922  16.111 -0.2074 -0.3668 -0.2827
 4087TIP3    H133752   0.417   6.012  16.115  1.3279 -0.9030  2.9146
 4087TIP3    H233753   0.291   5.930  16.133  0.1774  0.4244  1.2404
 4088TIP3   OH233754   0.925   4.487   4.064  0.1545  0.3394 -0.7673
 4088TIP3    H133755   0.838   4.523   4.082 -0.8502 -0.9164 -2.7467
 4088TIP3    H233756   0.953   4.530   3.984  1.7583  1.2817  0.2315
 4089TIP3   OH233757   2.822   6.241  12.887 -0.2881 -0.2886 -0.2972
 4089TIP3    H133758   2.841   6.159  12.932 -0.7962 -1.4930 -2.1835
 4089TIP3    H233759   2.908   6.271  12.856 -0.0955 -0.0448  0.4370
 4090TIP3   OH233760   0.072   4.393   2.976  0.1450 -0.2570 -0.0561
 4090TIP3    H133761  -0.003   4.365   2.924  0.6701 -1.5576 -0.1711
 4090TIP3    H233762   0.039   4.465   3.029 -1.0792 -0.5366 -0.3970
 4091TIP3   OH233763   2.171   2.659  11.357  0.4443  0.0149 -0.0922
 4091TIP3    H133764   2.105   2.631  11.294  0.3635 -1.4117  0.5870
 4091TIP3    H233765   2.254   2.633  11.318  0.6814  1.9425 -1.0163
 4092TIP3   OH233766   1.896   2.538   1.715  0.0265 -0.6514 -0.2522
 4092TIP3    H133767   1.904   2.457   1.664  2.3926 -0.2945 -0.5645
 4092TIP3    H233768   1.947   2.602   1.666  0.0702  0.4342  1.1487
 4093TIP3   OH233769   1.863   4.842  11.747 -0.3437 -0.1537 -0.2092
 4093TIP3    H133770   1.903   4.760  11.775  0.3102 -0.3272 -1.6110
 4093TIP3    H233771   1.920   4.875  11.678 -0.4286  1.6506  0.5304
 4094TIP3   OH233772   5.181   5.247  13.624 -0.0642  0.3789  0.2812
 4094TIP3    H133773   5.167   5.183  13.555  0.5362  1.3816 -0.8108
 4094TIP3    H233774   5.206   5.195  13.700  3.6220 -0.6278 -1.3885
 4095TIP3   OH233775   2.954   4.635  13.433 -0.5469 -0.4826 -0.3130
 4095TIP3    H133776   3.003   4.554  13.451 -1.0336 -0.2452  2.5112
 4095TIP3    H233777   2.862   4.609  13.432 -0.7983  0.1704  1.9056
 4096TIP3   OH233778   5.627   2.246  14.231 -0.4605  0.1738  0.5994
 4096TIP3    H133779   5.695   2.218  14.170 -0.8007  0.4826  0.0733
 4096TIP3    H233780   5.654   2.334  14.257  0.8027 -0.7152  2.5297
 4097TIP3   OH233781   2.398   5.442   2.494 -0.1995 -0.0385 -0.6263
 4097TIP3    H133782   2.394   5.529   2.535 -0.6860  0.3791 -1.5479
 4097TIP3    H233783   2.360   5.383   2.559  1.2510  0.2179  0.5270
 4098TIP3   OH233784   3.596   5.906  11.900  0.2023 -0.7673 -0.2884
 4098TIP3    H133785   3.624   5.939  11.815 -0.0707 -0.0455 -0.1052
 4098TIP3    H233786   3.655   5.947  11.963  0.6322 -1.5743 -0.1493
 4099TIP3   OH233787   5.501   1.817   2.270  0.6707 -0.4487 -0.1508
 4099TIP3    H133788   5.449   1.741   2.295  0.0524  0.1732  0.4997
 4099TIP3    H233789   5.568   1.823   2.338 -0.7057  0.9464  1.1490
 4100TIP3   OH233790   1.597   1.806   3.968  0.2946  0.3120  0.0025
 4100TIP3    H133791   1.550   1.793   3.886  1.6017 -1.2413 -0.5578
 4100TIP3    H233792   1.543   1.867   4.017 -0.6242  1.1465 -1.9278
 4101TIP3   OH233793   5.887   5.510   1.122 -0.1968  0.2886 -0.3341
 4101TIP3    H133794   5.928   5.542   1.202 -0.9786  1.4479 -0.3629
 4101TIP3    H233795   5.960   5.485   1.065  0.3780  0.0317  0.5034
 4102TIP3   OH233796   6.158   0.333   2.047 -0.2954  0.0654  0.8552
 4102TIP3    H133797   6.165   0.339   2.142 -0.1795  0.5077  0.8189
 4102TIP3    H233798   6.164   0.239   2.028 -2.2258 -0.2049  1.4302
 4103TIP3   OH233799   5.758   2.882   3.499  0.7368  0.0959  0.0268
 4103TIP3    H133800   5.747   2.848   3.410 -0.3393  0.8296 -0.1345
 4103TIP3    H233801   5.706   2.823   3.554  0.1287  0.5589 -0.0458
 4104TIP3   OH233802   2.265   3.605  10.625  0.5776  0.0240  1.0207
 4104TIP3    H133803   2.185   3.601  10.574  1.0738  0.2808  0.2108
 4104TIP3    H233804   2.335   3.585  10.563  1.0620 -1.3347  1.9544
 4105TIP3   OH233805   2.485   5.172  12.590  0.2490 -0.7887 -0.0781
 4105TIP3    H133806   2.569   5.127  12.578 -0.4285 -2.2095  0.2661
 4105TIP3    H233807   2.484   5.239  12.521  1.7261 -0.6182  0.0304
 4106TIP3   OH233808   6.397   4.194  10.442 -0.2973 -0.2114  0.5002
 4106TIP3    H133809   6.408   4.187  10.347 -1.3079  0.1564  0.3378
 4106TIP3    H233810   6.481   4.225  10.474  0.9198 -2.7362  0.0436
 4107TIP3   OH233811   4.455   2.616   4.663  0.4260 -0.4204 -0.1159
 4107TIP3    H133812   4.516   2.557   4.618  2.7189  2.3936 -1.0050
 4107TIP3    H233813   4.396   2.646   4.595  0.8804  0.1999 -0.2484
 4108TIP3   OH233814   5.625   0.098  11.835 -0.0070 -0.0258 -0.6890
 4108TIP3    H133815   5.618   0.076  11.742 -0.5871  0.2246 -0.7074
 4108TIP3    H233816   5.545   0.063  11.874  0.5611 -0.7643 -0.1472
 4109TIP3   OH233817   6.663   6.390   3.608  0.8808 -0.3828 -0.0715
 4109TIP3    H133818   6.584   6.384   3.662  0.6668  2.3721  0.0601
 4109TIP3    H233819   6.630   6.410   3.521  1.4168 -0.1111 -0.2101
 4110TIP3   OH233820   5.789   3.504  16.156 -0.3359  0.4275 -0.1699
 4110TIP3    H133821   5.856   3.551  16.206 -1.2858  0.5540  1.0302
 4110TIP3    H233822   5.773   3.558  16.079  1.0521  0.3088 -0.5665
 4111TIP3   OH233823   4.218   4.340   2.426  0.4692 -0.3580  0.1978
 4111TIP3    H133824   4.193   4.343   2.518  0.5437  0.4161  0.1973
 4111TIP3    H233825   4.185   4.422   2.389  2.8107  0.6537  0.1555
 4112TIP3   OH233826   5.565   5.011   4.542 -0.1778 -0.3666 -0.8440
 4112TIP3    H133827   5.478   4.976   4.562 -0.1351 -1.2660 -2.1236
 4112TIP3    H233828   5.620   4.980   4.614 -0.8524 -0.0163 -0.1646
 4113TIP3   OH233829   2.709   2.652   2.680  0.2481  0.0905 -0.9970
 4113TIP3    H133830   2.682   2.656   2.588 -1.6371  1.1495 -0.4391
 4113TIP3    H233831   2.710   2.559   2.700 -2.2973 -0.0764 -1.3186
 4114TIP3   OH233832   5.077   3.239  13.604 -0.4217 -0.1286 -0.3281
 4114TIP3    H133833   5.148   3.177  13.623 -0.0819  0.4508  0.3535
 4114TIP3    H233834   4.997   3.187  13.610 -0.1734 -0.4291  0.6784
 4115TIP3   OH233835   3.683   3.021  14.304  0.0490  0.4524  0.1571
 4115TIP3    H133836   3.590   3.020  14.325 -0.1554  1.2311 -0.6416
 4115TIP3    H233837   3.723   2.960  14.366 -1.1110 -0.5671 -0.0557
 4116TIP3   OH233838   4.117   6.017  12.762  0.1792 -0.6131 -0.3351
 4116TIP3    H133839   4.129   6.073  12.685  1.2047 -4.1287 -2.9930
 4116TIP3    H233840   4.199   5.968  12.769 -1.2057 -2.9133  0.7640
 4117TIP3   OH233841   0.352   5.136   5.468  0.2458 -0.3692  0.6574
 4117TIP3    H133842   0.301   5.139   5.388  1.1273  1.6733  0.1151
 4117TIP3    H233843   0.308   5.197   5.527  1.2414  0.3599  0.6667
 4118TIP3   OH233844   1.441   6.799  15.767  0.1035  0.2000 -0.2149
 4118TIP3    H133845   1.499   6.733  15.803  0.2726 -0.3744 -1.4746
 4118TIP3    H233846   1.373   6.749  15.722 -1.2313  0.8604  0.9857
 4119TIP3   OH233847   4.790   5.656   4.475 -0.1776  0.3225 -0.2912
 4119TIP3    H133848   4.702   5.671   4.509  0.4456  1.3680  0.9665
 4119TIP3    H233849   4.841   5.628   4.551  0.2854 -1.6816 -1.2749
 4120TIP3   OH233850   2.091   3.535  13.417 -0.4811  0.4255  0.6544
 4120TIP3    H133851   2.126   3.487  13.343 -1.0120  1.0037  0.0153
 4120TIP3    H233852   2.054   3.467  13.474 -2.2829  0.1111 -0.7985
 4121TIP3   OH233853   6.485   6.149   4.139 -0.3340  0.0889  0.7495
 4121TIP3    H133854   6.568   6.101   4.130 -0.8976 -0.9429  0.9341
 4121TIP3    H233855   6.459   6.136   4.230 -1.6350 -1.2016  0.2342
 4122TIP3   OH233856   1.304   1.789   1.501 -0.2752 -0.9956 -0.3928
 4122TIP3    H133857   1.396   1.808   1.519 -0.3332 -1.2623  0.1942
 4122TIP3    H233858   1.272   1.868   1.457 -0.8001  0.8153  2.9138
 4123TIP3   OH233859   3.035   5.634  11.560 -0.2974 -0.3156  0.3715
 4123TIP3    H133860   3.120   5.594  11.545 -1.4192 -2.5024 -0.6333
 4123TIP3    H233861   3.005   5.661  11.473 -1.1327 -0.6847  0.5386
 4124TIP3   OH233862   5.436   2.942  15.476 -0.5799 -0.3822 -0.6954
 4124TIP3    H133863   5.468   2.922  15.388 -2.1833  0.7134 -1.5517
 4124TIP3    H233864   5.352   2.897  15.482  0.2386 -1.8652  0.9494
 4125TIP3   OH233865   4.054   2.918  16.189 -0.1127  0.0201 -0.2542
 4125TIP3    H133866   4.008   2.836  16.171 -3.6467  1.1088  2.5225
 4125TIP3    H233867   4.015   2.981  16.128  1.3093  0.0612 -1.1671
 4126TIP3   OH233868   0.570   5.633   1.120  0.8454 -0.2197  0.0191
 4126TIP3    H133869   0.657   5.667   1.140  1.1603 -2.0163  2.0671
 4126TIP3    H233870   0.584   5.541   1.100 -0.4522 -0.1883 -1.2642
 4127TIP3   OH233871   4.818   5.546  14.544 -0.0067  0.3089  0.2777
 4127TIP3    H133872   4.857   5.586  14.466 -0.0529 -1.2478 -0.5949
 4127TIP3    H233873   4.729   5.524  14.518  0.0678 -0.4899  0.6518
 4128TIP3   OH233874   6.680   2.250  12.481 -0.9175 -0.2407  0.4724
 4128TIP3    H133875   6.599   2.242  12.431 -0.2413  0.0066 -0.7091
 4128TIP3    H233876   6.736   2.180  12.446  0.4139  1.3863 -0.8385
 4129TIP3   OH233877   3.435   2.319  14.794  0.0945 -0.5300 -0.0638
 4129TIP3    H133878   3.509   2.333  14.735  0.3470 -1.6287 -0.0240
 4129TIP3    H233879   3.361   2.297  14.736  0.1891 -0.9789 -0.0207
 4130TIP3   OH233880   5.923   0.964  11.759 -0.2800  0.2597 -0.6033
 4130TIP3    H133881   5.997   0.960  11.821 -1.2039  0.8562  0.5824
 4130TIP3    H233882   5.961   1.003  11.680  1.2392 -1.7229 -0.9222
 4131TIP3   OH233883   3.446   0.946  13.212 -0.3696  0.0216  0.1680
 4131TIP3    H133884   3.358   0.928  13.179 -0.5432 -1.5126  1.3549
 4131TIP3    H233885   3.499   0.959  13.133 -1.5789  0.6974 -0.5620
 4132TIP3   OH233886   2.791   0.774  13.775 -0.7680  0.0678  0.7839
 4132TIP3    H133887   2.786   0.783  13.680 -1.7396 -1.8539  0.6185
 4132TIP3    H233888   2.772   0.682  13.792  2.0474 -0.3074  2.6731
 4133TIP3   OH233889   5.417   1.272   1.967  0.5900 -0.0816  0.0513
 4133TIP3    H133890   5.334   1.226   1.957  0.4872  0.0758  0.2004
 4133TIP3    H233891   5.402   1.358   1.929  0.2887  0.4231  1.2735
 4134TIP3   OH233892   3.278   3.075  15.343 -0.3139  0.6510  0.0529
 4134TIP3    H133893   3.275   3.094  15.249  2.5027  1.4377  0.0336
 4134TIP3    H233894   3.310   2.985  15.348  1.5718  1.2853  0.2018
 4135TIP3   OH233895   6.125   5.327   5.631 -0.0123  0.7261  0.3304
 4135TIP3    H133896   6.102   5.234   5.633 -0.1115  0.7549  0.9640
 4135TIP3    H233897   6.194   5.334   5.566 -1.8875  0.6457 -1.7811
 4136TIP3   OH233898   2.028   2.692  14.276  0.5390 -0.7220 -0.0052
 4136TIP3    H133899   1.950   2.735  14.311  1.5380  1.0795  0.1376
 4136TIP3    H233900   2.041   2.732  14.190  0.5269 -2.0347 -0.6436
 4137TIP3   OH233901   3.806   6.788   1.379  0.4165  0.6697 -0.4610
 4137TIP3    H133902   3.837   6.721   1.441 -1.2870  0.0246 -0.2543
 4137TIP3    H233903   3.783   6.863   1.434 -0.0903  0.4784 -0.4012
 4138TIP3   OH233904   0.112   2.783  17.073 -0.6862 -0.1757 -0.0583
 4138TIP3    H133905   0.036   2.775  17.130 -0.5041  1.3257  0.4550
 4138TIP3    H233906   0.187   2.789  17.133 -0.4936  1.4226 -0.4082
 4139TIP3   OH233907   2.212   0.123   6.283 -0.4520  0.0944  0.3037
 4139TIP3    H133908   2.147   0.100   6.216 -1.6340  0.2709  1.3494
 4139TIP3    H233909   2.169   0.101   6.366  2.2294 -3.3407  0.9785
 4140TIP3   OH233910   6.348   2.296   4.672  0.2263 -0.1912  0.0120
 4140TIP3    H133911   6.308   2.382   4.657 -2.0663 -1.3009 -0.6706
 4140TIP3    H233912   6.343   2.284   4.767  1.4799  0.7937  0.2374
 4141TIP3   OH233913   1.356   4.743  17.133 -0.1819 -0.6506 -0.3358
 4141TIP3    H133914   1.374   4.768  17.043 -3.1470  0.4590 -0.7417
 4141TIP3    H233915   1.346   4.648  17.130 -0.2839 -0.6194 -1.1860
 4142TIP3   OH233916   0.096   6.612  13.139  0.0711  0.4919 -0.3606
 4142TIP3    H133917   0.024   6.566  13.096 -0.5759 -1.1418  2.2303
 4142TIP3    H233918   0.058   6.645  13.220  2.0831 -0.0081  0.8677
 4143TIP3   OH233919   5.243   6.160   5.627  0.5388  0.0828 -0.7261
 4143TIP3    H133920   5.208   6.181   5.540  0.0634 -0.9430 -0.7953
 4143TIP3    H233921   5.212   6.072   5.645 -0.3729  0.7028  0.9917
 4144TIP3   OH233922   4.957   5.040   1.797  0.4834  0.0661  0.0605
 4144TIP3    H133923   5.001   4.955   1.796  0.7393  0.1727 -1.8868
 4144TIP3    H233924   4.959   5.068   1.889  2.7699 -0.7948  0.3209
 4145TIP3   OH233925   1.246   0.776  16.980 -0.6328 -0.0049  0.1307
 4145TIP3    H133926   1.210   0.689  16.959  0.0537  0.0892 -1.6372
 4145TIP3    H233927   1.238   0.825  16.898  3.1044  0.1211 -0.3645
 4146TIP3   OH233928   2.525   5.801   0.798 -0.4474  0.4657 -0.3715
 4146TIP3    H133929   2.471   5.846   0.863  1.0451 -0.1821  1.3784
 4146TIP3    H233930   2.489   5.712   0.794  0.5424 -0.0294  0.9517
 4147TIP3   OH233931   6.529   1.752   6.308  0.7592  0.3239  0.3595
 4147TIP3    H133932   6.488   1.686   6.364  3.4196 -0.2767  1.7527
 4147TIP3    H233933   6.617   1.763   6.344  1.0011  3.4354 -0.8519
 4148TIP3   OH233934   2.509   4.229  16.888  0.1433  0.2628  0.3528
 4148TIP3    H133935   2.435   4.225  16.827 -0.2395  0.4526  0.7894
 4148TIP3    H233936   2.490   4.307  16.942  0.6815  0.3314  0.4437
 4149TIP3   OH233937   4.755   2.871   6.301  0.0441  0.7530 -0.4944
 4149TIP3    H133938   4.791   2.934   6.363  0.4211  0.9124 -0.8714
 4149TIP3    H233939   4.684   2.828   6.349  1.5222 -0.4682  0.7144
 4150TIP3   OH233940   0.579   6.565  14.937  0.0126  0.6762  0.1033
 4150TIP3    H133941   0.590   6.658  14.955 -1.2119  0.5388  1.7722
 4150TIP3    H233942   0.485   6.555  14.918  0.1901 -0.1647 -0.4063
 4151TIP3   OH233943   6.661   2.326  16.738  0.2620  0.0108  0.2253
 4151TIP3    H133944   6.676   2.410  16.694 -0.5185 -0.1337 -0.3290
 4151TIP3    H233945   6.722   2.265  16.696  0.4003  0.1613  0.2084
 4152TIP3   OH233946   6.487   5.689   2.189  0.0037 -0.5835  0.6955
 4152TIP3    H133947   6.410   5.701   2.245  0.3753 -0.5743  1.2153
 4152TIP3    H233948   6.549   5.757   2.218 -0.2770  0.2656 -0.6008
 4153TIP3   OH233949   1.561   5.144   1.973  0.0692  0.1083 -0.1123
 4153TIP3    H133950   1.505   5.220   1.992  1.4062  0.5649  2.4888
 4153TIP3    H233951   1.513   5.069   2.010 -0.2171  0.0159 -0.6610
 4154TIP3   OH233952   6.347   1.958   3.604 -0.5115  0.2683  0.1531
 4154TIP3    H133953   6.396   2.041   3.603 -2.9869  1.8207 -1.0207
 4154TIP3    H233954   6.323   1.946   3.696  1.1557 -0.0248  0.5920
 4155TIP3   OH233955   2.938   4.009   3.757 -0.2002  0.1990 -0.3916
 4155TIP3    H133956   2.980   3.967   3.833 -0.6141 -0.4811 -0.5309
 4155TIP3    H233957   2.860   4.051   3.793 -0.2199  0.1553 -0.3826
 4156TIP3   OH233958   5.943   3.910  15.697 -0.2373 -0.4020 -0.1087
 4156TIP3    H133959   5.910   3.969  15.629 -1.4995  0.1484  0.9402
 4156TIP3    H233960   5.957   3.966  15.773 -0.0687 -1.2191  0.4818
 4157TIP3   OH233961   0.289   5.302   6.262  0.4188 -0.6864  0.3504
 4157TIP3    H133962   0.248   5.345   6.337  1.3921 -1.3146  1.2703
 4157TIP3    H233963   0.220   5.247   6.226 -0.6613  1.1095 -0.4630
 4158TIP3   OH233964   0.867   2.905  17.034  0.0825  0.0231  0.0278
 4158TIP3    H133965   0.899   2.856  17.110  1.3183  1.3374  0.4077
 4158TIP3    H233966   0.803   2.966  17.070 -0.0786 -0.0409 -0.1482
 4159TIP3   OH233967   6.700   2.587   2.938  0.0304  0.1618 -0.0768
 4159TIP3    H133968   6.632   2.580   3.005  1.1266 -1.0276  0.9715
 4159TIP3    H233969   6.697   2.503   2.893  0.7153  0.1481 -0.0984
 4160TIP3   OH233970   2.184   6.808   3.841  0.1415  0.1635  0.4534
 4160TIP3    H133971   2.274   6.815   3.810  0.7074 -0.7542  1.8180
 4160TIP3    H233972   2.146   6.736   3.791 -0.1566  1.1136 -0.7625
 4161TIP3   OH233973   4.183   0.349  11.365  0.4406  0.0268  0.1843
 4161TIP3    H133974   4.148   0.397  11.440  0.5477  2.5840 -1.2601
 4161TIP3    H233975   4.117   0.363  11.296  1.9378  0.7594 -1.1659
 4162TIP3   OH233976   2.034   6.012  12.227 -0.6839  0.2461  0.1290
 4162TIP3    H133977   1.981   6.084  12.261 -0.7594  1.0886 -1.6641
 4162TIP3    H233978   2.124   6.040  12.240 -0.6740 -0.3192  1.3936
 4163TIP3   OH233979   4.403   4.634   2.468 -0.0684  0.4618 -0.1901
 4163TIP3    H133980   4.493   4.631   2.498  0.1586  1.0138 -0.7901
 4163TIP3    H233981   4.357   4.569   2.522  0.8913 -0.5868 -0.6134
 4164TIP3   OH233982   3.490   6.355  15.294  0.0724  0.0750  0.4667
 4164TIP3    H133983   3.396   6.370  15.304 -0.2296 -1.2692 -0.0385
 4164TIP3    H233984   3.520   6.425  15.236 -0.8312 -0.0654 -0.1923
 4165TIP3   OH233985   2.872   3.024  13.502  0.0903 -0.1235 -0.7612
 4165TIP3    H133986   2.933   2.963  13.542  0.0948 -0.8341 -1.8183
 4165TIP3    H233987   2.903   3.034  13.412  0.5051  1.9980 -0.4486
 4166TIP3   OH233988   5.203   5.702   1.817  0.1515 -0.2110 -0.3090
 4166TIP3    H133989   5.212   5.780   1.873 -2.1864 -0.4951  0.5607
 4166TIP3    H233990   5.274   5.710   1.754 -0.4808  3.0941 -0.7882
 4167TIP3   OH233991   5.016   4.679  16.999  0.8410  0.3025 -0.4898
 4167TIP3    H133992   5.077   4.610  17.021  1.1139  0.0531 -1.9135
 4167TIP3    H233993   4.989   4.660  16.909  1.8123  2.6500 -1.3792
 4168TIP3   OH233994   1.165   3.812  11.613 -0.7763 -0.0580  0.4337
 4168TIP3    H133995   1.248   3.857  11.632 -0.4132  0.3604 -1.8771
 4168TIP3    H233996   1.180   3.768  11.530 -3.3900  1.4398 -0.9627
 4169TIP3   OH233997   6.033   0.218   4.626 -0.6819  0.0631 -0.0821
 4169TIP3    H133998   6.023   0.312   4.641  0.1052  0.0863  0.3477
 4169TIP3    H233999   5.945   0.182   4.636 -2.0099  1.3149 -4.6245
 4170TIP3   OH234000   6.072   0.929  15.647  0.0333  0.3291 -0.4063
 4170TIP3    H134001   5.999   0.986  15.625  0.9461  0.7255 -2.7067
 4170TIP3    H234002   6.137   0.987  15.686 -0.1586  0.3382 -0.1055
 4171TIP3   OH234003   6.244   0.042   3.519 -0.1677  0.1812  0.0585
 4171TIP3    H134004   6.313   0.069   3.579 -1.1391 -0.5214  1.5513
 4171TIP3    H234005   6.270  -0.046   3.491  0.3095  0.5277 -0.6254
 4172TIP3   OH234006   3.456   4.032  11.974  0.8921  0.1744  0.3038
 4172TIP3    H134007   3.477   4.124  11.962 -0.7751  0.6252  0.5667
 4172TIP3    H234008   3.416   4.006  11.891 -1.3902  0.5427  1.2247
 4173TIP3   OH234009   6.307   3.769  15.686  0.0685 -0.3817  0.5246
 4173TIP3    H134010   6.306   3.809  15.772  0.5775 -2.9434  1.8322
 4173TIP3    H234011   6.387   3.802  15.645  0.3962  0.0381  1.4711
 4174TIP3   OH234012   6.221   3.490   5.812 -0.2470 -0.6575 -0.0399
 4174TIP3    H134013   6.231   3.584   5.796  1.1602 -0.6526  0.7158
 4174TIP3    H234014   6.128   3.479   5.833 -0.2671  0.7023  0.6769
 4175TIP3   OH234015   3.999   0.175  12.199  0.0090 -0.7867  0.2452
 4175TIP3    H134016   4.001   0.265  12.232 -0.6992 -0.4548 -0.5776
 4175TIP3    H234017   3.943   0.128  12.260 -0.6889 -0.3522 -0.0431
 4176TIP3   OH234018   5.711   5.062   1.282  0.7732  0.3727 -0.3216
 4176TIP3    H134019   5.735   4.996   1.346  2.0475  1.2668  0.1612
 4176TIP3    H234020   5.630   5.101   1.317  0.7713  0.0130  0.0849
 4177TIP3   OH234021   6.556   6.185  16.804 -0.4061  0.3046  0.1578
 4177TIP3    H134022   6.505   6.106  16.788 -1.9720  1.0257  1.3002
 4177TIP3    H234023   6.576   6.219  16.717  1.9437 -2.2697 -0.4462
 4178TIP3   OH234024   6.066   3.006  16.209  0.0232  0.0937  0.2559
 4178TIP3    H134025   6.060   3.095  16.245  2.3450  0.0917  0.8392
 4178TIP3    H234026   6.075   2.950  16.286  0.3352 -0.4462 -0.1705
 4179TIP3   OH234027   2.540   0.162  14.715  0.0921  0.2601 -0.0993
 4179TIP3    H134028   2.523   0.254  14.696  0.8640  0.5874  0.6971
 4179TIP3    H234029   2.475   0.138  14.782 -1.5735 -0.4401 -1.8601
 4180TIP3   OH234030   0.415   1.962  12.185 -0.6405 -0.3596 -0.5892
 4180TIP3    H134031   0.447   1.877  12.215  2.4807  0.3733 -1.5427
 4180TIP3    H234032   0.340   1.941  12.129  0.8901 -2.6392 -1.9384
 4181TIP3   OH234033   5.730   3.984   2.858 -0.2917 -0.0943  0.3526
 4181TIP3    H134034   5.800   3.921   2.847  0.8021  1.1755 -0.2223
 4181TIP3    H234035   5.694   3.966   2.944  1.1336 -0.4025  0.9053
 4182TIP3   OH234036   1.021   1.224   5.833 -0.1797 -0.6667  0.6504
 4182TIP3    H134037   1.041   1.312   5.799 -2.5629 -0.3548 -0.1748
 4182TIP3    H234038   1.068   1.219   5.915 -0.5747  1.7431  1.1227
 4183TIP3   OH234039   3.761   0.037  13.297 -0.0664  0.0521 -0.7409
 4183TIP3    H134040   3.687  -0.001  13.248  0.9277 -0.8628 -1.5817
 4183TIP3    H234041   3.836  -0.017  13.273  0.7141  0.3740  0.8407
 4184TIP3   OH234042   0.738   5.079  12.785  0.1858 -0.0039 -0.1671
 4184TIP3    H134043   0.808   5.141  12.763  1.7441 -1.4384  0.6051
 4184TIP3    H234044   0.733   5.021  12.709  0.3749 -0.3855  0.1120
 4185TIP3   OH234045   5.707   4.655   0.550  0.0649 -0.5618  0.0598
 4185TIP3    H134046   5.702   4.577   0.496  0.6305 -1.0231  0.6594
 4185TIP3    H234047   5.616   4.682   0.563 -0.0845 -0.5431 -0.9583
 4186TIP3   OH234048   0.516   4.901  17.026  0.0334 -0.3336  0.5244
 4186TIP3    H134049   0.541   4.986  16.989 -0.4928 -0.4100 -0.0286
 4186TIP3    H234050   0.523   4.840  16.952  0.5883 -0.8054  0.9650
 4187TIP3   OH234051   4.009   4.346  12.703  0.1064  0.1595  0.5331
 4187TIP3    H134052   4.093   4.392  12.706  0.8188 -1.0200 -0.1960
 4187TIP3    H234053   3.956   4.397  12.641  0.1806  1.0569  1.1938
 4188TIP3   OH234054   5.055   2.106   2.299  0.2936  0.1877 -0.3009
 4188TIP3    H134055   5.034   2.191   2.337 -0.2463 -0.4363  0.8417
 4188TIP3    H234056   4.973   2.075   2.261  0.0417 -0.5469  0.7771
 4189TIP3   OH234057   3.637   4.335   4.959 -0.4096 -0.5968  0.5224
 4189TIP3    H134058   3.642   4.339   5.054 -0.0068  0.1577  0.4747
 4189TIP3    H234059   3.724   4.304   4.932 -0.0006  0.6703  0.3297
 4190TIP3   OH234060   6.076   6.362  15.781 -0.3076 -0.3586  0.0866
 4190TIP3    H134061   6.106   6.395  15.697 -2.6111  1.0526 -0.2768
 4190TIP3    H234062   6.119   6.417  15.846 -2.2709  2.0133 -0.4375
 4191TIP3   OH234063   5.349   2.642  13.448 -0.5291 -0.0490 -0.0589
 4191TIP3    H134064   5.267   2.669  13.491 -0.5586 -0.3775  0.0897
 4191TIP3    H234065   5.414   2.705  13.480 -0.7416  0.2773 -0.2557
 4192TIP3   OH234066   5.131   1.116   0.200  0.2000  0.6860  0.2219
 4192TIP3    H134067   5.198   1.050   0.180  0.3451  1.0341 -0.4667
 4192TIP3    H234068   5.172   1.171   0.267 -0.3005 -0.5035  1.5485
 4193TIP3   OH234069   2.354   6.092   3.436 -0.3601  0.2760  0.0891
 4193TIP3    H134070   2.389   6.042   3.363 -0.0753  0.1959  0.2789
 4193TIP3    H234071   2.419   6.160   3.453  1.5035 -1.8815  2.6322
 4194TIP3   OH234072   4.091   2.886   1.901 -0.2412  0.4615 -0.0726
 4194TIP3    H134073   4.049   2.920   1.822 -0.3428  0.9363  0.1806
 4194TIP3    H234074   4.026   2.827   1.939 -0.5522  0.9290  0.1336
 4195TIP3   OH234075   0.673   1.219  12.147 -0.2430  0.1840 -0.3617
 4195TIP3    H134076   0.689   1.281  12.077 -3.0964  2.2826  0.6391
 4195TIP3    H234077   0.678   1.133  12.105 -0.6556  1.3040 -2.8546
 4196TIP3   OH234078   2.651   5.953  13.714  0.2234  1.0197 -0.7782
 4196TIP3    H134079   2.709   6.014  13.669  1.6748  0.5507  0.3780
 4196TIP3    H234080   2.705   5.876  13.730  0.3835  1.7177  3.1312
 4197TIP3   OH234081   4.640   4.765  14.774 -0.2567  0.1680  0.1499
 4197TIP3    H134082   4.576   4.711  14.820 -0.5643  1.2256  0.9871
 4197TIP3    H234083   4.665   4.712  14.698 -0.5078 -1.1734  0.9630
 4198TIP3   OH234084   1.244   4.948   0.773  0.0416  0.2108  0.2315
 4198TIP3    H134085   1.295   4.954   0.692 -1.0790 -1.3647 -0.6328
 4198TIP3    H234086   1.310   4.935   0.841  0.9311  0.4695 -0.5572
 4199TIP3   OH234087   2.142   3.314  12.317  0.3489 -0.6511  0.5011
 4199TIP3    H134088   2.156   3.231  12.271 -0.7287 -0.4791 -0.1672
 4199TIP3    H234089   2.105   3.288  12.402 -2.5390 -0.7975 -0.7141
 4200TIP3   OH234090   2.287   5.167  11.939  0.4662  0.5112  0.4234
 4200TIP3    H134091   2.349   5.131  11.876  1.1726  0.1391  1.3180
 4200TIP3    H234092   2.245   5.239  11.892 -1.8688 -2.1030 -1.8584
 4201TIP3   OH234093   6.755   1.662   5.477 -0.0979 -0.0083 -0.2514
 4201TIP3    H134094   6.811   1.684   5.403 -0.9526 -0.4827 -1.0667
 4201TIP3    H234095   6.803   1.692   5.554  1.2071 -0.2847 -0.9287
 4202TIP3   OH234096   2.253   0.180   1.203  0.0171  0.6477 -0.0659
 4202TIP3    H134097   2.292   0.116   1.144  1.8025 -0.1973  1.8873
 4202TIP3    H234098   2.269   0.264   1.161 -0.4566 -0.0376 -1.6685
 4203TIP3   OH234099   4.030   4.731  12.595  0.9088  0.2207  0.2477
 4203TIP3    H134100   4.001   4.817  12.628  0.9916  0.3560 -0.0324
 4203TIP3    H234101   3.957   4.672  12.616  0.2851  0.6198 -0.7241
 4204TIP3   OH234102   0.295   3.688   1.284 -0.1284 -0.5079  0.2093
 4204TIP3    H134103   0.356   3.661   1.216  0.6908 -0.3763  0.8722
 4204TIP3    H234104   0.210   3.689   1.241  0.1017 -2.1152 -0.3709
 4205TIP3   OH234105   1.693   3.303  15.100 -0.5403 -0.5281  0.3780
 4205TIP3    H134106   1.620   3.360  15.121  0.7676  1.6029 -0.5525
 4205TIP3    H234107   1.759   3.323  15.166 -0.4137 -1.7777  0.6672
 4206TIP3   OH234108   0.801   5.318  14.075  0.2016 -0.3164 -0.7686
 4206TIP3    H134109   0.764   5.231  14.092 -1.6687  0.4372 -0.6447
 4206TIP3    H234110   0.878   5.301  14.021  0.4057 -2.1005 -0.0021
 4207TIP3   OH234111   3.389   2.112  11.946  0.2082 -0.0373  0.5716
 4207TIP3    H134112   3.425   2.200  11.939  0.6311 -0.1322  1.4382
 4207TIP3    H234113   3.462   2.054  11.922 -0.1896 -0.1500 -0.4176
 4208TIP3   OH234114   4.624   4.330  16.406 -0.7218  0.1647 -0.0157
 4208TIP3    H134115   4.594   4.247  16.443 -0.8393  0.3534  0.3179
 4208TIP3    H234116   4.646   4.384  16.482  1.3331 -0.2661 -0.2583
 4209TIP3   OH234117   4.065   4.508  11.029  0.2124 -1.2450 -0.3618
 4209TIP3    H134118   4.028   4.506  10.941 -1.0173 -1.1148  0.1260
 4209TIP3    H234119   4.111   4.424  11.038  0.2051 -1.3283 -1.0551
 4210TIP3   OH234120   5.866   2.351  15.056  0.0093 -0.0359 -0.0133
 4210TIP3    H134121   5.948   2.374  15.099 -0.5999  0.4420  0.9142
 4210TIP3    H234122   5.814   2.308  15.124 -1.4781  1.9041  0.1296
 4211TIP3   OH234123   1.138   2.148  14.072 -0.6678 -0.0928  0.0940
 4211TIP3    H134124   1.206   2.189  14.125 -0.0905  0.7438 -1.2333
 4211TIP3    H234125   1.156   2.054  14.079  1.0017  0.1322 -0.6486
 4212TIP3   OH234126   3.601   1.903  13.847  0.5550  0.1653 -0.8452
 4212TIP3    H134127   3.531   1.923  13.909  0.4365  1.5254 -1.3894
 4212TIP3    H234128   3.681   1.926  13.894  0.7526 -2.0384  0.0373
 4213TIP3   OH234129   2.561   3.396   1.003  0.1921 -0.4817  0.3855
 4213TIP3    H134130   2.576   3.451   0.926 -1.3994  0.6065  0.7941
 4213TIP3    H234131   2.644   3.396   1.050 -0.0014  2.5341  0.9158
 4214TIP3   OH234132   5.329   0.430  15.514 -0.1576  0.6280  0.7619
 4214TIP3    H134133   5.295   0.341  15.523  0.1615  0.3042 -0.8123
 4214TIP3    H234134   5.415   0.426  15.555 -0.2457  0.2866  0.9263
 4215TIP3   OH234135   3.141   1.236  12.901  0.3729 -0.1339  0.7787
 4215TIP3    H134136   3.198   1.256  12.827 -0.0935  1.7959  0.8819
 4215TIP3    H234137   3.103   1.151  12.880  0.6264  0.1509 -0.9683
 4216TIP3   OH234138   5.713   6.145  16.382 -0.5415 -0.0112 -0.5405
 4216TIP3    H134139   5.622   6.161  16.357  0.0760  1.4543 -1.9810
 4216TIP3    H234140   5.752   6.232  16.391  0.2863 -0.5547  1.8971
 4217TIP3   OH234141   0.785   3.424   5.931 -0.6621  0.4713 -0.1030
 4217TIP3    H134142   0.783   3.459   5.842  1.2036  1.0333  0.0325
 4217TIP3    H234143   0.877   3.433   5.958 -0.8659 -1.1562  1.3024
 4218TIP3   OH234144   1.804   3.109   1.271  0.1904  0.2498  0.4828
 4218TIP3    H134145   1.827   3.046   1.202 -1.2648 -0.0569  0.2557
 4218TIP3    H234146   1.827   3.064   1.352 -2.4584 -1.3728  0.4315
 4219TIP3   OH234147   0.332   3.590  15.755  0.8504 -0.1886 -0.0832
 4219TIP3    H134148   0.386   3.654  15.801  1.6405 -0.5386 -0.5024
 4219TIP3    H234149   0.371   3.584  15.668 -1.3552  1.3963 -1.2795
 4220TIP3   OH234150   3.480   5.644   0.582 -0.0171 -0.3294  0.2551
 4220TIP3    H134151   3.459   5.584   0.510  0.1412 -0.5871  0.4220
 4220TIP3    H234152   3.521   5.719   0.539  2.3402 -1.5294  0.2732
 4221TIP3   OH234153   2.638   4.669   5.813  0.0409 -0.3840 -0.1888
 4221TIP3    H134154   2.637   4.696   5.905  4.3897 -1.9710  0.5782
 4221TIP3    H234155   2.620   4.575   5.816 -2.2139 -0.0727 -1.3768
 4222TIP3   OH234156   2.808   6.163   1.463 -0.4161  0.2414  0.1798
 4222TIP3    H134157   2.778   6.074   1.442 -0.8336  0.2235  0.8364
 4222TIP3    H234158   2.730   6.218   1.452 -0.4350  0.3550  0.8715
 4223TIP3   OH234159   5.663   2.042  16.795 -0.3300  0.2956 -0.4333
 4223TIP3    H134160   5.676   2.118  16.737  1.0158 -0.1119 -0.6960
 4223TIP3    H234161   5.578   2.058  16.836 -0.3317  1.6731 -0.9074
 4224TIP3   OH234162   3.409   1.397  10.833 -0.6060 -0.1973  0.2125
 4224TIP3    H134163   3.497   1.364  10.814 -1.0770 -1.0139 -0.6022
 4224TIP3    H234164   3.394   1.464  10.767 -1.0446 -0.8809 -0.3906
 4225TIP3   OH234165   5.032   5.991  14.488  0.2490  0.8414  0.3880
 4225TIP3    H134166   5.024   5.914  14.432 -1.1784 -0.2531  1.9765
 4225TIP3    H234167   5.086   5.962  14.561  1.0325  1.8532  0.2207
 4226TIP3   OH234168   0.238   3.949  14.355  0.0187 -0.3406  0.0247
 4226TIP3    H134169   0.151   3.948  14.396  0.0687 -1.6221  0.1409
 4226TIP3    H234170   0.296   3.911  14.420  0.9568  1.7067  0.4629
 4227TIP3   OH234171   3.904   3.941  12.825  0.8315  0.5547  0.1627
 4227TIP3    H134172   3.920   3.846  12.826 -0.3452  0.2511 -2.2084
 4227TIP3    H234173   3.972   3.976  12.768  1.6428  1.2636  1.5256
 4228TIP3   OH234174   2.688   5.035  14.408  0.0031 -0.0809 -0.4528
 4228TIP3    H134175   2.623   4.985  14.456 -0.3079  0.7766  0.0470
 4228TIP3    H234176   2.636   5.087  14.346  0.3400 -0.5758 -1.1600
 4229TIP3   OH234177   6.745   3.340   1.928  0.0052 -0.6430  0.2197
 4229TIP3    H134178   6.772   3.421   1.970 -0.2040  0.2011 -1.2048
 4229TIP3    H234179   6.676   3.305   1.984 -0.1070  0.3196  0.7002
 4230TIP3   OH234180   6.025   2.692   3.012  0.7550  0.2329  0.0054
 4230TIP3    H134181   6.082   2.630   2.967 -1.5878 -0.0292 -2.8444
 4230TIP3    H234182   6.036   2.774   2.964  0.2023  0.7062  0.6654
 4231TIP3   OH234183   2.006   2.151  12.229 -0.5608 -0.3023  0.5088
 4231TIP3    H134184   1.981   2.232  12.184  0.0888 -1.1802 -1.5834
 4231TIP3    H234185   1.947   2.085  12.192  1.5383 -1.4965 -0.9191
 4232TIP3   OH234186   5.650   2.575   5.554  0.1804  0.0394  0.5282
 4232TIP3    H134187   5.635   2.487   5.519  0.3550  1.3413 -3.2015
 4232TIP3    H234188   5.729   2.565   5.609  2.5443 -1.5701 -2.8197
 4233TIP3   OH234189   0.875   5.326   2.133 -0.0377  0.2050 -0.1370
 4233TIP3    H134190   0.821   5.298   2.207  0.3090  0.3453  0.1755
 4233TIP3    H234191   0.889   5.420   2.148  3.4742 -0.4531  1.9327
 4234TIP3   OH234192   0.435   5.824   0.183  0.3990  0.6176 -0.0151
 4234TIP3    H134193   0.460   5.846   0.272  0.6341  0.3104 -0.0072
 4234TIP3    H234194   0.515   5.836   0.132  1.5257 -3.4320  0.4961
 4235TIP3   OH234195   0.439   6.681   5.155 -0.0798 -0.4438 -0.1282
 4235TIP3    H134196   0.461   6.756   5.099 -0.0748 -1.2385 -1.2117
 4235TIP3    H234197   0.516   6.624   5.151  0.0941 -0.3262  1.0439
 4236TIP3   OH234198   6.575   5.483  16.752  0.1304  0.2372  0.5380
 4236TIP3    H134199   6.559   5.451  16.664 -0.7578 -1.8570  1.3834
 4236TIP3    H234200   6.602   5.574  16.741 -1.4789  0.5137 -1.7860
 4237TIP3   OH234201   4.583   2.038   1.360  0.3101 -0.3247 -0.0880
 4237TIP3    H134202   4.598   2.108   1.296 -0.6837  0.4818  0.5382
 4237TIP3    H234203   4.572   1.959   1.308 -1.6744  0.5148 -1.0092
 4238TIP3   OH234204   0.017   2.953  12.841 -0.1066  0.1832 -0.1314
 4238TIP3    H134205   0.083   2.900  12.885 -0.6308 -0.5215 -0.1829
 4238TIP3    H234206  -0.003   3.022  12.904  0.3573  0.1461  0.0611
 4239TIP3   OH234207   4.560   0.479  17.037  0.5452  0.0300 -0.0831
 4239TIP3    H134208   4.494   0.425  17.079  1.5570 -0.3348  1.0746
 4239TIP3    H234209   4.613   0.418  16.986 -0.1594  0.3620 -1.2649
 4240TIP3   OH234210   1.605   1.679   4.991 -0.1831  0.0347  0.2552
 4240TIP3    H134211   1.658   1.672   4.912  0.1693  0.2035  0.4759
 4240TIP3    H234212   1.661   1.644   5.060 -0.4555 -0.0254  0.4478
 4241TIP3   OH234213   1.999   2.365   3.745  0.2291 -0.1533  0.0830
 4241TIP3    H134214   2.049   2.284   3.739  1.2575  0.4289  0.3663
 4241TIP3    H234215   1.907   2.339   3.739  0.4483 -1.5308  2.0792
 4242TIP3   OH234216   2.312   4.379  14.465  0.8709 -0.3058  0.0681
 4242TIP3    H134217   2.389   4.431  14.443  0.6955 -0.3930 -0.7978
 4242TIP3    H234218   2.338   4.289  14.445  0.1348 -0.2054 -1.4530
 4243TIP3   OH234219   4.790   2.888  16.443  0.1560  0.1840  0.5592
 4243TIP3    H134220   4.794   2.836  16.362 -2.3920 -0.2295  0.6132
 4243TIP3    H234221   4.827   2.830  16.510 -1.2113 -1.0143  0.3347
 4244TIP3   OH234222   5.712   4.999  16.057  0.3431 -0.2642  0.0999
 4244TIP3    H134223   5.753   5.017  16.141 -0.4212 -0.7512  0.5861
 4244TIP3    H234224   5.751   4.915  16.030 -0.4995 -0.8573  0.6838
 4245TIP3   OH234225   1.821   1.779  12.629  0.2163  0.1251  0.4788
 4245TIP3    H134226   1.779   1.790  12.714  0.0013  1.2246  0.2340
 4245TIP3    H234227   1.834   1.867  12.596  0.3440 -0.2825 -0.6158
 4246TIP3   OH234228   3.708   5.538  10.976  0.2038 -0.2097  0.6912
 4246TIP3    H134229   3.716   5.459  10.922  2.1683  0.6871 -0.4182
 4246TIP3    H234230   3.664   5.601  10.920  0.6641  0.1830  0.7680
 4247TIP3   OH234231   2.172   5.212  17.140 -0.0673 -0.0428 -0.2806
 4247TIP3    H134232   2.224   5.284  17.104  1.7915 -0.8034  0.7191
 4247TIP3    H234233   2.082   5.234  17.117  0.6654  1.3726 -2.0650
 4248TIP3   OH234234   4.430   4.356   5.053 -0.1518  0.1113  0.5759
 4248TIP3    H134235   4.373   4.294   5.100 -1.9330  1.8143  0.8050
 4248TIP3    H234236   4.470   4.304   4.984 -1.9238 -1.2154  0.4842
 4249TIP3   OH234237   3.667   6.797  14.637 -0.2243 -0.3661  0.0557
 4249TIP3    H134238   3.714   6.774  14.717 -1.6565  0.0701  1.0622
 4249TIP3    H234239   3.608   6.868  14.663 -0.1162  0.3862 -1.6001
 4250TIP3   OH234240   2.355   4.425  14.098  0.3919  0.0957 -0.2671
 4250TIP3    H134241   2.345   4.511  14.139 -0.9342  0.2805 -0.9191
 4250TIP3    H234242   2.365   4.444  14.005 -0.9244 -0.4646 -0.5551
 4251TIP3   OH234243   5.307   0.842   1.683  0.2250 -0.0078  0.0820
 4251TIP3    H134244   5.314   0.878   1.594 -2.1684  1.0730  0.2401
 4251TIP3    H234245   5.227   0.882   1.718  0.8466 -0.7909  2.5647
 4252TIP3   OH234246   3.278   4.387  13.172  0.2011 -0.2524 -0.4139
 4252TIP3    H134247   3.357   4.439  13.183 -1.0057  1.3781  1.0961
 4252TIP3    H234248   3.286   4.349  13.085  1.2065  2.4166 -1.5964
 4253TIP3   OH234249   5.673   2.589   2.168 -0.8909 -0.1472 -0.2008
 4253TIP3    H134250   5.752   2.580   2.114  0.4020 -2.0057  1.8256
 4253TIP3    H234251   5.609   2.531   2.125  0.3203 -2.1016  0.5196
 4254TIP3   OH234252   1.840   3.067   5.271  0.0674 -0.1127 -0.5120
 4254TIP3    H134253   1.785   3.003   5.317  0.9938 -0.9798 -0.5853
 4254TIP3    H234254   1.902   3.097   5.337  0.3835 -0.1670 -0.7835
 4255TIP3   OH234255   3.461   5.171  16.961  0.1367 -0.3129 -0.3125
 4255TIP3    H134256   3.491   5.094  16.913  1.1926  0.2399 -0.5759
 4255TIP3    H234257   3.455   5.240  16.895  1.7036  0.4860  0.3065
 4256TIP3   OH234258   1.114   0.927   5.400  0.4891  0.0013  0.0388
 4256TIP3    H134259   1.036   0.947   5.452 -0.9070  0.1035 -1.9849
 4256TIP3    H234260   1.168   0.872   5.457 -0.2119  1.3569  2.1244
 4257TIP3   OH234261   4.371   2.118  16.063  0.3237 -0.2904  0.0449
 4257TIP3    H134262   4.309   2.050  16.089  0.5241 -0.6584 -0.4397
 4257TIP3    H234263   4.324   2.200  16.081  0.8642 -0.4641  2.6499
 4258TIP3   OH234264   3.702   0.296   2.618 -0.6487  0.5524  0.6373
 4258TIP3    H134265   3.726   0.387   2.599 -0.5203  0.2437 -0.7515
 4258TIP3    H234266   3.757   0.243   2.561 -2.1805 -0.3111 -0.1116
 4259TIP3   OH234267   0.380   0.881   5.674  0.2486  0.2092 -0.8704
 4259TIP3    H134268   0.340   0.967   5.662 -0.8280 -0.5615 -3.4077
 4259TIP3    H234269   0.457   0.882   5.618  0.6663 -0.2182 -0.3120
 4260TIP3   OH234270   4.815   4.065   2.698 -0.6010 -0.1156 -0.1325
 4260TIP3    H134271   4.842   4.128   2.764  0.8903  0.7560 -1.4908
 4260TIP3    H234272   4.755   4.114   2.642  0.0243 -0.0716 -0.7896
 4261TIP3   OH234273   1.203   5.932   4.270 -0.1273 -0.0819  0.3526
 4261TIP3    H134274   1.165   5.926   4.358  0.6678  1.1893  0.8100
 4261TIP3    H234275   1.278   5.990   4.281  0.6464 -0.8159 -0.9630
 4262TIP3   OH234276   5.641   2.903  14.462 -0.5824  0.6237  0.3807
 4262TIP3    H134277   5.608   2.980  14.508 -0.4302 -0.0388  1.6442
 4262TIP3    H234278   5.724   2.883  14.505 -0.4501 -0.0500 -0.1646
 4263TIP3   OH234279   0.451   3.062   6.011 -0.6715 -0.8094 -0.1468
 4263TIP3    H134280   0.520   3.006   6.048 -0.1005  0.4228  0.7100
 4263TIP3    H234281   0.388   3.074   6.082 -0.3819  0.2669 -0.0531
 4264TIP3   OH234282   1.954   5.635  13.536  0.2908 -0.0048  0.2294
 4264TIP3    H134283   1.964   5.540  13.536  0.1664 -0.0366 -1.6142
 4264TIP3    H234284   2.044   5.669  13.540  0.3202 -0.1711  1.3291
 4265TIP3   OH234285   0.073   5.188  14.605  0.2685 -0.5937  0.6234
 4265TIP3    H134286   0.059   5.138  14.685  0.0141 -0.0048  0.9553
 4265TIP3    H234287  -0.008   5.236  14.591 -0.1014 -1.5305 -0.6115
 4266TIP3   OH234288   4.359   5.990  13.610  0.0049 -0.4087  0.4304
 4266TIP3    H134289   4.392   5.946  13.531  0.3136 -0.5830  0.6549
 4266TIP3    H234290   4.425   6.056  13.630 -0.7394  0.5698 -0.2409
 4267TIP3   OH234291   2.293   4.096  15.661 -0.4315  0.2293 -0.1862
 4267TIP3    H134292   2.320   4.009  15.633  1.3871  0.8901 -0.6559
 4267TIP3    H234293   2.263   4.139  15.580 -2.6987 -0.3710  0.2687
 4268TIP3   OH234294   5.732   2.438   1.836 -0.4561 -0.6497  0.0339
 4268TIP3    H134295   5.755   2.527   1.865 -0.3905 -0.8646  0.6555
 4268TIP3    H234296   5.813   2.388   1.844 -0.7299 -1.0084  0.6590
 4269TIP3   OH234297   2.622   3.848  13.551 -0.0101  0.3604 -0.4160
 4269TIP3    H134298   2.631   3.758  13.520  0.1767  0.6059 -1.0900
 4269TIP3    H234299   2.535   3.875  13.523 -0.5949 -0.0322  0.9269
 4270TIP3   OH234300   1.220   5.691   2.493  0.1076  0.2870 -0.1058
 4270TIP3    H134301   1.293   5.661   2.548  0.2324 -0.7087 -0.7875
 4270TIP3    H234302   1.177   5.610   2.464 -1.8147  0.8726  0.9760
 4271TIP3   OH234303   4.226   2.075  14.962  0.5335  0.0845  0.8639
 4271TIP3    H134304   4.206   2.126  15.040 -2.0075  0.3423  0.1276
 4271TIP3    H234305   4.282   2.133  14.909  2.4162 -0.1565  2.4679
 4272TIP3   OH234306   0.091   0.359   0.356  0.7653 -0.2108 -0.2202
 4272TIP3    H134307   0.059   0.372   0.267  2.3298 -0.1759 -0.8205
 4272TIP3    H234308   0.016   0.375   0.412 -0.1832  0.0258 -1.5257
 4273TIP3   OH234309   4.504   4.256   0.877 -0.0730  0.4632 -0.2001
 4273TIP3    H134310   4.483   4.168   0.908 -0.1647  1.3000  2.4394
 4273TIP3    H234311   4.580   4.245   0.821 -1.4939 -1.5232 -1.8756
 4274TIP3   OH234312   0.373   4.691  16.658 -0.2053 -0.3051 -0.2911
 4274TIP3    H134313   0.434   4.685  16.731 -1.4465  2.0102  1.0445
 4274TIP3    H234314   0.412   4.755  16.599 -0.7509  0.2621 -0.0396
 4275TIP3   OH234315   5.059   3.766   5.669  0.0592  0.2748  1.0469
 4275TIP3    H134316   5.070   3.792   5.760 -0.4547  0.7749  0.9697
 4275TIP3    H234317   4.966   3.748   5.660  0.3134 -1.1017  0.9565
 4276TIP3   OH234318   4.690   3.552   2.392 -0.3938  0.1225 -0.1718
 4276TIP3    H134319   4.704   3.639   2.355  2.1963 -0.9149 -1.9897
 4276TIP3    H234320   4.689   3.494   2.316  0.4405 -1.6545  1.1154
 4277TIP3   OH234321   5.032   0.321   4.539 -0.0688  0.4583 -0.3444
 4277TIP3    H134322   5.117   0.354   4.511 -0.0447  0.6093 -0.0957
 4277TIP3    H234323   5.013   0.249   4.479  1.0201 -0.6947  0.6323
 4278TIP3   OH234324   2.902   5.336  15.955 -0.1957 -0.1088  0.6686
 4278TIP3    H134325   2.982   5.298  15.990  0.1212 -1.4122 -1.3034
 4278TIP3    H234326   2.849   5.261  15.930 -1.7959  0.7418  1.3340
 4279TIP3   OH234327   5.749   1.351  15.626  0.7696 -0.1936 -0.3918
 4279TIP3    H134328   5.801   1.397  15.692 -0.0908 -0.5725  0.5581
 4279TIP3    H234329   5.715   1.421  15.570  3.0814  0.0286 -1.6887
 4280TIP3   OH234330   3.118   2.820   5.708  0.5274 -0.4594 -0.6335
 4280TIP3    H134331   3.038   2.778   5.677  0.3826 -0.0588 -0.8156
 4280TIP3    H234332   3.166   2.841   5.628 -0.4762  1.8171 -0.7279
 4281TIP3   OH234333   1.425   5.742   1.350 -0.8581  0.5163  0.6718
 4281TIP3    H134334   1.507   5.698   1.375 -0.6388  0.9716  0.7673
 4281TIP3    H234335   1.357   5.677   1.367 -0.5408  0.2220  0.8331
 4282TIP3   OH234336   3.292   3.836   4.172  0.1430  0.1449 -0.3063
 4282TIP3    H134337   3.330   3.908   4.224 -0.4586 -0.4641  1.0129
 4282TIP3    H234338   3.204   3.825   4.208  0.6409 -2.0482  0.3737
 4283TIP3   OH234339   5.903   2.496   2.619 -0.3654  0.0640  0.4641
 4283TIP3    H134340   5.864   2.410   2.631 -1.3851  0.1788 -1.6355
 4283TIP3    H234341   5.841   2.557   2.660 -0.3463 -0.0762  0.7049
 4284TIP3   OH234342   3.031   0.120   3.788 -0.4232  0.2902  0.7294
 4284TIP3    H134343   2.975   0.054   3.828 -1.2665  0.5983  0.0914
 4284TIP3    H234344   2.973   0.195   3.773  0.3068  0.8498  0.6348
 4285TIP3   OH234345   2.719   4.029   3.374 -0.0838 -0.3326 -0.2824
 4285TIP3    H134346   2.750   4.110   3.333  1.2899 -0.0628  1.1794
 4285TIP3    H234347   2.636   4.053   3.415 -0.3585 -0.0339 -1.0003
 4286TIP3   OH234348   5.838   2.588   4.035  0.4402 -0.1245  0.1836
 4286TIP3    H134349   5.798   2.631   4.111  0.5294  1.1374 -0.4451
 4286TIP3    H234350   5.796   2.503   4.030 -0.6724  0.3697  0.7610
 4287TIP3   OH234351   6.783   3.145  17.005  0.0627  0.6311 -0.2630
 4287TIP3    H134352   6.714   3.210  16.994 -1.3389 -0.7679 -0.1733
 4287TIP3    H234353   6.747   3.065  16.966  1.1317 -0.4545  0.8688
 4288TIP3   OH234354   2.311   1.940  15.628  0.0291  0.2815  0.2428
 4288TIP3    H134355   2.370   1.892  15.569 -1.7474 -0.8045 -0.7505
 4288TIP3    H234356   2.232   1.954  15.576 -1.1618  0.3424  1.9853
 4289TIP3   OH234357   2.747   0.855   5.554  0.3688  0.2294 -0.0506
 4289TIP3    H134358   2.815   0.835   5.490  1.3741 -0.3413  1.1502
 4289TIP3    H234359   2.760   0.790   5.623  0.2804  1.7204  1.4276
 4290TIP3   OH234360   4.928   1.238   4.985 -0.3111  0.8944 -0.0026
 4290TIP3    H134361   4.880   1.295   5.044  0.3588  1.7553 -0.2618
 4290TIP3    H234362   5.014   1.228   5.026 -0.3396  0.2387 -0.0775
 4291TIP3   OH234363   4.033   1.460  12.254 -0.3016 -0.3927  0.1733
 4291TIP3    H134364   4.102   1.454  12.321  0.7464 -1.6850 -0.9602
 4291TIP3    H234365   3.985   1.540  12.276  1.3559  0.3788  1.2035
 4292TIP3   OH234366   5.105   3.433   1.434  0.1919 -0.2755  0.3190
 4292TIP3    H134367   5.188   3.389   1.454 -0.0687  0.3138  3.1038
 4292TIP3    H234368   5.131   3.514   1.390  0.8960 -1.3697 -1.3438
 4293TIP3   OH234369   2.964   5.816   3.568  0.0399 -0.0406 -0.4703
 4293TIP3    H134370   2.900   5.820   3.639 -1.1461 -0.4345 -1.4951
 4293TIP3    H234371   3.034   5.761   3.603 -1.6518 -2.3236 -0.4187
 4294TIP3   OH234372   0.435   2.034  16.191 -0.2804  0.4874 -0.2789
 4294TIP3    H134373   0.465   2.121  16.167  0.0883  0.1765 -0.9819
 4294TIP3    H234374   0.440   1.983  16.110 -1.1009 -0.0189 -0.0257
 4295TIP3   OH234375   3.320   6.292   1.475 -0.3552  0.4913 -0.2677
 4295TIP3    H134376   3.400   6.316   1.523 -1.8913  0.4890  2.5039
 4295TIP3    H234377   3.334   6.201   1.449  0.5502  0.5006  0.1361
 4296TIP3   OH234378   6.134   0.254  13.512  0.1017 -0.4214  0.0112
 4296TIP3    H134379   6.220   0.295  13.512  0.3163 -0.8478 -0.7078
 4296TIP3    H234380   6.146   0.173  13.462 -0.8163 -0.2703 -0.4691
 4297TIP3   OH234381   2.170   3.194   3.210 -0.2232 -0.3660  0.7666
 4297TIP3    H134382   2.196   3.139   3.136  0.5888  0.8595  0.0973
 4297TIP3    H234383   2.100   3.249   3.175  0.2400  0.2961  0.8465
 4298TIP3   OH234384   4.963   0.322  11.217 -0.2349  0.0147  0.1885
 4298TIP3    H134385   4.984   0.387  11.151 -0.3080 -0.3880 -0.2389
 4298TIP3    H234386   5.020   0.247  11.197  2.3295  1.1077  2.6658
 4299TIP3   OH234387   2.860   0.481  15.059  0.2793  0.4034  0.0484
 4299TIP3    H134388   2.924   0.411  15.066 -0.1047  0.0850  0.5064
 4299TIP3    H234389   2.872   0.517  14.971  0.8165  0.0956 -0.0074
 4300TIP3   OH234390   0.867   1.317   2.145 -0.2681 -0.0841  0.1498
 4300TIP3    H134391   0.930   1.309   2.216 -0.0516  1.8920  0.2317
 4300TIP3    H234392   0.917   1.298   2.066  0.3049  0.8417  0.2724
 4301TIP3   OH234393   0.541   2.036  16.623 -0.5185 -0.0328  0.3658
 4301TIP3    H134394   0.467   1.984  16.591 -0.2172 -0.3623  0.1958
 4301TIP3    H234395   0.516   2.126  16.604 -0.1570 -0.2345 -1.2741
 4302TIP3   OH234396   4.521   0.366   3.435 -0.4648 -0.0298 -0.3568
 4302TIP3    H134397   4.487   0.280   3.410 -0.5460  0.0361 -0.4735
 4302TIP3    H234398   4.539   0.358   3.529  0.0749 -0.3543 -0.4835
 4303TIP3   OH234399   6.702   0.512   5.749 -0.4280 -0.1011 -0.0551
 4303TIP3    H134400   6.687   0.596   5.792 -1.0779 -0.1147 -0.2477
 4303TIP3    H234401   6.750   0.461   5.814  0.6178  0.6610 -0.2134
 4304TIP3   OH234402   2.225   1.055  16.678  0.1098  0.2371  0.1311
 4304TIP3    H134403   2.250   0.977  16.628 -0.8445 -0.0022  0.0090
 4304TIP3    H234404   2.187   1.114  16.613 -0.3500  0.2762  0.4318
 4305TIP3   OH234405   4.749   0.688   3.765 -0.4860 -0.1992 -0.2113
 4305TIP3    H134406   4.657   0.666   3.749 -0.0914 -0.1412 -3.3178
 4305TIP3    H234407   4.789   0.606   3.793 -1.8428  0.3270  3.9557
 4306TIP3   OH234408   0.667   1.708   2.097  0.0836 -0.6392 -0.7998
 4306TIP3    H134409   0.625   1.774   2.043  1.9095 -0.5701 -2.1932
 4306TIP3    H234410   0.644   1.733   2.187  0.1517  1.4630 -1.3242
 4307TIP3   OH234411   0.738   1.108   1.781  0.2355 -0.2795  0.2401
 4307TIP3    H134412   0.820   1.116   1.830 -0.1239  0.4268  0.7548
 4307TIP3    H234413   0.678   1.168   1.826  0.2285  1.3436 -1.8149
 4308TIP3   OH234414   5.231   1.820  14.318 -0.2125  0.5820 -0.4885
 4308TIP3    H134415   5.275   1.865  14.390  1.0046 -2.5378  0.9292
 4308TIP3    H234416   5.302   1.791  14.261 -0.8293 -0.1809 -0.8969
 4309TIP3   OH234417   1.161   2.756   0.961 -0.1409  0.1551  0.3025
 4309TIP3    H134418   1.067   2.744   0.960  0.1143 -2.5012  1.3330
 4309TIP3    H234419   1.185   2.771   0.869 -1.5223  0.9643  0.0501
 4310TIP3   OH234420   1.712   4.038  14.691  0.8365 -0.2361 -0.9251
 4310TIP3    H134421   1.626   4.012  14.656  1.6972 -1.4335 -2.2841
 4310TIP3    H234422   1.717   4.132  14.672  0.2868 -0.3842 -1.9244
 4311TIP3   OH234423   0.893   5.022  12.248  0.3066 -0.9306  0.8187
 4311TIP3    H134424   0.951   5.031  12.173 -1.3961 -0.2658 -0.4920
 4311TIP3    H234425   0.805   5.026  12.210 -0.6422  1.1384  2.9993
 4312TIP3   OH234426   4.993   3.671  14.428 -0.4196  0.0800 -0.0484
 4312TIP3    H134427   4.915   3.640  14.473  0.6464  0.4280  2.1628
 4312TIP3    H234428   5.051   3.595  14.425  0.0628  0.4187  0.4617
 4313TIP3   OH234429   0.952   5.757   4.645  0.5981 -0.2269  0.6960
 4313TIP3    H134430   0.914   5.675   4.613  1.3666 -0.1783 -0.4221
 4313TIP3    H234431   1.043   5.735   4.667  0.5935  0.1590  1.1144
 4314TIP3   OH234432   2.006   3.933   0.355  0.1219  0.3543  0.3317
 4314TIP3    H134433   2.062   3.944   0.279  1.2106 -1.4733  0.8134
 4314TIP3    H234434   1.945   3.863   0.331  0.6906 -0.4798  1.2055
 4315TIP3   OH234435   2.773   1.268   4.282 -0.0816 -0.1494  0.3020
 4315TIP3    H134436   2.708   1.337   4.298 -0.5091 -0.6762  0.9308
 4315TIP3    H234437   2.731   1.188   4.316 -0.7365 -1.2532 -2.7514
 4316TIP3   OH234438   0.527   4.319  12.541  0.2180  0.2480 -0.3643
 4316TIP3    H134439   0.595   4.349  12.600  0.0147 -0.1289  0.0638
 4316TIP3    H234440   0.561   4.236  12.506 -1.1781 -1.4357  1.9840
 4317TIP3   OH234441   2.662   2.101   0.788  0.1594  0.2915  0.0195
 4317TIP3    H134442   2.637   2.095   0.696 -0.6619 -0.0372  0.2488
 4317TIP3    H234443   2.725   2.173   0.792 -0.8016  1.1995 -0.5975
 4318TIP3   OH234444   4.343   4.142  12.682 -0.5811 -0.5470 -0.0304
 4318TIP3    H134445   4.380   4.130  12.595  0.4437  1.5563  0.0569
 4318TIP3    H234446   4.340   4.237  12.695  0.6881 -0.7789  2.7739
 4319TIP3   OH234447   5.316   0.199   3.131 -0.3188 -0.0234  0.1965
 4319TIP3    H134448   5.341   0.107   3.141 -0.7547 -0.0110  1.5821
 4319TIP3    H234449   5.379   0.234   3.068  1.9840 -0.4710  2.0903
 4320TIP3   OH234450   2.184   4.395   4.414  0.1251 -0.2118  0.1707
 4320TIP3    H134451   2.136   4.463   4.461  0.3252  0.4342 -0.5253
 4320TIP3    H234452   2.132   4.380   4.335  0.7755  0.1012 -0.3219
 4321TIP3   OH234453   5.847   1.258   4.770 -0.0551  0.3050 -0.7280
 4321TIP3    H134454   5.872   1.211   4.850 -0.0460 -1.7201 -1.8385
 4321TIP3    H234455   5.754   1.275   4.780 -0.5580 -1.9116 -1.1645
 4322TIP3   OH234456   4.169   1.216  16.670 -0.2960  0.2386  0.1849
 4322TIP3    H134457   4.139   1.284  16.609 -0.6321 -0.7451 -0.7738
 4322TIP3    H234458   4.089   1.188  16.715 -0.4033 -0.5269 -0.4652
 4323TIP3   OH234459   2.645   2.396   4.252  0.4567  0.2211 -0.2077
 4323TIP3    H134460   2.592   2.439   4.184 -0.9174  0.0222  0.6881
 4323TIP3    H234461   2.702   2.336   4.204 -0.6271 -0.0737 -1.1801
 4324TIP3   OH234462   1.419   3.103  16.558 -0.1573 -0.0089  0.0760
 4324TIP3    H134463   1.381   3.182  16.519 -1.6259  0.1731  1.7333
 4324TIP3    H234464   1.482   3.137  16.622  0.1377 -0.1996 -0.1201
 4325TIP3   OH234465   2.869   3.718   4.685 -0.3407 -0.2816 -0.5101
 4325TIP3    H134466   2.836   3.677   4.605  2.9106 -0.8802 -1.6676
 4325TIP3    H234467   2.885   3.644   4.744 -2.6425  0.1504  0.7980
 4326TIP3   OH234468   4.018   3.082  11.423 -0.1785  0.1240  0.1207
 4326TIP3    H134469   3.954   3.059  11.356  0.4260 -0.0787 -0.3982
 4326TIP3    H234470   3.968   3.083  11.505 -0.7564 -0.4305 -0.2160
 4327TIP3   OH234471   2.030   4.072   0.106 -0.1188  0.7209  0.5694
 4327TIP3    H134472   2.073   4.137   0.051 -0.4283  2.1937  1.9767
 4327TIP3    H234473   1.945   4.057   0.065  0.6337 -0.1758 -0.7361
 4328TIP3   OH234474   4.856   1.810  15.852 -0.2231 -0.2854  0.0406
 4328TIP3    H134475   4.830   1.783  15.940 -0.3421  0.4890  0.2552
 4328TIP3    H234476   4.950   1.794  15.849 -0.3719 -1.1924 -0.0238
 4329TIP3   OH234477   3.911   5.937   3.141  0.2836 -0.6760 -0.1903
 4329TIP3    H134478   3.908   5.843   3.129  0.5662 -0.9281  1.3918
 4329TIP3    H234479   3.834   5.971   3.096 -0.0255 -1.6996 -0.4392
 4330TIP3   OH234480   3.531   2.043  10.765  0.1521  0.3856  0.5669
 4330TIP3    H134481   3.553   2.119  10.819 -0.3495  2.1421 -1.5629
 4330TIP3    H234482   3.504   2.080  10.681 -1.7050 -2.0867 -0.0491
 4331TIP3   OH234483   5.095   2.104   6.002 -0.0774 -1.0578 -0.5366
 4331TIP3    H134484   5.145   2.173   6.045  0.5525 -1.4056 -0.7126
 4331TIP3    H234485   5.012   2.101   6.051 -0.3196  0.1466 -0.8232
 4332TIP3   OH234486   5.558   0.021   0.525  0.1100  0.3983  0.1543
 4332TIP3    H134487   5.630  -0.036   0.497 -0.2052 -0.1079  0.3574
 4332TIP3    H234488   5.548   0.004   0.618  0.8290  1.7221  0.4774
 4333TIP3   OH234489   5.861   4.128   1.517  0.5587 -0.4805  0.6866
 4333TIP3    H134490   5.777   4.173   1.507 -0.2631 -1.6274  1.9792
 4333TIP3    H234491   5.854   4.082   1.601  3.3507  1.1804  1.9728
 4334TIP3   OH234492   3.113   1.022   3.947 -0.3248 -0.1156  0.0814
 4334TIP3    H134493   3.202   1.045   3.974  2.3720 -0.5092 -6.6079
 4334TIP3    H234494   3.115   0.926   3.940 -0.6278 -0.0241 -1.5973
 4335TIP3   OH234495   5.716   0.496   5.485  0.7578 -0.0063 -0.3538
 4335TIP3    H134496   5.731   0.578   5.437  1.2430  0.1869  0.1213
 4335TIP3    H234497   5.681   0.524   5.569  2.3176 -0.1959  0.3846
 4336TIP3   OH234498   6.819   2.897   5.284  0.3041 -0.6270  0.2766
 4336TIP3    H134499   6.787   2.829   5.343  0.3713 -3.4410 -2.6228
 4336TIP3    H234500   6.759   2.894   5.210  1.6045  0.9704 -0.9223
 4337TIP3   OH234501   1.258   4.871   1.591 -0.1739 -0.3548 -0.2156
 4337TIP3    H134502   1.256   4.849   1.498  1.7723  2.4268 -1.0644
 4337TIP3    H234503   1.182   4.929   1.603  1.3411  1.9525 -1.0023
 4338TIP3   OH234504   4.268   0.239   2.617 -0.3330  0.0859 -0.3819
 4338TIP3    H134505   4.306   0.162   2.574 -1.5057  0.1290 -1.5725
 4338TIP3    H234506   4.225   0.205   2.695  1.8331  0.0012  0.8440
 4339TIP3   OH234507   5.876   6.387   0.441 -0.2190  0.4123  0.1887
 4339TIP3    H134508   5.788   6.386   0.479  0.5321 -0.3399  2.0115
 4339TIP3    H234509   5.923   6.452   0.493  0.3439  0.7532 -0.7281
 4340TIP3   OH234510   5.500   0.679  11.612 -0.1252  0.0938  0.1850
 4340TIP3    H134511   5.575   0.727  11.647 -1.9948  2.5772  1.0723
 4340TIP3    H234512   5.460   0.636  11.688 -1.8258  2.1238  0.5442
 4341TIP3   OH234513   3.451   0.213  17.155  0.8360  0.2144 -0.2661
 4341TIP3    H134514   3.485   0.149  17.093  1.5099  0.6441 -0.3469
 4341TIP3    H234515   3.517   0.281  17.159 -0.4547  1.5865 -1.1837
 4342TIP3   OH234516   6.025   0.531   4.306  0.2318  0.6597 -0.4072
 4342TIP3    H134517   6.044   0.468   4.237 -0.5969 -0.5490  0.4260
 4342TIP3    H234518   5.940   0.503   4.341 -0.2436  2.3450 -0.1248
 4343TIP3   OH234519   0.747   2.417  12.689 -0.0968  0.0097 -0.1390
 4343TIP3    H134520   0.723   2.410  12.782 -1.1035 -1.4668 -0.4873
 4343TIP3    H234521   0.755   2.327  12.659  0.3868  0.4694 -1.4551
 4344TIP3   OH234522   4.367   0.494  12.871  0.0515  0.2339  0.3570
 4344TIP3    H134523   4.444   0.440  12.887  1.7551  1.9563 -1.5043
 4344TIP3    H234524   4.294   0.432  12.870  1.3732 -1.4551  2.1290
 4345TIP3   OH234525   6.053   3.285   4.716 -0.2417  0.5350  0.0706
 4345TIP3    H134526   6.006   3.201   4.715 -0.9913  0.9489 -0.6555
 4345TIP3    H234527   6.034   3.322   4.802 -0.3597  0.2080  0.1861
 4346TIP3   OH234528   3.584   3.108  15.595  0.0557 -0.0516  0.8865
 4346TIP3    H134529   3.581   3.073  15.685  1.2117 -0.0343  0.9482
 4346TIP3    H234530   3.508   3.069  15.552 -0.2919 -0.3780  1.7615
 4347TIP3   OH234531   3.618   3.451   5.130 -0.1164 -0.0992 -0.1910
 4347TIP3    H134532   3.675   3.512   5.083  1.1606 -1.9201 -1.1631
 4347TIP3    H234533   3.677   3.384   5.164 -1.1652  0.4085  2.9808
 4348TIP3   OH234534   5.157   2.578  10.616  0.0493  0.1439  0.6582
 4348TIP3    H134535   5.240   2.585  10.568  0.7777  3.6581  2.1387
 4348TIP3    H234536   5.168   2.500  10.671  0.8697 -1.4956 -1.7034
 4349TIP3   OH234537   2.062   6.617  13.632 -0.3595  0.1276  0.2823
 4349TIP3    H134538   2.008   6.590  13.707  1.0466  1.1068  1.6952
 4349TIP3    H234539   2.006   6.678  13.584 -1.0412 -0.0030  0.8827
 4350TIP3   OH234540   0.498   5.032   6.536 -0.6209 -0.6407  0.1598
 4350TIP3    H134541   0.488   4.989   6.621  0.0599  3.1904  2.4506
 4350TIP3    H234542   0.591   5.024   6.515 -0.3720  0.1915  0.9026
 4351TIP3   OH234543   0.965   4.649   2.223 -0.2283  0.1447  0.4197
 4351TIP3    H134544   0.908   4.614   2.291  0.1409  0.9871  1.1873
 4351TIP3    H234545   0.970   4.579   2.157 -2.1450  0.0516  0.3041
 4352TIP3   OH234546   4.110   2.919  14.620 -0.0668  0.7840  0.5130
 4352TIP3    H134547   4.093   2.987  14.685  1.7762 -0.0632  1.9769
 4352TIP3    H234548   4.201   2.934  14.593  0.5046 -1.2809  1.1554
 4353TIP3   OH234549   3.089   1.873   6.246 -0.4157 -0.3693  0.1876
 4353TIP3    H134550   3.021   1.918   6.196 -1.1861  1.0043  2.3439
 4353TIP3    H234551   3.087   1.783   6.213 -2.7061 -0.1610 -0.4003
 4354TIP3   OH234552   4.665   2.964  13.453  0.3573  0.2611 -0.0710
 4354TIP3    H134553   4.580   3.006  13.468 -0.4620 -1.2489 -0.3147
 4354TIP3    H234554   4.661   2.884  13.504  0.7929 -0.8624 -1.7241
 4355TIP3   OH234555   0.469   5.636  12.927 -0.0855 -0.1031 -0.2705
 4355TIP3    H134556   0.384   5.666  12.961  0.3268  0.6226  0.1349
 4355TIP3    H234557   0.507   5.713  12.885  0.8631 -0.1175  0.5268
 4356TIP3   OH234558   1.252   2.167   1.163 -0.3092  0.4704  0.1190
 4356TIP3    H134559   1.312   2.241   1.155 -0.7694  0.9796  1.1933
 4356TIP3    H234560   1.306   2.090   1.143  0.5724  0.9682  0.5162
 4357TIP3   OH234561   4.098   5.349  14.941 -0.4637 -0.2285  0.7004
 4357TIP3    H134562   4.044   5.327  15.017  0.5165  0.7202  1.6852
 4357TIP3    H234563   4.142   5.266  14.919  1.1329  0.0216  2.7157
 4358TIP3   OH234564   6.631   0.443  11.652 -0.1683  0.0902  0.4742
 4358TIP3    H134565   6.537   0.427  11.642 -0.2185 -1.2929  2.5144
 4358TIP3    H234566   6.669   0.417  11.568 -1.6376  1.3098 -0.6115
 4359TIP3   OH234567   0.372   3.816  14.568  0.2455 -0.0951 -0.2744
 4359TIP3    H134568   0.353   3.725  14.589  0.3233  0.2672  1.5250
 4359TIP3    H234569   0.384   3.858  14.653  1.4009  1.3422 -1.0982
 4360TIP3   OH234570   6.189   4.422  10.691  0.3102 -0.0600  0.3730
 4360TIP3    H134571   6.227   4.336  10.703 -0.0742  0.1127  3.6376
 4360TIP3    H234572   6.236   4.479  10.752  0.4581  2.0602 -1.5655
 4361TIP3   OH234573   3.168   1.904   3.952 -0.8303 -0.3215  0.2998
 4361TIP3    H134574   3.091   1.847   3.957 -1.5109  0.5321 -0.1134
 4361TIP3    H234575   3.178   1.921   3.859 -1.2330  1.0099  0.4851
 4362TIP3   OH234576   1.892   1.031  17.079  0.2300 -0.0264  0.0917
 4362TIP3    H134577   1.936   1.056  16.997  0.6641  0.9023  0.5901
 4362TIP3    H234578   1.956   0.979  17.126  0.3498  0.2859  0.2772
 4363TIP3   OH234579   1.121   0.839  12.321  0.5876 -0.5967 -0.0814
 4363TIP3    H134580   1.048   0.859  12.263  0.2780 -1.5660 -0.0289
 4363TIP3    H234581   1.107   0.896  12.397  0.1898 -0.3960 -0.3022
 4364TIP3   OH234582   1.964   2.971  13.758 -0.0739  0.1371  0.3541
 4364TIP3    H134583   1.918   3.044  13.800  1.5800  2.1697 -1.1222
 4364TIP3    H234584   1.963   2.993  13.665  0.2661 -1.9069 -0.1713
 4365TIP3   OH234585   0.204   5.691   2.338 -0.1509  0.6154  0.1174
 4365TIP3    H134586   0.247   5.684   2.253 -0.6135 -0.7472 -0.0245
 4365TIP3    H234587   0.111   5.702   2.318 -0.0080  3.1541  0.4328
 4366TIP3   OH234588   5.028   0.647   2.163  0.1459  0.1018 -0.0552
 4366TIP3    H134589   5.054   0.644   2.071 -0.2332  0.5417 -0.1820
 4366TIP3    H234590   4.988   0.733   2.174  0.3950  0.1442  0.5816
 4367TIP3   OH234591   2.653   0.381   3.632 -0.1177 -0.4723 -0.2201
 4367TIP3    H134592   2.632   0.294   3.667 -0.0542 -1.5281 -2.6386
 4367TIP3    H234593   2.739   0.371   3.592 -0.0523  0.7491 -0.4366
 4368TIP3   OH234594   1.795   5.644  11.052 -0.2646 -0.4086 -0.1291
 4368TIP3    H134595   1.851   5.689  10.988  1.1878 -0.5081  1.0319
 4368TIP3    H234596   1.855   5.589  11.102 -0.9722  1.2219  2.7096
 4369TIP3   OH234597   3.774   6.207   4.996  0.1990  0.1298 -0.4542
 4369TIP3    H134598   3.822   6.284   4.965  1.9804 -0.4143  0.7692
 4369TIP3    H234599   3.718   6.240   5.066  1.7294  0.2163  0.7914
 4370TIP3   OH234600   1.648   3.417  15.457 -0.1722 -0.8824  0.3567
 4370TIP3    H134601   1.670   3.331  15.420 -0.7886 -1.6403  1.6517
 4370TIP3    H234602   1.713   3.430  15.527  0.2709 -0.0158 -0.2012
 4371TIP3   OH234603   2.918   4.349  11.703  0.2825 -0.3019 -0.0952
 4371TIP3    H134604   2.832   4.391  11.709 -0.0018 -0.9271  0.3745
 4371TIP3    H234605   2.969   4.405  11.645 -0.2124  0.4753  0.2059
 4372TIP3   OH234606   3.521   4.993   0.312 -0.6973  0.5881 -0.0791
 4372TIP3    H134607   3.513   4.934   0.237  1.9147 -0.5098  0.4114
 4372TIP3    H234608   3.577   5.064   0.281  0.2386  0.2254  0.7522
 4373TIP3   OH234609   4.119   0.207  14.006  0.0940 -0.8824 -0.3478
 4373TIP3    H134610   4.103   0.115  13.984  0.7891 -1.1160  0.1086
 4373TIP3    H234611   4.032   0.244  14.022 -0.3581 -0.9812 -2.3598
 4374TIP3   OH234612   0.718   3.368   1.007  1.4338  0.5705  0.3260
 4374TIP3    H134613   0.689   3.396   0.919 -1.0366  1.0987  1.2158
 4374TIP3    H234614   0.801   3.324   0.992  1.4729  1.3417 -2.1907
 4375TIP3   OH234615   5.270   3.790   5.359  0.6648  0.5175 -0.0914
 4375TIP3    H134616   5.246   3.702   5.329 -0.3422  0.3421  1.1400
 4375TIP3    H234617   5.186   3.836   5.364  1.3619  2.3630 -3.0228
 4376TIP3   OH234618   6.629   0.024   1.279 -0.0461  0.2780  0.3270
 4376TIP3    H134619   6.662  -0.052   1.231  1.7044  0.3707  1.3030
 4376TIP3    H234620   6.541  -0.003   1.309  0.9839 -1.8773  1.6922
 4377TIP3   OH234621   5.038   5.070  17.190 -0.0819  0.1605 -0.3312
 4377TIP3    H134622   4.964   5.071  17.251 -0.4726  0.7355 -0.8033
 4377TIP3    H234623   5.105   5.018  17.235  0.7621  2.9273  1.9233
 4378TIP3   OH234624   0.316   6.381  13.341 -0.6754 -0.1181  0.2719
 4378TIP3    H134625   0.224   6.361  13.322 -0.3797 -1.6953  0.3357
 4378TIP3    H234626   0.343   6.313  13.402  1.3681 -1.6029 -2.0926
 4379TIP3   OH234627   0.327   3.518  15.458 -0.0802 -0.3148 -0.2888
 4379TIP3    H134628   0.267   3.447  15.435  1.2714 -1.4254 -0.4683
 4379TIP3    H234629   0.407   3.499  15.409  0.8420  0.4940  0.8539
 4380TIP3   OH234630   1.591   6.447   3.309 -0.3784 -0.3268  0.9416
 4380TIP3    H134631   1.636   6.378   3.358  3.0200  2.2542  1.8771
 4380TIP3    H234632   1.602   6.526   3.362 -1.3479  1.5580 -1.4456
 4381TIP3   OH234633   0.964   6.616   3.812 -0.8313 -0.3293  0.3608
 4381TIP3    H134634   1.002   6.696   3.776 -0.3586 -1.8687 -2.9415
 4381TIP3    H234635   0.869   6.632   3.809 -0.7501  0.0775 -0.4314
 4382TIP3   OH234636   3.678   1.601   2.681 -0.0297 -0.2141  0.6742
 4382TIP3    H134637   3.622   1.675   2.704 -0.3221 -0.7308  1.7163
 4382TIP3    H234638   3.735   1.590   2.757  0.4341 -0.6740  0.2680
 4383TIP3   OH234639   6.493   6.243   4.835 -0.6910  0.1408  0.5926
 4383TIP3    H134640   6.484   6.155   4.873  0.5893 -0.4216 -0.3193
 4383TIP3    H234641   6.501   6.301   4.911  0.2881 -0.7627  1.2117
 4384TIP3   OH234642   5.621   4.991  15.137  0.4423 -0.1389 -0.1533
 4384TIP3    H134643   5.577   5.066  15.099  2.0179  1.3238  0.7698
 4384TIP3    H234644   5.617   5.006  15.232  0.2931 -1.5134  0.0875
 4385TIP3   OH234645   2.010   0.639  11.111  0.0761  0.9247 -0.7394
 4385TIP3    H134646   1.923   0.675  11.093  0.5908  2.9697  0.5254
 4385TIP3    H234647   2.069   0.713  11.097  1.0889  1.0065  2.9621
 4386TIP3   OH234648   5.269   3.304   3.953  0.0538 -0.0483 -0.3989
 4386TIP3    H134649   5.175   3.290   3.966 -0.0865  0.4308 -0.8208
 4386TIP3    H234650   5.289   3.256   3.873 -0.2119  1.2369 -1.2713
 4387TIP3   OH234651   2.442   5.853   1.223 -0.5779 -0.1456 -0.7941
 4387TIP3    H134652   2.420   5.869   1.131 -1.2416 -0.0505 -0.6285
 4387TIP3    H234653   2.436   5.938   1.265 -0.2497 -0.1848 -0.6683
 4388TIP3   OH234654   0.140   4.460   2.335  0.5120  0.4275  0.3626
 4388TIP3    H134655   0.201   4.434   2.265  0.0828  0.8932 -0.1971
 4388TIP3    H234656   0.145   4.388   2.398 -0.5631 -1.0360 -1.0924
 4389TIP3   OH234657   0.252   0.634  14.069  0.2183  0.2492  0.1274
 4389TIP3    H134658   0.180   0.606  14.125  1.4297  0.0869  1.6652
 4389TIP3    H234659   0.307   0.556  14.059  0.4175  0.4810 -0.6761
 4390TIP3   OH234660   1.729   6.481   1.339  0.6962 -0.0381 -0.0204
 4390TIP3    H134661   1.704   6.562   1.384  0.7876 -0.0630  0.0772
 4390TIP3    H234662   1.671   6.415   1.376 -0.1157  0.1813 -0.8838
 4391TIP3   OH234663   0.189   6.159   5.510  0.0537 -0.2877  0.1382
 4391TIP3    H134664   0.253   6.227   5.486  0.3008 -0.3873  0.5181
 4391TIP3    H234665   0.117   6.207   5.551  0.5150 -0.3168  0.9928
 4392TIP3   OH234666   6.045   1.330   3.538  0.1646 -0.0120  0.2864
 4392TIP3    H134667   6.107   1.298   3.473  0.7047  0.4553  0.5598
 4392TIP3    H234668   6.009   1.410   3.499 -0.5639 -0.4952 -0.0414
 4393TIP3   OH234669   5.121   5.536   4.588 -0.0436 -0.8686 -0.1920
 4393TIP3    H134670   5.065   5.545   4.512 -0.3301  0.0577  0.1213
 4393TIP3    H234671   5.062   5.543   4.663  0.5514  0.9368  0.1628
 4394TIP3   OH234672   4.661   5.508  12.269 -0.4285 -0.3661 -0.3901
 4394TIP3    H134673   4.680   5.421  12.302  0.5002  1.2669  4.2251
 4394TIP3    H234674   4.584   5.536  12.320  0.8731  2.3518  0.2432
 4395TIP3   OH234675   2.721   3.076   5.597 -0.1768 -0.5448 -0.2099
 4395TIP3    H134676   2.716   3.150   5.657 -0.7233 -1.9547  1.5837
 4395TIP3    H234677   2.732   3.115   5.511 -1.5502  1.6581  0.5313
 4396TIP3   OH234678   4.805   5.262  15.997 -0.3152 -0.6230  0.0540
 4396TIP3    H134679   4.757   5.336  15.961 -0.2180  0.2045  1.5639
 4396TIP3    H234680   4.897   5.280  15.977 -0.2712 -0.2189  0.6120
 4397TIP3   OH234681   5.217   5.151  16.534  0.5178  0.0391 -0.3527
 4397TIP3    H134682   5.257   5.238  16.535  0.2075  0.2287 -1.7529
 4397TIP3    H234683   5.191   5.138  16.442  0.6631 -1.5767 -0.1901
 4398TIP3   OH234684   0.699   4.205  13.810  0.3406  0.4021 -0.2145
 4398TIP3    H134685   0.694   4.110  13.819 -0.9056  0.3306 -1.3121
 4398TIP3    H234686   0.755   4.233  13.882  1.2431 -1.2122 -0.2441
 4399TIP3   OH234687   5.386   5.521   1.450  0.8346  0.0339 -0.1360
 4399TIP3    H134688   5.452   5.513   1.520  0.7675  0.1614 -0.0573
 4399TIP3    H234689   5.438   5.530   1.370  0.9860  2.2376  0.1208
 4400TIP3   OH234690   5.460   0.342  12.013  0.0433  0.2671 -0.4739
 4400TIP3    H134691   5.506   0.261  11.989 -0.4404  0.4962 -2.3197
 4400TIP3    H234692   5.530   0.406  12.026  0.4299 -0.3986  0.9690
 4401TIP3   OH234693   2.055   3.321  10.847 -0.2475 -0.1507  0.4048
 4401TIP3    H134694   2.123   3.339  10.911 -0.4422  1.4217  0.2215
 4401TIP3    H234695   2.027   3.408  10.817  0.2985 -0.7978 -2.2838
 4402TIP3   OH234696   0.937   4.058  15.555  0.4258 -0.0720 -0.0150
 4402TIP3    H134697   1.032   4.050  15.558  0.3391 -1.7096 -0.4934
 4402TIP3    H234698   0.911   4.081  15.644  1.2372  0.0311  0.1968
 4403TIP3   OH234699   1.417   4.731  11.380  0.0101 -0.0536  0.4508
 4403TIP3    H134700   1.366   4.808  11.355 -0.7903 -0.5073  0.6657
 4403TIP3    H234701   1.493   4.768  11.425  0.3359  0.6667 -0.6296
 4404TIP3   OH234702   5.382   2.260   0.927 -0.0575  0.0299 -0.0722
 4404TIP3    H134703   5.423   2.194   0.984  0.2056  0.7439  0.5934
 4404TIP3    H234704   5.367   2.334   0.985 -2.0067 -0.0824 -0.3804
 4405TIP3   OH234705   1.392   0.695   2.226  0.5802 -0.3050  0.0258
 4405TIP3    H134706   1.430   0.782   2.232  2.1314 -0.7575 -2.1270
 4405TIP3    H234707   1.467   0.636   2.237 -0.2089 -1.3405  0.0028
 4406TIP3   OH234708   4.496   0.712   3.296 -0.2775  0.2545  0.1204
 4406TIP3    H134709   4.451   0.648   3.240 -0.4702  0.2788  0.2440
 4406TIP3    H234710   4.482   0.679   3.385 -0.8965  0.7882  0.2277
 4407TIP3   OH234711   3.358   2.611   0.656 -0.4774 -0.0077 -0.0996
 4407TIP3    H134712   3.447   2.642   0.675 -1.0048  1.4383  0.1050
 4407TIP3    H234713   3.364   2.516   0.665  0.7090  0.1723  1.3882
 4408TIP3   OH234714   2.738   4.841   4.316  0.2404  0.0458 -0.0493
 4408TIP3    H134715   2.727   4.853   4.222  1.0872 -0.8841 -0.2831
 4408TIP3    H234716   2.710   4.751   4.332  0.0921  0.1990  0.5928
 4409TIP3   OH234717   0.154   1.985   0.941  0.9604  0.1479 -0.3611
 4409TIP3    H134718   0.150   1.929   1.018 -0.3147  1.3869  0.5172
 4409TIP3    H234719   0.247   2.005   0.930  1.0669  0.9959  1.6489
 4410TIP3   OH234720   2.652   4.317   0.672  0.2421 -0.4244 -0.3293
 4410TIP3    H134721   2.697   4.389   0.717 -0.3025 -0.8182  0.8830
 4410TIP3    H234722   2.713   4.290   0.604  1.6799 -0.6633  1.0066
 4411TIP3   OH234723   4.456   3.590  16.317 -0.2523 -0.4968 -0.0092
 4411TIP3    H134724   4.525   3.654  16.337 -0.4122 -0.8873  1.9475
 4411TIP3    H234725   4.444   3.598  16.223 -0.9575  3.1219  0.2367
 4412TIP3   OH234726   5.702   1.308  15.071 -0.3682  0.2206  0.3776
 4412TIP3    H134727   5.617   1.304  15.115 -0.5757  0.4603  0.0119
 4412TIP3    H234728   5.749   1.378  15.116 -0.1668 -0.2591  0.9155
 4413TIP3   OH234729   1.093   2.387  17.209  0.0469  0.0679  0.3830
 4413TIP3    H134730   1.018   2.420  17.160  0.8191  0.7145 -0.3973
 4413TIP3    H234731   1.062   2.305  17.249 -0.0967 -1.5728 -2.7495
 4414TIP3   OH234732   1.227   2.313  13.751 -0.1689 -0.6955  0.1808
 4414TIP3    H134733   1.293   2.276  13.809 -0.5393 -0.1594  0.9734
 4414TIP3    H234734   1.169   2.240  13.731 -0.3140 -0.7893  0.9031
 4415TIP3   OH234735   0.979   2.248  12.298 -0.6215 -0.1716  0.6222
 4415TIP3    H134736   0.967   2.324  12.355 -0.5996 -0.2065  0.6726
 4415TIP3    H234737   1.029   2.186  12.350 -0.3103 -0.0677  0.4499
 4416TIP3   OH234738   0.891   3.014   5.582  0.7151 -1.2232 -0.5984
 4416TIP3    H134739   0.948   2.945   5.549  1.0766 -1.2756  0.1223
 4416TIP3    H234740   0.927   3.037   5.668  2.6400  2.1616 -2.0957
 4417TIP3   OH234741   6.025   4.856   1.720  0.3927  0.1211 -0.0804
 4417TIP3    H134742   5.940   4.892   1.695  0.7310  0.3635 -0.8740
 4417TIP3    H234743   6.028   4.867   1.815  0.0636  1.2576 -0.1908
 4418TIP3   OH234744   4.255   2.473  13.754 -0.4208  0.1572 -0.5476
 4418TIP3    H134745   4.163   2.446  13.754 -0.2837 -0.4791  1.4465
 4418TIP3    H234746   4.299   2.409  13.698 -1.1034  0.1433 -1.0832
 4419TIP3   OH234747   3.230   6.107  11.322  0.0553  0.1789  0.0686
 4419TIP3    H134748   3.141   6.077  11.309  0.7837 -1.7851 -0.7445
 4419TIP3    H234749   3.222   6.202  11.332 -2.1220  0.0218  0.3197
 4420TIP3   OH234750   1.892   1.792   2.970 -0.1033 -0.0588 -0.5744
 4420TIP3    H134751   1.873   1.837   2.887  1.3439 -0.8483 -1.3759
 4420TIP3    H234752   1.822   1.727   2.978  0.6664 -1.1347 -2.0908
 4421TIP3   OH234753   6.479   5.350   3.896  0.0460  0.3798 -0.2402
 4421TIP3    H134754   6.423   5.420   3.861  0.1261  1.9787  2.5888
 4421TIP3    H234755   6.558   5.395   3.926 -0.5607 -0.5596  3.1196
 4422TIP3   OH234756   1.227   3.560  15.048 -0.2258  0.1810 -0.7902
 4422TIP3    H134757   1.308   3.608  15.034 -0.3446  0.4430 -0.6004
 4422TIP3    H234758   1.252   3.484  15.100 -0.2005  0.6023 -0.1783
 4423TIP3   OH234759   1.189   0.862   3.044 -0.0082  0.1640  0.1651
 4423TIP3    H134760   1.154   0.773   3.049 -1.6328  0.7838  0.1415
 4423TIP3    H234761   1.206   0.886   3.135  0.4724 -0.1776  0.1681
 4424TIP3   OH234762   5.074   5.565   2.473  0.1267  0.1643 -0.3883
 4424TIP3    H134763   5.029   5.649   2.483  0.9614  0.8021 -1.6689
 4424TIP3    H234764   5.099   5.562   2.381  0.7169 -1.1952 -0.2107
 4425TIP3   OH234765   1.694   0.882  12.461  0.1331 -0.1356  0.2331
 4425TIP3    H134766   1.600   0.866  12.469 -0.0184  0.8452  0.6153
 4425TIP3    H234767   1.723   0.895  12.551  1.2040 -3.2126  0.4422
 4426TIP3   OH234768   6.035   5.018   4.605 -0.1295  0.3947 -0.1558
 4426TIP3    H134769   6.130   5.007   4.609 -0.1312  0.5368  0.3494
 4426TIP3    H234770   6.016   5.033   4.512  0.5253  2.0588 -0.0557
 4427TIP3   OH234771   2.677   4.485  13.380  0.4342 -0.2797  0.0780
 4427TIP3    H134772   2.684   4.389  13.385 -2.6250 -0.5662  0.6517
 4427TIP3    H234773   2.662   4.512  13.470 -3.7057  0.1077 -0.5597
 4428TIP3   OH234774   5.901   1.715   5.317  0.3576  0.1223 -0.4896
 4428TIP3    H134775   5.932   1.802   5.344 -0.7676  0.4734 -0.2854
 4428TIP3    H234776   5.945   1.654   5.376  0.4962  0.6300 -0.0671
 4429TIP3   OH234777   3.328   1.093   2.094  0.0278  0.3198 -0.2007
 4429TIP3    H134778   3.276   1.152   2.150 -1.2805  0.7362 -1.7667
 4429TIP3    H234779   3.419   1.110   2.120 -0.4724  1.1833  1.1269
 4430TIP3   OH234780   5.766   5.842  11.017 -0.0322 -0.2034 -0.5417
 4430TIP3    H134781   5.794   5.788  11.092 -0.2560 -0.5764 -0.7221
 4430TIP3    H234782   5.845   5.888  10.990 -0.3769  1.5305  1.2181
 4431TIP3   OH234783   5.970   6.479  12.253 -0.8690 -0.3053  0.0513
 4431TIP3    H134784   6.010   6.508  12.171  1.8994 -1.3799  0.8999
 4431TIP3    H234785   5.997   6.388  12.263 -0.5334 -0.0219  2.4590
 4432TIP3   OH234786   0.256   4.013   6.521  0.3970  0.0064 -0.1124
 4432TIP3    H134787   0.165   4.006   6.551 -0.2842  1.1422 -1.7935
 4432TIP3    H234788   0.306   4.032   6.600 -1.0062  0.5770  0.6699
 4433TIP3   OH234789   3.246   2.531   4.025  0.9724 -0.3241 -0.1023
 4433TIP3    H134790   3.287   2.516   4.110  1.2033 -1.9773 -0.4839
 4433TIP3    H234791   3.179   2.462   4.018 -0.6348  1.1751 -0.2944
 4434TIP3   OH234792   0.366   0.792  16.516 -0.3076  0.4758  0.8972
 4434TIP3    H134793   0.374   0.775  16.422 -1.6676  0.6187  0.7345
 4434TIP3    H234794   0.451   0.828  16.541 -0.3069  1.5554 -0.5200
 4435TIP3   OH234795   1.165   2.759   2.161 -0.3907 -0.2023 -0.3561
 4435TIP3    H134796   1.157   2.854   2.154 -1.7690 -0.4169 -2.3881
 4435TIP3    H234797   1.102   2.735   2.229  0.5950  0.3641  0.8117
 4436TIP3   OH234798   4.765   5.857  13.603 -0.1279 -0.7306  0.0916
 4436TIP3    H134799   4.809   5.773  13.610 -0.0326 -0.5945  1.4025
 4436TIP3    H234800   4.672   5.837  13.613 -0.1474 -0.7336 -0.0959
 4437TIP3   OH234801   3.211   2.862  14.476  0.1346  0.1881 -0.1080
 4437TIP3    H134802   3.122   2.827  14.475  1.0071 -2.1485 -0.6543
 4437TIP3    H234803   3.242   2.849  14.565  1.0507 -2.1731 -0.7059
 4438TIP3   OH234804   1.773   6.213  12.722  0.1060 -0.2703  0.0681
 4438TIP3    H134805   1.846   6.229  12.664 -0.0910 -1.2787 -0.4772
 4438TIP3    H234806   1.744   6.124  12.702  0.0480 -0.6724  1.7195
 4439TIP3   OH234807   5.986   6.445   4.104  0.5206  0.4369 -0.3604
 4439TIP3    H134808   5.961   6.428   4.195  1.0161  0.1361 -0.2757
 4439TIP3    H234809   5.992   6.540   4.098  2.4764  0.4120  0.4892
 4440TIP3   OH234810   1.729   1.093  11.426 -0.3373 -0.1902 -0.6822
 4440TIP3    H134811   1.654   1.086  11.367 -0.5761  0.7913 -0.5142
 4440TIP3    H234812   1.706   1.165  11.485  0.2338 -0.6402  0.1173
 4441TIP3   OH234813   1.716   4.801  16.854  0.1650 -0.3873 -0.7862
 4441TIP3    H134814   1.740   4.893  16.855 -3.5326  0.7670  0.9604
 4441TIP3    H234815   1.775   4.760  16.916  1.9155  0.7340 -1.6414
 4442TIP3   OH234816   4.031   5.329   0.918  0.1589 -0.2641  0.6704
 4442TIP3    H134817   3.951   5.320   0.969 -0.7057 -0.7842 -0.7069
 4442TIP3    H234818   4.037   5.248   0.868  1.3513 -0.0689  0.4687
 4443TIP3   OH234819   1.015   1.517   5.414  0.5091  0.1528  0.1190
 4443TIP3    H134820   0.987   1.602   5.379  2.0154  0.7566  0.3286
 4443TIP3    H234821   0.974   1.453   5.356  1.4192  1.0911 -1.6359
 4444TIP3   OH234822   0.996   1.520  12.189  0.0653  0.0663 -0.2324
 4444TIP3    H134823   1.089   1.498  12.195  0.1942  0.9296  1.6760
 4444TIP3    H234824   0.952   1.452  12.240 -0.6274 -1.5144 -2.7746
 4445TIP3   OH234825   2.483   2.257   3.542 -0.7614 -0.2263 -0.0378
 4445TIP3    H134826   2.516   2.168   3.532 -0.4302 -0.3882  1.9564
 4445TIP3    H234827   2.442   2.278   3.459  2.7956 -0.6680 -2.1120
 4446TIP3   OH234828   6.107   1.402  15.043  1.0163  0.2178 -0.5476
 4446TIP3    H134829   6.149   1.321  15.071  2.3965  0.3076 -2.2115
 4446TIP3    H234830   6.105   1.396  14.948 -2.9274  0.1889 -0.6315
 4447TIP3   OH234831   6.758   3.126   4.521  0.1648 -0.0770  0.2762
 4447TIP3    H134832   6.764   3.075   4.602 -0.6946 -0.8004 -0.0971
 4447TIP3    H234833   6.728   3.212   4.549 -1.0778 -0.6143  0.6378
 4448TIP3   OH234834   6.653   4.089  11.809  0.5989  0.3208 -0.2741
 4448TIP3    H134835   6.726   4.029  11.827 -0.0165  0.2228  2.1234
 4448TIP3    H234836   6.693   4.176  11.811  1.0244  0.1634 -1.2094
 4449TIP3   OH234837   0.160   0.915  12.855 -0.4201  0.3430 -0.2276
 4449TIP3    H134838   0.076   0.949  12.884 -0.1586  0.9881 -0.2047
 4449TIP3    H234839   0.213   0.993  12.839 -0.1983 -0.0225 -1.3646
 4450TIP3   OH234840   3.531   1.181  16.081  0.2461  0.7359 -0.5032
 4450TIP3    H134841   3.485   1.159  16.001  1.4601 -1.4781 -0.6973
 4450TIP3    H234842   3.593   1.249  16.055 -0.3000  1.0073 -1.1193
 4451TIP3   OH234843   1.416   3.588  16.121  0.0381  0.2345 -0.8864
 4451TIP3    H134844   1.390   3.656  16.059  1.8934 -0.7889 -2.9125
 4451TIP3    H234845   1.499   3.620  16.158 -0.2225  0.0808 -0.1548
 4452TIP3   OH234846   3.049   4.149   5.638 -0.0401  0.0085 -0.2223
 4452TIP3    H134847   2.955   4.134   5.649  0.1698  0.4415  3.9982
 4452TIP3    H234848   3.055   4.220   5.574 -2.4713 -0.7070 -1.3583
 4453TIP3   OH234849   1.718   0.206   0.693  0.1415 -0.4612  0.7441
 4453TIP3    H134850   1.698   0.285   0.742  2.5973 -0.9904  2.8573
 4453TIP3    H234851   1.691   0.134   0.751  1.8849 -1.1109  0.8330
 4454TIP3   OH234852   3.369   2.384   0.059  0.0552 -0.3947 -0.2631
 4454TIP3    H134853   3.282   2.346   0.070 -0.5673  1.0765  0.3104
 4454TIP3    H234854   3.356   2.457  -0.001  0.2474  1.6293  1.9627
 4455TIP3   OH234855   3.342   5.933  12.232  0.2295  0.4650  0.2934
 4455TIP3    H134856   3.383   5.856  12.272  0.9602  0.3445 -0.6406
 4455TIP3    H234857   3.336   5.912  12.139 -1.5732  0.6787  0.3321
 4456TIP3   OH234858   6.272   0.718   1.487  0.8462  0.0140 -0.2700
 4456TIP3    H134859   6.199   0.756   1.439  0.8050 -1.1933 -1.1936
 4456TIP3    H234860   6.236   0.642   1.531  1.8582 -1.6388 -2.1440
 4457TIP3   OH234861   3.541   4.294   6.101  0.5659 -0.4507  0.0897
 4457TIP3    H134862   3.499   4.254   6.025  0.4905  1.1366 -0.7394
 4457TIP3    H234863   3.469   4.308   6.163 -0.2000  1.9917 -1.2087
 4458TIP3   OH234864   0.380   1.562   5.381  0.1878  0.7134  0.5013
 4458TIP3    H134865   0.358   1.510   5.304  1.7195  0.1797  0.3956
 4458TIP3    H234866   0.358   1.652   5.356  1.9374  0.7544 -1.1256
 4459TIP3   OH234867   4.672   3.920   1.245  0.5141 -0.4384  0.6338
 4459TIP3    H134868   4.733   3.940   1.316  0.1527  0.0935  0.7995
 4459TIP3    H234869   4.587   3.912   1.288  0.3001 -0.1609  0.2720
 4460TIP3   OH234870   3.157   0.686  14.984 -0.1084  0.0277  0.5771
 4460TIP3    H134871   3.070   0.725  14.979  0.0399  0.3201  0.2469
 4460TIP3    H234872   3.157   0.620  14.915  0.1606  0.4947  0.1230
 4461TIP3   OH234873   0.099   0.865   6.032 -0.0060  0.0595  0.8073
 4461TIP3    H134874   0.176   0.874   6.089  0.2594  0.3800  0.4019
 4461TIP3    H234875   0.101   0.942   5.976  0.1229 -0.5892 -0.1123
 4462TIP3   OH234876   3.286   6.478  13.858  0.6784  0.3183  0.0272
 4462TIP3    H134877   3.204   6.521  13.885  0.0249  2.1427 -4.1213
 4462TIP3    H234878   3.351   6.508  13.922 -1.2117  1.5643  1.4939
 4463TIP3   OH234879   2.284   0.039  16.397  0.3719  0.3357  0.0113
 4463TIP3    H134880   2.264  -0.019  16.470  0.7225 -0.1447 -0.2659
 4463TIP3    H234881   2.199   0.060  16.359  0.1337  1.0554  0.8949
 4464TIP3   OH234882   1.901   1.107   4.224  0.1123  0.8400  1.0116
 4464TIP3    H134883   1.869   1.156   4.148  0.8899  1.2133  0.9238
 4464TIP3    H234884   1.975   1.158   4.257 -0.0776  0.5623  1.8890
 4465TIP3   OH234885   0.931   5.483  15.265 -0.7501 -0.2290  0.2630
 4465TIP3    H134886   0.959   5.575  15.265 -0.8665 -0.1872 -0.5072
 4465TIP3    H234887   0.980   5.443  15.194  0.6766 -1.2143  1.7257
 4466TIP3   OH234888   2.320   4.825  16.046 -0.0051  0.0349 -0.2598
 4466TIP3    H134889   2.324   4.731  16.064 -1.1113 -0.2052 -1.1389
 4466TIP3    H234890   2.334   4.831  15.951  2.2116  0.9549  0.0702
 4467TIP3   OH234891   2.000   1.333   6.482  0.2455  0.8112  0.0153
 4467TIP3    H134892   1.984   1.399   6.550  0.2081  0.9389 -0.1169
 4467TIP3    H234893   2.056   1.268   6.524 -0.3474  0.5346  0.3801
 4468TIP3   OH234894   1.327   3.318   3.665 -0.0540  0.4987  0.4290
 4468TIP3    H134895   1.269   3.291   3.594 -1.2484  0.1090  1.5155
 4468TIP3    H234896   1.406   3.264   3.653  0.0273  0.8702 -0.9325
 4469TIP3   OH234897   0.876   2.660  11.356 -0.0872 -0.1868  0.5063
 4469TIP3    H134898   0.810   2.593  11.340 -0.2100  0.2625 -1.0339
 4469TIP3    H234899   0.960   2.614  11.351 -0.2151 -0.4494  0.7570
 4470TIP3   OH234900   2.439   0.538   3.203 -0.5191  0.0152  0.2326
 4470TIP3    H134901   2.458   0.630   3.225 -0.1055  0.1879 -0.8184
 4470TIP3    H234902   2.443   0.535   3.108 -2.5423 -0.6683  0.1383
 4471TIP3   OH234903   5.613   1.862   1.308  0.2690  0.1088  0.4814
 4471TIP3    H134904   5.670   1.932   1.340  1.0163  0.1632 -0.9171
 4471TIP3    H234905   5.673   1.794   1.278 -0.4443 -0.9303  1.3221
 4472TIP3   OH234906   6.239   1.949  14.350  0.1194 -0.1768  0.1275
 4472TIP3    H134907   6.251   1.881  14.416 -0.9129 -1.7856 -1.2696
 4472TIP3    H234908   6.157   1.992  14.375 -0.9576 -1.6255 -0.7455
 4473TIP3   OH234909   0.974   5.421   3.876  0.1688  0.1922  0.2365
 4473TIP3    H134910   0.967   5.501   3.928 -0.5167  0.1387  0.2455
 4473TIP3    H234911   0.930   5.443   3.794  2.5321  0.7637 -0.9574
 4474TIP3   OH234912   0.829   2.472  14.967  0.1957 -0.0935 -0.1832
 4474TIP3    H134913   0.907   2.503  14.921  0.4460 -3.4431 -2.4189
 4474TIP3    H234914   0.760   2.471  14.900 -0.4039 -1.7215  0.4019
 4475TIP3   OH234915   1.869   4.662   6.285 -0.2827 -0.3862  0.1222
 4475TIP3    H134916   1.866   4.567   6.293 -1.2388 -0.3087  0.8392
 4475TIP3    H234917   1.778   4.690   6.294 -0.0652  0.5725 -0.4520
 4476TIP3   OH234918   2.547   0.957   2.217 -0.1422 -0.0418 -0.0082
 4476TIP3    H134919   2.474   0.912   2.259  0.1899  0.4873  1.1943
 4476TIP3    H234920   2.611   0.888   2.200 -0.9408 -0.5281 -1.1843
 4477TIP3   OH234921   3.324   4.330  16.733  0.3148  0.1132  0.3269
 4477TIP3    H134922   3.241   4.336  16.779  1.3972  3.1344  2.1652
 4477TIP3    H234923   3.353   4.240  16.748 -2.3812 -0.8887 -0.0451
 4478TIP3   OH234924   1.447   0.805   4.808  0.6004 -0.6167  0.6570
 4478TIP3    H134925   1.358   0.781   4.835  0.5167 -1.7099 -0.5155
 4478TIP3    H234926   1.467   0.746   4.736  1.1233  1.6496 -1.1710
 4479TIP3   OH234927   3.408   4.166  16.488  0.0418  0.3440 -0.4755
 4479TIP3    H134928   3.396   4.256  16.518  0.2315  0.1449  0.2091
 4479TIP3    H234929   3.398   4.171  16.392 -1.4528  0.8363 -0.3187
 4480TIP3   OH234930   4.681   4.707  11.754  0.2963 -0.0187  0.0372
 4480TIP3    H134931   4.714   4.789  11.718 -0.7228  0.0536 -0.7719
 4480TIP3    H234932   4.602   4.732  11.802  0.4213 -0.4279  0.4689
 4481TIP3   OH234933   6.154   6.496   1.502 -0.0414  0.2097 -0.0717
 4481TIP3    H134934   6.139   6.590   1.500 -0.1257  0.1891 -0.4067
 4481TIP3    H234935   6.125   6.465   1.416  1.4695  0.1028 -0.5730
 4482TIP3   OH234936   3.277   3.700  13.730  0.3593 -0.7755  0.2521
 4482TIP3    H134937   3.326   3.631  13.775  0.6123 -0.9175 -0.2331
 4482TIP3    H234938   3.201   3.656  13.694 -1.2157 -0.2103  2.6546
 4483TIP3   OH234939   3.985   5.499  11.737 -0.4339  0.5183  0.1585
 4483TIP3    H134940   3.923   5.526  11.805  1.4290  0.5388  1.9442
 4483TIP3    H234941   4.055   5.563  11.742 -0.1601  0.4346 -1.7470
 4484TIP3   OH234942   4.702   4.961   6.189 -0.4096  0.4190 -0.1424
 4484TIP3    H134943   4.653   5.004   6.260 -1.6386 -1.6098  0.3102
 4484TIP3    H234944   4.753   4.894   6.232 -1.7663 -1.3723 -1.1842
 4485TIP3   OH234945   2.440   5.211  10.847  0.0304  0.2541 -0.3720
 4485TIP3    H134946   2.352   5.213  10.885  0.2590 -1.0950  0.2787
 4485TIP3    H234947   2.454   5.120  10.823  1.2368  0.4542 -0.5090
 4486TIP3   OH234948   4.291   0.444  10.299  0.0956 -0.4272 -0.0290
 4486TIP3    H134949   4.207   0.437  10.343  0.2506 -2.3153  0.0337
 4486TIP3    H234950   4.293   0.369  10.239  1.4028  0.0355 -0.5936
 4487TIP3   OH234951   3.514   3.073   0.456 -0.0346  0.5542 -0.1125
 4487TIP3    H134952   3.467   2.991   0.472  0.7397  0.0732 -0.2244
 4487TIP3    H234953   3.607   3.047   0.454  0.5188  1.8928  2.9208
 4488TIP3   OH234954   4.883   3.863  11.773  0.0770  0.2156 -0.2388
 4488TIP3    H134955   4.848   3.908  11.697  0.3479  2.8456  1.0781
 4488TIP3    H234956   4.978   3.868  11.763  0.1317  1.3762  0.6446
 4489TIP3   OH234957   2.592   6.742   5.261  0.1901  0.4474 -0.6248
 4489TIP3    H134958   2.669   6.765   5.313 -0.7388  0.9480  0.5855
 4489TIP3    H234959   2.574   6.820   5.209 -0.3034  0.8493  0.1299
 4490TIP3   OH234960   2.463   0.893  12.482 -0.0636 -0.2909 -0.1010
 4490TIP3    H134961   2.385   0.839  12.497 -1.0259  1.0552 -0.0409
 4490TIP3    H234962   2.471   0.896  12.387 -1.0480  0.8427 -0.1701
 4491TIP3   OH234963   4.879   3.382  13.844  0.1501  0.5331  0.1394
 4491TIP3    H134964   4.883   3.472  13.811 -0.1173 -0.0383 -1.5619
 4491TIP3    H234965   4.881   3.328  13.765  0.7613 -0.9784  1.1573
 4492TIP3   OH234966   0.662   1.239   3.764 -0.0288 -0.2371 -0.2077
 4492TIP3    H134967   0.735   1.203   3.713  1.7530 -0.3636  2.2387
 4492TIP3    H234968   0.681   1.333   3.769 -1.2171  0.0881 -1.2809
 4493TIP3   OH234969   1.293   4.318   2.158  0.0099 -0.8209  0.0434
 4493TIP3    H134970   1.272   4.408   2.132 -0.2073  0.6314  4.3560
 4493TIP3    H234971   1.207   4.277   2.170  0.0592 -0.9461 -0.0398
 4494TIP3   OH234972   4.830   2.705  15.442  0.1290  0.0866  0.3996
 4494TIP3    H134973   4.863   2.639  15.381 -2.0455 -0.3900 -0.3346
 4494TIP3    H234974   4.844   2.788  15.397 -2.1715 -0.3077 -1.2050
 4495TIP3   OH234975   1.639   2.777   5.058  0.3840 -0.2238  0.0398
 4495TIP3    H134976   1.607   2.862   5.030 -2.3882 -1.3249 -0.4557
 4495TIP3    H234977   1.672   2.737   4.977 -1.0817 -0.6944 -0.3670
 4496TIP3   OH234978   6.308   0.667  15.723 -0.0882  0.1490  0.2597
 4496TIP3    H134979   6.271   0.693  15.807  0.9101 -1.0714  1.0950
 4496TIP3    H234980   6.282   0.575  15.713  1.0676 -0.1556 -0.0449
 4497TIP3   OH234981   3.264   4.636  11.606  0.2541 -0.1107  0.5226
 4497TIP3    H134982   3.182   4.594  11.579  0.5475 -0.1623 -0.2904
 4497TIP3    H234983   3.237   4.697  11.675 -0.9772  2.0898 -1.7290
 4498TIP3   OH234984   3.130   5.480  15.033  0.0325  0.1913 -0.3261
 4498TIP3    H134985   3.072   5.540  15.081 -0.1953  0.8459 -1.3767
 4498TIP3    H234986   3.133   5.516  14.945 -0.2292 -1.4518 -1.0398
 4499TIP3   OH234987   4.338   2.830   4.846  0.6160 -0.3622  0.0156
 4499TIP3    H134988   4.353   2.737   4.828  0.8642  0.0359 -2.2467
 4499TIP3    H234989   4.244   2.836   4.864  0.0984 -0.8080 -2.2092
 4500TIP3   OH234990   1.467   6.755   3.311 -0.4166 -0.0807  0.0554
 4500TIP3    H134991   1.536   6.745   3.246 -0.7279 -0.3842 -0.2313
 4500TIP3    H234992   1.485   6.839   3.353 -0.2556  0.1431 -0.4658
 4501TIP3   OH234993   2.261   3.976   4.718 -0.2184  0.0220  0.5113
 4501TIP3    H134994   2.333   3.937   4.768  0.1242 -0.6510 -0.4726
 4501TIP3    H234995   2.217   4.033   4.781  1.7918  1.2845  0.8833
 4502TIP3   OH234996   2.222   5.510  15.602 -0.1929  0.2883 -0.1486
 4502TIP3    H134997   2.270   5.446  15.550  1.0693  2.0570 -1.2860
 4502TIP3    H234998   2.257   5.502  15.690  0.8760  0.2670 -0.5644
 4503TIP3   OH234999   1.594   0.922   3.256  0.1479 -0.3020  0.2444
 4503TIP3    H135000   1.672   0.902   3.308  0.1158  0.2168  0.4904
 4503TIP3    H235001   1.581   0.844   3.202  2.0150  0.3659 -1.2675
 4504TIP3   OH235002   1.896   2.833  15.180  0.1559  0.6227  0.0766
 4504TIP3    H135003   1.980   2.794  15.156 -0.1406  1.4382 -2.6462
 4504TIP3    H235004   1.839   2.758  15.196  0.9560  0.0357  0.2594
 4505TIP3   OH235005   5.346   1.876   0.702 -0.3441 -0.1999  0.3571
 4505TIP3    H135006   5.377   1.899   0.789  2.0027 -0.3671 -0.3517
 4505TIP3    H235007   5.324   1.783   0.708  1.2211 -0.5994  0.4743
 4506TIP3   OH235008   3.684   5.601   5.136  0.2870 -0.2868 -0.0247
 4506TIP3    H135009   3.611   5.647   5.097 -0.1597 -0.1716  0.9332
 4506TIP3    H235010   3.752   5.668   5.147 -0.2433  0.0909  1.0662
 4507TIP3   OH235011   6.228   1.167  14.861  0.0443  0.3082 -0.2683
 4507TIP3    H135012   6.159   1.221  14.823 -0.8696  0.8680  2.0468
 4507TIP3    H235013   6.309   1.215  14.842 -0.2637  0.1640 -2.1189
 4508TIP3   OH235014   6.369   3.510   3.028 -0.1783 -0.1366  0.2852
 4508TIP3    H135015   6.331   3.467   2.952  1.0820  0.4820 -0.7531
 4508TIP3    H235016   6.455   3.540   2.997  0.7626 -0.6636  2.2227
 4509TIP3   OH235017   1.438   4.395  15.252  0.3397  0.0442  0.5498
 4509TIP3    H135018   1.522   4.394  15.208 -0.4529  1.5063 -1.1403
 4509TIP3    H235019   1.381   4.341  15.197  0.0542 -0.5589  1.4184
 4510TIP3   OH235020   5.005   2.403   0.675 -0.4235  0.2797 -0.4164
 4510TIP3    H135021   5.020   2.432   0.765 -1.2579  1.4378 -0.6350
 4510TIP3    H235022   5.086   2.357   0.652 -0.7135 -1.2861  1.3757
 4511TIP3   OH235023   1.404   3.337   3.299 -0.2989 -0.2053  0.5931
 4511TIP3    H135024   1.459   3.348   3.377  0.4929 -2.8204  0.4915
 4511TIP3    H235025   1.344   3.266   3.322 -0.8985 -0.1561 -0.7385
 4512TIP3   OH235026   4.782   4.250   5.787  0.4982 -0.4036 -0.0797
 4512TIP3    H135027   4.826   4.302   5.720 -3.1305 -1.0544 -3.3101
 4512TIP3    H235028   4.835   4.170   5.794  1.9164  0.4320 -0.8721
 4513TIP3   OH235029   3.217   2.224   0.300 -0.0610 -0.1529  0.2216
 4513TIP3    H135030   3.197   2.130   0.296 -1.0371  0.0549 -0.0937
 4513TIP3    H235031   3.192   2.257   0.213  0.4672  0.3655  0.2647
 4514TIP3   OH235032   5.118   1.017   0.910  0.2957  0.1832 -0.4694
 4514TIP3    H135033   5.046   0.967   0.871 -1.0049  1.0141  0.7578
 4514TIP3    H235034   5.164   1.055   0.835 -1.5128  0.9128 -1.2899
 4515TIP3   OH235035   1.172   1.042  11.175 -0.7831 -0.2150  0.7535
 4515TIP3    H135036   1.223   0.967  11.206 -0.0415 -1.0359 -2.0954
 4515TIP3    H235037   1.235   1.114  11.172 -0.6409 -0.3509  0.4148
 4516TIP3   OH235038   2.694   6.072   5.486 -0.6097 -0.3417  0.5498
 4516TIP3    H135039   2.635   6.086   5.560 -0.2861 -0.1169  0.7715
 4516TIP3    H235040   2.670   6.138   5.422 -0.1164  0.2425  0.9483
 4517TIP3   OH235041   3.308   5.975   6.229  0.4223 -0.0836 -0.2386
 4517TIP3    H135042   3.353   5.924   6.296  1.5457  0.6696 -0.3783
 4517TIP3    H235043   3.269   6.048   6.277 -0.3261 -0.5204 -0.1723
 4518TIP3   OH235044   0.829   6.294   3.409 -0.3367 -0.0735  0.4636
 4518TIP3    H135045   0.765   6.230   3.441  1.1510 -1.0084  1.7649
 4518TIP3    H235046   0.881   6.245   3.345  0.3773  0.0176  0.9603
 4519TIP3   OH235047   6.040   0.194  15.032 -0.1948  0.1177  0.3237
 4519TIP3    H135048   5.968   0.178  14.971 -0.9821 -0.6817  1.4183
 4519TIP3    H235049   6.110   0.136  15.001  0.0859  1.0428 -0.8644
 4520TIP3   OH235050   5.371   4.084  12.750  0.1725 -0.1528 -0.5250
 4520TIP3    H135051   5.279   4.100  12.768  0.2802 -0.5049  0.3739
 4520TIP3    H235052   5.382   4.108  12.658 -0.9961 -0.8853 -0.8745
 4521TIP3   OH235053   3.498   1.123  11.969  0.4578 -0.0623  0.5676
 4521TIP3    H135054   3.528   1.032  11.962  3.4397  0.9249 -0.6098
 4521TIP3    H235055   3.555   1.172  11.911 -2.2890  2.3869 -0.2983
 4522TIP3   OH235056   2.076   3.472   2.529  0.3169 -0.4500  0.4072
 4522TIP3    H135057   2.042   3.388   2.497  1.8311 -0.9694  0.0414
 4522TIP3    H235058   2.149   3.492   2.470  1.8995 -0.4152  2.2749
 4523TIP3   OH235059   1.059   5.373   1.081 -0.5248 -0.4712 -0.5178
 4523TIP3    H135060   0.970   5.339   1.082 -0.5738 -0.4095  1.8900
 4523TIP3    H235061   1.109   5.309   1.030 -1.5356 -1.6187 -0.1122
 4524TIP3   OH235062   1.769   3.821   0.228 -0.0575 -0.1404 -0.4295
 4524TIP3    H135063   1.708   3.893   0.236 -1.5710 -1.4816  0.7578
 4524TIP3    H235064   1.779   3.787   0.317  2.9669  0.4151 -0.4549
 4525TIP3   OH235065   6.201   1.366   2.300 -0.2325 -0.2215  0.0265
 4525TIP3    H135066   6.195   1.290   2.242 -0.8442 -0.1696  0.0076
 4525TIP3    H235067   6.294   1.386   2.305 -0.0917 -0.8087 -0.1811
 4526TIP3   OH235068   4.175   1.467  12.611 -0.3088 -0.4030  0.5340
 4526TIP3    H135069   4.230   1.480  12.534  0.2210  0.8449  1.0979
 4526TIP3    H235070   4.163   1.372  12.616 -0.1027 -0.5260 -0.9002
 4527TIP3   OH235071   6.421   5.037   4.690  0.9433  0.0313 -0.0924
 4527TIP3    H135072   6.514   5.058   4.686  1.0960 -0.8431 -2.3643
 4527TIP3    H235073   6.411   4.989   4.772  2.2566  1.0418  0.7120
 4528TIP3   OH235074   6.410   6.381   3.711 -0.4556 -0.3741 -0.4667
 4528TIP3    H135075   6.442   6.351   3.796 -0.3283  2.2696  0.5092
 4528TIP3    H235076   6.326   6.336   3.701  0.4067 -2.2091  0.1099
 4529TIP3   OH235077   4.530   4.434  11.437  0.1807 -0.2497  0.6779
 4529TIP3    H135078   4.592   4.381  11.387 -0.4828  0.6037 -1.1631
 4529TIP3    H235079   4.528   4.518  11.391 -2.0973 -0.1512  0.8382
 4530TIP3   OH235080   2.966   2.528   0.473  0.4100 -0.3504  0.0989
 4530TIP3    H135081   3.026   2.466   0.513  1.4079  0.0824 -0.6907
 4530TIP3    H235082   2.931   2.481   0.396  0.4645 -0.2588  0.0184
 4531TIP3   OH235083   4.353   1.148  15.375 -0.0754  1.1081 -0.0242
 4531TIP3    H135084   4.431   1.106  15.338  0.1005  1.0480  0.4017
 4531TIP3    H235085   4.381   1.177  15.462 -0.7344  0.4375  0.4276
 4532TIP3   OH235086   6.263   5.180  11.857 -0.1542 -0.1611 -0.1254
 4532TIP3    H135087   6.354   5.172  11.830  0.5524  0.1886  1.9236
 4532TIP3    H235088   6.219   5.104  11.819  1.0352 -0.4601 -0.9469
 4533TIP3   OH235089   6.703   5.778  10.901  0.0425  0.3650  0.3563
 4533TIP3    H135090   6.611   5.757  10.886 -0.5767  1.6890  1.9051
 4533TIP3    H235091   6.744   5.774  10.815 -1.2056 -1.3441 -0.2055
 4534TIP3   OH235092   2.188   3.172   2.349  0.2101  0.1729 -0.0144
 4534TIP3    H135093   2.257   3.108   2.332  0.6790  0.6597 -0.0067
 4534TIP3    H235094   2.235   3.248   2.383 -0.4324  0.2040  0.8186
 4535TIP3   OH235095   2.392   1.446   6.589  0.1166  0.5877 -0.0502
 4535TIP3    H135096   2.478   1.473   6.622  0.7723 -0.6885 -0.6837
 4535TIP3    H235097   2.331   1.508   6.631  1.2882  1.3094  0.6627
 4536TIP3   OH235098   2.500   0.633  11.726  0.0623  0.2994  0.9663
 4536TIP3    H135099   2.554   0.654  11.802  0.5201 -1.0388  1.0381
 4536TIP3    H235100   2.512   0.538  11.714  0.7995  0.6478 -1.3785
 4537TIP3   OH235101   0.321   4.662  11.651  0.0218  0.1977  0.1546
 4537TIP3    H135102   0.334   4.640  11.744 -2.6024  0.3609  0.6219
 4537TIP3    H235103   0.256   4.600  11.620  0.9175  0.0891 -1.6539
 4538TIP3   OH235104   4.798   2.350   4.801  0.5257  0.4505  0.6618
 4538TIP3    H135105   4.780   2.420   4.864 -0.2071 -0.2722  1.2673
 4538TIP3    H235106   4.787   2.269   4.851 -0.5022 -0.1493 -0.4895
 4539TIP3   OH235107   2.098   1.402  13.965 -0.3156 -0.1836 -0.0774
 4539TIP3    H135108   2.113   1.483  13.917 -2.1164  0.2149 -0.0288
 4539TIP3    H235109   2.180   1.353  13.956  0.5946  1.3843 -0.5812
 4540TIP3   OH235110   4.705   5.771  11.685 -0.7543  0.4298  0.3348
 4540TIP3    H135111   4.790   5.781  11.727 -1.3136 -1.6908  2.1296
 4540TIP3    H235112   4.700   5.845  11.624  1.2466  2.0913  2.0273
 4541TIP3   OH235113   2.909   6.680  12.813  0.1156 -0.1319  0.3999
 4541TIP3    H135114   2.895   6.605  12.756  1.2044 -0.3317  0.3783
 4541TIP3    H235115   2.932   6.752  12.754 -0.8189  0.2046  0.4298
 4542TIP3   OH235116   4.441   6.425  11.417 -0.0605 -0.0924 -0.6360
 4542TIP3    H135117   4.353   6.430  11.378  0.2337 -1.7422 -1.6237
 4542TIP3    H235118   4.493   6.377  11.353  1.2572 -0.1986  0.4628
 4543TIP3   OH235119   1.273   3.643  11.853  0.1254 -0.7844 -0.6698
 4543TIP3    H135120   1.301   3.604  11.770  1.5446 -2.9591  0.7245
 4543TIP3    H235121   1.355   3.659  11.901 -0.6409  0.7560  0.1991
 4544TIP3   OH235122   3.552   5.718  13.393 -0.4117  1.0752  0.4178
 4544TIP3    H135123   3.646   5.732  13.384 -0.1186 -1.2281 -0.7476
 4544TIP3    H235124   3.513   5.798  13.356  1.0880  0.8400 -1.9379
 4545TIP3   OH235125   6.124   0.585  14.211  0.0572 -0.1072 -0.3364
 4545TIP3    H135126   6.079   0.661  14.247  2.8412  0.4312  2.5177
 4545TIP3    H235127   6.065   0.512  14.227 -0.9472  0.9039  0.7842
 4546TIP3   OH235128   3.114   4.539  17.099 -0.0817  0.1937  0.5618
 4546TIP3    H135129   3.148   4.456  17.064 -1.7148 -0.5352  0.6038
 4546TIP3    H235130   3.180   4.568  17.161 -0.4108 -2.2194  2.1722
 4547TIP3   OH235131   5.350   1.502   5.190 -0.3381 -0.5169 -0.0083
 4547TIP3    H135132   5.329   1.592   5.215 -1.3382 -0.8593  0.4512
 4547TIP3    H235133   5.444   1.502   5.175 -0.3972  0.7224 -0.5153
 4548TIP3   OH235134   0.224   3.104  16.996 -0.1213 -0.3425  0.4079
 4548TIP3    H135135   0.237   3.089  16.903  0.2246 -2.9231  0.8194
 4548TIP3    H235136   0.130   3.095  17.010 -0.3203  1.0771  0.2016
 4549TIP3   OH235137   5.342   6.746  14.567  0.7083 -0.1413  0.0094
 4549TIP3    H135138   5.329   6.761  14.661  0.7210  2.0155 -0.2824
 4549TIP3    H235139   5.298   6.663  14.549 -3.2677  1.5007  1.1165
 4550TIP3   OH235140   6.221   0.302  15.975  0.4871 -0.0785  0.3386
 4550TIP3    H135141   6.244   0.287  16.067 -0.8486 -1.0321  0.5484
 4550TIP3    H235142   6.131   0.270  15.968  0.5248  0.1110 -1.2824
 4551TIP3   OH235143   3.340   2.499  14.396 -0.0667 -0.2774  0.2107
 4551TIP3    H135144   3.254   2.517  14.433  0.2827 -0.1669  0.9942
 4551TIP3    H235145   3.378   2.435  14.456  0.5825  0.0312  0.1361
 4552TIP3   OH235146   6.616   5.341  12.653 -0.3357 -0.4473  0.4818
 4552TIP3    H135147   6.640   5.259  12.609 -0.2628  0.0817 -0.4847
 4552TIP3    H235148   6.521   5.345  12.648 -0.2619  0.1371 -0.6037
 4553TIP3   OH235149   5.240   1.394   1.604 -0.0367 -0.3895  0.0753
 4553TIP3    H135150   5.211   1.400   1.513 -1.5859 -0.2974  0.5365
 4553TIP3    H235151   5.311   1.457   1.611 -0.4216  0.1768 -0.8913
 4554TIP3   OH235152   3.073   4.130   2.029 -0.3812  1.2380 -0.6409
 4554TIP3    H135153   3.014   4.192   2.072 -1.4648  0.9739 -1.7143
 4554TIP3    H235154   3.159   4.149   2.068 -1.3151  0.9096  1.7324
 4555TIP3   OH235155   0.383   3.514  16.322  0.4813  0.2620 -0.8691
 4555TIP3    H135156   0.448   3.445  16.333  0.9913  0.8590  0.0063
 4555TIP3    H235157   0.434   3.593  16.307  0.0690  1.0236  1.2798
 4556TIP3   OH235158   0.892   4.143  16.557  0.0751  0.7502  0.2121
 4556TIP3    H135159   0.862   4.129  16.467 -1.9528 -2.0705  1.2009
 4556TIP3    H235160   0.987   4.132  16.552  0.2182  2.1176 -1.7373
 4557TIP3   OH235161   5.450   4.629   4.625  0.6341  0.0355 -0.0344
 4557TIP3    H135162   5.438   4.556   4.565 -0.9707 -1.4928  1.9825
 4557TIP3    H235163   5.378   4.689   4.605 -0.5817 -1.0120  0.9935
 4558TIP3   OH235164   3.117   5.495  12.589  0.0155  0.4512 -0.5756
 4558TIP3    H135165   3.154   5.554  12.655  1.1401 -1.6465  0.7825
 4558TIP3    H235166   3.023   5.497  12.605  0.1876  0.6614  0.5046
 4559TIP3   OH235167   1.713   1.897   0.285  0.4740  0.4960  0.1327
 4559TIP3    H135168   1.670   1.976   0.253  0.9466  0.4372 -0.6710
 4559TIP3    H235169   1.699   1.899   0.380  0.2703  1.4098  0.0940
 4560TIP3   OH235170   4.018   1.984   2.554 -0.7232 -0.2015  0.4385
 4560TIP3    H135171   4.037   2.035   2.475 -3.7249  2.3408  1.1224
 4560TIP3    H235172   4.015   1.893   2.525  1.9044  0.2115 -1.5096
 4561TIP3   OH235173   3.287   1.501   2.007  0.1200  0.0111  0.4338
 4561TIP3    H135174   3.271   1.593   1.988  0.2293 -0.1229 -0.3200
 4561TIP3    H235175   3.234   1.453   1.944 -0.7419 -0.4621  1.4830
 4562TIP3   OH235176   5.611   0.383  16.578  0.4069  0.0022  0.2637
 4562TIP3    H135177   5.562   0.301  16.571 -0.3772  0.4304  0.4886
 4562TIP3    H235178   5.562   0.444  16.523  0.9361  0.3411  0.1635
 4563TIP3   OH235179   4.765   4.010  14.552  0.0064  0.0199 -0.0255
 4563TIP3    H135180   4.737   4.067  14.480  0.3690 -1.9472 -1.8079
 4563TIP3    H235181   4.695   4.018  14.617 -0.1716  2.1018 -0.4030
 4564TIP3   OH235182   4.850   4.590   1.598 -0.1122  0.4639 -0.0347
 4564TIP3    H135183   4.767   4.550   1.572 -0.9496  1.7137  0.5770
 4564TIP3    H235184   4.890   4.527   1.658  0.0204 -0.7213 -1.3249
 4565TIP3   OH235185   0.754   3.538   1.742  0.0994 -0.4277  0.2369
 4565TIP3    H135186   0.677   3.557   1.796  0.1479 -0.7279  0.4150
 4565TIP3    H235187   0.728   3.465   1.687 -0.3000  0.5419 -0.9085
 4566TIP3   OH235188   5.096   0.955   1.469  0.1412 -0.5843  0.1090
 4566TIP3    H135189   5.022   1.011   1.491  0.1806 -0.5317  0.1092
 4566TIP3    H235190   5.059   0.867   1.459 -0.1846 -0.2985 -1.4429
 4567TIP3   OH235191   0.789   3.614  16.042 -0.2521  0.4354 -0.1163
 4567TIP3    H135192   0.755   3.526  16.025 -0.4201  0.5076 -0.1579
 4567TIP3    H235193   0.874   3.599  16.083  0.0271  0.2547 -0.7527
 4568TIP3   OH235194   1.336   4.113  11.158  0.3499  0.2047  0.4952
 4568TIP3    H135195   1.264   4.147  11.211 -0.3905 -1.9331  0.9920
 4568TIP3    H235196   1.293   4.078  11.080  1.1299  0.8457 -0.2427
 4569TIP3   OH235197   3.862   0.122  15.541  0.0131 -0.0529 -0.1487
 4569TIP3    H135198   3.900   0.049  15.492 -0.0970 -0.9993  1.1052
 4569TIP3    H235199   3.892   0.109  15.631  0.5139  1.8391  0.0003
 4570TIP3   OH235200   3.703   3.443   2.616 -0.2185 -0.0005  0.5913
 4570TIP3    H135201   3.704   3.388   2.695 -2.8062  0.5083  1.0540
 4570TIP3    H235202   3.670   3.528   2.646  0.4656  0.7723 -0.7421
 4571TIP3   OH235203   0.862   4.718   1.699 -0.2525 -0.3834 -0.4939
 4571TIP3    H135204   0.787   4.713   1.757  0.1351  0.1493  0.0649
 4571TIP3    H235205   0.897   4.807   1.712  0.1323 -0.4292 -1.1636
 4572TIP3   OH235206   6.164   1.071  13.892 -0.4962  0.1335  0.1811
 4572TIP3    H135207   6.080   1.115  13.877  0.1896  0.7318 -2.3844
 4572TIP3    H235208   6.191   1.041  13.805  0.9342 -1.9847  1.2646
 4573TIP3   OH235209   2.459   5.980  11.092 -0.7116  0.0987 -0.1633
 4573TIP3    H135210   2.471   6.008  11.183 -2.2374  1.1127 -0.2333
 4573TIP3    H235211   2.547   5.974  11.056 -0.1476  0.9073  1.0309
 4574TIP3   OH235212   0.138   5.593  12.724 -0.0557 -0.2831 -0.3112
 4574TIP3    H135213   0.187   5.652  12.667 -1.1207  0.5707 -0.3832
 4574TIP3    H235214   0.165   5.506  12.698  0.4126  0.1374 -1.2637
 4575TIP3   OH235215   3.481   6.352  11.864  0.2259  0.1038  0.3696
 4575TIP3    H135216   3.424   6.323  11.793  2.4975  0.4132 -1.7235
 4575TIP3    H235217   3.435   6.325  11.944 -2.6634  0.1257 -1.1320
 4576TIP3   OH235218   6.042   6.173  11.936 -0.3657  0.3620 -0.0133
 4576TIP3    H135219   6.046   6.219  11.852  0.1893 -0.1158 -0.2590
 4576TIP3    H235220   5.956   6.194  11.971 -0.7637  0.2420 -0.8926
 4577TIP3   OH235221   0.017   2.039  16.341 -0.4338 -0.4599  0.2169
 4577TIP3    H135222  -0.076   2.057  16.323  0.1051  1.2568 -1.1026
 4577TIP3    H235223   0.059   2.125  16.338  1.0497 -1.0822  1.9320
 4578TIP3   OH235224   2.778   5.883  12.854  0.4441 -0.0261 -0.2224
 4578TIP3    H135225   2.865   5.919  12.868  0.7905 -0.4160 -1.3121
 4578TIP3    H235226   2.728   5.911  12.931  1.9359 -1.1214  1.2126
 4579TIP3   OH235227   0.005   3.804   2.766 -0.0763  0.0647 -0.5738
 4579TIP3    H135228  -0.042   3.775   2.688 -0.3662  0.8794 -0.7158
 4579TIP3    H235229   0.081   3.850   2.732  1.4060 -2.0539 -0.3514
 4580TIP3   OH235230   4.520   2.201   5.571  0.6036 -0.1972 -0.1831
 4580TIP3    H135231   4.535   2.174   5.662 -1.0067 -1.7506 -0.3221
 4580TIP3    H235232   4.437   2.248   5.573  1.4444  1.3683 -0.6040
 4581TIP3   OH235233   1.827   5.736   0.552  0.0955 -0.2752  0.0598
 4581TIP3    H135234   1.914   5.730   0.512 -0.6517  0.5938 -1.8270
 4581TIP3    H235235   1.820   5.828   0.579 -0.3674 -0.2481 -0.1441
 4582TIP3   OH235236   1.943   6.338   3.149 -0.5606 -0.0478 -0.1810
 4582TIP3    H135237   1.967   6.245   3.153 -1.6381 -0.3026  0.9175
 4582TIP3    H235238   2.027   6.384   3.146 -0.0025 -1.0437 -0.2912
 4583TIP3   OH235239   3.967   4.455   2.822 -0.2262  0.0062  0.0564
 4583TIP3    H135240   3.955   4.449   2.727  0.3237 -0.4563  0.0031
 4583TIP3    H235241   4.030   4.385   2.842  1.1448  1.3048  0.4925
 4584TIP3   OH235242   6.133   2.927  14.184 -0.3857  0.0334  0.3792
 4584TIP3    H135243   6.147   2.948  14.092 -1.8217  2.8455  0.6925
 4584TIP3    H235244   6.078   2.849  14.182  0.9594 -0.9539 -1.0525
 4585TIP3   OH235245   5.560   3.217   1.298 -0.6671  0.1554 -0.4334
 4585TIP3    H135246   5.594   3.305   1.282 -1.0396  0.2674 -0.6194
 4585TIP3    H235247   5.522   3.191   1.214 -1.2853  0.1391 -0.1492
 4586TIP3   OH235248   5.353   0.867  16.387 -0.1778 -0.5014 -0.3151
 4586TIP3    H135249   5.287   0.847  16.320 -0.7767  2.6265 -0.7874
 4586TIP3    H235250   5.327   0.813  16.462 -1.6949 -1.2964 -1.3560
 4587TIP3   OH235251   5.152   3.586  15.635 -0.1070 -0.7962 -0.3246
 4587TIP3    H135252   5.226   3.542  15.592  0.4520 -1.5649  1.3342
 4587TIP3    H235253   5.178   3.591  15.727 -0.8512  1.6168 -0.1809
 4588TIP3   OH235254   4.827   5.710   3.142  0.4839  0.4254 -0.0117
 4588TIP3    H135255   4.870   5.643   3.196  0.5032  0.7483  0.3770
 4588TIP3    H235256   4.873   5.791   3.164  0.1052  0.6580 -0.0803
 4589TIP3   OH235257   0.749   0.931  11.657 -0.6416  0.1761 -0.6805
 4589TIP3    H135258   0.674   0.931  11.717 -0.1701 -0.3708 -0.0774
 4589TIP3    H235259   0.718   0.980  11.580 -0.9483  1.7106  0.3725
 4590TIP3   OH235260   1.116   2.534   4.703  0.2755 -0.0709  0.2599
 4590TIP3    H135261   1.145   2.443   4.703  1.1765  0.1965 -0.6007
 4590TIP3    H235262   1.194   2.584   4.677 -0.4540  0.8617 -0.2184
 4591TIP3   OH235263   1.218   4.211   2.562 -0.3653 -0.4225 -0.2575
 4591TIP3    H135264   1.138   4.240   2.519 -0.5002 -1.6615 -0.8928
 4591TIP3    H235265   1.192   4.135   2.615  0.2646 -0.4625  0.0117
 4592TIP3   OH235266   4.288   5.134  15.866 -0.0266  0.3401  0.2879
 4592TIP3    H135267   4.368   5.146  15.916  0.2729  1.8462 -0.4801
 4592TIP3    H235268   4.318   5.111  15.778 -0.5391 -2.2514  0.6983
 4593TIP3   OH235269   3.710   0.662  12.979  0.3377 -0.5987 -0.1517
 4593TIP3    H135270   3.759   0.580  12.967  3.0617  0.9165 -0.1562
 4593TIP3    H235271   3.776   0.725  13.008 -1.6573  1.6338 -0.2133
 4594TIP3   OH235272   1.100   6.761   4.646  0.1542  0.7795  0.8533
 4594TIP3    H135273   1.020   6.760   4.593  0.7338  0.8657 -0.0467
 4594TIP3    H235274   1.120   6.854   4.657  1.3263  0.7707 -0.8173
 4595TIP3   OH235275   3.876   3.635   4.397  0.0320 -0.2066 -0.2452
 4595TIP3    H135276   3.923   3.628   4.480  0.8283  0.7774 -0.6012
 4595TIP3    H235277   3.793   3.677   4.420 -0.6257 -1.7495  0.3495
 4596TIP3   OH235278   5.879   1.738   4.713 -0.1932  0.4316  0.2532
 4596TIP3    H135279   5.918   1.700   4.792 -2.0014  0.1081  1.0459
 4596TIP3    H235280   5.903   1.678   4.643  0.1516 -0.1082  0.8245
 4597TIP3   OH235281   3.894   0.890  12.714  0.0704  0.1328 -0.3627
 4597TIP3    H135282   3.924   0.814  12.663 -1.5263 -0.2339 -0.7941
 4597TIP3    H235283   3.834   0.936  12.655 -0.4600  0.6750  0.5868
 4598TIP3   OH235284   5.504   5.311  16.935 -0.3507  0.0505  0.5977
 4598TIP3    H135285   5.501   5.223  16.897 -1.8455  0.8685 -1.3521
 4598TIP3    H235286   5.588   5.347  16.906 -0.3504 -0.2373  0.2414
 4599TIP3   OH235287   3.346   2.991   1.619 -0.0340 -0.4630 -0.0358
 4599TIP3    H135288   3.287   3.006   1.544 -1.4243  1.2510  1.3160
 4599TIP3    H235289   3.434   3.002   1.583 -0.7059  2.6954 -1.0379
 4600TIP3   OH235290   5.311   2.316  13.670 -0.2073 -0.2152  0.2293
 4600TIP3    H135291   5.258   2.389  13.702 -0.2536 -0.4562  0.7005
 4600TIP3    H235292   5.367   2.293  13.743  0.1401 -0.3466 -0.0755
 4601TIP3   OH235293   3.824   5.091  14.703 -0.6098  0.3847  0.7564
 4601TIP3    H135294   3.734   5.082  14.670 -0.8317  0.3236  1.3732
 4601TIP3    H235295   3.837   5.014  14.758  1.1665 -1.7369 -2.3115
 4602TIP3   OH235296   3.147   2.133  13.500 -0.6700 -0.5305 -0.5298
 4602TIP3    H135297   3.106   2.138  13.587 -1.9903  1.7312 -1.1986
 4602TIP3    H235298   3.188   2.047  13.499  1.0280  0.0378  3.0098
 4603TIP3   OH235299   1.951   1.547  14.156  0.1923  0.5760  0.1808
 4603TIP3    H135300   1.908   1.463  14.173  0.4694  0.5729  0.9407
 4603TIP3    H235301   2.017   1.528  14.090  0.4810  0.1145  0.5919
 4604TIP3   OH235302   3.474   6.650   0.323 -0.2738 -0.3957  0.0400
 4604TIP3    H135303   3.536   6.608   0.264  0.8894  1.9033 -0.4908
 4604TIP3    H235304   3.519   6.729   0.352 -2.7024  1.0167  0.1952
 4605TIP3   OH235305   5.293   0.251   2.691  0.1396 -0.2402  0.2785
 4605TIP3    H135306   5.338   0.285   2.768 -1.5826 -0.5304  1.4648
 4605TIP3    H235307   5.362   0.209   2.639  1.2084 -0.7602  2.0552
 4606TIP3   OH235308   5.260   3.843  15.702  0.0814 -0.3661 -0.2865
 4606TIP3    H135309   5.192   3.793  15.656  0.5852 -1.2774 -0.0666
 4606TIP3    H235310   5.214   3.884  15.775 -0.1789 -1.3036  0.0968
 4607TIP3   OH235311   1.106   6.389  14.550  0.1097 -0.9072  0.1458
 4607TIP3    H135312   1.196   6.370  14.577 -0.3175 -2.6433  0.4723
 4607TIP3    H235313   1.062   6.416  14.630  0.0829 -1.1282  0.2074
 4608TIP3   OH235314   2.776   6.653   2.645 -0.1442  0.8857  0.0564
 4608TIP3    H135315   2.769   6.734   2.696  0.1714  0.4853  0.7575
 4608TIP3    H235316   2.792   6.682   2.555 -3.2022  1.6731 -0.3396
 4609TIP3   OH235317   6.194   0.487   1.835 -0.5262  0.5741  0.3386
 4609TIP3    H135318   6.250   0.562   1.858  2.8544 -1.7774  0.5318
 4609TIP3    H235319   6.179   0.442   1.918  1.3077 -1.2693 -0.2317
 4610TIP3   OH235320   3.499   1.402  13.515  0.1026 -0.2746  0.0099
 4610TIP3    H135321   3.496   1.310  13.541  0.6627  0.2957  2.3513
 4610TIP3    H235322   3.591   1.427  13.525 -0.2602  0.8528  0.7383
 4611TIP3   OH235323   5.909   4.504   5.514 -0.6234 -0.2092 -0.2830
 4611TIP3    H135324   5.948   4.565   5.575 -0.4678  0.3896 -0.9622
 4611TIP3    H235325   5.949   4.526   5.429 -0.7551 -1.0808 -0.5823
 4612TIP3   OH235326   6.425   3.353   0.678 -0.0484  0.0667  0.5877
 4612TIP3    H135327   6.498   3.303   0.642 -1.1032 -0.6256 -0.7058
 4612TIP3    H235328   6.365   3.287   0.713 -1.7169  0.2477 -1.6224
 4613TIP3   OH235329   1.807   1.135  14.635 -0.1491 -0.3762 -0.4382
 4613TIP3    H135330   1.734   1.081  14.605 -1.1629 -0.3032  1.7053
 4613TIP3    H235331   1.835   1.095  14.718 -0.7688  2.1211  1.1050
 4614TIP3   OH235332   5.818   5.713  11.806  0.9940 -0.3986 -0.5399
 4614TIP3    H135333   5.752   5.647  11.790 -0.5423  0.5007  1.6385
 4614TIP3    H235334   5.866   5.682  11.883  2.2014 -0.3314 -1.2241
 4615TIP3   OH235335   0.285   3.398   0.984 -0.1863 -0.1506  0.0878
 4615TIP3    H135336   0.249   3.418   1.071  0.6553  2.2319 -0.0192
 4615TIP3    H235337   0.237   3.321   0.955 -1.4915 -0.1696  2.0741
 4616TIP3   OH235338   5.623   1.488  17.119 -0.1081 -0.8013 -0.6805
 4616TIP3    H135339   5.536   1.521  17.097 -0.0702  1.5674  2.1837
 4616TIP3    H235340   5.606   1.410  17.173 -0.4267 -0.7741 -0.7442
 4617TIP3   OH235341   4.618   2.703  13.633  0.2370  0.0040  0.3721
 4617TIP3    H135342   4.634   2.613  13.661 -1.1844 -0.8544 -1.3475
 4617TIP3    H235343   4.554   2.738  13.695  2.7790  0.8588  2.7037
 4618TIP3   OH235344   3.819   3.409  12.243  0.0688  0.2297  0.8437
 4618TIP3    H135345   3.853   3.376  12.160 -0.4651  1.2576  0.1953
 4618TIP3    H235346   3.806   3.331  12.296 -0.2325 -0.5151 -0.2956
 4619TIP3   OH235347   6.826   3.284  14.738 -0.4915  0.3368  0.6841
 4619TIP3    H135348   6.870   3.355  14.785  1.9658  0.2996 -1.3625
 4619TIP3    H235349   6.864   3.204  14.773 -0.2497  0.2147  0.1419
 4620TIP3   OH235350   5.688   3.431   2.144 -0.5336 -1.0750 -0.0306
 4620TIP3    H135351   5.704   3.346   2.185 -3.1025 -0.5329  2.3957
 4620TIP3    H235352   5.593   3.441   2.144 -0.3429  1.6319 -0.6024
 4621TIP3   OH235353   6.324   3.229  11.964  0.2031  0.0464  0.2695
 4621TIP3    H135354   6.315   3.222  12.059  1.8399  0.7483  0.4972
 4621TIP3    H235355   6.407   3.274  11.950 -0.0675  0.0779 -1.5029
 4622TIP3   OH235356   0.120   4.570   2.611  0.4153 -0.5095  0.2724
 4622TIP3    H135357   0.061   4.497   2.632 -0.2479 -0.0778 -0.0395
 4622TIP3    H235358   0.134   4.564   2.517  0.4209 -0.2898  0.2575
 4623TIP3   OH235359   3.905   1.192  12.385  0.2632  0.2533 -0.4431
 4623TIP3    H135360   3.910   1.180  12.290 -2.2984  1.2069 -0.7895
 4623TIP3    H235361   3.842   1.263  12.396  0.2053 -0.1136  1.9964
 4624TIP3   OH235362   5.272   6.071  13.235  0.2594  0.0408  0.4222
 4624TIP3    H135363   5.224   6.145  13.199 -0.9181 -1.1890 -0.6664
 4624TIP3    H235364   5.255   5.999  13.173  2.0403 -0.9252  0.9706
 4625TIP3   OH235365   0.574   1.093   4.682 -0.0955 -0.1329  0.1750
 4625TIP3    H135366   0.506   1.027   4.697  0.6258 -1.3851 -1.7655
 4625TIP3    H235367   0.640   1.075   4.749 -1.0375  0.2617  1.2457
 4626TIP3   OH235368   2.148   4.313   0.020  0.1029  0.2273  0.0403
 4626TIP3    H135369   2.235   4.314  -0.021 -0.2952  1.7260 -0.8398
 4626TIP3    H235370   2.156   4.374   0.093 -0.2358  0.4096 -0.0771
 4627TIP3   OH235371   4.606   4.363  12.183 -0.3025 -0.7496 -0.3996
 4627TIP3    H135372   4.682   4.354  12.125 -0.6211 -0.7259 -0.8232
 4627TIP3    H235373   4.624   4.443  12.233  1.0380 -1.9296  1.1485
 4628TIP3   OH235374   5.093   6.265  14.354 -0.3032 -0.1755  0.0201
 4628TIP3    H135375   5.000   6.243  14.348 -0.6398  1.1748 -0.0704
 4628TIP3    H235376   5.100   6.350  14.310  1.0558 -0.4606 -0.3594
 4629TIP3   OH235377   4.558   0.676  11.610  0.1067 -0.4657  0.5681
 4629TIP3    H135378   4.517   0.594  11.582 -1.1711  0.2214  0.3963
 4629TIP3    H235379   4.626   0.692  11.545 -1.6494  0.1784 -1.1851
 4630TIP3   OH235380   6.131   1.990  11.444 -0.2933 -0.0369  0.5835
 4630TIP3    H135381   6.113   1.898  11.421 -0.4452  0.3494 -0.9867
 4630TIP3    H235382   6.197   2.018  11.380  0.0813  0.8223  1.3375
 4631TIP3   OH235383   1.988   3.063   0.876  1.0463  0.5204  0.6737
 4631TIP3    H135384   2.080   3.074   0.901  1.4312  1.5738 -1.0083
 4631TIP3    H235385   1.977   2.969   0.863  1.4754  0.2240  2.2349
 4632TIP3   OH235386   1.504   5.017   6.091 -0.4066 -0.4302 -0.1096
 4632TIP3    H135387   1.528   5.012   5.999  0.9981 -1.9458  0.2965
 4632TIP3    H235388   1.428   4.959   6.100  0.2144 -1.2410 -0.0901
 4633TIP3   OH235389   3.787   5.805  11.604  1.1060 -0.3987 -0.1787
 4633TIP3    H135390   3.820   5.874  11.662 -0.8544  0.2230  0.2728
 4633TIP3    H235391   3.723   5.849  11.549  0.6647 -1.6447 -0.6791
 4634TIP3   OH235392   2.984   6.761  15.694 -0.3499  0.1225  0.2158
 4634TIP3    H135393   3.050   6.693  15.710 -0.7301 -0.2589  0.1807
 4634TIP3    H235394   3.002   6.828  15.761 -0.5405 -0.4383  0.8410
 4635TIP3   OH235395   2.710   1.158   2.563  0.3128 -0.1834 -0.0908
 4635TIP3    H135396   2.698   1.171   2.469  1.1140  0.0602 -0.1722
 4635TIP3    H235397   2.798   1.193   2.581 -0.2490  0.7746  0.9472
 4636TIP3   OH235398   6.551   0.938  15.553 -0.0390  0.3007 -0.0101
 4636TIP3    H135399   6.512   0.865  15.506 -0.3575  0.2718  0.3003
 4636TIP3    H235400   6.523   0.927  15.644  0.3178  0.5305  0.1336
 4637TIP3   OH235401   6.012   0.035   6.506  0.0092  0.2415  0.1913
 4637TIP3    H135402   5.917   0.023   6.518  0.3324 -0.7347  2.1063
 4637TIP3    H235403   6.021   0.126   6.479 -1.3284  1.1897  2.6225
 4638TIP3   OH235404   1.797   3.726   3.787  0.1369  0.1139  0.2057
 4638TIP3    H135405   1.877   3.767   3.819 -0.6104  0.8299  1.2649
 4638TIP3    H235406   1.766   3.673   3.861 -0.5256  0.1077 -0.0665
 4639TIP3   OH235407   2.335   0.604  17.063  0.2677  0.1536 -0.1030
 4639TIP3    H135408   2.277   0.649  17.002 -0.9180  0.9217  1.5087
 4639TIP3    H235409   2.296   0.518  17.074 -0.6006  0.6501  0.9353
 4640TIP3   OH235410   6.515   2.314  13.399 -0.1850 -0.9480 -0.0222
 4640TIP3    H135411   6.578   2.366  13.350 -0.6180  0.0170  0.4098
 4640TIP3    H235412   6.481   2.250  13.337  0.5696 -0.8919 -0.4888
 4641TIP3   OH235413   0.414   4.949   0.757 -0.3810 -0.6881  0.1126
 4641TIP3    H135414   0.417   5.007   0.681  1.5364 -0.4337  0.3269
 4641TIP3    H235415   0.354   4.993   0.818 -0.3543  0.1605 -0.4511
 4642TIP3   OH235416   5.254   5.870  11.344  0.2350  0.0951 -0.0589
 4642TIP3    H135417   5.216   5.957  11.330 -1.5783 -0.9007 -1.8784
 4642TIP3    H235418   5.312   5.857  11.269 -1.3133 -1.1253 -1.1053
 4643TIP3   OH235419   3.474   3.494   5.359  0.2779 -0.6510 -0.3231
 4643TIP3    H135420   3.470   3.500   5.263 -0.6308 -1.8365 -0.3888
 4643TIP3    H235421   3.567   3.483   5.379  0.5426  0.2370 -1.0163
 4644TIP3   OH235422   3.869   4.094  14.249  0.1404 -0.2125 -0.0723
 4644TIP3    H135423   3.809   4.021  14.267 -1.5793  1.1442 -0.1089
 4644TIP3    H235424   3.837   4.166  14.304  2.3449  0.2949  0.6444
 4645TIP3   OH235425   5.252   4.155  13.317 -0.0584 -0.2424 -0.1380
 4645TIP3    H135426   5.222   4.110  13.238 -0.8726 -1.1833  0.6894
 4645TIP3    H235427   5.342   4.180  13.297 -0.8370  1.3112 -2.1288
 4646TIP3   OH235428   6.226   2.347   4.305 -0.1613  0.2955  0.1492
 4646TIP3    H135429   6.285   2.307   4.242  0.3937  0.3210  0.6397
 4646TIP3    H235430   6.256   2.315   4.390 -0.2400  1.0694  0.4825
 4647TIP3   OH235431   2.835   1.528   2.807 -0.2255  0.0773 -0.5818
 4647TIP3    H135432   2.801   1.438   2.800 -1.3285  0.4059  0.2786
 4647TIP3    H235433   2.913   1.520   2.862  0.1182 -0.4510 -1.1336
 4648TIP3   OH235434   2.665   0.816  15.940  0.1599 -0.1461  0.4188
 4648TIP3    H135435   2.755   0.783  15.947 -0.0162 -0.6167  0.5025
 4648TIP3    H235436   2.646   0.814  15.846 -0.2297 -1.3432  0.5008
 4649TIP3   OH235437   2.059   1.731   1.322 -0.2096  0.3858 -0.0703
 4649TIP3    H135438   1.966   1.709   1.314 -0.5500  2.0743 -1.2266
 4649TIP3    H235439   2.099   1.697   1.243 -0.4488  2.3258 -1.0822
 4650TIP3   OH235440   4.361   1.197  13.468 -0.3444  0.3628  0.2166
 4650TIP3    H135441   4.358   1.269  13.405 -2.0982 -1.0423 -1.4523
 4650TIP3    H235442   4.285   1.143  13.446  1.1553 -2.2774  1.0604
 4651TIP3   OH235443   5.028   6.831  12.890  0.0264 -0.0217 -0.3183
 4651TIP3    H135444   5.014   6.908  12.945  0.2610 -0.2540  0.0770
 4651TIP3    H235445   5.082   6.863  12.818  0.9788 -0.0101  0.3665
 4652TIP3   OH235446   0.410   4.223  13.820  0.0040  0.2815  0.1872
 4652TIP3    H135447   0.501   4.232  13.848 -0.0431  2.3417 -0.1428
 4652TIP3    H235448   0.385   4.311  13.792 -1.8022 -0.4481 -0.6485
 4653TIP3   OH235449   6.178   3.356   3.213 -0.9259  0.4940  0.0028
 4653TIP3    H135450   6.215   3.441   3.237 -0.8506  0.6049 -0.5007
 4653TIP3    H235451   6.255   3.300   3.197 -0.9292 -0.1678  1.9729
 4654TIP3   OH235452   5.432   0.566   1.603  0.1262  0.0995 -0.0692
 4654TIP3    H135453   5.400   0.650   1.635  2.3842  1.8014 -1.9071
 4654TIP3    H235454   5.521   0.560   1.637  0.3628 -1.0618 -0.8317
 4655TIP3   OH235455   2.647   3.452  11.889  0.3981  0.0829 -0.1338
 4655TIP3    H135456   2.611   3.477  11.805 -1.0286 -2.0052 -0.2455
 4655TIP3    H235457   2.672   3.360  11.878  0.1377 -0.2581  1.6916
 4656TIP3   OH235458   6.698   2.621  16.163 -0.4228 -0.5140  0.3142
 4656TIP3    H135459   6.782   2.654  16.196 -1.7143  2.4496  0.9599
 4656TIP3    H235460   6.696   2.649  16.071 -2.1183  2.8888  1.2162
 4657TIP3   OH235461   2.662   5.639   5.603 -0.0285  0.4766 -0.5063
 4657TIP3    H135462   2.585   5.612   5.552  1.1383 -0.1528 -2.0372
 4657TIP3    H235463   2.707   5.702   5.547  2.0773 -1.3220 -0.9915
 4658TIP3   OH235464   4.568   0.792   4.192 -0.0862  0.0410 -0.3661
 4658TIP3    H135465   4.597   0.775   4.282  0.6628  1.2226 -0.3564
 4658TIP3    H235466   4.559   0.705   4.153  0.2139 -0.4684  0.6498
 4659TIP3   OH235467   5.215   3.467  11.324  0.6929 -0.2284  0.6935
 4659TIP3    H135468   5.187   3.518  11.247 -0.3634 -2.0722 -0.2041
 4659TIP3    H235469   5.135   3.456  11.375  1.2463  0.3423  1.7034
 4660TIP3   OH235470   0.449   5.272  14.186  0.0182  0.1191 -0.1409
 4660TIP3    H135471   0.527   5.314  14.150  0.3629  0.7706  1.2914
 4660TIP3    H235472   0.402   5.343  14.230 -1.0225 -0.4097 -0.3817
 4661TIP3   OH235473   0.478   4.742   3.478  0.6255  0.6487 -0.2149
 4661TIP3    H135474   0.500   4.772   3.390  0.4441  1.7105  0.0858
 4661TIP3    H235475   0.414   4.805   3.510  0.8567  0.4082  0.7630
 4662TIP3   OH235476   4.838   1.582   4.514  0.2045  0.8566  0.4679
 4662TIP3    H135477   4.842   1.489   4.536 -2.1909  0.3573 -0.7739
 4662TIP3    H235478   4.925   1.603   4.480  1.3030 -0.4574  2.2927
 4663TIP3   OH235479   2.244   0.771   5.338 -0.0020  0.0156 -0.0525
 4663TIP3    H135480   2.314   0.822   5.377  2.5042 -0.7055 -3.1643
 4663TIP3    H235481   2.236   0.693   5.393  2.0122 -0.0843  0.1453
 4664TIP3   OH235482   4.623   5.862   3.811 -0.2839  0.1015  0.7723
 4664TIP3    H135483   4.662   5.882   3.725  0.1205  0.8980  1.1285
 4664TIP3    H235484   4.533   5.838   3.791  0.1696 -1.0593 -0.0018
 4665TIP3   OH235485   0.919   0.801  15.916 -0.2835 -0.3691  0.0258
 4665TIP3    H135486   0.922   0.798  16.011  2.3323 -2.2230 -0.0047
 4665TIP3    H235487   0.827   0.788  15.894 -0.8225 -0.7120  2.2673
 4666TIP3   OH235488   2.871   4.421   6.661 -0.6585  0.5670  0.3210
 4666TIP3    H135489   2.863   4.434   6.756 -2.2548  2.3495  0.0175
 4666TIP3    H235490   2.795   4.367   6.639  0.4587 -1.0014  0.2046
 4667TIP3   OH235491   1.642   0.669   1.589 -0.1950 -0.0299 -0.4181
 4667TIP3    H135492   1.602   0.696   1.672 -0.6901  3.2460 -1.5459
 4667TIP3    H235493   1.735   0.659   1.609 -0.2675  0.9361  0.5353
 4668TIP3   OH235494   5.522   4.207  14.839 -0.3205 -0.0234  0.4757
 4668TIP3    H135495   5.554   4.296  14.851 -0.2498  0.2399 -1.3372
 4668TIP3    H235496   5.514   4.197  14.744 -2.3716 -1.2313  0.7009
 4669TIP3   OH235497   3.100   3.408  15.503 -0.2620  0.1051 -0.2980
 4669TIP3    H135498   3.187   3.368  15.495 -0.0849  0.4567 -0.1408
 4669TIP3    H235499   3.092   3.432  15.595 -0.9582 -0.8838 -0.0809
 4670TIP3   OH235500   1.526   2.902   0.007  0.2883 -0.1458 -0.2300
 4670TIP3    H135501   1.522   2.808   0.028  1.0321  0.4416  3.0175
 4670TIP3    H235502   1.434   2.927  -0.004  0.1215 -1.4174 -2.4356
 4671TIP3   OH235503   1.240   5.473   0.730 -0.0308  0.4249 -0.0694
 4671TIP3    H135504   1.160   5.432   0.763 -2.1231  2.8857 -1.7101
 4671TIP3    H235505   1.277   5.518   0.806 -0.6130 -0.1073  0.5496
 4672TIP3   OH235506   2.787   3.854   1.112 -0.3512  0.2605 -0.0990
 4672TIP3    H135507   2.868   3.822   1.073 -0.6471 -1.3084  0.5134
 4672TIP3    H235508   2.725   3.782   1.101 -0.3570 -0.4712  3.5535
 4673TIP3   OH235509   3.751   1.029  11.164 -0.5631  0.2669  0.6596
 4673TIP3    H135510   3.774   1.108  11.115  1.3227  0.8642  2.3881
 4673TIP3    H235511   3.656   1.022  11.155 -0.7448  2.5873  0.2470
 4674TIP3   OH235512   5.119   3.863   4.583 -0.3491 -0.3038  0.0842
 4674TIP3    H135513   5.144   3.955   4.573 -3.3069  0.6434  0.1551
 4674TIP3    H235514   5.197   3.819   4.616  1.5533  1.9011 -1.2431
 4675TIP3   OH235515   4.824   4.325  14.126 -0.0275 -0.3342  0.4607
 4675TIP3    H135516   4.738   4.322  14.169  0.5729 -0.6046  1.7097
 4675TIP3    H235517   4.837   4.236  14.094 -0.1873 -0.3078  0.3209
 4676TIP3   OH235518   6.556   0.323  14.341  0.0314  0.0014  0.5693
 4676TIP3    H135519   6.477   0.273  14.361 -0.1000 -0.0037  0.0564
 4676TIP3    H235520   6.528   0.415  14.343 -0.1748 -0.0323 -0.3828
 4677TIP3   OH235521   1.726   1.856   5.326  0.5972 -0.8619 -0.4614
 4677TIP3    H135522   1.655   1.832   5.386 -0.1508 -0.4199 -1.1436
 4677TIP3    H235523   1.771   1.774   5.308  0.8803 -0.9829  0.7587
 4678TIP3   OH235524   0.215   1.801  10.490  0.3262  0.4311 -0.4073
 4678TIP3    H135525   0.289   1.835  10.439  0.4595  1.8189  0.6661
 4678TIP3    H235526   0.245   1.717  10.524  2.1093  1.7217  1.4257
 4679TIP3   OH235527   6.152   4.125   1.633  0.0762  0.2042 -0.1714
 4679TIP3    H135528   6.068   4.134   1.588  0.2770 -3.3163 -1.6067
 4679TIP3    H235529   6.215   4.114   1.562  1.1317 -1.0745  0.9215
 4680TIP3   OH235530   0.798   1.318  11.926 -0.3902  0.1565  0.2252
 4680TIP3    H135531   0.845   1.244  11.887 -0.1565  0.5004 -0.1545
 4680TIP3    H235532   0.848   1.395  11.899 -0.7756  0.4717  0.4046
 4681TIP3   OH235533   6.401   5.472   2.056  0.0446  0.4950 -0.0713
 4681TIP3    H135534   6.342   5.517   1.996  1.2192  0.3180 -1.4155
 4681TIP3    H235535   6.461   5.540   2.087  0.1423  0.3761  0.0060
 4682TIP3   OH235536   6.081   1.290  17.097  0.5865  0.4706  0.4955
 4682TIP3    H135537   6.025   1.359  17.060 -2.3828 -2.1730 -0.3753
 4682TIP3    H235538   6.098   1.320  17.186  1.2668  3.2836 -0.4490
 4683TIP3   OH235539   5.818   2.564  16.686  0.0445  0.2446 -0.1357
 4683TIP3    H135540   5.899   2.534  16.644 -0.3015  1.2120 -1.5462
 4683TIP3    H235541   5.835   2.654  16.711 -0.3604  0.2226  0.2476
 4684TIP3   OH235542   3.506   5.476  12.071 -0.4088 -0.5309  0.0123
 4684TIP3    H135543   3.426   5.528  12.060 -0.5310 -0.6909  0.1321
 4684TIP3    H235544   3.571   5.539  12.103 -0.8276 -0.6454  1.1399
 4685TIP3   OH235545   6.444   6.754   5.777 -0.8198  0.0942 -0.2921
 4685TIP3    H135546   6.508   6.770   5.708 -0.2818 -1.4775 -0.1834
 4685TIP3    H235547   6.374   6.704   5.735 -0.8604 -0.2067  0.1262
 4686TIP3   OH235548   2.978   1.494  15.271  0.2155  0.0136  0.3419
 4686TIP3    H135549   2.957   1.435  15.344  0.8365 -2.0669 -1.0543
 4686TIP3    H235550   2.960   1.582  15.305 -1.3606 -0.9869  2.3514
 4687TIP3   OH235551   2.043   0.354  13.213  0.1137 -0.0775 -0.4213
 4687TIP3    H135552   2.010   0.269  13.240 -1.0289 -0.2078 -2.0684
 4687TIP3    H235553   2.121   0.335  13.161  1.7101  0.1171  1.7530
 4688TIP3   OH235554   5.950   0.483   1.257  0.2455  0.0656 -0.0943
 4688TIP3    H135555   6.043   0.463   1.269 -0.1992 -1.8214  0.5964
 4688TIP3    H235556   5.909   0.398   1.238 -1.3741  0.8171 -0.1662
 4689TIP3   OH235557   2.579   4.175  13.846  0.6540  0.3210  0.0376
 4689TIP3    H135558   2.545   4.261  13.867  0.7563 -0.2604  2.9909
 4689TIP3    H235559   2.674   4.183  13.857  0.8266  0.1674 -1.1692
 4690TIP3   OH235560   4.936   1.665  11.434 -0.7489 -0.1487  0.5277
 4690TIP3    H135561   4.927   1.632  11.344 -2.0000  1.1456  0.1402
 4690TIP3    H235562   4.847   1.688  11.460 -0.2335  0.6680  1.6354
 4691TIP3   OH235563   1.995   2.315   3.218 -0.1701  0.1322 -0.4156
 4691TIP3    H135564   1.925   2.250   3.215 -1.0884  1.1308 -1.3796
 4691TIP3    H235565   2.045   2.299   3.138  0.4287 -0.2525  0.0235
 4692TIP3   OH235566   6.690   4.896  14.322 -0.1661  0.4795  0.0429
 4692TIP3    H135567   6.715   4.844  14.245  0.2869  1.2158 -0.3142
 4692TIP3    H235568   6.672   4.830  14.389 -0.3039 -0.1692 -0.6084
 4693TIP3   OH235569   4.745   2.391  14.427 -0.4432 -0.0610 -0.0665
 4693TIP3    H135570   4.694   2.392  14.346 -1.8684 -0.7478  0.7836
 4693TIP3    H235571   4.727   2.305  14.465  2.0087 -0.6627 -0.1135
 4694TIP3   OH235572   0.785   1.551   5.616  0.1944  0.2842  0.1970
 4694TIP3    H135573   0.858   1.601   5.652  0.9560 -1.0682  0.5767
 4694TIP3    H235574   0.770   1.591   5.530  1.2377  0.7220  0.2019
 4695TIP3   OH235575   3.846   1.720  16.091 -0.6468 -0.1030 -1.0993
 4695TIP3    H135576   3.849   1.816  16.089 -0.7515 -0.0780 -0.1666
 4695TIP3    H235577   3.842   1.695  15.998 -0.2206  0.7760 -1.3695
 4696TIP3   OH235578   1.455   5.906  14.205 -0.0386 -0.1162 -0.0767
 4696TIP3    H135579   1.480   5.956  14.282  1.1834 -0.5231 -0.1805
 4696TIP3    H235580   1.518   5.834  14.203 -1.6563 -1.6010  0.0082
 4697TIP3   OH235581   2.378   0.942  13.498 -0.3818  0.4816 -0.5208
 4697TIP3    H135582   2.398   0.962  13.407  0.0271 -2.6805 -1.2345
 4697TIP3    H235583   2.343   0.854  13.496 -1.8964  0.9174  2.2536
 4698TIP3   OH235584   3.753   4.707   2.081 -0.2189 -0.4999 -0.8066
 4698TIP3    H135585   3.784   4.711   1.991 -0.4898 -0.3469 -0.8905
 4698TIP3    H235586   3.811   4.766   2.129  0.1330 -0.8266 -0.8180
 4699TIP3   OH235587   0.953   0.633   4.659  0.0177  0.1316  0.2169
 4699TIP3    H135588   0.935   0.627   4.565 -1.3086  0.6678  0.4115
 4699TIP3    H235589   0.892   0.570   4.698  0.5921 -0.1161  0.7256
 4700TIP3   OH235590   3.649   2.639  16.559  0.1561 -0.8410  0.4428
 4700TIP3    H135591   3.554   2.638  16.547 -0.1130 -0.3615  2.1799
 4700TIP3    H235592   3.677   2.726  16.529  0.3049 -1.5143 -1.4935
 4701TIP3   OH235593   3.874   6.600  11.603  0.0900  0.3654  0.0211
 4701TIP3    H135594   3.871   6.505  11.600  0.5926  0.2198  2.3294
 4701TIP3    H235595   3.814   6.624  11.673  0.7666  1.6688  0.1853
 4702TIP3   OH235596   6.203   5.678  14.748  0.2467  0.3216  0.0983
 4702TIP3    H135597   6.232   5.589  14.727  1.0284  0.3319  1.0446
 4702TIP3    H235598   6.270   5.711  14.808 -0.3500  1.3367  0.2267
 4703TIP3   OH235599   0.229   1.413   0.258 -0.3081 -0.2858 -0.0903
 4703TIP3    H135600   0.250   1.502   0.229 -0.1518 -0.4508 -0.4968
 4703TIP3    H235601   0.293   1.395   0.327  0.7219 -0.6717 -1.1140
 4704TIP3   OH235602   4.238   1.468   3.291  0.5786 -0.2969 -0.0118
 4704TIP3    H135603   4.295   1.467   3.368  0.3018  0.4365  0.2145
 4704TIP3    H235604   4.253   1.383   3.248  2.0522 -0.0077 -0.1228
 4705TIP3   OH235605   6.615   3.995  16.491 -0.2809  0.2048 -0.2085
 4705TIP3    H135606   6.672   4.044  16.433  1.8493 -0.0687  1.5439
 4705TIP3    H235607   6.637   3.903  16.475 -0.6360  0.0629  0.0970
 4706TIP3   OH235608   5.861   2.582  15.413 -0.0469  0.0860  0.0404
 4706TIP3    H135609   5.842   2.490  15.395  1.0921 -0.1550  0.0466
 4706TIP3    H235610   5.882   2.619  15.327 -0.0504  0.2332  0.1035
 4707TIP3   OH235611   0.037   1.508   0.662 -0.1222 -0.1076 -0.0940
 4707TIP3    H135612  -0.015   1.588   0.652  2.7021  1.9241  0.2059
 4707TIP3    H235613  -0.008   1.459   0.731 -2.3681  0.7730 -0.8243
 4708TIP3   OH235614   6.502   2.891   2.699 -0.0510 -0.1947 -0.6433
 4708TIP3    H135615   6.577   2.853   2.653 -1.0196 -0.4282 -2.1090
 4708TIP3    H235616   6.426   2.860   2.650 -1.1728 -0.5718  1.2326
 4709TIP3   OH235617   3.604   6.650  15.406  0.2129  0.2755 -0.0005
 4709TIP3    H135618   3.526   6.676  15.356 -0.7164  0.8217  1.6752
 4709TIP3    H235619   3.655   6.598  15.344 -1.1580  0.4598 -1.3519
 4710TIP3   OH235620   6.768   5.235  11.032  0.0429  0.5602 -0.2162
 4710TIP3    H135621   6.823   5.159  11.011 -1.1419 -0.8053  1.2963
 4710TIP3    H235622   6.811   5.309  10.990  2.3202 -0.6438 -0.1633
 4711TIP3   OH235623   0.815   1.445  16.487 -0.1541  0.3484  0.1748
 4711TIP3    H135624   0.838   1.356  16.461  0.6950  0.4924  0.3736
 4711TIP3    H235625   0.898   1.494  16.479 -0.7170  1.2282 -0.4178
 4712TIP3   OH235626   5.703   1.913   3.085  0.7184 -0.1490 -0.0151
 4712TIP3    H135627   5.752   1.832   3.094  0.4962 -0.1686  1.2000
 4712TIP3    H235628   5.647   1.899   3.009  1.6375 -0.6172 -0.6220
 4713TIP3   OH235629   0.950   6.307  13.772  0.7550  0.0857 -0.3660
 4713TIP3    H135630   0.903   6.328  13.692  1.2361  1.0067 -0.4183
 4713TIP3    H235631   0.887   6.257  13.824 -0.9085  2.5698  0.2231
 4714TIP3   OH235632   5.366   5.884   3.460  0.3815  0.1834 -0.5930
 4714TIP3    H135633   5.440   5.832   3.490  0.6229  1.1067  0.4852
 4714TIP3    H235634   5.338   5.933   3.537 -1.5139 -0.3119 -0.9192
 4715TIP3   OH235635   3.412   2.187  13.215  0.1379 -0.5841 -0.6149
 4715TIP3    H135636   3.354   2.233  13.275 -0.9767 -0.2020 -1.9248
 4715TIP3    H235637   3.469   2.135  13.271 -1.7182 -1.2655  0.7169
 4716TIP3   OH235638   3.718   3.690   5.032  0.2422 -0.2623  0.2222
 4716TIP3    H135639   3.746   3.755   4.967  2.0303  0.2697  1.4578
 4716TIP3    H235640   3.743   3.727   5.116 -1.6165 -1.1473  1.2366
 4717TIP3   OH235641   0.683   1.203   3.134 -0.0266  0.1689 -0.2868
 4717TIP3    H135642   0.653   1.118   3.167 -2.8691  0.3629 -1.9522
 4717TIP3    H235643   0.609   1.235   3.082  1.9944  2.4110 -2.0109
 4718TIP3   OH235644   1.376   6.394   6.661 -0.4636 -0.5599 -0.2689
 4718TIP3    H135645   1.302   6.454   6.669 -1.1350 -0.9990 -2.3664
 4718TIP3    H235646   1.445   6.431   6.716 -1.7752  0.6089  0.6366
 4719TIP3   OH235647   5.246   0.168  15.553  0.3053 -0.4439  0.0450
 4719TIP3    H135648   5.242   0.084  15.508  0.4071 -1.1105  1.2235
 4719TIP3    H235649   5.337   0.174  15.584  0.8016  0.9381 -1.5062
 4720TIP3   OH235650   1.907   3.383   5.722  0.3082 -0.2719  0.2772
 4720TIP3    H135651   1.845   3.445   5.761  0.0780 -0.4999  0.2838
 4720TIP3    H235652   1.958   3.435   5.660 -0.6835 -0.3037 -0.5984
 4721TIP3   OH235653   4.017   3.872   1.867 -0.1254 -0.1045 -0.1304
 4721TIP3    H135654   3.994   3.838   1.953 -0.8444 -0.4022 -0.4353
 4721TIP3    H235655   4.057   3.957   1.884  0.4140 -0.4833  0.5453
 4722TIP3   OH235656   4.977   3.374  11.845  0.2070  1.0806 -0.4099
 4722TIP3    H135657   4.893   3.379  11.799  1.2481  1.7683 -2.3472
 4722TIP3    H235658   4.967   3.301  11.906 -1.4034  0.4265 -1.4042
 4723TIP3   OH235659   2.718   2.597   6.226  0.2798  0.1677  0.3519
 4723TIP3    H135660   2.758   2.653   6.160  2.0682  0.3220  1.4947
 4723TIP3    H235661   2.654   2.653   6.270  0.0194  0.4412 -0.3652
 4724TIP3   OH235662   4.180   3.215  14.489  0.3063 -0.0725 -0.1680
 4724TIP3    H135663   4.262   3.171  14.464  0.3652  0.1063 -0.2917
 4724TIP3    H235664   4.208   3.287  14.545  0.2132 -0.1506 -0.0196
 4725TIP3   OH235665   5.631   3.229   6.383  0.4555 -0.2156  0.3658
 4725TIP3    H135666   5.652   3.150   6.433  3.7524 -0.2230 -0.7767
 4725TIP3    H235667   5.610   3.196   6.295 -2.0017  0.0319  0.7706
 4726TIP3   OH235668   2.995   0.619  11.238 -0.3497  0.1783  0.3251
 4726TIP3    H135669   2.928   0.590  11.175 -0.8322  1.3795  0.2541
 4726TIP3    H235670   2.945   0.653  11.312  0.2147 -1.6360  1.6061
 4727TIP3   OH235671   3.281   2.908  13.371  0.2645 -0.2047  0.1991
 4727TIP3    H135672   3.353   2.961  13.337  0.3101 -0.3631  0.0496
 4727TIP3    H235673   3.289   2.916  13.466 -0.4351  1.0069  0.1801
 4728TIP3   OH235674   5.193   2.533  14.634  0.5316  0.0891 -0.8454
 4728TIP3    H135675   5.199   2.439  14.652 -0.2478  0.4216  1.4868
 4728TIP3    H235676   5.272   2.570  14.673  0.0251  0.5703 -0.2621
 4729TIP3   OH235677   0.603   0.172   5.200  0.3800 -0.2115 -0.1737
 4729TIP3    H135678   0.647   0.240   5.148  0.3297 -0.3499 -0.3945
 4729TIP3    H235679   0.510   0.194   5.194  0.3106 -0.6338 -0.7232
 4730TIP3   OH235680   1.084   0.872  16.524 -0.6391  0.0217 -0.1049
 4730TIP3    H135681   1.058   0.959  16.494  1.2080  0.1109 -1.6780
 4730TIP3    H235682   1.094   0.880  16.618 -1.5597  1.2011 -0.0903
 4731TIP3   OH235683   1.694   0.751  13.011  0.1669  0.8651  0.1770
 4731TIP3    H135684   1.776   0.747  13.060  0.2062 -2.0151  0.0531
 4731TIP3    H235685   1.628   0.717  13.072 -0.4310  0.6534 -0.5769
 4732TIP3   OH235686   2.522   6.734  11.537 -0.7988 -0.3999  0.0173
 4732TIP3    H135687   2.504   6.828  11.537 -0.5031 -0.3442  0.3750
 4732TIP3    H235688   2.551   6.715  11.626  0.1019 -0.6499 -0.3248
 4733TIP3   OH235689   6.384   3.566  11.942  0.4337  0.0751 -0.3419
 4733TIP3    H135690   6.417   3.522  12.020 -0.3870  1.2951  0.7374
 4733TIP3    H235691   6.460   3.612  11.906  0.4919  0.7743  0.6483
 4734TIP3   OH235692   0.038   4.453  14.078  0.1529  0.1432 -0.1522
 4734TIP3    H135693   0.035   4.357  14.086 -0.0683  0.0344 -1.3553
 4734TIP3    H235694   0.112   4.470  14.019 -0.1056  0.6802 -0.3253
 4735TIP3   OH235695   1.618   5.687   6.450  0.3239  0.1378 -0.2091
 4735TIP3    H135696   1.534   5.698   6.405 -0.1023 -0.3696  0.4499
 4735TIP3    H235697   1.627   5.593   6.463 -0.8718  0.3328  3.1270
 4736TIP3   OH235698   2.607   2.139  11.073 -1.0904 -0.2243  0.1514
 4736TIP3    H135699   2.567   2.212  11.120 -1.7427 -0.4352 -0.0615
 4736TIP3    H235700   2.559   2.062  11.103 -0.7475 -0.5006 -0.0043
 4737TIP3   OH235701   0.605   6.180   0.759  0.2349  0.2587  0.7554
 4737TIP3    H135702   0.640   6.167   0.847  1.0563  1.8979  0.7044
 4737TIP3    H235703   0.573   6.270   0.758 -1.6279 -0.3337 -0.0362
 4738TIP3   OH235704   1.443   0.342   2.462 -0.0752  0.1597  0.1974
 4738TIP3    H135705   1.520   0.390   2.431  0.0547 -1.0423 -1.4534
 4738TIP3    H235706   1.476   0.255   2.485 -0.8992 -0.3442 -0.4485
 4739TIP3   OH235707   5.706   1.775  13.190  0.8876 -0.3980  0.5071
 4739TIP3    H135708   5.736   1.863  13.216 -1.7864  0.6663  0.3002
 4739TIP3    H235709   5.611   1.780  13.195  0.6216 -2.9858 -0.6112
 4740TIP3   OH235710   1.444   6.451  12.668 -0.1341 -0.7802  0.1846
 4740TIP3    H135711   1.396   6.384  12.717  1.5974  0.4184  3.8539
 4740TIP3    H235712   1.524   6.407  12.639 -1.5457 -1.7357 -2.6052
 4741TIP3   OH235713   5.143   1.988   1.459  0.5402  0.7762 -0.2283
 4741TIP3    H135714   5.175   2.043   1.388  1.9865  0.5056  0.1885
 4741TIP3    H235715   5.048   1.987   1.447  0.6820  1.4415 -1.6252
 4742TIP3   OH235716   2.953   2.856  13.056 -0.2071 -0.4647  0.5347
 4742TIP3    H135717   3.015   2.789  13.029 -1.8251 -1.2481 -1.5138
 4742TIP3    H235718   2.901   2.814  13.125 -2.5414 -2.2529 -2.0774
 4743TIP3   OH235719   6.046   4.545   0.574  0.1404  0.3019 -0.1352
 4743TIP3    H135720   5.973   4.606   0.567 -0.3793 -0.4242 -1.4749
 4743TIP3    H235721   6.005   4.458   0.578  0.9010 -0.0677 -0.0854
 4744TIP3   OH235722   1.737   0.393   1.711  0.3902  0.1734 -0.6057
 4744TIP3    H135723   1.828   0.405   1.683  1.2674 -0.6000  1.6909
 4744TIP3    H235724   1.718   0.469   1.766 -0.2435  0.1449 -0.7751
 4745TIP3   OH235725   6.242   0.542  14.490  0.4192  0.1042 -0.3465
 4745TIP3    H135726   6.191   0.496  14.423 -0.9443  2.3184 -0.9146
 4745TIP3    H235727   6.241   0.483  14.565 -0.8919 -0.9747 -1.1720
 4746TIP3   OH235728   2.867   0.535  13.531 -0.3257 -0.0763 -0.2548
 4746TIP3    H135729   2.856   0.442  13.511 -0.2579 -0.0438 -0.4364
 4746TIP3    H235730   2.824   0.546  13.616  1.0392 -0.5998  0.5283
 4747TIP3   OH235731   4.590   4.555   4.680  0.0627  0.1746  0.1363
 4747TIP3    H135732   4.636   4.594   4.606  0.9291  0.7152  0.9434
 4747TIP3    H235733   4.521   4.502   4.640 -0.9075  2.2166 -1.0066
 4748TIP3   OH235734   0.479   5.165  12.769  0.2195  0.5137 -0.3037
 4748TIP3    H135735   0.500   5.193  12.680 -0.7546 -1.1012 -1.0913
 4748TIP3    H235736   0.562   5.134  12.805  0.2196 -0.8905 -1.4622
 4749TIP3   OH235737   4.794   6.701   1.409 -0.1970  0.0748  0.2193
 4749TIP3    H135738   4.722   6.673   1.353  1.1388 -1.4829 -0.8301
 4749TIP3    H235739   4.797   6.796   1.398 -1.1094 -0.0006 -0.9408
 4750TIP3   OH235740   1.579   6.267  14.153  0.3329 -0.4110  0.2359
 4750TIP3    H135741   1.656   6.230  14.195  0.3897 -0.9653 -0.3250
 4750TIP3    H235742   1.611   6.342  14.103  0.6160 -0.9509 -0.4175
 4751TIP3   OH235743   0.466   4.199   1.793 -0.0660 -0.4204 -0.5756
 4751TIP3    H135744   0.536   4.138   1.767  0.6954  0.9727 -1.9403
 4751TIP3    H235745   0.423   4.223   1.710 -1.2173 -0.1029  0.0867
 4752TIP3   OH235746   5.999   3.696  11.929 -0.1621 -0.1941  0.4113
 4752TIP3    H135747   6.018   3.789  11.920  0.5375 -0.4606 -1.1983
 4752TIP3    H235748   5.965   3.687  12.018  1.9420  1.2177  1.4246
 4753TIP3   OH235749   2.979   0.215  10.266 -0.4185 -0.2118 -0.4871
 4753TIP3    H135750   3.009   0.248  10.182  1.4038  0.7999  0.5062
 4753TIP3    H235751   3.031   0.263  10.331 -1.8470 -0.8650  1.2289
 4754TIP3   OH235752   4.641   4.775   6.404  0.1789 -0.0411 -0.8750
 4754TIP3    H135753   4.550   4.793   6.429  0.2684  0.8371 -1.1628
 4754TIP3    H235754   4.694   4.822   6.468  0.4410 -0.4335 -0.7952
 4755TIP3   OH235755   0.163   4.587  16.896  0.2715  0.4182 -0.4642
 4755TIP3    H135756   0.114   4.505  16.886  1.3425 -0.3257  0.1537
 4755TIP3    H235757   0.142   4.637  16.818 -0.3570 -0.4824 -0.8909
 4756TIP3   OH235758   6.057   5.658  12.667 -0.1246  0.1632 -0.1176
 4756TIP3    H135759   6.104   5.590  12.716 -0.3842 -0.6847 -1.0280
 4756TIP3    H235760   6.118   5.683  12.598 -0.7701 -0.5120 -0.9395
 4757TIP3   OH235761   3.315   5.562   2.611 -0.3621  0.2516  0.2009
 4757TIP3    H135762   3.330   5.479   2.566  1.8679  1.6810 -1.9713
 4757TIP3    H235763   3.228   5.589   2.584 -0.7454 -0.9263  0.2002
 4758TIP3   OH235764   3.077   5.779   0.776  0.0337 -0.1206 -0.4240
 4758TIP3    H135765   3.087   5.775   0.680  0.0187  2.3094 -0.5803
 4758TIP3    H235766   2.984   5.795   0.789  0.1435  0.1923 -0.0316
 4759TIP3   OH235767   5.396   6.239  14.895 -0.6212 -0.2818  0.4010
 4759TIP3    H135768   5.343   6.179  14.843  0.6886 -2.1405  1.0899
 4759TIP3    H235769   5.457   6.279  14.832 -1.4455  0.3003 -0.0459
 4760TIP3   OH235770   0.752   5.599  16.050 -0.0449  0.3767  0.4348
 4760TIP3    H135771   0.720   5.594  15.960 -0.6031 -0.6123  0.6771
 4760TIP3    H235772   0.677   5.575  16.104 -0.0132  1.9346  1.2395
 4761TIP3   OH235773   3.478   4.599   0.904 -0.1249  0.2616  0.1197
 4761TIP3    H135774   3.387   4.602   0.932 -0.3598  0.3267 -0.6223
 4761TIP3    H235775   3.483   4.522   0.847  0.1835  0.4944 -0.1721
 4762TIP3   OH235776   0.206   0.094  16.375 -0.4592 -0.0466 -0.4692
 4762TIP3    H135777   0.282   0.096  16.433 -1.3858 -0.0591  0.7879
 4762TIP3    H235778   0.240   0.120  16.290  1.0817 -0.6973 -0.0895
 4763TIP3   OH235779   3.457   1.851   4.433  0.5324 -0.7764  0.4613
 4763TIP3    H135780   3.518   1.851   4.507 -0.6274 -2.0011  1.4631
 4763TIP3    H235781   3.385   1.794   4.461 -1.3530  1.0348 -0.4535
 4764TIP3   OH235782   1.392   1.529  10.831  0.2191  0.1238 -0.2087
 4764TIP3    H135783   1.369   1.439  10.812  0.5761  0.0397 -0.2412
 4764TIP3    H235784   1.441   1.524  10.913 -1.3481  0.4803  0.7993
 4765TIP3   OH235785   5.651   6.062  16.054  0.1036  0.0787 -0.1548
 4765TIP3    H135786   5.701   6.141  16.076  1.1678 -0.9436  1.2445
 4765TIP3    H235787   5.717   5.993  16.049 -0.9692 -0.9734 -0.1156
 4766TIP3   OH235788   6.455   5.867   3.524  0.1217  0.3477  0.3320
 4766TIP3    H135789   6.440   5.787   3.473 -0.8066  0.2674  0.7161
 4766TIP3    H235790   6.386   5.866   3.590 -0.3727  1.8502 -0.1312
 4767TIP3   OH235791   1.822   3.359  17.146  0.2225  0.4908  0.1475
 4767TIP3    H135792   1.878   3.432  17.118 -0.4358  0.3464 -1.7073
 4767TIP3    H235793   1.823   3.299  17.072 -0.8376 -0.4308  0.8601
 4768TIP3   OH235794   0.739   3.794   2.195 -0.1305 -0.3553 -0.4455
 4768TIP3    H135795   0.797   3.867   2.215  0.3239 -0.4486 -1.3651
 4768TIP3    H235796   0.794   3.731   2.149 -0.7958 -0.7526 -0.7203
 4769TIP3   OH235797   2.918   1.067  17.137 -0.2210 -0.0377 -0.3845
 4769TIP3    H135798   2.950   1.015  17.211 -0.4402 -0.4575 -0.5784
 4769TIP3    H235799   2.883   1.002  17.076  0.5035  0.2600 -1.1233
 4770TIP3   OH235800   0.038   4.800  12.721 -0.7537  0.0444 -0.0995
 4770TIP3    H135801  -0.021   4.875  12.732  0.7492  1.2438  0.1566
 4770TIP3    H235802   0.106   4.813  12.787  0.5166 -0.5634 -1.2340
 4771TIP3   OH235803   4.040   4.031  16.578  0.1141  0.1559  0.9036
 4771TIP3    H135804   3.990   4.023  16.497  3.9993 -1.6823 -1.6459
 4771TIP3    H235805   3.989   3.983  16.643 -3.0022  1.4083 -0.4423
 4772TIP3   OH235806   1.437   3.583  12.076  0.2805  0.3170 -0.3135
 4772TIP3    H135807   1.433   3.502  12.025 -2.2443 -1.0002  1.7322
 4772TIP3    H235808   1.526   3.585  12.111  0.1405 -2.1902  0.4026
 4773TIP3   OH235809   1.046   0.875   4.912 -0.1563 -0.2695  0.0937
 4773TIP3    H135810   0.977   0.937   4.938 -0.9424 -0.6550 -1.0212
 4773TIP3    H235811   1.116   0.889   4.977 -1.1636  0.3137  1.0896
 4774TIP3   OH235812   5.294   4.352   0.990 -0.0590 -0.6511  0.4737
 4774TIP3    H135813   5.260   4.422   0.935  0.5045  2.0697  3.3076
 4774TIP3    H235814   5.217   4.319   1.037  0.1689  1.0300  2.1416
 4775TIP3   OH235815   0.303   0.616   0.976  0.3766  0.5778  0.1869
 4775TIP3    H135816   0.292   0.604   1.070  1.0848 -2.7344 -0.0494
 4775TIP3    H235817   0.226   0.575   0.937  0.8299  0.5719 -0.7380
 4776TIP3   OH235818   0.984   1.860  12.424 -0.3567 -0.1922  0.3856
 4776TIP3    H135819   0.951   1.781  12.381  1.0684 -1.1620  1.0067
 4776TIP3    H235820   0.908   1.918  12.429 -1.4412 -1.5246 -0.0780
 4777TIP3   OH235821   4.705   1.201  13.103 -0.2922  0.0278 -0.6360
 4777TIP3    H135822   4.747   1.119  13.077  0.9659  0.6068 -0.4868
 4777TIP3    H235823   4.626   1.206  13.048 -0.7507 -1.5887 -0.1685
 4778TIP3   OH235824   1.226   2.641  14.121  0.2711  0.4794  0.6242
 4778TIP3    H135825   1.289   2.684  14.064  0.1900 -0.2207 -0.0099
 4778TIP3    H235826   1.142   2.651  14.076  0.4492 -1.4935 -0.2366
 4779TIP3   OH235827   3.179   6.248  15.308 -0.6630  0.1209 -0.9292
 4779TIP3    H135828   3.196   6.310  15.236 -1.6836  0.7583 -0.6505
 4779TIP3    H235829   3.084   6.252  15.320 -0.3770  1.4233  1.6653
 4780TIP3   OH235830   3.473   1.237   1.076 -0.5998  0.3709  0.1430
 4780TIP3    H135831   3.509   1.172   1.136  1.1609  0.9257 -0.2732
 4780TIP3    H235832   3.450   1.311   1.131  1.2510  0.9783  0.1450
 4781TIP3   OH235833   4.630   0.057  14.417  0.0077  0.1084  0.7755
 4781TIP3    H135834   4.670   0.033  14.333 -1.5816  0.2513 -0.0514
 4781TIP3    H235835   4.687   0.017  14.482  1.0188 -0.4185 -0.3803
 4782TIP3   OH235836   3.305   2.109  14.348  0.1321  0.2311 -0.3786
 4782TIP3    H135837   3.225   2.056  14.338 -0.2089  0.6713 -0.0466
 4782TIP3    H235838   3.303   2.168  14.273  0.9177 -0.7218 -1.1826
 4783TIP3   OH235839   5.111   2.032  16.316 -0.3515  0.4027  0.1082
 4783TIP3    H135840   5.048   2.033  16.244  0.8070  0.2957 -0.9487
 4783TIP3    H235841   5.188   1.989  16.280 -0.3925 -1.4198  2.0120
 4784TIP3   OH235842   4.259   5.276  13.435  0.1066 -0.3044  0.6527
 4784TIP3    H135843   4.258   5.183  13.411 -0.1636  0.1961 -1.4583
 4784TIP3    H235844   4.168   5.303  13.432 -0.2173 -0.5399  4.0704
 4785TIP3   OH235845   4.336   6.654  12.817 -0.0709 -0.0362 -0.5999
 4785TIP3    H135846   4.427   6.669  12.792  0.0197  1.1342  0.3263
 4785TIP3    H235847   4.285   6.679  12.739  0.3259  1.0481 -0.5285
 4786TIP3   OH235848   1.113   4.999   1.148 -0.2261 -0.6251 -0.1544
 4786TIP3    H135849   1.019   4.990   1.132  0.1071 -3.5496 -1.1525
 4786TIP3    H235850   1.149   5.023   1.063 -0.0404  0.4105  0.2084
 4787TIP3   OH235851   2.700   0.211  12.944 -0.2103  0.2089  0.0131
 4787TIP3    H135852   2.705   0.226  13.039  0.1840  0.7839 -0.0903
 4787TIP3    H235853   2.669   0.121  12.936  2.0742 -0.7365  0.7122
 4788TIP3   OH235854   3.837   1.648   5.901  0.3575 -0.0790 -0.0380
 4788TIP3    H135855   3.837   1.635   5.996 -0.0453 -0.0895 -0.0364
 4788TIP3    H235856   3.861   1.563   5.865 -0.4865 -0.3481  0.0260
 4789TIP3   OH235857   1.912   4.882   0.412  0.4339 -0.1371  0.4448
 4789TIP3    H135858   2.006   4.886   0.425  0.7175 -0.2415 -1.3286
 4789TIP3    H235859   1.876   4.947   0.472  1.6873  0.3294  0.7093
 4790TIP3   OH235860   6.697   0.037   6.518  0.2648 -0.1578 -0.4178
 4790TIP3    H135861   6.677  -0.011   6.599 -1.7888  3.0112  1.1443
 4790TIP3    H235862   6.772   0.091   6.539  0.5780 -0.2994 -1.1285
 4791TIP3   OH235863   4.585   0.588  13.105  0.1328  0.1487  0.0152
 4791TIP3    H135864   4.603   0.564  13.196 -0.0149 -0.1984 -0.0447
 4791TIP3    H235865   4.505   0.640  13.110 -0.1250 -0.2394  0.0435
 4792TIP3   OH235866   3.082   2.436  13.215 -0.0379  0.0588 -0.3090
 4792TIP3    H135867   2.990   2.441  13.242  0.6508  0.1774  2.2705
 4792TIP3    H235868   3.085   2.362  13.155 -1.9375  0.5775 -1.1392
 4793TIP3   OH235869   0.012   0.112  12.601 -0.1930 -0.0097 -0.7137
 4793TIP3    H135870  -0.062   0.168  12.625  0.7113 -0.0431  2.5847
 4793TIP3    H235871  -0.029   0.033  12.566 -1.6967  0.3645  0.0878
 4794TIP3   OH235872   5.603   5.697   5.289  0.0995  0.2534 -0.0839
 4794TIP3    H135873   5.605   5.607   5.256 -0.6551 -1.0237  2.9985
 4794TIP3    H235874   5.695   5.717   5.309  0.0682 -0.7536  1.2558
 4795TIP3   OH235875   2.031   3.252  11.199  0.0010  0.3309  0.5745
 4795TIP3    H135876   1.971   3.193  11.154 -0.9818  2.2860 -0.8685
 4795TIP3    H235877   2.095   3.276  11.132 -0.3505  1.8223  0.7434
 4796TIP3   OH235878   3.157   3.322   4.375  0.3947  0.1642  0.3812
 4796TIP3    H135879   3.083   3.318   4.314  0.3891 -1.0252  0.4497
 4796TIP3    H235880   3.218   3.383   4.334  0.4111 -0.6406 -0.8521
 4797TIP3   OH235881   2.863   0.646   1.792  0.2412  0.0631  0.0633
 4797TIP3    H135882   2.788   0.704   1.800  0.6756  0.5833  0.4700
 4797TIP3    H235883   2.871   0.604   1.877 -1.2258 -2.0846 -0.7739
 4798TIP3   OH235884   2.077   3.802  12.494  0.0086  0.0259  0.2188
 4798TIP3    H135885   2.095   3.773  12.583  1.8909  2.3580  0.6921
 4798TIP3    H235886   2.097   3.896  12.494 -0.4629  0.2223 -2.5281
 4799TIP3   OH235887   5.655   0.620  10.590  0.0940  0.2204  0.6860
 4799TIP3    H135888   5.693   0.694  10.638 -0.2526  0.2018  0.9946
 4799TIP3    H235889   5.721   0.598  10.524 -0.0045  1.1133  0.2681
 4800TIP3   OH235890   4.274   0.145   3.920  0.0023 -0.1563  0.6498
 4800TIP3    H135891   4.186   0.137   3.883  0.3941 -0.3043 -0.2881
 4800TIP3    H235892   4.332   0.121   3.848  0.8983  1.7750  0.6602
 4801TIP3   OH235893   3.884   3.840   6.976 -0.4224  0.0368  0.0063
 4801TIP3    H135894   3.969   3.796   6.983  0.4562  1.5769 -0.4494
 4801TIP3    H235895   3.905   3.933   6.980 -2.1604  0.4468  0.3871
 4802TIP3   OH235896   2.223   5.509  11.012 -0.0411 -0.0535  0.0583
 4802TIP3    H135897   2.143   5.560  11.023  0.0617 -0.2788  2.1263
 4802TIP3    H235898   2.237   5.466  11.096  2.1928 -0.1176 -0.2756
 4803TIP3   OH235899   0.981   0.222   2.429 -0.4481 -0.0660  0.3008
 4803TIP3    H135900   0.925   0.260   2.361  0.1474  0.1824 -0.0574
 4803TIP3    H235901   1.013   0.298   2.478 -0.1362 -0.1811  0.2775
 4804TIP3   OH235902   3.871   3.986  14.828 -0.2212  0.0695  0.3057
 4804TIP3    H135903   3.803   4.011  14.765 -0.7193 -0.3865  0.6550
 4804TIP3    H235904   3.825   3.977  14.912  0.0841 -1.1778  0.3675
 4805TIP3   OH235905   5.759   1.762  13.574 -0.0688  0.3384 -0.0809
 4805TIP3    H135906   5.776   1.830  13.640 -1.0220  0.6519 -0.1424
 4805TIP3    H235907   5.706   1.806  13.508 -1.0414 -0.5722  0.0835
 4806TIP3   OH235908   4.917   2.322   3.607  0.3746 -0.4038  0.3551
 4806TIP3    H135909   4.922   2.349   3.515 -0.8440  1.1028  0.6968
 4806TIP3    H235910   4.962   2.392   3.654  0.7072 -1.0114  0.9549
 4807TIP3   OH235911   0.998   4.808  14.916  1.0096  0.7935 -0.0948
 4807TIP3    H135912   1.056   4.838  14.986  1.0013  0.4915  0.0428
 4807TIP3    H235913   1.021   4.716  14.904  0.8312  0.7768 -0.3129
 4808TIP3   OH235914   4.124   1.865   2.899  0.0750 -0.1534 -0.6666
 4808TIP3    H135915   4.097   1.952   2.868  0.9721 -0.0471 -1.1903
 4808TIP3    H235916   4.095   1.862   2.990  0.2623  0.8039 -0.5632
 4809TIP3   OH235917   5.461   1.671   3.119 -0.8456 -0.7082  0.7332
 4809TIP3    H135918   5.384   1.708   3.077 -0.2799 -1.2118 -0.7916
 4809TIP3    H235919   5.521   1.652   3.047  1.1004  0.5398  1.9396
 4810TIP3   OH235920   5.474   3.153   3.390  0.0601  0.1959 -0.2326
 4810TIP3    H135921   5.561   3.179   3.359 -0.3530  4.6667  1.6480
 4810TIP3    H235922   5.413   3.205   3.338 -1.3711 -1.0330  0.1546
 4811TIP3   OH235923   0.152   0.573   4.169  0.4189 -0.0676  0.6650
 4811TIP3    H135924   0.187   0.535   4.088  0.2787 -0.7179  0.8994
 4811TIP3    H235925   0.137   0.497   4.226  0.7927  0.4103  1.4076
 4812TIP3   OH235926   1.495   2.695   4.603  0.2856  0.2782 -0.2779
 4812TIP3    H135927   1.461   2.739   4.525  0.5607 -1.3154 -1.3441
 4812TIP3    H235928   1.445   2.733   4.675 -1.1241  0.6569 -1.4005
 4813TIP3   OH235929   3.837   6.723   2.942 -0.4693  0.3423  0.1887
 4813TIP3    H135930   3.744   6.724   2.919 -0.2290  1.8880 -0.8226
 4813TIP3    H235931   3.877   6.660   2.882 -0.5124  1.3563 -0.9260
 4814TIP3   OH235932   2.386   2.464  15.516 -0.0097 -0.2163 -0.8862
 4814TIP3    H135933   2.296   2.469  15.486 -0.1240 -1.3951 -0.7863
 4814TIP3    H235934   2.402   2.548  15.559 -1.6883 -0.6715  0.7894
 4815TIP3   OH235935   1.923   5.904   0.281  0.0443 -0.3855  0.7588
 4815TIP3    H135936   1.978   5.979   0.257 -0.8988 -0.1855 -0.8923
 4815TIP3    H235937   1.880   5.932   0.362  1.6901 -0.2270  1.6355
 4816TIP3   OH235938   6.141   3.012   2.141  0.3433 -0.8375 -0.6057
 4816TIP3    H135939   6.049   2.989   2.153  0.3719 -1.1712 -0.9710
 4816TIP3    H235940   6.147   3.103   2.168 -0.1033 -0.8007 -0.6185
 4817TIP3   OH235941   4.613   3.951   3.944 -0.1111  0.0557  0.3094
 4817TIP3    H135942   4.662   4.029   3.971 -1.5686  0.1907  2.9597
 4817TIP3    H235943   4.678   3.893   3.905  1.6732  1.2084  1.4420
 4818TIP3   OH235944   3.574   2.290  11.847  0.0981 -0.2969  0.1866
 4818TIP3    H135945   3.578   2.279  11.752 -0.3576 -2.2478  0.3521
 4818TIP3    H235946   3.664   2.309  11.873  1.1229 -3.7995 -0.2860
 4819TIP3   OH235947   0.381   2.154   4.279 -0.0278  0.2236 -0.1926
 4819TIP3    H135948   0.294   2.136   4.243 -0.8854  1.2687  1.2476
 4819TIP3    H235949   0.370   2.236   4.328  1.5036 -0.1642  0.8674
 4820TIP3   OH235950   5.791   5.212  11.685  0.0320  0.5982 -0.2985
 4820TIP3    H135951   5.733   5.240  11.614  0.8416  2.3349 -0.3057
 4820TIP3    H235952   5.773   5.118  11.694 -0.7462  0.5161 -2.1738
 4821TIP3   OH235953   1.624   6.108  14.982 -0.2007  0.2488 -0.3602
 4821TIP3    H135954   1.529   6.104  14.979 -0.2040 -0.9751  0.8237
 4821TIP3    H235955   1.643   6.176  15.047 -0.2585  0.3195 -0.4165
 4822TIP3   OH235956   2.275   5.597   3.265 -0.0297  0.6210 -0.4467
 4822TIP3    H135957   2.312   5.646   3.338  2.7991 -0.3550 -1.0939
 4822TIP3    H235958   2.204   5.653   3.232  0.1804  2.1695  1.5388
 4823TIP3   OH235959   4.760   1.119  14.821  0.2153 -0.4188 -0.0527
 4823TIP3    H135960   4.839   1.110  14.767  1.3923  0.3078  1.4477
 4823TIP3    H235961   4.726   1.206  14.799  1.2310  0.2727  1.0022
 4824TIP3   OH235962   3.571   6.791  13.109 -0.5063  0.1689  0.2041
 4824TIP3    H135963   3.532   6.874  13.081 -0.6614 -0.2145 -0.7458
 4824TIP3    H235964   3.498   6.730  13.115 -0.2342 -0.2195 -0.3267
 4825TIP3   OH235965   4.921   3.571   1.974  0.6449 -0.1588 -0.1059
 4825TIP3    H135966   4.997   3.582   2.031  0.9029 -2.8087  0.2033
 4825TIP3    H235967   4.957   3.548   1.889  0.1999  1.4193 -0.7587
 4826TIP3   OH235968   6.570   5.398   0.376  0.1599  0.4990  0.2675
 4826TIP3    H135969   6.622   5.334   0.425 -1.0387 -1.2268 -0.6009
 4826TIP3    H235970   6.555   5.356   0.291 -1.4905  1.5075  0.0140
 4827TIP3   OH235971   3.557   6.715  15.880 -0.3110 -0.2155 -0.2479
 4827TIP3    H135972   3.557   6.809  15.902  0.5185 -0.2318 -0.1387
 4827TIP3    H235973   3.489   6.706  15.813  0.2781  0.6551 -0.9945
 4828TIP3   OH235974   2.256   4.215   2.356  0.0261  0.7119 -0.1338
 4828TIP3    H135975   2.162   4.206   2.370  0.2750 -0.2504  1.0880
 4828TIP3    H235976   2.285   4.273   2.427  0.6488 -0.6543  0.7673
 4829TIP3   OH235977   1.614   5.324   3.249  0.1483 -0.3783  0.1180
 4829TIP3    H135978   1.684   5.275   3.293 -0.4075 -1.2649  0.0499
 4829TIP3    H235979   1.582   5.385   3.316  0.8980 -0.0491  0.1856
 4830TIP3   OH235980   5.896   5.495   2.418 -0.0945  0.2645 -0.0197
 4830TIP3    H135981   5.810   5.452   2.411  0.0136  0.0631 -0.1359
 4830TIP3    H235982   5.880   5.573   2.470 -0.3472  0.2188 -0.0275
 4831TIP3   OH235983   0.472   4.103  13.374  0.2539 -0.2367 -0.3386
 4831TIP3    H135984   0.526   4.026  13.395 -2.0419 -1.7392  0.3672
 4831TIP3    H235985   0.382   4.075  13.390 -0.7524  2.3301 -0.9904
 4832TIP3   OH235986   3.563   4.418   0.017 -0.4035 -0.4286  0.0863
 4832TIP3    H135987   3.647   4.380   0.043 -0.3770  0.7492  1.9562
 4832TIP3    H235988   3.538   4.370  -0.062  1.7427 -1.1944 -0.2033
 4833TIP3   OH235989   0.658   2.679  12.720  0.3218 -0.5783 -0.1592
 4833TIP3    H135990   0.599   2.705  12.649 -1.5369 -0.0874  1.4959
 4833TIP3    H235991   0.687   2.591  12.694 -2.0515 -1.3471 -0.5329
 4834TIP3   OH235992   5.611   2.379   1.587 -0.1908  0.0076 -0.3655
 4834TIP3    H135993   5.698   2.403   1.556  0.3262 -1.1081  0.1727
 4834TIP3    H235994   5.608   2.413   1.677  0.5183 -1.7473  0.3757
 4835TIP3   OH235995   4.822   2.287   3.044  0.4679 -0.0731  0.0989
 4835TIP3    H135996   4.883   2.245   2.983 -0.8770 -0.8150 -0.7940
 4835TIP3    H235997   4.877   2.318   3.115  1.8085 -1.3818 -0.3078
 4836TIP3   OH235998   5.514   1.196   2.714 -0.2591  0.5620 -0.5439
 4836TIP3    H135999   5.555   1.110   2.718  0.8782  1.0952 -0.2917
 4836TIP3    H236000   5.579   1.252   2.672 -0.1638  1.7555  1.1062
 4837TIP3   OH236001   6.765   1.473   4.039 -0.1114  0.1241  0.6345
 4837TIP3    H136002   6.856   1.478   4.066  0.4832 -1.8378 -0.7826
 4837TIP3    H236003   6.724   1.551   4.075  1.6499  0.0204  3.0555
 4838TIP3   OH236004   6.825   4.622   3.099 -0.0686  0.3739  0.2796
 4838TIP3    H136005   6.732   4.626   3.076 -0.3095  0.1670  1.1859
 4838TIP3    H236006   6.838   4.694   3.160 -0.1381 -0.8793  1.8426
 4839TIP3   OH236007   4.158   6.204   2.500 -0.6963  0.4448  0.6080
 4839TIP3    H136008   4.183   6.200   2.408 -1.6941  0.8816  0.3028
 4839TIP3    H236009   4.164   6.114   2.531 -0.2323  0.3156  0.1568
 4840TIP3   OH236010   5.650   2.484  14.358 -0.2211 -0.5711  0.1594
 4840TIP3    H136011   5.609   2.570  14.351  1.2028  0.1017 -0.2999
 4840TIP3    H236012   5.711   2.492  14.431 -0.4611 -1.3711  0.4616
 4841TIP3   OH236013   3.200   6.564  12.877 -0.1830  0.0672 -0.1410
 4841TIP3    H136014   3.159   6.639  12.835 -1.5900 -0.0577  0.9405
 4841TIP3    H236015   3.283   6.553  12.830 -0.9685  0.8750 -1.8197
 4842TIP3   OH236016   0.844   3.560  12.166  0.2706  0.1694 -0.1467
 4842TIP3    H136017   0.754   3.582  12.188  0.4531  0.7102  0.0827
 4842TIP3    H236018   0.876   3.510  12.241  0.8139  1.7975  0.7728
 4843TIP3   OH236019   2.850   3.516   5.731  0.3464 -0.6965 -0.1291
 4843TIP3    H136020   2.941   3.493   5.716 -0.1780 -2.7797 -0.4481
 4843TIP3    H236021   2.849   3.612   5.736  2.5423 -0.6454  0.0214
 4844TIP3   OH236022   2.903   5.574  12.737  0.2919 -0.2034  0.2022
 4844TIP3    H136023   2.829   5.537  12.785  0.4564 -2.2369 -0.9913
 4844TIP3    H236024   2.957   5.616  12.805 -0.5562 -1.0913  1.4789
 4845TIP3   OH236025   0.866   5.102  15.901  0.1093 -0.0100  0.2326
 4845TIP3    H136026   0.778   5.135  15.921 -0.8487 -1.4149 -1.3918
 4845TIP3    H236027   0.923   5.178  15.912 -1.6927  1.6923 -1.3744
 4846TIP3   OH236028   0.339   3.678   2.811  0.4996  0.1159 -0.1202
 4846TIP3    H136029   0.293   3.691   2.894  2.6400  2.8461  0.7846
 4846TIP3    H236030   0.323   3.758   2.762  3.6273  0.9783  0.0252
 4847TIP3   OH236031   3.100   0.532  16.047  0.1760  0.2419  0.0401
 4847TIP3    H136032   3.181   0.562  16.090 -0.2470  1.4873  0.0145
 4847TIP3    H236033   3.047   0.611  16.039 -0.1767 -0.1412 -1.8610
 4848TIP3   OH236034   2.397   5.694  11.581 -0.2870 -0.3634 -0.6631
 4848TIP3    H136035   2.423   5.603  11.591 -0.1412 -0.2728 -0.1923
 4848TIP3    H236036   2.304   5.690  11.560 -0.2615 -0.6235 -0.7299
 4849TIP3   OH236037   4.179   0.691   4.807 -0.1777  0.0569  1.1148
 4849TIP3    H136038   4.105   0.644   4.844 -0.2882  0.9631  2.0627
 4849TIP3    H236039   4.215   0.742   4.880  1.3916 -0.3663  0.6932
 4850TIP3   OH236040   2.174   3.395  11.398  0.0999  0.6008 -0.0292
 4850TIP3    H136041   2.257   3.348  11.392 -1.4072 -2.1089 -2.5451
 4850TIP3    H236042   2.125   3.367  11.321 -3.4554  1.5374  1.6653
 4851TIP3   OH236043   0.080   4.974  15.165  0.1888  0.3157 -0.3040
 4851TIP3    H136044   0.058   5.054  15.212  0.3895 -0.4704  1.2083
 4851TIP3    H236045   0.088   4.907  15.234 -0.1464 -1.0429 -1.5329
 4852TIP3   OH236046   2.048   4.340   5.102 -0.5036  0.0298  0.3455
 4852TIP3    H136047   1.991   4.412   5.073  0.9966  0.9929 -0.3335
 4852TIP3    H236048   2.064   4.359   5.195 -1.1100 -0.1264  0.4841
 4853TIP3   OH236049   3.708   5.649  12.858  0.1092  0.2264  0.3365
 4853TIP3    H136050   3.720   5.555  12.869 -0.5595  0.0958 -0.0564
 4853TIP3    H236051   3.682   5.660  12.767 -1.2215  0.6567  0.7534
 4854TIP3   OH236052   4.247   0.201  11.693  0.1759  0.0129 -0.6810
 4854TIP3    H136053   4.262   0.143  11.619 -0.2420  0.1120 -0.8467
 4854TIP3    H236054   4.283   0.155  11.769 -1.5235 -1.1717 -0.5368
 4855TIP3   OH236055   1.553   4.521   4.897 -0.5840  0.0753  0.1792
 4855TIP3    H136056   1.560   4.426   4.888 -0.2750  0.1523 -0.5060
 4855TIP3    H236057   1.635   4.554   4.860 -1.5152  0.6961 -1.4208
 4856TIP3   OH236058   0.756   4.468   1.791 -0.2375 -0.0023  0.5053
 4856TIP3    H136059   0.800   4.539   1.744 -1.7081  0.5069 -0.1640
 4856TIP3    H236060   0.672   4.458   1.746 -0.5491 -1.3795  1.3343
 4857TIP3   OH236061   3.231   0.190  13.863 -0.4187 -0.7216 -0.4424
 4857TIP3    H136062   3.218   0.197  13.958  0.5561 -1.1255 -0.2756
 4857TIP3    H236063   3.225   0.096  13.845  1.6601 -0.8861 -0.4337
 4858TIP3   OH236064   2.854   1.347  17.203 -0.1453  0.3661 -0.0450
 4858TIP3    H136065   2.901   1.279  17.154  0.0515  0.8731 -0.5703
 4858TIP3    H236066   2.848   1.421  17.142 -0.0298  0.9548  0.6457
 4859TIP3   OH236067   3.884   0.783  15.284  0.0611 -0.7416 -0.3328
 4859TIP3    H136068   3.937   0.825  15.217  0.9776 -1.3886 -0.0379
 4859TIP3    H236069   3.843   0.856  15.332  0.1441 -0.2586 -0.9905
 4860TIP3   OH236070   1.865   3.496  12.187  0.0132 -0.3612 -0.1705
 4860TIP3    H136071   1.931   3.428  12.198  0.4717  0.3495  1.7219
 4860TIP3    H236072   1.871   3.550  12.266 -0.3903  1.8552 -1.5626
 4861TIP3   OH236073   3.156   1.201   3.579  0.6021  0.2520  0.3454
 4861TIP3    H136074   3.088   1.260   3.548  0.1709 -0.9448 -1.1392
 4861TIP3    H236075   3.108   1.128   3.618  1.1130  0.5360  1.5508
 4862TIP3   OH236076   0.621   6.249  16.491 -0.0369 -0.1528 -0.3039
 4862TIP3    H136077   0.569   6.318  16.449  0.5014  0.3432 -0.1787
 4862TIP3    H236078   0.588   6.168  16.453 -1.1395  0.1126  0.0365
 4863TIP3   OH236079   3.372   0.959  10.950  0.4566 -1.2261 -0.4514
 4863TIP3    H136080   3.417   0.906  10.884  0.6633  0.6357 -1.8961
 4863TIP3    H236081   3.283   0.922  10.955  0.4175 -1.3515 -1.8493
 4864TIP3   OH236082   6.329   5.566   0.538 -0.0618 -0.0097  0.2546
 4864TIP3    H136083   6.303   5.579   0.447  2.3638  1.8813 -0.2449
 4864TIP3    H236084   6.369   5.479   0.539 -1.5378 -0.7331 -0.0706
 4865TIP3   OH236085   3.469   0.470  16.560 -0.0158 -0.0684  1.2951
 4865TIP3    H136086   3.374   0.464  16.567  0.0515 -0.5645  1.8795
 4865TIP3    H236087   3.487   0.458  16.466 -0.5548  0.4841  1.1180
 4866TIP3   OH236088   3.284   3.822  12.693  0.5921 -0.1703  0.2425
 4866TIP3    H136089   3.356   3.796  12.750  0.3015 -2.4184 -0.3068
 4866TIP3    H236090   3.323   3.825  12.606  0.0282 -1.4954 -0.0705
 4867TIP3   OH236091   4.059   4.470  14.507 -0.4046 -0.4351 -0.0500
 4867TIP3    H136092   4.087   4.533  14.441  0.3553 -0.1719  0.4952
 4867TIP3    H236093   4.106   4.389  14.484  0.7890 -0.0159  0.8196
 4868TIP3   OH236094   2.680   5.464  12.094  0.1335  0.1589  0.3382
 4868TIP3    H136095   2.655   5.486  12.004 -1.2741  0.7330  0.8287
 4868TIP3    H236096   2.698   5.370  12.092 -0.9997 -0.0610 -0.3288
 4869TIP3   OH236097   1.588   3.923   3.348  0.4442 -0.0437 -0.1300
 4869TIP3    H136098   1.633   3.947   3.267 -0.1313 -3.2608 -1.5587
 4869TIP3    H236099   1.649   3.865   3.393  0.3860  0.9937  1.3625
 4870TIP3   OH236100   2.974   2.268  12.308 -0.6386  0.0934  0.3363
 4870TIP3    H136101   3.015   2.188  12.274  0.8905 -0.3300  2.9169
 4870TIP3    H236102   2.932   2.308  12.231  1.7947 -1.1959 -1.8475
 4871TIP3   OH236103   3.010   4.483   0.195 -0.0187 -0.2648 -0.0323
 4871TIP3    H136104   2.955   4.410   0.168 -0.9988  0.1776  0.7080
 4871TIP3    H236105   3.098   4.458   0.167 -0.4748 -1.3130 -0.5919
 4872TIP3   OH236106   4.223   3.537  15.695  0.1728 -0.4562 -0.0608
 4872TIP3    H136107   4.200   3.630  15.693 -0.4199 -0.6053 -0.3317
 4872TIP3    H236108   4.139   3.491  15.695  0.4453 -0.9854  0.7467
 4873TIP3   OH236109   2.403   3.037   4.522 -0.2797 -0.4440 -0.4210
 4873TIP3    H136110   2.412   3.115   4.467 -0.4930  1.0700  1.5839
 4873TIP3    H236111   2.481   2.985   4.503 -0.3479  0.0298 -2.1243
 4874TIP3   OH236112   0.251   0.998   5.016  0.0266  0.2570  0.1438
 4874TIP3    H136113   0.243   1.018   5.109  0.1360  1.5954 -0.1168
 4874TIP3    H236114   0.189   1.058   4.973  0.9885  0.6320 -0.7512
 4875TIP3   OH236115   2.348   6.743   0.471 -0.1172 -0.1185 -0.0937
 4875TIP3    H136116   2.314   6.655   0.490 -0.0493 -0.0239  0.4710
 4875TIP3    H236117   2.439   6.728   0.444 -0.2185 -0.2529 -0.3702
 4876TIP3   OH236118   5.323   6.127  13.506  0.1348  0.0286 -0.1906
 4876TIP3    H136119   5.292   6.081  13.428  0.7098 -0.3504 -0.2025
 4876TIP3    H236120   5.400   6.176  13.476 -0.5626  1.1522 -0.2170
 4877TIP3   OH236121   4.225   6.708   1.567  0.3234 -0.4705  0.3076
 4877TIP3    H136122   4.193   6.726   1.655 -0.0554 -1.1869  0.3187
 4877TIP3    H236123   4.321   6.709   1.575  0.2974 -1.9742  1.0298
 4878TIP3   OH236124   2.690   1.744  10.971  0.3458 -0.0016  0.5166
 4878TIP3    H136125   2.628   1.770  10.903  1.8454 -0.9006 -1.2929
 4878TIP3    H236126   2.635   1.705  11.040 -1.2234  0.9899 -0.1238
 4879TIP3   OH236127   4.157   2.324  16.368  0.9970  0.2684  0.1085
 4879TIP3    H136128   4.146   2.410  16.410  0.4524  0.1265  0.2631
 4879TIP3    H236129   4.187   2.344  16.280  0.0541  0.6594 -0.1319
 4880TIP3   OH236130   2.058   1.745   4.493  0.3123 -0.1937  0.1740
 4880TIP3    H136131   1.991   1.780   4.434  2.5514  0.4282 -2.2086
 4880TIP3    H236132   2.055   1.650   4.479 -0.4476 -0.2298  0.5414
 4881TIP3   OH236133   3.051   1.438   4.869  0.2873  0.1075 -0.3496
 4881TIP3    H136134   3.095   1.400   4.793 -0.9996  1.4805 -1.8760
 4881TIP3    H236135   3.091   1.525   4.878 -1.4092  1.0188 -1.2015
 4882TIP3   OH236136   0.482   3.034   6.537  0.0972 -0.4258 -0.2110
 4882TIP3    H136137   0.571   3.013   6.565  1.0239  1.5908 -1.4168
 4882TIP3    H236138   0.476   3.129   6.543 -2.5689 -0.5859  1.3467
 4883TIP3   OH236139   4.892   3.090   3.643 -0.3621 -0.0809 -0.4048
 4883TIP3    H136140   4.950   3.101   3.569  2.4413 -3.5189  1.0189
 4883TIP3    H236141   4.813   3.050   3.606 -0.2484  0.9205 -1.8218
 4884TIP3   OH236142   6.270   2.043  17.201 -0.1938  0.2204 -0.0617
 4884TIP3    H136143   6.269   1.957  17.160 -0.1994  0.7988 -1.3321
 4884TIP3    H236144   6.362   2.068  17.202 -0.3025  0.6769 -0.7675
 4885TIP3   OH236145   0.968   0.115  12.837 -0.0081  0.2951  0.5430
 4885TIP3    H136146   0.981   0.119  12.932  0.3241 -0.1067  0.5120
 4885TIP3    H236147   1.054   0.097  12.801 -0.5160 -1.8904  0.3146
 4886TIP3   OH236148   4.179   1.743   1.513  0.3270  0.3138 -0.3860
 4886TIP3    H136149   4.151   1.802   1.443 -1.6062  0.7645  0.7072
 4886TIP3    H236150   4.234   1.798   1.569  1.4987  0.0727 -1.2487
 4887TIP3   OH236151   3.239   4.523   5.605 -0.0229 -1.0139 -0.1040
 4887TIP3    H136152   3.298   4.597   5.618  0.1550 -0.8869 -1.4940
 4887TIP3    H236153   3.272   4.456   5.666  0.3937 -0.3035  0.4846
 4888TIP3   OH236154   5.650   0.814  17.025  0.4879  0.2763  0.1608
 4888TIP3    H136155   5.657   0.783  16.934 -1.1825 -0.7232  0.3123
 4888TIP3    H236156   5.734   0.855  17.043  0.8608  0.5201 -1.8460
 4889TIP3   OH236157   0.023   0.340   1.204  0.0600 -0.5005 -0.2086
 4889TIP3    H136158  -0.061   0.364   1.242 -0.9134 -1.8250 -1.4312
 4889TIP3    H236159   0.084   0.340   1.278 -0.3375  3.0876  0.2982
 4890TIP3   OH236160   3.372   3.108   3.758 -0.0950 -0.1421  0.0775
 4890TIP3    H136161   3.297   3.167   3.763  0.0160  0.2119 -1.8630
 4890TIP3    H236162   3.345   3.032   3.810 -1.4987  0.2922  0.0301
 4891TIP3   OH236163   0.870   1.836   2.468  0.2602 -0.4762  0.2018
 4891TIP3    H136164   0.926   1.843   2.391 -0.4454 -1.3736 -0.4146
 4891TIP3    H236165   0.821   1.755   2.455  0.4401 -0.8841  1.8093
 4892TIP3   OH236166   3.691   6.184  16.669  0.1280  0.5660  0.6581
 4892TIP3    H136167   3.689   6.108  16.611  0.7165  1.1964 -0.2011
 4892TIP3    H236168   3.659   6.256  16.616  0.2437  1.0683  1.2556
 4893TIP3   OH236169   1.768   0.757  16.210  0.1902 -0.1657  0.3575
 4893TIP3    H136170   1.861   0.734  16.204  1.0139  2.1726  2.1855
 4893TIP3    H236171   1.732   0.697  16.276  1.0392  0.4285  1.3962
 4894TIP3   OH236172   6.399   5.592  15.682 -0.0608 -0.1618 -0.4864
 4894TIP3    H136173   6.469   5.602  15.747  0.1737 -0.3962 -0.7020
 4894TIP3    H236174   6.406   5.501  15.653  0.5389  0.2324 -1.6388
 4895TIP3   OH236175   4.054   2.999   3.187 -0.6498 -0.1562 -0.0764
 4895TIP3    H136176   4.036   2.905   3.188  0.6523 -0.4333 -0.3160
 4895TIP3    H236177   4.102   3.014   3.106 -0.2086  0.5747  0.3018
 4896TIP3   OH236178   5.030   6.372   1.269  0.3060  0.0850 -0.1343
 4896TIP3    H136179   4.975   6.411   1.201 -0.8451  0.7798  1.1403
 4896TIP3    H236180   5.118   6.404   1.249 -0.0942  0.7470 -0.9596
 4897TIP3   OH236181   5.746   3.520   1.629  0.3286  0.5153  0.7925
 4897TIP3    H136182   5.653   3.498   1.640  0.5271 -0.3141  0.8833
 4897TIP3    H236183   5.757   3.603   1.675 -0.0379 -0.1591  2.1428
 4898TIP3   OH236184   6.420   4.494   5.610  0.3670  0.4387 -0.0472
 4898TIP3    H136185   6.362   4.570   5.625 -1.0614 -0.4357 -0.9042
 4898TIP3    H236186   6.501   4.517   5.655 -1.5360  0.5659  3.6722
 4899TIP3   OH236187   5.856   0.240   1.863  0.2328 -0.1550 -0.1917
 4899TIP3    H136188   5.806   0.159   1.863  1.1865 -0.7672 -0.2876
 4899TIP3    H236189   5.826   0.288   1.940 -1.9509  0.4606 -1.3496
 4900TIP3   OH236190   0.484   6.794   0.636 -0.1912  0.2904 -0.0061
 4900TIP3    H136191   0.447   6.881   0.623 -3.1927 -0.5435  2.0478
 4900TIP3    H236192   0.513   6.793   0.727 -2.0885 -1.4069  0.6543
 4901TIP3   OH236193   1.389   4.041  16.732  0.2135 -0.2929  0.3936
 4901TIP3    H136194   1.459   4.023  16.670  0.8252 -0.0267  0.9898
 4901TIP3    H236195   1.357   3.954  16.757  1.9217 -0.5585  1.8692
 4902TIP3   OH236196   0.031   0.499   2.814 -0.0245 -0.0154  0.4200
 4902TIP3    H136197   0.123   0.522   2.817  0.0894 -0.3169 -0.5199
 4902TIP3    H236198   0.026   0.412   2.855  0.5889 -1.3623 -2.1407
 4903TIP3   OH236199   0.157   6.766   2.266 -0.1225  0.4186 -0.3363
 4903TIP3    H136200   0.154   6.743   2.359  0.5078 -1.0240 -0.6580
 4903TIP3    H236201   0.230   6.827   2.259 -0.1669  0.5273  0.0992
 4904TIP3   OH236202   4.433   4.609  16.474 -0.3446  0.6982 -0.4003
 4904TIP3    H136203   4.513   4.619  16.424  0.3344  1.8846  0.8557
 4904TIP3    H236204   4.462   4.580  16.561 -1.4624 -1.0229 -0.5592
 4905TIP3   OH236205   0.662   4.493   3.859  0.1130 -0.0907 -0.0743
 4905TIP3    H136206   0.684   4.524   3.947 -0.4694  0.0116  0.0334
 4905TIP3    H236207   0.636   4.572   3.812  1.0902 -0.0314 -0.5546
 4906TIP3   OH236208   6.555   6.249  13.094 -0.3541 -0.8884 -0.2752
 4906TIP3    H136209   6.532   6.227  13.004  0.4708  0.8297 -0.9718
 4906TIP3    H236210   6.627   6.312  13.085 -2.2212  1.7240  1.4409
 4907TIP3   OH236211   2.482   3.484   2.751  0.2040  0.3533  0.6966
 4907TIP3    H136212   2.542   3.410   2.757 -0.3615 -0.1828 -0.0845
 4907TIP3    H236213   2.395   3.445   2.761 -0.0686  1.0012  0.9160
 4908TIP3   OH236214   4.059   4.210  13.676  0.0100 -0.2115 -0.5802
 4908TIP3    H136215   4.020   4.124  13.694 -1.2532 -0.1171 -2.5138
 4908TIP3    H236216   4.129   4.191  13.613  1.0122 -0.0035  0.4373
 4909TIP3   OH236217   1.284   2.210   2.666  0.3843 -0.1605 -1.1041
 4909TIP3    H136218   1.281   2.298   2.704  0.7473 -0.1332 -1.1384
 4909TIP3    H236219   1.357   2.167   2.711  0.4592 -0.3139 -1.3733
 4910TIP3   OH236220   6.543   0.010  14.003 -0.9817  0.2741 -0.3608
 4910TIP3    H136221   6.553  -0.063  13.942 -0.5150  0.6642 -0.7606
 4910TIP3    H236222   6.489   0.074  13.955 -2.4121 -0.2877  0.4274
 4911TIP3   OH236223   0.180   6.706   0.040 -0.7091 -0.0163  0.0198
 4911TIP3    H136224   0.199   6.779  -0.020  1.9438 -0.1083  0.6488
 4911TIP3    H236225   0.178   6.746   0.127 -1.9123 -0.3105  0.1451
 4912TIP3   OH236226   0.491   1.377  15.654 -0.1484 -0.0475 -0.3108
 4912TIP3    H136227   0.415   1.429  15.630 -0.4673 -0.2649  0.2020
 4912TIP3    H236228   0.540   1.365  15.573 -1.5731 -1.3874 -1.0121
 4913TIP3   OH236229   5.386   3.256   1.913 -0.1233  0.5820 -0.0068
 4913TIP3    H136230   5.349   3.176   1.952 -1.4412  1.0239 -0.3204
 4913TIP3    H236231   5.472   3.228   1.881 -0.0923 -0.4322  0.8816
 4914TIP3   OH236232   1.459   0.990  10.845  0.2943 -0.1824 -0.0497
 4914TIP3    H136233   1.461   0.913  10.902 -1.6332 -0.2382  0.0129
 4914TIP3    H236234   1.487   0.957  10.759  1.5417 -0.4634  0.4414
 4915TIP3   OH236235   2.341   1.453   0.359 -0.5841  0.4299 -0.1857
 4915TIP3    H136236   2.345   1.378   0.299 -1.0149  0.6689 -0.5168
 4915TIP3    H236237   2.310   1.415   0.441  0.1739  0.0700 -0.0548
 4916TIP3   OH236238   1.135   1.611  11.548 -0.0679  0.1281 -0.3169
 4916TIP3    H136239   1.064   1.626  11.610 -0.0974 -0.6593 -0.1506
 4916TIP3    H236240   1.215   1.610  11.602  0.4493  3.6222 -0.7772
 4917TIP3   OH236241   6.696   2.402   5.823  0.6808 -0.2818  0.2311
 4917TIP3    H136242   6.776   2.453   5.813  0.7502 -0.5237 -0.4772
 4917TIP3    H236243   6.724   2.320   5.864  0.6453  0.0166  0.8776
 4918TIP3   OH236244   3.410   1.899  11.018 -0.2173 -0.1594 -0.1804
 4918TIP3    H136245   3.406   1.923  10.925 -1.5923 -0.7528 -0.3078
 4918TIP3    H236246   3.365   1.970  11.063  2.9700  1.6317  0.4258
 4919TIP3   OH236247   5.222   0.819   5.119  0.1229 -0.6447 -0.0736
 4919TIP3    H136248   5.187   0.744   5.071 -0.9219  0.2974 -0.8342
 4919TIP3    H236249   5.147   0.856   5.164  1.0687 -1.4595  2.3219
 4920TIP3   OH236250   0.358   5.058   3.180  0.4209  0.6652  0.0123
 4920TIP3    H136251   0.332   5.060   3.088 -1.8576  1.8434  0.6077
 4920TIP3    H236252   0.305   4.988   3.218  1.0648  0.4406  0.5118
 4921TIP3   OH236253   3.323   1.980   5.636  0.3247 -0.1523  0.0344
 4921TIP3    H136254   3.383   2.016   5.571 -0.8919 -2.0573 -2.2998
 4921TIP3    H236255   3.261   2.051   5.653  1.4582  0.8265  0.2117
 4922TIP3   OH236256   1.149   0.792  11.996 -0.2898  0.3466  0.2227
 4922TIP3    H136257   1.078   0.736  12.026 -0.4581  1.2924  1.6949
 4922TIP3    H236258   1.107   0.875  11.973  0.2981  0.8730  0.9773
 4923TIP3   OH236259   2.900   0.929   6.826  0.4432  0.6889 -0.2451
 4923TIP3    H136260   2.958   0.868   6.872 -0.8367  0.0426  0.5828
 4923TIP3    H236261   2.872   0.882   6.748 -0.4297  0.2545  0.3193
 4924TIP3   OH236262   3.763   5.288  16.699 -0.2511 -0.1592 -0.0767
 4924TIP3    H136263   3.786   5.281  16.606  0.0257 -3.2767  0.1473
 4924TIP3    H236264   3.667   5.287  16.700 -0.2499 -1.6706 -0.2756
 4925TIP3   OH236265   0.238   6.006  14.561 -0.0445 -0.2999  0.2114
 4925TIP3    H136266   0.193   6.090  14.574  0.6448  0.3655 -1.4085
 4925TIP3    H236267   0.237   5.993  14.467  0.2670 -1.9179  0.4127
 4926TIP3   OH236268   2.069   1.351   3.067 -0.1751 -0.4836 -0.1899
 4926TIP3    H136269   2.076   1.261   3.036  0.7932 -1.4416  2.4945
 4926TIP3    H236270   2.083   1.345   3.162  2.1415  2.7432 -0.1446
 4927TIP3   OH236271   6.331   6.713  16.990 -0.2283 -0.6300  0.1575
 4927TIP3    H136272   6.390   6.657  17.040 -1.2207  0.6046  2.9109
 4927TIP3    H236273   6.292   6.654  16.926  3.6628 -1.5621 -1.6789
 4928TIP3   OH236274   2.429   4.575   2.994 -0.0506 -0.1985  0.0057
 4928TIP3    H136275   2.364   4.631   2.951 -0.1182 -0.4171 -0.1856
 4928TIP3    H236276   2.424   4.598   3.086  1.5238  1.7145 -0.3451
 4929TIP3   OH236277   2.934   5.474  15.684 -0.1048  0.0353  0.1180
 4929TIP3    H136278   2.995   5.400  15.698  0.8486  0.5689 -1.0490
 4929TIP3    H236279   2.901   5.493  15.772  0.9704 -0.6643  0.7135
 4930TIP3   OH236280   0.138   5.909   0.604  0.2533  0.6382  0.2979
 4930TIP3    H136281   0.116   5.990   0.648 -1.7524 -0.7958  2.1517
 4930TIP3    H236282   0.201   5.866   0.662 -1.4270 -0.6799  1.2508
 4931TIP3   OH236283   4.332   1.878  15.246  0.5260 -0.0792 -0.4203
 4931TIP3    H136284   4.347   1.859  15.153  1.9979  2.0042 -0.6824
 4931TIP3    H236285   4.369   1.966  15.258 -0.0257 -0.1340  2.0493
 4932TIP3   OH236286   5.301   2.630  13.827  0.2826 -0.0526 -0.0093
 4932TIP3    H136287   5.283   2.644  13.920  1.2793  0.9944  0.0529
 4932TIP3    H236288   5.364   2.699  13.805 -1.1710  0.7370 -1.8652
 4933TIP3   OH236289   6.200   6.404   2.501  0.2868  0.2425 -0.6247
 4933TIP3    H136290   6.130   6.467   2.480  0.6775  0.2642 -1.9671
 4933TIP3    H236291   6.165   6.319   2.475  0.6046  0.1996 -0.9199
 4934TIP3   OH236292   3.552   4.984   1.917  0.1613  0.0018  0.0255
 4934TIP3    H136293   3.504   5.061   1.946 -1.2010 -0.4962 -0.7991
 4934TIP3    H236294   3.508   4.910   1.959  0.2624 -0.4600 -0.6569
 4935TIP3   OH236295   3.438   6.624   1.073  0.9515  0.0742 -0.2979
 4935TIP3    H136296   3.457   6.702   1.125 -1.2624 -0.1612  1.0334
 4935TIP3    H236297   3.393   6.566   1.134  2.7930 -2.4217 -1.1624
 4936TIP3   OH236298   5.670   4.714   4.424  0.5095 -0.1996  0.0966
 4936TIP3    H136299   5.584   4.722   4.384  1.3292  0.3602 -1.6493
 4936TIP3    H236300   5.669   4.778   4.496 -0.6599 -0.5236  0.3924
 4937TIP3   OH236301   0.745   3.455   0.467  0.0571  0.2364  0.5872
 4937TIP3    H136302   0.785   3.371   0.442 -1.1404 -0.4571  0.9554
 4937TIP3    H236303   0.758   3.510   0.390  2.9049  0.5060  1.1582
 4938TIP3   OH236304   0.300   2.138  14.260 -0.4393  0.3556  0.0210
 4938TIP3    H136305   0.215   2.182  14.249 -0.8998 -0.6831 -0.6915
 4938TIP3    H236306   0.278   2.049  14.288  0.4417  0.2007  0.2484
 4939TIP3   OH236307   1.525   2.768  14.123  0.4500 -0.2469 -0.6183
 4939TIP3    H136308   1.520   2.842  14.184 -0.8857 -0.6257 -0.2241
 4939TIP3    H236309   1.555   2.695  14.177 -1.4534 -0.7635 -0.1847
 4940TIP3   OH236310   4.349   0.279   6.224 -0.1913 -0.0711 -0.3577
 4940TIP3    H136311   4.280   0.306   6.284  0.9322 -0.7237  1.2829
 4940TIP3    H236312   4.353   0.184   6.233  1.9373  0.0754  0.7814
 4941TIP3   OH236313   2.939   6.778   1.666 -0.0927  0.0770  0.5327
 4941TIP3    H136314   2.990   6.852   1.697 -0.9977  0.4681  1.1333
 4941TIP3    H236315   2.961   6.770   1.573  0.8675  0.3801  0.7332
 4942TIP3   OH236316   0.631   3.546  12.446 -0.5333  0.1520 -0.1671
 4942TIP3    H136317   0.603   3.527  12.356 -2.8609 -1.0217  0.7301
 4942TIP3    H236318   0.599   3.635  12.462  0.6904  0.7201 -0.7665
 4943TIP3   OH236319   0.058   0.343  13.297  0.4129 -0.1895  0.2710
 4943TIP3    H136320   0.144   0.347  13.339  0.1449  1.4733  0.7189
 4943TIP3    H236321  -0.004   0.359  13.368 -0.1817  0.3021 -0.3514
 4944TIP3   OH236322   4.733   3.966  13.031  0.1186  0.4719 -0.3628
 4944TIP3    H136323   4.652   3.947  13.078 -0.9675 -0.0794 -2.3512
 4944TIP3    H236324   4.789   4.011  13.096 -1.4230  0.1136  1.2880
 4945TIP3   OH236325   0.829   3.863  15.385 -0.5227 -0.2428 -0.5206
 4945TIP3    H136326   0.744   3.901  15.364 -0.1894  1.8402  1.5127
 4945TIP3    H236327   0.867   3.923  15.449  1.9255 -1.8239 -0.3618
 4946TIP3   OH236328   2.272   5.045  14.243  0.3404 -0.3544  0.6053
 4946TIP3    H136329   2.195   5.030  14.189  2.3271 -0.8141 -2.2834
 4946TIP3    H236330   2.260   5.133  14.278 -1.4911 -0.4539  0.3522
 4947TIP3   OH236331   3.896   0.561  17.019 -0.2081 -0.1158  0.2178
 4947TIP3    H136332   3.911   0.548  17.113 -0.4199 -0.8935  0.1558
 4947TIP3    H236333   3.801   0.559  17.010 -0.2779  1.7895  0.2168
 4948TIP3   OH236334   0.118   1.975   1.895 -0.2721  0.4909 -0.4067
 4948TIP3    H136335   0.150   2.019   1.816  0.5994  1.3111  0.3703
 4948TIP3    H236336   0.150   2.030   1.967 -0.6142 -0.5153  0.5344
 4949TIP3   OH236337   5.483   3.655   1.242  0.8699  0.0406 -0.1425
 4949TIP3    H136338   5.545   3.583   1.252  1.6334 -0.0409 -3.9416
 4949TIP3    H236339   5.537   3.734   1.248  0.8815  0.0738 -0.6063
 4950TIP3   OH236340   1.386   4.857  16.160  0.1166 -0.0145 -0.0118
 4950TIP3    H136341   1.331   4.794  16.206  0.3545  0.9693  1.7088
 4950TIP3    H236342   1.339   4.876  16.079 -0.6015 -1.3815  0.0498
 4951TIP3   OH236343   0.809   3.141  13.763 -0.3219 -0.4948  0.3875
 4951TIP3    H136344   0.782   3.219  13.714  1.6577 -0.2616 -0.4313
 4951TIP3    H236345   0.859   3.175  13.838 -0.2156 -0.9460  0.5264
 4952TIP3   OH236346   6.233   3.334  11.355  0.4129 -0.2804 -0.7959
 4952TIP3    H136347   6.288   3.314  11.279  1.3050  0.9612 -0.5083
 4952TIP3    H236348   6.146   3.350  11.318  0.4473 -1.3333 -1.3646
 4953TIP3   OH236349   2.128   5.551  16.322  0.1840 -0.4032  0.6326
 4953TIP3    H136350   2.205   5.494  16.315  0.6430  0.2812 -0.1243
 4953TIP3    H236351   2.054   5.491  16.314  0.6610 -0.8618 -0.6837
 4954TIP3   OH236352   4.364   1.977   2.721 -0.3497 -0.0358 -0.3405
 4954TIP3    H136353   4.311   1.947   2.647 -2.3491  1.4807  0.3947
 4954TIP3    H236354   4.314   1.951   2.798  0.4746  0.5956  0.4290
 4955TIP3   OH236355   6.079   5.702   5.066 -0.1007  0.7012  0.3421
 4955TIP3    H136356   5.997   5.750   5.080  0.7252  2.8254 -1.4143
 4955TIP3    H236357   6.083   5.688   4.971  0.2885 -1.9204  0.6664
 4956TIP3   OH236358   2.912   1.444   2.122 -0.2178  0.2713 -0.1483
 4956TIP3    H136359   2.910   1.518   2.061 -0.6202  0.0277 -0.4384
 4956TIP3    H236360   2.861   1.473   2.197  0.0730  0.4836 -0.0334
 4957TIP3   OH236361   0.547   3.029   1.248 -0.7435 -0.8832  0.9008
 4957TIP3    H136362   0.520   3.089   1.178  0.6874  0.4717  1.4472
 4957TIP3    H236363   0.496   2.950   1.233 -0.7130 -0.5230 -1.4904
 4958TIP3   OH236364   5.213   0.666  16.535  0.2965 -0.7505 -0.6571
 4958TIP3    H136365   5.130   0.633  16.570 -0.4753  0.1358 -1.5892
 4958TIP3    H236366   5.266   0.686  16.612 -0.2617 -1.5417 -0.0574
 4959TIP3   OH236367   0.515   1.124   0.639 -0.4571  0.3108 -0.0485
 4959TIP3    H136368   0.568   1.045   0.650 -1.5487 -0.5830 -1.0280
 4959TIP3    H236369   0.483   1.143   0.727 -0.8944 -0.8577  0.0668
 4960TIP3   OH236370   4.413   5.085  15.505  0.2185 -0.0873  0.4120
 4960TIP3    H136371   4.353   5.011  15.512  0.5429 -0.2882  1.0956
 4960TIP3    H236372   4.500   5.048  15.521  0.4547  0.3293  0.1169
 4961TIP3   OH236373   0.016   4.990  15.882 -0.5981 -0.2620 -0.4409
 4961TIP3    H136374  -0.049   5.048  15.922  0.1491  0.9185 -0.8952
 4961TIP3    H236375  -0.015   4.979  15.792 -0.9503 -0.9070 -0.2477
 4962TIP3   OH236376   5.501   2.083  14.735 -0.7257  0.0718  0.0019
 4962TIP3    H136377   5.589   2.094  14.699 -0.8082  0.6164 -0.0522
 4962TIP3    H236378   5.508   2.110  14.827 -0.8980  0.4074 -0.0810
 4963TIP3   OH236379   0.045   4.929   1.311  0.6884 -0.2021 -0.1811
 4963TIP3    H136380  -0.032   4.945   1.256  0.5713  0.4110  0.1624
 4963TIP3    H236381   0.025   4.971   1.394  1.3874 -0.0615 -0.0789
 4964TIP3   OH236382   3.947   5.593  14.054  0.1285  0.2191 -0.3819
 4964TIP3    H136383   3.910   5.592  14.142  1.5384 -0.5016  0.2408
 4964TIP3    H236384   3.900   5.662  14.008 -0.0716  1.1571  1.1923
 4965TIP3   OH236385   0.274   6.321   2.590 -0.3205  0.9153 -0.2061
 4965TIP3    H136386   0.183   6.324   2.618 -0.5805 -0.3775 -0.8676
 4965TIP3    H236387   0.280   6.385   2.519 -0.8931  0.4488 -0.6734
 4966TIP3   OH236388   1.316   5.626   5.042 -0.0083 -0.1005  0.4125
 4966TIP3    H136389   1.389   5.568   5.061 -0.7965 -1.0008  0.7947
 4966TIP3    H236390   1.244   5.568   5.018 -0.9961  0.6635  1.3810
 4967TIP3   OH236391   6.585   3.544   2.631  0.3209 -0.2880  0.1093
 4967TIP3    H136392   6.658   3.490   2.660  2.0747  1.7923 -0.2347
 4967TIP3    H236393   6.591   3.543   2.536  0.0861  0.1433  0.0894
 4968TIP3   OH236394   4.481   5.533   5.775 -0.4209 -0.0269 -0.1766
 4968TIP3    H136395   4.481   5.499   5.864 -0.2423 -1.8214 -0.8141
 4968TIP3    H236396   4.553   5.596   5.773 -0.0513 -0.4073  0.7879
 4969TIP3   OH236397   2.802   4.343  16.578 -0.1500  0.0312 -0.1354
 4969TIP3    H136398   2.895   4.320  16.576 -0.2995 -0.5721 -0.2782
 4969TIP3    H236399   2.800   4.433  16.611  0.5694  0.5145 -1.3683
 4970TIP3   OH236400   4.644   1.548  11.274 -0.2751 -0.4683 -0.3380
 4970TIP3    H136401   4.588   1.607  11.324  1.3780 -0.7899  2.0329
 4970TIP3    H236402   4.714   1.604  11.240 -0.5713 -0.5160 -1.0573
 4971TIP3   OH236403   3.980   4.491  11.440  0.2176  0.2307  0.6940
 4971TIP3    H136404   3.986   4.433  11.517  2.5507  0.2219  0.5765
 4971TIP3    H236405   4.006   4.435  11.367  0.7697  0.9731  0.3192
 4972TIP3   OH236406   3.122   6.220   6.105 -0.6055  0.1358 -0.1607
 4972TIP3    H136407   3.144   6.270   6.184  0.1542  0.4669 -0.5777
 4972TIP3    H236408   3.039   6.177   6.127  0.1190 -0.6457  1.2237
 4973TIP3   OH236409   5.470   1.056  11.574 -0.3782 -0.1547  0.3152
 4973TIP3    H136410   5.528   1.021  11.642  0.0861  0.2309  0.1229
 4973TIP3    H236411   5.384   1.016  11.593 -0.5600  0.8846  1.8797
 4974TIP3   OH236412   1.612   0.937   2.676  0.1447  0.1458 -0.4614
 4974TIP3    H136413   1.646   0.890   2.600 -0.7358 -1.3527  0.0194
 4974TIP3    H236414   1.644   1.027   2.665  0.7289 -0.2232 -2.1476
 4975TIP3   OH236415   3.615   6.108  11.698  0.0866  0.3769 -0.5434
 4975TIP3    H136416   3.551   6.127  11.629  0.2777  0.1313 -0.7874
 4975TIP3    H236417   3.618   6.189  11.749 -1.1467  0.0671  0.0667
 4976TIP3   OH236418   5.619   6.085   3.338 -0.1192  0.2465 -0.4184
 4976TIP3    H136419   5.569   6.101   3.258 -2.6050 -0.9347  0.7769
 4976TIP3    H236420   5.592   6.155   3.398  0.2470  0.0322  0.0083
 4977TIP3   OH236421   3.897   4.748   5.964 -0.3130  0.0600 -0.0175
 4977TIP3    H136422   3.852   4.818   5.918  0.3108  1.4136  1.3652
 4977TIP3    H236423   3.868   4.755   6.055  1.5326  0.0398  0.6114
 4978TIP3   OH236424   3.254   4.326   2.078 -0.2699 -0.5788  0.1539
 4978TIP3    H136425   3.275   4.370   1.996  0.1205  0.9739  1.0463
 4978TIP3    H236426   3.287   4.385   2.146 -2.8193 -0.5805  1.5027
 4979TIP3   OH236427   3.459   1.119   6.549 -0.3257 -0.3300  0.0692
 4979TIP3    H136428   3.431   1.122   6.457 -1.2407 -1.9828  0.2487
 4979TIP3    H236429   3.541   1.167   6.551 -1.1695  1.2996 -1.2643
 4980TIP3   OH236430   0.854   2.253   4.052  0.1483  0.4303 -0.0852
 4980TIP3    H136431   0.804   2.174   4.075  0.5066  0.1619 -0.2098
 4980TIP3    H236432   0.945   2.227   4.062  0.3861 -0.0062 -2.6440
 4981TIP3   OH236433   0.946   4.266   2.511 -0.1760  0.2421  0.2862
 4981TIP3    H136434   0.892   4.203   2.558  2.1851 -2.4525 -0.2967
 4981TIP3    H236435   0.896   4.348   2.514 -2.6517 -1.1779  2.5761
 4982TIP3   OH236436   6.645   4.779   0.745  0.1327  0.2063 -0.1687
 4982TIP3    H136437   6.602   4.782   0.831  0.5398 -0.6273  0.0795
 4982TIP3    H236438   6.583   4.821   0.685 -0.6672 -0.2508  0.3239
 4983TIP3   OH236439   3.556   5.937  12.758 -0.2834  0.1733 -0.8667
 4983TIP3    H136440   3.569   5.976  12.672  1.4960 -2.0746 -1.7456
 4983TIP3    H236441   3.645   5.930  12.795 -0.9120  0.2425  0.7553
 4984TIP3   OH236442   5.498   0.241  14.714 -0.1032 -0.5948 -0.6021
 4984TIP3    H136443   5.551   0.162  14.706  0.4856 -0.3161  0.3666
 4984TIP3    H236444   5.545   0.307  14.664  0.3516 -0.4122  0.0515
 4985TIP3   OH236445   1.662   2.271   1.017  0.3920  0.1779 -0.1779
 4985TIP3    H136446   1.699   2.185   1.002  0.7463  0.0727  1.1902
 4985TIP3    H236447   1.732   2.332   0.996  0.0034  0.1735 -1.5711
 4986TIP3   OH236448   5.056   2.911   4.215 -0.1798 -0.1126  0.1582
 4986TIP3    H136449   5.091   2.826   4.243 -0.2241 -0.4160 -0.6944
 4986TIP3    H236450   4.976   2.890   4.167 -0.3767  0.4386  0.2291
 4987TIP3   OH236451   3.824   3.250   4.425 -0.3926 -0.5673 -0.5140
 4987TIP3    H136452   3.866   3.262   4.511 -0.0815  1.3331 -0.8786
 4987TIP3    H236453   3.887   3.199   4.374  0.0553 -0.4845 -0.0552
 4988TIP3   OH236454   5.765   3.631   3.180 -0.4079 -0.1342 -0.4429
 4988TIP3    H136455   5.678   3.667   3.191 -0.9972 -1.7154  0.4578
 4988TIP3    H236456   5.755   3.537   3.198  1.1303 -0.6819 -2.0564
 4989TIP3   OH236457   0.515   5.940  16.660 -0.1330 -0.0479  0.4520
 4989TIP3    H136458   0.471   6.021  16.684  1.7938  0.8451  1.1703
 4989TIP3    H236459   0.495   5.928  16.567  0.2891  1.7534  0.0962
 4990TIP3   OH236460   5.962   3.664   2.418  0.0060 -0.3108 -0.1630
 4990TIP3    H136461   6.048   3.703   2.403 -0.3747  0.4072 -0.5254
 4990TIP3    H236462   5.900   3.727   2.381 -0.6407 -1.1308 -0.5160
 4991TIP3   OH236463   3.507   6.119   0.435  0.2175 -0.1390 -0.1040
 4991TIP3    H136464   3.420   6.105   0.471 -0.4011  0.2546 -1.4107
 4991TIP3    H236465   3.552   6.035   0.449  0.5149  0.3874  2.8047
 4992TIP3   OH236466   6.447   2.670  15.321 -0.3853 -0.3839  0.4554
 4992TIP3    H136467   6.402   2.598  15.277 -0.6391 -0.6673  1.1566
 4992TIP3    H236468   6.382   2.740  15.325 -0.2603 -0.2492  0.1018
 4993TIP3   OH236469   6.493   0.230  11.475  0.8134  0.3398  0.4216
 4993TIP3    H136470   6.478   0.319  11.443  0.1897  0.5766  1.3320
 4993TIP3    H236471   6.420   0.180  11.440  0.8689  0.3045  0.3563
 4994TIP3   OH236472   5.906   5.448  17.065 -0.2649  0.2112 -0.6390
 4994TIP3    H136473   5.854   5.409  17.135  0.2677 -0.3348 -0.5424
 4994TIP3    H236474   5.979   5.491  17.109  0.2549 -0.4212 -0.8785
 4995TIP3   OH236475   3.541   2.592  13.173 -0.2859 -0.4312 -0.6736
 4995TIP3    H136476   3.515   2.513  13.126  1.2166 -2.1577  1.2210
 4995TIP3    H236477   3.472   2.605  13.238 -0.8084  0.1436 -1.3397
 4996TIP3   OH236478   4.995   1.020   2.721 -0.0392 -0.4576 -0.5981
 4996TIP3    H136479   5.075   1.053   2.681 -0.8280  2.3343 -0.1045
 4996TIP3    H236480   4.954   0.966   2.652  0.8961  0.3758 -1.8478
 4997TIP3   OH236481   2.643   1.971   1.487  0.4044  0.6681 -0.1223
 4997TIP3    H136482   2.700   2.047   1.474  0.5905  0.2136 -2.4058
 4997TIP3    H236483   2.701   1.904   1.525  1.6212  0.0916 -2.7322
 4998TIP3   OH236484   2.515   1.183  12.429  0.1224  0.4972 -0.3980
 4998TIP3    H136485   2.604   1.205  12.456  0.6649  0.5029 -2.0620
 4998TIP3    H236486   2.503   1.092  12.456  0.7556  0.3876 -0.4741
 4999TIP3   OH236487   5.180   4.828   0.041  0.2475 -0.6595  0.0189
 4999TIP3    H136488   5.164   4.820   0.135  1.1252 -0.6941  0.1758
 4999TIP3    H236489   5.159   4.741   0.006  0.5446 -0.8414  0.2854
 5000TIP3   OH236490   4.347   6.171  14.212 -0.4077 -0.2621  0.0894
 5000TIP3    H136491   4.404   6.095  14.201 -0.2552 -0.2188  0.5382
 5000TIP3    H236492   4.269   6.151  14.161 -0.4671 -0.8243  0.3958
 5001TIP3   OH236493   4.394   5.926  12.753  0.1599 -0.0129  1.0157
 5001TIP3    H136494   4.380   5.878  12.672 -2.3505  2.5463 -0.2699
 5001TIP3    H236495   4.457   5.995  12.729 -0.9326  1.0305  1.0067
 5002TIP3   OH236496   2.692   2.721  11.334 -0.1027 -0.1611 -0.2732
 5002TIP3    H136497   2.742   2.703  11.254  3.5200  1.0841  1.4513
 5002TIP3    H236498   2.705   2.642  11.388  0.5483  0.3850  0.3963
 5003TIP3   OH236499   3.922   3.908  12.396  0.3802  0.0636 -0.0593
 5003TIP3    H136500   3.920   3.982  12.456  1.0173  1.8999 -2.1844
 5003TIP3    H236501   3.841   3.916  12.345 -0.1877 -1.5072  0.5278
 5004TIP3   OH236502   1.184   1.181  13.030 -0.6105  0.3228  0.0665
 5004TIP3    H136503   1.202   1.110  13.093  2.1308  0.2110 -0.7535
 5004TIP3    H236504   1.161   1.135  12.949 -0.9958  0.4241  0.1166
 5005TIP3   OH236505   4.042   0.419   4.896  0.0958  0.4766  0.0589
 5005TIP3    H136506   4.100   0.406   4.971  0.2655 -3.8013 -0.5770
 5005TIP3    H236507   4.090   0.380   4.822 -1.1502  2.2537 -1.7816
 5006TIP3   OH236508   3.399   4.791  16.020  0.2138 -0.3081  0.4049
 5006TIP3    H136509   3.399   4.698  15.999 -0.9031 -0.1434 -0.3986
 5006TIP3    H236510   3.428   4.795  16.112 -0.2155 -1.4815  0.6039
 5007TIP3   OH236511   0.372   4.331  15.319  0.6973 -0.1803  0.0418
 5007TIP3    H136512   0.342   4.377  15.398  0.8958 -2.7856  1.7851
 5007TIP3    H236513   0.322   4.249  15.320  1.8317 -0.9370 -1.7159
 5008TIP3   OH236514   1.440   3.146   0.817 -0.5960  0.3302  0.8073
 5008TIP3    H136515   1.358   3.190   0.793  0.0835  0.2172 -2.1410
 5008TIP3    H236516   1.420   3.100   0.898 -3.0859  1.2537  0.8047
 5009TIP3   OH236517   5.849   5.580  14.209  0.1233  0.3313  0.1425
 5009TIP3    H136518   5.847   5.639  14.284 -0.2753 -0.1901  0.5451
 5009TIP3    H236519   5.875   5.636  14.135  2.0144  0.5575  0.9223
 5010TIP3   OH236520   2.235   2.894   4.936  0.7145  0.4360 -0.2380
 5010TIP3    H136521   2.288   2.954   4.988  0.0397  0.0828  0.8964
 5010TIP3    H236522   2.181   2.848   5.000 -1.0755  0.8759 -1.3437
 5011TIP3   OH236523   1.497   0.755   5.312  0.0891 -0.3335  0.1064
 5011TIP3    H136524   1.525   0.846   5.326 -0.6015 -0.0854 -0.0991
 5011TIP3    H236525   1.548   0.725   5.237  0.9422 -0.4016  0.6882
 5012TIP3   OH236526   4.244   4.775  14.114  0.5402  0.7241 -0.2972
 5012TIP3    H136527   4.279   4.796  14.200  0.0763  0.5420 -0.0629
 5012TIP3    H236528   4.284   4.839  14.055  3.0215 -0.8334 -0.4413
 5013TIP3   OH236529   2.608   2.798  11.722 -0.0574 -0.5741  0.0104
 5013TIP3    H136530   2.650   2.849  11.791  0.9313 -1.1566 -0.1531
 5013TIP3    H236531   2.673   2.792  11.652 -0.5468 -1.1470 -0.4100
 5014TIP3   OH236532   1.255   3.262   5.315 -0.1709  0.2130  0.4702
 5014TIP3    H136533   1.311   3.187   5.336  1.7053  0.7681 -2.0423
 5014TIP3    H236534   1.168   3.224   5.302  0.6931 -1.5614 -0.5991
 5015TIP3   OH236535   4.967   5.264  12.660  0.3506 -0.3839 -0.3304
 5015TIP3    H136536   4.939   5.273  12.568 -0.9175 -2.1504 -0.1758
 5015TIP3    H236537   5.030   5.193  12.659  0.2122 -0.5170  0.1918
 5016TIP3   OH236538   6.362   3.496   4.228 -0.1391  0.1161  0.4842
 5016TIP3    H136539   6.278   3.451   4.239  0.7126 -1.4476  0.8531
 5016TIP3    H236540   6.427   3.426   4.225  1.0772  1.2442 -0.7453
 5017TIP3   OH236541   3.736   0.557   0.492  0.1940  0.1358 -0.0376
 5017TIP3    H136542   3.716   0.493   0.424  0.5874 -0.1741  0.1296
 5017TIP3    H236543   3.744   0.641   0.446 -2.5786  0.5028  0.0297
 5018TIP3   OH236544   4.620   4.842  13.931 -0.2494  0.4296 -0.2625
 5018TIP3    H136545   4.676   4.768  13.953 -1.6290 -0.3464  0.8377
 5018TIP3    H236546   4.670   4.892  13.867  2.0803  0.2931  1.3171
 5019TIP3   OH236547   6.000   1.484   2.119 -0.8028 -0.0052  0.5128
 5019TIP3    H136548   6.036   1.573   2.117  0.4340 -0.4963 -1.3111
 5019TIP3    H236549   6.058   1.437   2.180 -1.8016  0.5228  1.9307
 5020TIP3   OH236550   5.366   6.697   4.303  0.4254  0.5528  0.1250
 5020TIP3    H136551   5.375   6.726   4.394  0.5015 -1.3599  0.7794
 5020TIP3    H236552   5.333   6.773   4.256  1.2097  1.8478  1.5778
 5021TIP3   OH236553   4.962   4.368   3.994  1.0351 -0.5293  0.1862
 5021TIP3    H136554   4.903   4.436   3.960 -0.8905 -1.3548  1.6808
 5021TIP3    H236555   5.024   4.352   3.923 -0.2911  0.6782 -1.3175
 5022TIP3   OH236556   3.020   0.054  10.863 -0.0478  0.2852  0.3588
 5022TIP3    H136557   2.987   0.107  10.791  0.0354  0.3366  0.3580
 5022TIP3    H236558   2.958   0.070  10.935 -0.5644 -0.3599  0.0706
 5023TIP3   OH236559   0.123   4.174   5.344  0.0244 -0.2382 -0.5119
 5023TIP3    H136560   0.043   4.148   5.298  0.5628  0.4881 -1.9454
 5023TIP3    H236561   0.099   4.253   5.391 -0.5726 -1.0633  0.6122
 5024TIP3   OH236562   3.821   3.249  16.322 -0.1296 -0.0376  0.1867
 5024TIP3    H136563   3.830   3.327  16.267 -0.8737  1.5471  2.1756
 5024TIP3    H236564   3.769   3.188  16.269  0.9435  0.5475 -1.6354
 5025TIP3   OH236565   1.193   0.831  15.889  0.0437 -0.7651  0.1319
 5025TIP3    H136566   1.281   0.822  15.927  0.8337  0.1366 -1.3573
 5025TIP3    H236567   1.134   0.822  15.963  1.4845  0.5825  1.5412
 5026TIP3   OH236568   4.696   0.950  16.352  0.6325 -0.2913 -0.4632
 5026TIP3    H136569   4.637   0.902  16.295  0.1987 -0.4138  0.0824
 5026TIP3    H236570   4.664   0.932  16.441  0.4307  1.0287 -0.2401
 5027TIP3   OH236571   6.487   4.212   3.477  0.0095  0.3591  0.7055
 5027TIP3    H136572   6.506   4.268   3.401  0.6112 -0.8540 -0.0899
 5027TIP3    H236573   6.483   4.272   3.551 -0.0169  1.5194 -0.2000
 5028TIP3   OH236574   6.564   3.244   0.954  0.0859 -0.0534 -0.6860
 5028TIP3    H136575   6.566   3.316   1.018 -0.4837  0.9138 -1.7278
 5028TIP3    H236576   6.556   3.287   0.869 -0.2064 -1.3535 -1.3423
 5029TIP3   OH236577   6.767   2.345  15.307 -0.0933 -0.2962  0.0818
 5029TIP3    H136578   6.760   2.432  15.347 -1.9839 -1.2391  1.9716
 5029TIP3    H236579   6.842   2.305  15.350  2.0401  0.9765 -2.1848
 5030TIP3   OH236580   4.959   4.663   2.359  0.5897  0.3611 -0.1160
 5030TIP3    H136581   5.007   4.678   2.441 -0.0610 -0.7238  0.4909
 5030TIP3    H236582   5.022   4.682   2.290  1.2027  1.1506  0.6339
 5031TIP3   OH236583   1.813   3.468  16.176 -0.5040  0.6920  0.1143
 5031TIP3    H136584   1.847   3.382  16.201 -0.3346  0.5710 -0.4957
 5031TIP3    H236585   1.761   3.451  16.097  0.3512  1.2790 -0.6045
 5032TIP3   OH236586   6.555   1.315   0.079 -0.0590  0.9009 -0.5728
 5032TIP3    H136587   6.640   1.317   0.123  0.2103  0.6935 -1.0603
 5032TIP3    H236588   6.497   1.270   0.140  0.2392  0.8531 -0.3213
 5033TIP3   OH236589   1.329   3.954   5.955 -0.2790 -0.0662  0.3255
 5033TIP3    H136590   1.398   3.888   5.952  0.3558  0.5729  0.4635
 5033TIP3    H236591   1.253   3.911   5.917  0.5624 -0.3642 -1.0873
 5034TIP3   OH236592   0.283   6.654  16.438 -0.4185 -0.0509  0.3665
 5034TIP3    H136593   0.251   6.732  16.394 -1.1047  0.6835  2.0680
 5034TIP3    H236594   0.228   6.645  16.516 -0.2058 -2.1006  0.3594
 5035TIP3   OH236595   2.700   5.390  16.754 -0.1467 -0.0124 -0.0380
 5035TIP3    H136596   2.732   5.474  16.786  0.9093 -0.8369  1.1661
 5035TIP3    H236597   2.779   5.336  16.744 -0.8626 -1.0921 -0.0500
 5036TIP3   OH236598   3.579   2.357  11.585  0.5532 -0.7195 -0.0027
 5036TIP3    H136599   3.588   2.311  11.501 -3.1261  0.9571 -1.5562
 5036TIP3    H236600   3.600   2.448  11.564 -1.5212 -0.0721  0.4993
 5037TIP3   OH236601   4.952   1.422   0.378  0.2120  0.2449  0.0580
 5037TIP3    H136602   5.037   1.393   0.411 -0.7056 -2.1088  0.5507
 5037TIP3    H236603   4.888   1.373   0.430 -1.4325  1.0282 -1.1219
 5038TIP3   OH236604   6.719   2.772   4.225  0.7037  0.3005  0.2028
 5038TIP3    H136605   6.638   2.722   4.227  0.6746  0.3594  0.6089
 5038TIP3    H236606   6.762   2.746   4.143 -0.3955  1.3540 -0.7360
 5039TIP3   OH236607   0.070   0.017   1.240 -0.3283 -0.1382 -0.2808
 5039TIP3    H136608   0.104  -0.014   1.156 -0.9670 -0.6578 -0.3584
 5039TIP3    H236609  -0.013   0.058   1.219 -0.6195 -0.5032  0.1208
 5040TIP3   OH236610   0.873   0.584  17.098 -0.2602  0.3263  0.0537
 5040TIP3    H136611   0.783   0.602  17.072 -0.4655 -0.1695  0.3930
 5040TIP3    H236612   0.911   0.539  17.023 -0.3259  0.4397 -0.0484
 5041TIP3   OH236613   1.618   2.271  14.204  0.0435  0.0455 -0.7749
 5041TIP3    H136614   1.711   2.283  14.221  0.1981 -0.5587 -1.1233
 5041TIP3    H236615   1.583   2.359  14.192 -0.5658  0.8885  4.6489
 5042TIP3   OH236616   1.178   4.768  15.954  0.2814 -0.0278 -0.3436
 5042TIP3    H136617   1.180   4.674  15.971 -2.9840 -0.9234 -3.7898
 5042TIP3    H236618   1.087   4.793  15.967  1.0961  2.7975  0.6789
 5043TIP3   OH236619   5.658   6.080  12.698  0.5332  0.3047 -0.4191
 5043TIP3    H136620   5.668   6.033  12.781 -1.7999 -0.3116 -0.4029
 5043TIP3    H236621   5.647   6.012  12.632 -0.3604  0.7880 -0.7928
 5044TIP3   OH236622   6.172   4.386   2.313  0.5231 -0.3430 -0.2840
 5044TIP3    H136623   6.172   4.338   2.230  0.8313 -0.6466 -0.1106
 5044TIP3    H236624   6.176   4.478   2.287  1.4757 -0.4633 -0.5939
 5045TIP3   OH236625   6.128   1.130  14.153  0.5943  0.2594 -0.0257
 5045TIP3    H136626   6.034   1.145  14.145  0.2058 -1.7808  0.0344
 5045TIP3    H236627   6.162   1.140  14.064  0.2653  0.6167 -0.1123
 5046TIP3   OH236628   4.445   2.764   4.305  0.3744 -0.1826  0.5030
 5046TIP3    H136629   4.401   2.828   4.249  1.5603  1.2378  1.1217
 5046TIP3    H236630   4.538   2.777   4.286  0.6372 -1.9645  0.4202
 5047TIP3   OH236631   6.359   5.250   5.193 -0.3118 -0.5208 -0.3110
 5047TIP3    H136632   6.328   5.223   5.107  0.9086  1.7789 -1.5617
 5047TIP3    H236633   6.312   5.331   5.211 -0.2401 -0.7526  1.0213
 5048TIP3   OH236634   2.536   3.614   5.181  0.1489 -0.0933 -0.9421
 5048TIP3    H136635   2.511   3.544   5.242  0.1704 -1.0374 -1.9783
 5048TIP3    H236636   2.455   3.661   5.164  0.1950  0.3474  0.0116
 5049TIP3   OH236637   1.240   1.742   2.278 -0.3145  0.1639  0.2257
 5049TIP3    H136638   1.268   1.823   2.236  0.0834 -1.0378 -1.9279
 5049TIP3    H236639   1.230   1.679   2.207 -1.3347 -1.5111  1.7479
 5050TIP3   OH236640   5.137   5.055  13.403  0.3910  0.5089 -0.6447
 5050TIP3    H136641   5.060   5.065  13.346 -0.2255  0.6773  0.2029
 5050TIP3    H236642   5.150   4.960  13.409  0.6084  0.4941 -1.2511
 5051TIP3   OH236643   2.582   3.635   6.492 -0.6100  0.0532 -0.7458
 5051TIP3    H136644   2.563   3.545   6.519  2.7330 -0.7515 -0.5247
 5051TIP3    H236645   2.507   3.662   6.440 -1.8864 -2.7229 -0.5075
 5052TIP3   OH236646   0.012   6.218  11.220  0.2900  0.0791 -0.1565
 5052TIP3    H136647   0.009   6.301  11.171  0.5936 -0.4101 -1.0381
 5052TIP3    H236648  -0.025   6.154  11.159  0.9033 -0.5946  0.1691
 5053TIP3   OH236649   2.053   4.664   5.378 -0.3637  0.0843  1.1352
 5053TIP3    H136650   2.141   4.626   5.382  0.2469  1.4605  1.4817
 5053TIP3    H236651   2.053   4.715   5.297 -1.2665 -0.8649  0.5200
 5054TIP3   OH236652   5.639   2.543  15.034  0.4570  0.0269  0.4495
 5054TIP3    H136653   5.726   2.510  15.011  0.7512  1.8943 -1.3617
 5054TIP3    H236654   5.601   2.474  15.088  2.2606 -1.7644 -0.4433
 5055TIP3   OH236655   5.360   1.168  12.215  0.0517 -0.1912  0.7336
 5055TIP3    H136656   5.406   1.111  12.153  0.6846 -2.1876  2.8804
 5055TIP3    H236657   5.430   1.222  12.254  0.0343 -0.5687  1.3054
 5056TIP3   OH236658   4.342   0.832   2.409  0.4761  0.0695  0.2676
 5056TIP3    H136659   4.365   0.922   2.430  1.4927  0.1934 -1.2170
 5056TIP3    H236660   4.424   0.792   2.381 -0.6718  0.0732 -3.7485
 5057TIP3   OH236661   6.705   0.202   6.245 -0.5336 -0.0387  0.1086
 5057TIP3    H136662   6.692   0.254   6.324  0.7886 -1.0771  1.0604
 5057TIP3    H236663   6.635   0.137   6.246 -2.2766  1.6935 -1.1558
 5058TIP3   OH236664   5.603   3.928   4.550  0.2684  0.2486  0.7877
 5058TIP3    H136665   5.584   3.864   4.619 -2.4087 -0.1972 -0.2529
 5058TIP3    H236666   5.591   4.013   4.592 -0.7364 -0.0109  1.0669
 5059TIP3   OH236667   1.405   0.965  13.001 -0.2382 -0.1250 -0.0759
 5059TIP3    H136668   1.326   0.910  13.001 -0.1388 -0.2723 -0.7031
 5059TIP3    H236669   1.466   0.920  12.943 -0.1674  0.6617 -0.6209
 5060TIP3   OH236670   2.550   0.172  16.319  0.4004  0.4966 -0.2447
 5060TIP3    H136671   2.483   0.203  16.258 -0.5648  0.5520  0.8190
 5060TIP3    H236672   2.507   0.102  16.367  0.6413  1.4487  1.4100
 5061TIP3   OH236673   2.704   4.455   5.424  0.1188  0.4408 -0.3635
 5061TIP3    H136674   2.764   4.387   5.454  0.4275  0.4981 -0.8388
 5061TIP3    H236675   2.732   4.534   5.470 -0.9206  0.0266  1.0127
 5062TIP3   OH236676   1.497   6.103  12.688  0.2798 -0.3649 -0.1872
 5062TIP3    H136677   1.501   6.007  12.689  0.1539 -0.3688  0.1248
 5062TIP3    H236678   1.468   6.126  12.776  0.8899 -0.0121 -0.0722
 5063TIP3   OH236679   0.808   5.795   0.487 -0.0005 -0.1624 -0.0071
 5063TIP3    H136680   0.819   5.724   0.549 -0.9703 -0.7912 -0.5322
 5063TIP3    H236681   0.885   5.851   0.500 -0.3182 -0.1178  1.9436
 5064TIP3   OH236682   4.599   6.386   4.242 -0.1648 -0.0026  0.4845
 5064TIP3    H136683   4.563   6.462   4.288  0.0418  0.0279  0.5992
 5064TIP3    H236684   4.537   6.315   4.260 -0.8781  0.3732 -0.4333
 5065TIP3   OH236685   6.775   3.963   1.230 -0.5735 -0.5004  0.6500
 5065TIP3    H136686   6.812   4.040   1.273 -2.4859  0.8306  0.0408
 5065TIP3    H236687   6.759   3.990   1.140 -0.4695 -1.9258  0.1722
 5066TIP3   OH236688   5.245   3.202   5.650  0.2267 -0.1962  0.0905
 5066TIP3    H136689   5.216   3.293   5.653 -0.0411  0.1308 -4.3571
 5066TIP3    H236690   5.164   3.150   5.650  0.1381 -0.0911 -1.1883
 5067TIP3   OH236691   3.060   3.975  12.142 -0.4173  0.3313  0.6687
 5067TIP3    H136692   3.062   3.984  12.237 -0.1877  3.0775  0.4799
 5067TIP3    H236693   3.059   4.065  12.109  3.0576 -0.3920 -1.9994
 5068TIP3   OH236694   3.330   2.408  11.854  0.7507 -0.2098 -0.1663
 5068TIP3    H136695   3.407   2.357  11.831  0.8283  0.2300 -0.9011
 5068TIP3    H236696   3.258   2.366  11.807  0.7772  0.2141 -0.5908
 5069TIP3   OH236697   4.191   0.854  10.256 -0.3174 -0.1555  0.6558
 5069TIP3    H136698   4.244   0.792  10.307 -0.3951  0.6191  1.7076
 5069TIP3    H236699   4.249   0.927  10.239 -0.8979  0.5028  1.4288
 5070TIP3   OH236700   4.046   2.107   3.827 -0.1026 -0.0090  0.1207
 5070TIP3    H136701   4.016   2.033   3.880  0.9834 -1.1285 -0.7530
 5070TIP3    H236702   4.082   2.169   3.890 -0.8944 -0.2819  0.8575
 5071TIP3   OH236703   4.921   6.235  12.402 -0.2819  0.2349  0.3103
 5071TIP3    H136704   4.925   6.141  12.419  0.9493  0.5256  1.8104
 5071TIP3    H236705   4.842   6.264  12.448  1.1976  0.4486  2.9086
 5072TIP3   OH236706   5.887   3.967  15.363  0.4548  0.5239 -0.4921
 5072TIP3    H136707   5.973   4.009  15.374  0.3498  0.7564 -0.5594
 5072TIP3    H236708   5.835   4.000  15.436  1.3671 -2.0610  1.4720
 5073TIP3   OH236709   4.703   4.751  12.340  0.2287  0.0701 -0.0910
 5073TIP3    H136710   4.628   4.795  12.379  0.6569  0.3441  0.4255
 5073TIP3    H236711   4.754   4.720  12.414  0.9469  0.4273 -0.4306
 5074TIP3   OH236712   3.597   1.691   1.433  0.5084 -0.0434  0.1001
 5074TIP3    H136713   3.571   1.724   1.347 -1.0044 -0.0875  0.5048
 5074TIP3    H236714   3.685   1.657   1.420  1.0734  1.6950 -0.9630
 5075TIP3   OH236715   2.734   3.931   1.567  0.7419  0.1019 -0.0809
 5075TIP3    H136716   2.796   3.999   1.593  0.3270  0.7551 -0.7656
 5075TIP3    H236717   2.727   3.939   1.472 -1.6974  1.2210  0.1176
 5076TIP3   OH236718   2.279   0.446  12.229  0.1158 -0.3096 -0.7945
 5076TIP3    H136719   2.308   0.527  12.271  0.7863 -0.5961 -0.6845
 5076TIP3    H236720   2.270   0.468  12.136  0.5688 -0.1757 -0.8083
 5077TIP3   OH236721   2.202   2.765   5.818 -0.0763  0.6552  0.0912
 5077TIP3    H136722   2.240   2.821   5.886 -2.0506  2.4646 -0.1960
 5077TIP3    H236723   2.278   2.728   5.773  1.2872  1.2220  1.7996
 5078TIP3   OH236724   4.160   6.744  12.604  0.0762 -0.0508 -0.2558
 5078TIP3    H136725   4.131   6.812  12.665  0.8479 -2.2109  2.7426
 5078TIP3    H236726   4.079   6.700  12.579 -0.1148 -0.4631  0.9846
 5079TIP3   OH236727   3.644   0.452   0.732 -0.1086 -0.4535  0.4997
 5079TIP3    H136728   3.714   0.490   0.678 -1.4876 -2.4063 -3.0095
 5079TIP3    H236729   3.603   0.527   0.775  1.4543  1.2058 -0.7488
 5080TIP3   OH236730   4.446   6.123   1.500 -0.4276 -0.2185  0.2007
 5080TIP3    H136731   4.503   6.154   1.570 -1.5657  0.9728  0.6622
 5080TIP3    H236732   4.359   6.119   1.540 -0.8125 -1.2385 -0.6796
 5081TIP3   OH236733   6.152   1.804  11.212 -0.3647  0.3828 -0.3789
 5081TIP3    H136734   6.230   1.831  11.165 -0.4095 -0.8732 -1.2014
 5081TIP3    H236735   6.147   1.709  11.200 -0.7038  0.0984  1.6659
 5082TIP3   OH236736   6.759   1.969  12.365  0.5051  0.2228 -0.0466
 5082TIP3    H136737   6.777   1.988  12.272  1.6942 -1.4634 -0.2102
 5082TIP3    H236738   6.839   1.997  12.410 -0.6472  2.4822  0.7477
 5083TIP3   OH236739   2.976   4.963   4.180 -0.2462 -0.5256  1.0544
 5083TIP3    H136740   2.891   4.950   4.138 -0.0867 -0.6176  0.7600
 5083TIP3    H236741   3.010   5.045   4.143 -0.3781 -0.2806  1.4619
 5084TIP3   OH236742   5.380   2.758  11.515 -0.2806 -0.4885 -0.3849
 5084TIP3    H136743   5.375   2.819  11.442  0.5903 -1.7067 -1.5300
 5084TIP3    H236744   5.439   2.689  11.484 -0.5519 -1.4723  1.1641
 5085TIP3   OH236745   3.529   2.927   5.577  0.6768  0.2660  0.0253
 5085TIP3    H136746   3.519   3.022   5.573 -0.8214  0.0965 -1.9491
 5085TIP3    H236747   3.624   2.912   5.580  0.9243  1.8032  0.4911
 5086TIP3   OH236748   5.247   6.645  16.378  0.6142  0.2759  0.2311
 5086TIP3    H136749   5.168   6.697  16.394  0.3141 -0.4179  1.1768
 5086TIP3    H236750   5.318   6.708  16.376  0.1449  0.8173  0.4182
 5087TIP3   OH236751   2.251   6.710  15.014  0.4232 -0.0309 -0.6693
 5087TIP3    H136752   2.176   6.736  14.960  0.6235 -0.6471 -1.2556
 5087TIP3    H236753   2.303   6.652  14.957  0.2487 -1.3119  0.4338
 5088TIP3   OH236754   6.635   6.741   6.288 -0.0271 -0.6093  0.1891
 5088TIP3    H136755   6.653   6.777   6.375 -0.6807 -0.5622  0.3120
 5088TIP3    H236756   6.721   6.726   6.250  0.2822 -1.0056  1.0028
 5089TIP3   OH236757   2.501   6.621   1.491 -0.3281 -0.4265  0.2848
 5089TIP3    H136758   2.542   6.685   1.433 -0.5139 -0.2234  0.3788
 5089TIP3    H236759   2.552   6.625   1.572 -0.6294 -0.0664  0.4548
 5090TIP3   OH236760   4.700   4.945  15.167  0.5081  0.0475  0.4040
 5090TIP3    H136761   4.668   5.028  15.202  1.2247  0.4852  0.0333
 5090TIP3    H236762   4.716   4.962  15.074  0.5101 -0.5476  0.2926
 5091TIP3   OH236763   5.476   3.381   5.279 -0.0727 -0.4148  0.6975
 5091TIP3    H136764   5.400   3.350   5.230 -0.3716  2.8048 -1.1300
 5091TIP3    H236765   5.501   3.463   5.236  1.3123  1.3121  4.3442
 5092TIP3   OH236766   0.341   3.990   3.324  0.0129 -0.3977  0.1357
 5092TIP3    H136767   0.414   4.052   3.326  0.9916 -1.4186 -1.4833
 5092TIP3    H236768   0.338   3.953   3.412 -0.1389  1.4089  0.9183
 5093TIP3   OH236769   6.518   2.700  14.471  0.7714  0.3713 -0.2466
 5093TIP3    H136770   6.466   2.641  14.526  0.7315  0.1708 -0.4969
 5093TIP3    H236771   6.457   2.734  14.407  0.7452  0.8604  0.0275
 5094TIP3   OH236772   1.622   4.598  10.900 -0.1305 -0.5182  1.0545
 5094TIP3    H136773   1.601   4.618  10.991 -0.8941 -0.5219  0.8811
 5094TIP3    H236774   1.539   4.572  10.861  0.1910 -0.5157  0.3516
 5095TIP3   OH236775   0.434   2.987  13.431 -0.1244  0.4826 -0.0284
 5095TIP3    H136776   0.341   2.969  13.417  0.3034 -0.9336 -1.3560
 5095TIP3    H236777   0.451   2.960  13.521 -0.9212  0.4480  0.1159
 5096TIP3   OH236778   3.436   1.584  12.546 -0.1084 -0.3110 -0.4738
 5096TIP3    H136779   3.412   1.589  12.453 -0.0757 -1.7053 -0.5805
 5096TIP3    H236780   3.461   1.673  12.569 -0.9942  0.2442 -1.5619
 5097TIP3   OH236781   0.946   4.848  16.407 -0.2195  0.2782 -0.1499
 5097TIP3    H136782   0.924   4.795  16.330  0.3594 -0.9873  0.5068
 5097TIP3    H236783   0.927   4.938  16.381 -0.4502 -0.1614 -1.6179
 5098TIP3   OH236784   2.579   1.687   2.780 -0.1933 -0.1911  0.2488
 5098TIP3    H136785   2.666   1.647   2.785 -1.3656 -2.8891  1.1152
 5098TIP3    H236786   2.552   1.698   2.871 -0.7537  0.6862 -0.0044
 5099TIP3   OH236787   6.756   5.853   0.254  0.2173  0.3789 -0.6377
 5099TIP3    H136788   6.766   5.943   0.287 -1.1429  0.0228  0.8406
 5099TIP3    H236789   6.671   5.852   0.212 -0.9307 -0.8084  1.5656
 5100TIP3   OH236790   3.211   4.292   0.362 -0.1873 -0.2789  0.1171
 5100TIP3    H136791   3.179   4.256   0.445  0.3995 -1.9346 -0.3246
 5100TIP3    H236792   3.305   4.300   0.374 -0.3936  2.2091  0.5503
 5101TIP3   OH236793   4.171   5.684   1.700  0.2263 -0.4990 -0.0080
 5101TIP3    H136794   4.196   5.612   1.758  1.7331 -1.1973 -1.4135
 5101TIP3    H236795   4.203   5.763   1.744 -0.0726 -0.8370  0.8361
 5102TIP3   OH236796   5.743   3.623  17.083  0.2950 -0.0326  0.1967
 5102TIP3    H136797   5.833   3.602  17.106  0.1726 -0.2495  0.4836
 5102TIP3    H236798   5.748   3.656  16.993  0.7054  0.3388  0.3595
 5103TIP3   OH236799   1.625   2.578   4.184 -0.0766  0.1951 -0.3711
 5103TIP3    H136800   1.638   2.499   4.236  0.5305 -0.0235 -0.8392
 5103TIP3    H236801   1.617   2.648   4.248 -0.4174 -0.2196  0.0410
 5104TIP3   OH236802   5.044   0.456  13.372  0.1486 -0.0941  0.1617
 5104TIP3    H136803   4.984   0.382  13.366  1.5750 -1.2319 -0.7706
 5104TIP3    H236804   4.998   0.528  13.329 -0.3159 -1.0996 -1.0918
 5105TIP3   OH236805   1.357   3.476   2.930  0.4901 -0.0619 -0.2756
 5105TIP3    H136806   1.410   3.404   2.897 -0.1792 -0.4299 -0.5688
 5105TIP3    H236807   1.291   3.491   2.861  0.8412  1.0655 -0.3847
 5106TIP3   OH236808   6.344   4.047  16.357 -0.0563  0.5821  0.5738
 5106TIP3    H136809   6.436   4.051  16.384  0.1404 -0.5673  0.1425
 5106TIP3    H236810   6.311   3.967  16.398 -0.3422 -0.0160 -0.7786
 5107TIP3   OH236811   5.513   4.222   2.408 -0.6588 -0.1776 -0.2297
 5107TIP3    H136812   5.469   4.170   2.475  0.2004 -0.1596  0.3494
 5107TIP3    H236813   5.594   4.252   2.449 -1.3427  2.0367 -0.3826
 5108TIP3   OH236814   3.968   1.121  10.398  0.1163  0.3192 -0.6664
 5108TIP3    H136815   3.997   1.052  10.458  0.8712  0.6549 -0.6450
 5108TIP3    H236816   3.972   1.081  10.311 -0.8462 -0.1236 -0.5175
 5109TIP3   OH236817   4.064   6.632  14.750 -0.0062 -0.1254  0.1727
 5109TIP3    H136818   4.111   6.641  14.832 -2.6969  0.1535  1.8007
 5109TIP3    H236819   4.072   6.717  14.707 -3.0348  1.6995  2.8218
 5110TIP3   OH236820   6.086   3.461  12.744 -0.7493 -0.3941  0.4395
 5110TIP3    H136821   6.039   3.466  12.661 -1.6712 -0.7286  0.9238
 5110TIP3    H236822   6.035   3.516  12.803  0.0569  0.0590  0.7147
 5111TIP3   OH236823   1.650   2.910   5.356  0.0541  0.1884 -0.2569
 5111TIP3    H136824   1.564   2.949   5.338 -0.0465 -0.1180 -0.4483
 5111TIP3    H236825   1.661   2.843   5.288  0.7632  0.7238 -0.6864
 5112TIP3   OH236826   4.744   6.447   3.237  0.4906  0.5890  0.3760
 5112TIP3    H136827   4.768   6.355   3.247 -0.9345  0.1107 -0.2810
 5112TIP3    H236828   4.748   6.483   3.326 -0.6539 -0.5754  0.9218
 5113TIP3   OH236829   5.407   4.797  15.313 -0.4665 -0.1312 -0.0860
 5113TIP3    H136830   5.372   4.768  15.397 -0.9235  0.6901  0.0234
 5113TIP3    H236831   5.432   4.888  15.328  0.0817 -0.1826 -0.6570
 5114TIP3   OH236832   0.462   5.642  15.472  0.1292  0.3825 -0.1376
 5114TIP3    H136833   0.436   5.629  15.564 -1.0298  2.6743 -0.0659
 5114TIP3    H236834   0.397   5.703  15.437  0.9815  0.1376 -2.2996
 5115TIP3   OH236835   5.317   3.867   2.102 -0.0595 -0.1253 -0.1067
 5115TIP3    H136836   5.383   3.933   2.124  0.9585 -1.0379 -0.3048
 5115TIP3    H236837   5.362   3.808   2.042 -0.5453 -1.6511  0.9533
 5116TIP3   OH236838   6.461   2.525  14.981 -0.2213  0.2283 -0.2761
 5116TIP3    H136839   6.498   2.591  14.922  2.2517 -1.1620 -0.4245
 5116TIP3    H236840   6.485   2.441  14.941 -0.6570 -0.7664  1.4296
 5117TIP3   OH236841   0.542   4.720   3.748 -0.5039 -0.1804  0.2749
 5117TIP3    H136842   0.472   4.741   3.809 -1.5122 -1.6893 -0.2996
 5117TIP3    H236843   0.504   4.735   3.661  0.2172 -0.0869 -0.0345
 5118TIP3   OH236844   6.700   2.805   0.053 -0.0248 -0.5682 -0.2046
 5118TIP3    H136845   6.617   2.762   0.032 -0.2009  0.0074 -0.7242
 5118TIP3    H236846   6.676   2.875   0.114  0.3103 -1.4239  0.9274
 5119TIP3   OH236847   1.857   5.347   5.395 -0.0963 -0.2601  0.1394
 5119TIP3    H136848   1.893   5.424   5.352  0.3372 -0.1598  0.6706
 5119TIP3    H236849   1.827   5.291   5.323 -0.7619  0.5643 -0.2440
 5120TIP3   OH236850   5.426   6.135  12.446  0.4252 -0.5989  0.3579
 5120TIP3    H136851   5.336   6.105  12.431  0.3858  0.4137 -1.8414
 5120TIP3    H236852   5.476   6.054  12.461 -0.6002 -1.3032  0.0820
 5121TIP3   OH236853   2.781   1.890  16.139  0.0591  0.4970  0.5660
 5121TIP3    H136854   2.840   1.817  16.119 -0.1355  0.6230 -0.5052
 5121TIP3    H236855   2.730   1.903  16.059 -2.1711 -0.2819  1.7617
 5122TIP3   OH236856   3.272   3.047   3.068 -0.0165  0.0713 -0.0286
 5122TIP3    H136857   3.303   3.137   3.067 -0.0333  0.0966 -1.4236
 5122TIP3    H236858   3.287   3.016   2.978 -1.9178 -0.6339 -0.1567
 5123TIP3   OH236859   3.068   6.084  13.612  0.4591 -0.0609 -0.3061
 5123TIP3    H136860   3.135   6.017  13.598 -0.1933 -0.2514 -3.0363
 5123TIP3    H236861   3.089   6.120  13.698  2.6587 -1.6746 -0.0581
 5124TIP3   OH236862   2.512   4.573   0.460  0.0053  0.0031  0.5369
 5124TIP3    H136863   2.467   4.618   0.388 -0.3918 -0.2598  0.6195
 5124TIP3    H236864   2.536   4.488   0.424 -0.0364 -0.0608  0.6613
 5125TIP3   OH236865   0.557   3.748  17.070 -0.0564 -0.0502  0.8105
 5125TIP3    H136866   0.489   3.683  17.090 -0.9745  0.3670 -0.8233
 5125TIP3    H236867   0.625   3.699  17.024 -0.0812 -0.1257  0.8541
 5126TIP3   OH236868   1.920   3.972  12.845 -0.3019  0.0325 -0.2761
 5126TIP3    H136869   1.966   3.888  12.841  1.4043  0.9518 -1.7682
 5126TIP3    H236870   1.956   4.015  12.923  1.2899  0.6341 -1.2839
 5127TIP3   OH236871   3.765   1.997   3.281 -0.0150 -0.2222 -0.8298
 5127TIP3    H136872   3.857   1.975   3.291  0.0834  0.5857  0.1983
 5127TIP3    H236873   3.748   1.989   3.187  1.3595  0.5987 -1.1741
 5128TIP3   OH236874   6.357   4.705   5.149 -0.3466 -0.4717  0.4660
 5128TIP3    H136875   6.311   4.627   5.179 -0.1837 -1.1222 -0.8992
 5128TIP3    H236876   6.432   4.713   5.208 -0.5344 -1.1645  0.8063
 5129TIP3   OH236877   0.011   1.523   1.307  0.2812 -0.2458 -0.3402
 5129TIP3    H136878   0.094   1.556   1.274  0.3872 -1.5844 -1.4890
 5129TIP3    H236879   0.010   1.550   1.399  1.6679  0.3706 -0.4766
 5130TIP3   OH236880   1.585   4.033  13.209  0.3300  0.0162  0.1976
 5130TIP3    H136881   1.618   4.120  13.228  0.7456  0.3479 -1.8739
 5130TIP3    H236882   1.580   4.029  13.114 -0.0820 -2.0746  0.2601
 5131TIP3   OH236883   1.990   1.356   0.104 -1.0253  0.1182  0.0923
 5131TIP3    H136884   2.021   1.296   0.036 -0.8008  0.9912 -0.5991
 5131TIP3    H236885   2.046   1.337   0.180 -2.6313 -2.3254  0.7879
 5132TIP3   OH236886   4.016   1.318   3.667 -0.5400 -0.3531 -0.2998
 5132TIP3    H136887   3.994   1.270   3.746 -0.7203 -1.3789 -0.9584
 5132TIP3    H236888   4.112   1.323   3.668 -0.5875  1.1969  0.8593
 5133TIP3   OH236889   6.556   1.069   2.875 -0.3118  0.2526  0.2643
 5133TIP3    H136890   6.573   1.053   2.782  0.9810  0.3860  0.4514
 5133TIP3    H236891   6.557   1.164   2.883 -1.0411  0.2606  0.3228
 5134TIP3   OH236892   5.150   2.815   3.034  0.7517  0.1786 -0.3337
 5134TIP3    H136893   5.237   2.798   3.070  0.0080  0.3357  1.6291
 5134TIP3    H236894   5.132   2.907   3.057  0.5217  0.5239 -1.7637
 5135TIP3   OH236895   0.338   0.288   5.221 -0.1824  0.5059  0.1754
 5135TIP3    H136896   0.266   0.237   5.258  0.8450 -1.4079 -0.2998
 5135TIP3    H236897   0.302   0.376   5.210 -1.2640  0.6046  3.4270
 5136TIP3   OH236898   2.766   1.380  13.342 -0.2209  0.3594 -0.0951
 5136TIP3    H136899   2.731   1.394  13.253 -1.8475  1.5016  0.6749
 5136TIP3    H236900   2.694   1.340  13.390  0.7063 -0.4043  0.6842
 5137TIP3   OH236901   4.597   0.883  13.014 -0.2225 -0.0948  0.0533
 5137TIP3    H136902   4.606   0.869  12.920  0.7009  2.7380 -0.3657
 5137TIP3    H236903   4.679   0.925  13.041 -0.8655  0.0618  1.9408
 5138TIP3   OH236904   3.038   5.068   2.761 -0.0616 -0.1057  0.1806
 5138TIP3    H136905   3.011   5.046   2.672  1.9158  0.4803 -0.6157
 5138TIP3    H236906   3.106   5.003   2.782  0.8018  0.8815  0.5193
 5139TIP3   OH236907   3.148   5.245  15.778  0.1038 -0.4278 -0.6586
 5139TIP3    H136908   3.060   5.229  15.743 -0.2299 -1.5290  0.6317
 5139TIP3    H236909   3.187   5.158  15.787  1.0910  0.0075 -0.5764
 5140TIP3   OH236910   6.310   2.571  17.194 -1.0771 -0.0090  0.2876
 5140TIP3    H136911   6.240   2.536  17.250  1.6141 -1.2800  3.1234
 5140TIP3    H236912   6.339   2.496  17.143 -1.2003  0.3286 -0.2906
 5141TIP3   OH236913   6.356   3.082   6.071 -0.4345  0.0474 -0.5242
 5141TIP3    H136914   6.431   3.137   6.094  0.8628 -0.9622 -2.0975
 5141TIP3    H236915   6.287   3.108   6.132  0.6243  2.2630 -0.1770
 5142TIP3   OH236916   1.512   5.754   2.229  0.4151  0.2886 -0.3808
 5142TIP3    H136917   1.419   5.756   2.251  0.5832  0.9714  0.2798
 5142TIP3    H236918   1.548   5.833   2.268  0.9974  0.8128 -1.9220
 5143TIP3   OH236919   3.706   6.141   5.652  0.4651  0.0855  0.4542
 5143TIP3    H136920   3.679   6.130   5.561 -0.3944  1.3523  0.5317
 5143TIP3    H236921   3.738   6.055   5.678 -0.8744 -0.7450 -0.5294
 5144TIP3   OH236922   3.098   2.936   0.179 -0.0309 -0.1061  0.0322
 5144TIP3    H136923   3.095   2.916   0.086 -2.8867  1.0905 -0.2205
 5144TIP3    H236924   3.127   2.854   0.220  1.1903 -0.6673 -1.8473
 5145TIP3   OH236925   1.034   2.369   3.756 -0.4899  0.2375  0.2128
 5145TIP3    H136926   1.128   2.353   3.749 -0.4824  0.2539  0.2718
 5145TIP3    H236927   1.025   2.425   3.833 -0.5860 -0.1075  0.4539
 5146TIP3   OH236928   4.616   1.089   6.103 -0.3838 -0.0334  0.7217
 5146TIP3    H136929   4.632   1.183   6.111  0.7576 -0.2531  1.2160
 5146TIP3    H236930   4.703   1.049   6.104 -0.8353 -1.0816  0.2365
 5147TIP3   OH236931   1.905   6.472   3.384  0.0248  0.4412  0.5917
 5147TIP3    H136932   1.946   6.555   3.360 -0.0907  0.4772  0.5189
 5147TIP3    H236933   1.897   6.424   3.301  0.2618  0.2806  0.6602
 5148TIP3   OH236934   5.606   1.333  12.677 -0.8342 -0.7072 -1.3003
 5148TIP3    H136935   5.536   1.377  12.726  0.0545  1.2578 -1.6666
 5148TIP3    H236936   5.653   1.282  12.743  0.1708  1.6619 -0.0464
 5149TIP3   OH236937   6.732   3.863  13.137  0.0365  0.1789 -0.0877
 5149TIP3    H136938   6.639   3.876  13.122  0.1424  1.3250  0.1104
 5149TIP3    H236939   6.775   3.920  13.072  0.6104 -0.6947 -0.4925
 5150TIP3   OH236940   1.494   5.827   4.401 -0.0697  0.5822 -0.4910
 5150TIP3    H136941   1.477   5.735   4.379  0.7419  0.5486 -1.0325
 5150TIP3    H236942   1.457   5.838   4.489 -0.5962 -0.1326 -0.6162
 5151TIP3   OH236943   0.512   0.350   3.212  0.1016 -0.3752 -0.3263
 5151TIP3    H136944   0.504   0.360   3.117  1.6520 -2.2907 -0.7218
 5151TIP3    H236945   0.588   0.405   3.235  1.7616 -2.3690 -0.7700
 5152TIP3   OH236946   5.575   3.255  11.217  0.4382 -0.3222 -0.2051
 5152TIP3    H136947   5.632   3.232  11.290 -0.5684 -1.3094  0.3072
 5152TIP3    H236948   5.532   3.173  11.194 -0.2526  0.2554 -1.0247
 5153TIP3   OH236949   3.784   6.323   5.437  0.0834  0.4983 -0.7830
 5153TIP3    H136950   3.791   6.418   5.434 -2.2019  0.9204  2.3483
 5153TIP3    H236951   3.810   6.299   5.526  0.5629 -1.8402 -1.4708
 5154TIP3   OH236952   3.194   4.698  15.664  0.3585  0.1362  0.0136
 5154TIP3    H136953   3.187   4.785  15.625  0.3331 -0.2414 -0.8504
 5154TIP3    H236954   3.160   4.708  15.752 -0.1979  0.8727 -0.2788
 5155TIP3   OH236955   3.680   4.462  13.955  0.5833 -0.0798 -0.0499
 5155TIP3    H136956   3.687   4.479  13.861  0.8760  3.0741  0.4460
 5155TIP3    H236957   3.588   4.479  13.976  0.8779  0.9059  0.4917
 5156TIP3   OH236958   2.280   1.942   3.426  0.3740 -0.1081  0.0536
 5156TIP3    H136959   2.281   2.037   3.437  1.7275 -0.3033  2.2136
 5156TIP3    H236960   2.345   1.925   3.357  1.8057  0.4488  1.2106
 5157TIP3   OH236961   0.601   2.964  15.232  0.3302 -0.3087 -0.4461
 5157TIP3    H136962   0.557   3.045  15.207  0.7119  0.2135  0.5050
 5157TIP3    H236963   0.533   2.913  15.276 -0.0259 -0.7105 -1.4356
 5158TIP3   OH236964   3.365   2.787  16.963  0.1696  0.3247  0.5070
 5158TIP3    H136965   3.324   2.868  16.992 -0.3371 -0.0675  0.8976
 5158TIP3    H236966   3.450   2.786  17.008 -0.4982 -0.1503  1.8007
 5159TIP3   OH236967   2.837   6.818   1.933 -0.6469 -1.2733  0.3717
 5159TIP3    H136968   2.822   6.804   1.840 -0.5097  2.6188 -0.4095
 5159TIP3    H236969   2.921   6.865   1.937 -0.9815 -0.7333  2.3711
 5160TIP3   OH236970   1.627   1.366  15.232  0.3573  0.2281 -0.1490
 5160TIP3    H136971   1.680   1.289  15.210  0.4074  0.5804 -1.2760
 5160TIP3    H236972   1.546   1.355  15.182 -0.9537 -0.6030  1.9815
 5161TIP3   OH236973   4.954   3.021  11.363 -0.0325 -0.4241 -0.0343
 5161TIP3    H136974   4.913   3.057  11.441  0.7064 -0.9603  0.6167
 5161TIP3    H236975   4.881   2.984  11.313 -1.0021  2.8107 -1.2835
 5162TIP3   OH236976   2.525   1.426  14.688  0.3613 -1.0652 -0.5602
 5162TIP3    H136977   2.605   1.454  14.644  0.9525 -1.4261  0.2755
 5162TIP3    H236978   2.454   1.460  14.632  1.0633  0.3877 -0.6221
 5163TIP3   OH236979   4.744   4.656  16.010 -0.4579  0.8477  0.3109
 5163TIP3    H136980   4.777   4.718  16.075  1.7585  0.8369 -0.7177
 5163TIP3    H236981   4.769   4.570  16.044  0.4949  0.8278 -0.4102
 5164TIP3   OH236982   6.564   5.359  16.512  0.0379 -0.0828 -0.3981
 5164TIP3    H136983   6.478   5.354  16.470 -0.0644  0.1898 -0.2230
 5164TIP3    H236984   6.608   5.278  16.486  0.4245  0.6009 -2.0386
 5165TIP3   OH236985   0.466   0.032   5.773 -0.1024 -0.4612 -0.7389
 5165TIP3    H136986   0.389   0.005   5.723 -1.3342  0.4893  0.5563
 5165TIP3    H236987   0.443   0.014   5.865  1.3976 -0.5506 -0.3545
 5166TIP3   OH236988   0.889   6.175   3.988 -0.5276  0.4842  0.4771
 5166TIP3    H136989   0.817   6.216   3.939 -0.6071 -0.8489 -0.6084
 5166TIP3    H236990   0.965   6.228   3.968 -0.6770  0.2845 -0.7020
 5167TIP3   OH236991   5.234   2.741  17.051  0.2590 -0.0255  0.8009
 5167TIP3    H136992   5.310   2.789  17.083 -0.0138 -0.1640  1.6640
 5167TIP3    H236993   5.205   2.792  16.974  1.9924 -0.7072 -0.3591
 5168TIP3   OH236994   3.833   1.649  13.724  0.1122  0.4891 -0.2183
 5168TIP3    H136995   3.928   1.650  13.710  0.4542 -0.0181  1.7705
 5168TIP3    H236996   3.822   1.666  13.818 -1.6815 -0.9479 -0.1046
 5169TIP3   OH236997   1.669   1.594   0.383  0.2327  0.8183  0.2742
 5169TIP3    H136998   1.581   1.564   0.404 -0.5028  0.2754 -3.0322
 5169TIP3    H236999   1.656   1.680   0.342  1.3776  1.2764  0.8250
 5170TIP3   OH237000   4.479   4.268   3.400 -0.4938 -0.4780  0.1286
 5170TIP3    H137001   4.389   4.299   3.394 -0.7164 -1.3053 -1.4949
 5170TIP3    H237002   4.472   4.182   3.442 -0.6085 -0.9496 -0.8084
 5171TIP3   OH237003   5.724   6.470  15.855 -0.5946 -0.4866 -0.0032
 5171TIP3    H137004   5.763   6.557  15.859 -1.2536 -0.1696 -0.3173
 5171TIP3    H237005   5.732   6.444  15.763 -1.2432 -0.3589 -0.0972
 5172TIP3   OH237006   4.824   5.687  15.076 -0.1791 -0.0430  0.3919
 5172TIP3    H137007   4.856   5.624  15.141 -0.1189 -0.7725 -0.3240
 5172TIP3    H237008   4.834   5.642  14.992  0.4531  1.1643 -0.2049
 5173TIP3   OH237009   4.662   6.523   3.845  0.3859 -0.1451 -0.0049
 5173TIP3    H137010   4.725   6.540   3.775  1.0003  0.6868  0.7429
 5173TIP3    H237011   4.714   6.481   3.914  0.3304  1.3250  0.9673
 5174TIP3   OH237012   0.354   1.157  15.128  0.1530 -0.2871 -0.4887
 5174TIP3    H137013   0.262   1.148  15.153 -0.0324  1.6045 -0.3771
 5174TIP3    H237014   0.359   1.241  15.082  2.1119  0.4741  0.9767
 5175TIP3   OH237015   6.571   0.476  11.092 -0.5975  0.0466 -0.1901
 5175TIP3    H137016   6.628   0.405  11.062 -0.6697  0.5418 -1.5655
 5175TIP3    H237017   6.628   0.553  11.096 -1.1549  0.5555 -1.6206
 5176TIP3   OH237018   3.014   4.642  16.695 -0.0657  0.5224 -0.4291
 5176TIP3    H137019   2.975   4.723  16.727 -2.8785 -0.8815  0.0624
 5176TIP3    H237020   2.986   4.636  16.603 -1.0474 -0.4545 -0.1002
 5177TIP3   OH237021   5.716   4.873   1.473 -0.1673  0.6433 -0.0423
 5177TIP3    H137022   5.716   4.921   1.556 -4.0784  1.0872 -0.1326
 5177TIP3    H237023   5.632   4.827   1.471  0.9070 -1.5209 -2.6303
 5178TIP3   OH237024   1.644   3.875   5.530 -0.2270 -0.3611 -0.3668
 5178TIP3    H137025   1.580   3.804   5.529 -0.9333  0.2232  0.8976
 5178TIP3    H237026   1.591   3.955   5.524  0.3278  0.1445  1.1988
 5179TIP3   OH237027   4.277   5.851   5.354  0.2058 -0.0011 -0.3259
 5179TIP3    H137028   4.286   5.891   5.268  0.3286  1.0784  0.1794
 5179TIP3    H237029   4.184   5.863   5.375 -0.3129 -2.0712 -1.1506
 5180TIP3   OH237030   3.592   3.067   2.953 -0.2036  0.4614  0.5477
 5180TIP3    H137031   3.644   3.024   3.021  1.0480  1.8407  0.5133
 5180TIP3    H237032   3.538   3.130   3.001 -1.0285 -0.1572  0.4625
 5181TIP3   OH237033   2.933   5.273   3.625  0.0586 -0.3519 -0.2184
 5181TIP3    H137034   2.858   5.278   3.685 -0.0663 -1.4796 -0.2705
 5181TIP3    H237035   2.945   5.363   3.596  0.0147  0.2128  1.3688
 5182TIP3   OH237036   4.283   4.771   3.744 -0.7792  0.4258  0.5052
 5182TIP3    H137037   4.352   4.791   3.680 -0.9063  1.3988  0.6603
 5182TIP3    H237038   4.264   4.678   3.730  1.6508 -0.3246  1.5063
 5183TIP3   OH237039   4.994   6.401  15.583  0.3895  0.1583 -0.3866
 5183TIP3    H137040   5.087   6.398  15.561  0.8066  1.4206  1.0292
 5183TIP3    H237041   4.956   6.459  15.516  1.2053  2.0375  0.6947
 5184TIP3   OH237042   2.774   1.891  14.779  0.0995 -0.2530 -0.1296
 5184TIP3    H137043   2.706   1.855  14.722  0.8174 -1.6642 -0.1432
 5184TIP3    H237044   2.856   1.871  14.734  0.6125 -0.2296  0.7718
 5185TIP3   OH237045   5.353   5.686  15.629 -0.6803 -0.0925 -0.3380
 5185TIP3    H137046   5.270   5.639  15.615 -0.8507 -0.5396  1.9036
 5185TIP3    H237047   5.398   5.635  15.696 -0.2009  2.1180  1.1083
 5186TIP3   OH237048   2.238   5.245  15.302  0.3932 -0.4487  0.4194
 5186TIP3    H137049   2.147   5.214  15.311 -0.1270  0.7483 -0.4677
 5186TIP3    H237050   2.241   5.282  15.214  1.9613 -1.1044  0.1722
 5187TIP3   OH237051   3.579   1.658  11.742 -0.0272  0.3437 -0.6436
 5187TIP3    H137052   3.630   1.585  11.777 -0.2140  0.9114  0.9096
 5187TIP3    H237053   3.559   1.633  11.652 -1.1273 -2.0768  0.1894
 5188TIP3   OH237054   3.856   1.373   5.247 -0.6343  0.7506  0.3568
 5188TIP3    H137055   3.922   1.393   5.312 -1.5383 -0.0810  1.5791
 5188TIP3    H237056   3.893   1.301   5.196 -0.1025  1.1128  0.2278
 5189TIP3   OH237057   0.375   5.690  12.587  0.4421 -0.0675 -0.0222
 5189TIP3    H137058   0.387   5.778  12.552 -0.0234  1.2246  2.7585
 5189TIP3    H237059   0.409   5.632  12.520  4.7506  2.3774 -0.3217
 5190TIP3   OH237060   2.479   1.953  17.129  0.2458  0.2697  0.0660
 5190TIP3    H137061   2.400   1.950  17.183  0.4473 -0.4844  0.3336
 5190TIP3    H237062   2.456   2.008  17.055  0.0304  1.5255  1.0372
 5191TIP3   OH237063   2.268   3.808  14.004 -0.7845  0.0845 -0.2861
 5191TIP3    H137064   2.351   3.797  13.957 -0.2153  0.3812  0.6451
 5191TIP3    H237065   2.217   3.867  13.947 -1.0503 -1.4453 -1.7130
 5192TIP3   OH237066   2.821   0.223  16.261 -0.3699  0.1755 -0.1027
 5192TIP3    H137067   2.734   0.183  16.263 -0.1579 -0.3783 -1.0644
 5192TIP3    H237068   2.833   0.260  16.348 -0.8297 -1.3365  0.6303
 5193TIP3   OH237069   0.559   2.244   2.775 -0.0370  0.3396  0.5819
 5193TIP3    H137070   0.529   2.170   2.721  2.0880  0.4377 -0.8997
 5193TIP3    H237071   0.640   2.212   2.816  0.7899  1.7196  0.1143
 5194TIP3   OH237072   1.360   3.545  11.588  0.6826 -0.0575 -0.7082
 5194TIP3    H137073   1.280   3.507  11.551 -0.1603  0.2199  0.7421
 5194TIP3    H237074   1.421   3.550  11.514  0.1951 -2.4838 -1.3527
 5195TIP3   OH237075   3.847   0.931   4.539  0.3029 -0.1524 -0.2605
 5195TIP3    H137076   3.939   0.907   4.550  1.0203  2.4548  0.3522
 5195TIP3    H237077   3.850   1.015   4.492 -1.7894 -0.1801 -0.5378
 5196TIP3   OH237078   3.747   5.696   6.541 -0.2605  0.7709 -0.2266
 5196TIP3    H137079   3.683   5.658   6.481 -0.6760 -0.8548  1.1400
 5196TIP3    H237080   3.704   5.690   6.627  0.9993  1.3992  0.4704
 5197TIP3   OH237081   4.668   2.151  14.559  0.0679  0.0423 -0.3038
 5197TIP3    H137082   4.582   2.183  14.587  0.0388  0.9911 -1.4320
 5197TIP3    H237083   4.654   2.057  14.543 -0.6150  0.0739  0.0674
 5198TIP3   OH237084   4.280   4.843  15.919 -0.0147 -0.0534 -0.8581
 5198TIP3    H137085   4.267   4.932  15.886 -1.9538  0.3527  0.8049
 5198TIP3    H237086   4.374   4.838  15.937  0.2026  1.5034 -1.4101
 5199TIP3   OH237087   3.183   3.614   5.936 -0.2488 -0.3070  0.8926
 5199TIP3    H137088   3.233   3.533   5.938 -0.0959 -0.3013 -0.8296
 5199TIP3    H237089   3.097   3.590   5.970 -0.4518 -1.4048 -0.3138
 5200TIP3   OH237090   5.490   6.177  14.632 -0.0038  0.1216 -0.2739
 5200TIP3    H137091   5.400   6.147  14.641  0.2795 -0.7840 -0.3563
 5200TIP3    H237092   5.517   6.144  14.546  0.0720  1.3098 -0.7281
 5201TIP3   OH237093   1.262   1.180   5.560 -0.5340 -0.0152 -0.4751
 5201TIP3    H137094   1.241   1.109   5.621 -2.0482  0.2332 -0.6625
 5201TIP3    H237095   1.204   1.252   5.587  0.8042  1.0870 -0.4310
 5202TIP3   OH237096   0.386   2.556  11.754  0.2839  0.4877  0.2554
 5202TIP3    H137097   0.349   2.588  11.836  1.0584 -0.9467  1.2264
 5202TIP3    H237098   0.341   2.473  11.738  0.3833  0.5872 -0.5992
 5203TIP3   OH237099   1.729   6.713   0.149  0.4216 -0.1794  0.1709
 5203TIP3    H137100   1.805   6.662   0.121  1.2679  0.7471  0.7369
 5203TIP3    H237101   1.756   6.755   0.231 -0.6644  0.2427  0.3336
 5204TIP3   OH237102   0.632   3.650  11.442  0.2240 -0.3495 -0.0642
 5204TIP3    H137103   0.571   3.593  11.395  0.4862 -0.9205  0.2815
 5204TIP3    H237104   0.621   3.736  11.401 -0.8453 -0.4307  0.0079
 5205TIP3   OH237105   1.817   4.799  15.428 -0.0832  0.1796  0.1643
 5205TIP3    H137106   1.740   4.776  15.377  0.9631 -0.6953 -1.0549
 5205TIP3    H237107   1.821   4.895  15.423 -0.6747  0.1821 -0.3719
 5206TIP3   OH237108   3.354   6.732  15.682 -0.1018 -0.5372  0.2815
 5206TIP3    H137109   3.275   6.684  15.706  0.3126 -1.0365  0.6628
 5206TIP3    H237110   3.323   6.821  15.665 -0.5609 -0.3873  1.7648
 5207TIP3   OH237111   1.386   4.233   3.742 -0.0779  0.2080 -0.5670
 5207TIP3    H137112   1.346   4.168   3.799  1.0091 -0.3181 -0.3860
 5207TIP3    H237113   1.427   4.183   3.672  0.4438  0.7211 -0.6359
 5208TIP3   OH237114   1.069   4.300   1.182 -0.4277  0.1179  0.4125
 5208TIP3    H137115   1.094   4.389   1.157  0.0656 -0.3907 -1.0013
 5208TIP3    H237116   1.079   4.298   1.277 -0.6913  1.6356  0.4975
 5209TIP3   OH237117   2.072   5.109   4.967  0.3031 -0.3316 -0.1795
 5209TIP3    H137118   2.035   5.063   5.042 -1.4286  0.3005 -0.6064
 5209TIP3    H237119   2.166   5.097   4.976  0.1776 -0.0006  2.2654
 5210TIP3   OH237120   0.633   3.089   3.648 -0.2605  0.1124  0.0750
 5210TIP3    H137121   0.624   3.020   3.714  1.5718 -0.2667 -0.0069
 5210TIP3    H237122   0.712   3.137   3.675 -1.4929  2.2260  0.1422
 5211TIP3   OH237123   2.930   5.045  15.196  0.4408  0.9879 -0.2066
 5211TIP3    H137124   2.910   5.112  15.130 -0.2102  1.3366  0.3309
 5211TIP3    H237125   2.994   4.989  15.154  1.4145  2.2632 -0.4835
 5212TIP3   OH237126   4.626   3.519   4.699  0.2210 -0.5636 -0.0711
 5212TIP3    H137127   4.686   3.476   4.638  2.6722  1.6217  0.6379
 5212TIP3    H237128   4.647   3.481   4.784  0.1808 -0.2117  0.0969
 5213TIP3   OH237129   4.619   5.786   5.852 -0.4500 -0.3253  0.0431
 5213TIP3    H137130   4.704   5.800   5.894 -0.4406 -2.0926  0.6675
 5213TIP3    H237131   4.555   5.801   5.922 -0.5953 -0.3109 -0.0920
 5214TIP3   OH237132   5.457   0.081  11.593  0.1025 -0.4187 -0.5008
 5214TIP3    H137133   5.423  -0.007  11.607 -0.9917 -0.0271 -0.5616
 5214TIP3    H237134   5.381   0.138  11.607  1.0370  0.6042  0.6183
 5215TIP3   OH237135   4.834   4.370  14.439  0.0037 -0.3883 -0.3357
 5215TIP3    H137136   4.744   4.375  14.407 -0.5814 -2.0774  0.8831
 5215TIP3    H237137   4.874   4.453  14.413 -2.1487  0.7668 -0.1621
 5216TIP3   OH237138   4.586   0.280   4.676 -0.3454 -0.1200 -0.0204
 5216TIP3    H137139   4.497   0.263   4.645  0.8724 -2.2324 -2.7863
 5216TIP3    H237140   4.599   0.219   4.749 -1.6001  1.3162  1.4726
 5217TIP3   OH237141   2.804   2.314  14.986 -0.4133  0.7863 -0.4502
 5217TIP3    H137142   2.782   2.315  14.893 -0.0246  1.4526 -0.5461
 5217TIP3    H237143   2.851   2.397  15.000  0.7946  0.0458  0.0264
 5218TIP3   OH237144   4.057   3.077  12.420  0.4705  0.0413 -0.7609
 5218TIP3    H137145   4.088   3.165  12.400  0.0042  0.3204 -0.2985
 5218TIP3    H237146   3.963   3.081  12.403  0.5911 -0.6386 -1.6453
 5219TIP3   OH237147   1.854   4.655   0.663 -0.1209 -0.5541  0.1098
 5219TIP3    H137148   1.846   4.596   0.738  0.0983 -0.6434  0.0648
 5219TIP3    H237149   1.917   4.721   0.691  2.2425 -2.1851 -0.9714
 5220TIP3   OH237150   6.327   4.681   3.047 -0.1716 -0.1217  0.3127
 5220TIP3    H137151   6.261   4.699   3.114 -0.8981  0.2394 -0.4770
 5220TIP3    H237152   6.282   4.699   2.964 -0.1259 -2.9650 -0.4322
 5221TIP3   OH237153   1.610   0.084  12.459 -0.3869  0.3353  0.2010
 5221TIP3    H137154   1.581  -0.003  12.431  0.2435  0.3517 -0.5470
 5221TIP3    H237155   1.556   0.145  12.408  0.3234  0.3676 -0.5322
 5222TIP3   OH237156   2.121   2.025   2.950 -0.3510 -0.4931  0.4504
 5222TIP3    H137157   2.191   1.973   2.989  0.6014 -0.7535 -1.4922
 5222TIP3    H237158   2.060   1.961   2.914  0.1072 -0.2887 -0.7192
 5223TIP3   OH237159   3.679   2.810  13.077  0.2873 -1.1001  0.0202
 5223TIP3    H137160   3.610   2.746  13.096 -0.9665  0.7554  2.1423
 5223TIP3    H237161   3.633   2.888  13.048  1.4247  0.1864  1.4826
 5224TIP3   OH237162   6.251   5.907   5.821 -0.5368  0.4750  0.3274
 5224TIP3    H137163   6.256   5.864   5.906 -0.7682  0.3047  0.2539
 5224TIP3    H237164   6.183   5.974   5.831 -0.2309  0.7755  0.4188
 5225TIP3   OH237165   6.589   3.920  14.665 -0.1232 -0.1697 -0.0734
 5225TIP3    H137166   6.603   3.886  14.576 -0.9727 -0.7934  0.0155
 5225TIP3    H237167   6.606   3.845  14.722  1.9781  0.6246  0.4246
 5226TIP3   OH237168   4.220   0.166  13.720  0.3624  0.2154  0.5577
 5226TIP3    H137169   4.177   0.111  13.786 -1.0876  0.2496 -0.3154
 5226TIP3    H237170   4.251   0.104  13.654  0.5753  0.2909  0.5860
 5227TIP3   OH237171   3.809   1.162   4.403 -0.1940 -0.1610 -0.0863
 5227TIP3    H137172   3.740   1.168   4.337 -1.2701 -1.2199  0.9063
 5227TIP3    H237173   3.821   1.251   4.434 -2.3779 -0.1877  0.9749
 5228TIP3   OH237174   5.085   1.175   2.003 -0.2296 -0.0106 -0.0487
 5228TIP3    H137175   5.135   1.184   1.922  0.0300  0.9520  0.1941
 5228TIP3    H237176   4.994   1.165   1.975 -0.2071  0.8409 -0.4535
 5229TIP3   OH237177   2.102   4.878  13.717  0.0302  0.3559 -0.5884
 5229TIP3    H137178   2.052   4.944  13.668  2.4270  2.0773 -0.8866
 5229TIP3    H237179   2.043   4.853  13.789 -1.6359  1.5082 -1.4685
 5230TIP3   OH237180   5.589   4.637  13.931 -0.0437 -0.2360 -0.3400
 5230TIP3    H137181   5.576   4.546  13.902 -1.3411  0.4851 -2.2031
 5230TIP3    H237182   5.566   4.690  13.855  0.2806  1.6957  0.8403
 5231TIP3   OH237183   3.033   2.483  15.713 -0.3566 -0.3238  0.0653
 5231TIP3    H137184   2.959   2.543  15.714  1.4767  2.1590  1.6253
 5231TIP3    H237185   3.009   2.415  15.775 -2.3028 -1.0292 -1.3656
 5232TIP3   OH237186   1.538   5.295   4.211 -0.1528 -0.2549  0.1959
 5232TIP3    H137187   1.541   5.217   4.265 -0.3152 -1.1110 -0.9800
 5232TIP3    H237188   1.601   5.278   4.141 -2.1177 -0.5448 -1.6012
 5233TIP3   OH237189   3.676   2.221   3.085 -0.2559  0.4098 -0.4874
 5233TIP3    H137190   3.698   2.167   3.009  1.8927 -0.1182  0.4403
 5233TIP3    H237191   3.614   2.167   3.135  1.0746 -0.8158 -0.0948
 5234TIP3   OH237192   4.309   3.128  17.145 -0.0722 -0.2172 -0.5701
 5234TIP3    H137193   4.388   3.095  17.103  0.6538  0.4928  0.2159
 5234TIP3    H237194   4.256   3.050  17.161 -0.0114 -0.5834 -2.0452
 5235TIP3   OH237195   2.774   4.654   3.782 -0.0668  0.1753 -0.4782
 5235TIP3    H137196   2.804   4.709   3.709 -0.5547  1.3644  0.1949
 5235TIP3    H237197   2.853   4.612   3.814  0.2382  0.0724 -1.3258
 5236TIP3   OH237198   4.911   2.923   0.370 -0.2891 -0.0367 -0.1965
 5236TIP3    H137199   4.995   2.904   0.411 -0.0828 -1.3418 -1.1326
 5236TIP3    H237200   4.907   3.018   0.367  1.3643  0.0602 -0.5077
 5237TIP3   OH237201   5.224   1.202   3.666 -0.0788  0.1115 -0.5935
 5237TIP3    H137202   5.303   1.166   3.707 -2.5218 -2.7912  2.1125
 5237TIP3    H237203   5.228   1.296   3.685  3.0204  0.2154 -1.2644
 5238TIP3   OH237204   5.323   6.544   2.229  0.7130 -0.0793 -0.0358
 5238TIP3    H137205   5.352   6.627   2.190 -0.0220 -0.4539 -1.4088
 5238TIP3    H237206   5.239   6.526   2.189  0.8313 -1.4736  0.2962
 5239TIP3   OH237207   0.609   6.791   2.067 -0.8319  0.2090  0.0887
 5239TIP3    H137208   0.609   6.709   2.017  0.3799 -0.2493  0.7901
 5239TIP3    H237209   0.696   6.794   2.107 -0.8401  1.8644  0.0526
 5240TIP3   OH237210   0.290   2.438   1.103 -0.0305  0.1103 -0.0886
 5240TIP3    H137211   0.257   2.505   1.043 -0.2553 -1.0349 -1.2725
 5240TIP3    H237212   0.239   2.451   1.183 -1.7617 -0.1436 -1.1021
 5241TIP3   OH237213   2.051   1.017   4.983  0.2825  0.2819 -0.6026
 5241TIP3    H137214   2.025   1.083   5.047  0.7393 -1.5959  1.6829
 5241TIP3    H237215   2.133   0.981   5.018 -0.4826 -2.1633 -1.1452
 5242TIP3   OH237216   1.188   5.874  11.779 -0.0902 -0.4669 -0.3548
 5242TIP3    H137217   1.197   5.877  11.684 -1.6541 -1.3889 -0.5668
 5242TIP3    H237218   1.130   5.948  11.799 -0.9054 -1.1050 -0.3016
 5243TIP3   OH237219   1.497   2.219  12.729  0.2920  0.4548 -0.0969
 5243TIP3    H137220   1.542   2.243  12.648 -1.1558 -0.8223 -1.3448
 5243TIP3    H237221   1.404   2.221  12.707 -0.1199 -0.6401  1.3202
 5244TIP3   OH237222   5.543   1.670   4.956  0.0483  0.1107 -0.6817
 5244TIP3    H137223   5.635   1.692   4.937  0.1848 -0.7608 -1.0943
 5244TIP3    H237224   5.545   1.631   5.043 -0.2994  2.3109  0.3771
 5245TIP3   OH237225   4.139   0.976   0.832  0.4353  0.0436 -0.2971
 5245TIP3    H137226   4.123   0.887   0.801 -2.3601  0.7560 -1.2227
 5245TIP3    H237227   4.175   1.022   0.756 -1.8531  0.6030 -1.1104
 5246TIP3   OH237228   0.304   6.448   1.894  0.2274  0.7356 -0.7190
 5246TIP3    H137229   0.293   6.371   1.949  0.8555  0.9771 -0.2459
 5246TIP3    H237230   0.246   6.514   1.933  0.1619  0.6954 -0.7485
 5247TIP3   OH237231   6.579   4.616  13.930 -0.1677  0.7986 -0.4961
 5247TIP3    H137232   6.591   4.568  13.849  1.9933 -0.0720  0.2778
 5247TIP3    H237233   6.486   4.603  13.952  0.0271 -2.0050 -0.9613
 5248TIP3   OH237234   1.078   4.581   1.127  0.3221  0.1724  0.8225
 5248TIP3    H137235   1.102   4.622   1.044  0.4979 -1.9494 -0.2493
 5248TIP3    H237236   0.983   4.573   1.123  0.4269 -1.2469  0.0783
 5249TIP3   OH237237   3.551   2.483   1.364 -0.1397  0.1492  0.5297
 5249TIP3    H137238   3.456   2.479   1.350  0.0343 -0.0498 -0.6559
 5249TIP3    H237239   3.574   2.574   1.348  0.1976 -0.2578 -1.5889
 5250TIP3   OH237240   3.302   1.358  15.233  0.1794  0.1987  0.2349
 5250TIP3    H137241   3.305   1.429  15.170  0.5826 -0.7590 -0.8589
 5250TIP3    H237242   3.243   1.293  15.194  2.0155 -1.3145 -0.1815
 5251TIP3   OH237243   1.424   2.493   2.761  0.6388  0.0192  0.3107
 5251TIP3    H137244   1.506   2.513   2.806  2.2250 -0.6171 -2.0696
 5251TIP3    H237245   1.414   2.565   2.698 -0.1383 -0.3830 -0.0388
 5252TIP3   OH237246   0.928   2.961  13.580 -0.1238  0.1213 -0.4046
 5252TIP3    H137247   0.897   2.956  13.490 -0.0101 -0.8132 -0.4015
 5252TIP3    H237248   0.867   3.021  13.623 -1.7824 -1.4326 -0.4700
 5253TIP3   OH237249   0.021   2.550   6.547 -0.4098  0.5758 -0.3047
 5253TIP3    H137250  -0.072   2.553   6.524 -0.9957 -1.2067  1.5465
 5253TIP3    H237251   0.055   2.472   6.503 -0.6509 -0.6841  1.6002
 5254TIP3   OH237252   6.515   0.130  16.072  0.3449 -0.5713 -0.1756
 5254TIP3    H137253   6.552   0.099  16.154  1.9280  0.2459 -0.5388
 5254TIP3    H237254   6.458   0.203  16.097  0.2051 -0.8334  0.2665
 5255TIP3   OH237255   1.055   5.075  12.046  0.3419 -0.3340  0.3338
 5255TIP3    H137256   1.137   5.081  12.095  0.6112  2.3044 -0.2991
 5255TIP3    H237257   1.083   5.052  11.957  0.7522  2.8737 -0.4754
 5256TIP3   OH237258   1.152   5.324  14.397 -0.3105  0.0687  0.4420
 5256TIP3    H137259   1.200   5.398  14.360 -1.2338  0.0227 -0.9630
 5256TIP3    H237260   1.085   5.365  14.452 -1.0124  0.3395 -0.5668
 5257TIP3   OH237261   3.733   4.192   5.233 -0.3180  0.4224 -0.4568
 5257TIP3    H137262   3.644   4.228   5.234 -0.5887 -0.2329 -0.5143
 5257TIP3    H237263   3.777   4.234   5.307 -1.3292 -0.8581  0.9440
 5258TIP3   OH237264   6.052   6.191   3.504 -0.5139  0.3740 -0.3745
 5258TIP3    H137265   5.984   6.193   3.437 -0.4678  1.0630 -0.4025
 5258TIP3    H237266   6.118   6.130   3.470 -1.1828 -0.4324 -0.2712
 5259TIP3   OH237267   5.745   6.151   3.720 -0.2797  0.3449  0.0719
 5259TIP3    H137268   5.699   6.234   3.726 -0.1280  0.4470 -0.1694
 5259TIP3    H237269   5.693   6.091   3.774 -2.7218 -0.4407 -2.8221
 5260TIP3   OH237270   0.618   2.925  12.827  0.3996 -0.0623 -0.3404
 5260TIP3    H137271   0.594   2.925  12.920 -2.0040  2.8400 -0.7869
 5260TIP3    H237272   0.614   2.834  12.801 -1.1602 -0.7256  1.9195
 5261TIP3   OH237273   1.255   6.696  15.987 -0.0036  0.0319 -0.0288
 5261TIP3    H137274   1.329   6.642  16.015  0.4858  0.8650  0.3216
 5261TIP3    H237275   1.288   6.745  15.912 -0.3566  0.0347 -0.1836
 5262TIP3   OH237276   1.499   1.176   4.380  0.5503 -0.7855  0.1152
 5262TIP3    H137277   1.532   1.201   4.293 -2.1575 -1.2201 -1.1431
 5262TIP3    H237278   1.448   1.097   4.364 -0.1634 -0.7793  2.0996
 5263TIP3   OH237279   4.752   5.077   4.398  0.5106 -0.0702  0.1977
 5263TIP3    H137280   4.700   4.999   4.378  2.0891 -1.1060 -0.0500
 5263TIP3    H237281   4.787   5.061   4.486  0.1717  0.7614  0.4989
 5264TIP3   OH237282   0.477   1.227   5.359 -0.5696  0.0862  0.1163
 5264TIP3    H137283   0.426   1.255   5.283  0.3177  2.2208  0.2038
 5264TIP3    H237284   0.412   1.204   5.425 -1.3571 -0.8429 -0.9513
 5265TIP3   OH237285   4.073   1.638  13.956 -0.0795  0.3080  0.1189
 5265TIP3    H137286   4.159   1.596  13.959  0.6204  1.5763 -1.4104
 5265TIP3    H237287   4.081   1.713  14.015 -0.8223 -0.7194  1.5828
 5266TIP3   OH237288   2.267   3.466  15.960 -0.4961  0.4069 -0.6598
 5266TIP3    H137289   2.230   3.482  15.873  0.1082 -0.0856 -1.0154
 5266TIP3    H237290   2.207   3.402  15.999 -0.0285 -0.3926 -1.2346
 5267TIP3   OH237291   5.282   1.460  12.979  0.2045  0.0264 -0.0518
 5267TIP3    H137292   5.353   1.484  13.039 -1.7469 -0.4651  2.6677
 5267TIP3    H237293   5.236   1.542  12.962 -0.0076 -0.0291  0.2361
 5268TIP3   OH237294   4.004   6.593  16.845  0.7776  0.2743 -0.2224
 5268TIP3    H137295   4.084   6.636  16.813 -0.4928  1.5468 -1.8313
 5268TIP3    H237296   4.004   6.508  16.802  1.5268  0.0359  0.2257
 5269TIP3   OH237297   0.326   3.085  12.833 -0.0698 -0.6185  0.1151
 5269TIP3    H137298   0.290   3.007  12.873  1.6713 -1.9603 -0.7934
 5269TIP3    H237299   0.376   3.127  12.903 -1.8818  0.3353  0.9026
 5270TIP3   OH237300   0.905   6.634   5.057 -0.1769 -0.3771 -0.1769
 5270TIP3    H137301   0.957   6.683   5.120 -0.6116 -0.4404  0.2409
 5270TIP3    H237302   0.821   6.621   5.101 -0.7236  0.1687 -1.0338
 5271TIP3   OH237303   0.403   2.078  16.880 -0.1359  0.2856 -0.1447
 5271TIP3    H137304   0.485   2.044  16.843  0.1576  0.8261  0.0019
 5271TIP3    H237305   0.339   2.065  16.810  0.0006 -0.4107 -0.1568
 5272TIP3   OH237306   2.006   4.718  10.961 -0.2063  0.3602 -0.1850
 5272TIP3    H137307   2.016   4.625  10.944  2.0837  0.3735  0.7079
 5272TIP3    H237308   2.080   4.759  10.916 -1.5539  1.8611 -1.1540
 5273TIP3   OH237309   5.181   4.470   2.484 -0.0067  0.1503  0.2197
 5273TIP3    H137310   5.149   4.398   2.538  0.8285  1.0607  2.0128
 5273TIP3    H237311   5.267   4.441   2.454 -1.0300 -0.9499 -1.9283
 5274TIP3   OH237312   5.541   2.352  15.196 -0.0620  0.3111 -0.4218
 5274TIP3    H137313   5.470   2.287  15.197  0.9243 -0.7974 -0.1171
 5274TIP3    H237314   5.534   2.397  15.280 -4.3249  4.7562 -2.6444
 5275TIP3   OH237315   1.942   0.656   1.000  0.2740 -0.3551  0.3199
 5275TIP3    H137316   1.856   0.619   0.980  1.3192 -2.2810 -0.8856
 5275TIP3    H237317   1.969   0.614   1.081 -0.0572  0.5543  0.9212
 5276TIP3   OH237318   5.917   0.726   1.428 -0.3004  0.0759  0.1267
 5276TIP3    H137319   5.935   0.695   1.516 -3.0113 -0.9410  0.4400
 5276TIP3    H237320   5.919   0.647   1.374 -5.4282 -0.7649  0.6126
 5277TIP3   OH237321   0.090   5.082  10.784  0.3006 -0.1339  0.8518
 5277TIP3    H137322   0.101   5.053  10.874 -1.2420 -0.3405  1.0052
 5277TIP3    H237323   0.118   5.007  10.731  0.7326 -0.1977  1.1688
 5278TIP3   OH237324   1.433   3.695   4.603 -0.0460  0.0875 -0.3916
 5278TIP3    H137325   1.384   3.623   4.643  1.3951 -0.6773  0.0984
 5278TIP3    H237326   1.370   3.739   4.546 -1.5410 -0.2557  0.9062
 5279TIP3   OH237327   0.057   5.722  15.393  0.2684  0.1266  0.7161
 5279TIP3    H137328   0.012   5.800  15.424  0.2114  0.6948 -0.7288
 5279TIP3    H237329   0.133   5.755  15.346  0.4272 -0.7044  0.3705
 5280TIP3   OH237330   6.228   0.908   5.505 -0.5307  0.1237  0.4797
 5280TIP3    H137331   6.137   0.931   5.491 -0.0493  0.6110 -2.5898
 5280TIP3    H237332   6.275   0.991   5.501  0.3742 -0.4046 -2.1671
 5281TIP3   OH237333   3.826   2.779  12.449  0.5603 -0.4645  0.0327
 5281TIP3    H137334   3.788   2.711  12.505  1.2436 -1.0848 -0.2280
 5281TIP3    H237335   3.898   2.815  12.501  0.1196  0.1563  0.2198
 5282TIP3   OH237336   1.609   1.293   4.156 -0.4002 -0.0847 -0.2200
 5282TIP3    H137337   1.647   1.246   4.083  0.0937  0.1772 -0.1364
 5282TIP3    H237338   1.588   1.380   4.121  0.8189  0.4110  0.1982
 5283TIP3   OH237339   0.838   5.568   6.347  0.0660  0.1807  0.3219
 5283TIP3    H137340   0.820   5.661   6.362  1.0394  0.3432  0.5682
 5283TIP3    H237341   0.887   5.566   6.265  1.0939  0.0185  0.9183
 5284TIP3   OH237342   1.402   0.757  12.097  0.5541 -0.1466  0.1682
 5284TIP3    H137343   1.388   0.672  12.138  1.6107 -0.0381  0.7917
 5284TIP3    H237344   1.316   0.780  12.061  0.0011 -1.0049  0.8688
 5285TIP3   OH237345   1.423   2.996  12.979 -0.2172 -0.1073  0.6086
 5285TIP3    H137346   1.357   2.960  12.920  1.6664 -0.6120 -1.3240
 5285TIP3    H237347   1.436   2.927  13.045 -0.6443 -0.5766  0.2068
 5286TIP3   OH237348   2.797   1.212   3.712 -0.7262  0.0588 -0.3450
 5286TIP3    H137349   2.811   1.300   3.748 -0.7254 -0.6449  1.5066
 5286TIP3    H237350   2.716   1.182   3.754 -2.4550  0.2823 -3.2981
 5287TIP3   OH237351   1.656   3.066  13.505 -0.4813  0.0253 -0.6325
 5287TIP3    H137352   1.615   3.108  13.429 -0.5097 -0.8087 -1.0882
 5287TIP3    H237353   1.616   2.980  13.509 -1.0052  0.3148  0.7838
 5288TIP3   OH237354   3.411   5.969  13.284 -0.1813  0.0979  0.2009
 5288TIP3    H137355   3.497   5.993  13.250  0.0851 -0.6572  0.3302
 5288TIP3    H237356   3.349   6.002  13.219  0.1370  1.5809  0.6239
 5289TIP3   OH237357   4.592   0.350   0.746 -0.3054  0.4944 -0.4581
 5289TIP3    H137358   4.630   0.302   0.819 -0.5963 -1.3076 -1.4197
 5289TIP3    H237359   4.541   0.420   0.787  1.7532  1.2670  0.9290
 5290TIP3   OH237360   0.250   2.322   3.374  0.0208 -0.0748  0.0021
 5290TIP3    H137361   0.268   2.343   3.466 -0.2952 -0.3404  0.1243
 5290TIP3    H237362   0.174   2.375   3.351  0.6331  0.6570 -0.3674
 5291TIP3   OH237363   4.491   3.910  14.118  0.2081  0.3651 -0.0901
 5291TIP3    H137364   4.415   3.865  14.080  0.0265  0.4008  0.2356
 5291TIP3    H237365   4.486   3.999  14.082  0.3653  0.2292 -0.4485
 5292TIP3   OH237366   2.644   2.801   5.646  0.5890 -0.2939 -0.2159
 5292TIP3    H137367   2.655   2.895   5.656 -2.1561 -0.0716  2.3546
 5292TIP3    H237368   2.549   2.787   5.656  0.8657 -3.3038 -0.7953
 5293TIP3   OH237369   4.438   5.357  14.725 -0.2596  0.1654 -0.2702
 5293TIP3    H137370   4.397   5.427  14.774 -0.2321  0.1059 -0.1615
 5293TIP3    H237371   4.373   5.286  14.725  0.3058 -0.3983  0.9706
 5294TIP3   OH237372   1.801   3.041   1.743 -0.3689 -0.8085 -0.3873
 5294TIP3    H137373   1.807   2.977   1.815 -1.0187 -0.9113 -0.4228
 5294TIP3    H237374   1.866   3.107   1.765  0.3200 -1.4798 -0.3460
 5295TIP3   OH237375   6.255   5.175  14.208  0.2670  0.0202 -0.2141
 5295TIP3    H137376   6.292   5.125  14.281 -1.0370 -0.6534  0.0083
 5295TIP3    H237377   6.318   5.164  14.137  0.5890 -0.9599  0.2078
 5296TIP3   OH237378   3.848   1.607   1.461 -0.0040 -0.2820  0.6131
 5296TIP3    H137379   3.882   1.626   1.548  1.4226 -0.6657  0.1672
 5296TIP3    H237380   3.895   1.528   1.434  1.5841  1.2634 -1.5410
 5297TIP3   OH237381   6.622   1.943   1.052 -0.1661  1.0110  0.2915
 5297TIP3    H137382   6.612   1.909   0.963 -2.9330 -0.3601  1.0364
 5297TIP3    H237383   6.698   1.897   1.086 -0.9536 -0.8637 -0.3583
 5298TIP3   OH237384   5.590   6.536  14.332  0.6155 -0.9291 -0.2083
 5298TIP3    H137385   5.562   6.524  14.423  0.0764 -1.3654 -0.4261
 5298TIP3    H237386   5.667   6.479  14.323  1.0253 -0.4410  0.1303
 5299TIP3   OH237387   1.324   3.251   4.531 -0.1496  0.0412  0.5174
 5299TIP3    H137388   1.308   3.183   4.466  2.8282  0.2233 -0.5628
 5299TIP3    H237389   1.375   3.208   4.599  1.8735  1.1017 -0.2358
 5300TIP3   OH237390   1.017   1.113   4.489  0.5312  0.4964  0.3332
 5300TIP3    H137391   1.038   1.082   4.401  2.0004  1.0008  0.4739
 5300TIP3    H237392   0.981   1.036   4.534 -0.2460  0.2399 -0.6950
 5301TIP3   OH237393   1.059   0.725   2.793 -0.2782  0.3572  0.4859
 5301TIP3    H137394   1.017   0.793   2.846 -1.7226 -0.8340  0.9274
 5301TIP3    H237395   0.987   0.679   2.751  0.6877 -0.6683 -0.0932
 5302TIP3   OH237396   0.259   1.704  12.947 -0.3642  0.4325 -0.1881
 5302TIP3    H137397   0.242   1.637  13.014 -0.7644  1.5149  0.8348
 5302TIP3    H237398   0.351   1.690  12.922  0.1745  0.7479  1.4773
 5303TIP3   OH237399   0.306   1.091  17.108  0.3910  0.2529  0.3421
 5303TIP3    H137400   0.332   1.126  17.193  0.3216 -0.8059  0.8158
 5303TIP3    H237401   0.387   1.086  17.058  0.0927  3.5975 -0.7650
 5304TIP3   OH237402   2.678   5.526   1.076 -0.5119  0.6593 -0.3882
 5304TIP3    H137403   2.680   5.511   1.170 -0.0795  1.7814 -0.2060
 5304TIP3    H237404   2.719   5.612   1.064  0.4703  0.0511 -1.6966
 5305TIP3   OH237405   4.627   4.620  16.292  0.3175 -0.2653  0.1524
 5305TIP3    H137406   4.659   4.548  16.238  0.3400 -0.3173  0.2355
 5305TIP3    H237407   4.645   4.699  16.240  0.0836 -0.3352 -0.0401
 5306TIP3   OH237408   0.376   1.857  14.631  0.1756  1.1952  0.4169
 5306TIP3    H137409   0.400   1.883  14.720  0.2064 -0.2955  0.8676
 5306TIP3    H237410   0.391   1.763  14.629  1.4375  1.3953 -1.5780
 5307TIP3   OH237411   0.633   5.480  14.409 -0.6039  0.2789  0.0764
 5307TIP3    H137412   0.714   5.491  14.361 -0.3030 -0.8198  0.3071
 5307TIP3    H237413   0.652   5.515  14.497 -1.1056  2.1353 -0.4932
 5308TIP3   OH237414   3.689   1.928  12.912 -0.0330 -0.5621 -0.4976
 5308TIP3    H137415   3.782   1.906  12.905 -0.1151 -1.5872  1.1096
 5308TIP3    H237416   3.654   1.863  12.973 -1.3669  1.1399  0.6144
 5309TIP3   OH237417   6.210   5.929  12.131 -0.5724  0.1511 -0.3263
 5309TIP3    H137418   6.258   5.870  12.072  2.1977  1.8159  0.0696
 5309TIP3    H237419   6.187   6.004  12.075 -0.2964  0.5616  0.1078
 5310TIP3   OH237420   5.158   6.333  13.656  0.8972  0.5074 -0.1640
 5310TIP3    H137421   5.183   6.246  13.625 -0.3371 -0.0063  0.2355
 5310TIP3    H237422   5.156   6.387  13.576 -1.4570 -0.6096 -0.9650
 5311TIP3   OH237423   1.877   4.883  13.863  0.2710 -0.6643  0.1690
 5311TIP3    H137424   1.798   4.926  13.830 -1.1914 -1.1433  2.7757
 5311TIP3    H237425   1.914   4.945  13.926  0.3590 -1.5762  1.0473
 5312TIP3   OH237426   2.695   2.024   1.802 -0.5562 -0.0441 -0.4218
 5312TIP3    H137427   2.629   2.052   1.739 -1.4630 -0.9687  0.0986
 5312TIP3    H237428   2.649   2.020   1.886  0.6304  1.1500  0.3288
 5313TIP3   OH237429   2.055   6.069  16.881  0.2872  0.3797 -0.1398
 5313TIP3    H137430   1.993   5.998  16.864  1.2029 -0.3024 -0.7599
 5313TIP3    H237431   2.080   6.058  16.972  0.4355 -0.1079 -0.2374
 5314TIP3   OH237432   2.463   6.248   0.588  0.2923  0.0116  0.3415
 5314TIP3    H137433   2.401   6.321   0.585 -0.0189 -0.2868 -1.4556
 5314TIP3    H237434   2.529   6.269   0.522  0.4675 -1.0876  0.1434
 5315TIP3   OH237435   2.338   1.086  15.856 -0.0829  0.0618  0.1378
 5315TIP3    H137436   2.295   1.127  15.931 -1.4549 -1.0839  0.0177
 5315TIP3    H237437   2.282   1.011  15.835  0.8278 -0.2126 -1.4045
 5316TIP3   OH237438   5.671   1.864  11.385  0.0150  0.4518  0.0511
 5316TIP3    H137439   5.582   1.896  11.371 -1.7683 -1.7478  4.4654
 5316TIP3    H237440   5.668   1.773  11.358  0.4767  0.0059  1.4169
 5317TIP3   OH237441   4.944   5.734  13.834 -0.4610 -0.3674 -0.2462
 5317TIP3    H137442   4.872   5.796  13.849 -0.9726 -0.9540 -0.2291
 5317TIP3    H237443   4.901   5.656  13.798  0.2015 -0.6347 -0.4727
 5318TIP3   OH237444   3.096   5.852  10.476 -0.5590  0.0248 -0.1993
 5318TIP3    H137445   3.145   5.920  10.430  0.3395  0.5906  1.5078
 5318TIP3    H237446   3.030   5.823  10.412  0.6904  0.6558 -1.8649
 5319TIP3   OH237447   3.579   4.521   1.464  0.2621 -0.3950  0.4067
 5319TIP3    H137448   3.558   4.591   1.402 -0.0491 -2.0139 -1.4128
 5319TIP3    H237449   3.674   4.511   1.459  0.1912 -0.8179 -0.1625
 5320TIP3   OH237450   2.476   4.756   0.227 -0.4425  0.1049 -0.4303
 5320TIP3    H137451   2.385   4.787   0.235  0.2471  2.1912 -0.0435
 5320TIP3    H237452   2.513   4.809   0.157  0.6327 -0.3592 -0.2323
 5321TIP3   OH237453   4.574   5.898  15.507  0.3894 -0.0830  0.3581
 5321TIP3    H137454   4.506   5.830  15.500 -0.7216  0.9368  0.9436
 5321TIP3    H237455   4.540   5.971  15.455  1.2496  0.2906  0.3017
 5322TIP3   OH237456   2.604   5.078   6.110 -0.4452 -0.4150  0.9359
 5322TIP3    H137457   2.575   5.156   6.157 -1.9948 -0.4328  0.0581
 5322TIP3    H237458   2.553   5.077   6.030  1.0879 -1.2001 -0.0855
 5323TIP3   OH237459   6.145   2.650   5.485 -0.0516  0.6686 -0.0570
 5323TIP3    H137460   6.162   2.640   5.579 -1.0683 -0.7431  0.0058
 5323TIP3    H237461   6.106   2.737   5.478  0.2734  0.8971  0.7882
 5324TIP3   OH237462   5.456   2.683  15.927 -0.2347 -0.2337 -0.7311
 5324TIP3    H137463   5.372   2.706  15.888 -0.8247  2.2185  1.6644
 5324TIP3    H237464   5.514   2.756  15.905  0.1905 -0.1429  0.5547
 5325TIP3   OH237465   0.231   1.258  14.638 -0.3627 -0.2444 -0.6720
 5325TIP3    H137466   0.169   1.299  14.698  0.2669  0.3127 -0.4076
 5325TIP3    H237467   0.184   1.256  14.554 -0.8888 -0.1868 -0.3838
 5326TIP3   OH237468   3.345   4.864  12.610  0.1084  0.8985 -0.1635
 5326TIP3    H137469   3.407   4.930  12.579  1.4812  0.2964  1.1954
 5326TIP3    H237470   3.374   4.842  12.698 -0.1446 -1.6691 -0.6193
 5327TIP3   OH237471   2.689   6.122   0.783 -0.6682  0.3794 -0.0436
 5327TIP3    H137472   2.596   6.106   0.769 -0.3087 -2.2717  0.0634
 5327TIP3    H237473   2.697   6.135   0.877 -0.8175 -0.6248  0.1227
 5328TIP3   OH237474   2.082   2.349   1.082 -0.1232 -0.1252  0.0358
 5328TIP3    H137475   2.053   2.320   1.169 -1.1005  1.4149  0.2712
 5328TIP3    H237476   2.175   2.367   1.092  0.0693 -1.2905  0.3875
 5329TIP3   OH237477   3.331   5.407   4.959  0.4576 -0.3095 -0.6051
 5329TIP3    H137478   3.420   5.416   4.925  0.2301 -1.7489 -1.6510
 5329TIP3    H237479   3.342   5.363   5.043  0.6770 -1.5478 -1.2665
 5330TIP3   OH237480   4.956   2.011  15.281  0.1295 -0.0428  0.1193
 5330TIP3    H137481   5.016   1.960  15.226 -0.0905  0.5609 -0.7083
 5330TIP3    H237482   4.913   2.071  15.219 -1.1157 -0.2660  0.7418
 5331TIP3   OH237483   6.782   1.867  11.292  0.1367 -0.1487  0.3348
 5331TIP3    H137484   6.783   1.943  11.233  1.5684 -0.3651  0.0336
 5331TIP3    H237485   6.812   1.901  11.376 -0.9102 -0.0472  0.6779
 5332TIP3   OH237486   1.453   0.781  16.007  0.5606  0.1975 -0.7949
 5332TIP3    H137487   1.542   0.816  16.007  0.4074  0.6017 -1.1196
 5332TIP3    H237488   1.464   0.686  15.999  0.9788  0.1756 -0.0181
 5333TIP3   OH237489   2.390   4.267   0.598  0.6817  0.5178 -0.4490
 5333TIP3    H137490   2.481   4.295   0.609  0.5691  0.6086  0.2779
 5333TIP3    H237491   2.394   4.171   0.599  0.6511  0.5073  0.7548
 5334TIP3   OH237492   6.824   2.315   4.768  0.2934 -0.0003 -0.1646
 5334TIP3    H137493   6.872   2.397   4.754  0.6618 -0.5328 -2.4141
 5334TIP3    H237494   6.734   2.335   4.742  0.2601 -0.1519 -0.1677
 5335TIP3   OH237495   5.427   0.567   1.924  0.1289  0.0854 -0.3472
 5335TIP3    H137496   5.400   0.512   1.998 -0.2328  1.2924  0.4446
 5335TIP3    H237497   5.452   0.505   1.856  2.6282 -1.1248  1.5089
 5336TIP3   OH237498   1.176   5.974  14.730 -0.1204  0.2564  0.0106
 5336TIP3    H137499   1.118   6.050  14.730  0.8252  1.0073  0.9484
 5336TIP3    H237500   1.138   5.914  14.794  0.2581  0.8579  0.8132
 5337TIP3   OH237501   3.190   1.993  11.783  0.6279 -0.4302 -0.2815
 5337TIP3    H137502   3.106   2.015  11.823  0.2451 -0.4091 -1.0656
 5337TIP3    H237503   3.250   2.061  11.813  0.3284 -0.3603  0.1695
 5338TIP3   OH237504   6.574   0.487  15.630  0.4139 -0.6847 -0.8840
 5338TIP3    H137505   6.592   0.421  15.562 -1.0716 -1.7982 -0.2506
 5338TIP3    H237506   6.547   0.435  15.706  2.4128  0.4940  0.7336
 5339TIP3   OH237507   4.024   0.457   1.959 -0.3691  0.7630 -0.7045
 5339TIP3    H137508   4.077   0.506   2.021 -0.5058 -0.2837  0.2768
 5339TIP3    H237509   4.054   0.366   1.969 -0.8341  0.4870 -1.7136
 5340TIP3   OH237510   6.663   4.953  10.881  0.3228  0.5106  0.8435
 5340TIP3    H137511   6.711   5.015  10.825  0.8964 -0.9765 -0.3678
 5340TIP3    H237512   6.580   4.938  10.834  0.9622 -1.0294  0.1582
 5341TIP3   OH237513   3.387   1.475   5.026 -0.0343 -0.1033 -0.4086
 5341TIP3    H137514   3.401   1.528   5.105 -0.2435 -0.2242 -0.2908
 5341TIP3    H237515   3.348   1.394   5.057  2.5041 -1.3907 -0.2939
 5342TIP3   OH237516   6.683   3.961   3.977 -0.2246 -0.4565  0.0227
 5342TIP3    H137517   6.616   3.894   3.961  1.1828 -2.2349  1.3031
 5342TIP3    H237518   6.652   4.008   4.054  0.2176 -1.6168  0.9272
 5343TIP3   OH237519   3.248   2.624  11.316  0.0502 -0.4000  0.3679
 5343TIP3    H137520   3.280   2.691  11.376 -1.3888 -1.1580  2.0792
 5343TIP3    H237521   3.176   2.666  11.270 -1.1998 -0.8644  1.8218
 5344TIP3   OH237522   0.821   1.005   5.865 -0.1806 -0.4082 -0.4991
 5344TIP3    H137523   0.865   1.089   5.847 -1.7273  1.8887  4.5442
 5344TIP3    H237524   0.892   0.945   5.887  0.8475  0.8312 -0.2853
 5345TIP3   OH237525   0.281   4.720   0.240 -0.2668  0.0162 -0.2909
 5345TIP3    H137526   0.332   4.718   0.159 -0.8977  0.6449 -0.7226
 5345TIP3    H237527   0.324   4.785   0.294  0.6722 -1.0250  0.2514
 5346TIP3   OH237528   4.348   6.385   1.785 -0.1457  0.0959  0.0681
 5346TIP3    H137529   4.373   6.410   1.696  2.3593 -1.1912  0.3105
 5346TIP3    H237530   4.253   6.394   1.787 -0.3105 -0.0311 -2.8088
 5347TIP3   OH237531   1.224   2.118   3.206  0.5284 -0.1438 -0.4137
 5347TIP3    H137532   1.205   2.183   3.138 -0.9023 -0.2413 -0.1380
 5347TIP3    H237533   1.172   2.041   3.181 -1.8911  0.5880  1.9364
 5348TIP3   OH237534   3.832   0.198  14.041 -0.0692 -0.0267  0.1317
 5348TIP3    H137535   3.812   0.253  14.117  0.9048 -0.9102  1.0528
 5348TIP3    H237536   3.746   0.177  14.004 -0.4947  1.4390  0.2286
 5349TIP3   OH237537   3.870   3.184   3.078  0.1789  0.2949  0.1722
 5349TIP3    H137538   3.927   3.135   3.137 -2.0130 -0.1079  2.0909
 5349TIP3    H237539   3.846   3.120   3.010  0.4361 -0.0945  0.4413
 5350TIP3   OH237540   3.664   2.475  14.333  0.1098 -0.5789  0.5965
 5350TIP3    H137541   3.635   2.505  14.247 -1.0435 -1.9267  0.4710
 5350TIP3    H237542   3.690   2.384  14.319 -0.2800 -0.8768  1.7006
 5351TIP3   OH237543   0.184   2.232  15.544 -0.0249 -0.1370 -0.5273
 5351TIP3    H137544   0.279   2.220  15.544 -0.2209 -2.0555  0.2191
 5351TIP3    H237545   0.168   2.292  15.617  0.5987  0.2470 -0.6939
 5352TIP3   OH237546   1.110   1.047  12.821 -0.3446  0.4300 -0.1699
 5352TIP3    H137547   1.189   1.004  12.789  0.3661  0.8648  0.9270
 5352TIP3    H237548   1.057   1.062  12.743  0.0851 -0.9892 -0.7717
 5353TIP3   OH237549   5.227   2.961   4.725  0.2458  0.3607  0.2021
 5353TIP3    H137550   5.253   3.036   4.778  1.1145  0.2141 -0.0033
 5353TIP3    H237551   5.284   2.890   4.755  0.4729  0.1791 -0.6544
 5354TIP3   OH237552   1.759   5.486   4.087 -0.1025 -0.1428  0.5597
 5354TIP3    H137553   1.787   5.490   4.179  0.0320  0.7969  0.4924
 5354TIP3    H237554   1.714   5.569   4.072  0.0433 -0.2039 -0.2763
 5355TIP3   OH237555   2.614   2.719  14.881  0.2003 -0.3982 -0.4560
 5355TIP3    H137556   2.639   2.704  14.973  1.4640  1.1903 -0.4868
 5355TIP3    H237557   2.565   2.641  14.856  1.2645 -1.6193  1.0723
 5356TIP3   OH237558   0.568   6.508   2.451  0.0853 -0.1994 -0.1458
 5356TIP3    H137559   0.493   6.491   2.395  1.2859 -0.0989 -1.8640
 5356TIP3    H237560   0.639   6.530   2.390  1.3787  0.2003  1.4356
 5357TIP3   OH237561   0.472   1.014  12.980  0.6724 -0.0652 -0.1695
 5357TIP3    H137562   0.436   1.101  12.994 -0.9918 -0.6199 -0.6628
 5357TIP3    H237563   0.563   1.029  12.956  0.2406  1.5997 -0.9740
 5358TIP3   OH237564   4.382   1.004   3.257 -0.3716  0.1935  0.6946
 5358TIP3    H137565   4.466   0.959   3.250  0.2857  1.5407 -0.4342
 5358TIP3    H237566   4.369   1.017   3.350  0.5607 -0.2269  0.8938
 5359TIP3   OH237567   2.673   3.776  10.844  0.5973  0.0975 -0.5000
 5359TIP3    H137568   2.673   3.704  10.781 -0.7728  0.4802 -0.9753
 5359TIP3    H237569   2.631   3.740  10.922 -0.2079  0.3973 -0.7833
 5360TIP3   OH237570   0.679   0.330  14.613  0.1927  0.5508  0.3599
 5360TIP3    H137571   0.718   0.316  14.527  2.1055  0.5284  1.1949
 5360TIP3    H237572   0.693   0.423  14.632 -0.1046  0.5265  0.7172
 5361TIP3   OH237573   1.650   5.479  11.833  0.0059  0.3993  0.2729
 5361TIP3    H137574   1.576   5.472  11.773  0.0897 -0.3787  0.2442
 5361TIP3    H237575   1.617   5.526  11.908 -0.2188  1.0114 -0.2006
 5362TIP3   OH237576   1.559   2.127   1.966  0.3296  0.1379 -0.0844
 5362TIP3    H137577   1.515   2.060   1.914  0.1377  1.2300 -1.3742
 5362TIP3    H237578   1.622   2.167   1.907 -1.0312  2.5176 -0.0638
 5363TIP3   OH237579   1.080   6.672  11.518 -0.3226 -0.0593 -0.6990
 5363TIP3    H137580   1.170   6.698  11.495 -0.8213  1.1882 -1.2914
 5363TIP3    H237581   1.024   6.730  11.468 -1.4753 -0.1836  0.3855
 5364TIP3   OH237582   4.838   5.160   3.277  0.1588  0.0647  0.3723
 5364TIP3    H137583   4.896   5.085   3.285  0.3266  0.0150 -1.0519
 5364TIP3    H237584   4.797   5.168   3.363  1.1389 -0.8235  0.9435
 5365TIP3   OH237585   2.282   0.131   4.587  0.6420  0.7690  0.0856
 5365TIP3    H137586   2.208   0.156   4.642  0.5848  0.2018  0.2745
 5365TIP3    H237587   2.276   0.190   4.511  0.2146  0.9733  0.2740
 5366TIP3   OH237588   0.335   0.471  12.811  0.3502 -0.1693 -0.2174
 5366TIP3    H137589   0.248   0.453  12.848  1.0078  1.9860  2.7848
 5366TIP3    H237590   0.322   0.548  12.756  0.3952  0.4097  0.5674
 5367TIP3   OH237591   0.725   5.010   0.643 -0.0473  0.6294  0.5860
 5367TIP3    H137592   0.771   4.996   0.561  0.2944 -1.9074  1.1182
 5367TIP3    H237593   0.639   4.968   0.630  0.4210 -0.8184  1.8097
 5368TIP3   OH237594   2.880   3.106  12.255  0.2847 -0.0154  0.3217
 5368TIP3    H137595   2.907   3.074  12.169 -1.8461 -0.7576 -0.1517
 5368TIP3    H237596   2.959   3.103  12.308  1.4007 -0.6731 -1.2784
 5369TIP3   OH237597   5.421   4.355  13.379 -0.0025 -0.4591  0.0354
 5369TIP3    H137598   5.391   4.315  13.461  0.0829 -2.8838 -1.0493
 5369TIP3    H237599   5.517   4.354  13.386 -0.0039  0.7246  0.4955
 5370TIP3   OH237600   3.799   0.600  13.881 -0.2411  0.6595 -0.1804
 5370TIP3    H137601   3.773   0.690  13.862 -1.7706  0.0307 -1.2922
 5370TIP3    H237602   3.721   0.561  13.922 -0.3878 -0.7245 -1.6666
 5371TIP3   OH237603   6.759   0.164   1.801  0.8377  0.5142  0.0099
 5371TIP3    H137604   6.849   0.194   1.786  1.2861 -1.1437 -0.8155
 5371TIP3    H237605   6.762   0.115   1.883  0.6144  0.7243  0.1459
 5372TIP3   OH237606   1.610   1.660  14.097 -0.4228  0.4068  0.3858
 5372TIP3    H137607   1.641   1.608  14.024 -0.9400  1.1102 -0.3502
 5372TIP3    H237608   1.579   1.741  14.058  0.5716  1.3752  1.5301
 5373TIP3   OH237609   3.598   3.819  15.227  0.3517 -0.2447 -0.3907
 5373TIP3    H137610   3.551   3.737  15.210 -0.4755  0.2576 -0.6116
 5373TIP3    H237611   3.622   3.815  15.319 -3.4223  1.0460  0.8382
 5374TIP3   OH237612   2.096   4.390   2.070  0.2338 -0.0473  0.5263
 5374TIP3    H137613   2.134   4.323   2.127  1.4485 -1.3514 -1.6700
 5374TIP3    H237614   2.170   4.447   2.048 -0.2708  0.6004  0.4994
 5375TIP3   OH237615   6.355   4.008   3.651 -0.2601  0.5605  0.6649
 5375TIP3    H137616   6.271   3.991   3.608  2.0841 -3.5294 -3.1061
 5375TIP3    H237617   6.395   4.078   3.600  0.3890 -0.6642 -0.5541
 5376TIP3   OH237618   0.196   3.772   4.272  0.0222  0.1325 -0.3752
 5376TIP3    H137619   0.164   3.839   4.333 -1.4112 -1.5316  0.8043
 5376TIP3    H237620   0.281   3.745   4.309 -0.7844 -0.7857  0.8834
 5377TIP3   OH237621   3.228   6.657  11.861  0.4729 -0.1857  0.0904
 5377TIP3    H137622   3.302   6.609  11.899  0.4188 -0.4721 -0.1672
 5377TIP3    H237623   3.173   6.680  11.937  1.2392  0.7584  0.3849
 5378TIP3   OH237624   2.040   3.916   1.842 -0.3702 -0.2152 -0.3857
 5378TIP3    H137625   2.118   3.873   1.807  0.2738 -0.7815  1.6125
 5378TIP3    H237626   1.988   3.845   1.879 -1.1447  0.3231 -0.4325
 5379TIP3   OH237627   4.293   4.104   1.643 -0.2603  0.0589  0.8432
 5379TIP3    H137628   4.236   4.147   1.708 -0.9573 -0.4445  0.5802
 5379TIP3    H237629   4.381   4.134   1.666 -0.6650  1.2118  0.9826
 5380TIP3   OH237630   0.952   1.914  15.092  0.1760  0.3187 -0.4822
 5380TIP3    H137631   0.893   1.970  15.042 -0.4651 -0.7744 -0.9908
 5380TIP3    H237632   0.980   1.968  15.165 -1.0369  1.0429 -0.5244
 5381TIP3   OH237633   6.609   5.263  15.212 -0.3683 -0.0394  0.7155
 5381TIP3    H137634   6.688   5.275  15.159  0.7133 -2.3806  1.6412
 5381TIP3    H237635   6.626   5.315  15.291 -0.1947  0.2730  0.4731
 5382TIP3   OH237636   4.068   3.639   2.085  0.1281  0.3730  0.8704
 5382TIP3    H137637   4.129   3.678   2.022  1.5840 -1.0332  1.3346
 5382TIP3    H237638   4.100   3.669   2.170 -1.7007  2.0925  1.0229
 5383TIP3   OH237639   6.184   2.348  14.353  0.1713 -0.1892  0.0374
 5383TIP3    H137640   6.136   2.266  14.365  0.2819 -0.3514 -0.5862
 5383TIP3    H237641   6.183   2.390  14.439 -0.4187 -0.5540  0.2125
 5384TIP3   OH237642   2.149   3.071   4.218 -0.3748 -0.4788  0.2794
 5384TIP3    H137643   2.112   3.072   4.306  0.4022 -0.0273  0.6148
 5384TIP3    H237644   2.205   2.993   4.216 -0.9497 -0.8948 -0.0671
 5385TIP3   OH237645   0.309   3.296   5.723  0.3133  0.6476 -0.3809
 5385TIP3    H137646   0.389   3.283   5.773 -0.9177 -1.2820  1.2769
 5385TIP3    H237647   0.317   3.237   5.648 -0.3634 -1.2397  0.9363
 5386TIP3   OH237648   3.368   2.473   4.307  0.0382  0.2819 -0.2491
 5386TIP3    H137649   3.447   2.511   4.345 -0.2599 -0.4898  1.2212
 5386TIP3    H237650   3.383   2.378   4.309 -0.3977  0.1774 -1.1886
 5387TIP3   OH237651   5.463   1.884   3.925 -0.0438 -0.4930 -0.2976
 5387TIP3    H137652   5.540   1.853   3.878 -0.8387 -1.6011 -0.9408
 5387TIP3    H237653   5.405   1.918   3.856  0.0736  0.8427  0.2284
 5388TIP3   OH237654   5.272   5.483   0.087 -0.2042 -0.2332 -0.4841
 5388TIP3    H137655   5.336   5.476   0.016 -1.0473 -0.3619 -1.2479
 5388TIP3    H237656   5.306   5.553   0.143  1.5156 -1.4873  0.1041
 5389TIP3   OH237657   2.540   3.175  14.083 -0.2763  0.5972  0.3885
 5389TIP3    H137658   2.519   3.174  13.990  0.7074 -0.8707  0.1276
 5389TIP3    H237659   2.463   3.138  14.126 -0.1456 -0.1934 -0.0317
 5390TIP3   OH237660   5.778   5.237  13.305  0.3397  0.1639 -0.3662
 5390TIP3    H137661   5.861   5.256  13.348  0.4351  2.1121 -1.2821
 5390TIP3    H237662   5.779   5.142  13.291  0.9067 -0.3421  2.5441
 5391TIP3   OH237663   4.821   4.003   5.946 -0.1775  0.9823 -0.3594
 5391TIP3    H137664   4.913   3.996   5.920 -0.1678 -1.0664  0.0721
 5391TIP3    H237665   4.810   3.938   6.015 -1.6526  2.1198  0.5353
 5392TIP3   OH237666   3.977   3.650  16.879 -0.6065 -0.0274  0.4359
 5392TIP3    H137667   3.995   3.626  16.788  0.1614 -0.0871  0.5921
 5392TIP3    H237668   4.013   3.578  16.931 -2.5311 -0.8219  0.7483
 5393TIP3   OH237669   4.020   4.985  13.739  0.1325 -0.0532 -0.2190
 5393TIP3    H137670   3.977   4.941  13.812 -1.2136 -2.3045 -2.2467
 5393TIP3    H237671   3.953   5.043  13.703  0.5623  0.5089 -0.1280
 5394TIP3   OH237672   0.868   5.541   0.983 -0.3760  0.2633  0.2465
 5394TIP3    H137673   0.950   5.507   1.021 -0.9796 -1.7177 -0.0985
 5394TIP3    H237674   0.852   5.485   0.907 -1.1291  1.7966 -0.7808
 5395TIP3   OH237675   3.081   5.839  16.280  0.0300 -0.6701  0.7168
 5395TIP3    H137676   3.032   5.795  16.210  0.8394 -1.3393  0.5539
 5395TIP3    H237677   3.139   5.899  16.234 -0.0084 -0.5239  0.8606
 5396TIP3   OH237678   0.925   1.538   0.855 -0.3274 -0.1034  1.0096
 5396TIP3    H137679   0.961   1.541   0.944  0.4853 -0.3500  0.7011
 5396TIP3    H237680   0.998   1.506   0.801 -1.1437 -1.0559  0.4301
 5397TIP3   OH237681   2.621   5.805   6.002 -0.6624  0.0284  0.8443
 5397TIP3    H137682   2.627   5.749   6.079 -0.5098  0.5999  1.2581
 5397TIP3    H237683   2.527   5.813   5.986 -0.6630 -1.5735 -0.1510
 5398TIP3   OH237684   3.600   2.282  17.197  0.2285  0.1674 -0.3399
 5398TIP3    H137685   3.669   2.331  17.242  0.4394  0.2920 -0.7851
 5398TIP3    H237686   3.521   2.298  17.249  0.3135  0.9169 -0.4311
 5399TIP3   OH237687   6.762   5.357  15.606 -0.0400 -0.0457 -0.2859
 5399TIP3    H137688   6.837   5.298  15.609  0.3417  0.4598  0.4042
 5399TIP3    H237689   6.687   5.301  15.628  0.3258 -0.2731  0.4165
 5400TIP3   OH237690   2.038   4.453   2.764  0.1442  0.0859 -0.4068
 5400TIP3    H137691   1.989   4.533   2.745  0.5771  0.3302 -0.5218
 5400TIP3    H237692   2.011   4.429   2.853 -0.3581  0.0805 -0.5565
 5401TIP3   OH237693   3.343   1.172  12.580 -0.3579 -0.4685 -0.4332
 5401TIP3    H137694   3.379   1.106  12.521 -2.4456 -2.0559 -0.0377
 5401TIP3    H237695   3.363   1.139  12.668 -2.2637 -1.1402 -0.2187
 5402TIP3   OH237696   4.520   6.474   4.990  0.3348  0.4270 -0.7121
 5402TIP3    H137697   4.439   6.440   5.028 -0.1490  1.6400 -0.5966
 5402TIP3    H237698   4.588   6.417   5.024 -0.2209  0.7251  1.0185
 5403TIP3   OH237699   5.021   6.453   0.504  0.3139  0.1407  0.1976
 5403TIP3    H137700   4.946   6.509   0.483 -0.5131  0.1844  2.8730
 5403TIP3    H237701   5.034   6.399   0.426 -2.3812  0.2786 -0.4351
 5404TIP3   OH237702   3.236   0.406  13.165  0.6441  0.0538  0.3136
 5404TIP3    H137703   3.172   0.471  13.195  1.3778  0.6823  0.5601
 5404TIP3    H237704   3.222   0.400  13.070 -0.9271 -1.0992  0.6014
 5405TIP3   OH237705   2.348   0.871  16.924 -0.4893 -0.1194  0.4781
 5405TIP3    H137706   2.426   0.880  16.978  0.2839  0.1836 -0.6520
 5405TIP3    H237707   2.281   0.922  16.971  0.4890  1.1674  0.5496
 5406TIP3   OH237708   1.750   5.159   1.746 -0.6312 -0.2241  0.2018
 5406TIP3    H137709   1.683   5.193   1.686 -2.3243 -3.2695  0.1362
 5406TIP3    H237710   1.701   5.137   1.826  0.8835  0.2166  1.2935
 5407TIP3   OH237711   3.510   2.728   0.254 -0.2983 -0.0604 -0.2446
 5407TIP3    H137712   3.459   2.809   0.256 -0.0428  0.0923  0.5482
 5407TIP3    H237713   3.445   2.658   0.258 -0.4593  0.1321  1.7740
 5408TIP3   OH237714   3.045   0.420  15.367  0.0001 -0.2351  0.1961
 5408TIP3    H137715   2.950   0.431  15.361 -0.1260 -1.5282 -0.6650
 5408TIP3    H237716   3.062   0.334  15.327  1.2710 -1.1260  2.4473
 5409TIP3   OH237717   6.231   1.184   4.052  0.7036 -0.1920 -0.3773
 5409TIP3    H137718   6.240   1.208   3.960  0.7894  1.8100  0.1219
 5409TIP3    H237719   6.204   1.264   4.096 -1.5240 -1.6151  1.0417
 5410TIP3   OH237720   0.307   1.994   4.917  0.2748 -1.0026  0.0094
 5410TIP3    H137721   0.364   1.934   4.868  0.2100 -1.1711  0.1388
 5410TIP3    H237722   0.255   2.037   4.849  1.7734  0.4598 -0.2769
 5411TIP3   OH237723   5.283   5.827  14.397 -0.1582 -0.2474 -0.1972
 5411TIP3    H137724   5.228   5.805  14.471 -2.4365 -0.4431 -1.8310
 5411TIP3    H237725   5.373   5.815  14.428 -1.0134 -4.9751  1.1587
 5412TIP3   OH237726   1.759   4.096   2.133  0.1084  0.3222  0.2756
 5412TIP3    H137727   1.696   4.162   2.160 -1.0261 -0.3081 -0.7299
 5412TIP3    H237728   1.814   4.140   2.068 -1.1128  0.1115 -0.9481
 5413TIP3   OH237729   2.693   6.393   2.189 -0.1689  0.3114  0.4789
 5413TIP3    H137730   2.620   6.454   2.183  0.6365  1.2924  0.3758
 5413TIP3    H237731   2.735   6.398   2.103 -0.1901 -0.5179  0.4124
 5414TIP3   OH237732   2.392   2.916   0.790  0.4432 -1.1049 -0.4468
 5414TIP3    H137733   2.483   2.916   0.821  0.1735 -2.4418  0.4484
 5414TIP3    H237734   2.394   2.861   0.711  0.6136 -0.1313 -1.1305
 5415TIP3   OH237735   1.141   3.162  12.543 -0.3684 -0.1779  0.0401
 5415TIP3    H137736   1.161   3.230  12.479  1.7226  0.0628  0.8853
 5415TIP3    H237737   1.069   3.199  12.595 -1.8625 -0.2336 -1.8562
 5416TIP3   OH237738   5.197   4.875  13.012 -0.1743  0.4611  0.2730
 5416TIP3    H137739   5.114   4.869  13.059 -0.7376 -0.6977 -0.8215
 5416TIP3    H237740   5.201   4.966  12.982 -0.1835  0.9986  1.8371
 5417TIP3   OH237741   5.039   5.606   3.734  0.1149 -0.4859 -0.1668
 5417TIP3    H137742   4.972   5.590   3.800 -0.9565  1.3380 -0.7399
 5417TIP3    H237743   5.057   5.520   3.696 -2.7558 -0.9084 -0.7741
 5418TIP3   OH237744   6.802   1.446  14.453 -0.1627  0.1522 -0.2514
 5418TIP3    H137745   6.730   1.393  14.418 -1.0831  1.5803 -0.5630
 5418TIP3    H237746   6.879   1.416  14.405 -0.4247 -1.7289  0.4157
 5419TIP3   OH237747   1.582   4.464  17.076  0.2551  0.5837 -0.5872
 5419TIP3    H137748   1.592   4.393  17.139 -0.0645  1.8589  0.9543
 5419TIP3    H237749   1.497   4.448  17.035 -0.2816  0.6323  0.4911
 5420TIP3   OH237750   6.501   5.868   0.860 -0.3700  0.1013  0.0754
 5420TIP3    H137751   6.525   5.850   0.769 -0.2857  1.7423 -0.2589
 5420TIP3    H237752   6.420   5.919   0.853 -1.2214 -1.0607  1.0047
 5421TIP3   OH237753   1.438   2.915   5.824  0.1455 -0.0973  0.6494
 5421TIP3    H137754   1.377   2.946   5.757  1.1338 -0.9405 -0.6823
 5421TIP3    H237755   1.431   2.979   5.895 -0.8324  0.8812 -0.3056
 5422TIP3   OH237756   4.652   4.832   4.359 -0.0675  0.7125 -0.4899
 5422TIP3    H137757   4.594   4.756   4.347  0.4309  0.1508  0.4905
 5422TIP3    H237758   4.697   4.814   4.441 -0.3725  2.3728  0.0826
 5423TIP3   OH237759   6.003   1.370   2.497 -0.7521  0.1219  0.2071
 5423TIP3    H137760   6.072   1.365   2.431  1.2399 -0.6943  2.2134
 5423TIP3    H237761   5.998   1.463   2.519 -0.6482  0.2550 -0.3251
 5424TIP3   OH237762   5.243   4.182   0.703 -0.1468 -0.2969 -0.0803
 5424TIP3    H137763   5.268   4.264   0.661 -0.0586 -0.4143 -0.2556
 5424TIP3    H237764   5.292   4.181   0.785 -1.2850  0.5397  0.6385
 5425TIP3   OH237765   5.787   3.680   5.243  0.2461  0.7759  0.1195
 5425TIP3    H137766   5.841   3.756   5.221  1.0084 -0.1560 -1.4477
 5425TIP3    H237767   5.713   3.685   5.183 -0.0716  0.6537  0.4960
 5426TIP3   OH237768   2.610   4.491   1.238  0.4309  0.6764 -0.4121
 5426TIP3    H137769   2.596   4.501   1.332  1.8805  0.4823 -0.1486
 5426TIP3    H237770   2.702   4.515   1.224  0.2579  0.6679 -1.7775
 5427TIP3   OH237771   1.369   3.933  12.569 -0.2633  0.0652  0.1658
 5427TIP3    H137772   1.447   3.880  12.553  0.9780  2.2984 -1.7551
 5427TIP3    H237773   1.359   3.932  12.664  1.0903 -1.6118  0.3404
 5428TIP3   OH237774   6.124   0.103  15.732 -0.1778 -0.4666  0.4617
 5428TIP3    H137775   6.127   0.054  15.650  1.3098  0.2753  0.0292
 5428TIP3    H237776   6.191   0.063  15.786 -0.7743 -0.5942  1.1138
 5429TIP3   OH237777   3.063   5.878   6.052  0.0876  0.3496 -0.1863
 5429TIP3    H137778   2.988   5.934   6.071 -0.1490 -0.5396  1.7149
 5429TIP3    H237779   3.130   5.906   6.114  0.8837  0.2341 -0.9646
 5430TIP3   OH237780   6.658   0.171  17.074  0.2946  0.5162  0.0975
 5430TIP3    H137781   6.582   0.169  17.015  0.3002  2.5642 -0.0478
 5430TIP3    H237782   6.725   0.123  17.026 -0.3834  0.1981 -0.5646
 5431TIP3   OH237783   6.293   1.633   3.806 -0.3315  0.2463  0.1762
 5431TIP3    H137784   6.306   1.625   3.711  0.4538 -0.5856  0.3401
 5431TIP3    H237785   6.346   1.562   3.844  0.1659  1.1772  1.2910
 5432TIP3   OH237786   5.444   5.410   2.091 -0.2880  0.4755 -0.8508
 5432TIP3    H137787   5.388   5.366   2.026  1.0937 -3.1715  0.1711
 5432TIP3    H237788   5.526   5.361   2.089  0.9649  2.2762  1.4147
 5433TIP3   OH237789   1.148   2.680  16.444 -0.3384 -0.2452 -0.4214
 5433TIP3    H137790   1.145   2.767  16.484 -1.0982 -0.9490  1.1693
 5433TIP3    H237791   1.240   2.669  16.418 -0.0611  0.7222  0.0975
 5434TIP3   OH237792   2.946   4.347   5.477 -0.0104  0.5663  0.4683
 5434TIP3    H137793   3.008   4.419   5.489 -1.0068  1.4031  0.6906
 5434TIP3    H237794   2.941   4.335   5.382 -0.8134  1.6728  0.3545
 5435TIP3   OH237795   2.675   6.053  10.355  0.4901 -0.4376  0.3763
 5435TIP3    H137796   2.600   6.077  10.299  0.0040  0.2328  1.2897
 5435TIP3    H237797   2.752   6.076  10.303  0.0468 -0.3576 -0.2540
 5436TIP3   OH237798   3.340   6.028  13.570 -0.3081 -0.4182  0.1079
 5436TIP3    H137799   3.422   6.037  13.618  0.1738 -2.3581 -0.2751
 5436TIP3    H237800   3.364   5.982  13.490 -1.7938 -1.3301  0.1446
 5437TIP3   OH237801   0.905   5.713  13.997  0.4872  1.0848  1.2498
 5437TIP3    H137802   0.971   5.765  14.042 -0.1367  0.8712  2.4625
 5437TIP3    H237803   0.887   5.762  13.916  0.7422  2.1447  1.8161
 5438TIP3   OH237804   1.151   5.115  11.515 -0.2254 -0.3040  0.2004
 5438TIP3    H137805   1.130   5.049  11.581  1.5758  0.8553  2.0795
 5438TIP3    H237806   1.107   5.194  11.545  1.6193  0.5660  0.8174
 5439TIP3   OH237807   3.579   3.288   1.299 -0.1769  0.1161 -0.1077
 5439TIP3    H137808   3.499   3.275   1.350 -1.1596  3.4622 -0.5503
 5439TIP3    H237809   3.623   3.362   1.341  2.2621 -1.0477 -0.4429
 5440TIP3   OH237810   2.917   2.858  14.176  0.5206  0.0958 -0.1932
 5440TIP3    H137811   2.896   2.951  14.167  2.6441  0.5456 -1.1868
 5440TIP3    H237812   3.011   2.853  14.158  0.2840 -2.3749 -1.1287
 5441TIP3   OH237813   6.616   6.530  14.145 -0.0655 -0.2739 -0.0957
 5441TIP3    H137814   6.536   6.545  14.096 -0.9789 -0.4630  1.2948
 5441TIP3    H237815   6.635   6.437  14.131  0.6429  0.0493 -1.4502
 5442TIP3   OH237816   0.080   0.672  14.581 -0.1450 -0.2549  0.0294
 5442TIP3    H137817   0.160   0.696  14.628  0.0747  0.4081 -0.6802
 5442TIP3    H237818   0.012   0.674  14.649  0.3089 -0.0842  0.4880
 5443TIP3   OH237819   5.380   0.094   5.848 -0.6266  0.2744 -0.1290
 5443TIP3    H137820   5.380   0.002   5.876 -1.3618 -0.3489 -2.0165
 5443TIP3    H237821   5.469   0.109   5.816 -0.3785  0.3684  0.5833
 5444TIP3   OH237822   5.072   1.756   2.598  0.0511 -0.1175 -0.3782
 5444TIP3    H137823   5.117   1.742   2.515 -0.4220  0.8403 -0.8165
 5444TIP3    H237824   5.128   1.714   2.663  1.1200  0.2774 -1.0141
 5445TIP3   OH237825   0.140   2.286   0.314  0.9991  0.5451  0.1441
 5445TIP3    H137826   0.133   2.278   0.409  5.5043  2.1874  0.8581
 5445TIP3    H237827   0.160   2.198   0.284 -1.5775 -0.2213  0.4129
 5446TIP3   OH237828   1.956   1.129   5.967 -0.0146  0.1899 -0.8462
 5446TIP3    H137829   1.974   1.191   5.895 -1.0746 -0.1856 -1.4600
 5446TIP3    H237830   1.878   1.081   5.938 -1.6942  1.3802  1.4224
 5447TIP3   OH237831   4.237   2.224   1.198 -0.3482  0.0121 -0.1141
 5447TIP3    H137832   4.302   2.272   1.250 -0.6812 -1.6320  1.9423
 5447TIP3    H237833   4.241   2.265   1.112  1.2059  1.9922  0.8080
 5448TIP3   OH237834   4.587   6.372  15.583  0.6803 -0.0604 -0.1739
 5448TIP3    H137835   4.610   6.308  15.516  0.9399 -0.4668  0.2924
 5448TIP3    H237836   4.516   6.331  15.633  1.0907 -0.1471  0.3506
 5449TIP3   OH237837   0.328   0.592  13.117 -0.0339 -0.1538 -0.3776
 5449TIP3    H137838   0.284   0.677  13.109 -1.1798 -0.7029 -0.1403
 5449TIP3    H237839   0.337   0.579  13.211 -0.1127 -0.4132 -0.4056
 5450TIP3   OH237840   6.790   6.151  15.822  0.1362  0.0753  0.0832
 5450TIP3    H137841   6.771   6.057  15.826  3.2685 -0.6171  2.6336
 5450TIP3    H237842   6.710   6.193  15.853 -0.9349 -1.7794 -0.0064
 5451TIP3   OH237843   6.255   5.473  13.669 -0.0000 -0.2116 -0.3955
 5451TIP3    H137844   6.257   5.566  13.690  1.0334 -0.2050 -0.4966
 5451TIP3    H237845   6.227   5.470  13.578 -0.7103 -0.0434 -0.1901
 5452TIP3   OH237846   3.387   2.890   2.799 -0.4323 -0.0344  0.3692
 5452TIP3    H137847   3.432   2.840   2.867 -0.5860 -2.2157 -1.0338
 5452TIP3    H237848   3.458   2.932   2.750 -0.2833  0.9338  1.3789
 5453TIP3   OH237849   2.439   0.283   3.339  0.1871  0.1653 -0.2575
 5453TIP3    H137850   2.442   0.369   3.296 -1.0842  1.3446  1.8296
 5453TIP3    H237851   2.483   0.297   3.422 -0.4533 -1.0822  0.3183
 5454TIP3   OH237852   0.732   6.347  12.103 -0.2407  0.2115  0.0249
 5454TIP3    H137853   0.800   6.353  12.036 -0.5967 -1.5862 -0.5729
 5454TIP3    H237854   0.779   6.353  12.186  0.3701  1.1347 -0.3748
 5455TIP3   OH237855   0.463   3.610   1.068 -0.4690  0.4606 -0.5464
 5455TIP3    H137856   0.417   3.532   1.036  0.5059  0.2736 -1.5526
 5455TIP3    H237857   0.537   3.620   1.008 -0.3247  1.9067 -0.1548
 5456TIP3   OH237858   4.080   6.129   3.228 -0.1464 -0.3238 -0.8693
 5456TIP3    H137859   4.045   6.201   3.176 -1.2840 -0.1588  0.1010
 5456TIP3    H237860   4.023   6.055   3.209  0.3572 -0.6891 -1.0054
 5457TIP3   OH237861   2.868   1.725  11.464 -0.7132  0.3051  0.0047
 5457TIP3    H137862   2.777   1.755  11.465 -1.1178 -0.7324 -1.6380
 5457TIP3    H237863   2.886   1.699  11.555 -3.2489 -2.6841 -0.1709
 5458TIP3   OH237864   0.792   6.345  11.718 -0.1895  0.0559 -0.1873
 5458TIP3    H137865   0.834   6.379  11.797 -1.3198  0.4597  0.2595
 5458TIP3    H237866   0.860   6.292  11.676  0.5154  0.0539  0.9098
 5459TIP3   OH237867   1.115   3.094   1.642  0.3099 -0.4779 -0.3623
 5459TIP3    H137868   1.159   3.136   1.568 -1.1602  1.0017 -0.4468
 5459TIP3    H237869   1.140   3.147   1.718  0.6333 -1.1105 -0.0209
 5460TIP3   OH237870   1.648   0.375  12.226 -0.2455 -0.4024 -0.1220
 5460TIP3    H137871   1.645   0.468  12.250  0.6180 -0.5162  0.4484
 5460TIP3    H237872   1.560   0.342  12.245 -0.4613  0.2228 -0.0213
 5461TIP3   OH237873   3.923   5.818   2.655  0.3215  0.2341 -0.2345
 5461TIP3    H137874   3.931   5.817   2.750 -1.5724 -0.0780 -0.0457
 5461TIP3    H237875   4.005   5.858   2.624  1.4156 -0.6254  1.4504
 5462TIP3   OH237876   5.447   6.613  16.011 -0.1246 -0.1387  0.4048
 5462TIP3    H137877   5.409   6.693  15.976 -0.2450  0.3557  1.6427
 5462TIP3    H237878   5.425   6.546  15.946  0.2299  0.8614 -0.7977
 5463TIP3   OH237879   1.005   1.643   1.340  0.4742  0.0682 -0.1168
 5463TIP3    H137880   1.066   1.613   1.407  1.0793  1.6911  0.1124
 5463TIP3    H237881   0.932   1.680   1.390 -0.8679 -2.0489 -0.3833
 5464TIP3   OH237882   6.425   0.438   4.188  0.3308 -0.0728 -0.4913
 5464TIP3    H137883   6.475   0.485   4.121 -0.4858  0.1592 -0.9615
 5464TIP3    H237884   6.489   0.384   4.232  1.0373  0.3939 -0.9172
 5465TIP3   OH237885   4.488   0.172  12.299 -0.3043 -0.5164 -0.1781
 5465TIP3    H137886   4.580   0.163  12.324 -0.4539 -1.6708 -0.0236
 5465TIP3    H237887   4.489   0.234  12.226  0.6428 -0.9019 -0.5004
 5466TIP3   OH237888   0.042   6.636  14.250 -0.4958 -0.2695 -0.0409
 5466TIP3    H137889  -0.051   6.611  14.254 -0.4198 -0.5664 -0.1297
 5466TIP3    H237890   0.088   6.562  14.289 -0.0636 -1.3236 -2.4407
 5467TIP3   OH237891   1.915   2.596   3.128 -0.2197  0.4243 -0.0177
 5467TIP3    H137892   1.970   2.607   3.050 -1.1199 -2.3536 -1.1636
 5467TIP3    H237893   1.953   2.522   3.174 -2.5150 -1.1643 -0.4990
 5468TIP3   OH237894   6.061   3.645   3.612  0.2553 -0.3650  0.2049
 5468TIP3    H137895   6.031   3.667   3.525  0.9608  0.4524  0.1561
 5468TIP3    H237896   6.015   3.564   3.634  0.3177 -0.7557 -1.0491
 5469TIP3   OH237897   4.143   0.116   3.303  0.0877 -0.1662  0.1080
 5469TIP3    H137898   4.143   0.114   3.399 -0.4855  1.6004  0.1811
 5469TIP3    H237899   4.072   0.057   3.278 -1.3029  1.1098  0.8807
 5470TIP3   OH237900   1.098   1.764   2.822  0.3135 -0.2970  0.3240
 5470TIP3    H137901   1.189   1.782   2.843  0.5268  1.3320 -1.6854
 5470TIP3    H237902   1.100   1.723   2.736 -0.8364 -0.5842  0.4097
 5471TIP3   OH237903   4.348   1.961   1.893 -0.6883  0.3611  0.3521
 5471TIP3    H137904   4.311   1.873   1.890 -0.6561  0.2982  1.3506
 5471TIP3    H237905   4.374   1.980   1.803 -1.6672 -0.2315 -0.0652
 5472TIP3   OH237906   1.166   6.339  11.503  0.4627 -0.0304  0.4036
 5472TIP3    H137907   1.155   6.400  11.430 -0.4850 -2.6915 -1.8545
 5472TIP3    H237908   1.261   6.334  11.516  0.5614  1.8284  0.6423
 5473TIP3   OH237909   3.354   1.699   3.816 -0.8609  0.0588 -0.0318
 5473TIP3    H137910   3.322   1.616   3.781 -0.0585 -0.3842  0.2491
 5473TIP3    H237911   3.364   1.683   3.910 -0.5935  0.4318  0.0066
 5474TIP3   OH237912   0.731   5.551   2.267  0.6453  1.0730 -0.3096
 5474TIP3    H137913   0.702   5.460   2.268  0.3343  1.0813 -3.0670
 5474TIP3    H237914   0.659   5.600   2.306  1.2337  0.1250  2.1898
 5475TIP3   OH237915   2.366   2.173   0.758 -0.2161  0.1572  1.2254
 5475TIP3    H137916   2.455   2.155   0.790  0.0741  1.6957  1.3475
 5475TIP3    H237917   2.372   2.160   0.663 -0.1410 -0.7870  1.3506
 5476TIP3   OH237918   1.007   1.849   6.269  0.4923  0.8150 -0.2011
 5476TIP3    H137919   0.982   1.794   6.194  1.3372  1.3308 -0.8856
 5476TIP3    H237920   1.086   1.808   6.304  0.6825  1.1505 -0.2323
 5477TIP3   OH237921   3.534   5.280  13.645  0.2484 -0.0895  0.4818
 5477TIP3    H137922   3.509   5.334  13.719 -0.1798  1.9696 -1.0798
 5477TIP3    H237923   3.563   5.342  13.578 -0.0146 -1.7965 -1.3125
 5478TIP3   OH237924   5.049   3.744   0.082  0.1645 -0.3691  0.7997
 5478TIP3    H137925   4.983   3.718   0.018 -1.1147  0.0535  1.9022
 5478TIP3    H237926   5.089   3.661   0.111  0.6058 -0.5747 -0.3632
 5479TIP3   OH237927   3.273   1.799   6.488  0.3359 -0.3055 -0.3583
 5479TIP3    H137928   3.273   1.866   6.556 -0.4618  1.0092 -1.5920
 5479TIP3    H237929   3.222   1.727   6.524 -1.3081  0.9429 -0.0674
 5480TIP3   OH237930   4.436   1.847  14.253  0.1040  0.3201 -1.0294
 5480TIP3    H137931   4.396   1.881  14.173 -0.6553  0.5016 -0.5765
 5480TIP3    H237932   4.433   1.920  14.315 -0.5759 -0.2386 -0.3893
 5481TIP3   OH237933   5.489   0.410   5.249 -0.1215 -0.7069 -0.2331
 5481TIP3    H137934   5.511   0.502   5.262  1.5925 -0.7766 -2.2551
 5481TIP3    H237935   5.429   0.409   5.174  2.3255 -1.3765 -2.3181
 5482TIP3   OH237936   4.942   0.853   3.231 -0.1009 -0.8615 -0.3561
 5482TIP3    H137937   4.949   0.926   3.293  0.5012  0.1214 -1.5520
 5482TIP3    H237938   5.013   0.794   3.257  0.1261 -0.4756 -0.0877
 5483TIP3   OH237939   0.614   6.371  15.623  0.2618 -0.1806  0.0704
 5483TIP3    H137940   0.666   6.421  15.687  1.3441 -0.4171 -0.5930
 5483TIP3    H237941   0.575   6.301  15.675 -2.4276  2.0406  1.3154
 5484TIP3   OH237942   6.828   0.010   5.316 -0.2374 -0.3447 -0.0322
 5484TIP3    H137943   6.886  -0.067   5.318  1.1624  0.6467 -0.6170
 5484TIP3    H237944   6.829   0.037   5.224  3.1240  3.0831  0.7462
 5485TIP3   OH237945   4.432   3.844   0.309 -0.8566 -1.2265  0.9219
 5485TIP3    H137946   4.521   3.854   0.343 -1.1224  1.2841  1.1004
 5485TIP3    H237947   4.441   3.785   0.235  0.8888 -1.3707  1.2165
 5486TIP3   OH237948   6.141   0.787  16.942 -0.8128  0.6646 -0.2309
 5486TIP3    H137949   6.094   0.783  16.859  0.5432  2.1896 -1.1393
 5486TIP3    H237950   6.084   0.838  17.000 -1.8150 -0.5005 -0.1608
 5487TIP3   OH237951   6.323   3.122   4.839 -0.4537 -0.0031  0.4442
 5487TIP3    H137952   6.256   3.148   4.902  0.9706  3.5650  0.7165
 5487TIP3    H237953   6.394   3.088   4.893  0.4714  2.3707  0.8430
 5488TIP3   OH237954   1.369   0.864   1.069  0.2801  0.2013 -0.0589
 5488TIP3    H137955   1.289   0.846   1.019  0.6109 -0.5248 -0.3366
 5488TIP3    H237956   1.339   0.919   1.142 -0.4154  0.2283 -0.3531
 5489TIP3   OH237957   1.745   1.775   6.807  0.0509  0.6810 -0.3904
 5489TIP3    H137958   1.708   1.857   6.840  1.8645  1.4632 -0.1730
 5489TIP3    H237959   1.789   1.799   6.725 -0.4605 -0.3416 -0.9894
 5490TIP3   OH237960   2.839   0.014  13.329  0.6901  0.1330 -0.4480
 5490TIP3    H137961   2.835   0.004  13.234  0.3924 -0.4658 -0.3702
 5490TIP3    H237962   2.851  -0.074  13.363  0.5538  0.3155  0.0886
 5491TIP3   OH237963   0.206   1.560  14.801  0.1226 -0.3308  0.7814
 5491TIP3    H137964   0.121   1.559  14.844 -1.1656  0.5603 -1.6014
 5491TIP3    H237965   0.259   1.618  14.857 -1.4348  0.7153  1.2560
 5492TIP3   OH237966   5.187   3.361  10.649  0.1928  0.3752  0.7708
 5492TIP3    H137967   5.250   3.433  10.644  1.1108 -0.4926 -1.3633
 5492TIP3    H237968   5.224   3.292  10.594 -1.3314 -1.2261  1.6198
 5493TIP3   OH237969   3.838   4.907   2.997  0.2343  0.3981  0.2201
 5493TIP3    H137970   3.843   4.821   3.040 -0.3603  0.9675  1.4941
 5493TIP3    H237971   3.826   4.969   3.069 -0.5406  1.4382 -0.7648
 5494TIP3   OH237972   4.266   6.824  12.180  0.5429 -0.1489 -0.1501
 5494TIP3    H137973   4.314   6.904  12.204 -0.9787  0.2722  1.7254
 5494TIP3    H237974   4.176   6.853  12.168  0.1159 -1.4678 -0.2214
 5495TIP3   OH237975   5.757   3.107  12.980 -0.1098  0.2101 -0.5434
 5495TIP3    H137976   5.720   3.078  13.063 -1.1470  1.2603 -0.6148
 5495TIP3    H237977   5.779   3.026  12.934 -0.2401 -0.3961  0.4270
 5496TIP3   OH237978   1.696   6.184   4.637 -0.1633  0.1255 -0.0104
 5496TIP3    H137979   1.694   6.237   4.717 -1.4931  0.2022 -0.0765
 5496TIP3    H237980   1.713   6.095   4.668 -3.2895 -0.3459  0.7116
 5497TIP3   OH237981   2.600   3.615  12.456 -0.3288 -0.8617 -0.9457
 5497TIP3    H137982   2.534   3.568  12.404 -1.8572 -0.2552  0.3607
 5497TIP3    H237983   2.587   3.707  12.433  0.9437 -0.8289 -1.6035
 5498TIP3   OH237984   6.706   3.652  11.616 -0.6020 -0.1094 -0.1381
 5498TIP3    H137985   6.690   3.566  11.576 -1.6579 -0.9342  1.8506
 5498TIP3    H237986   6.655   3.713  11.564  0.1644 -0.6765 -1.5898
 5499TIP3   OH237987   0.651   2.380   5.300  0.0628  0.0879 -0.8440
 5499TIP3    H137988   0.666   2.301   5.351 -1.9271  1.2246  1.7299
 5499TIP3    H237989   0.579   2.357   5.241 -0.7892  0.0343  0.1816
 5500TIP3   OH237990   0.201   1.781  17.148  0.0279  0.4435 -0.0162
 5500TIP3    H137991   0.255   1.777  17.228  0.6740  2.0926 -0.3280
 5500TIP3    H237992   0.255   1.740  17.081  0.2186  0.6292  0.0224
 5501TIP3   OH237993   1.563   0.666   3.093 -0.6339 -0.1611  0.1057
 5501TIP3    H137994   1.481   0.634   3.131 -1.1077 -1.5108 -1.9087
 5501TIP3    H237995   1.632   0.617   3.137 -1.1482 -1.5060 -0.5531
 5502TIP3   OH237996   0.255   6.658   1.298  0.1169  0.5725  0.5998
 5502TIP3    H137997   0.215   6.582   1.339 -0.6102 -0.2474 -1.4768
 5502TIP3    H237998   0.182   6.719   1.284  0.3949  0.9377  0.7157
 5503TIP3   OH237999   3.242   4.370   0.810 -0.3976 -0.2850 -0.4339
 5503TIP3    H138000   3.177   4.426   0.851  0.2658  0.0705  0.1543
 5503TIP3    H238001   3.277   4.317   0.881  1.0234  0.5874 -0.4496
 5504TIP3   OH238002   2.738   5.778   0.157  0.0672 -0.5232 -0.0245
 5504TIP3    H138003   2.784   5.722   0.095  1.9945 -0.5450  1.3021
 5504TIP3    H238004   2.744   5.731   0.240 -2.4130 -0.4839  0.2440
 5505TIP3   OH238005   2.571   2.455  11.463 -0.2182  0.2750 -0.1820
 5505TIP3    H138006   2.649   2.429  11.414 -0.6063  0.5692 -0.9809
 5505TIP3    H238007   2.500   2.451  11.399 -1.1058 -1.2470  0.8504
 5506TIP3   OH238008   2.790   3.652  15.117 -0.1441  0.2873  0.0624
 5506TIP3    H138009   2.757   3.564  15.096 -1.8901  1.0281 -0.4962
 5506TIP3    H238010   2.827   3.643  15.205 -0.0289 -1.0611 -0.0950
 5507TIP3   OH238011   0.251   6.248   0.228 -0.4914 -0.1548  0.4549
 5507TIP3    H138012   0.250   6.329   0.176  0.6358 -1.3852 -1.6065
 5507TIP3    H238013   0.315   6.265   0.297 -1.2937  1.1773  0.9191
 5508TIP3   OH238014   0.952   6.090   1.517  0.3132 -0.4273  0.4574
 5508TIP3    H138015   0.940   5.997   1.532 -2.1010 -0.6779 -2.2392
 5508TIP3    H238016   0.904   6.133   1.588 -2.1162 -1.3544 -0.5310
 5509TIP3   OH238017   6.339   2.230   0.961 -0.1688  0.2882 -0.5989
 5509TIP3    H138018   6.413   2.192   0.915 -0.1308  0.0283 -0.3313
 5509TIP3    H238019   6.265   2.176   0.936 -0.3733  0.8750 -1.2882
 5510TIP3   OH238020   5.976   0.664  15.713  0.2368  1.0721 -0.2480
 5510TIP3    H138021   6.043   0.608  15.674 -0.3483  1.2036 -1.4940
 5510TIP3    H238022   6.009   0.753  15.702 -1.0011  1.3090 -2.7636
 5511TIP3   OH238023   3.144   1.768   5.165  0.1521 -0.3355 -0.5193
 5511TIP3    H138024   3.210   1.794   5.229  1.2096 -2.3713 -0.7133
 5511TIP3    H238025   3.129   1.675   5.182 -2.3664 -0.0362 -0.7893
 5512TIP3   OH238026   3.491   0.790   1.793  0.2643 -0.0119 -0.0535
 5512TIP3    H138027   3.496   0.791   1.698 -0.5453  0.5579 -0.1060
 5512TIP3    H238028   3.412   0.739   1.812  0.0980  0.3572  0.2786
 5513TIP3   OH238029   4.655   2.364   1.236  0.2815 -0.1821  0.3287
 5513TIP3    H138030   4.565   2.358   1.269 -0.5439 -0.6577 -1.8168
 5513TIP3    H238031   4.645   2.390   1.144  2.4557  1.7626  0.5531
 5514TIP3   OH238032   3.568   5.917   0.873 -0.1666 -0.6144  0.2101
 5514TIP3    H138033   3.473   5.916   0.863 -0.5373  0.0332  2.8243
 5514TIP3    H238034   3.594   5.825   0.865 -0.8795 -0.6946 -1.3291
 5515TIP3   OH238035   5.180   2.433   3.294 -0.0748 -0.0626  0.1451
 5515TIP3    H138036   5.172   2.416   3.201  0.8061  0.7618 -0.0942
 5515TIP3    H238037   5.221   2.354   3.329 -1.1326 -0.7032 -0.0169
 5516TIP3   OH238038   1.945   0.826   6.104  0.1040  0.2749  0.1985
 5516TIP3    H138039   1.866   0.868   6.069  0.3602  1.4125  0.9111
 5516TIP3    H238040   2.015   0.853   6.044  0.2486  0.8089  0.5924
 5517TIP3   OH238041   6.134   5.920  15.500  0.3279  0.1472  0.7991
 5517TIP3    H138042   6.173   5.896  15.584  2.4423  0.1476 -0.1252
 5517TIP3    H238043   6.080   5.996  15.520  2.2871  1.3345  1.8801
 5518TIP3   OH238044   0.929   6.645   1.654  0.1431 -0.0410 -0.3562
 5518TIP3    H138045   0.972   6.563   1.675  0.3896  0.2071  0.1363
 5518TIP3    H238046   0.918   6.643   1.559  2.1882  0.3188 -0.6700
 5519TIP3   OH238047   0.511   6.590  10.584 -0.2360  0.1101 -0.3282
 5519TIP3    H138048   0.569   6.590  10.659  1.0513 -1.7893 -1.2457
 5519TIP3    H238049   0.567   6.567  10.510 -1.6972  0.6281 -1.6616
 5520TIP3   OH238050   0.804   0.341  15.029 -0.0581 -0.0032 -0.1497
 5520TIP3    H138051   0.712   0.348  15.002  0.3476  2.7987 -1.1347
 5520TIP3    H238052   0.804   0.369  15.120 -0.0069  1.8035 -0.6689
 5521TIP3   OH238053   2.780   6.374   5.436  0.1265  0.5721 -0.0352
 5521TIP3    H138054   2.727   6.352   5.359 -1.0903 -0.8304  1.1395
 5521TIP3    H238055   2.718   6.370   5.509  1.7314 -0.6379  1.3459
 5522TIP3   OH238056   2.282   5.363  13.497 -0.3631 -0.1737  0.2802
 5522TIP3    H138057   2.285   5.285  13.551  1.0925 -0.3446  0.0070
 5522TIP3    H238058   2.350   5.420  13.533  1.6166 -0.8380 -2.0802
 5523TIP3   OH238059   4.721   4.504  15.269  0.1467 -0.2196  0.5402
 5523TIP3    H138060   4.682   4.465  15.347  0.3370  0.3930  0.9521
 5523TIP3    H238061   4.812   4.475  15.270  0.2906  0.2308  0.8517
 5524TIP3   OH238062   3.007   0.493   3.186 -0.1797 -1.0017  0.0376
 5524TIP3    H138063   3.019   0.482   3.092  2.4764  0.1651  0.1513
 5524TIP3    H238064   2.950   0.569   3.195  0.7938 -0.1749 -0.6460
 5525TIP3   OH238065   0.804   0.102  15.296  0.5321  0.2945 -0.0722
 5525TIP3    H138066   0.838   0.132  15.380 -0.7849  3.9108 -0.6401
 5525TIP3    H238067   0.816   0.177  15.238 -1.7607 -0.8397 -2.1959
 5526TIP3   OH238068   1.025   3.549   0.530  0.1042 -0.6946 -0.6056
 5526TIP3    H138069   0.943   3.598   0.533  1.5229  1.8319  2.1827
 5526TIP3    H238070   1.010   3.475   0.589 -0.5903 -1.0468 -1.2070
 5527TIP3   OH238071   6.006   6.714   1.785 -0.3070 -0.5858 -0.3836
 5527TIP3    H138072   5.938   6.668   1.737 -0.5171  0.0152 -0.6662
 5527TIP3    H238073   6.054   6.644   1.830 -2.1321 -0.9179  1.1952
 5528TIP3   OH238074   5.691   1.817  15.969  0.7393 -0.2052  0.1083
 5528TIP3    H138075   5.600   1.787  15.974  0.6630  0.1952  1.6867
 5528TIP3    H238076   5.716   1.804  15.878 -0.7846 -0.6636 -0.2655
 5529TIP3   OH238077   0.194   4.567  10.349 -0.1785 -0.2883 -0.7225
 5529TIP3    H138078   0.186   4.661  10.334  2.1100  0.1262  0.1851
 5529TIP3    H238079   0.111   4.541  10.388 -0.2696  1.6977  0.5208
 5530TIP3   OH238080   3.750   6.367  13.623 -0.2253 -0.8028  0.2020
 5530TIP3    H138081   3.785   6.309  13.691 -0.9951 -0.3656  0.9918
 5530TIP3    H238082   3.758   6.455  13.661  0.5833 -0.4084 -0.8278
 5531TIP3   OH238083   0.731   2.613  13.046 -0.2263 -0.3540 -0.7846
 5531TIP3    H138084   0.730   2.628  12.951 -1.1152 -1.0142 -0.8882
 5531TIP3    H238085   0.810   2.561  13.061 -0.2649 -0.5439 -1.2177
 5532TIP3   OH238086   5.468   0.966  14.964  0.2774  0.3263  0.1279
 5532TIP3    H138087   5.546   0.919  14.994  0.1769  1.4085  2.2818
 5532TIP3    H238088   5.502   1.028  14.899  0.7523 -1.0674 -1.0037
 5533TIP3   OH238089   0.698   3.555   1.213 -0.0649 -0.1933 -0.2761
 5533TIP3    H138090   0.620   3.555   1.156 -0.2897 -0.5743  0.0313
 5533TIP3    H238091   0.751   3.482   1.181  0.5453  0.5411 -0.9906
 5534TIP3   OH238092   6.719   4.524  13.286 -0.2700 -0.1818  0.4576
 5534TIP3    H138093   6.702   4.444  13.237 -0.0857 -0.4858  0.8867
 5534TIP3    H238094   6.693   4.595  13.226 -2.9749 -0.5949  1.0082
 5535TIP3   OH238095   6.697   3.539   0.984 -0.3578 -0.1987 -0.1301
 5535TIP3    H138096   6.660   3.625   0.967  0.3596 -0.0083 -0.7591
 5535TIP3    H238097   6.758   3.553   1.057  1.3088  0.2728 -1.5431
 5536TIP3   OH238098   2.753   1.070   6.998 -0.5404  0.4150  0.0653
 5536TIP3    H138099   2.714   0.983   7.010 -1.1253  0.7279  0.4932
 5536TIP3    H238100   2.815   1.059   6.927  0.5638 -0.7303  1.1548
 5537TIP3   OH238101   5.403   2.064  14.214 -0.1809 -0.3238  0.7680
 5537TIP3    H138102   5.475   2.127  14.218 -0.6247  0.2643 -0.2010
 5537TIP3    H238103   5.331   2.106  14.260 -0.4151 -0.1902  0.2920
 5538TIP3   OH238104   6.189   0.198  11.644 -0.3116 -0.1314 -1.1277
 5538TIP3    H138105   6.229   0.279  11.677  0.1964 -0.4699 -0.8992
 5538TIP3    H238106   6.264   0.140  11.630 -0.7915 -1.0785  0.1063
 5539TIP3   OH238107   5.896   6.114   2.719  0.4559  0.3666  0.0475
 5539TIP3    H138108   5.823   6.066   2.758  1.0067 -0.7237 -0.2324
 5539TIP3    H238109   5.946   6.048   2.672  0.5992  1.4040 -1.3272
 5540TIP3   OH238110   5.525   3.091   5.076 -0.6349  0.7123  0.3589
 5540TIP3    H138111   5.553   3.172   5.033 -1.3970  1.3600  1.0599
 5540TIP3    H238112   5.557   3.099   5.166 -0.4719  0.0954  0.3627
 5541TIP3   OH238113   6.543   0.775   1.423  0.0860 -0.1620 -0.2478
 5541TIP3    H138114   6.450   0.791   1.435  0.2294  1.5974 -1.1753
 5541TIP3    H238115   6.568   0.831   1.350  2.2142  0.6625  1.0226
 5542TIP3   OH238116   1.485   2.237   2.339  0.7697 -0.5982 -0.8379
 5542TIP3    H138117   1.482   2.325   2.301 -1.7664 -0.4446 -0.4452
 5542TIP3    H238118   1.546   2.189   2.283  2.6660  1.5337 -0.7174
 5543TIP3   OH238119   1.458   4.978   1.756 -0.3438 -0.1307 -0.0849
 5543TIP3    H138120   1.463   5.059   1.807  2.3614  0.0581 -0.4834
 5543TIP3    H238121   1.370   4.978   1.719 -0.7901  2.0714  0.8328
 5544TIP3   OH238122   2.627   5.880  14.344  0.2442  0.0629 -0.0805
 5544TIP3    H138123   2.701   5.877  14.283 -1.7700  0.0204 -2.7197
 5544TIP3    H238124   2.633   5.799  14.394  1.5462 -0.3082 -0.7950
 5545TIP3   OH238125   0.652   5.432   1.934 -0.3852  0.1438 -0.2589
 5545TIP3    H138126   0.565   5.423   1.894 -0.9586  2.0232  0.4779
 5545TIP3    H238127   0.635   5.472   2.019  1.1634 -0.1229  0.2007
 5546TIP3   OH238128   6.454   4.824  10.526  0.1820 -0.3007 -0.8735
 5546TIP3    H138129   6.363   4.825  10.556  0.1511 -0.6455 -0.9487
 5546TIP3    H238130   6.454   4.763  10.452  0.6810 -1.1835 -0.1740
 5547TIP3   OH238131   4.860   4.023   0.088 -0.1514  0.4761  0.3840
 5547TIP3    H138132   4.887   3.953   0.148  2.2050  1.4878  0.6095
 5547TIP3    H238133   4.844   4.099   0.144 -1.2127  0.5430  0.0091
 5548TIP3   OH238134   0.911   2.436  10.585  0.0324 -0.4620 -0.1344
 5548TIP3    H138135   0.824   2.465  10.611 -0.2141 -0.2792 -1.1563
 5548TIP3    H238136   0.971   2.494  10.632 -0.3793 -0.7844  0.8113
 5549TIP3   OH238137   4.332   5.614   0.065 -0.0755 -0.1253  0.1056
 5549TIP3    H138138   4.367   5.528   0.089  0.8527 -0.0314 -0.8411
 5549TIP3    H238139   4.353   5.624  -0.028 -3.1891 -0.3044 -0.7353
 5550TIP3   OH238140   5.641   3.995  14.400  0.7063  0.4146  0.3975
 5550TIP3    H138141   5.671   3.904  14.397  2.2036  0.8759  0.4353
 5550TIP3    H238142   5.698   4.041  14.339 -0.6191  1.1942 -0.2986
 5551TIP3   OH238143   0.233   5.740  12.985 -0.6980  0.0795 -0.2157
 5551TIP3    H138144   0.179   5.703  12.916 -2.4180  0.8473  0.6300
 5551TIP3    H238145   0.177   5.737  13.063  1.1638 -0.7644  1.1719
 5552TIP3   OH238146   2.530   1.013  12.715 -0.7306  0.4716 -0.2280
 5552TIP3    H138147   2.482   0.967  12.783  2.2845 -2.1565  0.3653
 5552TIP3    H238148   2.491   0.981  12.633 -0.3157 -1.3337  0.2310
 5553TIP3   OH238149   2.056   0.047   6.490  0.0069 -0.3320  1.1100
 5553TIP3    H138150   2.074   0.120   6.549  2.7213 -1.2022  1.5095
 5553TIP3    H238151   1.962   0.051   6.473  0.0094  3.0238  1.3751
 5554TIP3   OH238152   2.739   6.710  12.498 -0.5209  0.2817 -0.1052
 5554TIP3    H138153   2.670   6.774  12.516 -0.9191 -0.1795  0.0172
 5554TIP3    H238154   2.744   6.705  12.402 -0.2365  0.7646 -0.1178
 5555TIP3   OH238155   1.855   0.384   2.592 -0.6377 -0.1324 -0.3803
 5555TIP3    H138156   1.891   0.442   2.659 -0.2859  0.3061 -0.9456
 5555TIP3    H238157   1.824   0.442   2.523 -3.2886 -0.4221  0.4531
 5556TIP3   OH238158   6.359   0.314  16.236 -0.6552 -0.1661 -0.2452
 5556TIP3    H138159   6.310   0.396  16.244 -2.1234 -1.1502  1.4080
 5556TIP3    H238160   6.435   0.327  16.293 -0.9573 -0.0088  0.1266
 5557TIP3   OH238161   5.469   5.533  10.546  0.6405 -0.2384 -0.7406
 5557TIP3    H138162   5.534   5.499  10.608  0.4966 -0.1698 -0.5494
 5557TIP3    H238163   5.518   5.594  10.491  0.4645  0.8805  0.2920
 5558TIP3   OH238164   3.852   5.063   6.079  0.3279  0.3839  0.1459
 5558TIP3    H138165   3.928   5.055   6.021 -0.4270  0.0694 -0.8196
 5558TIP3    H238166   3.883   5.028   6.163  1.1987  0.1118 -0.2682
 5559TIP3   OH238167   3.062   6.348   2.837  0.1495  0.2685  0.1926
 5559TIP3    H138168   3.106   6.267   2.810 -2.5271 -1.5539  0.9841
 5559TIP3    H238169   3.078   6.409   2.764  1.4480 -1.2402 -0.8540
 5560TIP3   OH238170   6.178   5.752  16.258 -0.0521 -0.1738 -0.4066
 5560TIP3    H138171   6.130   5.832  16.282 -1.2077 -1.3832  1.5847
 5560TIP3    H238172   6.117   5.681  16.277  1.8323 -1.6804  0.2744
 5561TIP3   OH238173   3.600   0.464  10.592 -0.1772  0.0226 -0.3378
 5561TIP3    H138174   3.615   0.506  10.506 -1.7966 -0.3077 -0.8242
 5561TIP3    H238175   3.505   0.464  10.601 -0.0400 -0.3084  1.3095
 5562TIP3   OH238176   4.986   6.799  16.364 -0.1112 -0.4832  0.3965
 5562TIP3    H138177   4.940   6.878  16.393  0.5948 -0.3905  1.3206
 5562TIP3    H238178   4.916   6.739  16.338 -0.6219  0.7514 -1.1825
 5563TIP3   OH238179   4.993   1.908   2.835  0.0372 -0.3178  0.4112
 5563TIP3    H138180   5.061   1.899   2.903 -1.1335 -0.1800  1.6388
 5563TIP3    H238181   5.025   1.853   2.763  0.3943 -2.0985  1.8365
 5564TIP3   OH238182   3.690   0.872  13.858 -0.4909 -0.2317 -0.9415
 5564TIP3    H138183   3.716   0.923  13.781  0.9137 -1.6008 -1.4185
 5564TIP3    H238184   3.607   0.832  13.833  0.2447 -1.1435 -2.0090
 5565TIP3   OH238185   2.793   6.676  16.520  0.6915  0.1441  0.4942
 5565TIP3    H138186   2.794   6.596  16.573  2.7177  0.2573  0.7069
 5565TIP3    H238187   2.833   6.742  16.577  0.0757  1.0298 -0.0870
 5566TIP3   OH238188   4.720   5.464  15.832  0.5512  0.4157  0.5546
 5566TIP3    H138189   4.780   5.518  15.781 -0.0379  0.4408 -0.1424
 5566TIP3    H238190   4.634   5.481  15.793  0.0659  0.4910  1.6158
 5567TIP3   OH238191   3.000   1.151  16.159 -0.6028 -0.1115  0.2368
 5567TIP3    H138192   3.053   1.160  16.080 -1.8253  0.5701 -0.5194
 5567TIP3    H238193   2.925   1.099  16.133 -0.5723 -0.6623  1.1863
 5568TIP3   OH238194   4.469   3.615  14.235  0.4273  0.1005  0.0545
 5568TIP3    H138195   4.558   3.649  14.226  1.0850 -0.5652  3.1020
 5568TIP3    H238196   4.417   3.691  14.259  0.0811  0.4937 -1.7468
 5569TIP3   OH238197   5.409   3.587  14.474  0.2174 -0.7802 -0.3010
 5569TIP3    H138198   5.333   3.537  14.444  1.4934 -2.7395 -0.4381
 5569TIP3    H238199   5.483   3.530  14.457  1.8384  1.3749 -0.8951
 5570TIP3   OH238200   1.842   6.630   5.504  0.3692 -0.0159  0.1832
 5570TIP3    H138201   1.794   6.678   5.436  0.0441  0.3813  0.6841
 5570TIP3    H238202   1.800   6.656   5.586  1.3188  0.1953  0.6215
 5571TIP3   OH238203   3.770   2.488  14.745 -0.1688 -0.1752  0.4214
 5571TIP3    H138204   3.704   2.497  14.814 -0.8140  0.9088 -0.3060
 5571TIP3    H238205   3.816   2.571  14.744 -0.2200 -0.1443 -0.4978
 5572TIP3   OH238206   5.291   1.100   4.078  0.3668  0.4705 -0.5625
 5572TIP3    H138207   5.357   1.053   4.129 -0.8743 -0.8440 -0.1006
 5572TIP3    H238208   5.264   1.037   4.012 -1.1782  0.5927 -0.0742
 5573TIP3   OH238209   4.334   0.867  11.663  0.1490 -0.3076 -0.6587
 5573TIP3    H138210   4.411   0.922  11.673 -0.0307  0.0521 -1.1881
 5573TIP3    H238211   4.366   0.778  11.676  0.7580 -0.2069 -1.4190
 5574TIP3   OH238212   6.183   3.558  12.183 -0.4301  0.0536  0.3165
 5574TIP3    H138213   6.109   3.619  12.182 -0.7315 -0.3048  0.4161
 5574TIP3    H238214   6.181   3.517  12.096 -0.0295  0.4220  0.1339
 5575TIP3   OH238215   3.484   3.012  15.871  0.3666 -0.5610  0.1157
 5575TIP3    H138216   3.498   3.107  15.869  0.6317 -0.5730  1.0668
 5575TIP3    H238217   3.472   2.992  15.963  0.4148 -1.4720 -0.0741
 5576TIP3   OH238218   2.389   3.202  11.741 -0.4900 -0.4579 -0.5560
 5576TIP3    H138219   2.343   3.283  11.723 -0.0795  0.4383  2.0529
 5576TIP3    H238220   2.326   3.133  11.720 -1.0832  0.5223 -2.1418
 5577TIP3   OH238221   3.007   1.815  15.123  0.4166 -0.4880  0.5205
 5577TIP3    H138222   2.921   1.812  15.165  0.8830 -0.9220  1.4916
 5577TIP3    H238223   3.000   1.885  15.058 -0.3089  0.3082  1.4239
 5578TIP3   OH238224   5.975   4.763  16.865  0.1291 -0.4886 -0.5544
 5578TIP3    H138225   6.067   4.770  16.890 -0.2507 -1.4309  1.2902
 5578TIP3    H238226   5.931   4.727  16.943 -1.3544 -2.6518 -2.2590
 5579TIP3   OH238227   2.127   1.025   2.857 -0.2529 -0.1959 -0.1073
 5579TIP3    H138228   2.046   1.073   2.837 -0.6596 -0.8416 -0.0250
 5579TIP3    H238229   2.098   0.937   2.880  0.4288 -0.2432  0.6048
 5580TIP3   OH238230   1.896   3.552  15.232  0.2247 -0.0199  0.1760
 5580TIP3    H138231   1.925   3.601  15.155  1.5859  0.2173  0.7941
 5580TIP3    H238232   1.853   3.618  15.287 -0.0148 -0.0169 -0.0129
 5581TIP3   OH238233   4.189   4.749   1.803 -0.3241  0.4330  0.6340
 5581TIP3    H138234   4.281   4.766   1.782 -0.1583 -2.4862 -1.7359
 5581TIP3    H238235   4.150   4.725   1.719 -3.1316  0.9521  1.6946
 5582TIP3   OH238236   5.151   0.387  12.003 -0.2028 -0.6551 -0.4770
 5582TIP3    H138237   5.239   0.348  12.008 -0.4785 -1.2121  0.2031
 5582TIP3    H238238   5.135   0.421  12.091 -1.6895 -2.8628  0.1938
 5583TIP3   OH238239   2.111   6.328  16.897  0.0617 -0.5557 -0.5079
 5583TIP3    H138240   2.120   6.233  16.888  0.4954 -0.5755  0.0804
 5583TIP3    H238241   2.106   6.343  16.991  0.8598  0.0733 -0.5514
 5584TIP3   OH238242   4.760   2.746  15.019  0.4495 -0.2845  0.1583
 5584TIP3    H138243   4.761   2.840  15.001 -0.4112 -0.4001 -0.5148
 5584TIP3    H238244   4.689   2.734  15.082  0.9274 -0.4152  0.6812
 5585TIP3   OH238245   1.888   0.919   0.520 -0.4080 -0.7098  0.2962
 5585TIP3    H138246   1.824   0.933   0.450 -0.8472  0.5087  0.9236
 5585TIP3    H238247   1.863   0.981   0.589  2.4875  1.1996 -0.1736
 5586TIP3   OH238248   4.199   2.897   2.181  0.1978 -0.2756 -0.5116
 5586TIP3    H138249   4.136   2.962   2.211  0.0455 -1.2289  1.3884
 5586TIP3    H238250   4.150   2.845   2.117 -0.2149  0.4047 -0.7588
 5587TIP3   OH238251   2.632   6.300  12.695 -0.0126 -0.4836 -0.1002
 5587TIP3    H138252   2.553   6.326  12.741  0.2129  1.0349 -0.5250
 5587TIP3    H238253   2.687   6.260  12.762 -1.3120 -2.0640  0.0967
 5588TIP3   OH238254   4.778   1.623  12.085 -0.4771  0.7950  0.0296
 5588TIP3    H138255   4.721   1.626  12.162 -0.4327  0.1572  0.0874
 5588TIP3    H238256   4.742   1.553  12.031  0.9852 -0.4784  0.6519
 5589TIP3   OH238257   2.808   0.578   3.734  0.0597 -0.4701 -0.3113
 5589TIP3    H138258   2.763   0.499   3.704  0.0966 -0.9313  0.7906
 5589TIP3    H238259   2.879   0.591   3.672 -1.6100  0.3331 -2.1607
 5590TIP3   OH238260   0.266   5.170   0.311  0.1897 -0.4454  1.0300
 5590TIP3    H138261   0.198   5.106   0.331  0.3115 -0.4384  1.4707
 5590TIP3    H238262   0.256   5.187   0.217 -0.9618  0.1812  1.2452
 5591TIP3   OH238263   3.381   6.689  11.262 -0.3914 -0.0545 -0.2362
 5591TIP3    H138264   3.331   6.710  11.183  0.0167  0.6125 -0.3279
 5591TIP3    H238265   3.473   6.694  11.234 -0.1985  1.5940  0.6041
 5592TIP3   OH238266   4.037   5.329   2.143  0.7865 -0.1234  0.2012
 5592TIP3    H138267   4.083   5.252   2.109  1.7968 -0.1051  1.4775
 5592TIP3    H238268   3.983   5.295   2.215 -0.0694  0.1064 -0.3142
 5593TIP3   OH238269   1.077   3.563   3.520 -0.1368  0.1374  0.4133
 5593TIP3    H138270   1.123   3.581   3.437 -0.6698  3.1129  0.6756
 5593TIP3    H238271   1.144   3.576   3.587 -0.3389  0.3111  0.5794
 5594TIP3   OH238272   4.930   4.819  14.838 -0.4027 -0.2198 -0.0410
 5594TIP3    H138273   4.867   4.879  14.878 -0.0335 -0.3543  0.7424
 5594TIP3    H238274   4.895   4.804  14.750 -1.5741 -0.4646  0.4514
 5595TIP3   OH238275   2.976   5.652  15.191  0.1643  0.2359  0.5398
 5595TIP3    H138276   2.952   5.738  15.157  0.9401 -0.0520 -0.8167
 5595TIP3    H238277   2.898   5.622  15.238 -1.8452 -0.2256 -2.7836
 5596TIP3   OH238278   3.985   1.678   1.710 -0.6550 -0.6752 -0.3084
 5596TIP3    H138279   4.057   1.705   1.652  0.0521 -1.2317  0.2821
 5596TIP3    H238280   3.972   1.753   1.769 -1.8942  0.1955 -1.6385
 5597TIP3   OH238281   0.074   4.932   0.837  0.4085  0.2265 -0.3637
 5597TIP3    H138282   0.064   4.963   0.928  2.0832 -0.9186  0.2470
 5597TIP3    H238283  -0.003   4.877   0.822  0.3434  0.0671  0.5085
 5598TIP3   OH238284   5.386   0.212  15.934  0.2259 -0.1041 -0.0398
 5598TIP3    H138285   5.435   0.188  16.013  0.2831  0.3217  0.0531
 5598TIP3    H238286   5.331   0.285  15.961 -0.4377 -0.5509 -0.1571
 5599TIP3   OH238287   1.524   3.238   1.254  0.3147  0.1514  0.5421
 5599TIP3    H138288   1.570   3.155   1.243  2.3953  1.4505 -1.3657
 5599TIP3    H238289   1.591   3.299   1.284 -1.0661  1.2790  1.4363
 5600TIP3   OH238290   4.767   4.953   0.345 -0.1989  0.1371 -0.4181
 5600TIP3    H138291   4.789   4.860   0.352  0.2454  0.3442  1.3767
 5600TIP3    H238292   4.684   4.962   0.393 -0.0715  0.7081 -0.2948
 5601TIP3   OH238293   5.498   5.816   4.618 -0.0817 -0.2962 -0.7157
 5601TIP3    H138294   5.465   5.778   4.700 -4.0916 -0.3667 -2.1383
 5601TIP3    H238295   5.519   5.907   4.641 -1.9426 -0.0706  0.2964
 5602TIP3   OH238296   0.055   4.610  16.087  0.6671 -0.0015  0.3554
 5602TIP3    H138297   0.122   4.542  16.076  0.8260  0.0244  1.1016
 5602TIP3    H238298   0.106   4.689  16.106  0.4471  0.1677  0.2397
 5603TIP3   OH238299   5.491   1.680  12.358  0.1025  0.7114  0.0201
 5603TIP3    H138300   5.410   1.722  12.386 -1.3263 -3.0375  2.1585
 5603TIP3    H238301   5.543   1.671  12.439  0.3410 -1.4424 -0.3162
 5604TIP3   OH238302   4.249   1.159   0.650  0.3812 -0.2792  0.2296
 5604TIP3    H138303   4.261   1.133   0.559 -1.9858 -0.5344 -0.0711
 5604TIP3    H238304   4.243   1.254   0.648  1.4724 -0.1996  0.2968
 5605TIP3   OH238305   2.096   1.601   1.804 -0.1362 -0.4453  0.2449
 5605TIP3    H138306   2.113   1.572   1.715  0.0442 -0.9523  0.4372
 5605TIP3    H238307   2.158   1.551   1.858 -1.0872 -1.0975  0.7872
 5606TIP3   OH238308   1.578   6.471   1.628  0.1868  0.2005  0.5164
 5606TIP3    H138309   1.539   6.395   1.584  0.3383  0.7324 -0.5837
 5606TIP3    H238310   1.505   6.514   1.673 -0.8552  1.8160 -2.4161
 5607TIP3   OH238311   0.901   3.173  11.151  0.1258 -0.8223  0.8208
 5607TIP3    H138312   0.960   3.147  11.080  0.5135 -0.0877  0.8698
 5607TIP3    H238313   0.824   3.208  11.106  0.8395  0.7218  0.7252
 5608TIP3   OH238314   2.369   5.440  16.252 -0.0486 -0.2842  0.0425
 5608TIP3    H138315   2.453   5.428  16.296 -0.2268 -0.5053  0.3196
 5608TIP3    H238316   2.345   5.353  16.222 -0.5989 -0.3746  0.7186
 5609TIP3   OH238317   5.361   5.319  13.010  0.2967 -0.4531 -0.5134
 5609TIP3    H138318   5.330   5.401  13.048  2.2723 -0.0600  0.4056
 5609TIP3    H238319   5.349   5.254  13.079 -0.4102 -0.7468 -0.9078
 5610TIP3   OH238320   4.648   1.129  13.835 -0.3299  0.1397  0.0120
 5610TIP3    H138321   4.610   1.076  13.765 -0.6275  1.9532 -1.2320
 5610TIP3    H238322   4.710   1.187  13.791  1.5008 -0.5023  1.6058
 5611TIP3   OH238323   0.948   0.561   3.982 -0.0405  0.0821  0.0812
 5611TIP3    H138324   0.975   0.530   4.068  0.2292 -1.1949 -0.4400
 5611TIP3    H238325   0.871   0.615   3.999  0.3898  0.3841  1.1765
 5612TIP3   OH238326   5.957   5.195  14.190 -0.0483 -0.5993 -0.7342
 5612TIP3    H138327   6.026   5.230  14.134  0.6351 -0.8553 -0.0589
 5612TIP3    H238328   5.975   5.101  14.195 -0.0308 -0.5623  0.0113
 5613TIP3   OH238329   4.408   1.713   4.535  0.1694 -0.4081 -0.5228
 5613TIP3    H138330   4.328   1.759   4.510 -0.6452 -1.6970 -0.3918
 5613TIP3    H238331   4.418   1.645   4.468 -0.4703 -2.1034  1.0239
 5614TIP3   OH238332   1.533   5.382  14.655 -0.3759 -0.3844 -0.4335
 5614TIP3    H138333   1.565   5.354  14.741  2.2808 -0.1483 -1.2860
 5614TIP3    H238334   1.468   5.316  14.631  0.7523 -1.9379  0.6119
 5615TIP3   OH238335   5.949   6.716   2.177  0.0703 -1.1985  0.0702
 5615TIP3    H138336   6.022   6.761   2.133 -0.2879 -1.4276 -0.7632
 5615TIP3    H238337   5.910   6.784   2.232 -0.3158 -0.5279 -0.9959
 5616TIP3   OH238338   2.965   3.659   0.113 -0.1075  0.0380  0.0592
 5616TIP3    H138339   2.880   3.639   0.074  0.5244  1.3122 -2.1012
 5616TIP3    H238340   2.963   3.753   0.128  1.0091  0.1251 -0.2785
 5617TIP3   OH238341   3.934   6.121  14.515 -0.2897 -0.2033  0.3704
 5617TIP3    H138342   3.968   6.040  14.478  0.8183  0.3068  0.2437
 5617TIP3    H238343   3.839   6.114  14.503 -0.1377 -1.0370 -0.5342
 5618TIP3   OH238344   1.731   4.354  16.618  0.1492  0.7860  0.3403
 5618TIP3    H138345   1.651   4.331  16.571  0.6133 -1.3954  0.4934
 5618TIP3    H238346   1.799   4.352  16.552  0.6457 -1.3070  0.8250
 5619TIP3   OH238347   0.241   1.892  14.340 -0.3122  0.5110 -0.2796
 5619TIP3    H138348   0.311   1.839  14.376  1.2560  2.3252 -0.5152
 5619TIP3    H238349   0.169   1.883  14.403  0.8062  0.1249  0.9797
 5620TIP3   OH238350   1.099   0.981  15.464 -0.0907  0.7148  0.5954
 5620TIP3    H138351   1.034   1.040  15.504 -0.7024 -0.1120  0.8359
 5620TIP3    H238352   1.086   0.991  15.370  0.0043  1.1798  0.6295
 5621TIP3   OH238353   1.975   4.567   3.995  0.1967  0.2449 -0.0240
 5621TIP3    H138354   1.963   4.479   4.030 -0.5578  0.9389  1.5535
 5621TIP3    H238355   2.051   4.601   4.043  0.6998  0.3442 -0.8747
 5622TIP3   OH238356   6.055   3.978  12.919 -0.0530 -0.5652  0.2764
 5622TIP3    H138357   6.136   3.928  12.907  1.7116  1.9697  0.8219
 5622TIP3    H238358   6.051   4.035  12.842 -0.5171  0.3247  0.9374
 5623TIP3   OH238359   4.123   6.421   4.109 -0.1033 -0.8206 -0.1184
 5623TIP3    H138360   4.076   6.367   4.045  0.1295 -1.3575  0.1623
 5623TIP3    H238361   4.122   6.509   4.070 -1.0421 -0.8871 -0.2736
 5624TIP3   OH238362   2.903   2.245   5.383 -0.1944 -0.0855  0.0220
 5624TIP3    H138363   2.899   2.152   5.407 -0.7892 -0.2525 -0.7182
 5624TIP3    H238364   2.992   2.257   5.349  0.5180  0.0467  1.8014
 5625TIP3   OH238365   2.161   2.533   1.338 -0.1749 -0.1495  0.5649
 5625TIP3    H138366   2.069   2.541   1.364 -0.3770  2.2007 -0.5655
 5625TIP3    H238367   2.180   2.440   1.344 -2.9463 -0.8567 -0.1427
 5626TIP3   OH238368   5.361   1.145   3.139  0.3489  0.4183  0.9896
 5626TIP3    H138369   5.411   1.212   3.093 -2.1872  1.9361  0.2391
 5626TIP3    H238370   5.320   1.093   3.070 -1.3614  1.0309  1.4902
 5627TIP3   OH238371   2.495   1.442   0.040  0.2492 -0.2525 -0.4925
 5627TIP3    H138372   2.532   1.354   0.031  0.2575 -0.4275  1.0124
 5627TIP3    H238373   2.553   1.486   0.102  1.1012  1.3365 -2.2864
 5628TIP3   OH238374   5.188   1.233  10.936 -0.8886  0.2980 -0.5662
 5628TIP3    H138375   5.240   1.308  10.906  0.1458 -0.0592  0.2322
 5628TIP3    H238376   5.133   1.210  10.862 -1.5501  2.1185 -0.6771
 5629TIP3   OH238377   0.978   0.890  13.018 -0.1511  0.3396  0.2606
 5629TIP3    H138378   1.043   0.819  13.018 -1.7626 -1.2354 -1.2404
 5629TIP3    H238379   0.986   0.930  12.931 -0.2480  1.0660  0.5788
 5630TIP3   OH238380   6.372   6.484   0.358  0.0859 -0.3196 -0.7214
 5630TIP3    H138381   6.292   6.480   0.306  0.3477 -2.0658 -1.0599
 5630TIP3    H238382   6.343   6.508   0.446 -0.4471  1.9564 -1.4441
 5631TIP3   OH238383   2.256   0.848   4.748  0.2076 -0.0293 -0.1361
 5631TIP3    H138384   2.331   0.907   4.759  1.3491 -1.2773 -0.8830
 5631TIP3    H238385   2.264   0.786   4.821  1.2828 -1.5313 -1.4451
 5632TIP3   OH238386   1.560   2.294  15.219  0.2430 -0.4909 -0.4686
 5632TIP3    H138387   1.588   2.306  15.310  0.7788  0.5193 -0.7620
 5632TIP3    H238388   1.473   2.334  15.215 -0.0177 -1.0267 -0.2734
 5633TIP3   OH238389   0.231   1.552   3.136 -0.3975  0.5756  0.1804
 5633TIP3    H138390   0.197   1.634   3.170  0.0751  0.5711  0.6885
 5633TIP3    H238391   0.190   1.485   3.190 -1.6975  0.3847 -0.9951
 5634TIP3   OH238392   2.174   3.919   3.644 -0.0776  0.0118  0.0203
 5634TIP3    H138393   2.197   4.000   3.598  0.3374  0.6034  1.2131
 5634TIP3    H238394   2.251   3.863   3.633  0.9762  1.0050  1.8174
 5635TIP3   OH238395   0.456   4.123  14.202 -0.2630  0.1008 -0.1382
 5635TIP3    H138396   0.428   4.032  14.206  0.5775 -0.1630 -0.0202
 5635TIP3    H238397   0.378   4.171  14.175 -0.2675 -0.8971 -2.1304
 5636TIP3   OH238398   4.813   6.236  11.907 -0.2683  0.8098 -0.2143
 5636TIP3    H138399   4.838   6.158  11.857  0.2018  0.2912  0.7781
 5636TIP3    H238400   4.849   6.309  11.857  0.1751  0.3065 -0.6490
 5637TIP3   OH238401   6.334   3.713  15.224 -0.0216 -0.1439  0.1586
 5637TIP3    H138402   6.253   3.686  15.181 -0.0255 -1.0575  0.7316
 5637TIP3    H238403   6.358   3.640  15.280 -0.8842  1.5768  3.0029
 5638TIP3   OH238404   1.559   4.041   3.601  0.3028  0.5463  0.2696
 5638TIP3    H138405   1.555   4.016   3.509 -0.4913  1.3056  0.0856
 5638TIP3    H238406   1.653   4.046   3.621  0.4887 -0.7728 -0.1639
 5639TIP3   OH238407   5.354   0.787   2.880  0.5152  0.4766 -0.3629
 5639TIP3    H138408   5.392   0.733   2.811  0.2721  0.7672 -0.7257
 5639TIP3    H238409   5.353   0.730   2.957  0.6158  0.0908 -0.6433
 5640TIP3   OH238410   3.465   2.574   5.763 -0.3304 -0.1706 -0.1884
 5640TIP3    H138411   3.417   2.603   5.841 -1.0098 -0.4858 -0.4777
 5640TIP3    H238412   3.423   2.491   5.738  1.9411 -1.7923  0.9758
 5641TIP3   OH238413   4.819   5.323   4.499  0.0082  0.1746 -0.0888
 5641TIP3    H138414   4.735   5.360   4.526 -0.4864  0.0355 -1.3377
 5641TIP3    H238415   4.796   5.259   4.431  1.0673 -0.4175  0.0831
 5642TIP3   OH238416   2.085   1.755   4.867  0.0186  0.6728  0.2318
 5642TIP3    H138417   2.068   1.842   4.905 -1.9848  0.9171 -1.0911
 5642TIP3    H238418   2.167   1.766   4.819  0.4906  1.4448  1.1667
 5643TIP3   OH238419   2.445   6.456  15.086 -0.3215 -0.2400  0.0658
 5643TIP3    H138420   2.369   6.459  15.027 -0.0539 -1.3600 -0.3501
 5643TIP3    H238421   2.513   6.411  15.037  0.4825  0.3496  0.6060
 5644TIP3   OH238422   2.867   4.817  15.571  0.0069 -0.4399 -0.0794
 5644TIP3    H138423   2.820   4.836  15.490 -0.3854 -1.1341 -0.0188
 5644TIP3    H238424   2.920   4.741  15.551 -1.6359 -1.9044  0.8707
 5645TIP3   OH238425   3.798   4.325   5.466 -0.4162 -0.1172  0.0753
 5645TIP3    H138426   3.853   4.388   5.511  0.0455 -1.3389  1.2543
 5645TIP3    H238427   3.709   4.361   5.473 -0.2042  0.2220  1.0346
 5646TIP3   OH238428   6.749   2.443   0.249 -0.4996 -0.0239  0.0967
 5646TIP3    H138429   6.706   2.360   0.269 -1.2678  0.3819  0.1844
 5646TIP3    H238430   6.840   2.431   0.278  0.5899 -2.2701 -3.6216
 5647TIP3   OH238431   5.539   3.160  14.191 -0.2859  0.1438 -0.4331
 5647TIP3    H138432   5.477   3.188  14.257  0.8537  0.3384  0.5980
 5647TIP3    H238433   5.515   3.209  14.113 -1.4440  0.1674 -0.0800
 5648TIP3   OH238434   5.030   1.577  11.794 -0.4729  0.1059 -0.3355
 5648TIP3    H138435   5.105   1.604  11.741 -1.1206 -0.4567 -1.5883
 5648TIP3    H238436   5.064   1.507  11.849  0.5967  1.7203  1.1678
 5649TIP3   OH238437   1.605   3.392   4.911  0.4508 -0.1446  0.3842
 5649TIP3    H138438   1.594   3.483   4.936 -0.8249 -0.5713  1.4912
 5649TIP3    H238439   1.522   3.350   4.933  0.9370 -1.5393 -0.2752
 5650TIP3   OH238440   6.249   0.497   6.241  0.4761  0.6383  0.9275
 5650TIP3    H138441   6.261   0.480   6.147  1.1751  1.3475  0.8836
 5650TIP3    H238442   6.154   0.494   6.253  0.3738  0.6125  0.1848
 5651TIP3   OH238443   1.555   3.307   3.029  0.3842  0.6326  0.3275
 5651TIP3    H138444   1.521   3.359   3.101  2.4472  1.4445  0.7954
 5651TIP3    H238445   1.588   3.228   3.071  2.2094  1.4051  0.4352
 5652TIP3   OH238446   5.585   4.421  12.440 -0.4462 -0.7219 -0.5333
 5652TIP3    H138447   5.646   4.385  12.376 -1.3458 -2.3067 -0.5478
 5652TIP3    H238448   5.500   4.423  12.395 -0.4540  1.5686 -0.5615
 5653TIP3   OH238449   0.358   6.246  14.392 -0.4138 -0.2512  0.1996
 5653TIP3    H138450   0.453   6.251  14.403 -0.6195  0.0296  2.2837
 5653TIP3    H238451   0.337   6.153  14.404 -0.6500  0.0663  2.9935
 5654TIP3   OH238452   3.224   1.560   2.270  0.0245 -0.0165 -0.0316
 5654TIP3    H138453   3.244   1.510   2.191  2.4176 -0.1178  0.5499
 5654TIP3    H238454   3.222   1.495   2.340  0.6313  0.3685  0.3589
 5655TIP3   OH238455   0.317   5.697   5.500  0.9726  0.2314  0.4942
 5655TIP3    H138456   0.369   5.623   5.530  2.3015 -0.4680 -3.0132
 5655TIP3    H238457   0.378   5.751   5.449 -1.3489 -0.1450 -3.0585
 5656TIP3   OH238458   1.878   5.189  11.046  0.6047  0.5049  0.1794
 5656TIP3    H138459   1.802   5.157  10.998  0.5252 -0.1579  0.7295
 5656TIP3    H238460   1.953   5.150  11.000  0.4672 -1.3729  1.4567
 5657TIP3   OH238461   5.390   6.303   3.331 -0.2021 -0.0856 -0.1612
 5657TIP3    H138462   5.403   6.266   3.418  1.4078  1.5703  0.3721
 5657TIP3    H238463   5.414   6.233   3.271  0.2162 -0.7484  0.7650
 5658TIP3   OH238464   5.873   2.665   5.868 -0.2110  0.4209 -0.0014
 5658TIP3    H138465   5.868   2.697   5.958 -1.8452 -0.4185  0.2446
 5658TIP3    H238466   5.876   2.570   5.877 -2.5773  0.2081 -0.8304
 5659TIP3   OH238467   0.410   6.193  13.535  0.3677  0.0413 -0.4347
 5659TIP3    H138468   0.435   6.102  13.521  1.8471  0.5890 -1.5762
 5659TIP3    H238469   0.438   6.212  13.625  0.5948 -0.4649 -0.3958
 5660TIP3   OH238470   0.206   5.144  12.637 -0.5150 -0.3884  0.2768
 5660TIP3    H138471   0.283   5.119  12.689  1.9016 -0.1529 -2.8570
 5660TIP3    H238472   0.197   5.238  12.651  1.7781  0.1952 -1.5385
 5661TIP3   OH238473   2.472   3.314  15.816  0.2588 -0.2173  0.3362
 5661TIP3    H138474   2.496   3.367  15.741  0.8512 -1.6529 -0.5348
 5661TIP3    H238475   2.396   3.357  15.853  0.9741  1.4539 -0.0691
 5662TIP3   OH238476   0.475   6.785  11.262 -0.8018  0.0875 -0.4926
 5662TIP3    H138477   0.465   6.720  11.332  1.7546  1.3092  1.2158
 5662TIP3    H238478   0.535   6.744  11.200  0.5239  0.5579  0.4052
 5663TIP3   OH238479   1.661   3.588   2.457  0.5712 -0.0601 -0.6969
 5663TIP3    H138480   1.713   3.668   2.447  0.2807  0.1789 -0.3443
 5663TIP3    H238481   1.708   3.537   2.523  1.1150 -0.4859 -1.4019
 5664TIP3   OH238482   2.082   4.651   0.490  0.1731  0.1804 -0.1540
 5664TIP3    H138483   2.033   4.674   0.570 -0.1362  1.7283 -0.7640
 5664TIP3    H238484   2.087   4.733   0.441  0.4241 -0.7372 -1.6992
 5665TIP3   OH238485   1.280   2.373  17.001 -0.4454  0.6670  0.3016
 5665TIP3    H138486   1.220   2.368  17.075  0.7996 -0.2295  1.3187
 5665TIP3    H238487   1.304   2.465  16.996 -0.9717  0.8285  0.6676
 5666TIP3   OH238488   1.706   0.893   0.121  0.0554 -0.8131 -0.2477
 5666TIP3    H138489   1.793   0.932   0.113 -0.0173 -0.8758 -1.5422
 5666TIP3    H238490   1.676   0.919   0.208  1.3101 -0.6914  0.1683
 5667TIP3   OH238491   4.096   1.245  16.284  0.6617  0.2031 -0.0246
 5667TIP3    H138492   4.136   1.261  16.369  0.5832 -0.7340  0.2050
 5667TIP3    H238493   4.165   1.268  16.221  0.7687  0.7653  0.2929
 5668TIP3   OH238494   0.855   2.157  15.622  0.4140  0.0057  0.3180
 5668TIP3    H138495   0.828   2.231  15.567 -1.0724  0.3642  1.4829
 5668TIP3    H238496   0.898   2.198  15.697  0.7360 -0.3851  0.3494
 5669TIP3   OH238497   2.924   3.378  12.688 -0.2773 -0.3746  0.0507
 5669TIP3    H138498   2.910   3.407  12.598 -1.3967 -0.4657  0.1734
 5669TIP3    H238499   2.884   3.291  12.691 -2.2364  0.4977  1.1583
 5670TIP3   OH238500   2.941   0.651   5.482 -0.0629  0.3514 -0.7294
 5670TIP3    H138501   2.891   0.577   5.515 -1.9424  1.9329  0.1795
 5670TIP3    H238502   2.906   0.667   5.394 -0.2957  0.6971 -0.5768
 5671TIP3   OH238503   1.395   3.342   1.055  0.0055  0.3015 -0.0835
 5671TIP3    H138504   1.431   3.299   1.133  1.2792 -0.3226 -0.9711
 5671TIP3    H238505   1.314   3.295   1.036  0.3980 -0.4676  0.0825
 5672TIP3   OH238506   5.163   3.547   0.711 -0.1190  0.7852 -0.0831
 5672TIP3    H138507   5.112   3.587   0.781 -0.1545  0.8381 -0.1400
 5672TIP3    H238508   5.249   3.589   0.717  0.0363  0.4241  0.2569
 5673TIP3   OH238509   0.704   3.998   5.050 -0.0922  0.1367 -0.2748
 5673TIP3    H138510   0.713   3.904   5.034  1.9190 -0.0043  1.1973
 5673TIP3    H238511   0.671   4.004   5.140  1.1392  0.8031  0.1576
 5674TIP3   OH238512   2.362   0.278   6.845 -0.5589  0.0687 -0.2401
 5674TIP3    H138513   2.387   0.322   6.763 -0.1492 -0.4698 -0.4077
 5674TIP3    H238514   2.353   0.349   6.908  1.2920  0.3134 -0.1926
 5675TIP3   OH238515   1.519   4.367  14.789 -0.4993  0.2809  0.3221
 5675TIP3    H138516   1.474   4.289  14.822  0.1059 -1.1678 -2.0751
 5675TIP3    H238517   1.573   4.335  14.717  1.7554  2.5249  0.8839
 5676TIP3   OH238518   3.168   2.733   0.375 -0.1198  0.3767  0.1872
 5676TIP3    H138519   3.150   2.656   0.429 -0.7873  0.0641 -0.4641
 5676TIP3    H238520   3.153   2.703   0.285 -0.3512  1.2609 -0.0755
 5677TIP3   OH238521   5.542   6.675  16.643 -0.1209  0.0023 -0.4169
 5677TIP3    H138522   5.512   6.698  16.555  0.1866  0.5869 -0.3728
 5677TIP3    H238523   5.637   6.663  16.634  0.1825  1.7039  0.1514
 5678TIP3   OH238524   2.492   0.541  16.096  0.1846  0.2796  0.3916
 5678TIP3    H138525   2.489   0.487  16.016  0.9880  2.6724 -1.3738
 5678TIP3    H238526   2.583   0.533  16.126 -0.6659 -2.6594  2.7341
 5679TIP3   OH238527   6.497   0.562  14.725 -0.3286  0.2514  0.1422
 5679TIP3    H138528   6.564   0.524  14.669 -0.9533 -0.4001 -0.1917
 5679TIP3    H238529   6.522   0.536  14.814  1.7027  2.8599  0.4332
 5680TIP3   OH238530   0.003   5.390  13.600 -0.6044 -0.0574  0.3523
 5680TIP3    H138531   0.064   5.423  13.665 -1.8553  0.2478  1.4189
 5680TIP3    H238532  -0.006   5.297  13.621 -2.2855  0.3759  1.7369
 5681TIP3   OH238533   3.795   6.001  15.813 -0.0941 -0.4243 -0.2756
 5681TIP3    H138534   3.861   6.063  15.844 -0.1717 -0.4111 -0.1349
 5681TIP3    H238535   3.771   6.033  15.726 -0.8939  0.3525  0.2167
 5682TIP3   OH238536   1.912   5.933  14.366 -0.1773  0.1522 -0.4346
 5682TIP3    H138537   1.904   5.923  14.461 -1.9178 -0.5269 -0.6076
 5682TIP3    H238538   1.976   5.867  14.341  1.2159  1.1512  0.3780
 5683TIP3   OH238539   2.126   6.778  11.770  0.1377 -0.1769 -0.2334
 5683TIP3    H138540   2.100   6.819  11.687  1.3589  0.6067 -0.2459
 5683TIP3    H238541   2.182   6.842  11.812 -0.9824 -0.2897  1.5347
 5684TIP3   OH238542   3.670   0.372  17.163 -0.7299  0.2748 -0.6827
 5684TIP3    H138543   3.757   0.335  17.149  0.7494  2.8317  0.8664
 5684TIP3    H238544   3.652   0.423  17.084 -0.6488  0.0419 -0.8507
 5685TIP3   OH238545   1.978   6.003   1.732 -0.2335  0.1254 -0.6235
 5685TIP3    H138546   1.973   6.045   1.645  0.4455 -0.7664 -1.1081
 5685TIP3    H238547   2.044   6.055   1.779 -1.6028  1.4850 -0.1144
 5686TIP3   OH238548   6.777   3.103   1.089 -0.4528  0.1474  0.0467
 5686TIP3    H138549   6.691   3.124   1.054 -0.3676 -1.8029 -1.4865
 5686TIP3    H238550   6.763   3.092   1.183 -1.4491  1.7675  0.1292
 5687TIP3   OH238551   5.005   2.792  12.271  0.1323  0.4723 -0.2585
 5687TIP3    H138552   5.055   2.794  12.189  0.4043 -0.2357 -0.1126
 5687TIP3    H238553   5.058   2.739  12.330 -1.2658 -1.1756 -0.4173
 5688TIP3   OH238554   4.174   0.909  13.261 -0.3284  0.2153  0.5191
 5688TIP3    H138555   4.209   0.909  13.172  0.7651 -1.9561  0.8881
 5688TIP3    H238556   4.093   0.858  13.254  0.8010 -1.7575  1.0626
 5689TIP3   OH238557   3.114   5.780   2.355 -0.1051 -0.0588  0.0457
 5689TIP3    H138558   3.041   5.842   2.364 -0.6136 -0.4893 -0.9037
 5689TIP3    H238559   3.190   5.834   2.336 -0.4912  0.3041 -0.4957
 5690TIP3   OH238560   4.920   1.405  10.861  0.0112 -0.2385 -0.1526
 5690TIP3    H138561   4.940   1.373  10.949 -0.2723 -2.9598 -0.9779
 5690TIP3    H238562   4.863   1.481  10.876  2.7959  1.6394  2.0107
 5691TIP3   OH238563   6.169   3.932  12.088 -0.1025 -0.1215  0.1514
 5691TIP3    H138564   6.180   4.024  12.065  3.8881  0.0082  1.7906
 5691TIP3    H238565   6.231   3.886  12.031 -0.4742 -1.5268  0.8403
 5692TIP3   OH238566   5.301   3.266   3.610 -0.0081 -0.2338 -0.0846
 5692TIP3    H138567   5.262   3.243   3.526  0.4740 -0.9238 -0.1350
 5692TIP3    H238568   5.381   3.213   3.615  0.4906  0.5323  0.3716
 5693TIP3   OH238569   6.361   6.182  15.689  0.1793  0.0079 -0.0702
 5693TIP3    H138570   6.364   6.088  15.706  2.3067 -0.0996 -0.8218
 5693TIP3    H238571   6.296   6.192  15.619 -1.0767 -0.6935  0.9450
 5694TIP3   OH238572   0.300   1.375   2.348 -0.1160  0.1211  0.0696
 5694TIP3    H138573   0.267   1.325   2.423 -0.1558  0.1961  0.1022
 5694TIP3    H238574   0.378   1.420   2.380  0.6969 -0.9635 -0.3192
 5695TIP3   OH238575   3.596   6.465   2.432 -0.0162  0.1488 -0.2245
 5695TIP3    H138576   3.533   6.452   2.361 -0.1484 -2.9066  0.3100
 5695TIP3    H238577   3.679   6.431   2.397  0.2378 -0.1294  0.6185
 5696TIP3   OH238578   0.721   6.469  13.087 -0.4832 -0.4508 -0.1332
 5696TIP3    H138579   0.806   6.426  13.101 -1.0024 -1.4877 -0.0687
 5696TIP3    H238580   0.670   6.449  13.165 -0.2704  1.5331  0.5612
 5697TIP3   OH238581   1.515   6.150   6.741 -0.4828 -0.1978  0.4168
 5697TIP3    H138582   1.552   6.072   6.699 -0.6606 -0.2667  0.3880
 5697TIP3    H238583   1.426   6.156   6.707 -0.4426  0.0635  0.3624
 5698TIP3   OH238584   6.392   0.178   6.166  0.4382  0.4295 -0.0482
 5698TIP3    H138585   6.398   0.087   6.136  1.7006  0.7293 -0.8154
 5698TIP3    H238586   6.391   0.229   6.085 -1.0755  1.0740  0.3632
 5699TIP3   OH238587   3.820   4.038   0.734 -0.7004  0.5774 -0.4412
 5699TIP3    H138588   3.798   3.974   0.666  0.1451  1.9523 -2.1096
 5699TIP3    H238589   3.743   4.094   0.741 -0.1238  1.6013 -1.7398
 5700TIP3   OH238590   1.185   5.039  13.516 -0.3442 -0.4129 -0.0967
 5700TIP3    H138591   1.101   5.029  13.470 -1.6960  1.9242  1.6678
 5700TIP3    H238592   1.225   5.116  13.475 -0.2159 -0.0695  0.6561
 5701TIP3   OH238593   2.586   0.274   3.069 -0.2427 -0.4404 -0.0755
 5701TIP3    H138594   2.624   0.191   3.038 -2.2621 -1.7821  0.7699
 5701TIP3    H238595   2.645   0.303   3.138  1.8898  0.2431 -2.0430
 5702TIP3   OH238596   0.100   6.524   4.094 -0.2223  0.3483  0.3491
 5702TIP3    H138597   0.045   6.447   4.086  0.5102 -0.0367 -1.3676
 5702TIP3    H238598   0.144   6.532   4.009 -0.1938  2.5976  0.5061
 5703TIP3   OH238599   0.053   4.185  14.094 -0.3759 -1.1012 -0.3058
 5703TIP3    H138600  -0.028   4.165  14.046 -0.5367 -2.3577  0.4449
 5703TIP3    H238601   0.065   4.110  14.152  1.7848 -1.3310 -0.9697
 5704TIP3   OH238602   6.515   6.308  10.263  0.0923 -0.3766  0.4254
 5704TIP3    H138603   6.511   6.374  10.333  0.6857 -1.3937  1.4593
 5704TIP3    H238604   6.518   6.359  10.182 -0.1452  0.8474  1.1568
 5705TIP3   OH238605   1.409   2.246   0.428  0.3388 -0.3384  0.1091
 5705TIP3    H138606   1.456   2.171   0.464  0.2989  0.1408  1.1902
 5705TIP3    H238607   1.320   2.237   0.462  0.3787  0.2838  0.3899
 5706TIP3   OH238608   1.325   3.234   0.157  0.2741 -0.4720 -0.0067
 5706TIP3    H138609   1.309   3.267   0.245  0.8382  1.2347 -0.4896
 5706TIP3    H238610   1.420   3.225   0.151  0.2958  0.0263 -0.6099
 5707TIP3   OH238611   5.037   1.154  13.397  0.0350 -0.0889  0.0968
 5707TIP3    H138612   5.026   1.062  13.373 -1.1438  0.5960 -2.2954
 5707TIP3    H238613   5.028   1.201  13.314 -0.7163  2.2842  1.4552
 5708TIP3   OH238614   5.670   4.366   3.557 -0.0254 -0.1463 -0.1859
 5708TIP3    H138615   5.668   4.393   3.465  1.1336 -0.9885 -0.4789
 5708TIP3    H238616   5.717   4.283   3.557 -2.3368 -1.5845  0.8497
 5709TIP3   OH238617   2.113   4.153   4.868 -0.4793 -0.2031 -0.0154
 5709TIP3    H138618   2.032   4.146   4.818 -0.2509 -1.6981 -0.2159
 5709TIP3    H238619   2.091   4.213   4.940 -0.5627  2.7334 -2.2685
 5710TIP3   OH238620   4.656   5.316   3.691 -0.0215  0.0184 -0.3071
 5710TIP3    H138621   4.571   5.317   3.648 -0.9469 -0.6896  1.3808
 5710TIP3    H238622   4.643   5.370   3.769  0.8600 -0.6491  0.3219
 5711TIP3   OH238623   2.040   4.363  16.754  0.1406 -0.2962 -0.4307
 5711TIP3    H138624   1.985   4.310  16.811  3.1116 -1.2504  1.7859
 5711TIP3    H238625   2.102   4.301  16.716  1.1345  1.0269 -1.0627
 5712TIP3   OH238626   2.915   4.233   1.321 -0.4340 -0.4597  0.2145
 5712TIP3    H138627   2.899   4.222   1.415 -0.5906  0.5638  0.3254
 5712TIP3    H238628   3.002   4.272   1.316 -0.6606  0.0377 -0.0169
 5713TIP3   OH238629   2.574   5.449   5.216  0.3128  0.5745 -0.5366
 5713TIP3    H138630   2.533   5.511   5.155 -0.5168 -1.0054 -1.6567
 5713TIP3    H238631   2.659   5.430   5.177  0.0214  0.0125 -0.9142
 5714TIP3   OH238632   6.405   5.800   1.487  0.1796 -0.8316 -0.0882
 5714TIP3    H138633   6.457   5.729   1.449  0.2634 -0.3292 -0.9447
 5714TIP3    H238634   6.451   5.823   1.568  0.7784 -1.0076 -0.3696
 5715TIP3   OH238635   3.050   2.472   5.060  0.3292 -0.0051  0.5031
 5715TIP3    H138636   3.049   2.497   4.967  2.4306  0.9594  0.6759
 5715TIP3    H238637   2.971   2.419   5.072  0.8021 -1.5177 -2.2116
 5716TIP3   OH238638   6.249   1.965  16.278 -0.4011  0.2000  0.4992
 5716TIP3    H138639   6.253   2.061  16.273 -0.4730  0.1250 -1.4691
 5716TIP3    H238640   6.159   1.947  16.307 -0.7564  0.7009 -0.2734
 5717TIP3   OH238641   3.958   2.062   0.268 -0.2456 -0.4167 -0.3474
 5717TIP3    H138642   4.042   2.040   0.309 -1.4893 -0.6812  2.2259
 5717TIP3    H238643   3.918   1.978   0.248 -0.9542 -0.3837  0.8172
 5718TIP3   OH238644   1.519   0.959   2.219  0.2427 -0.3121 -0.4327
 5718TIP3    H138645   1.595   0.907   2.193  1.3052  0.3972  1.1146
 5718TIP3    H238646   1.511   1.026   2.151  1.4847  0.0689 -0.2185
 5719TIP3   OH238647   5.157   6.347  12.298  0.3226 -0.5205 -0.5300
 5719TIP3    H138648   5.206   6.281  12.250 -0.3795 -1.7502  0.3935
 5719TIP3    H238649   5.078   6.303  12.327 -0.5708  0.9664 -0.5832
 5720TIP3   OH238650   5.882   1.409  16.554  0.1357  0.2211  0.2747
 5720TIP3    H138651   5.821   1.335  16.556  0.8486 -0.3669  1.3159
 5720TIP3    H238652   5.830   1.482  16.520 -0.6352 -0.6957 -0.5958
 5721TIP3   OH238653   0.487   5.056  15.291  0.0055  0.7166 -0.2901
 5721TIP3    H138654   0.582   5.054  15.281  0.0267 -1.4906 -0.1246
 5721TIP3    H238655   0.453   5.028  15.206 -0.3937 -0.3404  0.1944
 5722TIP3   OH238656   3.849   6.124  12.334 -0.4882 -0.1250  0.4766
 5722TIP3    H138657   3.790   6.071  12.280  1.5593 -2.6637  0.5653
 5722TIP3    H238658   3.813   6.118  12.422 -0.7044 -0.7044  0.3503
 5723TIP3   OH238659   1.382   1.877  16.331 -0.2112  0.0914  0.0194
 5723TIP3    H138660   1.455   1.815  16.340 -0.8547 -0.7499 -0.4271
 5723TIP3    H238661   1.391   1.912  16.243 -0.5099 -0.2258 -0.1378
 5724TIP3   OH238662   0.993   5.299   0.342 -0.5547 -0.1355 -0.9909
 5724TIP3    H138663   1.058   5.368   0.324 -1.1861  0.2139 -2.0574
 5724TIP3    H238664   1.030   5.220   0.302 -0.0053 -0.3407 -0.0982
 5725TIP3   OH238665   0.869   0.360   2.681  0.1089 -0.0575 -0.4509
 5725TIP3    H138666   0.884   0.451   2.657 -1.7165 -0.3300 -3.1397
 5725TIP3    H238667   0.954   0.318   2.669  0.9618  1.2241  0.7753
 5726TIP3   OH238668   0.054   6.145  15.230  0.3132  0.0757  0.2569
 5726TIP3    H138669   0.024   6.224  15.275 -0.8139 -0.2388  0.0869
 5726TIP3    H238670  -0.018   6.122  15.172  1.2394 -0.2290 -0.8045
 5727TIP3   OH238671   6.222   5.255   4.699  0.2238 -0.0488 -0.2884
 5727TIP3    H138672   6.172   5.313   4.641  0.1151 -0.4015 -0.5475
 5727TIP3    H238673   6.309   5.251   4.661  0.5961  0.9377  0.4198
 5728TIP3   OH238674   1.963   4.379   3.043  0.1133  0.1294  0.6328
 5728TIP3    H138675   1.989   4.288   3.056  0.0027 -0.1206 -0.7127
 5728TIP3    H238676   1.904   4.398   3.116  1.1661 -0.4500  1.6525
 5729TIP3   OH238677   5.248   2.390  11.149  0.3336 -0.6419 -0.5098
 5729TIP3    H138678   5.159   2.414  11.125  0.3816 -0.3612 -0.4043
 5729TIP3    H238679   5.277   2.330  11.079  0.9139  1.1134 -1.8361
 5730TIP3   OH238680   5.120   6.801  11.342 -0.5903  0.2522  0.4594
 5730TIP3    H138681   5.212   6.801  11.370 -0.9564  1.0074  1.7374
 5730TIP3    H238682   5.115   6.730  11.278  1.1098  0.8899 -0.4401
 5731TIP3   OH238683   1.051   0.647   2.011 -0.3669 -0.2929 -0.1223
 5731TIP3    H138684   1.001   0.725   1.988 -0.1636  0.3135  1.3622
 5731TIP3    H238685   1.128   0.650   1.954 -1.3783 -0.5779 -1.5553
 5732TIP3   OH238686   4.253   3.378  14.709  0.0550 -0.2398  0.7739
 5732TIP3    H138687   4.324   3.321  14.738  0.0675 -0.2537  0.7147
 5732TIP3    H238688   4.184   3.364  14.774  0.0953 -0.2477  0.8156
 5733TIP3   OH238689   2.643   2.074   3.161 -0.2376 -0.0268 -0.1714
 5733TIP3    H138690   2.672   2.158   3.126  0.0006 -0.4050 -0.9155
 5733TIP3    H238691   2.723   2.024   3.174 -0.4656 -1.2011 -2.5601
 5734TIP3   OH238692   4.012   6.352   0.254  0.1951  0.1286 -0.0214
 5734TIP3    H138693   3.927   6.385   0.283  0.3198  0.9193 -0.5426
 5734TIP3    H238694   4.075   6.386   0.317  0.0658 -1.0458  0.7857
 5735TIP3   OH238695   3.500   4.409  11.078  0.4048 -0.6059  0.3538
 5735TIP3    H138696   3.558   4.378  11.008 -0.5434 -1.7695  0.0578
 5735TIP3    H238697   3.414   4.414  11.037  0.2373  0.9251  0.8424
 5736TIP3   OH238698   5.876   5.997   0.642 -0.3228  0.2844  0.0100
 5736TIP3    H138699   5.790   5.982   0.682  0.2659  0.3602  1.3256
 5736TIP3    H238700   5.913   5.909   0.631  0.4804  0.3526  1.8405
 5737TIP3   OH238701   5.804   5.044  16.302 -0.4205  0.1524 -0.5414
 5737TIP3    H138702   5.727   5.049  16.358  0.2025  2.0974  0.2247
 5737TIP3    H238703   5.860   4.979  16.344 -0.2948  1.0340  0.6930
 5738TIP3   OH238704   6.456   4.134  13.807 -0.2189 -0.5179  0.3917
 5738TIP3    H138705   6.379   4.159  13.859  0.1562 -0.4747  0.9325
 5738TIP3    H238706   6.422   4.125  13.718 -1.1108 -1.6436  0.8097
 5739TIP3   OH238707   1.841   0.890  14.081 -0.1157 -0.0907  0.0528
 5739TIP3    H138708   1.878   0.804  14.099  1.6273  0.2470 -1.6811
 5739TIP3    H238709   1.906   0.952  14.115 -1.0214  0.5707  0.6394
 5740TIP3   OH238710   3.296   5.067   3.191  0.5826 -0.4063  0.6175
 5740TIP3    H138711   3.340   5.059   3.275  2.5203 -0.6586 -0.3672
 5740TIP3    H238712   3.367   5.070   3.127 -0.8195  0.2907 -0.9755
 5741TIP3   OH238713   1.431   0.368   1.903 -0.1039  0.0105  0.0678
 5741TIP3    H138714   1.480   0.292   1.936  0.2703  0.4885  0.6293
 5741TIP3    H238715   1.377   0.332   1.832 -1.5991 -1.2553  1.7320
 5742TIP3   OH238716   0.223   2.689   0.581  0.0550  0.1956 -0.0812
 5742TIP3    H138717   0.298   2.666   0.525 -0.3670  0.1186 -0.6211
 5742TIP3    H238718   0.174   2.753   0.530 -0.0387  0.5441  0.4412
 5743TIP3   OH238719   5.760   2.769  12.080  0.0129  0.3854 -0.3878
 5743TIP3    H138720   5.812   2.758  12.001  0.8247 -1.3751  0.3424
 5743TIP3    H238721   5.817   2.815  12.142 -0.4401  1.2985 -0.6289
 5744TIP3   OH238722   1.847   4.791  12.194  0.1464 -0.0473  0.2233
 5744TIP3    H138723   1.896   4.873  12.181 -1.6124  0.9637 -0.4301
 5744TIP3    H238724   1.766   4.804  12.144  0.0272 -2.3982 -0.2895
 5745TIP3   OH238725   1.610   0.058  11.809 -0.2403 -0.1650  0.7381
 5745TIP3    H138726   1.638   0.123  11.873  0.9208  0.1151 -0.0213
 5745TIP3    H238727   1.691   0.025  11.770 -0.8680 -1.0939  0.1483
 5746TIP3   OH238728   0.867   5.329   5.879  0.0269  0.3730 -0.1019
 5746TIP3    H138729   0.790   5.371   5.918 -0.6465  0.7912 -1.8052
 5746TIP3    H238730   0.933   5.334   5.947 -1.2145  0.7034  1.1349
 5747TIP3   OH238731   2.470   0.485   2.638  0.0684  0.1800  0.3078
 5747TIP3    H138732   2.395   0.524   2.595 -1.3324 -2.4751  0.1157
 5747TIP3    H238733   2.450   0.491   2.731 -0.8248 -1.2274  0.2320
 5748TIP3   OH238734   1.327   0.139  15.551 -0.3944  0.0875 -0.4752
 5748TIP3    H138735   1.422   0.130  15.544 -0.4343 -0.0664 -0.8741
 5748TIP3    H238736   1.310   0.153  15.644  0.2499  2.7446 -0.6877
 5749TIP3   OH238737   6.334   0.167  14.351 -0.5244 -0.4257  0.2035
 5749TIP3    H138738   6.245   0.187  14.380 -0.7558  0.3814 -1.0164
 5749TIP3    H238739   6.335   0.190  14.258  0.5954 -1.6463 -0.1100
 5750TIP3   OH238740   5.476   4.925  11.486  0.0912  0.4128  0.5962
 5750TIP3    H138741   5.412   4.894  11.550 -0.0643  0.5752  0.5199
 5750TIP3    H238742   5.430   4.921  11.402  0.3747 -0.0331  0.4590
 5751TIP3   OH238743   6.491   2.285   1.716 -0.0446  0.0110  0.0845
 5751TIP3    H138744   6.427   2.233   1.668  0.4038 -0.9044  0.4539
 5751TIP3    H238745   6.527   2.345   1.650 -0.3249 -0.3676 -0.4243
 5752TIP3   OH238746   6.233   1.146  16.083 -0.1084 -0.2786 -0.0722
 5752TIP3    H138747   6.239   1.213  16.151  0.7527  0.2943 -0.6779
 5752TIP3    H238748   6.143   1.150  16.052 -0.0331  0.7057 -0.1875
 5753TIP3   OH238749   6.804   3.878   3.503 -0.5757 -0.3782  0.3064
 5753TIP3    H138750   6.847   3.903   3.422  0.4862 -1.6367  0.4552
 5753TIP3    H238751   6.820   3.951   3.563  0.1118 -0.2018 -0.0904
 5754TIP3   OH238752   5.301   5.294  12.315  0.3798  0.5001  0.0895
 5754TIP3    H138753   5.275   5.259  12.401  1.0228 -2.2930 -0.7472
 5754TIP3    H238754   5.395   5.275  12.310  0.1116 -0.5431 -1.6870
 5755TIP3   OH238755   2.859   1.960   6.795  0.3559  0.1573 -0.3241
 5755TIP3    H138756   2.784   2.009   6.828  0.1586 -1.3775  1.6371
 5755TIP3    H238757   2.934   2.016   6.813 -0.1788  1.2988 -1.4673
 5756TIP3   OH238758   2.774   5.072   1.663  0.4534 -0.3423  0.8872
 5756TIP3    H138759   2.860   5.114   1.671 -0.3992  2.2791 -1.8984
 5756TIP3    H238760   2.724   5.107   1.737  1.1490 -0.1892  1.2936
 5757TIP3   OH238761   3.043   6.343  11.517 -0.3733  0.2696  0.5517
 5757TIP3    H138762   2.965   6.382  11.555 -0.5313 -0.3783  0.9040
 5757TIP3    H238763   3.013   6.260  11.481 -0.1283  0.6567 -0.5701
 5758TIP3   OH238764   5.370   3.597  11.997 -0.1923 -0.5856 -0.3173
 5758TIP3    H138765   5.293   3.640  11.960  0.6066  0.6478 -0.5949
 5758TIP3    H238766   5.402   3.540  11.927 -1.1612 -1.5541 -0.0041
 5759TIP3   OH238767   0.026   0.411  12.514 -0.4246  0.2536 -0.2165
 5759TIP3    H138768  -0.004   0.344  12.453  0.8022  0.6134 -1.2734
 5759TIP3    H238769   0.007   0.494  12.470  3.0329  0.5003 -1.5299
 5760TIP3   OH238770   2.310   3.592  17.121 -0.2304 -0.8287  0.4786
 5760TIP3    H138771   2.289   3.657  17.053  0.0273 -1.2425 -0.0084
 5760TIP3    H238772   2.398   3.562  17.097  0.1082 -0.5494  1.3487
 5761TIP3   OH238773   4.213   4.204  15.342 -0.0705  0.0531  0.3825
 5761TIP3    H138774   4.132   4.191  15.392  0.3340  0.3208  1.1287
 5761TIP3    H238775   4.283   4.195  15.407  0.4199  1.5199  0.0953
 5762TIP3   OH238776   0.747   1.168  16.304  0.2520 -0.3132 -0.8062
 5762TIP3    H138777   0.740   1.240  16.242  1.6335 -0.1526 -0.8112
 5762TIP3    H238778   0.687   1.191  16.375  3.0146  2.6483  0.8591
 5763TIP3   OH238779   5.975   0.820   0.830  0.0545  0.1045  0.9035
 5763TIP3    H138780   5.971   0.736   0.875 -0.2622 -1.1199 -1.2629
 5763TIP3    H238781   6.069   0.839   0.821  0.1323 -0.1844  1.1172
 5764TIP3   OH238782   6.442   1.804  12.680 -0.0020 -0.0911  0.1489
 5764TIP3    H138783   6.538   1.800  12.678  0.0272  0.3197  0.6988
 5764TIP3    H238784   6.415   1.739  12.615  0.6550  0.1831 -0.4223
 5765TIP3   OH238785   1.885   6.099   3.445 -0.3049  0.4698  0.7446
 5765TIP3    H138786   1.834   6.091   3.364  0.7761 -1.2081  0.1624
 5765TIP3    H238787   1.945   6.172   3.429  2.8747 -2.3184 -1.8619
 5766TIP3   OH238788   3.459   4.106   5.890 -0.0339 -0.8075 -0.1635
 5766TIP3    H138789   3.528   4.053   5.928 -1.1545 -0.6382  2.3146
 5766TIP3    H238790   3.386   4.045   5.876 -0.0850 -0.6039 -0.8342
 5767TIP3   OH238791   1.137   3.625   2.141  0.5453  0.1210 -0.3319
 5767TIP3    H138792   1.077   3.612   2.069 -0.2209  0.3914  0.2439
 5767TIP3    H238793   1.221   3.593   2.109  0.2733  0.4653 -1.4206
 5768TIP3   OH238794   2.378   5.255   5.248 -0.1302 -0.4051 -0.5477
 5768TIP3    H138795   2.314   5.321   5.272 -0.1680 -0.5436 -0.2516
 5768TIP3    H238796   2.460   5.303   5.239 -0.3223 -0.1910 -1.1650
 5769TIP3   OH238797   6.676   3.464   0.068  0.6839 -0.1184  0.1314
 5769TIP3    H138798   6.740   3.393   0.074 -0.3506 -0.9629  1.9430
 5769TIP3    H238799   6.637   3.454  -0.018  1.3363 -1.0433 -0.0723
 5770TIP3   OH238800   1.339   3.192   2.861 -0.2565  0.5071  0.0157
 5770TIP3    H138801   1.247   3.183   2.835  0.2044 -1.1982 -1.2096
 5770TIP3    H238802   1.336   3.246   2.940 -2.6071 -1.7174  1.6450
 5771TIP3   OH238803   5.834   5.352  12.148 -0.1655  0.2635  0.3547
 5771TIP3    H138804   5.871   5.388  12.068 -0.3512 -1.3792 -0.5068
 5771TIP3    H238805   5.907   5.353  12.211  1.0842 -1.7959 -0.9466
 5772TIP3   OH238806   1.681   0.907   1.388 -0.1842  0.1896  0.5979
 5772TIP3    H138807   1.765   0.905   1.343 -0.8037 -2.0499 -0.6197
 5772TIP3    H238808   1.668   0.818   1.420 -1.4555  0.8393  2.0685
 5773TIP3   OH238809   6.087   0.902   2.020  0.1620 -0.4313 -0.5087
 5773TIP3    H138810   6.161   0.841   2.023  0.9482  0.5218  1.9145
 5773TIP3    H238811   6.098   0.948   1.936  1.2105 -1.5851 -1.0491
 5774TIP3   OH238812   3.340   3.003   0.800 -0.2453  0.1346 -0.3976
 5774TIP3    H138813   3.313   2.988   0.709 -2.4428 -1.1394  0.3792
 5774TIP3    H238814   3.406   3.072   0.794 -0.6135  0.3755 -2.9289
 5775TIP3   OH238815   6.294   0.176  12.488 -0.4677  0.5492  0.4711
 5775TIP3    H138816   6.271   0.261  12.526  0.4769 -0.0177  2.5052
 5775TIP3    H238817   6.240   0.168  12.410 -0.9328  2.7958  0.4995
 5776TIP3   OH238818   2.789   3.944   4.788  0.3145  0.0205  0.1245
 5776TIP3    H138819   2.787   3.928   4.882  1.1903 -0.4434  0.0777
 5776TIP3    H238820   2.816   3.860   4.750 -2.7482 -0.6790 -0.7867
 5777TIP3   OH238821   2.427   5.878   2.335 -0.2815  0.0489  0.0897
 5777TIP3    H138822   2.507   5.926   2.314 -0.0870 -0.6294 -0.8003
 5777TIP3    H238823   2.419   5.813   2.264 -1.0613 -0.5678  0.7265
 5778TIP3   OH238824   6.035   5.793   4.172  0.5851 -0.4780  0.3807
 5778TIP3    H138825   5.958   5.808   4.117  1.6386 -1.8808 -1.6291
 5778TIP3    H238826   6.032   5.862   4.237 -0.7713  1.3409 -1.4740
 5779TIP3   OH238827   1.340   4.613   3.670  0.3500 -0.0419 -0.4189
 5779TIP3    H138828   1.342   4.526   3.709  0.3885 -0.4966 -1.4076
 5779TIP3    H238829   1.287   4.665   3.731 -2.0102 -1.4286 -1.1369
 5780TIP3   OH238830   4.177   0.888   1.919 -0.1631 -0.1415  0.2055
 5780TIP3    H138831   4.263   0.846   1.908 -0.3427 -0.2709 -0.7413
 5780TIP3    H238832   4.130   0.868   1.838 -1.0099  0.1232  0.6278
 5781TIP3   OH238833   4.545   0.416  16.271  0.2636 -0.6877 -0.2659
 5781TIP3    H138834   4.570   0.325  16.285 -0.9204 -0.9228  0.4542
 5781TIP3    H238835   4.493   0.415  16.191  0.4856 -0.5989 -0.4115
 5782TIP3   OH238836   1.744   3.747   3.523 -0.4138  0.7459 -0.2975
 5782TIP3    H138837   1.668   3.688   3.525 -0.7737  1.1869 -0.7588
 5782TIP3    H238838   1.784   3.737   3.609  1.4526 -2.6397 -1.3713
 5783TIP3   OH238839   1.690   1.602   0.986  0.0656 -0.1971  0.3103
 5783TIP3    H138840   1.662   1.641   0.903  0.8094 -0.7968 -0.2355
 5783TIP3    H238841   1.611   1.559   1.020 -0.1218 -0.3903 -0.3453
 5784TIP3   OH238842   1.283   3.497   1.945  0.1868 -0.0852  0.0300
 5784TIP3    H138843   1.284   3.582   1.901 -1.8473  0.7235  1.4220
 5784TIP3    H238844   1.308   3.435   1.876  1.2626  1.5623 -1.1377
 5785TIP3   OH238845   5.316   2.016  15.322  0.0259  0.6608 -0.0166
 5785TIP3    H138846   5.360   2.042  15.403 -3.1146  1.1881  1.7006
 5785TIP3    H238847   5.277   2.097  15.289 -2.4598 -0.2559  0.4865
 5786TIP3   OH238848   1.570   4.012   3.989  0.8488  0.1877  0.0401
 5786TIP3    H138849   1.522   3.934   3.962  0.6093  0.3059  0.1220
 5786TIP3    H238850   1.618   3.984   4.068  0.4936  0.2196  0.2675
 5787TIP3   OH238851   2.080   4.063   0.727  0.0785  0.1008  0.1075
 5787TIP3    H138852   2.114   4.049   0.815 -0.3639  2.1105  0.6559
 5787TIP3    H238853   2.009   4.127   0.739  1.0834  1.7010 -1.8725
 5788TIP3   OH238854   6.615   4.449   5.193  0.2246  0.0626  0.0028
 5788TIP3    H138855   6.625   4.416   5.282 -0.5189 -1.1909 -0.3545
 5788TIP3    H238856   6.593   4.371   5.141  1.7680  0.5540 -1.4817
 5789TIP3   OH238857   2.516   4.111   2.286 -0.1365  0.1091  0.4721
 5789TIP3    H138858   2.429   4.076   2.309 -0.0231 -0.1258  0.5470
 5789TIP3    H238859   2.508   4.136   2.194  0.1163 -1.1859  0.0787
 5790TIP3   OH238860   3.202   1.625  14.471  0.1154 -0.1365  0.7203
 5790TIP3    H138861   3.106   1.621  14.461  0.2072 -1.9374  0.1688
 5790TIP3    H238862   3.215   1.643  14.564 -0.7687 -0.9703  1.0251
 5791TIP3   OH238863   0.664   4.503   3.167 -0.5429  0.5705  0.6376
 5791TIP3    H138864   0.590   4.447   3.189  0.2254 -0.2378  1.2506
 5791TIP3    H238865   0.629   4.592   3.173 -0.8951  0.3468  3.3869
 5792TIP3   OH238866   5.599   1.333  12.209 -0.4324 -0.3590 -0.3711
 5792TIP3    H138867   5.566   1.345  12.298 -2.5494 -1.6127 -0.9311
 5792TIP3    H238868   5.626   1.421  12.183  0.0625  0.0703  1.4157
 5793TIP3   OH238869   3.016   1.001  12.860  0.0772 -0.0100  0.6820
 5793TIP3    H138870   2.931   0.959  12.847 -0.1454 -0.9277  4.1652
 5793TIP3    H238871   3.078   0.928  12.863  0.7850  0.5329 -0.2183
 5794TIP3   OH238872   2.130   1.576   1.108 -0.2953  0.4651  0.4282
 5794TIP3    H138873   2.067   1.522   1.059 -2.7662  1.7983  1.9360
 5794TIP3    H238874   2.162   1.518   1.177  0.7982 -0.4472 -0.7747
 5795TIP3   OH238875   1.454   4.205   0.276  0.0667 -0.2953  0.1805
 5795TIP3    H138876   1.523   4.236   0.217 -0.9083 -0.1437 -0.8977
 5795TIP3    H238877   1.488   4.224   0.364  1.0970  0.4103 -0.3515
 5796TIP3   OH238878   5.063   6.785  16.989 -0.3747 -0.6300 -0.0041
 5796TIP3    H138879   4.988   6.804  16.933 -0.3374 -1.3659 -0.3083
 5796TIP3    H238880   5.028   6.728  17.058 -0.0689 -1.0682 -0.2106
 5797TIP3   OH238881   5.532   5.622  14.993 -0.0768 -0.2450  0.0880
 5797TIP3    H138882   5.618   5.593  14.960  0.4106  0.4235  0.7566
 5797TIP3    H238883   5.544   5.715  15.012 -1.5622  0.4150 -1.8341
 5798TIP3   OH238884   1.737   4.281   1.790  0.0440 -0.7099 -0.2141
 5798TIP3    H138885   1.802   4.234   1.842 -0.3229  0.0371  0.9717
 5798TIP3    H238886   1.762   4.373   1.798 -1.8089 -0.2586  1.3241
 5799TIP3   OH238887   1.961   5.017   5.390  0.0666  0.8066  0.5994
 5799TIP3    H138888   1.898   5.039   5.321  0.1720 -0.1670  0.1758
 5799TIP3    H238889   1.907   4.984   5.462  0.1054 -1.4977 -0.3190
 5800TIP3   OH238890   0.246   1.009  14.132 -0.9041  0.1742  0.1175
 5800TIP3    H138891   0.336   1.007  14.102 -1.1152 -0.8406 -0.4934
 5800TIP3    H238892   0.233   0.925  14.176 -0.9891  1.0971  1.9576
 5801TIP3   OH238893   2.345   1.663   3.006 -0.2631 -0.4231 -0.4550
 5801TIP3    H138894   2.397   1.603   3.060 -0.0642 -0.2267 -0.4277
 5801TIP3    H238895   2.254   1.647   3.032 -0.5704 -3.0448 -2.6909
 5802TIP3   OH238896   5.994   6.352  14.534 -0.2549 -0.3356  0.2279
 5802TIP3    H138897   6.027   6.382  14.619 -0.3908 -0.3018  0.2694
 5802TIP3    H238898   6.051   6.279  14.511  1.4395  1.2330 -0.8585
 5803TIP3   OH238899   5.059   3.670  16.770 -0.6041 -0.1570 -0.2428
 5803TIP3    H138900   5.093   3.581  16.771  1.4107  0.5409  1.7790
 5803TIP3    H238901   5.025   3.683  16.859  1.8006  1.9818  0.4654
 5804TIP3   OH238902   6.824   2.547   2.117 -0.2850 -0.4005  0.5257
 5804TIP3    H138903   6.850   2.506   2.034 -1.3793  1.4790 -0.8166
 5804TIP3    H238904   6.729   2.537   2.120 -0.9339  3.6751 -0.9368
 5805TIP3   OH238905   5.461   2.987   0.643  0.0342 -0.4923  0.1940
 5805TIP3    H138906   5.527   3.020   0.582 -1.3414  0.2151 -0.9871
 5805TIP3    H238907   5.475   2.893   0.645  0.1796 -0.5317 -1.1840
 5806TIP3   OH238908   5.433   5.922  12.812 -0.1626  0.1641 -0.1630
 5806TIP3    H138909   5.485   5.959  12.740 -0.2127 -0.7279 -0.6727
 5806TIP3    H238910   5.483   5.846  12.840 -1.7034 -1.3498 -1.3766
 5807TIP3   OH238911   2.175   3.542  16.744 -0.4492 -0.0617 -0.0364
 5807TIP3    H138912   2.222   3.569  16.665 -0.2152  1.1616  0.4996
 5807TIP3    H238913   2.228   3.470  16.780 -0.2372 -0.2257 -0.6630
 5808TIP3   OH238914   0.112   3.988   5.658  0.1498  0.3410 -0.2239
 5808TIP3    H138915   0.151   3.978   5.571  1.7567 -0.2909  0.5226
 5808TIP3    H238916   0.028   4.031   5.642  1.4031  2.3843 -1.8878
 5809TIP3   OH238917   6.672   5.035  12.822  0.0005  0.0456 -0.4004
 5809TIP3    H138918   6.596   4.978  12.831 -0.5382  0.4805 -1.7884
 5809TIP3    H238919   6.635   5.121  12.802  0.8400  0.4347 -0.3449
 5810TIP3   OH238920   6.777   0.019   4.611 -0.1147  0.2066  0.2885
 5810TIP3    H138921   6.761  -0.016   4.698  1.3745  2.8703  1.7697
 5810TIP3    H238922   6.700   0.072   4.591  0.3252  1.0674  0.8290
 5811TIP3   OH238923   1.681   0.216   5.005  0.3128 -0.0723  0.2304
 5811TIP3    H138924   1.605   0.273   5.007  0.3815  0.0083  0.5734
 5811TIP3    H238925   1.648   0.133   4.970  0.1402  0.0674  0.0603
 5812TIP3   OH238926   6.132   3.652   2.811 -0.0796  0.0979  0.2246
 5812TIP3    H138927   6.184   3.638   2.732 -0.3068  1.6556 -0.2444
 5812TIP3    H238928   6.172   3.596   2.877  1.2988  0.1887 -0.5108
 5813TIP3   OH238929   6.096   5.986   5.600  0.3119 -0.4259 -0.1681
 5813TIP3    H138930   6.062   5.940   5.676 -0.3244  0.8150  0.3316
 5813TIP3    H238931   6.185   5.952   5.589  0.5297 -0.4269  1.3187
 5814TIP3   OH238932   3.977   2.133   6.608  0.6086 -0.2528  0.0753
 5814TIP3    H138933   3.910   2.141   6.540  1.7405  1.5871 -0.9285
 5814TIP3    H238934   3.967   2.212   6.661  2.6597  0.6903 -0.8193
 5815TIP3   OH238935   0.655   6.132   3.538  0.1873  0.2364  0.1697
 5815TIP3    H138936   0.562   6.143   3.556  0.2673  0.0652  0.7125
 5815TIP3    H238937   0.669   6.037   3.547  0.4537  0.2881  0.2871
 5816TIP3   OH238938   1.653   0.941   6.149 -0.3387  0.7259  0.2269
 5816TIP3    H138939   1.640   0.849   6.170  0.2903  0.6041  0.0835
 5816TIP3    H238940   1.659   0.984   6.234  0.0554  0.5383  0.2946
 5817TIP3   OH238941   4.135   5.743  11.762  0.2280  0.6223  0.4631
 5817TIP3    H138942   4.199   5.787  11.817  1.2119  0.2640 -0.3619
 5817TIP3    H238943   4.089   5.813  11.717 -0.4046  0.9061  1.5241
 5818TIP3   OH238944   1.655   0.581  11.812  0.1037  0.2358  0.4682
 5818TIP3    H138945   1.740   0.608  11.845 -1.0006  1.6865  2.3770
 5818TIP3    H238946   1.603   0.662  11.812 -1.1162 -0.5015 -1.1895
 5819TIP3   OH238947   4.205   0.114   2.839  0.1373  0.3555  0.4073
 5819TIP3    H138948   4.253   0.128   2.920 -0.7648  0.0720  1.0051
 5819TIP3    H238949   4.203   0.019   2.828  2.0747  0.4337 -1.0851
 5820TIP3   OH238950   1.048   2.633  14.857  0.7647 -0.5763 -0.2116
 5820TIP3    H138951   1.025   2.711  14.807 -1.3424 -1.3321 -0.5097
 5820TIP3    H238952   1.104   2.665  14.928 -1.1572  1.4290  0.4860
 5821TIP3   OH238953   1.379   6.643   1.725  0.1859  0.0290  0.5399
 5821TIP3    H138954   1.340   6.651   1.812 -0.7778  0.2337  0.0953
 5821TIP3    H238955   1.317   6.684   1.666  1.2708  0.7491 -0.1470
 5822TIP3   OH238956   3.576   5.845   0.392 -0.4914 -0.2211  0.4226
 5822TIP3    H138957   3.512   5.861   0.323  0.4838  0.2779 -0.3867
 5822TIP3    H238958   3.657   5.823   0.345 -0.6244 -3.2489  1.4108
 5823TIP3   OH238959   1.570   5.776   0.797 -0.2758 -0.0613  0.1592
 5823TIP3    H138960   1.623   5.843   0.840  1.3270 -0.4468 -1.0745
 5823TIP3    H238961   1.582   5.698   0.851  0.0517 -0.0138  0.1621
 5824TIP3   OH238962   0.713   6.474  10.322 -0.0872  0.6687  0.0445
 5824TIP3    H138963   0.777   6.530  10.276  0.1640  0.1878 -0.1994
 5824TIP3    H238964   0.765   6.400  10.354 -0.8703 -0.8490 -2.0195
 5825TIP3   OH238965   0.040   3.250  15.371  0.1351 -0.4630  0.4050
 5825TIP3    H138966  -0.027   3.182  15.372  0.5022 -0.8195  0.6203
 5825TIP3    H238967   0.021   3.301  15.292 -0.2873 -0.6586  0.3763
 5826TIP3   OH238968   6.309   2.184   2.427 -0.1593 -0.6649  0.0840
 5826TIP3    H138969   6.392   2.158   2.466  0.1491  1.8908  1.3281
 5826TIP3    H238970   6.245   2.175   2.498 -0.6801 -1.1110 -0.4189
 5827TIP3   OH238971   5.658   1.526   3.605 -0.2133  0.2273  0.0529
 5827TIP3    H138972   5.638   1.579   3.528  0.4766  2.4084  1.3008
 5827TIP3    H238973   5.579   1.474   3.619 -0.4295 -0.0580 -1.9762
 5828TIP3   OH238974   0.789   5.024   0.372 -0.2278  0.2031  0.5041
 5828TIP3    H138975   0.782   5.015   0.277  1.8168 -2.2778  0.4832
 5828TIP3    H238976   0.872   5.068   0.386 -1.3682  2.2552  1.1779
 5829TIP3   OH238977   3.081   0.234   4.218 -0.5299 -0.4808 -0.2973
 5829TIP3    H138978   3.170   0.269   4.220 -0.0059 -1.7378 -0.3167
 5829TIP3    H238979   3.056   0.227   4.310 -0.8094  0.3239 -0.3036
 5830TIP3   OH238980   6.488   2.655  12.726  0.3378 -0.7006  0.1351
 5830TIP3    H138981   6.395   2.638  12.708 -0.4887  2.3003  0.9538
 5830TIP3    H238982   6.506   2.605  12.805 -0.7708 -0.8201  0.3391
 5831TIP3   OH238983   5.911   3.005  11.575  0.1202 -0.4648 -0.5927
 5831TIP3    H138984   5.837   2.987  11.634  0.1839  0.2364 -0.2863
 5831TIP3    H238985   5.873   2.999  11.487 -0.5944  1.0028 -0.4234
 5832TIP3   OH238986   4.777   5.434   5.850 -0.1483  0.7589  0.3099
 5832TIP3    H138987   4.731   5.377   5.789  1.1294 -0.2786  0.2595
 5832TIP3    H238988   4.718   5.442   5.925 -0.7558  0.1737 -0.0959
 5833TIP3   OH238989   6.795   5.162  12.518 -0.2869 -0.3563 -0.3809
 5833TIP3    H138990   6.877   5.148  12.564 -0.9010  0.3384  0.9933
 5833TIP3    H238991   6.818   5.157  12.425  1.7229  1.8511 -0.1035
 5834TIP3   OH238992   2.115   6.101   4.560  0.9303  0.7247  1.3352
 5834TIP3    H138993   2.136   6.183   4.603  0.4822  0.9888  1.0652
 5834TIP3    H238994   2.178   6.093   4.489 -0.0539  1.6769  0.3181
 5835TIP3   OH238995   2.546   2.493   1.211  0.1477  0.7890  0.2758
 5835TIP3    H138996   2.524   2.563   1.151  2.4886  1.6526  0.2902
 5835TIP3    H238997   2.569   2.418   1.155  1.1283  1.2086  0.0852
 5836TIP3   OH238998   4.214   1.155  12.291  0.2454 -0.1428  0.2813
 5836TIP3    H138999   4.130   1.108  12.295  0.8266 -1.3704 -1.2416
 5836TIP3    H239000   4.280   1.087  12.292  1.2385  0.7903  0.7486
 5837TIP3   OH239001   3.978   6.673  12.043 -0.5765  0.2673  0.1142
 5837TIP3    H139002   3.890   6.679  12.005 -0.7529 -0.3833  0.4128
 5837TIP3    H239003   3.966   6.622  12.123  0.4755 -2.0068 -1.1006
 5838TIP3   OH239004   4.099   0.066  16.161  0.1578  0.1525 -0.0120
 5838TIP3    H139005   4.099   0.148  16.112 -0.1218 -1.3962 -2.8080
 5838TIP3    H239006   4.010   0.059  16.195 -0.5944 -0.0927 -1.8853
 5839TIP3   OH239007   2.388   3.197  14.342  1.1907 -0.2376  0.3796
 5839TIP3    H139008   2.390   3.292  14.330 -0.4340  0.0821  2.0490
 5839TIP3    H239009   2.480   3.171  14.346  1.7744  1.7627  2.9072
 5840TIP3   OH239010   3.448   3.058   4.301  0.4049 -0.2264  0.5039
 5840TIP3    H139011   3.506   3.122   4.342  1.1190 -1.9724  2.4141
 5840TIP3    H239012   3.406   3.013   4.374 -0.7208 -1.3490 -0.7715
 5841TIP3   OH239013   6.751   5.269  10.694  0.0154 -0.3794  0.1845
 5841TIP3    H139014   6.785   5.342  10.745 -0.3976 -0.3777  0.4533
 5841TIP3    H239015   6.818   5.201  10.703 -0.0364 -0.3625  0.6838
 5842TIP3   OH239016   2.829   0.405  14.614 -0.3648  0.4696  0.2848
 5842TIP3    H139017   2.796   0.319  14.641 -1.8202  1.0385  0.4284
 5842TIP3    H239018   2.850   0.394  14.521  0.4761 -0.3119  0.5509
 5843TIP3   OH239019   3.080   3.463   1.527  0.1230  0.3882 -0.0351
 5843TIP3    H139020   3.127   3.430   1.449 -2.1828 -1.9018 -0.5892
 5843TIP3    H239021   3.103   3.401   1.596 -0.1872  0.6638  0.3154
 5844TIP3   OH239022   5.538   3.549  11.335 -0.1457  0.1371  0.5066
 5844TIP3    H139023   5.584   3.577  11.256  1.1732 -0.8935  0.8855
 5844TIP3    H239024   5.506   3.461  11.314  0.5322 -0.2915  1.2409
 5845TIP3   OH239025   3.947   2.581  14.379 -0.0453 -0.5592  0.5125
 5845TIP3    H139026   3.868   2.540  14.344  0.3946 -1.7253  0.8511
 5845TIP3    H239027   3.941   2.569  14.473  0.9256 -1.4061  0.4837
 5846TIP3   OH239028   1.994   6.333   1.909  0.0810  0.5433  0.3861
 5846TIP3    H139029   2.051   6.398   1.869  1.1330 -0.6398 -0.0878
 5846TIP3    H239030   2.052   6.262   1.934 -1.1975 -0.7778 -0.2588
 5847TIP3   OH239031   6.834   6.772  16.303 -0.1740 -0.5728  0.1123
 5847TIP3    H139032   6.796   6.727  16.379  0.8710 -0.0715  0.9515
 5847TIP3    H239033   6.888   6.841  16.340 -1.6690  1.3628 -1.1556
 5848TIP3   OH239034   4.367   0.734   1.524  0.1915  0.4385  0.7758
 5848TIP3    H139035   4.338   0.780   1.445  1.5916  0.4445  0.2334
 5848TIP3    H239036   4.333   0.645   1.514  0.0758  0.5322  0.3153
 5849TIP3   OH239037   0.036   1.114  15.127 -0.2024  1.1452 -0.1361
 5849TIP3    H139038  -0.047   1.161  15.127 -1.0300 -0.1762  1.8192
 5849TIP3    H239039   0.057   1.102  15.219  0.3631 -1.5342 -0.5251
 5850TIP3   OH239040   4.902   6.561   2.376  0.3354 -0.0139  0.2269
 5850TIP3    H139041   4.977   6.502   2.368 -0.8427 -1.3439 -1.8589
 5850TIP3    H239042   4.899   6.608   2.293  0.3767  2.0171  1.3010
 5851TIP3   OH239043   3.136   0.851  10.973 -0.1460 -0.0838 -0.6158
 5851TIP3    H139044   3.125   0.871  11.066  1.0409 -0.4908 -0.3744
 5851TIP3    H239045   3.050   0.868  10.935  0.0684  2.9744 -0.0030
 5852TIP3   OH239046   2.796   0.512  16.109 -0.3279 -0.4985  0.7661
 5852TIP3    H139047   2.808   0.428  16.154 -0.1309 -0.4751  0.7593
 5852TIP3    H239048   2.841   0.500  16.025 -1.3462 -0.8058  0.2588
 5853TIP3   OH239049   4.282   4.568  13.630 -0.5399 -0.4271  0.1059
 5853TIP3    H139050   4.252   4.656  13.606  0.9256 -0.6593 -3.1409
 5853TIP3    H239051   4.212   4.533  13.685 -1.6723  2.3383  0.6085
 5854TIP3   OH239052   2.876   6.116   6.098  0.0427  0.3660  0.1702
 5854TIP3    H139053   2.801   6.174   6.084 -0.2180 -0.1453 -0.5734
 5854TIP3    H239054   2.842   6.045   6.152  0.2989  0.7558  0.8611
 5855TIP3   OH239055   5.567   2.900  16.510 -0.6951  0.4600 -0.0302
 5855TIP3    H139056   5.585   2.859  16.594 -1.6466  0.5243  0.2207
 5855TIP3    H239057   5.546   2.991  16.532 -1.0654  0.4484 -0.3220
 5856TIP3   OH239058   4.802   2.502   1.418  0.5098  0.0844  0.2777
 5856TIP3    H139059   4.753   2.467   1.344  0.2863  1.7016 -0.3706
 5856TIP3    H239060   4.761   2.462   1.495  0.7413 -1.6079 -0.4337
 5857TIP3   OH239061   3.751   6.658  11.838 -0.0871 -0.1310 -0.2194
 5857TIP3    H139062   3.702   6.734  11.805 -2.1932 -1.1889  0.2937
 5857TIP3    H239063   3.695   6.621  11.906  1.2758 -1.6729  0.1303
 5858TIP3   OH239064   4.631   0.090  11.945  0.3046  0.2123  0.0434
 5858TIP3    H139065   4.555   0.034  11.933 -0.0251  0.6764 -0.0954
 5858TIP3    H239066   4.594   0.178  11.955  0.8419  0.5167 -0.5232
 5859TIP3   OH239067   0.651   0.635  11.842 -0.2151  0.4649 -0.7227
 5859TIP3    H139068   0.601   0.642  11.761 -0.6767 -0.0268 -0.4815
 5859TIP3    H239069   0.585   0.626  11.911  0.1719 -2.5759 -0.6155
 5860TIP3   OH239070   5.242   5.616   0.776  0.4317  0.3516 -0.1409
 5860TIP3    H139071   5.242   5.712   0.776 -0.1548  0.3541 -0.7250
 5860TIP3    H239072   5.321   5.593   0.825  0.3274  1.1277  0.4165
 5861TIP3   OH239073   4.967   0.034   0.928 -0.1190 -0.2424  0.5964
 5861TIP3    H139074   4.973  -0.016   0.847 -1.5714 -0.8226  0.8053
 5861TIP3    H239075   4.952  -0.032   0.996  0.2254  0.3030  1.2127
 5862TIP3   OH239076   3.221   0.826  13.856  0.3485 -0.0539 -0.0954
 5862TIP3    H139077   3.246   0.849  13.945  0.6460  0.8661 -0.4145
 5862TIP3    H239078   3.302   0.797  13.814  0.4771  0.7878 -0.4548
 5863TIP3   OH239079   0.365   1.397  13.411  0.7529 -0.1343 -0.1401
 5863TIP3    H139080   0.458   1.405  13.391  1.3626 -0.2286  2.3055
 5863TIP3    H239081   0.361   1.333  13.482 -1.1929 -0.1381 -0.1917
 5864TIP3   OH239082   2.920   2.490   4.201 -0.3483 -0.0080 -0.4996
 5864TIP3    H139083   2.836   2.469   4.242  0.2827  0.8012  1.3317
 5864TIP3    H239084   2.916   2.585   4.185 -0.1088 -0.1121 -1.1877
 5865TIP3   OH239085   4.369   1.812   0.756 -0.0713  0.2826  0.5044
 5865TIP3    H139086   4.383   1.737   0.814 -0.6938  1.0032  1.6256
 5865TIP3    H239087   4.439   1.806   0.691 -0.9325 -2.0637 -0.2892
 5866TIP3   OH239088   6.309   0.173   4.268 -0.4750 -0.4907 -0.2094
 5866TIP3    H139089   6.352   0.227   4.201  1.7936 -0.9885  0.7675
 5866TIP3    H239090   6.357   0.091   4.267 -0.2759 -0.4660  2.1106
 5867TIP3   OH239091   3.606   1.287  14.402  0.3600  0.2124 -0.0564
 5867TIP3    H139092   3.584   1.338  14.480  1.1067  0.8330 -0.2449
 5867TIP3    H239093   3.701   1.280  14.404  0.6994  2.5633 -2.2983
 5868TIP3   OH239094   0.503   3.471   4.132  0.3867 -0.0610 -0.5207
 5868TIP3    H139095   0.573   3.495   4.071  0.3602 -1.9843 -1.3776
 5868TIP3    H239096   0.497   3.376   4.126 -0.9397 -0.1332  1.0714
 5869TIP3   OH239097   3.436   5.016   5.079 -0.2503  0.9395 -0.3192
 5869TIP3    H139098   3.373   4.969   5.134 -0.0648  0.4586 -0.5135
 5869TIP3    H239099   3.435   4.969   4.996 -1.4473  2.3901 -1.1808
 5870TIP3   OH239100   6.075   1.200  16.835 -1.0751 -0.1389 -0.0879
 5870TIP3    H139101   6.137   1.263  16.799 -2.1092  1.1034  0.2343
 5870TIP3    H239102   6.074   1.218  16.929 -2.5638  0.4892 -0.1963
 5871TIP3   OH239103   1.015   6.828  13.263 -0.1693  0.0143  0.2272
 5871TIP3    H139104   1.049   6.748  13.302 -2.3189 -1.5789 -0.9871
 5871TIP3    H239105   0.940   6.800  13.211  0.9460  2.3359 -2.9764
 5872TIP3   OH239106   5.061   3.765  10.875 -0.0113  0.0226  0.5074
 5872TIP3    H139107   5.085   3.857  10.862  0.6987 -0.2390 -0.0997
 5872TIP3    H239108   5.013   3.741  10.795 -1.0787  0.1307  1.0905
 5873TIP3   OH239109   6.028   5.153   4.118 -0.4676 -0.0439  0.0627
 5873TIP3    H139110   6.021   5.081   4.056  2.7400 -0.0736 -0.3962
 5873TIP3    H239111   6.026   5.232   4.064  0.2303  0.0191  0.1229
 5874TIP3   OH239112   6.167   1.032   1.381 -0.2574 -0.3965  0.1941
 5874TIP3    H139113   6.138   0.976   1.309 -0.9591 -0.8271  0.7932
 5874TIP3    H239114   6.220   1.100   1.339 -1.1098 -0.3183 -0.7920
 5875TIP3   OH239115   6.357   2.138  13.264  0.2214  0.2256  0.5168
 5875TIP3    H139116   6.427   2.157  13.201 -0.9359  0.5251 -0.7167
 5875TIP3    H239117   6.380   2.053  13.300  0.9050  0.0510 -0.3067
 5876TIP3   OH239118   1.150   2.191   4.039  0.6534 -0.0986 -0.1074
 5876TIP3    H139119   1.178   2.143   3.960 -0.1703  0.5360 -0.8015
 5876TIP3    H239120   1.232   2.211   4.084  1.3088  1.0829 -1.7285
 5877TIP3   OH239121   3.600   0.036  16.816  0.2441  0.2165  0.3311
 5877TIP3    H139122   3.555  -0.001  16.740  0.5452 -0.3630  0.4303
 5877TIP3    H239123   3.530   0.075  16.869 -0.0894 -0.2856  0.2637
 5878TIP3   OH239124   2.349   3.476  12.333 -0.0364  0.0556  0.2248
 5878TIP3    H139125   2.344   3.500  12.241  0.8829 -2.8185 -0.6657
 5878TIP3    H239126   2.280   3.410  12.344 -0.2846  0.5258  1.6578
 5879TIP3   OH239127   6.316   0.656   5.587 -0.1830  0.2990 -0.0838
 5879TIP3    H139128   6.268   0.733   5.555  1.8949  0.3352 -3.5981
 5879TIP3    H239129   6.390   0.647   5.527  1.5641 -2.5245  2.2327
 5880TIP3   OH239130   3.350   0.479  13.849  0.1468  0.6025 -0.1641
 5880TIP3    H139131   3.302   0.478  13.767 -0.8621 -1.0218  0.4008
 5880TIP3    H239132   3.387   0.391  13.857 -1.2660  0.0926  1.8956
 5881TIP3   OH239133   0.846   1.988  14.107 -0.6159  0.3005  0.0350
 5881TIP3    H139134   0.901   2.044  14.053 -1.5989  0.5540 -0.7102
 5881TIP3    H239135   0.767   1.974  14.056 -0.7620 -1.0451  0.5865
 5882TIP3   OH239136   1.839   0.031  11.473  0.5353  0.2171  0.1840
 5882TIP3    H139137   1.757   0.008  11.431 -0.4425  0.8623  1.6466
 5882TIP3    H239138   1.839   0.127  11.476  0.9082  0.2079  0.9650
 5883TIP3   OH239139   1.377   1.761  14.889 -0.2159  0.1291 -0.2627
 5883TIP3    H139140   1.390   1.761  14.794  1.0605  1.0718 -0.1171
 5883TIP3    H239141   1.380   1.669  14.914 -0.4924 -0.1225 -1.1312
 5884TIP3   OH239142   5.130   1.504   3.653  0.1237 -0.1067 -0.1664
 5884TIP3    H139143   5.132   1.586   3.603  2.0050 -1.0409 -1.7814
 5884TIP3    H239144   5.153   1.529   3.742 -0.3601  1.2479 -0.4000
 5885TIP3   OH239145   4.201   2.164  16.949  0.0539  0.3092  0.6730
 5885TIP3    H139146   4.223   2.077  16.983 -0.5089  0.7648  2.3163
 5885TIP3    H239147   4.197   2.153  16.854  2.2958 -0.9075  0.6590
 5886TIP3   OH239148   1.243   0.439  15.318 -0.8624 -0.2469  0.6426
 5886TIP3    H139149   1.247   0.344  15.321 -0.0434 -0.2391 -0.0000
 5886TIP3    H239150   1.219   0.465  15.407  2.5835 -0.8687  1.8930
 5887TIP3   OH239151   5.234   6.800   0.571 -0.3721  0.2630 -0.2235
 5887TIP3    H139152   5.222   6.798   0.476 -0.7605 -1.3315 -0.1607
 5887TIP3    H239153   5.324   6.833   0.582  0.2005 -0.8911 -1.2045
 5888TIP3   OH239154   2.793   4.787   3.541  0.0006  0.2240  0.4746
 5888TIP3    H139155   2.728   4.781   3.471  0.9957 -2.3804 -0.3576
 5888TIP3    H239156   2.876   4.802   3.496  0.5960 -1.0689  1.0821
 5889TIP3   OH239157   3.699   6.360  12.680  0.1209  0.3233  0.1859
 5889TIP3    H139158   3.683   6.344  12.773 -1.8904 -1.4667 -0.3766
 5889TIP3    H239159   3.623   6.411  12.651 -1.1512 -2.1170 -1.1091
 5890TIP3   OH239160   2.896   1.661  16.446 -0.0220  0.4273  0.2092
 5890TIP3    H139161   2.985   1.651  16.410  1.1475 -0.4319  3.0381
 5890TIP3    H239162   2.900   1.741  16.498 -0.7132  0.0269  0.8888
 5891TIP3   OH239163   1.094   3.056   4.430  0.2671 -0.4791 -0.2317
 5891TIP3    H139164   1.025   3.023   4.372  1.1626 -0.1261 -1.5389
 5891TIP3    H239165   1.059   3.140   4.461  0.1877 -0.1796 -1.0852
 5892TIP3   OH239166   4.183   6.337  14.364 -0.2301 -0.3637 -0.0570
 5892TIP3    H139167   4.188   6.279  14.440  1.1330  1.0717  1.0104
 5892TIP3    H239168   4.256   6.308  14.308 -0.4112 -0.5638 -0.1913
 5893TIP3   OH239169   0.795   5.827   6.299 -0.1544 -0.2585  0.4007
 5893TIP3    H139170   0.759   5.861   6.217  0.5345 -0.2720  0.0873
 5893TIP3    H239171   0.752   5.879   6.367 -0.0777  0.3583 -0.0117
 5894TIP3   OH239172   3.560   2.581  13.545  0.5720  0.1077 -0.4953
 5894TIP3    H139173   3.621   2.529  13.493  1.4611  1.2348 -0.6106
 5894TIP3    H239174   3.500   2.619  13.480 -0.6832 -1.4760 -0.3331
 5895TIP3   OH239175   5.079   4.230   4.673 -0.0570 -0.1406 -0.2107
 5895TIP3    H139176   4.991   4.199   4.652 -0.3399 -0.0054  0.7635
 5895TIP3    H239177   5.135   4.192   4.604 -0.7915 -0.6451 -0.5356
 5896TIP3   OH239178   1.261   0.786   3.659 -0.3486  0.6972  0.4591
 5896TIP3    H139179   1.343   0.757   3.620  0.5243  1.0136  1.9696
 5896TIP3    H239180   1.287   0.826   3.743 -2.0811  0.3815  1.1929
 5897TIP3   OH239181   2.033   0.581   5.725  0.2393 -0.0166 -0.0665
 5897TIP3    H139182   1.949   0.627   5.732  1.7098  2.7829  0.8249
 5897TIP3    H239183   2.066   0.579   5.815  1.1602 -1.0457 -0.4039
 5898TIP3   OH239184   5.000   3.820   1.636 -0.2558 -0.5680  0.8793
 5898TIP3    H139185   4.994   3.852   1.726  1.2452 -0.5063  0.9709
 5898TIP3    H239186   4.999   3.724   1.645  0.7295 -0.5706  1.0390
 5899TIP3   OH239187   3.619   1.013   2.170  0.0458  0.5178  0.5847
 5899TIP3    H139188   3.669   0.994   2.090  0.5003  0.2682  0.9280
 5899TIP3    H239189   3.626   1.107   2.181  0.3642  0.4930  0.5867
 5900TIP3   OH239190   3.196   2.297   3.210 -0.1950 -0.9228  0.2651
 5900TIP3    H139191   3.172   2.356   3.139  0.4895 -0.4099  0.4460
 5900TIP3    H239192   3.181   2.209   3.175 -2.4610 -0.6646  0.4388
 5901TIP3   OH239193   2.876   4.811  14.899  0.5023  0.5901 -0.0912
 5901TIP3    H139194   2.970   4.792  14.897  0.3169 -0.3700 -1.0331
 5901TIP3    H239195   2.846   4.792  14.810 -0.5844  0.8727  0.1988
 5902TIP3   OH239196   5.354   1.643  13.672  0.0532 -0.1333 -0.2715
 5902TIP3    H139197   5.264   1.619  13.650  0.5171 -1.4849 -0.7900
 5902TIP3    H239198   5.397   1.560  13.694  1.6380  0.2280 -1.7321
 5903TIP3   OH239199   3.935   1.576   3.623 -0.5777 -0.1380 -0.0186
 5903TIP3    H139200   3.968   1.487   3.636  0.9435  0.4789  0.5904
 5903TIP3    H239201   3.953   1.596   3.531  1.6661  0.4752  0.4734
 5904TIP3   OH239202   4.805   3.345   3.737 -0.3077 -0.2488 -0.3095
 5904TIP3    H139203   4.779   3.328   3.827 -0.2421  1.2271  0.0095
 5904TIP3    H239204   4.856   3.268   3.711  1.0242 -0.0019  1.4366
 5905TIP3   OH239205   0.558   6.376  16.725 -0.3110 -0.1522 -0.6102
 5905TIP3    H139206   0.653   6.374  16.716 -0.3804 -1.1645 -1.3527
 5905TIP3    H239207   0.526   6.335  16.644 -1.3927  0.6738 -0.6164
 5906TIP3   OH239208   2.296   1.985   1.183 -0.6291  0.1580  0.0246
 5906TIP3    H139209   2.344   1.968   1.102  2.7198  0.1898  1.8343
 5906TIP3    H239210   2.204   1.971   1.160  0.3772 -2.5579 -3.0805
 5907TIP3   OH239211   1.772   3.372  14.489  0.3925 -0.1553  0.3093
 5907TIP3    H139212   1.837   3.343  14.553  1.3063  0.4810 -0.3190
 5907TIP3    H239213   1.775   3.467  14.493  1.5765 -0.0481 -1.7527
 5908TIP3   OH239214   5.368   3.725   1.609  0.0585  0.2963  0.0783
 5908TIP3    H139215   5.447   3.754   1.564 -0.1484  0.7619  0.0035
 5908TIP3    H239216   5.347   3.797   1.669  0.2637 -0.2624  0.8414
 5909TIP3   OH239217   0.483   0.993  13.984  0.0001  0.0247 -0.4202
 5909TIP3    H139218   0.538   0.931  14.032 -0.2417 -0.7865 -1.1556
 5909TIP3    H239219   0.540   1.068  13.968 -0.2643  0.8525  2.1430
 5910TIP3   OH239220   5.507   1.149  14.779 -0.1426 -0.3921 -0.4949
 5910TIP3    H139221   5.426   1.108  14.750 -1.6952  0.7524  1.8741
 5910TIP3    H239222   5.486   1.242  14.786  0.9035 -0.2376  1.4639
 5911TIP3   OH239223   2.271   4.925   5.661 -0.2981  0.3548 -0.6076
 5911TIP3    H139224   2.309   4.839   5.640 -2.5861 -0.7369 -0.5556
 5911TIP3    H239225   2.261   4.968   5.577  0.1931  0.2828 -0.7057
 5912TIP3   OH239226   2.652   3.564   2.971  0.2754  0.2632 -0.0292
 5912TIP3    H139227   2.596   3.530   2.901 -0.4713  2.1105 -0.3896
 5912TIP3    H239228   2.592   3.583   3.043  0.6376  0.9463  0.0998
 5913TIP3   OH239229   5.926   0.444  15.898 -0.3297  0.3959 -0.0264
 5913TIP3    H139230   5.916   0.366  15.843  0.4869  1.0710 -1.1909
 5913TIP3    H239231   5.927   0.517  15.836 -2.6855  1.5161  1.1523
 5914TIP3   OH239232   1.613   5.709  13.969  0.0307 -0.2870  0.2748
 5914TIP3    H139233   1.541   5.682  14.026 -0.4390  0.8390  0.2504
 5914TIP3    H239234   1.610   5.647  13.896 -1.5672  0.3194 -0.2143
 5915TIP3   OH239235   1.357   4.915   2.658  0.1210  0.1105 -0.2086
 5915TIP3    H139236   1.404   4.838   2.623 -0.4891 -0.2453 -0.2518
 5915TIP3    H239237   1.425   4.965   2.704  1.0500  0.7866 -2.1883
 5916TIP3   OH239238   6.063   0.890   4.425 -0.7047  0.3950  0.6128
 5916TIP3    H139239   6.108   0.865   4.345 -0.5144 -2.2654  1.4385
 5916TIP3    H239240   5.986   0.832   4.428  0.6430 -1.5039  3.5212
 5917TIP3   OH239241   5.442   1.499   4.204  0.4647 -0.2841  0.2583
 5917TIP3    H139242   5.500   1.496   4.128 -0.6043 -0.4985 -0.5610
 5917TIP3    H239243   5.366   1.446   4.179 -0.5944  0.8972  0.8814
 5918TIP3   OH239244   2.206   5.282  14.304 -0.2822  0.1975 -0.6470
 5918TIP3    H139245   2.116   5.302  14.330  0.2773  0.3822  1.3308
 5918TIP3    H239246   2.245   5.367  14.284  0.1592  0.4523  1.0973
 5919TIP3   OH239247   5.266   2.672   5.772  0.1706 -0.5863 -0.2813
 5919TIP3    H139248   5.266   2.665   5.677  0.2778  0.9309 -0.4261
 5919TIP3    H239249   5.198   2.610   5.801 -0.5659 -0.3477 -1.4117
 5920TIP3   OH239250   1.674   1.463   1.895  0.3253  0.2500 -0.3594
 5920TIP3    H139251   1.750   1.496   1.847 -0.0589 -1.0003 -1.9218
 5920TIP3    H239252   1.611   1.440   1.827 -0.6285 -0.7427  0.8066
 5921TIP3   OH239253   0.730   6.555   0.967 -0.4597  1.0843  0.3293
 5921TIP3    H139254   0.718   6.464   0.992 -1.1406  0.3914 -2.2123
 5921TIP3    H239255   0.820   6.575   0.991 -0.5193 -0.0347  1.5582
 5922TIP3   OH239256   3.426   2.668   2.225  0.4707  0.0680  0.0587
 5922TIP3    H139257   3.343   2.683   2.180  0.6794 -0.6165 -0.5575
 5922TIP3    H239258   3.406   2.685   2.317 -0.1972  0.5211 -0.1642
 5923TIP3   OH239259   3.667   1.806  11.416 -0.0157 -0.1789 -0.3390
 5923TIP3    H139260   3.654   1.714  11.437  0.9320 -0.1906  0.2521
 5923TIP3    H239261   3.734   1.805  11.347 -0.0284  0.0725 -0.3553
 5924TIP3   OH239262   5.248   4.347  10.669 -0.2056 -0.8941 -0.7363
 5924TIP3    H139263   5.244   4.438  10.642  1.4039  0.0730  1.8462
 5924TIP3    H239264   5.158   4.316  10.667 -0.7834  0.7797 -1.6009
 5925TIP3   OH239265   3.197   1.409  12.617 -0.1378 -0.2777 -0.4088
 5925TIP3    H139266   3.253   1.484  12.596 -0.4727 -0.0655 -0.5412
 5925TIP3    H239267   3.253   1.333  12.603  1.1208  0.0200  2.3743
 5926TIP3   OH239268   0.657   5.403  11.486  0.3280  0.2855 -0.9334
 5926TIP3    H139269   0.628   5.494  11.483  0.6244  0.3613 -2.0820
 5926TIP3    H239270   0.584   5.355  11.524 -0.1272  0.8962 -1.0291
 5927TIP3   OH239271   3.972   2.295  15.742 -0.8893  0.2923 -0.4162
 5927TIP3    H139272   3.920   2.235  15.794 -0.0792  0.8593  1.1008
 5927TIP3    H239273   4.047   2.244  15.713 -1.0089  0.1562 -0.4900
 5928TIP3   OH239274   1.014   5.843   5.530 -0.5808 -0.6737 -0.8117
 5928TIP3    H139275   1.041   5.908   5.466  0.7013 -0.4465 -0.0651
 5928TIP3    H239276   1.083   5.777   5.529 -1.7268 -1.9035 -1.3556
 5929TIP3   OH239277   0.346   3.580  17.087  0.4101  0.0633  0.1127
 5929TIP3    H139278   0.251   3.593  17.082  0.3863  0.9742  1.8492
 5929TIP3    H239279   0.358   3.485  17.081 -0.9022 -0.3516  2.5659
 5930TIP3   OH239280   6.291   2.695   6.211  0.5532  0.1260  0.5294
 5930TIP3    H139281   6.228   2.624   6.219  1.6439 -0.6979  2.7371
 5930TIP3    H239282   6.249   2.759   6.153 -2.5591 -0.0802  2.3577
 5931TIP3   OH239283   4.534   2.174   0.387 -0.4954  0.0366 -0.1005
 5931TIP3    H139284   4.563   2.175   0.478 -0.8864 -2.6071  0.1512
 5931TIP3    H239285   4.577   2.097   0.350 -2.0263 -0.1775 -1.5314
 5932TIP3   OH239286   3.254   6.378  16.402 -0.3473 -0.5564  0.3249
 5932TIP3    H139287   3.274   6.284  16.408  1.6417 -0.1437  0.8990
 5932TIP3    H239288   3.235   6.393  16.310 -1.5992 -1.6776  0.3796
 5933TIP3   OH239289   3.490   4.212  14.953  0.1716  0.1429  0.1669
 5933TIP3    H139290   3.476   4.133  14.901 -2.6698  1.0179 -0.5767
 5933TIP3    H239291   3.447   4.194  15.036  0.2897  0.5791  0.3225
 5934TIP3   OH239292   6.757   6.596   1.304  0.6823 -0.0840  0.9309
 5934TIP3    H139293   6.693   6.527   1.319 -2.3819  2.2662 -0.1791
 5934TIP3    H239294   6.833   6.570   1.355 -1.0764 -3.1829  2.2325
 5935TIP3   OH239295   5.034   5.642  16.752 -0.1168  0.1945 -0.5340
 5935TIP3    H139296   4.972   5.584  16.796  0.1862  0.2536 -0.0085
 5935TIP3    H239297   5.120   5.603  16.770  0.1572  1.1603  0.4306
 5936TIP3   OH239298   1.620   3.298   2.559 -0.2347  0.4246  0.1698
 5936TIP3    H139299   1.684   3.350   2.608 -1.0321  0.1009  1.6030
 5936TIP3    H239300   1.610   3.217   2.610 -0.2797 -0.4320 -1.1257
 5937TIP3   OH239301   4.064   3.435   3.224  0.0757  0.2462 -0.1379
 5937TIP3    H139302   4.155   3.426   3.253  0.1642 -0.3605 -0.5852
 5937TIP3    H239303   4.017   3.368   3.273  0.0365 -0.0667 -0.6035
 5938TIP3   OH239304   5.610   6.734   0.006 -0.3135 -0.4931 -0.3965
 5938TIP3    H139305   5.615   6.763  -0.085 -0.5697 -0.0806 -0.2809
 5938TIP3    H239306   5.533   6.676   0.009 -0.6451 -0.0540 -0.3214
 5939TIP3   OH239307   3.909   0.339   0.958  0.3770 -0.0145  0.4561
 5939TIP3    H139308   3.935   0.276   0.891  2.3495  0.0826  1.0892
 5939TIP3    H239309   3.873   0.284   1.029  0.4623 -0.2822  0.2939
 5940TIP3   OH239310   5.095   5.754  15.874 -0.5056  0.5622 -0.4826
 5940TIP3    H139311   5.105   5.678  15.932 -1.1281 -0.8455 -2.1434
 5940TIP3    H239312   5.181   5.796  15.876 -0.2397  0.0281  0.7389
 5941TIP3   OH239313   0.425   4.948  13.291  0.6628 -0.4313  0.1967
 5941TIP3    H139314   0.379   4.891  13.229  0.2193  0.0920  0.0463
 5941TIP3    H239315   0.356   4.998  13.333  1.0731  0.1519  0.1784
 5942TIP3   OH239316   4.718   0.137   0.912 -0.6607  0.3561  0.0831
 5942TIP3    H139317   4.809   0.108   0.920 -0.5707  0.6493  0.1261
 5942TIP3    H239318   4.667   0.057   0.920 -0.3298 -0.0990 -1.8647
 5943TIP3   OH239319   4.327   1.727  11.610 -0.0176 -0.1368  0.4244
 5943TIP3    H139320   4.273   1.794  11.653  0.0738 -0.0315  0.3752
 5943TIP3    H239321   4.264   1.659  11.584 -0.3106  0.5525 -0.7412
 5944TIP3   OH239322   0.058   2.779  16.712  0.1227 -0.4470 -0.0249
 5944TIP3    H139323  -0.017   2.832  16.736 -0.2799 -1.6453  1.5032
 5944TIP3    H239324   0.133   2.837  16.725 -0.4264  0.3152 -0.1888
 5945TIP3   OH239325   1.165   2.919  17.002 -0.4611 -0.1366 -0.1549
 5945TIP3    H139326   1.135   2.898  17.091 -1.7216 -1.0028 -0.7407
 5945TIP3    H239327   1.136   3.009  16.987  1.2371  0.6282  0.8792
 5946TIP3   OH239328   3.321   0.035  16.273  1.0667 -0.5699 -0.3313
 5946TIP3    H139329   3.337  -0.042  16.327 -0.1881 -1.0356 -0.5792
 5946TIP3    H239330   3.227   0.053  16.284  1.0177 -0.0221 -1.4982
 5947TIP3   OH239331   2.201   1.286   1.958  0.0440 -0.3148 -1.3480
 5947TIP3    H139332   2.255   1.325   1.890  1.4983 -1.4000 -0.8723
 5947TIP3    H239333   2.214   1.192   1.948  0.4040 -0.4939  0.4800
 5948TIP3   OH239334   3.580   3.096  14.915 -0.0837  0.4391  0.0342
 5948TIP3    H139335   3.518   3.028  14.888  1.0746 -1.0593  1.0000
 5948TIP3    H239336   3.631   3.115  14.836  0.0012 -0.2995 -0.0980
 5949TIP3   OH239337   6.566   5.698   1.071  0.0165  0.0888  0.0267
 5949TIP3    H139338   6.603   5.638   1.007  0.5102  0.3566  0.0543
 5949TIP3    H239339   6.544   5.777   1.021 -1.2907 -0.3689 -0.1393
 5950TIP3   OH239340   3.261   4.955   7.214 -0.2508 -0.3303  0.1325
 5950TIP3    H139341   3.267   4.963   7.119 -0.6632 -0.0920  0.1250
 5950TIP3    H239342   3.249   4.861   7.229  0.1439 -0.4082 -0.0308
 5951TIP3   OH239343   0.142   0.903  14.944 -0.2478 -0.1280  0.3346
 5951TIP3    H139344   0.208   0.935  14.882 -0.2206 -1.1362 -0.1888
 5951TIP3    H239345   0.090   0.980  14.966  0.2362  0.4022 -0.3367
 5952TIP3   OH239346   0.593   4.032   0.424  0.7946  0.1199  0.3269
 5952TIP3    H139347   0.557   4.048   0.511  2.6949  1.9717  0.8509
 5952TIP3    H239348   0.518   4.042   0.365 -0.4951 -1.0310  1.6682
 5953TIP3   OH239349   6.664   4.770  11.480 -0.4226  0.7954 -0.3652
 5953TIP3    H139350   6.685   4.832  11.551 -0.6116  2.1250 -1.4310
 5953TIP3    H239351   6.717   4.800  11.406 -0.1931 -0.6044 -0.7860
 5954TIP3   OH239352   6.351   3.258  14.474 -0.1733 -0.2803 -0.1428
 5954TIP3    H139353   6.443   3.249  14.501  0.1124 -0.1954 -1.0457
 5954TIP3    H239354   6.322   3.167  14.461  0.0537 -0.2766 -0.7080
 5955TIP3   OH239355   1.058   0.416  12.230  0.1312  0.3643  0.0695
 5955TIP3    H139356   0.969   0.406  12.262 -0.8269  1.2267 -2.1606
 5955TIP3    H239357   1.105   0.457  12.303 -0.9725 -1.0542  1.6672
 5956TIP3   OH239358   4.606   5.036   2.933 -0.1289  0.6464  0.1992
 5956TIP3    H139359   4.521   5.043   2.977  0.3418 -0.6380  1.3668
 5956TIP3    H239360   4.670   5.060   2.999  0.5379 -0.4575 -0.0160
 5957TIP3   OH239361   4.313   0.651  14.828 -0.1377 -0.0277  0.1875
 5957TIP3    H139362   4.221   0.627  14.836 -0.1748  0.0317 -0.0376
 5957TIP3    H239363   4.340   0.613  14.744  0.0714 -0.1365  0.3048
 5958TIP3   OH239364   2.662   1.581   1.807 -0.6705  0.3337  0.2491
 5958TIP3    H139365   2.733   1.518   1.800  1.4628  2.5322  0.7264
 5958TIP3    H239366   2.653   1.597   1.901 -2.5083 -0.5986  0.2782
 5959TIP3   OH239367   2.064   5.649   4.127  0.0220  0.6022 -0.3808
 5959TIP3    H139368   1.990   5.655   4.188  0.9797 -1.4572  1.0846
 5959TIP3    H239369   2.089   5.740   4.111  1.0897  1.3585  4.0836
 5960TIP3   OH239370   3.971   3.472  13.645 -0.8902 -0.0716  0.3377
 5960TIP3    H139371   4.004   3.421  13.719 -2.0012 -0.4500  0.5931
 5960TIP3    H239372   4.026   3.445  13.571  0.1054  0.1750  0.9750
 5961TIP3   OH239373   6.108   0.173   3.306  0.2833  0.1661  0.8698
 5961TIP3    H139374   6.153   0.123   3.374  0.8582  0.7612  0.9290
 5961TIP3    H239375   6.158   0.154   3.226  1.2365  1.5735  1.1045
 5962TIP3   OH239376   0.197   5.634  14.971  0.2247 -0.0436 -0.2022
 5962TIP3    H139377   0.160   5.713  15.011  2.4354  0.0447  1.8887
 5962TIP3    H239378   0.258   5.667  14.905 -1.0000 -0.1323 -1.4301
 5963TIP3   OH239379   5.885   6.748  17.006 -0.2780  0.7697  0.0125
 5963TIP3    H139380   5.835   6.796  17.072 -0.0230  0.0727  0.7361
 5963TIP3    H239381   5.967   6.725  17.051 -0.6373 -0.8649 -0.0772
 5964TIP3   OH239382   4.655   3.819  14.386 -0.0891 -0.1531  0.0153
 5964TIP3    H139383   4.630   3.886  14.321  0.5933  0.9629  0.8845
 5964TIP3    H239384   4.687   3.868  14.461 -0.5796 -1.4388  1.1092
 5965TIP3   OH239385   1.792   0.180   4.579 -0.5409 -0.0281  0.7825
 5965TIP3    H139386   1.762   0.093   4.606 -1.2541  0.3459  1.2449
 5965TIP3    H239387   1.818   0.170   4.488  1.7674 -1.2933  1.5131
 5966TIP3   OH239388   3.586   0.858  11.954 -0.2434 -0.0307  0.2290
 5966TIP3    H139389   3.555   0.774  11.987 -0.2109  0.0201  0.3865
 5966TIP3    H239390   3.680   0.857  11.970 -0.2840  0.1467  0.4718
 5967TIP3   OH239391   2.104   5.644   1.126 -0.1508  0.2391  0.0470
 5967TIP3    H139392   2.191   5.604   1.132  0.4710  1.5872  0.3353
 5967TIP3    H239393   2.056   5.588   1.064  0.6500 -0.9743  0.4866
 5968TIP3   OH239394   6.106   4.767  13.012  0.5122 -0.5834 -0.2407
 5968TIP3    H139395   6.050   4.778  12.936  1.0112  0.8639 -0.4266
 5968TIP3    H239396   6.178   4.711  12.982  0.4129 -0.4770 -0.6758
 5969TIP3   OH239397   4.404   5.674   6.182 -0.5554 -0.6854 -0.1959
 5969TIP3    H139398   4.416   5.766   6.159 -0.3997 -0.1134  1.9162
 5969TIP3    H239399   4.309   5.662   6.185 -0.5797 -0.4418  0.0362
 5970TIP3   OH239400   5.050   2.250   1.007 -0.1400  0.4564  0.0997
 5970TIP3    H139401   5.086   2.336   0.986  2.7251 -0.2589  1.6369
 5970TIP3    H239402   5.008   2.262   1.093 -0.1687  0.4174  0.0914
 5971TIP3   OH239403   5.998   4.639  16.272 -0.0663 -0.1246 -0.1148
 5971TIP3    H139404   5.915   4.625  16.227 -0.3165 -0.4854  0.4424
 5971TIP3    H239405   6.028   4.552  16.295  1.1895 -0.1026 -1.5481
 5972TIP3   OH239406   1.166   1.452  14.888  0.8246  0.2181  0.3815
 5972TIP3    H139407   1.208   1.450  14.802  1.9873 -1.7123  0.9272
 5972TIP3    H239408   1.104   1.525  14.883  0.8289  0.1318 -2.0911
 5973TIP3   OH239409   1.784   6.317  15.618 -0.3716  0.1913  0.1306
 5973TIP3    H139410   1.838   6.278  15.687  0.1052  0.0757 -0.2975
 5973TIP3    H239411   1.843   6.322  15.543 -0.7038  0.8798 -0.0880
 5974TIP3   OH239412   4.660   2.673   4.889 -0.2896 -0.0219 -0.2298
 5974TIP3    H139413   4.720   2.732   4.842  0.0263 -0.7952 -0.8215
 5974TIP3    H239414   4.598   2.644   4.821 -0.2983 -0.5505  0.0026
 5975TIP3   OH239415   1.192   6.274   5.160 -0.2703 -0.9121  0.1224
 5975TIP3    H139416   1.121   6.304   5.102  2.5632  0.7729 -2.8111
 5975TIP3    H239417   1.211   6.349   5.216 -0.3994 -1.1666  0.5149
 5976TIP3   OH239418   5.656   3.659  15.957 -0.2156 -0.5663 -1.0159
 5976TIP3    H139419   5.671   3.637  15.865  1.1177  0.2977 -1.0333
 5976TIP3    H239420   5.721   3.727  15.976 -1.4147  0.2914  0.1714
 5977TIP3   OH239421   2.986   1.333  14.450  0.4260 -0.0506 -0.9644
 5977TIP3    H139422   2.973   1.240  14.468  1.7362 -0.0044  0.4432
 5977TIP3    H239423   2.982   1.376  14.535 -1.1725  1.3729 -1.6804
 5978TIP3   OH239424   2.544   0.007   4.633 -0.5029 -0.0508 -0.0265
 5978TIP3    H139425   2.574   0.014   4.542 -1.1848 -0.4282 -0.2872
 5978TIP3    H239426   2.449  -0.002   4.627 -0.7625  1.7870  0.8159
 5979TIP3   OH239427   3.748   4.026  14.539  0.2604 -0.4419 -0.3680
 5979TIP3    H139428   3.656   4.047  14.557  0.5087  0.0596  0.3430
 5979TIP3    H239429   3.781   4.102  14.492  0.6669 -0.0442  0.5609
 5980TIP3   OH239430   6.514   6.312   5.386  0.0575 -0.3922 -0.1371
 5980TIP3    H139431   6.460   6.297   5.464  0.4070 -0.0943  0.1667
 5980TIP3    H239432   6.465   6.375   5.334  0.0672 -0.1860  0.0996
 5981TIP3   OH239433   5.418   3.443   2.111 -0.0440  0.1104 -0.1096
 5981TIP3    H139434   5.358   3.411   2.178  0.1264 -1.1410 -0.5241
 5981TIP3    H239435   5.410   3.380   2.039  1.0122  0.4831 -0.5784
 5982TIP3   OH239436   6.779   3.790  16.354  0.1450  0.0713 -0.0682
 5982TIP3    H139437   6.847   3.826  16.297  0.0097  0.2568 -0.1167
 5982TIP3    H239438   6.810   3.703  16.378  1.4894  0.9791  1.7221
 5983TIP3   OH239439   4.195   1.610  13.060 -0.5944 -0.3098 -0.0463
 5983TIP3    H139440   4.234   1.597  12.974  1.3525 -1.6965  0.9631
 5983TIP3    H239441   4.139   1.533  13.073 -0.1882 -0.5534  0.2750
 5984TIP3   OH239442   6.066   1.825  11.686  0.8399 -0.2491  0.4373
 5984TIP3    H139443   5.998   1.774  11.642  1.3576  0.2128 -0.9704
 5984TIP3    H239444   6.025   1.854  11.768 -0.2289 -1.0030  0.1912
 5985TIP3   OH239445   5.638   6.691   2.442 -0.0307 -1.0434  0.3528
 5985TIP3    H139446   5.591   6.737   2.372  1.0899  1.9072  1.4016
 5985TIP3    H239447   5.569   6.658   2.500 -0.8859 -0.1243 -0.1152
 5986TIP3   OH239448   1.575   1.060   4.754  0.0871 -0.1520 -0.5774
 5986TIP3    H139449   1.644   1.127   4.756  0.3335 -0.4189  0.0186
 5986TIP3    H239450   1.616   0.984   4.713  0.5604 -0.7530  0.9684
 5987TIP3   OH239451   4.706   1.934  12.924  0.5391  0.5264 -0.4761
 5987TIP3    H139452   4.722   1.890  12.841  1.6646  0.3687 -0.1997
 5987TIP3    H239453   4.780   1.908  12.979 -0.6720 -0.1314  0.9026
 5988TIP3   OH239454   4.867   1.669  14.061  0.2263 -0.3248 -0.1635
 5988TIP3    H139455   4.838   1.754  14.095  0.8673  0.2758 -1.0772
 5988TIP3    H239456   4.788   1.615  14.062 -0.2105  0.3052  0.3367
 5989TIP3   OH239457   0.644   3.803   6.035 -0.3985  0.3599  0.2589
 5989TIP3    H139458   0.673   3.796   6.126  0.6769 -0.7031 -0.1378
 5989TIP3    H239459   0.602   3.889   6.030  1.9635  1.6543  1.0876
 5990TIP3   OH239460   0.912   4.822  15.944  0.3629 -0.1357 -0.3951
 5990TIP3    H139461   0.894   4.799  16.036  1.2744 -1.2700 -0.4783
 5990TIP3    H239462   0.912   4.918  15.943 -1.0967 -0.0974  0.4877
 5991TIP3   OH239463   1.777   2.825   2.684 -0.3733  0.2818 -0.0027
 5991TIP3    H139464   1.872   2.819   2.687 -0.3815 -0.9244 -1.0043
 5991TIP3    H239465   1.759   2.876   2.605 -0.5610  3.9913  2.1983
 5992TIP3   OH239466   4.947   2.126  14.257  0.3157 -0.0810  0.3684
 5992TIP3    H139467   4.989   2.125  14.171  1.0318 -2.0713  0.6891
 5992TIP3    H239468   4.854   2.136  14.238  0.6215  1.5554 -0.4977
 5993TIP3   OH239469   5.329   4.140  17.075  0.3280 -0.6026  0.1808
 5993TIP3    H139470   5.262   4.074  17.094  0.0879 -0.6542 -0.7958
 5993TIP3    H239471   5.333   4.143  16.980  0.5574  0.5781  0.2173
 5994TIP3   OH239472   4.384   6.059  14.760 -0.2838 -0.7456 -0.3566
 5994TIP3    H139473   4.398   6.115  14.836  0.0386 -0.4865 -0.6009
 5994TIP3    H239474   4.388   5.970  14.795 -0.7651 -0.6194  0.0285
 5995TIP3   OH239475   2.371   2.987  12.398 -0.7538  0.1883  0.6205
 5995TIP3    H139476   2.386   3.007  12.490  2.3955 -0.6522  0.4129
 5995TIP3    H239477   2.442   3.031  12.351 -1.5034 -0.4728 -1.2606
 5996TIP3   OH239478   3.717   0.285  16.418 -0.3521  0.9625 -0.3475
 5996TIP3    H139479   3.792   0.286  16.477  1.1461  2.0176 -2.1714
 5996TIP3    H239480   3.664   0.360  16.446  0.1285  1.2120 -0.0791
 5997TIP3   OH239481   4.440   3.728   6.171 -0.0536  0.1495  0.4202
 5997TIP3    H139482   4.514   3.758   6.118 -0.3874 -0.6080 -0.4819
 5997TIP3    H239483   4.477   3.659   6.227  0.4132  1.2859  1.5753
 5998TIP3   OH239484   5.321   4.881   4.643  0.0126  0.6936 -0.1403
 5998TIP3    H139485   5.229   4.879   4.619 -0.5460 -0.8094  1.8390
 5998TIP3    H239486   5.323   4.931   4.725  1.1703  1.8320 -0.8275
 5999TIP3   OH239487   5.323   3.337  12.185  0.5067 -0.1022 -0.1796
 5999TIP3    H139488   5.294   3.424  12.211 -0.4323 -0.4676  0.0270
 5999TIP3    H239489   5.289   3.279  12.254  3.0658 -0.3943  0.9871
 6000TIP3   OH239490   5.596   5.894  13.670  0.2204  0.5840 -0.7206
 6000TIP3    H139491   5.577   5.854  13.585 -0.6862  1.5116 -0.9842
 6000TIP3    H239492   5.532   5.965  13.678  2.3848  2.6642 -0.7312
 6001TIP3   OH239493   1.210   2.664   5.261  0.2823 -0.3970 -0.2920
 6001TIP3    H139494   1.288   2.710   5.291  0.5053 -0.3844 -0.8665
 6001TIP3    H239495   1.233   2.633   5.173  0.1727 -1.6882  0.1205
 6002TIP3   OH239496   2.359   1.509   3.251  0.3895 -0.2257  0.5807
 6002TIP3    H139497   2.264   1.516   3.254  0.4307  1.5372 -0.8760
 6002TIP3    H239498   2.377   1.420   3.280 -1.4909  0.2977  3.9278
 6003TIP3   OH239499   3.275   3.257   5.169 -0.6678  0.7192 -0.1366
 6003TIP3    H139500   3.271   3.163   5.187 -0.7549  0.0532 -3.1682
 6003TIP3    H239501   3.186   3.281   5.145 -0.6513  1.6047  0.6445
 6004TIP3   OH239502   3.185   2.255   3.796 -0.0132  0.0251  0.3486
 6004TIP3    H139503   3.231   2.336   3.776  0.3468 -0.4951 -1.0669
 6004TIP3    H239504   3.139   2.273   3.878  0.3609  1.5251  0.2600
 6005TIP3   OH239505   5.409   5.467   5.444 -0.6801  0.2089  0.2193
 6005TIP3    H139506   5.320   5.433   5.452 -0.9273  0.8740  0.3570
 6005TIP3    H239507   5.400   5.561   5.460 -0.0014  0.3300 -0.0871
 6006TIP3   OH239508   6.033   4.001   1.314  0.1952 -0.1773 -0.2765
 6006TIP3    H139509   5.984   4.036   1.389 -0.5512 -3.1812  0.8022
 6006TIP3    H239510   5.968   3.997   1.243  0.0286 -0.2273 -0.1233
 6007TIP3   OH239511   4.374   1.373   1.242 -0.0096  0.5767 -0.6791
 6007TIP3    H139512   4.431   1.448   1.224  2.1573 -1.3167 -2.1822
 6007TIP3    H239513   4.418   1.325   1.312  0.3728 -0.9707 -1.9261
 6008TIP3   OH239514   0.953   5.340  16.013  0.3372 -0.3159 -0.1511
 6008TIP3    H139515   1.019   5.288  16.058 -0.8665 -0.4460  1.5718
 6008TIP3    H239516   0.914   5.394  16.081 -0.1195  1.0892 -1.4536
 6009TIP3   OH239517   0.487   4.311   2.046  0.4153 -0.0027 -0.1431
 6009TIP3    H139518   0.493   4.278   1.957  4.2030  1.7400 -0.7214
 6009TIP3    H239519   0.466   4.404   2.036  1.0152  0.2424  0.7307
 6010TIP3   OH239520   1.289   3.390   0.735  0.3512 -0.2108  0.4334
 6010TIP3    H139521   1.206   3.361   0.773  1.4219 -1.1719  2.1464
 6010TIP3    H239522   1.339   3.424   0.809  1.9259 -0.7181 -0.3586
 6011TIP3   OH239523   4.060   5.646  11.092 -0.5075  0.9595  0.3474
 6011TIP3    H139524   4.001   5.707  11.136  1.5428  1.1268  3.1700
 6011TIP3    H239525   4.109   5.701  11.031  0.3643  1.9608  1.8714
 6012TIP3   OH239526   6.573   3.180   2.098  0.4590  0.7042 -0.3028
 6012TIP3    H139527   6.563   3.163   2.192 -0.0814  0.5517 -0.3839
 6012TIP3    H239528   6.583   3.094   2.059  0.7280  0.7709 -0.3853
 6013TIP3   OH239529   0.608   1.941  13.971 -0.3965  0.4293 -0.8107
 6013TIP3    H139530   0.519   1.934  14.006  0.2502 -1.5508  0.6074
 6013TIP3    H239531   0.608   1.885  13.893  0.7430 -3.7410  1.9019
 6014TIP3   OH239532   6.478   2.768  16.914 -0.1438  0.5364  0.5090
 6014TIP3    H139533   6.470   2.676  16.890 -4.6464  1.0304 -0.8475
 6014TIP3    H239534   6.411   2.781  16.981 -0.0758  2.9110  0.2037
 6015TIP3   OH239535   6.473   6.546  16.211  0.0093  0.3404  0.1691
 6015TIP3    H139536   6.507   6.458  16.198 -0.1418 -0.0625  2.1885
 6015TIP3    H239537   6.408   6.537  16.281  0.0863  2.0747  0.5215
 6016TIP3   OH239538   1.803   5.689   4.265 -0.1410 -0.0758  0.4425
 6016TIP3    H139539   1.795   5.700   4.360 -2.6969  0.9495  0.1944
 6016TIP3    H239540   1.762   5.768   4.228 -0.5429 -1.1326 -1.4966
 6017TIP3   OH239541   5.850   4.110  14.211  0.2077  0.3096 -0.7740
 6017TIP3    H139542   5.792   4.062  14.152  0.3088  0.3999 -0.9502
 6017TIP3    H239543   5.921   4.048  14.230 -0.7624 -0.3774  0.7441
 6018TIP3   OH239544   4.238   4.390   2.095 -0.8534  0.1697  0.0023
 6018TIP3    H139545   4.216   4.375   2.186 -1.6954  1.4282  0.0388
 6018TIP3    H239546   4.154   4.386   2.049 -0.2799 -1.9453 -0.9879
 6019TIP3   OH239547   5.720   1.997   5.150  0.1432 -0.1288 -0.5850
 6019TIP3    H139548   5.795   2.056   5.162  1.3216 -1.2111 -2.2166
 6019TIP3    H239549   5.648   2.055   5.125  0.9043  0.7820 -0.7383
 6020TIP3   OH239550   3.564   6.417   2.141 -0.2302  0.3814  0.2178
 6020TIP3    H139551   3.547   6.500   2.096  0.2779  0.0617 -0.5779
 6020TIP3    H239552   3.477   6.381   2.158 -0.4333  0.5720 -0.3894
 6021TIP3   OH239553   2.500   1.003   4.679 -0.0909 -0.0975  0.0144
 6021TIP3    H139554   2.539   1.010   4.592  1.7532 -1.2999  0.6769
 6021TIP3    H239555   2.485   1.094   4.706  3.4766  0.5983  0.1615
 6022TIP3   OH239556   5.427   5.526   3.184  0.0500 -0.0347  0.2290
 6022TIP3    H139557   5.356   5.468   3.156 -0.7577  0.5086  1.1045
 6022TIP3    H239558   5.407   5.610   3.143  2.2188 -0.7264 -2.6032
 6023TIP3   OH239559   3.740   4.064   2.147  0.3311 -0.5984  0.0084
 6023TIP3    H139560   3.671   4.043   2.084 -1.1969  1.2091  0.9681
 6023TIP3    H239561   3.764   4.155   2.126 -0.6073  0.2445  2.2937
 6024TIP3   OH239562   5.121   0.319   5.464  0.0045  0.1953 -0.8532
 6024TIP3    H139563   5.027   0.320   5.444 -0.3749 -0.5996  0.6898
 6024TIP3    H239564   5.148   0.229   5.446  0.0137 -0.0941  0.4561
 6025TIP3   OH239565   0.225   0.816  17.191  0.2656 -0.0328  0.3456
 6025TIP3    H139566   0.134   0.789  17.174 -0.1221 -0.1008  2.3571
 6025TIP3    H239567   0.223   0.912  17.186 -0.2796  0.0621  1.8352
 6026TIP3   OH239568   1.876   4.449   5.369 -0.6639  0.6834 -0.6780
 6026TIP3    H139569   1.941   4.379   5.371 -2.4579 -1.0457 -0.3081
 6026TIP3    H239570   1.928   4.529   5.375  1.3307 -0.6301  4.1460
 6027TIP3   OH239571   6.585   5.947   2.296 -0.2777  0.1799  0.3608
 6027TIP3    H139572   6.611   6.001   2.222  0.5913  0.8568  1.1312
 6027TIP3    H239573   6.560   6.010   2.364  0.1022 -0.3911  1.0497
 6028TIP3   OH239574   4.884   1.610  11.149 -0.0873  0.2980  0.0290
 6028TIP3    H139575   4.929   1.527  11.166 -0.2653  0.4774  1.5053
 6028TIP3    H239576   4.833   1.593  11.070  0.6981 -0.6614 -0.3015
 6029TIP3   OH239577   4.200   2.660  16.237 -0.1597 -0.3642 -0.7145
 6029TIP3    H139578   4.257   2.626  16.307 -2.9187 -0.5312  1.6226
 6029TIP3    H239579   4.201   2.755  16.251 -1.7625 -0.4921  0.5108
 6030TIP3   OH239580   6.253   1.986   3.145  0.7014  0.1565 -0.5587
 6030TIP3    H139581   6.168   2.001   3.187  1.1395  2.2950 -0.3186
 6030TIP3    H239582   6.232   1.939   3.064 -0.3551 -2.2104  0.9515
 6031TIP3   OH239583   4.786   5.864   2.922 -0.0260  0.4695 -0.3196
 6031TIP3    H139584   4.876   5.886   2.897  0.4125 -0.3062  0.5302
 6031TIP3    H239585   4.795   5.799   2.991 -1.2023  1.6747  1.0508
 6032TIP3   OH239586   5.145   4.796   2.165 -0.6866  0.8333  0.3074
 6032TIP3    H139587   5.163   4.886   2.194 -1.5846  1.4080 -0.8645
 6032TIP3    H239588   5.215   4.744   2.205 -0.2839  2.0115  1.1875
 6033TIP3   OH239589   3.687   5.042  13.946  0.6249 -0.8541  0.1445
 6033TIP3    H139590   3.624   5.041  13.874  0.3634  1.0374  0.2894
 6033TIP3    H239591   3.756   4.982  13.918 -0.1389 -1.2203 -1.0483
 6034TIP3   OH239592   4.434   3.591  15.097  0.1456  0.5147 -0.0636
 6034TIP3    H139593   4.401   3.659  15.155 -0.0239  0.5642 -0.2184
 6034TIP3    H239594   4.471   3.525  15.156  0.4353  0.8047  0.0808
 6035TIP3   OH239595   1.052   5.314   1.360  0.6478  0.0465  0.3211
 6035TIP3    H139596   0.998   5.285   1.287  2.6353  0.1639 -1.2718
 6035TIP3    H239597   1.128   5.256   1.358  2.0663  1.8312  0.5471
 6036TIP3   OH239598   2.496   6.529  16.986 -0.5764 -0.4712 -0.4455
 6036TIP3    H139599   2.585   6.527  16.952  0.0712 -1.0575  1.1631
 6036TIP3    H239600   2.498   6.596  17.054 -2.2080  1.7315 -2.4023
 6037TIP3   OH239601   2.182   4.838   6.392  0.2724 -0.2426  0.3230
 6037TIP3    H139602   2.172   4.751   6.431  1.1685 -0.4214  0.1826
 6037TIP3    H239603   2.257   4.829   6.333 -0.5497  0.2310 -0.8429
 6038TIP3   OH239604   1.916   3.145   6.632 -0.7245 -0.0410 -0.1124
 6038TIP3    H139605   1.841   3.180   6.584 -1.2416 -1.4239 -0.3490
 6038TIP3    H239606   1.879   3.077   6.689  0.0553  0.7109  1.3507
 6039TIP3   OH239607   2.372   3.458  14.573  0.1991  0.7294  0.1739
 6039TIP3    H139608   2.381   3.414  14.657  0.1788 -0.5100 -0.4463
 6039TIP3    H239609   2.459   3.454  14.534  0.3306  1.7450  0.3312
 6040TIP3   OH239610   3.624   5.695  15.379  0.2725  1.3492 -0.4516
 6040TIP3    H139611   3.716   5.722  15.381  1.6821 -2.8157 -0.2592
 6040TIP3    H239612   3.595   5.703  15.470  2.6315 -3.0860  1.0062
 6041TIP3   OH239613   5.905   2.237   2.326  0.5640 -0.0727 -0.0506
 6041TIP3    H139614   5.813   2.261   2.329 -0.2078 -2.4639 -1.8170
 6041TIP3    H239615   5.951   2.320   2.312 -1.4396  1.0122 -0.5857
 6042TIP3   OH239616   3.192   1.561   1.025  0.1998 -0.4507  0.2419
 6042TIP3    H139617   3.112   1.587   1.070 -0.9815 -1.1518 -1.3548
 6042TIP3    H239618   3.246   1.522   1.094 -1.7669 -2.0125  0.9964
 6043TIP3   OH239619   0.235   2.038   0.251 -0.3654  0.3854  0.4276
 6043TIP3    H139620   0.258   2.031   0.344  0.3247  2.5186  0.4831
 6043TIP3    H239621   0.303   1.989   0.205 -0.0634  0.2666  0.9871
 6044TIP3   OH239622   6.459   5.022   4.093  0.0247 -0.1633  0.0100
 6044TIP3    H139623   6.459   5.030   4.188 -0.9915  2.0041 -0.0938
 6044TIP3    H239624   6.513   4.946   4.075  0.2923 -0.5969  2.3110
 6045TIP3   OH239625   3.264   3.251  15.115  0.3189 -0.7611 -0.3831
 6045TIP3    H139626   3.246   3.313  15.185  1.5686 -0.3052 -0.4481
 6045TIP3    H239627   3.349   3.277  15.081  0.1296 -1.5186 -1.4927
 6046TIP3   OH239628   1.255   2.508  15.595  0.5333  0.2221  0.8916
 6046TIP3    H139629   1.302   2.587  15.571  3.4598 -0.2398  4.2282
 6046TIP3    H239630   1.164   2.537  15.605  0.9456  2.4061 -0.7897
 6047TIP3   OH239631   3.702   2.233   4.695 -0.2678 -0.0968 -0.4711
 6047TIP3    H139632   3.691   2.202   4.605 -0.0508  0.9434 -0.8681
 6047TIP3    H239633   3.617   2.216   4.737 -0.3780 -0.5601 -0.8818
 6048TIP3   OH239634   0.350   4.171  14.786  0.1754 -0.1927  0.4960
 6048TIP3    H139635   0.282   4.179  14.719  0.9836 -0.2629 -0.3538
 6048TIP3    H239636   0.392   4.257  14.788  0.1600 -0.1939  0.9140
 6049TIP3   OH239637   0.635   5.445   5.940 -0.5512 -0.1861 -0.0555
 6049TIP3    H139638   0.587   5.525   5.922 -1.8459 -0.9943 -0.2728
 6049TIP3    H239639   0.633   5.437   6.036 -2.1178 -0.9428 -0.1204
 6050TIP3   OH239640   1.767   0.188   2.033 -0.4150  0.1555  0.5043
 6050TIP3    H139641   1.678   0.159   2.013 -0.3412  1.1516 -1.4719
 6050TIP3    H239642   1.816   0.173   1.953  0.6805  1.6225  0.8494
 6051TIP3   OH239643   5.665   1.765  11.906 -0.1533  0.2943  0.0226
 6051TIP3    H139644   5.682   1.802  11.819 -2.1441  2.2597  0.4013
 6051TIP3    H239645   5.577   1.726  11.899  0.0911 -0.4643  0.8893
 6052TIP3   OH239646   3.416   3.702   6.650  0.4252 -0.5869 -0.5491
 6052TIP3    H139647   3.352   3.731   6.715  0.5871  0.5059 -0.8571
 6052TIP3    H239648   3.383   3.737   6.567  0.4714 -1.5633 -0.9876
 6053TIP3   OH239649   4.139   3.684   6.958 -0.1120  0.2947 -0.2650
 6053TIP3    H139650   4.146   3.606   6.904  0.1958  0.5740 -0.6345
 6053TIP3    H239651   4.229   3.715   6.969 -0.3482  1.5273 -1.5213
 6054TIP3   OH239652   2.056   1.693   3.342  0.3884  0.0890 -0.0200
 6054TIP3    H139653   2.108   1.669   3.265 -0.6311  1.6095 -1.2539
 6054TIP3    H239654   2.083   1.783   3.361  0.7809 -0.3417  1.5717
 6055TIP3   OH239655   5.392   0.284   1.635  0.4412 -0.0042  0.0008
 6055TIP3    H139656   5.407   0.378   1.620  1.2454 -0.3264 -1.3651
 6055TIP3    H239657   5.444   0.240   1.569  0.4847 -1.4600  0.9458
 6056TIP3   OH239658   2.874   0.728   3.098 -0.2865 -0.0081 -0.5624
 6056TIP3    H139659   2.784   0.713   3.068  0.1100  0.6413 -2.2273
 6056TIP3    H239660   2.905   0.800   3.042  1.5106 -0.7450 -0.5567
 6057TIP3   OH239661   1.967   6.228  12.543 -0.4309  0.2722 -0.6835
 6057TIP3    H139662   2.023   6.151  12.546 -1.1206 -0.2401 -0.7302
 6057TIP3    H239663   2.024   6.301  12.567  1.1053  0.2513 -3.7653
 6058TIP3   OH239664   6.446   6.772   0.953 -0.4148  0.2762 -0.2011
 6058TIP3    H139665   6.518   6.723   0.993 -0.9402  0.9196  1.6423
 6058TIP3    H239666   6.390   6.796   1.026 -1.5560  1.3648 -1.3766
 6059TIP3   OH239667   1.324   4.498   5.049  0.1745 -0.1914  0.5253
 6059TIP3    H139668   1.285   4.439   4.984  1.5084  0.8210 -1.3048
 6059TIP3    H239669   1.411   4.518   5.014  0.3846  1.5749  1.9043
 6060TIP3   OH239670   1.235   2.830  14.361 -0.5825 -0.4305  0.1846
 6060TIP3    H139671   1.237   2.771  14.286 -1.7066  0.9109 -0.9760
 6060TIP3    H239672   1.149   2.817  14.400  0.0572 -1.2337  1.3670
 6061TIP3   OH239673   3.371   5.442  14.223  0.0937  0.4947  0.5329
 6061TIP3    H139674   3.404   5.391  14.297 -0.6787 -1.5548 -0.4641
 6061TIP3    H239675   3.444   5.447  14.162  0.9525  2.7673  1.6270
 6062TIP3   OH239676   4.981   0.564   4.002  0.5326 -0.0315  0.2628
 6062TIP3    H139677   4.968   0.497   3.935 -3.1722  0.6310  0.1282
 6062TIP3    H239678   4.899   0.565   4.051  2.2016  1.2442  3.2737
 6063TIP3   OH239679   4.620   0.880  14.851  0.3039 -0.4174 -0.3434
 6063TIP3    H139680   4.666   0.871  14.935 -0.0160 -0.1849 -0.1373
 6063TIP3    H239681   4.652   0.963  14.815  0.0368 -0.2432 -0.1880
 6064TIP3   OH239682   0.211   3.433   1.257  0.4592 -0.3308 -0.1291
 6064TIP3    H139683   0.250   3.509   1.301 -1.2517  0.6337 -0.1818
 6064TIP3    H239684   0.228   3.360   1.317  0.6178  0.4394  0.7992
 6065TIP3   OH239685   4.174   3.200  16.933 -0.1489 -0.6061  0.2159
 6065TIP3    H139686   4.236   3.192  17.005 -0.2448 -1.8682  0.1893
 6065TIP3    H239687   4.180   3.116  16.887 -1.7546 -0.7023  0.1227
 6066TIP3   OH239688   2.304   0.148   0.144  0.9675  0.3013 -0.3452
 6066TIP3    H139689   2.252   0.068   0.155  1.5087  0.0722  0.6577
 6066TIP3    H239690   2.330   0.147   0.052  0.8193 -0.5853 -0.3880
 6067TIP3   OH239691   6.376   0.279   1.796  0.5757 -0.4056  0.0867
 6067TIP3    H139692   6.285   0.275   1.825  0.1585 -0.2249 -1.1396
 6067TIP3    H239693   6.417   0.343   1.854  0.2717 -1.4689  1.5284
 6068TIP3   OH239694   0.162   2.998   0.110  0.4035  0.0512 -0.0481
 6068TIP3    H139695   0.226   3.020   0.178  1.1822 -0.2221 -0.6671
 6068TIP3    H239696   0.156   2.902   0.113  0.2914  0.0513 -0.2272
 6069TIP3   OH239697   4.044   3.481  16.259 -0.0191  0.7761 -0.0275
 6069TIP3    H139698   4.093   3.436  16.327  0.4968  0.6511 -0.4719
 6069TIP3    H239699   4.107   3.492  16.188 -1.1013 -1.0086 -1.3459
 6070TIP3   OH239700   4.108   6.765  13.855  0.1620 -0.4703 -0.0571
 6070TIP3    H139701   4.040   6.703  13.883 -0.0287  0.2092  1.0532
 6070TIP3    H239702   4.141   6.729  13.773 -2.1529 -0.3609 -1.1145
 6071TIP3   OH239703   1.254   2.848  13.897 -0.3097 -0.3738  0.2590
 6071TIP3    H139704   1.282   2.933  13.864  0.0182 -0.6845 -0.2971
 6071TIP3    H239705   1.188   2.819  13.834  1.7525 -1.8734 -1.3719
 6072TIP3   OH239706   4.043   1.526  15.381 -0.2101 -0.0634  0.1317
 6072TIP3    H139707   4.031   1.477  15.300  0.4982  0.1311 -0.1054
 6072TIP3    H239708   4.080   1.462  15.443 -0.7902 -0.2223  0.3185
 6073TIP3   OH239709   0.036   5.290   0.123 -0.6855  0.3246 -0.6526
 6073TIP3    H139710   0.109   5.253   0.073 -1.1498 -0.4184 -0.7861
 6073TIP3    H239711   0.078   5.349   0.186  0.0730 -0.4861 -0.3759
 6074TIP3   OH239712   0.714   6.193   2.064  0.2299 -0.0445 -0.0039
 6074TIP3    H139713   0.645   6.143   2.108  1.2871 -1.5609 -0.0284
 6074TIP3    H239714   0.710   6.279   2.106 -0.4671 -0.6697  1.2978
 6075TIP3   OH239715   3.269   2.349   6.478  0.7602  0.0242 -0.4908
 6075TIP3    H139716   3.275   2.305   6.393 -0.7744  0.3354 -0.7857
 6075TIP3    H239717   3.336   2.417   6.475  0.8163 -0.0658 -1.3901
 6076TIP3   OH239718   2.963   3.893   2.164  0.1377 -0.5594 -0.1440
 6076TIP3    H139719   3.004   3.956   2.104 -0.1476 -0.1641  0.0732
 6076TIP3    H239720   2.871   3.892   2.139 -0.5823  1.7158  2.0551
 6077TIP3   OH239721   2.223   5.774  10.736 -0.1232  0.2720  0.3768
 6077TIP3    H139722   2.306   5.774  10.688 -0.2780  0.6438  0.1012
 6077TIP3    H239723   2.215   5.864  10.768 -0.0273  0.0319  1.0866
 6078TIP3   OH239724   3.851   2.902  12.877 -0.2807 -0.1696 -0.1421
 6078TIP3    H139725   3.817   2.876  12.963 -0.3909 -1.0837 -0.4414
 6078TIP3    H239726   3.910   2.830  12.853 -1.8480 -1.0031 -1.7336
 6079TIP3   OH239727   0.799   3.128   6.183  0.2378 -0.3309 -0.1411
 6079TIP3    H139728   0.880   3.121   6.132  0.1463  1.9408 -0.7229
 6079TIP3    H239729   0.751   3.201   6.142 -1.4419 -0.6772  1.0915
 6080TIP3   OH239730   0.673   0.484  16.796 -0.2674  0.6801 -0.4198
 6080TIP3    H139731   0.662   0.571  16.835  0.9669  0.2639  0.9278
 6080TIP3    H239732   0.588   0.441  16.808 -0.4795  1.2316  0.0904
 6081TIP3   OH239733   1.250   0.771   5.128  0.4271 -0.4006 -0.1759
 6081TIP3    H139734   1.314   0.773   5.200 -1.9062  2.9993  2.1271
 6081TIP3    H239735   1.251   0.680   5.098  3.7094 -1.3071  2.1123
 6082TIP3   OH239736   5.602   2.349  13.241  0.1027  0.6721  0.0504
 6082TIP3    H139737   5.556   2.327  13.322  0.1353  1.5042  0.3046
 6082TIP3    H239738   5.582   2.442  13.227  2.2139  1.2328  0.5041
 6083TIP3   OH239739   5.752   4.580  14.869 -0.1830 -0.4331 -0.1702
 6083TIP3    H139740   5.703   4.635  14.807  0.4651 -0.5892 -0.8255
 6083TIP3    H239741   5.761   4.635  14.947 -3.0222 -1.0547  0.7070
 6084TIP3   OH239742   2.793   6.500  15.503  0.0630  0.4048 -0.4614
 6084TIP3    H139743   2.850   6.482  15.578 -1.2520  0.0152  0.4909
 6084TIP3    H239744   2.779   6.594  15.506  0.0523  0.3971 -0.2335
 6085TIP3   OH239745   5.421   5.167   5.673  0.1441 -0.0963  0.0155
 6085TIP3    H139746   5.496   5.216   5.640 -0.2864 -0.5583 -1.7806
 6085TIP3    H239747   5.460   5.086   5.708  0.4922 -0.6979 -1.6228
 6086TIP3   OH239748   4.110   5.882   1.323  0.6874  0.2791 -0.4504
 6086TIP3    H139749   4.187   5.896   1.267  0.0111  0.0113 -1.4755
 6086TIP3    H239750   4.108   5.788   1.338 -0.5289 -0.0077 -2.0929
 6087TIP3   OH239751   0.171   2.537  11.356 -0.2451  0.0088 -0.2789
 6087TIP3    H139752   0.233   2.593  11.404 -0.0486  0.6002 -1.2031
 6087TIP3    H239753   0.088   2.547  11.404  0.2578 -0.4496  0.7102
 6088TIP3   OH239754   6.003   4.951   0.132 -0.7032  0.4869 -0.2953
 6088TIP3    H139755   6.081   4.932   0.081  0.1156  1.1650  0.6676
 6088TIP3    H239756   5.964   5.028   0.090  0.5231  1.6664  0.6639
 6089TIP3   OH239757   4.634   4.086   2.201 -0.1652 -0.0203 -0.6901
 6089TIP3    H139758   4.618   4.018   2.136 -0.9897 -0.8541  0.3571
 6089TIP3    H239759   4.548   4.126   2.215 -0.3271 -0.8922  1.0032
 6090TIP3   OH239760   2.196   6.309   6.098  0.0263  0.5141  0.1305
 6090TIP3    H139761   2.196   6.405   6.092 -1.1405  0.5415  0.3810
 6090TIP3    H239762   2.103   6.285   6.098  0.2958 -0.7124 -1.4088
 6091TIP3   OH239763   1.062   0.998   1.617 -0.5750  0.2533 -0.5914
 6091TIP3    H139764   1.064   0.927   1.681  0.2803 -0.9447 -1.8933
 6091TIP3    H239765   1.152   1.031   1.616 -0.8630  1.0827 -0.3255
 6092TIP3   OH239766   2.677   2.412   2.097  0.3219  0.2774  0.4107
 6092TIP3    H139767   2.640   2.350   2.159  0.2226  0.2806  0.3559
 6092TIP3    H239768   2.603   2.435   2.039  0.7623 -0.9032 -0.6717
 6093TIP3   OH239769   0.933   2.449  11.737  0.0631  0.2027  0.1044
 6093TIP3    H139770   0.846   2.411  11.750  0.5881 -1.8479 -1.7604
 6093TIP3    H239771   0.918   2.543  11.740 -2.4661 -0.0526 -1.3078
 6094TIP3   OH239772   4.889   0.228  16.204  0.7368  0.0007  0.1063
 6094TIP3    H139773   4.865   0.320  16.194 -1.1387 -0.3269  1.2372
 6094TIP3    H239774   4.906   0.217  16.297  0.1748 -0.9497  0.1130
 6095TIP3   OH239775   4.034   1.869   3.981  0.9613  0.3626 -0.2312
 6095TIP3    H139776   3.975   1.801   3.947 -0.0551  0.3982  1.3189
 6095TIP3    H239777   4.122   1.837   3.961  0.4729 -0.8777 -0.4998
 6096TIP3   OH239778   1.851   6.750   5.061  0.2788  0.2410  0.1493
 6096TIP3    H139779   1.760   6.731   5.085  0.0559 -1.2855 -1.7072
 6096TIP3    H239780   1.860   6.716   4.972  1.4814  4.1101 -1.4035
 6097TIP3   OH239781   2.323   6.439   4.176  0.8604  0.2245  0.0047
 6097TIP3    H139782   2.257   6.425   4.108  2.1684  0.9572 -1.4664
 6097TIP3    H239783   2.302   6.525   4.212  0.8189  0.3170 -0.2387
 6098TIP3   OH239784   5.347   4.220   5.602  0.6001  0.0478 -0.2816
 6098TIP3    H139785   5.282   4.240   5.670  1.5864  0.3819  0.5769
 6098TIP3    H239786   5.396   4.146   5.637  2.1618  1.2163  0.1198
 6099TIP3   OH239787   1.904   0.774  11.532  0.3094  0.0418 -0.2412
 6099TIP3    H139788   1.864   0.800  11.449  1.1037 -1.6331 -1.2068
 6099TIP3    H239789   1.906   0.678  11.528 -0.9695 -0.1848  2.3594
 6100TIP3   OH239790   0.443   1.262  16.691  0.0607  0.1145 -0.4900
 6100TIP3    H139791   0.535   1.237  16.697  0.1870  0.6529 -0.1353
 6100TIP3    H239792   0.444   1.347  16.646 -0.3359 -0.3093 -1.3219
 6101TIP3   OH239793   3.023   5.665  17.104 -0.2513  0.0411  0.6642
 6101TIP3    H139794   3.029   5.757  17.078  0.9101 -0.6378 -1.7269
 6101TIP3    H239795   3.102   5.651  17.158  0.5297  0.0529 -0.4377
 6102TIP3   OH239796   6.701   4.016   5.511 -0.0485  0.3095  0.0199
 6102TIP3    H139797   6.764   3.969   5.456 -0.5505 -0.9329  0.4703
 6102TIP3    H239798   6.658   3.948   5.563  0.1895  1.4163  1.7556
 6103TIP3   OH239799   6.196   4.121  10.632 -0.0367  0.6466 -0.4016
 6103TIP3    H139800   6.134   4.078  10.574  0.2419 -0.9204  0.3909
 6103TIP3    H239801   6.266   4.152  10.575  2.1933 -4.1743 -0.7821
 6104TIP3   OH239802   4.615   1.647   4.788 -0.2176 -1.1815  0.3611
 6104TIP3    H139803   4.620   1.565   4.837 -0.0436 -2.3968 -1.5560
 6104TIP3    H239804   4.540   1.635   4.729 -0.4720  0.2294  0.3631
 6105TIP3   OH239805   0.369   3.041   5.531 -0.3550  0.3730 -0.5150
 6105TIP3    H139806   0.463   3.060   5.534 -0.1868  0.0989 -2.7930
 6105TIP3    H239807   0.362   2.964   5.474 -1.9939  0.5778 -0.6277
 6106TIP3   OH239808   3.495   3.066  13.305  0.4106 -0.2369 -0.0223
 6106TIP3    H139809   3.445   3.142  13.333 -1.9834 -1.3528 -0.9875
 6106TIP3    H239810   3.492   3.069  13.209  1.2988 -0.9216 -0.0878
 6107TIP3   OH239811   1.911   0.405  16.092 -0.1016 -0.2149  0.3877
 6107TIP3    H139812   1.831   0.402  16.145  0.2071 -0.7917  0.8297
 6107TIP3    H239813   1.881   0.388  16.003 -0.4455 -0.6634  0.5863
 6108TIP3   OH239814   5.145   1.448  10.686  0.2016  0.3704  0.4864
 6108TIP3    H139815   5.076   1.405  10.736  0.4656  0.9916  1.3971
 6108TIP3    H239816   5.117   1.439  10.594 -1.2651  0.9147  0.8562
 6109TIP3   OH239817   5.757   0.472  15.078 -0.0671  0.0859  0.0564
 6109TIP3    H139818   5.808   0.431  15.147 -0.4433 -1.4471 -0.5435
 6109TIP3    H239819   5.669   0.479  15.114  0.1705  1.1441  0.4564
 6110TIP3   OH239820   3.825   4.325  12.227  0.3879  0.3979  0.6549
 6110TIP3    H139821   3.798   4.336  12.319  0.7726  1.0248  0.6936
 6110TIP3    H239822   3.784   4.398  12.181 -0.3203 -0.2621  0.2026
 6111TIP3   OH239823   0.785   4.585  13.744  0.0720 -0.2827  0.2091
 6111TIP3    H139824   0.784   4.643  13.668 -0.3449  0.6159  0.8854
 6111TIP3    H239825   0.755   4.640  13.817  0.5665 -1.0970  1.0489
 6112TIP3   OH239826   6.639   6.264   4.607 -0.3116 -0.4433  0.1719
 6112TIP3    H139827   6.600   6.239   4.691 -2.3448 -0.4549 -0.7164
 6112TIP3    H239828   6.647   6.359   4.611 -0.3914 -0.4460  0.3817
 6113TIP3   OH239829   4.215   4.861   0.498  0.2195  0.0925  0.7472
 6113TIP3    H139830   4.167   4.872   0.416 -3.1121 -1.8359  2.2241
 6113TIP3    H239831   4.224   4.766   0.509 -1.3167  0.1318  3.4595
 6114TIP3   OH239832   4.796   4.005  16.696 -0.0671 -1.2782 -0.0419
 6114TIP3    H139833   4.839   3.986  16.779 -0.0150  2.4287  0.9512
 6114TIP3    H239834   4.857   3.973  16.629 -0.1115 -4.3478  1.1818
 6115TIP3   OH239835   0.120   3.407  13.110  0.2078  0.7437 -0.2206
 6115TIP3    H139836   0.158   3.480  13.060 -2.1267  1.8100 -0.5779
 6115TIP3    H239837   0.142   3.427  13.201 -1.6323  2.7850 -0.1445
 6116TIP3   OH239838   0.599   0.048  16.873 -0.2879  0.2305 -0.2070
 6116TIP3    H139839   0.537  -0.014  16.834 -0.5610  0.7559 -0.6238
 6116TIP3    H239840   0.581   0.045  16.967 -1.2704  0.7181 -0.3685
 6117TIP3   OH239841   6.762   0.353  10.599 -0.0292  0.5819  0.7553
 6117TIP3    H139842   6.714   0.277  10.630 -1.1474  2.1820  3.2726
 6117TIP3    H239843   6.806   0.388  10.676 -0.3280  3.0094 -0.0620
 6118TIP3   OH239844   0.751   0.415   3.842  0.2696  0.2271 -0.0869
 6118TIP3    H139845   0.805   0.470   3.898  0.7196 -1.9073  1.7625
 6118TIP3    H239846   0.799   0.333   3.836 -1.2712 -0.6638 -1.0405
 6119TIP3   OH239847   0.900   1.354  11.626 -1.3267  0.4647 -0.1556
 6119TIP3    H139848   0.980   1.405  11.636 -0.3719 -0.2766 -3.0336
 6119TIP3    H239849   0.929   1.263  11.625 -1.6691  0.2433 -3.9547
 6120TIP3   OH239850   3.173   4.754   0.749  0.0535  0.5569  0.7065
 6120TIP3    H139851   3.202   4.701   0.675 -0.2005 -1.9525  2.2680
 6120TIP3    H239852   3.146   4.837   0.711 -0.2024 -0.6861 -2.0090
 6121TIP3   OH239853   3.490   3.829  13.599  0.1521  0.1496  0.1609
 6121TIP3    H139854   3.418   3.782  13.642  0.5128  0.2535  0.8872
 6121TIP3    H239855   3.569   3.782  13.625  0.3077 -0.3678 -1.1764
 6122TIP3   OH239856   0.131   0.790  14.312  0.2459  0.1676 -0.1366
 6122TIP3    H139857   0.094   0.721  14.256 -0.5169  1.3845 -1.1836
 6122TIP3    H239858   0.146   0.747  14.396  1.6521 -1.7986 -1.3121
 6123TIP3   OH239859   1.412   1.852  13.194 -0.3280  0.3898  0.4312
 6123TIP3    H139860   1.487   1.844  13.135 -0.3284 -0.7286  0.5561
 6123TIP3    H239861   1.361   1.924  13.158  0.3754  0.6238 -0.1379
 6124TIP3   OH239862   4.540   3.192   3.948 -0.3181  0.7868 -0.1377
 6124TIP3    H139863   4.490   3.164   3.872 -1.2834 -0.3359  0.8793
 6124TIP3    H239864   4.508   3.138   4.020  3.2407 -0.9310  0.3648
 6125TIP3   OH239865   5.454   5.678   4.246  0.9644 -0.1916 -0.3411
 6125TIP3    H139866   5.453   5.652   4.338 -2.6893  0.7796  0.0336
 6125TIP3    H239867   5.416   5.604   4.199 -1.2985  0.9280 -0.4017
 6126TIP3   OH239868   0.899   2.358   3.012 -0.2891 -0.0921 -0.3720
 6126TIP3    H139869   0.905   2.444   2.970  1.0438 -0.6266 -1.3200
 6126TIP3    H239870   0.811   2.357   3.050  0.4636  2.6585  1.8091
 6127TIP3   OH239871   3.328   5.467   0.759 -0.1610  0.4329  0.1616
 6127TIP3    H139872   3.364   5.500   0.676 -1.3925 -1.4250 -1.2007
 6127TIP3    H239873   3.348   5.373   0.757 -2.4761 -0.1290  0.6990
 6128TIP3   OH239874   3.050   2.377  16.973  0.0481  0.6052  0.2391
 6128TIP3    H139875   3.106   2.317  16.923 -0.8452 -0.4807  0.4939
 6128TIP3    H239876   2.963   2.337  16.969 -0.1025  0.5892  2.4834
 6129TIP3   OH239877   0.595   4.307  10.811 -0.3725  0.1595 -0.3483
 6129TIP3    H139878   0.680   4.289  10.770 -0.5704 -0.2024 -0.6035
 6129TIP3    H239879   0.595   4.402  10.824  0.3806  0.0740  0.3464
 6130TIP3   OH239880   0.476   0.322   2.932  0.3348 -0.0135 -0.0358
 6130TIP3    H139881   0.513   0.410   2.928 -0.2329  0.3804  2.1683
 6130TIP3    H239882   0.396   0.328   2.880  0.1995  0.8220  0.2521
 6131TIP3   OH239883   4.081   5.933   0.666 -0.9090 -0.3179 -0.3094
 6131TIP3    H139884   4.044   5.987   0.736 -2.3569 -1.6066  0.0011
 6131TIP3    H239885   4.088   5.991   0.591  0.9351  1.1771  0.9355
 6132TIP3   OH239886   5.874   4.144   3.172  0.4787 -0.0441 -0.1184
 6132TIP3    H139887   5.840   4.206   3.108  0.9484 -0.5339 -0.8483
 6132TIP3    H239888   5.803   4.081   3.185  1.3808 -1.6316 -2.3710
 6133TIP3   OH239889   4.984   6.294   3.980  0.3011 -1.0406  0.1845
 6133TIP3    H139890   4.914   6.234   4.006 -0.0432 -0.2887  1.0528
 6133TIP3    H239891   5.062   6.258   4.022  0.1679 -1.0906  0.3914
 6134TIP3   OH239892   6.475   3.237   4.171 -0.4903  0.1013  0.5775
 6134TIP3    H139893   6.460   3.145   4.194 -1.0767 -0.5847 -2.1309
 6134TIP3    H239894   6.570   3.245   4.163 -0.4758 -0.4473  0.1809
 6135TIP3   OH239895   6.103   4.110  15.392 -0.2360  0.3275  0.3322
 6135TIP3    H139896   6.135   4.169  15.460  1.4916 -1.2265  0.9477
 6135TIP3    H239897   6.126   4.152  15.310 -0.7881  1.4002  0.7049
 6136TIP3   OH239898   3.123   3.233   3.862  0.3856 -0.2911  0.1230
 6136TIP3    H139899   3.154   3.179   3.935  3.7257 -0.5201 -1.2818
 6136TIP3    H239900   3.159   3.320   3.879  1.1645 -0.3340 -1.1697
 6137TIP3   OH239901   3.574   5.269   2.907 -0.4955  0.2565  0.5004
 6137TIP3    H139902   3.655   5.319   2.901 -1.3421  1.6109 -0.2878
 6137TIP3    H239903   3.505   5.335   2.912 -1.6715 -0.8197 -0.5103
 6138TIP3   OH239904   3.914   5.680   5.740  0.1268  0.3916 -0.2317
 6138TIP3    H139905   3.875   5.625   5.673  0.9827  0.4908 -0.8233
 6138TIP3    H239906   4.002   5.645   5.753  1.3299  2.5559 -1.8336
 6139TIP3   OH239907   5.935   5.686  13.938 -0.4359 -0.5501  0.5009
 6139TIP3    H139908   5.862   5.635  13.903 -0.4136  0.2235 -0.7032
 6139TIP3    H239909   5.925   5.773  13.900  1.8778 -0.7778 -0.8453
 6140TIP3   OH239910   3.076   3.991   1.472  0.1936 -0.0351  0.3151
 6140TIP3    H139911   3.042   3.902   1.461  0.0462  0.0378  0.1643
 6140TIP3    H239912   3.023   4.028   1.542 -0.1774  0.1444 -0.0542
 6141TIP3   OH239913   6.652   3.827   0.966  0.0351 -0.4049  0.1387
 6141TIP3    H139914   6.738   3.866   0.952 -0.1074  0.0752  0.5689
 6141TIP3    H239915   6.594   3.874   0.907  0.0671 -0.7202 -0.1425
 6142TIP3   OH239916   3.851   4.552   1.427 -0.6509 -0.0065 -0.7403
 6142TIP3    H139917   3.866   4.507   1.344  1.3624  0.3237 -0.5982
 6142TIP3    H239918   3.933   4.541   1.476 -0.6352  2.4957 -0.0769
 6143TIP3   OH239919   1.859   5.807   1.436  0.1550  0.1612 -0.0251
 6143TIP3    H139920   1.823   5.831   1.521  1.7039 -1.3727  1.1524
 6143TIP3    H239921   1.920   5.735   1.456 -1.5156 -2.2234 -2.7915
 6144TIP3   OH239922   1.796   1.163  15.189 -0.0354 -0.0280 -0.4185
 6144TIP3    H139923   1.719   1.135  15.139 -0.6455  0.7365  0.0627
 6144TIP3    H239924   1.850   1.084  15.195 -0.9718 -0.6950 -0.4150
 6145TIP3   OH239925   1.343   4.208  12.664  0.2349  0.1536 -0.1105
 6145TIP3    H139926   1.367   4.117  12.645 -0.6027 -1.1191  3.9790
 6145TIP3    H239927   1.249   4.212  12.646 -0.3312 -0.7266  2.3578
 6146TIP3   OH239928   6.659   5.969   2.736 -0.4758 -0.5017  0.1333
 6146TIP3    H139929   6.704   6.022   2.669 -1.2773 -0.7706 -0.6306
 6146TIP3    H239930   6.703   5.993   2.818  0.1684  0.2351 -0.4055
 6147TIP3   OH239931   5.725   4.195   2.049  0.6282 -0.2223  0.4712
 6147TIP3    H139932   5.676   4.277   2.058 -0.2537 -0.4688 -1.6806
 6147TIP3    H239933   5.758   4.178   2.138 -1.1941  1.1851  1.5024
 6148TIP3   OH239934   1.861   1.159  12.726 -0.1779 -0.4356 -0.2379
 6148TIP3    H139935   1.890   1.204  12.805 -1.0216  2.4913 -1.4348
 6148TIP3    H239936   1.832   1.073  12.756  0.4984  0.1671  2.4351
 6149TIP3   OH239937   1.767   5.198  17.170  0.7996 -1.0058 -0.4126
 6149TIP3    H139938   1.695   5.174  17.112  0.1546 -1.0461  0.3969
 6149TIP3    H239939   1.814   5.116  17.184  1.2587 -0.9013 -1.2700
 6150TIP3   OH239940   0.934   5.225  16.557  0.3454 -0.1479 -0.4017
 6150TIP3    H139941   0.958   5.283  16.484 -0.0945 -1.0632 -1.2976
 6150TIP3    H239942   0.914   5.141  16.515  1.2351 -1.0403  0.8903
 6151TIP3   OH239943   3.707   2.974   2.097  0.5610  0.0280  0.4038
 6151TIP3    H139944   3.762   2.899   2.072  0.1205 -0.2379  0.2250
 6151TIP3    H239945   3.690   3.020   2.015 -0.1799 -0.3661  0.3323
 6152TIP3   OH239946   3.668   6.691   5.860 -0.4659  0.5849  0.3114
 6152TIP3    H139947   3.706   6.776   5.884 -0.6272  0.9217 -0.6022
 6152TIP3    H239948   3.648   6.650   5.944  1.5510  0.5440  0.8363
 6153TIP3   OH239949   1.207   5.626  16.740 -0.4584  0.3168 -0.0238
 6153TIP3    H139950   1.111   5.627  16.743 -0.5936 -1.1754 -2.0682
 6153TIP3    H239951   1.233   5.605  16.830 -2.1194 -0.6680  0.2722
 6154TIP3   OH239952   1.135   2.254  16.763  0.1360  0.3816  0.1139
 6154TIP3    H139953   1.176   2.292  16.840  0.7572  0.5002 -0.2673
 6154TIP3    H239954   1.207   2.209  16.717 -0.0547  0.9757 -0.7972
 6155TIP3   OH239955   6.205   4.731  10.687  0.1254 -0.1320 -0.7267
 6155TIP3    H139956   6.235   4.680  10.612 -0.3250 -0.4021 -0.7256
 6155TIP3    H239957   6.190   4.666  10.756  1.2753  0.1896 -0.1510
 6156TIP3   OH239958   6.540   5.646  15.918 -0.1582 -0.0520 -0.2102
 6156TIP3    H139959   6.573   5.720  15.969 -0.0209 -0.4426  0.2760
 6156TIP3    H239960   6.452   5.632  15.951 -0.4116  0.2730 -0.7252
 6157TIP3   OH239961   2.768   4.450   1.553 -0.1019 -0.3016 -0.6485
 6157TIP3    H139962   2.807   4.491   1.476  2.0920 -0.7573  0.1470
 6157TIP3    H239963   2.776   4.515   1.622 -0.3106 -0.5950 -0.3444
 6158TIP3   OH239964   5.761   3.631  11.156  0.6549  0.1664 -0.3711
 6158TIP3    H139965   5.764   3.642  11.060  0.1440  1.3856 -0.2648
 6158TIP3    H239966   5.810   3.706  11.189  0.6073 -0.1137  0.3318
 6159TIP3   OH239967   1.627   2.880   3.535  0.7607  0.8052  0.4453
 6159TIP3    H139968   1.698   2.921   3.485 -2.1187  3.4017 -1.9661
 6159TIP3    H239969   1.628   2.789   3.507  2.9604  0.8099  0.3431
 6160TIP3   OH239970   1.073   3.498  11.355  0.0659 -0.4077  0.6544
 6160TIP3    H139971   1.008   3.455  11.299  0.5468  0.3789 -0.5628
 6160TIP3    H239972   1.020   3.554  11.413 -0.3812  1.8178 -1.6818
 6161TIP3   OH239973   3.024   5.444   1.848 -0.1986  0.0646 -0.1412
 6161TIP3    H139974   3.112   5.413   1.825 -0.2725 -1.4562  1.4214
 6161TIP3    H239975   2.970   5.421   1.773  0.2620 -1.4231 -0.0623
 6162TIP3   OH239976   6.103   6.716   3.722  0.0823 -0.4584 -0.2484
 6162TIP3    H139977   6.065   6.800   3.696  0.0398  0.0444  1.3506
 6162TIP3    H239978   6.033   6.670   3.768  1.1041  0.1841  2.1005
 6163TIP3   OH239979   0.785   4.513  11.386  0.3127 -0.6228 -0.6187
 6163TIP3    H139980   0.753   4.424  11.401  0.3946 -0.4032  0.9980
 6163TIP3    H239981   0.869   4.517  11.432  1.3443 -0.3179 -2.4273
 6164TIP3   OH239982   2.749   5.347   3.833  0.5680 -0.7557 -0.0344
 6164TIP3    H139983   2.743   5.432   3.875 -0.0835 -1.5727  1.6324
 6164TIP3    H239984   2.661   5.309   3.841  0.5881 -1.2132 -1.6082
 6165TIP3   OH239985   4.880   4.509   3.761 -0.6129 -0.6304 -0.6803
 6165TIP3    H139986   4.966   4.547   3.741  0.3949 -1.7406  1.2418
 6165TIP3    H239987   4.876   4.428   3.710  0.5363 -1.7724  0.9472
 6166TIP3   OH239988   1.707   1.467  15.783  0.3796  0.3916 -0.4304
 6166TIP3    H139989   1.717   1.454  15.689  1.9241  0.6111 -0.3171
 6166TIP3    H239990   1.780   1.524  15.808  0.2573 -0.0208  0.9757
 6167TIP3   OH239991   0.824   0.002   4.062  0.2762 -0.3437 -0.2174
 6167TIP3    H139992   0.861  -0.072   4.109 -1.3540  0.4321  2.5215
 6167TIP3    H239993   0.735  -0.025   4.040  0.1480  0.2689 -0.4889
 6168TIP3   OH239994   4.692   5.065  10.629  0.0300 -0.3095  0.2141
 6168TIP3    H139995   4.651   5.149  10.650  1.6516  0.3130  1.1128
 6168TIP3    H239996   4.696   5.019  10.713  3.2335  0.6607  0.7306
 6169TIP3   OH239997   3.998   4.240   4.276  0.3496 -0.1343 -0.0218
 6169TIP3    H139998   3.966   4.192   4.353  0.1585 -2.1310 -1.2662
 6169TIP3    H239999   3.920   4.252   4.221  0.5558  0.9108 -0.0947
 6170TIP3   OH240000   3.970   6.780   3.178  0.1375 -0.6922  0.0032
 6170TIP3    H140001   3.876   6.798   3.179  0.6599  3.4109 -1.6928
 6170TIP3    H240002   3.988   6.751   3.088  0.4821 -1.9760  0.4639
 6171TIP3   OH240003   5.824   3.685  15.599  0.8466  0.3703 -0.5455
 6171TIP3    H140004   5.823   3.770  15.644  2.2839  0.6426 -0.9490
 6171TIP3    H240005   5.883   3.699  15.524 -2.1001  0.2023 -3.0839
 6172TIP3   OH240006   5.417   1.642  15.922  0.2350 -0.3981  0.4728
 6172TIP3    H140007   5.468   1.635  15.841 -0.2668 -1.7734  0.2491
 6172TIP3    H240008   5.332   1.676  15.894 -0.3649 -2.0370  0.2025
 6173TIP3   OH240009   4.978   3.462   2.363 -0.7490  0.0109  0.3313
 6173TIP3    H140010   4.998   3.542   2.412 -0.2374  0.0989 -0.0125
 6173TIP3    H240011   4.882   3.457   2.363 -0.7500 -0.3856  1.9522
 6174TIP3   OH240012   6.086   2.191  15.258 -0.5332  0.4597  0.0443
 6174TIP3    H140013   6.152   2.175  15.326 -1.5299 -0.2434  0.8838
 6174TIP3    H240014   6.104   2.280  15.228  1.8691 -0.2838 -0.9870
 6175TIP3   OH240015   4.769   4.205  15.995  0.2660 -0.1973  0.4731
 6175TIP3    H140016   4.827   4.201  15.920 -0.7842 -0.4238 -0.3572
 6175TIP3    H240017   4.797   4.133  16.051  0.4970 -0.5859 -0.1325
 6176TIP3   OH240018   1.311   2.551  12.710 -0.1988 -0.1132 -0.0843
 6176TIP3    H140019   1.286   2.564  12.618 -1.7188 -0.3051  0.2838
 6176TIP3    H240020   1.395   2.597  12.718  2.3035 -3.6733 -2.6596
 6177TIP3   OH240021   1.627   3.111   4.579  0.5273 -0.7986  0.1638
 6177TIP3    H140022   1.547   3.069   4.548  0.2485  0.4481 -0.8945
 6177TIP3    H240023   1.697   3.067   4.532  0.2332 -0.0734 -0.9957
 6178TIP3   OH240024   6.252   4.042   5.751  0.7930  0.2888  0.0953
 6178TIP3    H140025   6.198   3.969   5.782  0.0759  1.0612  0.7226
 6178TIP3    H240026   6.240   4.041   5.656 -0.4384  0.5124  0.2316
 6179TIP3   OH240027   3.286   2.515   1.425  0.9395 -0.0920 -0.2738
 6179TIP3    H140028   3.203   2.486   1.463  1.2437 -0.9486 -0.2395
 6179TIP3    H240029   3.285   2.482   1.336  1.4840 -0.5937 -0.0985
 6180TIP3   OH240030   1.725   2.649   6.457 -0.0720  0.0883 -1.1744
 6180TIP3    H140031   1.646   2.612   6.416  0.3932 -0.4212 -1.6169
 6180TIP3    H240032   1.750   2.585   6.523  1.3537 -0.9723 -2.6640
 6181TIP3   OH240033   1.689   2.553  14.528 -0.1674 -0.1928  0.6386
 6181TIP3    H140034   1.716   2.594  14.446 -3.1012 -0.3316 -0.5311
 6181TIP3    H240035   1.598   2.580  14.540  0.1114 -0.2326  3.8672
 6182TIP3   OH240036   4.695   4.708   2.306 -0.5490 -0.0685  0.2671
 6182TIP3    H140037   4.788   4.699   2.328 -0.3814  0.3300 -0.2554
 6182TIP3    H240038   4.681   4.646   2.234 -0.2150  1.2298 -0.9650
 6183TIP3   OH240039   1.605   5.094   6.343 -0.0686 -0.2395 -0.1840
 6183TIP3    H140040   1.698   5.095   6.322 -0.4120  0.7060 -1.8063
 6183TIP3    H240041   1.562   5.060   6.264 -1.0676 -1.3515  0.7840
 6184TIP3   OH240042   3.842   4.777  14.732  0.1899  0.7997  0.2777
 6184TIP3    H140043   3.858   4.812  14.819 -0.9805 -1.9105  1.6956
 6184TIP3    H240044   3.930   4.761  14.696  0.7378 -0.1650  1.9310
 6185TIP3   OH240045   0.077   6.716   4.418 -0.2176  0.4992  0.7041
 6185TIP3    H140046   0.035   6.782   4.474 -1.5595 -0.9765  1.5111
 6185TIP3    H240047   0.005   6.658   4.392  0.6809  0.1643 -1.1835
 6186TIP3   OH240048   1.190   5.094   5.597  0.3846 -0.2786  0.5390
 6186TIP3    H140049   1.186   5.114   5.503 -1.3593 -0.4909  0.5430
 6186TIP3    H240050   1.179   5.179   5.640  1.9171 -0.0702  0.5932
 6187TIP3   OH240051   0.856   1.938  10.822  0.0591  0.8171 -0.1232
 6187TIP3    H140052   0.894   1.878  10.757 -2.5730 -1.2539  0.0410
 6187TIP3    H240053   0.818   2.009  10.769  1.8266  1.5681 -0.4461
 6188TIP3   OH240054   6.679   0.788   3.851 -0.4034 -0.4127 -0.1654
 6188TIP3    H140055   6.724   0.848   3.910  1.3553  0.4010 -2.2166
 6188TIP3    H240056   6.692   0.826   3.764  0.2591 -3.4321 -1.4963
 6189TIP3   OH240057   2.524   3.537   5.487 -0.1045  0.5762 -0.4497
 6189TIP3    H140058   2.568   3.465   5.441  0.3410 -0.0325  0.8713
 6189TIP3    H240059   2.433   3.531   5.458  0.2944  0.6750 -1.7890
 6190TIP3   OH240060   1.408   3.083  11.090  0.1795 -0.3291 -0.1011
 6190TIP3    H140061   1.350   3.034  11.032 -0.7129  1.0216 -0.3998
 6190TIP3    H240062   1.349   3.137  11.142  0.9228 -1.7018  2.3330
 6191TIP3   OH240063   4.850   0.098   5.185  0.0373 -0.4811 -0.2561
 6191TIP3    H140064   4.836   0.168   5.249 -1.6158 -0.2374 -0.8288
 6191TIP3    H240065   4.864   0.019   5.238 -0.6196 -0.1627  0.4109
 6192TIP3   OH240066   4.170   0.209   5.989  0.4389  0.0743  0.0771
 6192TIP3    H140067   4.195   0.154   6.064  1.4664  1.3632  0.7365
 6192TIP3    H240068   4.083   0.242   6.012  0.5806  0.1490  0.5211
 6193TIP3   OH240069   5.576   4.080   4.126  0.0973 -0.5829  0.1910
 6193TIP3    H140070   5.534   4.087   4.040  0.0319  0.5198  0.3013
 6193TIP3    H240071   5.669   4.065   4.106  0.1344 -0.0225 -0.0862
 6194TIP3   OH240072   2.127   1.011  12.998 -0.3857  0.1860  0.0752
 6194TIP3    H140073   2.109   0.933  13.051 -1.7404 -1.0548 -2.0392
 6194TIP3    H240074   2.067   1.078  13.032 -1.6568 -0.7689 -0.2004
 6195TIP3   OH240075   1.008   1.729  12.738 -0.8145 -0.0921  0.0006
 6195TIP3    H140076   1.017   1.731  12.833 -1.5062  0.1515  0.0676
 6195TIP3    H240077   1.094   1.755  12.705 -0.4478 -0.5908  0.5537
 6196TIP3   OH240078   5.933   5.368   3.341  0.2130 -0.3198  0.1164
 6196TIP3    H140079   6.021   5.396   3.318  0.2621  0.5800  1.3078
 6196TIP3    H240080   5.938   5.272   3.343  0.6831 -0.3680 -1.5434
 6197TIP3   OH240081   1.781   5.848  12.389  0.3200  0.2203  0.4552
 6197TIP3    H140082   1.875   5.865  12.390  0.3570  0.1570 -0.6550
 6197TIP3    H240083   1.741   5.932  12.414  0.6551  0.3217  0.6541
 6198TIP3   OH240084   0.727   4.758   5.502 -0.1789  0.2507 -0.1078
 6198TIP3    H140085   0.774   4.833   5.538  0.4611 -0.9844  1.8251
 6198TIP3    H240086   0.635   4.775   5.520  0.0741 -0.0058  1.5815
 6199TIP3   OH240087   2.298   5.316  15.031 -0.4998 -0.4656 -0.4754
 6199TIP3    H140088   2.216   5.349  14.994 -0.7762 -1.4571 -0.7717
 6199TIP3    H240089   2.362   5.330  14.962 -0.4842 -0.0191 -0.3767
 6200TIP3   OH240090   2.340   6.172  14.887 -0.0047  0.0702  0.6763
 6200TIP3    H140091   2.288   6.137  14.814 -0.3591  1.7234  0.0806
 6200TIP3    H240092   2.416   6.212  14.844 -0.0338  0.7392  1.2292
 6201TIP3   OH240093   0.202   1.157   1.611  0.0449 -0.2413  0.1947
 6201TIP3    H140094   0.227   1.064   1.608  2.3115  0.3241 -0.2394
 6201TIP3    H240095   0.197   1.183   1.519  0.3388  0.3016  0.3335
 6202TIP3   OH240096   6.521   1.876   4.548 -0.3003 -0.4995  0.0151
 6202TIP3    H140097   6.558   1.963   4.535 -1.1623 -0.2197 -0.5887
 6202TIP3    H240098   6.483   1.878   4.636  1.1438 -0.8148  0.6784
 6203TIP3   OH240099   0.623   4.638  12.999  0.5553 -0.0895 -0.5973
 6203TIP3    H140100   0.575   4.586  13.063 -0.3477  0.3746 -0.8827
 6203TIP3    H240101   0.619   4.727  13.032  0.4977  0.0806 -1.0542
 6204TIP3   OH240102   6.202   4.251   5.950 -0.3176 -0.2738  0.4327
 6204TIP3    H140103   6.203   4.170   5.900 -1.9817 -0.6787  1.0002
 6204TIP3    H240104   6.158   4.314   5.894 -0.5532 -0.2285  0.6661
 6205TIP3   OH240105   4.537   0.232  15.655  0.0891  0.0622 -0.1304
 6205TIP3    H140106   4.494   0.151  15.627  1.2118 -0.7038  0.2917
 6205TIP3    H240107   4.469   0.281  15.700 -0.7906 -0.3234 -0.9980
 6206TIP3   OH240108   3.828   5.024  11.227 -0.1484  0.5467 -0.2092
 6206TIP3    H140109   3.834   5.004  11.133  1.1101  1.6803 -0.3958
 6206TIP3    H240110   3.824   5.119  11.231 -1.0982  0.4916  0.8755
 6207TIP3   OH240111   1.074   0.357   5.361 -0.1102  0.1687 -0.0536
 6207TIP3    H140112   1.051   0.430   5.304  0.2733  0.5281  0.2452
 6207TIP3    H240113   1.009   0.289   5.341  0.5848 -0.0968 -1.6413
 6208TIP3   OH240114   1.641   2.016  10.946 -0.2173 -0.4122 -0.2388
 6208TIP3    H140115   1.597   2.052  10.869  1.2877  0.7955 -0.5814
 6208TIP3    H240116   1.691   2.089  10.981 -2.7953 -0.1232  3.4505
 6209TIP3   OH240117   5.043   4.454   5.851 -0.0192 -0.4210 -0.4248
 6209TIP3    H140118   5.057   4.373   5.801  1.6824 -0.8826  0.7281
 6209TIP3    H240119   5.113   4.512   5.822  0.0679 -0.1500  0.3176
 6210TIP3   OH240120   5.669   0.851   3.953  0.0536 -0.4223 -0.1629
 6210TIP3    H140121   5.614   0.831   3.878  1.5831 -0.0152 -1.4501
 6210TIP3    H240122   5.710   0.767   3.976 -0.6438 -0.6113  0.4501
 6211TIP3   OH240123   0.182   5.468  10.609  0.1885  0.2561 -0.4245
 6211TIP3    H140124   0.198   5.500  10.520  1.0135  0.6899 -0.1260
 6211TIP3    H240125   0.220   5.535  10.665 -0.9982  0.3651  0.2792
 6212TIP3   OH240126   5.704   0.104  11.483 -0.4244 -0.5080 -0.5292
 6212TIP3    H140127   5.753   0.161  11.543 -0.2179 -1.3056  0.0865
 6212TIP3    H240128   5.614   0.106  11.517 -0.1542 -1.5697  0.3067
 6213TIP3   OH240129   4.093   2.741  15.756  0.0907 -0.8507 -0.0373
 6213TIP3    H140130   4.058   2.830  15.747  0.3644 -0.7405 -0.0535
 6213TIP3    H240131   4.141   2.743  15.839 -1.8749 -1.6737  1.1627
 6214TIP3   OH240132   6.154   3.746  10.180  0.5334  0.1020 -0.4359
 6214TIP3    H140133   6.179   3.837  10.193  2.0501 -0.4554  0.9056
 6214TIP3    H240134   6.237   3.698  10.182 -0.3616 -1.8293  3.9033
 6215TIP3   OH240135   5.794   1.158  14.840  0.1286 -0.0374  0.4119
 6215TIP3    H140136   5.784   1.216  14.916 -1.0720 -1.1956  1.1691
 6215TIP3    H240137   5.707   1.119  14.829 -0.2831  1.4590 -2.7177
 6216TIP3   OH240138   5.908   5.159   4.825 -0.2420 -0.2206  0.0068
 6216TIP3    H140139   5.870   5.235   4.780 -1.3685  0.3961  1.8770
 6216TIP3    H240140   5.969   5.121   4.761  1.4702  3.0835 -0.5536
 6217TIP3   OH240141   0.709   5.640  13.069  0.3377 -0.5757  0.1522
 6217TIP3    H140142   0.615   5.639  13.050  0.7170 -1.6976 -1.9917
 6217TIP3    H240143   0.751   5.619  12.985  2.6856  2.7824  0.2909
 6218TIP3   OH240144   2.305   3.421   3.286 -0.8124  0.4705 -0.2414
 6218TIP3    H140145   2.319   3.400   3.378  0.3252  0.6718 -0.3498
 6218TIP3    H240146   2.263   3.342   3.250  2.7018 -1.4910 -0.4695
 6219TIP3   OH240147   5.647   5.007  16.537 -0.2948 -0.0054 -0.3653
 6219TIP3    H140148   5.724   4.975  16.585 -0.4462 -0.3562 -0.3579
 6219TIP3    H240149   5.591   5.046  16.605 -0.1471  0.2122 -0.3656
 6220TIP3   OH240150   4.615   3.716   3.472  0.6450 -0.3279  0.6956
 6220TIP3    H140151   4.699   3.751   3.502  0.3651 -1.4263  2.9383
 6220TIP3    H240152   4.587   3.658   3.542 -1.6561 -0.5501 -0.3328
 6221TIP3   OH240153   5.851   5.540   1.455  0.2015  0.2586  0.0383
 6221TIP3    H140154   5.909   5.482   1.406 -0.2663  0.4857 -0.8020
 6221TIP3    H240155   5.910   5.602   1.498  0.6853 -0.6531  0.7210
 6222TIP3   OH240156   1.050   5.847  13.725  0.6219  0.0722 -0.0265
 6222TIP3    H140157   0.990   5.864  13.651  2.2582  0.8608 -1.2416
 6222TIP3    H240158   1.135   5.877  13.694  1.8817 -1.8996  1.2967
 6223TIP3   OH240159   5.298   5.757  13.326 -0.0105  0.0915 -0.6707
 6223TIP3    H140160   5.221   5.787  13.374  0.5993  1.5487 -0.5307
 6223TIP3    H240161   5.348   5.838  13.308  1.3967 -0.7897 -0.8951
 6224TIP3   OH240162   5.937   4.734  12.241  0.6901  0.4110 -0.7164
 6224TIP3    H140163   5.921   4.720  12.334  1.5492 -1.1987 -0.7681
 6224TIP3    H240164   5.921   4.648  12.201  3.8747  0.0499 -1.4983
 6225TIP3   OH240165   3.537   1.663  15.432  0.3309  0.7090 -0.6262
 6225TIP3    H140166   3.538   1.573  15.466 -1.1451  0.4103 -1.2825
 6225TIP3    H240167   3.477   1.710  15.491  1.5168  1.4222  0.0405
 6226TIP3   OH240168   1.053   0.021  12.468 -0.2636  0.1749  1.1320
 6226TIP3    H140169   0.965   0.052  12.491 -0.7777  0.0584 -0.5312
 6226TIP3    H240170   1.107   0.100  12.468 -0.4384  0.3011  1.7983
 6227TIP3   OH240171   3.595   2.769   4.911  0.0849  0.1056  0.1644
 6227TIP3    H140172   3.610   2.676   4.892 -1.3563  0.1893 -1.6178
 6227TIP3    H240173   3.602   2.775   5.006  0.5394 -1.7561  0.2868
 6228TIP3   OH240174   3.515   0.169  14.777 -0.2669 -0.2293  0.2843
 6228TIP3    H140175   3.540   0.262  14.780 -1.3129  0.1065 -0.5762
 6228TIP3    H240176   3.499   0.146  14.869  0.9727  0.1468  0.6160
 6229TIP3   OH240177   6.519   4.306   4.449  0.5296  0.2763 -0.5265
 6229TIP3    H140178   6.455   4.376   4.466  1.3035  0.4144  2.3494
 6229TIP3    H240179   6.481   4.228   4.490  1.6155  0.0744  0.1305
 6230TIP3   OH240180   5.151   4.531  13.969 -0.3195 -0.4320 -0.1290
 6230TIP3    H140181   5.137   4.471  13.896 -1.1646 -0.5115  0.0872
 6230TIP3    H240182   5.207   4.483  14.030 -0.3830 -0.7208 -0.2969
 6231TIP3   OH240183   3.733   3.533  16.974  0.1595 -0.3396 -0.5392
 6231TIP3    H140184   3.796   3.600  16.949  0.4376 -0.2292  0.4241
 6231TIP3    H240185   3.784   3.452  16.973  1.2196  0.0901  3.1677
 6232TIP3   OH240186   1.383   5.805  14.625 -0.5339  0.1314 -0.4609
 6232TIP3    H140187   1.300   5.850  14.640 -0.9575 -0.3514 -1.2936
 6232TIP3    H240188   1.399   5.757  14.706 -0.0568  1.7623  0.4583
 6233TIP3   OH240189   5.801   3.990  12.849  0.2883  0.7821 -0.7418
 6233TIP3    H140190   5.842   3.965  12.931 -1.1834  0.3688 -0.1074
 6233TIP3    H240191   5.711   3.957  12.855 -0.6131  2.8956 -1.4588
 6234TIP3   OH240192   0.685   1.304   4.577  0.2372  0.3627 -0.4073
 6234TIP3    H140193   0.642   1.221   4.597 -0.6543  0.3740 -2.1126
 6234TIP3    H240194   0.684   1.352   4.660 -0.1650 -0.8989  0.3553
 6235TIP3   OH240195   2.001   3.760   5.325  0.0431  0.0285 -0.5944
 6235TIP3    H140196   1.978   3.825   5.392  0.3636 -0.3852 -0.0807
 6235TIP3    H240197   2.026   3.812   5.248 -0.6625  0.5025 -0.5101
 6236TIP3   OH240198   3.189   0.866   1.634 -0.3330 -0.0978  0.5416
 6236TIP3    H140199   3.184   0.772   1.650  0.5323 -0.1449  0.5609
 6236TIP3    H240200   3.179   0.905   1.721  1.2889 -0.2518  0.8246
 6237TIP3   OH240201   6.643   6.322   3.132  0.0895 -0.5774 -0.3376
 6237TIP3    H140202   6.627   6.228   3.118 -2.3660 -0.3820  0.6575
 6237TIP3    H240203   6.637   6.361   3.045 -0.7413 -1.1398 -0.5447
 6238TIP3   OH240204   4.236   3.239   4.007  0.0015  0.4345  0.3278
 6238TIP3    H140205   4.206   3.285   4.085 -1.1700  0.9435 -0.3933
 6238TIP3    H240206   4.159   3.236   3.950  1.0189  0.7425 -1.1242
 6239TIP3   OH240207   0.480   5.967  11.463  0.5567  0.7551  0.2473
 6239TIP3    H140208   0.407   5.978  11.402  0.3161  0.0842  0.4028
 6239TIP3    H240209   0.451   6.011  11.543  0.8116  1.5075 -0.0673
 6240TIP3   OH240210   5.255   6.501  15.018  0.0397  0.3091  0.6254
 6240TIP3    H140211   5.189   6.495  15.088 -0.3291  1.7444  0.4263
 6240TIP3    H240212   5.298   6.416  15.020 -2.2605 -0.9524  0.3181
 6241TIP3   OH240213   4.571   1.862  16.405 -0.1783  0.7151  0.2766
 6241TIP3    H140214   4.622   1.788  16.372 -0.5640  0.4152  0.3521
 6241TIP3    H240215   4.482   1.829  16.411 -0.5840  1.5503 -0.8492
 6242TIP3   OH240216   3.110   4.882   2.031 -0.1960  0.3130 -0.0455
 6242TIP3    H140217   3.043   4.842   1.976 -0.5497  0.1535  0.5048
 6242TIP3    H240218   3.178   4.815   2.039 -0.4877  0.0661  0.3336
 6243TIP3   OH240219   1.319   4.873  15.040 -0.6926  0.1046  0.2188
 6243TIP3    H140220   1.330   4.778  15.032 -4.2855 -0.2895 -2.2018
 6243TIP3    H240221   1.226   4.885  15.060 -1.1346  3.0762 -2.6513
 6244TIP3   OH240222   5.910   0.180   2.974  0.2100  0.1365 -0.0326
 6244TIP3    H140223   5.885   0.198   2.883  2.1267 -2.1656 -1.1409
 6244TIP3    H240224   5.841   0.122   3.006  0.3298 -0.3447 -0.6085
 6245TIP3   OH240225   4.793   0.373   3.820  0.0495  0.2036 -0.0791
 6245TIP3    H140226   4.820   0.284   3.801  0.3950  0.0662  0.9807
 6245TIP3    H240227   4.708   0.365   3.863 -0.0586  0.4021 -0.2526
 6246TIP3   OH240228   1.280   0.579  11.823  0.4005 -0.2258  0.4449
 6246TIP3    H140229   1.332   0.630  11.760 -0.6306  0.6227  0.2607
 6246TIP3    H240230   1.245   0.644  11.884 -3.1006 -0.2517 -1.2867
 6247TIP3   OH240231   5.438   1.832   4.746 -0.0592 -0.0494 -0.6321
 6247TIP3    H140232   5.358   1.874   4.778 -0.2434 -0.5708 -0.3868
 6247TIP3    H240233   5.486   1.808   4.825 -1.4730 -3.2042 -0.5582
 6248TIP3   OH240234   2.978   5.001  15.716 -0.2924  0.1456  0.2590
 6248TIP3    H140235   2.926   4.942  15.662 -0.2262  0.2742  0.0536
 6248TIP3    H240236   3.068   4.970  15.706 -0.1829  0.6325 -0.3122
 6249TIP3   OH240237   5.514   6.745   4.937  0.2160  0.3300  1.0839
 6249TIP3    H140238   5.594   6.768   4.890 -0.8928  0.7310 -0.6846
 6249TIP3    H240239   5.515   6.649   4.941  0.5723  0.3167  0.7112
 6250TIP3   OH240240   3.887   0.554  10.588  0.1836 -0.9130  0.4447
 6250TIP3    H140241   3.798   0.528  10.565 -0.6208 -0.1473  2.4633
 6250TIP3    H240242   3.943   0.499  10.534 -1.4978 -2.4689  0.1967
 6251TIP3   OH240243   0.079   4.313   5.602 -0.4162  0.0426 -0.1939
 6251TIP3    H140244  -0.005   4.303   5.647  0.4233 -1.8184  1.0995
 6251TIP3    H240245   0.141   4.262   5.655  1.1502 -0.2470 -2.1757
 6252TIP3   OH240246   1.895   1.959   0.068  0.0399  0.7547 -0.0962
 6252TIP3    H140247   1.821   1.992   0.017  0.0947  0.7465 -0.1818
 6252TIP3    H240248   1.888   2.004   0.152  0.2308  1.1362 -0.2820
 6253TIP3   OH240249   0.421   3.439   0.410 -0.7476  0.3986 -0.9329
 6253TIP3    H140250   0.372   3.505   0.361 -1.9183 -0.4853 -0.9957
 6253TIP3    H240251   0.450   3.376   0.344 -0.2396  0.4713 -0.7850
 6254TIP3   OH240252   2.708   0.293  13.605  0.2790  0.1453  0.2917
 6254TIP3    H140253   2.661   0.221  13.646  0.2472  0.5700  1.0147
 6254TIP3    H240254   2.787   0.252  13.568  0.1784 -0.2856  0.5493
 6255TIP3   OH240255   2.679   6.600   1.720  0.7755 -0.1338 -0.0492
 6255TIP3    H140256   2.639   6.517   1.746 -0.2056  0.9173  2.1730
 6255TIP3    H240257   2.758   6.576   1.672  1.0658 -2.3656  1.3995
 6256TIP3   OH240258   2.244   6.731  12.138  0.4878 -0.3572 -0.4480
 6256TIP3    H140259   2.179   6.691  12.080  0.6140  0.8195 -1.4581
 6256TIP3    H240260   2.323   6.737  12.083  0.0579  2.5799 -0.8892
 6257TIP3   OH240261   2.278   3.674  11.429  0.5662 -0.4587  0.6731
 6257TIP3    H140262   2.239   3.600  11.384  2.6247 -0.6095 -1.0242
 6257TIP3    H240263   2.246   3.667  11.519 -3.8956 -0.0114 -0.6349
 6258TIP3   OH240264   2.945   3.829   4.235 -0.1052  0.4085  0.1486
 6258TIP3    H140265   2.924   3.893   4.304 -1.2627 -0.3204  0.4996
 6258TIP3    H240266   2.949   3.746   4.281 -2.8489 -0.4205 -0.8812
 6259TIP3   OH240267   0.259   5.147   1.607 -0.0695  0.2867  0.7091
 6259TIP3    H140268   0.287   5.232   1.572 -1.9166 -0.0358 -1.8944
 6259TIP3    H240269   0.335   5.090   1.594  1.1037  1.4088  2.2430
 6260TIP3   OH240270   4.283   1.391   2.611 -0.0333 -0.0693 -0.3455
 6260TIP3    H140271   4.245   1.399   2.699  0.5631  0.1996 -0.1080
 6260TIP3    H240272   4.208   1.401   2.552 -0.4658 -0.4412  0.1347
 6261TIP3   OH240273   6.353   5.912  16.606  0.2578  0.4741 -0.3043
 6261TIP3    H140274   6.425   5.884  16.663 -0.9051 -2.2073 -0.0367
 6261TIP3    H240275   6.286   5.943  16.666 -0.3502 -0.8691 -0.2524
 6262TIP3   OH240276   6.496   6.105  12.531  0.3791  0.3135  0.0544
 6262TIP3    H140277   6.546   6.024  12.541  0.8292  0.5044 -0.5829
 6262TIP3    H240278   6.561   6.170  12.506 -0.4805  0.0095 -3.4749
 6263TIP3   OH240279   0.896   0.758  10.730  0.3775 -0.1979 -0.0019
 6263TIP3    H140280   0.979   0.805  10.735 -0.4009  1.2847 -0.4915
 6263TIP3    H240281   0.921   0.668  10.708  1.8678  0.1382  0.2185
 6264TIP3   OH240282   2.286   3.684  11.714 -0.7671 -0.2483 -0.1516
 6264TIP3    H140283   2.209   3.694  11.770  0.0867 -0.5426  1.1124
 6264TIP3    H240284   2.331   3.607  11.749  1.6256  1.5834  0.9919
 6265TIP3   OH240285   1.421   5.593  14.789  0.2639 -0.3272 -0.1138
 6265TIP3    H140286   1.478   5.576  14.863 -0.9707  0.3716  1.0390
 6265TIP3    H240287   1.456   5.538  14.719  1.5554 -0.8791  0.9218
 6266TIP3   OH240288   4.247   5.165   3.676  0.1597  0.1213 -0.4569
 6266TIP3    H140289   4.206   5.109   3.743  1.9045 -1.2687 -0.4838
 6266TIP3    H240290   4.214   5.253   3.695 -0.3032 -0.4240  1.5014
 6267TIP3   OH240291   4.320   5.242   5.471  0.1741 -0.1585 -0.0697
 6267TIP3    H140292   4.371   5.221   5.550  1.2540  0.1768 -0.6585
 6267TIP3    H240293   4.279   5.158   5.446  3.1871 -1.3591 -1.4970
 6268TIP3   OH240294   5.388   2.807  12.953  0.4478 -0.0208  0.5001
 6268TIP3    H140295   5.367   2.717  12.929  1.9741 -0.1570 -0.4629
 6268TIP3    H240296   5.383   2.856  12.871  0.6384  0.5665  0.8333
 6269TIP3   OH240297   0.596   0.731   3.129  0.3516 -0.3247  0.0666
 6269TIP3    H140298   0.664   0.679   3.172  1.1480  0.2071 -0.5357
 6269TIP3    H240299   0.529   0.744   3.197  1.8194  0.9569  1.3393
 6270TIP3   OH240300   1.484   0.375  10.846  0.2080 -0.0887 -0.8406
 6270TIP3    H140301   1.430   0.427  10.786 -1.2161 -1.1322 -0.5253
 6270TIP3    H240302   1.544   0.438  10.885 -0.9023  1.1770 -1.0761
 6271TIP3   OH240303   5.180   6.466  16.797  0.5532 -0.1389 -0.2995
 6271TIP3    H140304   5.156   6.403  16.865 -1.6363  0.8241 -0.0993
 6271TIP3    H240305   5.104   6.523  16.789  0.7028 -0.1660 -3.5029
 6272TIP3   OH240306   3.983   6.025  11.578 -0.3078  0.7820  0.1534
 6272TIP3    H140307   3.930   6.028  11.658 -0.4390  1.4257  0.0442
 6272TIP3    H240308   4.073   6.028  11.609 -0.3720  2.2709  0.2303
 6273TIP3   OH240309   4.459   3.190   6.336  0.1056  0.0352 -0.0209
 6273TIP3    H140310   4.545   3.210   6.300 -0.3213 -2.5658 -2.8164
 6273TIP3    H240311   4.412   3.274   6.333  1.9029  1.1054 -0.0961
 6274TIP3   OH240312   4.514   6.030  14.513 -0.0065 -0.0767 -0.6976
 6274TIP3    H140313   4.586   5.978  14.550  1.7441  1.8305 -1.2383
 6274TIP3    H240314   4.449   6.034  14.584  0.1508 -2.2227 -0.3524
 6275TIP3   OH240315   5.657   1.181   3.371 -0.0030  0.6098  0.1220
 6275TIP3    H140316   5.594   1.120   3.408  0.4460  0.1055  0.0725
 6275TIP3    H240317   5.723   1.191   3.440 -0.1992  1.2267  0.2219
 6276TIP3   OH240318   4.167   3.408  17.129 -0.0935  0.3924 -0.8166
 6276TIP3    H140319   4.124   3.343  17.072 -0.2005 -0.0329 -0.2601
 6276TIP3    H240320   4.260   3.397  17.113 -0.0208 -0.9494  0.3708
 6277TIP3   OH240321   5.215   1.694   5.647  0.2127  0.3429 -0.4272
 6277TIP3    H140322   5.200   1.600   5.648  2.0309 -0.0153 -1.6287
 6277TIP3    H240323   5.173   1.726   5.727 -3.2012 -0.9618 -1.5475
 6278TIP3   OH240324   6.009   3.726   1.228 -0.3822 -0.0659 -0.0827
 6278TIP3    H140325   5.962   3.661   1.279 -0.7712  0.3561  0.1100
 6278TIP3    H240326   6.044   3.787   1.293 -0.4612  0.2014 -0.2854
 6279TIP3   OH240327   5.527   6.166   5.586  0.6489  0.2580  0.5006
 6279TIP3    H140328   5.522   6.072   5.606  0.8514  0.1248 -0.0734
 6279TIP3    H240329   5.436   6.195   5.591  0.4841 -0.1332 -0.0834
 6280TIP3   OH240330   0.290   3.364   5.984  0.1287  0.0172 -0.2092
 6280TIP3    H140331   0.276   3.330   5.895 -1.1893  2.7512 -1.1422
 6280TIP3    H240332   0.338   3.446   5.971 -0.2913  0.5786  1.5772
 6281TIP3   OH240333   1.965   2.567  12.413 -0.1530  0.3690  0.5187
 6281TIP3    H140334   1.893   2.626  12.437 -0.2510  0.3163  0.3578
 6281TIP3    H240335   1.951   2.489  12.467  0.3218  0.7281  1.1700
 6282TIP3   OH240336   2.556   3.843  14.458 -0.0014  0.4459 -0.0519
 6282TIP3    H140337   2.490   3.879  14.517  1.1206  0.3777  1.3082
 6282TIP3    H240338   2.620   3.914  14.448 -1.2336  1.2740 -3.0230
 6283TIP3   OH240339   1.365   3.979   1.620  0.1345 -0.0379 -0.0555
 6283TIP3    H140340   1.428   4.038   1.662 -0.9608  0.7791  0.4742
 6283TIP3    H240341   1.283   3.993   1.668 -0.7548 -0.2388 -1.4698
 6284TIP3   OH240342   2.342   1.559  14.530 -0.0055 -0.1539  0.7922
 6284TIP3    H140343   2.272   1.522  14.476  0.8930 -1.9087  0.7594
 6284TIP3    H240344   2.297   1.602  14.602 -1.2798  2.5868 -1.4284
 6285TIP3   OH240345   6.583   3.365   1.375 -1.1252  0.0088 -0.3882
 6285TIP3    H140346   6.616   3.362   1.465  1.5449 -1.8109 -1.2943
 6285TIP3    H240347   6.632   3.436   1.334  0.0910 -1.2279 -1.1637
 6286TIP3   OH240348   6.021   4.171   5.463  0.5011 -0.0005  0.0294
 6286TIP3    H140349   5.955   4.240   5.459 -0.0589 -0.4749  0.7130
 6286TIP3    H240350   5.979   4.096   5.420 -0.3889 -1.0327  2.4364
 6287TIP3   OH240351   5.777   3.037   0.696  0.0159  0.5623  0.4368
 6287TIP3    H140352   5.758   3.054   0.603  0.7178 -1.7050 -0.1837
 6287TIP3    H240353   5.724   2.960   0.717  2.5054 -1.1491  0.8521
 6288TIP3   OH240354   6.326   2.484   0.499  0.1858 -0.1633  0.0654
 6288TIP3    H140355   6.324   2.390   0.482 -0.0830 -0.0403 -0.5990
 6288TIP3    H240356   6.369   2.522   0.422 -0.4330  0.3331 -0.0474
 6289TIP3   OH240357   4.346   1.858   3.476  0.4121 -0.0431 -0.4508
 6289TIP3    H140358   4.420   1.845   3.534  0.8015  1.0488 -0.6819
 6289TIP3    H240359   4.270   1.828   3.527  0.9589 -0.8350 -0.0871
 6290TIP3   OH240360   4.883   3.838   4.736  0.6685 -0.0430 -0.1029
 6290TIP3    H140361   4.898   3.753   4.777  0.7572 -0.4950 -1.0450
 6290TIP3    H240362   4.948   3.842   4.666 -0.5755 -0.0322 -1.2902
 6291TIP3   OH240363   6.394   4.799   0.997 -0.1121 -0.2752  0.2841
 6291TIP3    H140364   6.338   4.874   1.019 -2.3673 -1.3291 -1.4234
 6291TIP3    H240365   6.350   4.724   1.035 -0.4458 -1.2422 -1.8466
 6292TIP3   OH240366   2.807   3.621   2.354 -0.2198  0.1912 -0.0634
 6292TIP3    H140367   2.808   3.705   2.307 -2.5033  0.4252  0.1995
 6292TIP3    H240368   2.744   3.634   2.426  1.8727 -0.7116  2.0705
 6293TIP3   OH240369   4.126   0.689   2.488  0.4543  0.5062  0.6132
 6293TIP3    H140370   4.172   0.628   2.545  1.2827  1.1498  0.6712
 6293TIP3    H240371   4.194   0.752   2.462 -0.2857  1.1779  0.2621
 6294TIP3   OH240372   3.215   3.193   0.534 -0.3906 -0.5649 -0.1700
 6294TIP3    H140373   3.256   3.107   0.542  0.8543  0.1888  2.6482
 6294TIP3    H240374   3.151   3.197   0.605 -0.3660  0.8577 -0.1887
 6295TIP3   OH240375   3.388   6.117   5.320  0.2572  0.1366 -0.0479
 6295TIP3    H140376   3.459   6.056   5.340  0.9956  0.7381 -0.7163
 6295TIP3    H240377   3.342   6.129   5.403  1.2265  0.0887  0.5119
 6296TIP3   OH240378   5.919   6.749   4.517  0.6836 -0.2431  0.3473
 6296TIP3    H140379   5.926   6.843   4.497 -0.9648  0.0512  0.9527
 6296TIP3    H240380   5.881   6.746   4.605  0.6911 -1.4812  0.3270
 6297TIP3   OH240381   0.681   4.969   5.344  0.2466 -0.4693  0.4554
 6297TIP3    H140382   0.753   4.910   5.323  0.8889  0.2517  0.6219
 6297TIP3    H240383   0.615   4.912   5.384  1.0590 -1.0113  1.0616
 6298TIP3   OH240384   3.596   5.689  14.238 -0.2639  1.1215 -0.2135
 6298TIP3    H140385   3.665   5.640  14.284 -2.2373 -0.9032  0.7793
 6298TIP3    H240386   3.593   5.651  14.151  0.1190  1.4778 -0.3840
 6299TIP3   OH240387   5.688   0.586  12.754 -0.1554 -0.4356 -0.2877
 6299TIP3    H140388   5.724   0.558  12.839 -0.6877  1.1194  0.4848
 6299TIP3    H240389   5.757   0.564  12.691  0.8571 -0.3399  0.7406
 6300TIP3   OH240390   5.250   5.348   4.790 -0.2782 -0.3499  0.5961
 6300TIP3    H140391   5.325   5.352   4.731 -1.4105 -0.8333 -0.9361
 6300TIP3    H240392   5.174   5.341   4.733 -1.4639 -0.5412  2.1131
 6301TIP3   OH240393   5.059   2.072   3.607  0.1266 -0.6165  0.2260
 6301TIP3    H140394   5.004   2.151   3.610 -0.4836 -1.0602  1.9098
 6301TIP3    H240395   5.064   2.050   3.514 -3.7152 -1.3340  0.0021
 6302TIP3   OH240396   2.086   4.892  16.896 -0.0714 -0.4022  0.4440
 6302TIP3    H140397   2.024   4.947  16.945  0.0509  0.4217 -0.3143
 6302TIP3    H240398   2.086   4.927  16.808 -1.4017 -2.7968 -0.5919
 6303TIP3   OH240399   2.628   3.408  14.503  0.2212  0.0358 -0.4072
 6303TIP3    H140400   2.673   3.467  14.563  0.5527  0.5280 -1.1178
 6303TIP3    H240401   2.669   3.322  14.517 -1.4341 -0.4560  1.8637
 6304TIP3   OH240402   0.827   2.167  11.891  0.1833 -0.5305 -0.0221
 6304TIP3    H140403   0.773   2.217  11.830  1.4221 -1.4505 -1.9641
 6304TIP3    H240404   0.874   2.233  11.942 -0.2852  0.2631 -0.6060
 6305TIP3   OH240405   5.381   3.137   4.533 -0.2432 -0.6610  0.0610
 6305TIP3    H140406   5.360   3.115   4.442 -1.5996  0.0081  0.1845
 6305TIP3    H240407   5.339   3.068   4.585  0.9389 -1.3166  0.1828
 6306TIP3   OH240408   3.594   5.711   1.360 -0.2817  0.2525 -0.2765
 6306TIP3    H140409   3.684   5.736   1.338  0.5086 -1.4033  0.8613
 6306TIP3    H240410   3.547   5.715   1.277  1.3368 -0.7775 -1.3007
 6307TIP3   OH240411   2.535   5.390   3.104 -0.2023  0.5893  1.1427
 6307TIP3    H140412   2.478   5.466   3.107 -1.6253 -0.4581  1.5374
 6307TIP3    H240413   2.520   5.351   3.018  1.1694  1.1917  0.5911
 6308TIP3   OH240414   2.594   2.477   6.504  0.1415  0.9505  0.2809
 6308TIP3    H140415   2.635   2.551   6.460 -1.9859  1.6188 -0.7060
 6308TIP3    H240416   2.519   2.514   6.550  1.4986  0.0467  3.4986
 6309TIP3   OH240417   4.265   1.741   3.915 -0.3725 -0.4073  0.3588
 6309TIP3    H140418   4.274   1.660   3.965 -0.8331 -3.2012 -3.5816
 6309TIP3    H240419   4.353   1.779   3.915 -0.0901 -0.9754  2.0932
 6310TIP3   OH240420   5.542   4.576   2.445  0.0582 -0.1534  0.3525
 6310TIP3    H140421   5.570   4.634   2.516  0.1743 -0.3779  0.4907
 6310TIP3    H240422   5.581   4.491   2.467  1.2596  0.0897 -0.6928
 6311TIP3   OH240423   3.158   0.761  12.829  0.6488  0.0048 -0.4467
 6311TIP3    H140424   3.091   0.706  12.787  0.5836 -0.5752  0.3931
 6311TIP3    H240425   3.217   0.699  12.872  1.4845  0.5311 -0.8050
 6312TIP3   OH240426   2.593   1.064  13.037  0.2603 -0.0190 -0.6147
 6312TIP3    H140427   2.623   1.076  12.947 -0.8115  0.2264 -0.9646
 6312TIP3    H240428   2.508   1.109  13.039 -0.3603 -1.1791  0.1488
 6313TIP3   OH240429   1.069   5.128   3.590  0.0027  0.4313  0.4988
 6313TIP3    H140430   1.012   5.102   3.662  0.0776  1.8553  1.1027
 6313TIP3    H240431   1.154   5.090   3.611  0.2136  1.4595  1.5651
 6314TIP3   OH240432   6.406   2.713  11.743 -0.5227  0.5569  0.5110
 6314TIP3    H140433   6.412   2.806  11.720 -1.5355  0.2657 -1.1282
 6314TIP3    H240434   6.312   2.693  11.737 -0.5864 -0.1253  2.8737
 6315TIP3   OH240435   5.031   1.329   4.688  0.4833 -0.0285  0.2900
 6315TIP3    H140436   5.080   1.393   4.740  1.7195 -0.8441  0.1518
 6315TIP3    H240437   5.073   1.245   4.706  1.2330 -0.2939 -2.2986
 6316TIP3   OH240438   1.430   5.586  14.178 -0.4741  0.5229 -0.0490
 6316TIP3    H140439   1.367   5.602  14.249 -1.1099  1.7778 -0.8442
 6316TIP3    H240440   1.513   5.619  14.211 -0.3874 -0.4423  0.7258
 6317TIP3   OH240441   3.544   0.081  16.511 -0.0248 -0.2786  0.2374
 6317TIP3    H140442   3.599   0.150  16.472 -0.4083  0.1983  0.5332
 6317TIP3    H240443   3.455   0.116  16.505 -0.0869 -0.1596  1.6065
 6318TIP3   OH240444   1.268   2.914   0.378  0.4413  0.0206  0.2513
 6318TIP3    H140445   1.278   2.971   0.455  0.7368  1.1904 -0.6306
 6318TIP3    H240446   1.174   2.894   0.376  0.6844 -1.5295  1.9346
 6319TIP3   OH240447   2.958   6.610   5.176  0.0136 -0.0724  0.0746
 6319TIP3    H140448   3.037   6.600   5.122 -0.2930 -0.7875 -0.2512
 6319TIP3    H240449   2.959   6.535   5.235 -0.6569 -0.3288 -0.2343
 6320TIP3   OH240450   1.167   3.558  12.119  0.5768 -0.5855  0.2572
 6320TIP3    H140451   1.257   3.572  12.089 -0.1945  0.1773 -1.9049
 6320TIP3    H240452   1.141   3.474  12.081  0.3498 -0.7695  0.8094
 6321TIP3   OH240453   5.224   2.020  12.038  0.2596  0.3712  0.4917
 6321TIP3    H140454   5.130   2.003  12.047 -0.0248  2.0680  0.9431
 6321TIP3    H240455   5.231   2.115  12.028  2.0465  0.4668  2.1052
 6322TIP3   OH240456   2.608   5.878   2.569  0.7586 -0.1941  0.0512
 6322TIP3    H140457   2.599   5.824   2.490 -1.5526 -0.3421  0.3466
 6322TIP3    H240458   2.637   5.963   2.537  0.6141 -0.4826 -0.8643
 6323TIP3   OH240459   2.226   2.045  11.628  0.1094 -0.6264  0.0352
 6323TIP3    H140460   2.243   1.991  11.705 -0.6463 -2.4911 -1.0508
 6323TIP3    H240461   2.308   2.091  11.612  0.4716 -0.6976  1.5570
 6324TIP3   OH240462   6.221   0.047   4.982  0.0689  0.0095  0.0894
 6324TIP3    H140463   6.132   0.075   5.004 -0.1750  0.4462 -1.3328
 6324TIP3    H240464   6.250  -0.003   5.058 -1.7520 -0.9476  0.2119
 6325TIP3   OH240465   4.457   4.302  16.040 -0.3778  0.1858  0.0620
 6325TIP3    H140466   4.547   4.289  16.067 -0.2768 -0.3491 -0.5076
 6325TIP3    H240467   4.462   4.368  15.970 -0.6525  1.6809  1.3954
 6326TIP3   OH240468   3.982   1.598  14.790 -0.1903  0.4896  0.0112
 6326TIP3    H140469   4.054   1.537  14.776  0.1324  0.6574  0.9204
 6326TIP3    H240470   4.020   1.670  14.839 -1.2720 -0.0862  1.7717
 6327TIP3   OH240471   6.799   1.953   2.703 -0.6072  0.0630 -0.2735
 6327TIP3    H140472   6.863   1.965   2.773  0.1576 -0.8603 -0.7984
 6327TIP3    H240473   6.770   1.863   2.712 -1.8063  0.4499 -0.0893
 6328TIP3   OH240474   1.924   6.413  12.124 -0.2066 -0.1816 -0.5326
 6328TIP3    H140475   1.908   6.345  12.189 -0.9367  0.9311  0.5155
 6328TIP3    H240476   1.880   6.383  12.045 -3.3935  0.4654  0.8302
 6329TIP3   OH240477   2.707   1.783   0.365  0.2182 -0.3061 -0.0188
 6329TIP3    H140478   2.753   1.763   0.284 -0.3156 -1.8728  0.0130
 6329TIP3    H240479   2.695   1.697   0.407  1.8702  0.5796  2.4935
 6330TIP3   OH240480   5.442   2.554  16.627 -0.2217 -0.2343  0.6022
 6330TIP3    H140481   5.477   2.536  16.714  1.7797  0.4452 -0.0126
 6330TIP3    H240482   5.362   2.604  16.643  0.8171  1.0405  2.0373
 6331TIP3   OH240483   6.132   6.351   1.217  0.1649 -0.3576 -0.1894
 6331TIP3    H140484   6.213   6.301   1.212  0.9232  0.7996  0.1204
 6331TIP3    H240485   6.158   6.441   1.196 -0.9244  0.1447  0.5207
 6332TIP3   OH240486   1.852   5.080   6.276 -0.2083 -0.0055 -0.4685
 6332TIP3    H140487   1.838   5.092   6.182  1.4069  2.5364 -0.4657
 6332TIP3    H240488   1.943   5.051   6.284  0.1577  1.2783  0.3542
 6333TIP3   OH240489   5.294   4.804   1.903 -0.1661 -0.0344  0.7397
 6333TIP3    H140490   5.268   4.791   1.994 -0.7490 -1.7912  0.3595
 6333TIP3    H240491   5.343   4.887   1.904  1.6447 -0.9981  3.0443
 6334TIP3   OH240492   3.847   3.285  16.925  0.2413  0.3894 -0.7124
 6334TIP3    H140493   3.857   3.215  16.989  0.4110  1.8994  1.0099
 6334TIP3    H240494   3.860   3.243  16.840  0.7608 -1.5572  0.2849
 6335TIP3   OH240495   2.830   6.180  11.439 -0.2322 -0.2124 -0.3551
 6335TIP3    H140496   2.829   6.088  11.413  0.0901 -0.2868 -0.1144
 6335TIP3    H240497   2.775   6.182  11.518  0.4929 -0.3659  0.1663
 6336TIP3   OH240498   3.134   3.514   0.849 -0.1746  0.0425 -0.3074
 6336TIP3    H140499   3.086   3.479   0.774 -0.1125 -0.5021 -0.0991
 6336TIP3    H240500   3.150   3.438   0.905  0.4186  0.3175 -0.0928
 6337TIP3   OH240501   2.001   0.817  12.266 -0.2791 -0.5599  0.0295
 6337TIP3    H140502   2.032   0.793  12.179 -1.1260 -1.2331 -0.1088
 6337TIP3    H240503   1.919   0.767  12.276 -0.8552  0.4864  0.6940
 6338TIP3   OH240504   2.024   2.430   4.282  0.3553 -0.4998 -0.4797
 6338TIP3    H140505   2.016   2.405   4.190 -1.2891 -0.7380 -0.3062
 6338TIP3    H240506   1.940   2.406   4.321  1.0386 -0.4630  1.1075
 6339TIP3   OH240507   5.132   6.768   4.903  0.0664  0.0588  0.3112
 6339TIP3    H140508   5.198   6.714   4.859  0.3692 -0.0193  0.8547
 6339TIP3    H240509   5.157   6.858   4.881  1.6205  0.1506  2.2115
 6340TIP3   OH240510   5.534   5.894   5.562  0.2440 -0.6182  0.0883
 6340TIP3    H140511   5.523   5.836   5.638  1.2690 -2.1875 -0.9051
 6340TIP3    H240512   5.538   5.834   5.487 -0.7443  0.8903 -1.2207
 6341TIP3   OH240513   2.031   1.717   5.439 -0.1706 -0.0325  0.5654
 6341TIP3    H140514   2.051   1.697   5.531 -0.6447 -0.1369  0.6496
 6341TIP3    H240515   2.091   1.787   5.416  0.5929 -0.6281  0.6789
 6342TIP3   OH240516   0.567   4.130   5.261  0.4518  0.7911  0.1122
 6342TIP3    H140517   0.505   4.200   5.240 -0.4529  0.3902  1.2815
 6342TIP3    H240518   0.513   4.064   5.306  1.8993  0.9284  2.1841
 6343TIP3   OH240519   1.267   4.738  11.066  0.2237  0.2691  0.1373
 6343TIP3    H140520   1.258   4.646  11.039 -1.4503  0.3742  0.2287
 6343TIP3    H240521   1.191   4.781  11.027 -0.5684  1.0530  2.4186
 6344TIP3   OH240522   4.192   5.685  12.057 -0.1779 -0.4590  0.5260
 6344TIP3    H140523   4.230   5.600  12.036 -0.3151 -0.4779  0.3585
 6344TIP3    H240524   4.231   5.708  12.141 -0.0373 -0.6248  0.5065
 6345TIP3   OH240525   3.729   4.133   0.047 -0.2575  0.5285 -0.1627
 6345TIP3    H140526   3.794   4.202   0.035  0.4351 -0.3090 -1.6246
 6345TIP3    H240527   3.779   4.059   0.082 -0.0738 -0.5234 -2.4106
 6346TIP3   OH240528   3.418   4.506  14.000 -0.1032  0.3877 -0.2341
 6346TIP3    H140529   3.386   4.593  13.978  0.8964  1.6169  2.7501
 6346TIP3    H240530   3.339   4.457  14.023 -0.3881  1.7253  1.7899
 6347TIP3   OH240531   0.737   5.905  16.793  0.1175  0.2359  0.3002
 6347TIP3    H140532   0.663   5.915  16.734 -0.3312 -0.7049  0.6872
 6347TIP3    H240533   0.702   5.928  16.879 -0.5542 -2.8732  0.9804
 6348TIP3   OH240534   1.547   0.134  13.228 -0.6747  0.1334 -0.3561
 6348TIP3    H140535   1.627   0.090  13.201 -0.5926  0.1750 -0.1815
 6348TIP3    H240536   1.573   0.225  13.241 -0.5475 -0.0333  0.5871
 6349TIP3   OH240537   5.248   2.151   3.957  0.0091 -0.2811 -0.4322
 6349TIP3    H140538   5.197   2.084   4.003  5.0794 -2.6778  2.5236
 6349TIP3    H240539   5.255   2.118   3.868 -1.8026 -0.8863 -0.3933
 6350TIP3   OH240540   4.004   2.798   0.307  0.3400 -0.3641  0.2763
 6350TIP3    H140541   4.070   2.767   0.246 -0.0706 -2.0615  0.6301
 6350TIP3    H240542   3.920   2.774   0.266 -0.0079  0.4236  0.5120
 6351TIP3   OH240543   4.405   6.578  10.473  0.0052  0.5391  0.1189
 6351TIP3    H140544   4.395   6.648  10.409  0.4547  0.7422  0.2642
 6351TIP3    H240545   4.469   6.613  10.536 -0.3558  0.3017  0.6154
 6352TIP3   OH240546   0.576   1.817   2.371  0.0782 -0.1012  0.1298
 6352TIP3    H140547   0.651   1.870   2.343 -0.3625  0.1429 -0.6218
 6352TIP3    H240548   0.500   1.865   2.338 -0.5196  0.5538  2.3229
 6353TIP3   OH240549   5.703   3.084  13.690 -0.5522 -0.1492  0.5342
 6353TIP3    H140550   5.735   3.093  13.780 -2.4995 -3.0677  1.6724
 6353TIP3    H240551   5.773   3.038  13.645 -0.2920 -0.2719  1.0509
 6354TIP3   OH240552   4.506   5.826   3.087 -0.2263  0.3051  0.2160
 6354TIP3    H140553   4.487   5.738   3.054 -0.0474  0.1608  0.4954
 6354TIP3    H240554   4.591   5.848   3.048 -0.1077  0.2137  0.4232
 6355TIP3   OH240555   4.189   2.403  15.198 -0.0829 -0.0492  0.0062
 6355TIP3    H140556   4.215   2.472  15.259 -3.8135  1.3323  0.3077
 6355TIP3    H240557   4.249   2.413  15.124  1.6028  1.2849  1.4774
 6356TIP3   OH240558   4.010   4.542   2.256  0.7352 -0.3606  0.3124
 6356TIP3    H140559   4.028   4.599   2.182  1.5784 -0.8782  0.1086
 6356TIP3    H240560   3.920   4.513   2.243  0.9984 -0.7578 -0.7241
 6357TIP3   OH240561   3.009   0.763   4.439 -0.2607 -0.0579 -0.1394
 6357TIP3    H140562   3.017   0.826   4.367 -0.8422 -0.4156 -0.5233
 6357TIP3    H240563   3.098   0.747   4.468 -0.0870  0.7610 -0.2003
 6358TIP3   OH240564   2.409   4.233  10.727 -0.4586  0.6069  0.7903
 6358TIP3    H140565   2.326   4.234  10.775 -1.5320 -0.8755 -0.9230
 6358TIP3    H240566   2.391   4.283  10.648 -0.0820 -0.6517 -0.1196
 6359TIP3   OH240567   0.799   0.078  11.723  0.1868  0.7491 -0.4274
 6359TIP3    H140568   0.745   0.139  11.673 -0.9476 -0.2843 -0.4945
 6359TIP3    H240569   0.745   0.052  11.797  0.5997 -0.2811 -0.4697
 6360TIP3   OH240570   3.464   5.704   1.122 -0.1326 -0.5470 -0.1112
 6360TIP3    H140571   3.524   5.737   1.055 -0.4975  0.1515 -0.1007
 6360TIP3    H240572   3.441   5.616   1.092 -1.4459  0.2779 -1.7011
 6361TIP3   OH240573   1.682   2.539  12.614 -1.0540 -0.3406 -0.1280
 6361TIP3    H140574   1.763   2.589  12.611  0.5138 -2.7317 -0.8392
 6361TIP3    H240575   1.618   2.598  12.653  0.8875  1.8160 -0.0257
 6362TIP3   OH240576   2.364   1.826  15.018  0.1466 -0.9171 -0.6327
 6362TIP3    H140577   2.422   1.787  15.084  0.7485 -1.4931 -1.4842
 6362TIP3    H240578   2.378   1.920  15.027  1.5070 -1.0548 -1.0572
 6363TIP3   OH240579   1.481   2.538   3.586  0.0600  0.3911  0.4083
 6363TIP3    H140580   1.463   2.452   3.625 -1.9883  0.4366 -0.3271
 6363TIP3    H240581   1.445   2.532   3.498  0.8360  1.6760 -0.0154
 6364TIP3   OH240582   2.596   2.684  12.141  0.3950 -0.1706 -0.1930
 6364TIP3    H140583   2.620   2.654  12.229 -0.5214  0.6880  0.3673
 6364TIP3    H240584   2.635   2.620  12.082  0.3425 -1.2158  0.8780
 6365TIP3   OH240585   0.629   1.479  11.651  0.0547 -0.0941 -0.8324
 6365TIP3    H140586   0.646   1.534  11.727 -0.3382  0.4039 -1.0945
 6365TIP3    H240587   0.709   1.429  11.639 -0.0857 -0.5981  0.2456
 6366TIP3   OH240588   3.171   3.722   3.153  0.1111 -0.3830  0.1247
 6366TIP3    H140589   3.169   3.793   3.216 -0.8959 -0.0268 -0.2980
 6366TIP3    H240590   3.081   3.692   3.148 -0.2772  0.9960 -2.7109
 6367TIP3   OH240591   1.561   1.584   3.308  0.1235 -0.7151  0.1064
 6367TIP3    H140592   1.637   1.621   3.352  1.6141 -1.9804 -1.2569
 6367TIP3    H240593   1.541   1.505   3.358  0.3235 -0.8928 -0.0918
 6368TIP3   OH240594   4.048   1.671   5.268 -0.3106  0.0871 -0.5610
 6368TIP3    H140595   4.140   1.657   5.245  0.0238 -0.2743  0.9126
 6368TIP3    H240596   4.042   1.766   5.282  0.1248 -0.0301  0.4727
 6369TIP3   OH240597   2.188   5.718  15.397  0.1524 -0.2058  1.0305
 6369TIP3    H140598   2.275   5.755  15.381 -0.6166  1.6968  0.9259
 6369TIP3    H240599   2.200   5.660  15.472  1.4446  0.2970  1.2488
 6370TIP3   OH240600   6.811   4.347   4.420 -0.0089  0.8124 -0.5733
 6370TIP3    H140601   6.719   4.325   4.436  0.2287 -1.6535 -2.1334
 6370TIP3    H240602   6.831   4.413   4.487 -1.9343 -1.1281  2.1381
 6371TIP3   OH240603   6.415   5.266   0.644  0.3133  0.1191 -0.3924
 6371TIP3    H140604   6.411   5.190   0.703  0.7951 -1.5935 -2.4348
 6371TIP3    H240605   6.508   5.278   0.627  0.1917  0.7617 -0.6047
 6372TIP3   OH240606   0.446   3.079   2.502 -0.1671  0.2667 -0.3142
 6372TIP3    H140607   0.363   3.079   2.550 -0.8223 -1.4062 -1.3651
 6372TIP3    H240608   0.453   2.991   2.465  1.2862  0.8831 -1.6381
 6373TIP3   OH240609   5.580   3.908   1.495  0.1633 -0.1780 -0.0684
 6373TIP3    H140610   5.546   3.997   1.496  1.9923  0.5729  0.7100
 6373TIP3    H240611   5.576   3.881   1.403 -1.0598  0.4261 -0.2015
 6374TIP3   OH240612   5.334   3.662  17.178  0.1592 -0.7539  0.3766
 6374TIP3    H140613   5.404   3.681  17.241 -0.4101 -0.3262  0.8866
 6374TIP3    H240614   5.294   3.581  17.210 -1.0482  0.2097  1.3926
 6375TIP3   OH240615   0.810   4.355   6.186  0.0785  0.0925 -0.0151
 6375TIP3    H140616   0.903   4.370   6.207  0.3861 -0.5865 -0.8487
 6375TIP3    H240617   0.781   4.436   6.147  1.0160 -0.4965 -2.0599
 6376TIP3   OH240618   2.909   5.692  14.051 -0.0590  0.0142 -0.6996
 6376TIP3    H140619   2.999   5.658  14.042 -0.1515 -0.3027 -0.4418
 6376TIP3    H240620   2.910   5.739  14.134  0.4871  1.9811 -1.7550
 6377TIP3   OH240621   2.199   5.846  14.508  0.0647 -0.6631 -0.9268
 6377TIP3    H140622   2.217   5.840  14.414  0.6103  0.5890 -0.9214
 6377TIP3    H240623   2.237   5.929  14.535 -0.7005 -0.6690  0.2744
 6378TIP3   OH240624   1.891   6.729  13.835 -0.0063 -0.6266 -0.6428
 6378TIP3    H140625   1.878   6.788  13.909  1.1611 -0.1595 -0.7823
 6378TIP3    H240626   1.806   6.686  13.822 -0.0541 -1.2367  1.3947
 6379TIP3   OH240627   5.248   4.146  13.756  0.1205  0.3757 -0.1200
 6379TIP3    H140628   5.229   4.080  13.689 -1.0473  1.4043 -0.8421
 6379TIP3    H240629   5.310   4.205  13.715 -1.4112  1.6179 -0.7279
 6380TIP3   OH240630   3.302   3.208  15.568  0.4245 -0.3409 -0.1582
 6380TIP3    H140631   3.288   3.173  15.479  1.8254 -2.5121  0.4002
 6380TIP3    H240632   3.378   3.265  15.560  0.3068 -0.2166 -0.4129
 6381TIP3   OH240633   1.924   0.154  13.320 -0.1968  0.3597  0.0632
 6381TIP3    H140634   1.876   0.122  13.244  0.5976  0.8085 -0.6312
 6381TIP3    H240635   1.865   0.136  13.394 -1.8370  1.6856 -0.8499
 6382TIP3   OH240636   1.779   1.775  15.424  0.4278  0.0604 -0.4084
 6382TIP3    H140637   1.766   1.769  15.519 -0.3114  0.2555 -0.4915
 6382TIP3    H240638   1.692   1.794  15.389  0.4714 -1.1831 -1.2371
 6383TIP3   OH240639   0.015   4.794  13.775  0.1422  0.0174 -0.1576
 6383TIP3    H140640  -0.001   4.701  13.789 -0.0808  0.2190  1.0789
 6383TIP3    H240641  -0.073   4.833  13.769  0.2330  0.1569 -0.6176
 6384TIP3   OH240642   0.074   0.535  10.800 -0.6149 -0.3551  0.0189
 6384TIP3    H140643   0.166   0.554  10.780 -0.6956 -0.0993 -0.1250
 6384TIP3    H240644   0.026   0.609  10.761 -0.6437  1.2697  2.8439
 6385TIP3   OH240645   4.674   1.420  13.775  0.2966  0.2875  0.1831
 6385TIP3    H140646   4.674   1.503  13.726  1.8818  0.7521  0.8937
 6385TIP3    H240647   4.583   1.391  13.772 -0.0083  1.2220 -1.4644
 6386TIP3   OH240648   0.160   0.208   1.011 -0.7470 -0.4656  0.0041
 6386TIP3    H140649   0.220   0.282   1.013 -0.1838 -0.8286 -1.8352
 6386TIP3    H240650   0.093   0.230   1.077  0.5750  0.6207  1.0462
 6387TIP3   OH240651   1.730   2.183  13.401  0.2165  0.3833  0.1155
 6387TIP3    H140652   1.786   2.174  13.478 -0.1746  2.1265  0.6374
 6387TIP3    H240653   1.641   2.187  13.436 -0.1941 -1.2872 -0.6329
 6388TIP3   OH240654   2.390   5.872   5.446  0.0317  0.6555 -0.2454
 6388TIP3    H140655   2.382   5.776   5.449  0.2029  0.6695  0.6895
 6388TIP3    H240656   2.427   5.889   5.359  0.5479 -0.1667 -0.2037
 6389TIP3   OH240657   3.015   4.227  13.591  0.0131 -0.0513  0.1488
 6389TIP3    H140658   2.956   4.152  13.586 -1.0791  0.8800 -1.8522
 6389TIP3    H240659   3.003   4.273  13.508  1.8187  1.4861  0.6765
 6390TIP3   OH240660   0.916   5.307   4.879  0.3212  0.1814 -0.2900
 6390TIP3    H140661   0.935   5.233   4.936  2.1306 -0.1157 -1.2037
 6390TIP3    H240662   0.859   5.271   4.810 -1.2655  0.3797  0.8517
 6391TIP3   OH240663   0.678   5.441   2.614 -0.0999  0.4959 -0.5901
 6391TIP3    H140664   0.679   5.415   2.707  0.5050 -1.3045 -1.0577
 6391TIP3    H240665   0.717   5.528   2.613 -1.4830  1.1940  1.0095
 6392TIP3   OH240666   4.805   4.858  16.448  0.6430  0.1221 -0.2711
 6392TIP3    H140667   4.826   4.784  16.505  1.7660  1.1564  0.6950
 6392TIP3    H240668   4.722   4.891  16.482  0.1138 -0.6840 -0.7284
 6393TIP3   OH240669   1.525   5.114   4.434  0.2585 -0.3313  0.2665
 6393TIP3    H140670   1.574   5.047   4.482  1.9599 -0.8274 -1.9763
 6393TIP3    H240671   1.440   5.074   4.416 -0.3049 -0.2520  2.4569
 6394TIP3   OH240672   6.283   6.420  11.933  0.3151 -0.1914  0.0127
 6394TIP3    H140673   6.327   6.498  11.967 -0.0001 -0.9435  2.3089
 6394TIP3    H240674   6.350   6.351  11.937  0.1670 -0.3792 -0.6095
 6395TIP3   OH240675   0.421   2.598   3.457  0.4142 -0.3446  0.5577
 6395TIP3    H140676   0.346   2.571   3.403  0.3205  0.8182  0.0733
 6395TIP3    H240677   0.382   2.621   3.542  0.2055  0.2993  0.2936
 6396TIP3   OH240678   5.663   0.492   1.716 -0.3296 -0.0599 -0.6620
 6396TIP3    H140679   5.665   0.445   1.799  0.4033 -0.0503 -0.6626
 6396TIP3    H240680   5.743   0.545   1.716 -0.3456 -0.0158 -1.3445
 6397TIP3   OH240681   6.606   6.266  14.600  0.0673 -0.3246  0.0873
 6397TIP3    H140682   6.619   6.176  14.572  1.4296  0.0720 -0.6157
 6397TIP3    H240683   6.559   6.307  14.527  1.4262  0.0790 -0.5907
 6398TIP3   OH240684   4.890   0.695   1.847 -0.1665  0.7186  0.6309
 6398TIP3    H140685   4.977   0.705   1.887  0.9069  1.1850 -1.6641
 6398TIP3    H240686   4.908   0.687   1.754 -2.5928  0.2983  0.1545
 6399TIP3   OH240687   0.048   6.093   0.356  0.2516  0.0348  0.3687
 6399TIP3    H140688   0.113   6.154   0.319 -1.1294  1.4686  0.1924
 6399TIP3    H240689   0.049   6.112   0.449 -0.6241  0.8048  0.2339
 6400TIP3   OH240690   1.728   6.241  10.423 -0.1626  0.3324  0.0684
 6400TIP3    H140691   1.788   6.269  10.492  0.5557  0.1242 -0.4570
 6400TIP3    H240692   1.771   6.270  10.342 -0.2379 -0.7772 -0.3739
 6401TIP3   OH240693   6.526   1.161  12.159 -0.1254 -0.2035  0.3511
 6401TIP3    H140694   6.610   1.195  12.191  0.6697 -1.0737 -0.7814
 6401TIP3    H240695   6.534   1.066  12.165 -0.6431 -0.3263 -0.7490
 6402TIP3   OH240696   5.456   0.142  11.268  1.0331  0.3567 -0.3087
 6402TIP3    H140697   5.439   0.172  11.357 -1.3517  1.8297 -1.1813
 6402TIP3    H240698   5.432   0.049  11.270  0.3976  0.5237  0.4354
 6403TIP3   OH240699   1.555   3.819   1.799 -0.0852 -0.1044  0.0864
 6403TIP3    H140700   1.570   3.900   1.750  1.5839 -0.6388 -0.3568
 6403TIP3    H240701   1.598   3.751   1.747 -1.2649 -1.2624  0.5623
 6404TIP3   OH240702   5.143   6.005   3.320 -0.4549 -0.3096  0.7835
 6404TIP3    H140703   5.185   5.942   3.378  1.6349  0.9460  0.7529
 6404TIP3    H240704   5.123   6.080   3.375  1.9370  1.0690 -0.0606
 6405TIP3   OH240705   5.358   3.568  15.279  0.3191 -0.1132 -0.0677
 6405TIP3    H140706   5.395   3.480  15.281  1.8263  0.5072  0.2122
 6405TIP3    H240707   5.357   3.592  15.186  0.3741 -0.2265 -0.0975
 6406TIP3   OH240708   4.116   1.398  13.804 -1.0507 -0.6424  0.7832
 6406TIP3    H140709   4.172   1.457  13.853  0.2560 -2.0873  1.0996
 6406TIP3    H240710   4.175   1.353  13.744 -2.0810 -1.3202  0.2384
 6407TIP3   OH240711   3.942   5.836   4.852  0.8247  0.2432  0.3965
 6407TIP3    H140712   3.954   5.912   4.796  1.1700 -1.1812 -1.5581
 6407TIP3    H240713   3.849   5.815   4.845  0.6305  0.7271  1.3133
 6408TIP3   OH240714   4.488   2.192  15.081  0.2469 -0.7663 -0.6839
 6408TIP3    H140715   4.451   2.272  15.043 -1.3355 -1.5801 -0.9426
 6408TIP3    H240716   4.455   2.192  15.171  1.0369 -0.6663 -0.3840
 6409TIP3   OH240717   5.245   2.585   1.763  0.1073  0.0156 -0.3714
 6409TIP3    H140718   5.223   2.509   1.816 -0.8526  0.5093 -0.0360
 6409TIP3    H240719   5.181   2.652   1.788 -1.0668 -0.0404 -2.8426
 6410TIP3   OH240720   6.622   4.263   5.433 -0.3348 -0.4873 -0.2391
 6410TIP3    H140721   6.647   4.177   5.468  0.2859 -0.4447 -0.5561
 6410TIP3    H240722   6.540   4.246   5.386  0.0822 -1.0428 -0.7977
 6411TIP3   OH240723   2.419   5.846   3.968 -0.6472  0.4181 -0.2705
 6411TIP3    H140724   2.401   5.767   3.918 -3.7692  0.3478  0.7762
 6411TIP3    H240725   2.423   5.817   4.059 -0.6513  1.3010  0.0246
 6412TIP3   OH240726   6.490   4.882  16.287 -0.4936  0.3219 -0.1812
 6412TIP3    H140727   6.536   4.823  16.346  0.9092 -0.0527 -1.5945
 6412TIP3    H240728   6.403   4.845  16.278  0.1519 -1.1821 -0.5079
 6413TIP3   OH240729   1.251   6.105   2.572  0.0605 -0.0370  0.2568
 6413TIP3    H140730   1.343   6.123   2.592 -0.0358  0.2637  0.4361
 6413TIP3    H240731   1.232   6.162   2.498 -0.0909  0.1964  0.4731
 6414TIP3   OH240732   4.757   0.560   0.595  0.0642  0.3923 -0.0615
 6414TIP3    H140733   4.749   0.570   0.500  0.7895  0.8074 -0.0796
 6414TIP3    H240734   4.670   0.581   0.628 -0.9747 -2.2664 -0.8085
 6415TIP3   OH240735   6.357   0.933   6.112  0.5839 -0.6568  0.7573
 6415TIP3    H140736   6.391   0.857   6.159  2.9741 -0.2659 -0.1861
 6415TIP3    H240737   6.406   0.935   6.030 -0.6819  0.9065 -0.0219
 6416TIP3   OH240738   3.636   1.059   2.456  0.0980  0.3111 -0.8477
 6416TIP3    H140739   3.628   1.021   2.368 -0.0260 -1.7628  0.0101
 6416TIP3    H240740   3.565   1.123   2.461 -0.8696 -0.6679 -1.7145
 6417TIP3   OH240741   4.832   1.316   4.458  0.1643 -0.2155 -0.3000
 6417TIP3    H140742   4.753   1.276   4.494 -1.0674  3.5094  1.6640
 6417TIP3    H240743   4.904   1.275   4.507 -0.7122 -1.9732 -0.4161
 6418TIP3   OH240744   2.078   3.209   5.887  0.2241 -0.9026 -0.1837
 6418TIP3    H140745   2.052   3.250   5.804  0.9742  0.8296  0.3979
 6418TIP3    H240746   2.044   3.120   5.881  1.7637 -1.4290 -3.1393
 6419TIP3   OH240747   0.737   1.110  12.934 -0.4022  0.4043  0.0533
 6419TIP3    H140748   0.829   1.117  12.961 -0.2358  0.1807 -0.4489
 6419TIP3    H240749   0.703   1.200  12.941  0.0462  0.6130 -0.4384
 6420TIP3   OH240750   1.366   4.447  13.788  0.5486  0.0025  0.1231
 6420TIP3    H140751   1.373   4.402  13.872  0.2390 -0.7223 -0.2292
 6420TIP3    H240752   1.326   4.383  13.729 -1.1597  1.1691 -0.0675
 6421TIP3   OH240753   6.401   0.943  14.008 -0.5296 -0.3389 -0.2659
 6421TIP3    H140754   6.367   0.859  14.038 -0.8656 -0.1322 -0.0486
 6421TIP3    H240755   6.326   0.985  13.965 -0.7730  0.4346  0.8701
 6422TIP3   OH240756   4.110   2.051   6.024  0.0204 -0.4841  0.0624
 6422TIP3    H140757   4.141   2.001   6.099 -0.6069 -1.3755 -0.2490
 6422TIP3    H240758   4.027   2.089   6.052  1.2334  1.7779  0.8451
 6423TIP3   OH240759   5.928   1.960  16.525 -0.0434 -0.0723  0.1195
 6423TIP3    H140760   5.839   1.986  16.499 -0.1296  0.2459  0.7114
 6423TIP3    H240761   5.956   1.899  16.457 -0.7001 -0.1406 -0.0969
 6424TIP3   OH240762   5.075   3.362  16.141 -0.0671  0.0810 -0.0802
 6424TIP3    H140763   5.116   3.373  16.226 -0.2079  0.0681 -0.0091
 6424TIP3    H240764   5.117   3.285  16.103 -0.1436 -0.0323  0.0623
 6425TIP3   OH240765   1.221   4.088  13.279 -0.3035 -0.4631 -0.4598
 6425TIP3    H140766   1.217   4.168  13.226 -0.5916 -0.4575 -0.4310
 6425TIP3    H240767   1.240   4.019  13.217 -1.0990 -0.5238 -0.6424
 6426TIP3   OH240768   2.342   4.753  15.344  0.1855 -0.4659 -0.6206
 6426TIP3    H140769   2.372   4.763  15.254 -0.1433  0.7844 -0.6138
 6426TIP3    H240770   2.300   4.837  15.365  0.5751 -0.6018  0.8121
 6427TIP3   OH240771   5.508   6.291  11.282 -0.3818 -0.1405  0.0449
 6427TIP3    H140772   5.554   6.348  11.221 -0.4032  2.0694  1.9727
 6427TIP3    H240773   5.425   6.273  11.239  0.1908  0.1326 -1.2159
 6428TIP3   OH240774   4.313   0.253   1.580  0.2995  0.1988  0.2704
 6428TIP3    H140775   4.293   0.225   1.669 -0.2336 -0.2470  0.0195
 6428TIP3    H240776   4.387   0.197   1.554  0.9078  0.8077  0.6701
 6429TIP3   OH240777   1.565   5.221   1.071  0.5373  0.1940  0.4544
 6429TIP3    H140778   1.616   5.300   1.090 -0.9451  0.9688  1.4141
 6429TIP3    H240779   1.533   5.234   0.982  0.9576  0.2961  0.3164
 6430TIP3   OH240780   3.545   1.850   3.000 -0.6680 -0.1418 -0.0378
 6430TIP3    H140781   3.549   1.927   3.056 -0.5382 -0.8252  0.9190
 6430TIP3    H240782   3.613   1.791   3.035 -0.2638 -0.3958 -1.2019
 6431TIP3   OH240783   4.391   0.330  12.518 -0.0335 -0.4532  0.2770
 6431TIP3    H140784   4.404   0.280  12.437 -1.6794  0.0314 -0.3201
 6431TIP3    H240785   4.386   0.263  12.587  0.8192 -0.8987 -0.0714
 6432TIP3   OH240786   6.263   0.170  16.707  0.2364 -0.5331  0.7979
 6432TIP3    H140787   6.246   0.178  16.613 -0.5522  0.5083  1.0032
 6432TIP3    H240788   6.183   0.131  16.743  0.9032 -1.8537  0.9375
 6433TIP3   OH240789   5.968   6.525  16.631 -0.1629 -0.0991 -0.4600
 6433TIP3    H140790   5.902   6.475  16.583 -0.7403 -0.2886  0.5109
 6433TIP3    H240791   5.946   6.617  16.612 -0.2054 -0.1770 -0.7892
 6434TIP3   OH240792   0.656   3.183  11.406 -0.0140  0.6044 -0.1086
 6434TIP3    H140793   0.611   3.196  11.323 -0.5265  0.2965  0.1162
 6434TIP3    H240794   0.709   3.105  11.393  0.1923  0.7680 -0.2606
 6435TIP3   OH240795   0.867   2.140   3.771  0.2207  0.0392  0.2350
 6435TIP3    H140796   0.797   2.170   3.828  0.8682  1.7411  0.1861
 6435TIP3    H240797   0.939   2.201   3.786  1.0471 -0.5475 -1.0780
 6436TIP3   OH240798   4.810   1.553   5.435  0.9335 -0.9189  0.4075
 6436TIP3    H140799   4.812   1.642   5.469  0.3036 -0.9564  0.5669
 6436TIP3    H240800   4.877   1.551   5.367  0.4653 -0.1168 -0.0898
 6437TIP3   OH240801   3.919   5.468   4.214  0.7812 -0.3368 -0.1901
 6437TIP3    H140802   3.953   5.397   4.160 -1.6601 -0.7599 -1.3256
 6437TIP3    H240803   3.920   5.545   4.156  0.7875 -0.1097  0.1074
 6438TIP3   OH240804   0.445   2.099   2.994  0.2384  0.0451  0.6766
 6438TIP3    H140805   0.471   2.056   2.913  0.1221  0.9016  0.1764
 6438TIP3    H240806   0.402   2.180   2.966 -2.9442 -1.2237  1.4215
 6439TIP3   OH240807   3.681   2.511   4.850 -0.3865  0.0944 -0.4178
 6439TIP3    H140808   3.636   2.449   4.907 -1.3750  1.3406  0.2241
 6439TIP3    H240809   3.690   2.465   4.766 -1.0391 -0.9139  0.0469
 6440TIP3   OH240810   0.985   1.811   3.542  0.2264  0.4319 -0.2560
 6440TIP3    H140811   0.936   1.800   3.624 -1.4939  0.1618 -1.2689
 6440TIP3    H240812   0.992   1.905   3.530 -1.0298  0.4827 -0.6465
 6441TIP3   OH240813   1.266   6.161   5.727 -0.5842  0.1839  0.1220
 6441TIP3    H140814   1.262   6.221   5.801  2.2385 -0.8499  1.2871
 6441TIP3    H240815   1.333   6.198   5.669  1.0971 -1.5773  0.7844
 6442TIP3   OH240816   0.775   6.700   0.042  0.5169 -0.6246 -0.5936
 6442TIP3    H140817   0.869   6.704   0.023  0.3243  0.3280 -1.4565
 6442TIP3    H240818   0.752   6.608   0.034  1.2980 -0.8079 -0.8165
 6443TIP3   OH240819   1.728   1.112  15.888  0.0348 -0.1347  0.7731
 6443TIP3    H140820   1.712   1.059  15.966  0.5975 -0.1411  0.8901
 6443TIP3    H240821   1.775   1.189  15.920 -0.9167  0.5314  0.6305
 6444TIP3   OH240822   4.651   4.117   4.192 -0.1555 -0.7239  0.0396
 6444TIP3    H140823   4.720   4.088   4.134  0.3902 -2.8825  1.6338
 6444TIP3    H240824   4.610   4.036   4.224 -2.1837  0.4340  0.5877
 6445TIP3   OH240825   3.457   2.155   4.189 -0.0992  0.4610 -0.5047
 6445TIP3    H140826   3.501   2.174   4.272  0.4331  0.9158 -0.8837
 6445TIP3    H240827   3.388   2.092   4.212  0.3637  0.2012  0.1993
 6446TIP3   OH240828   4.691   3.638   3.947 -0.0618 -0.3522  0.8640
 6446TIP3    H140829   4.746   3.700   3.900 -0.0151 -1.2527 -0.3264
 6446TIP3    H240830   4.673   3.680   4.031  0.9300  0.7400  0.5528
 6447TIP3   OH240831   3.770   4.622   4.291 -0.2442  0.5192 -0.1768
 6447TIP3    H140832   3.778   4.547   4.351 -0.9562 -1.2787 -2.2091
 6447TIP3    H240833   3.852   4.671   4.303 -0.0729 -0.1550  1.7250
 6448TIP3   OH240834   1.150   5.187   2.712 -0.1713  0.4153  0.4035
 6448TIP3    H140835   1.091   5.114   2.695  1.4565 -0.5215 -1.6234
 6448TIP3    H240836   1.091   5.263   2.723 -1.7815 -0.4943 -1.3533
 6449TIP3   OH240837   6.053   5.503   5.402 -0.2526 -0.4295  0.1090
 6449TIP3    H140838   6.143   5.529   5.381  0.1333 -0.9606  1.0595
 6449TIP3    H240839   6.061   5.447   5.479 -1.3424 -1.0076 -0.1743
 6450TIP3   OH240840   1.279   6.785  16.345  0.0565  0.0054  0.4093
 6450TIP3    H140841   1.220   6.716  16.317 -0.3546  0.3174  0.4992
 6450TIP3    H240842   1.275   6.783  16.441  0.3653 -0.1230  0.4200
 6451TIP3   OH240843   4.651   5.828   1.324  0.0790  0.1183 -0.4318
 6451TIP3    H140844   4.616   5.914   1.303  0.4158  0.0202 -1.4723
 6451TIP3    H240845   4.617   5.771   1.255  0.4004 -0.4428 -0.1378
 6452TIP3   OH240846   6.467   4.054  16.730  0.2242 -0.5722  0.1995
 6452TIP3    H140847   6.542   4.032  16.786 -0.1494 -0.3818  0.7930
 6452TIP3    H240848   6.504   4.065  16.643  0.8335 -0.8248  0.4209
 6453TIP3   OH240849   1.155   5.559  14.814  0.1245  0.3668 -0.2292
 6453TIP3    H140850   1.249   5.563  14.796 -0.2649  1.0761 -2.2493
 6453TIP3    H240851   1.119   5.507  14.743 -0.9978 -0.2325  0.7407
 6454TIP3   OH240852   1.950   4.044  15.824 -0.1472 -0.2546 -0.2176
 6454TIP3    H140853   2.008   4.114  15.795  1.1012 -1.5320 -0.9721
 6454TIP3    H240854   2.000   3.997  15.890  0.0604 -1.8516 -1.4417
 6455TIP3   OH240855   2.578   5.545   2.308 -0.0064 -0.0682 -0.1109
 6455TIP3    H140856   2.536   5.603   2.244 -1.5722 -0.6864  0.2970
 6455TIP3    H240857   2.505   5.503   2.353  0.8618  2.1043  3.8136
 6456TIP3   OH240858   5.244   1.665   2.809 -0.2464  0.0304  0.0167
 6456TIP3    H140859   5.178   1.623   2.864 -0.3654 -0.7113 -0.6660
 6456TIP3    H240860   5.265   1.746   2.854 -1.0148 -0.1242  0.6756
 6457TIP3   OH240861   3.203   6.188  16.161  0.4080  0.8303 -0.3350
 6457TIP3    H140862   3.158   6.154  16.084 -0.2611  0.9292  0.0068
 6457TIP3    H240863   3.290   6.149  16.157 -0.7457 -2.0749  0.8087
 6458TIP3   OH240864   3.700   2.717   4.375 -0.2118 -0.2285  0.1644
 6458TIP3    H140865   3.739   2.779   4.437 -1.0295  0.1920  0.2636
 6458TIP3    H240866   3.689   2.636   4.425 -2.2036  0.5236  1.0286
 6459TIP3   OH240867   1.708   3.792   6.121  0.1337 -0.1088  0.0447
 6459TIP3    H140868   1.802   3.805   6.133  0.0608 -0.5381  1.1727
 6459TIP3    H240869   1.667   3.850   6.186 -0.3248 -1.3314  0.8724
 6460TIP3   OH240870   0.380   3.078  12.068  0.1496  0.6593 -0.1837
 6460TIP3    H140871   0.318   3.042  12.131  0.1475  0.7146 -0.1542
 6460TIP3    H240872   0.463   3.084  12.116  0.2739  0.2290 -0.3339
 6461TIP3   OH240873   3.540   3.640  14.958 -0.5161 -0.2960 -0.0587
 6461TIP3    H140874   3.608   3.639  14.890 -1.5344  0.0794 -1.1169
 6461TIP3    H240875   3.514   3.549  14.967 -0.3984 -0.3437 -0.1988
 6462TIP3   OH240876   0.508   4.416  14.793  0.9193 -0.3002  0.0692
 6462TIP3    H140877   0.466   4.433  14.877  1.0099 -0.7683  0.2103
 6462TIP3    H240878   0.480   4.488  14.737  0.4777 -0.2445  0.3622
 6463TIP3   OH240879   3.590   4.524   6.256 -0.1538  0.4563 -0.0870
 6463TIP3    H140880   3.523   4.498   6.319 -0.2589  1.2193  0.1241
 6463TIP3    H240881   3.585   4.456   6.188 -1.2400  0.5650 -0.1436
 6464TIP3   OH240882   0.340   5.467  14.325  0.4023 -0.1620  0.4203
 6464TIP3    H140883   0.294   5.541  14.364  2.3498  1.4167 -0.1361
 6464TIP3    H240884   0.429   5.472  14.359  0.8518 -1.6876 -0.3975
 6465TIP3   OH240885   4.257   3.583   1.077 -0.7614  0.5208 -0.1937
 6465TIP3    H140886   4.329   3.634   1.039  2.2089 -0.9559  2.8545
 6465TIP3    H240887   4.239   3.626   1.160 -0.8873 -1.1314  0.6685
 6466TIP3   OH240888   4.770   0.694   3.462 -0.0107  0.5379 -0.0121
 6466TIP3    H140889   4.783   0.742   3.544 -0.0858  0.8626 -0.1861
 6466TIP3    H240890   4.814   0.610   3.475 -0.0568  0.5738  0.3749
 6467TIP3   OH240891   5.595   3.855  15.121 -1.0760  0.2426  0.6859
 6467TIP3    H140892   5.501   3.854  15.107 -0.8665  0.2869 -0.8644
 6467TIP3    H240893   5.632   3.886  15.039  0.5912 -4.3668 -0.6180
 6468TIP3   OH240894   3.494   0.692  15.389  0.1521  0.3507 -0.0562
 6468TIP3    H140895   3.513   0.780  15.422  0.1567 -0.1003  1.2257
 6468TIP3    H240896   3.527   0.634  15.457 -0.1935 -0.6379 -0.7077
 6469TIP3   OH240897   0.428   6.183   4.968  0.8721 -0.0221  0.1312
 6469TIP3    H140898   0.393   6.094   4.973 -0.2216  0.4247  0.7621
 6469TIP3    H240899   0.351   6.240   4.971  1.4998  0.9462 -0.9775
 6470TIP3   OH240900   2.445   2.320   4.818  0.0229  0.2355 -0.5596
 6470TIP3    H140901   2.373   2.260   4.798 -0.1068  0.3415 -0.4215
 6470TIP3    H240902   2.401   2.398   4.852 -0.1363  1.9356 -4.1479
 6471TIP3   OH240903   6.403   0.693   3.669  0.7020 -0.1911  0.1623
 6471TIP3    H140904   6.476   0.714   3.727 -0.6728 -0.6939  2.1947
 6471TIP3    H240905   6.384   0.601   3.688 -0.1475 -0.2090 -0.6937
 6472TIP3   OH240906   2.186   1.827  14.378  0.3692  0.2443 -0.2730
 6472TIP3    H140907   2.280   1.831  14.361  0.4249  2.2649  0.1969
 6472TIP3    H240908   2.164   1.915  14.407 -1.8235  0.0281 -1.1081
 6473TIP3   OH240909   3.097   4.817  11.375  0.2391  0.2249 -0.5995
 6473TIP3    H140910   3.190   4.797  11.384  0.0019 -1.1410 -1.0345
 6473TIP3    H240911   3.086   4.838  11.283 -0.1564 -1.2017 -0.8970
 6474TIP3   OH240912   4.713   6.278   0.525 -0.1229  0.1398  0.0877
 6474TIP3    H140913   4.622   6.264   0.550  0.2521 -0.7312  1.0947
 6474TIP3    H240914   4.710   6.304   0.433 -1.4066  0.5870  0.2414
 6475TIP3   OH240915   0.399   2.537  12.923 -0.4848  0.3146  0.2498
 6475TIP3    H140916   0.402   2.522  12.829 -0.4037  1.7559 -0.0108
 6475TIP3    H240917   0.310   2.569  12.939 -0.3319  0.5888  0.5696
 6476TIP3   OH240918   1.859   0.567   1.939  0.1769  0.5259  0.3163
 6476TIP3    H140919   1.860   0.620   2.019  0.2786  0.0050  0.6608
 6476TIP3    H240920   1.924   0.499   1.955 -1.0377 -0.6185  0.4831
 6477TIP3   OH240921   5.737   2.012   0.789 -0.3538 -0.2815 -0.5689
 6477TIP3    H140922   5.690   1.944   0.838  2.0808 -2.0772 -0.5842
 6477TIP3    H240923   5.761   2.077   0.856 -0.7472 -0.5373 -0.1697
 6478TIP3   OH240924   0.980   3.491   5.084 -0.4819 -0.1382 -0.1932
 6478TIP3    H140925   1.013   3.547   5.154 -0.4510 -0.9779  0.4821
 6478TIP3    H240926   1.008   3.534   5.003 -0.8693  1.0521  0.2951
 6479TIP3   OH240927   1.344   3.723   2.467  0.0423 -0.1869 -0.4776
 6479TIP3    H140928   1.249   3.731   2.457  0.0713  0.2709 -0.4447
 6479TIP3    H240929   1.377   3.711   2.378  0.0163  0.4707 -0.5855
 6480TIP3   OH240930   1.957   0.891  15.620 -0.1532  0.0334  0.0239
 6480TIP3    H140931   1.973   0.918  15.711  0.7750 -0.7856  0.1206
 6480TIP3    H240932   1.885   0.946  15.592 -0.1356  0.6518  1.1047
 6481TIP3   OH240933   0.881   6.201   2.627 -0.2612 -0.0692  0.5158
 6481TIP3    H140934   0.951   6.136   2.624 -0.8629 -0.7085 -0.1061
 6481TIP3    H240935   0.811   6.164   2.573  0.2452  2.1167 -1.8571
 6482TIP3   OH240936   1.113   4.367  16.294 -0.0004  0.2443  0.7452
 6482TIP3    H140937   1.032   4.412  16.316  0.4130  2.2806 -1.4948
 6482TIP3    H240938   1.166   4.370  16.373 -1.2528  0.8308  1.5810
 6483TIP3   OH240939   0.196   1.596   4.872  0.0066 -0.3622  0.7530
 6483TIP3    H140940   0.143   1.670   4.840  2.6497  1.7054  0.7943
 6483TIP3    H240941   0.136   1.546   4.927 -1.9972  1.6227  0.5429
 6484TIP3   OH240942   5.589   5.778  16.341  0.1426 -0.5829  0.1501
 6484TIP3    H140943   5.672   5.825  16.340 -0.6911  0.9683 -1.0432
 6484TIP3    H240944   5.613   5.688  16.363  2.0961 -0.1401  0.0497
 6485TIP3   OH240945   0.813   5.374   0.529 -0.0619 -0.8935 -0.4097
 6485TIP3    H140946   0.875   5.354   0.459 -0.4269 -0.7176 -0.7868
 6485TIP3    H240947   0.727   5.353   0.492 -0.4154  0.8364 -0.6349
 6486TIP3   OH240948   1.539   1.383  13.279  0.3834  0.0109  0.0031
 6486TIP3    H140949   1.482   1.460  13.270  0.5789  0.3357  1.3894
 6486TIP3    H240950   1.593   1.402  13.356  0.4168 -1.5325  0.3829
 6487TIP3   OH240951   3.888   4.473  14.744 -0.3557  0.4912 -0.0861
 6487TIP3    H140952   3.951   4.493  14.674 -1.1623  0.5602 -0.8065
 6487TIP3    H240953   3.842   4.555  14.759  0.5600  0.7821  1.3326
 6488TIP3   OH240954   3.896   2.060   2.008  0.5728 -0.1056  0.2732
 6488TIP3    H140955   3.842   2.021   2.078 -2.6768  3.4695  0.0861
 6488TIP3    H240956   3.953   2.121   2.054  1.5812 -0.8640  0.0737
 6489TIP3   OH240957   4.304   3.122  12.009  0.6209 -0.2670 -0.4979
 6489TIP3    H140958   4.233   3.099  12.068  0.4092 -0.2389 -0.7426
 6489TIP3    H240959   4.379   3.072  12.042  0.3874 -0.6115 -0.4850
 6490TIP3   OH240960   1.246   0.149   4.995  0.0549 -0.0256  0.0438
 6490TIP3    H140961   1.243   0.054   4.987  1.8453 -0.1836  0.8045
 6490TIP3    H240962   1.305   0.177   4.925  1.8129  0.2153  1.5522
 6491TIP3   OH240963   0.504   4.260  14.441 -0.7171  0.3300 -0.7182
 6491TIP3    H140964   0.515   4.209  14.361  1.6857  0.9828 -0.8991
 6491TIP3    H240965   0.413   4.289  14.439 -1.6452 -2.3824 -1.5019
 6492TIP3   OH240966   4.876   2.038   2.053  0.0417 -0.2914 -0.4329
 6492TIP3    H140967   4.958   2.036   2.004  0.1025  1.4510 -0.4706
 6492TIP3    H240968   4.828   2.111   2.015 -1.3515 -1.0179 -0.1112
 6493TIP3   OH240969   6.078   6.087  17.110 -0.0328 -0.1062  0.0357
 6493TIP3    H140970   5.982   6.091  17.106 -0.0612 -1.2016 -0.8773
 6493TIP3    H240971   6.106   6.154  17.047 -0.1724  0.6257  0.7324
 6494TIP3   OH240972   0.474   1.720   1.681 -0.0997  0.0452  0.6598
 6494TIP3    H140973   0.545   1.685   1.735 -0.6761 -1.4223  0.5139
 6494TIP3    H240974   0.487   1.815   1.683  0.4374 -0.0145  2.6169
 6495TIP3   OH240975   2.162   4.875   2.710 -0.6976 -0.4496 -0.3054
 6495TIP3    H140976   2.085   4.820   2.700 -0.8536 -0.7825  2.1087
 6495TIP3    H240977   2.140   4.934   2.782  1.6094 -1.2050  1.1254
 6496TIP3   OH240978   1.956   1.946  16.578 -0.6109 -0.5987 -0.0101
 6496TIP3    H140979   2.047   1.942  16.547 -1.0060 -0.1985 -1.2706
 6496TIP3    H240980   1.962   1.924  16.671  0.8776  0.2063  0.1218
 6497TIP3   OH240981   5.229   1.212   0.428  0.3242 -1.0020 -0.2019
 6497TIP3    H140982   5.215   1.266   0.506  0.7544 -1.8132  0.4595
 6497TIP3    H240983   5.239   1.123   0.463  1.5763 -1.2317 -1.0926
 6498TIP3   OH240984   0.717   1.140  13.704  0.5624  0.0586  0.4654
 6498TIP3    H140985   0.636   1.171  13.663  0.6830  1.3263  1.1220
 6498TIP3    H240986   0.697   1.139  13.798  1.0446 -0.4544  0.5658
 6499TIP3   OH240987   2.470   2.207  14.069  0.2534  0.1780 -0.0767
 6499TIP3    H140988   2.548   2.190  14.016 -0.0817 -1.0994 -0.2086
 6499TIP3    H240989   2.399   2.164  14.020 -0.4360  0.8555  0.3160
 6500TIP3   OH240990   3.515   3.241  16.222  0.3049  0.1955 -0.2258
 6500TIP3    H140991   3.435   3.193  16.199  0.7105 -0.2066 -0.8417
 6500TIP3    H240992   3.529   3.221  16.314 -0.5894  0.6937  0.0257
 6501TIP3   OH240993   3.810   4.058  13.317 -0.3915  0.7097 -0.0242
 6501TIP3    H140994   3.860   4.024  13.243 -1.0024  0.5549 -0.3719
 6501TIP3    H240995   3.825   3.995  13.387  0.0348  0.7570 -0.0662
 6502TIP3   OH240996   3.340   2.761  14.270 -0.2090 -0.1141  0.2605
 6502TIP3    H140997   3.366   2.674  14.299  1.2428  0.4269  0.6718
 6502TIP3    H240998   3.290   2.797  14.344  0.2768 -0.1285  0.5971
 6503TIP3   OH240999   6.522   3.355   0.283 -0.4639 -0.5984  0.3343
 6503TIP3    H141000   6.559   3.420   0.223  0.4573 -0.5509  0.9349
 6503TIP3    H241001   6.553   3.271   0.250 -1.6172 -0.7568 -0.4144
 6504TIP3   OH241002   3.568   3.908   2.321  0.2384 -0.2729 -0.2867
 6504TIP3    H141003   3.541   3.844   2.256 -0.8302  0.5441 -0.6762
 6504TIP3    H241004   3.659   3.929   2.298 -0.6152  1.2846 -2.6355
 6505TIP3   OH241005   3.992   3.216   3.373  0.2453 -0.3890 -0.2340
 6505TIP3    H141006   3.898   3.201   3.380  0.2391  0.1280  1.0148
 6505TIP3    H241007   4.026   3.136   3.333 -0.7026 -0.6179 -0.6238
 6506TIP3   OH241008   3.409   2.758  15.172 -0.0663  0.4717 -0.0620
 6506TIP3    H141009   3.330   2.763  15.117 -1.0994  0.4819  1.3670
 6506TIP3    H241010   3.415   2.666  15.196  0.6051  0.3989 -0.5090
 6507TIP3   OH241011   4.326   0.681  12.689 -0.3599 -0.3329  0.5620
 6507TIP3    H141012   4.235   0.709  12.690 -0.7592 -1.5207 -0.2705
 6507TIP3    H241013   4.331   0.612  12.755  0.2500  0.5736  1.4965
 6508TIP3   OH241014   0.064   5.568   4.540  0.0063 -0.3902  0.5952
 6508TIP3    H141015   0.090   5.654   4.573  1.1969 -0.3423 -0.3650
 6508TIP3    H241016   0.143   5.514   4.550 -0.2162 -0.9025 -0.2800
 6509TIP3   OH241017   4.649   3.692  13.737  0.4679 -0.7443 -0.2098
 6509TIP3    H141018   4.718   3.637  13.700  1.1935  0.1269 -0.2068
 6509TIP3    H241019   4.608   3.733  13.662  1.3333  0.3163 -0.1321
 6510TIP3   OH241020   4.709   2.985  11.183  0.2167 -0.0963 -0.7348
 6510TIP3    H141021   4.719   3.079  11.166 -1.6083  0.4450  0.9084
 6510TIP3    H241022   4.615   2.972  11.193  0.6301 -1.3732  2.8519
 6511TIP3   OH241023   1.289   5.204   6.109  0.2288 -0.1103 -0.3714
 6511TIP3    H141024   1.359   5.269   6.114  2.5138 -2.3850 -0.3316
 6511TIP3    H241025   1.313   5.149   6.034 -0.7703 -1.7610  0.4575
 6512TIP3   OH241026   4.853   1.598   0.883 -0.2445  0.3018  0.1294
 6512TIP3    H141027   4.793   1.672   0.896 -0.3327  0.1393  0.6706
 6512TIP3    H241028   4.937   1.629   0.918 -0.6382 -0.3650  1.7453
 6513TIP3   OH241029   0.611   5.994  14.382  0.2095 -0.3186  0.3716
 6513TIP3    H141030   0.693   5.974  14.426  1.2435  1.1924 -0.7753
 6513TIP3    H241031   0.611   6.090  14.373 -0.4185 -0.4671 -1.9284
 6514TIP3   OH241032   3.039   6.585  15.356 -0.0637 -0.2026  0.6029
 6514TIP3    H141033   3.083   6.514  15.403 -0.8853  0.0670  1.8442
 6514TIP3    H241034   2.997   6.636  15.425 -0.6619  0.6811 -0.3868
 6515TIP3   OH241035   5.396   2.907  14.988  0.0946  0.3623  0.2002
 6515TIP3    H141036   5.349   2.826  15.009  2.4806 -1.3316 -0.5123
 6515TIP3    H241037   5.426   2.939  15.073 -0.3538  0.1442  0.4430
 6516TIP3   OH241038   6.411   1.964  13.449 -0.3966  0.0301 -0.1806
 6516TIP3    H141039   6.475   1.893  13.458  1.1676  1.3798 -0.2554
 6516TIP3    H241040   6.426   2.019  13.526 -1.5200  0.3535 -0.1828
 6517TIP3   OH241041   3.991   5.915   3.764 -0.1665  0.1370  0.1131
 6517TIP3    H141042   4.013   5.999   3.722 -2.1873  0.0115 -1.3355
 6517TIP3    H241043   3.989   5.935   3.857  2.0869  1.0058  0.0597
 6518TIP3   OH241044   5.321   0.814  12.498 -0.0290 -0.2652 -0.0359
 6518TIP3    H141045   5.351   0.728  12.527 -1.6855 -0.6534  0.6516
 6518TIP3    H241046   5.317   0.867  12.578  0.2693  0.2432 -0.3451
 6519TIP3   OH241047   4.448   4.213   2.347 -0.3160 -0.3512 -0.1905
 6519TIP3    H141048   4.415   4.134   2.391 -0.6848  0.1284  0.4229
 6519TIP3    H241049   4.374   4.275   2.351 -1.4978 -1.2249 -4.1736
 6520TIP3   OH241050   4.816   2.706  11.920  0.1547 -0.6453 -0.1445
 6520TIP3    H141051   4.748   2.743  11.864  0.5274  1.2008  0.5522
 6520TIP3    H241052   4.818   2.613  11.897 -3.1270 -0.9712  0.3199
 6521TIP3   OH241053   1.476   0.762  11.733  0.0356  0.2142 -0.1045
 6521TIP3    H141054   1.437   0.848  11.720  0.6855  0.7244  1.1759
 6521TIP3    H241055   1.517   0.741  11.649  0.1940  1.3185 -0.3155
 6522TIP3   OH241056   3.613   6.363  11.427 -0.2187  0.0298 -0.1706
 6522TIP3    H141057   3.535   6.418  11.422 -1.2075 -1.3376 -0.4508
 6522TIP3    H241058   3.623   6.327  11.339  0.2589 -0.4337  0.0662
 6523TIP3   OH241059   5.272   0.802   0.192  0.1863 -0.7092 -0.1700
 6523TIP3    H141060   5.319   0.812   0.110  1.7044  0.8178  0.7971
 6523TIP3    H241061   5.341   0.790   0.258 -0.9093 -0.6623  1.0331
 6524TIP3   OH241062   2.221   3.181   6.130  0.2197 -0.0758 -0.3443
 6524TIP3    H141063   2.160   3.174   6.203  0.0865  1.4139 -0.2632
 6524TIP3    H241064   2.166   3.199   6.053  0.5091  1.7533 -0.1904
 6525TIP3   OH241065   4.812   5.850  16.243 -0.5870 -0.3677  0.5715
 6525TIP3    H141066   4.817   5.788  16.171 -0.8614 -0.8691  0.9769
 6525TIP3    H241067   4.722   5.883  16.242  0.1587  1.8684 -1.1332
 6526TIP3   OH241068   3.994   2.456  12.180  0.4472  0.4692 -0.0415
 6526TIP3    H141069   3.913   2.505  12.165  0.5920  0.5113 -0.6887
 6526TIP3    H241070   3.988   2.428  12.272  0.0278  1.0722  0.1185
 6527TIP3   OH241071   4.656   1.859  11.866  0.4066  0.1764  0.5566
 6527TIP3    H141072   4.744   1.828  11.846 -0.1728 -1.1385 -0.0214
 6527TIP3    H241073   4.634   1.918  11.794 -0.0083 -1.1955 -0.4762
 6528TIP3   OH241074   2.038   4.012  11.862  0.1150  0.6644 -0.3873
 6528TIP3    H141075   1.954   4.049  11.834 -0.6148 -0.5839  0.0912
 6528TIP3    H241076   2.024   3.989  11.954  0.8589  0.0863 -0.4189
 6529TIP3   OH241077   1.059   4.923  15.572  0.0512 -0.1179  0.5736
 6529TIP3    H141078   0.965   4.922  15.589  0.1411  1.9718  1.5312
 6529TIP3    H241079   1.068   4.976  15.493  0.4115 -0.8212  0.1291
 6530TIP3   OH241080   1.419   1.289  16.493  0.0687 -0.0888  0.1536
 6530TIP3    H141081   1.441   1.230  16.421 -0.6957  1.4142 -1.3749
 6530TIP3    H241082   1.503   1.323  16.523  0.5089 -1.7771  0.9608
 6531TIP3   OH241083   2.149   2.024  14.727 -0.2367  0.2053 -0.3099
 6531TIP3    H141084   2.153   2.005  14.633  2.2579 -2.7419  0.2556
 6531TIP3    H241085   2.225   2.080  14.743  0.3603 -0.7439  0.2116
 6532TIP3   OH241086   6.628   2.184   1.349  0.3851 -0.3620 -0.1023
 6532TIP3    H141087   6.538   2.215   1.337 -0.3040 -2.3415 -0.3984
 6532TIP3    H241088   6.671   2.203   1.265  0.9893  2.6463  0.7503
 6533TIP3   OH241089   4.934   4.045   3.685  0.0504 -0.4381 -0.1962
 6533TIP3    H141090   4.852   4.091   3.671 -0.3291 -0.7219  0.9916
 6533TIP3    H241091   4.994   4.080   3.619 -0.3122  1.5039  0.4689
 6534TIP3   OH241092   0.419   6.381   3.958 -0.1244 -0.4245  0.1241
 6534TIP3    H141093   0.336   6.419   3.929  0.7460 -0.2502 -2.3810
 6534TIP3    H241094   0.446   6.437   4.030 -2.3085 -0.6820  1.2354
 6535TIP3   OH241095   1.110   2.120   5.287 -0.5042 -0.0939 -0.0291
 6535TIP3    H141096   1.076   2.114   5.198  1.4946  1.0243 -0.9559
 6535TIP3    H241097   1.125   2.029   5.313 -0.8306 -0.4318 -0.9693
 6536TIP3   OH241098   6.007   2.375   0.337  0.2007  0.1521  0.5434
 6536TIP3    H141099   5.916   2.349   0.355 -0.1145  0.4570 -0.5710
 6536TIP3    H241100   6.058   2.300   0.367 -0.5474 -0.8022 -0.4584
 6537TIP3   OH241101   4.113   4.153  14.951  0.2750 -0.2043 -0.0749
 6537TIP3    H141102   4.145   4.076  14.998  3.3315 -0.1776 -1.8701
 6537TIP3    H241103   4.048   4.119  14.890  2.7512 -1.7945 -2.0207
 6538TIP3   OH241104   4.737   3.665  17.143 -0.3773  0.0613  0.2341
 6538TIP3    H141105   4.700   3.673  17.231  0.0855  0.6023  0.3774
 6538TIP3    H241106   4.666   3.694  17.085  0.1954  2.3209  0.5697
 6539TIP3   OH241107   6.409   3.331   6.464  0.2910  0.0714 -0.2707
 6539TIP3    H141108   6.390   3.352   6.373 -2.6070  1.6456  0.5717
 6539TIP3    H241109   6.392   3.237   6.471 -0.5592  0.1542 -1.0926
 6540TIP3   OH241110   6.020   3.319   2.317 -0.4328  0.4160 -0.5818
 6540TIP3    H141111   5.999   3.398   2.268  1.6202  0.9157 -0.7490
 6540TIP3    H241112   5.943   3.263   2.307 -0.9843  1.4316 -2.4458
 6541TIP3   OH241113   0.311   1.784   2.044 -0.8530  0.5351 -0.0578
 6541TIP3    H141114   0.320   1.696   2.079 -2.7170  0.3411  0.0308
 6541TIP3    H241115   0.217   1.794   2.026 -1.1933  3.4677  2.5454
 6542TIP3   OH241116   5.663   0.631   0.724  0.4894 -0.7269  0.4339
 6542TIP3    H141117   5.614   0.679   0.657  0.3865  0.8620  1.5831
 6542TIP3    H241118   5.596   0.590   0.778  0.4362  0.2738  1.1621
 6543TIP3   OH241119   4.722   4.976  14.917  0.0654 -0.3837  0.4635
 6543TIP3    H141120   4.684   5.053  14.873 -0.9360 -0.1292  1.7156
 6543TIP3    H241121   4.681   4.901  14.874 -1.4246 -0.1240  1.3463
 6544TIP3   OH241122   1.595   5.142  15.847 -0.1737  0.3808  0.1179
 6544TIP3    H141123   1.577   5.219  15.794 -2.0025 -1.1477 -1.6368
 6544TIP3    H241124   1.510   5.119  15.886  0.0808 -1.3004 -0.2218
 6545TIP3   OH241125   5.164   2.623  14.381  0.2800 -0.4972  0.1374
 6545TIP3    H141126   5.245   2.604  14.333  1.2031  0.9716  1.0252
 6545TIP3    H241127   5.179   2.587  14.468  0.2784  0.3440  0.5033
 6546TIP3   OH241128   4.336   5.296   6.412  0.1252  0.3266 -0.2978
 6546TIP3    H141129   4.268   5.340   6.464 -0.3121 -1.3737  0.6377
 6546TIP3    H241130   4.298   5.211   6.391  1.7103 -0.4038 -0.3114
 6547TIP3   OH241131   3.261   0.485   0.941 -0.2545  0.0222  0.2075
 6547TIP3    H141132   3.232   0.518   0.856  1.6694 -0.7215 -0.8139
 6547TIP3    H241133   3.322   0.551   0.973  1.2019 -0.9634 -0.3828
 6548TIP3   OH241134   1.332   6.042  10.498  0.1090 -0.0301 -0.2604
 6548TIP3    H141135   1.389   6.045  10.422 -0.0670 -1.3511 -0.4797
 6548TIP3    H241136   1.244   6.050  10.462 -0.0463 -1.8027 -0.3541
 6549TIP3   OH241137   0.917   1.553   4.656 -0.4812 -0.6688 -0.1316
 6549TIP3    H141138   0.912   1.520   4.567 -0.8566 -1.3653  0.1434
 6549TIP3    H241139   0.988   1.503   4.696 -0.2513 -0.2926 -0.0600
 6550TIP3   OH241140   3.853   1.138  16.595  0.0747  0.5792  0.6657
 6550TIP3    H141141   3.830   1.135  16.687 -1.5148 -2.4728  0.2878
 6550TIP3    H241142   3.896   1.054  16.578 -1.6365  0.0680 -1.7438
 6551TIP3   OH241143   4.307   1.893  10.716  0.6057 -0.1739  0.0803
 6551TIP3    H141144   4.238   1.873  10.653  1.0719  1.4134 -1.0153
 6551TIP3    H241145   4.366   1.817  10.711 -0.3593 -0.9401  0.0508
 6552TIP3   OH241146   6.072   2.784  13.663 -0.5121 -0.2117 -0.3509
 6552TIP3    H141147   6.001   2.836  13.626 -0.4172  0.9832  1.0508
 6552TIP3    H241148   6.144   2.792  13.601 -1.0749 -0.1340 -1.0096
 6553TIP3   OH241149   5.671   0.346  11.289 -0.1409  0.4669  0.4483
 6553TIP3    H141150   5.651   0.257  11.260  0.1979  0.7016 -0.5740
 6553TIP3    H241151   5.746   0.336  11.346  0.7898  0.2086 -0.7670
 6554TIP3   OH241152   5.088   2.594   4.541  0.2401  0.4508 -0.2142
 6554TIP3    H141153   5.023   2.524   4.543  1.0037 -0.3006 -0.7588
 6554TIP3    H241154   5.172   2.548   4.537  0.8647  1.3960  1.4142
 6555TIP3   OH241155   6.713   6.477   5.505  0.3080  0.4035 -0.1180
 6555TIP3    H141156   6.630   6.441   5.472 -0.3620  1.1499  0.7291
 6555TIP3    H241157   6.729   6.428   5.585 -0.3695  1.6334  0.7927
 6556TIP3   OH241158   0.791   5.006  15.626 -0.0232 -0.0677  0.4820
 6556TIP3    H141159   0.844   5.063  15.682 -0.4199 -1.0127  1.8648
 6556TIP3    H241160   0.707   5.052  15.618 -0.1621 -0.1924  1.1539
 6557TIP3   OH241161   2.587   4.431   6.789  0.2903 -0.1010  0.1343
 6557TIP3    H141162   2.540   4.474   6.862  0.7606  0.6598  0.0043
 6557TIP3    H241163   2.675   4.418   6.822  0.4359  0.0084 -0.2070
 6558TIP3   OH241164   5.788   0.054   4.041  0.3957  0.5935 -0.3210
 6558TIP3    H141165   5.746   0.035   3.957 -1.7543  2.5780  0.2145
 6558TIP3    H241166   5.879   0.075   4.017 -0.1537  1.0682 -2.1609
 6559TIP3   OH241167   5.656   2.662  10.555  0.1763 -0.2217  0.6209
 6559TIP3    H141168   5.706   2.641  10.634  0.6948 -3.0873 -0.3504
 6559TIP3    H241169   5.723   2.675  10.487 -0.2752 -2.3276 -0.3010
 6560TIP3   OH241170   5.935   1.883  14.513 -0.1572  0.1733  0.2432
 6560TIP3    H141171   5.940   1.817  14.444 -1.2030 -0.6428  0.9187
 6560TIP3    H241172   5.994   1.851  14.581 -0.2823  0.1953  0.3627
 6561TIP3   OH241173   1.301   3.780  16.663  0.1535  0.0546 -0.1756
 6561TIP3    H141174   1.380   3.726  16.659  0.4040  0.3761  0.3020
 6561TIP3    H241175   1.273   3.787  16.572  1.4376  1.0442 -0.5322
 6562TIP3   OH241176   0.994   2.088   1.626  0.3675 -0.8349 -0.1710
 6562TIP3    H141177   1.029   2.160   1.679 -1.5728  0.5654 -0.6939
 6562TIP3    H241178   0.936   2.041   1.686  2.9265 -3.1631  0.7003
 6563TIP3   OH241179   2.033   1.441  16.806  0.1962  0.3674  0.1921
 6563TIP3    H141180   2.037   1.511  16.870  0.4014  1.5529 -1.0805
 6563TIP3    H241181   2.100   1.463  16.741  2.6535 -2.7306  1.4128
 6564TIP3   OH241182   1.624   4.751  11.860 -0.8466 -0.0633 -0.7757
 6564TIP3    H141183   1.613   4.694  11.784  0.2877 -1.4828  0.0810
 6564TIP3    H241184   1.710   4.792  11.848 -1.0108  0.3334 -0.6338
 6565TIP3   OH241185   1.235   3.368  14.597  0.1267  0.1737 -0.0001
 6565TIP3    H141186   1.210   3.441  14.654 -2.2729 -0.8505  0.3555
 6565TIP3    H241187   1.174   3.373  14.523  0.0811 -1.3166 -0.0882
 6566TIP3   OH241188   6.718   2.520  16.544  0.1481  0.4093  0.3484
 6566TIP3    H141189   6.665   2.599  16.531 -0.6057 -0.0717  0.4427
 6566TIP3    H241190   6.799   2.537  16.496  0.0476  1.2910  0.4715
 6567TIP3   OH241191   3.781   0.683  15.706  0.5482 -0.4446  0.2714
 6567TIP3    H141192   3.746   0.630  15.634  0.9504  1.3792 -1.3626
 6567TIP3    H241193   3.716   0.674  15.776 -0.1432 -1.8474 -0.5117
 6568TIP3   OH241194   4.645   0.299  14.582  0.1665 -0.0582 -0.4168
 6568TIP3    H141195   4.738   0.298  14.558  0.8478 -1.9503  1.9238
 6568TIP3    H241196   4.610   0.218  14.544 -0.0924 -0.2169  0.1529
 6569TIP3   OH241197   4.665   6.539  11.856 -0.3823  0.3773  0.1382
 6569TIP3    H141198   4.597   6.601  11.829  0.4415  1.6183  0.8230
 6569TIP3    H241199   4.666   6.473  11.786  0.5316  2.5699 -2.0910
 6570TIP3   OH241200   4.753   0.226   4.460  0.1092  0.5827  0.1633
 6570TIP3    H141201   4.792   0.303   4.419  0.3715  0.6043  0.4517
 6570TIP3    H241202   4.713   0.260   4.540  1.1136  0.2589  0.8246
 6571TIP3   OH241203   4.538   4.493  14.037  1.1718 -0.0165 -0.0243
 6571TIP3    H141204   4.576   4.517  13.953  1.6358 -0.9831 -0.1076
 6571TIP3    H241205   4.444   4.496  14.023  1.0301  4.0130  0.6180
 6572TIP3   OH241206   3.071   3.875  11.798 -0.0520  0.3119  0.3546
 6572TIP3    H141207   3.025   3.955  11.825 -0.1122  0.5536 -0.4479
 6572TIP3    H241208   3.005   3.823  11.753  0.5864  0.9796 -1.4584
 6573TIP3   OH241209   5.207   6.222   2.055 -0.4900 -0.2340  0.5398
 6573TIP3    H141210   5.256   6.246   2.134  0.4845  2.3624 -0.7020
 6573TIP3    H241211   5.115   6.230   2.079 -0.1986  0.6539  1.4087
 6574TIP3   OH241212   3.302   0.149  15.553 -0.1793 -0.7513 -0.2111
 6574TIP3    H141213   3.394   0.124  15.558  0.4472  1.6175  1.2421
 6574TIP3    H241214   3.300   0.226  15.496 -1.2045 -0.5362  0.0833
 6575TIP3   OH241215   2.779   1.846   0.973 -0.3005  0.2251  0.0990
 6575TIP3    H141216   2.785   1.936   1.004 -0.4869  0.4883 -0.6065
 6575TIP3    H241217   2.706   1.808   1.022 -1.0673  0.8524 -0.5240
 6576TIP3   OH241218   4.343   5.710  14.116  0.0213 -0.1069 -0.1596
 6576TIP3    H141219   4.287   5.632  14.113  1.3084 -1.1135  0.7902
 6576TIP3    H241220   4.335   5.742  14.206  1.5223 -0.7331  0.2343
 6577TIP3   OH241221   6.497   3.057  11.061  0.0416 -0.2909  0.8097
 6577TIP3    H141222   6.543   3.026  10.983 -0.8266 -2.0674  0.9649
 6577TIP3    H241223   6.472   2.977  11.108 -1.3903  0.6827  1.7828
 6578TIP3   OH241224   6.503   4.570  11.568  0.3660 -0.4794 -0.3961
 6578TIP3    H141225   6.514   4.602  11.657 -0.6829 -0.8256 -0.1212
 6578TIP3    H241226   6.559   4.626  11.515  1.4403 -0.6403  0.5452
 6579TIP3   OH241227   6.252   4.880  14.486  0.3301 -0.3378  0.1697
 6579TIP3    H141228   6.206   4.869  14.403  0.3085 -1.8089  0.3479
 6579TIP3    H241229   6.309   4.955  14.472 -0.2167 -0.1152 -0.9287
 6580TIP3   OH241230   5.386   6.749   1.718 -0.1765 -0.4360  0.2615
 6580TIP3    H141231   5.370   6.841   1.737  1.4318  0.2915 -1.5297
 6580TIP3    H241232   5.300   6.713   1.696 -0.9315  0.4160  1.7360
 6581TIP3   OH241233   6.774   1.057  14.675 -0.1346 -0.7834 -0.2560
 6581TIP3    H141234   6.788   1.043  14.581  0.0998  0.1099 -0.3556
 6581TIP3    H241235   6.705   0.995  14.698  0.0079 -1.2112 -0.9556
 6582TIP3   OH241236   4.139   2.627  12.528  0.6152 -0.0313 -0.3905
 6582TIP3    H141237   4.117   2.717  12.507  1.0629 -0.1161 -1.3106
 6582TIP3    H241238   4.219   2.633  12.580  1.1356  0.0823 -1.1832
 6583TIP3   OH241239   0.129   0.684  11.602 -0.4318  0.3088  0.3832
 6583TIP3    H141240   0.052   0.692  11.659 -0.6363 -1.4040  0.4017
 6583TIP3    H241241   0.124   0.594  11.568  1.4534  0.2367  0.2212
 6584TIP3   OH241242   2.254   6.327  15.243  0.1733 -0.1174 -0.7839
 6584TIP3    H141243   2.296   6.272  15.309  0.6952  1.6931  0.4916
 6584TIP3    H241244   2.327   6.371  15.199 -0.2627  1.2717 -0.1775
 6585TIP3   OH241245   4.130   0.117  12.807 -0.1872 -0.1157 -0.4092
 6585TIP3    H141246   4.082   0.083  12.883 -1.4671 -0.2490 -1.2570
 6585TIP3    H241247   4.135   0.211  12.822  0.6730 -0.2751  0.4350
 6586TIP3   OH241248   5.318   3.263  16.610  0.1421  0.0882 -0.2919
 6586TIP3    H141249   5.385   3.320  16.573 -1.2485  0.2357 -2.7595
 6586TIP3    H241250   5.267   3.321  16.668 -0.5105  1.1066 -1.8289
 6587TIP3   OH241251   1.157   0.471   2.741 -0.2686  0.5217  0.9993
 6587TIP3    H141252   1.187   0.484   2.651 -0.4562  0.1314  0.8741
 6587TIP3    H241253   1.120   0.555   2.767  1.9975  1.4050  1.6013
 6588TIP3   OH241254   5.516   4.173   0.394 -0.1428 -0.6345  0.0610
 6588TIP3    H141255   5.500   4.233   0.321 -0.0553 -0.9214 -0.1963
 6588TIP3    H241256   5.522   4.087   0.353 -0.9495 -0.9126  0.5049
 6589TIP3   OH241257   5.240   5.302   4.383 -0.2196  0.1000  0.2631
 6589TIP3    H141258   5.195   5.218   4.368  0.6528 -0.0510 -1.7959
 6589TIP3    H241259   5.186   5.346   4.449 -1.5879 -1.4075  0.2232
 6590TIP3   OH241260   4.514   0.595   6.134 -0.1583  0.3943  0.4469
 6590TIP3    H141261   4.605   0.577   6.154  0.4470  0.9347 -1.5461
 6590TIP3    H241262   4.510   0.690   6.124  0.0134  0.1924 -3.0969
 6591TIP3   OH241263   2.768   5.358  14.440  0.0353  0.0087  0.2131
 6591TIP3    H141264   2.693   5.351  14.501 -0.2431  1.5811  0.1104
 6591TIP3    H241265   2.825   5.423  14.481 -0.7900  2.1112 -1.7844
 6592TIP3   OH241266   3.051   6.397  17.076  0.1320  0.3814  0.7770
 6592TIP3    H141267   3.033   6.353  17.160  1.0456 -0.8104  0.3876
 6592TIP3    H241268   3.001   6.347  17.012 -2.0992  2.4420  0.7961
 6593TIP3   OH241269   3.116   4.197  13.852 -0.1167 -0.3814  0.1793
 6593TIP3    H141270   3.081   4.166  13.769  1.0466  0.2719 -0.6006
 6593TIP3    H241271   3.211   4.184  13.844  0.1364  0.8227  0.8910
 6594TIP3   OH241272   1.056   0.686  14.762  0.4925  0.1459  0.1123
 6594TIP3    H141273   1.121   0.668  14.695  1.1825 -0.1226  0.8316
 6594TIP3    H241274   1.088   0.763  14.808  1.1285 -0.8527  1.4362
 6595TIP3   OH241275   1.615   1.255  11.148  0.5297 -0.3902  0.3594
 6595TIP3    H141276   1.691   1.298  11.187 -0.7230  0.9092  1.4735
 6595TIP3    H241277   1.621   1.165  11.177  1.5364 -0.2597  0.5937
 6596TIP3   OH241278   0.634   3.362  16.013  0.0534 -0.0662  0.1969
 6596TIP3    H141279   0.676   3.342  15.930 -1.8606 -2.1634 -0.3833
 6596TIP3    H241280   0.546   3.391  15.989 -0.2218  0.2228  1.4691
 6597TIP3   OH241281   0.928   4.383   2.808 -0.1299 -0.0603  0.1393
 6597TIP3    H141282   0.862   4.437   2.850 -0.2293 -0.0478 -0.0301
 6597TIP3    H241283   0.943   4.425   2.723 -0.5992 -0.5990 -0.2173
 6598TIP3   OH241284   2.619   3.161   0.829  0.0071  0.1593  0.0999
 6598TIP3    H141285   2.580   3.189   0.746  1.3065 -1.5254 -1.1524
 6598TIP3    H241286   2.610   3.237   0.887 -1.9335  1.0026 -1.2062
 6599TIP3   OH241287   0.844   5.932  12.153 -0.4621 -0.4185 -0.2337
 6599TIP3    H141288   0.876   6.021  12.137  2.6809 -1.3662  0.0812
 6599TIP3    H241289   0.752   5.944  12.177 -0.3548  2.6567 -0.8650
 6600TIP3   OH241290   2.217   6.229   3.741  0.1772 -0.3470 -0.3577
 6600TIP3    H141291   2.237   6.186   3.824 -1.2638 -0.1023  0.1367
 6600TIP3    H241292   2.187   6.159   3.684  1.0090 -0.4887 -0.6357
 6601TIP3   OH241293   2.712   6.744  14.198  0.3395 -0.4566 -0.1373
 6601TIP3    H141294   2.650   6.753  14.271  0.9329  1.1538  0.1956
 6601TIP3    H241295   2.684   6.664  14.153 -0.5031 -1.0695  1.4057
 6602TIP3   OH241296   3.575   6.563  16.126  0.3802  0.0873  0.1669
 6602TIP3    H141297   3.517   6.604  16.189 -0.3806  0.8466 -0.9790
 6602TIP3    H241298   3.547   6.598  16.041 -0.7803 -3.2314 -0.9967
 6603TIP3   OH241299   2.991   2.086  13.297  0.0436  0.2628 -0.1456
 6603TIP3    H141300   3.054   2.116  13.363  0.7435  1.5789 -1.3378
 6603TIP3    H241301   2.905   2.107  13.335  0.3538 -0.3913  0.9684
 6604TIP3   OH241302   6.411   1.101  10.607 -0.3378 -0.8699  0.2922
 6604TIP3    H141303   6.390   1.082  10.699 -2.4752  0.2896  0.1208
 6604TIP3    H241304   6.467   1.178  10.611 -1.4498 -0.0499  0.6267
 6605TIP3   OH241305   6.620   6.155  12.196  0.7499  0.9379  0.4877
 6605TIP3    H141306   6.541   6.178  12.246  0.4683  0.1248  0.4214
 6605TIP3    H241307   6.604   6.192  12.109 -1.0113 -1.8704 -0.5213
 6606TIP3   OH241308   1.862   1.061   3.372  0.1110 -0.2225  0.1967
 6606TIP3    H141309   1.855   1.154   3.394 -0.7881  0.4644 -2.5944
 6606TIP3    H241310   1.955   1.042   3.378  0.4531  1.1693 -0.2083
 6607TIP3   OH241311   4.038   5.972  10.780 -0.0800 -0.1324 -0.3354
 6607TIP3    H141312   4.047   5.934  10.693 -0.1637  1.5333 -1.1024
 6607TIP3    H241313   4.093   5.918  10.836  0.8358 -0.5655 -1.6229
 6608TIP3   OH241314   4.439   0.781   5.588 -0.7768  0.0324  0.3157
 6608TIP3    H141315   4.524   0.770   5.546  0.5435  0.0157  2.7850
 6608TIP3    H241316   4.388   0.706   5.558  0.9302 -1.3124  0.5900
 6609TIP3   OH241317   5.346   3.135  15.653  0.6789  0.2272 -0.7827
 6609TIP3    H141318   5.423   3.163  15.703  0.8716 -1.8925  0.1994
 6609TIP3    H241319   5.377   3.064  15.597 -0.1539  0.7052 -1.9029
 6610TIP3   OH241320   1.441   1.146   3.164  0.0699  0.1828  0.0907
 6610TIP3    H141321   1.475   1.071   3.213 -0.2027  0.5939  0.9428
 6610TIP3    H241322   1.456   1.124   3.072 -0.2863 -1.0467  0.3122
 6611TIP3   OH241323   2.895   1.980   5.382 -0.0327  0.2369  0.7931
 6611TIP3    H141324   2.957   1.945   5.446 -0.7322  0.8173  1.8177
 6611TIP3    H241325   2.947   1.990   5.302  0.7850 -0.7792  1.1708
 6612TIP3   OH241326   6.481   3.545  15.924 -1.4750 -0.5237 -0.2714
 6612TIP3    H141327   6.413   3.576  15.863 -0.7917 -0.2535 -0.9117
 6612TIP3    H241328   6.559   3.596  15.901 -1.3364 -0.0329  1.1954
 6613TIP3   OH241329   4.709   3.667  16.139  0.0396  0.3768 -0.2404
 6613TIP3    H141330   4.679   3.696  16.053 -0.2730 -0.5777 -0.4745
 6613TIP3    H241331   4.734   3.575  16.125 -3.4282 -0.9994  1.4145
 6614TIP3   OH241332   5.915   1.950   2.356  0.4195  0.5217  0.4531
 6614TIP3    H141333   5.907   2.034   2.401 -0.3217  0.0199  1.2849
 6614TIP3    H241334   5.981   1.901   2.407  0.4207  0.3808  0.3171
 6615TIP3   OH241335   6.508   1.220  16.260 -0.3110  0.3428  0.5632
 6615TIP3    H141336   6.493   1.314  16.247 -0.6642  0.2056 -0.0755
 6615TIP3    H241337   6.438   1.192  16.318 -1.5115  0.0638 -0.9637
 6616TIP3   OH241338   2.796   3.217   0.119 -0.2208 -0.0151  0.0000
 6616TIP3    H141339   2.870   3.222   0.179 -1.1756  0.7825  1.1648
 6616TIP3    H241340   2.808   3.290   0.059  0.4986 -0.5470 -0.5255
 6617TIP3   OH241341   1.108   3.853  16.153 -0.2033  0.4041 -0.3300
 6617TIP3    H141342   1.031   3.877  16.101  0.7397 -0.3515 -2.2064
 6617TIP3    H241343   1.181   3.864  16.093  0.9574 -0.6117  0.8331
 6618TIP3   OH241344   6.244   5.487   4.140 -0.7553 -0.0007  0.2911
 6618TIP3    H141345   6.285   5.416   4.189 -1.0333 -0.0540  0.4496
 6618TIP3    H241346   6.240   5.454   4.050 -0.6177 -0.0692  0.3106
 6619TIP3   OH241347   3.919   1.872   5.629  0.0176  0.2780 -0.4288
 6619TIP3    H141348   3.843   1.892   5.683  0.6682 -0.0193  0.6083
 6619TIP3    H241349   3.994   1.898   5.681  0.7849 -2.3499 -0.0627
 6620TIP3   OH241350   0.943   3.513   4.288 -0.1440  0.1742 -0.0566
 6620TIP3    H141351   0.882   3.569   4.336 -1.8274 -1.4034 -0.2248
 6620TIP3    H241352   0.973   3.568   4.215 -3.1121  0.4008 -1.2527
 6621TIP3   OH241353   6.807   0.793   4.196 -0.4037 -0.2031  0.3069
 6621TIP3    H141354   6.872   0.724   4.207  0.3453  0.6401  1.4045
 6621TIP3    H241355   6.858   0.873   4.186 -1.2391  0.1044 -1.9935
 6622TIP3   OH241356   2.666   0.924   5.077 -0.1162  0.0859 -0.4168
 6622TIP3    H141357   2.655   0.829   5.067  1.1360 -0.0431 -0.8119
 6622TIP3    H241358   2.585   0.962   5.043 -0.5346 -0.8363 -0.4703
 6623TIP3   OH241359   1.069   6.272   4.585 -0.0079 -0.1238  0.0779
 6623TIP3    H141360   1.095   6.363   4.572  0.5234 -0.6131 -3.4844
 6623TIP3    H241361   1.013   6.252   4.509  1.4669 -3.2389 -0.3712
 6624TIP3   OH241362   5.409   6.056   5.236 -0.4012 -0.6942  0.0386
 6624TIP3    H141363   5.504   6.048   5.246 -0.3500  1.4117  1.9457
 6624TIP3    H241364   5.378   5.965   5.239  1.4338 -1.3635  0.7207
 6625TIP3   OH241365   2.202   5.423   5.382 -0.0354  0.8175 -0.1506
 6625TIP3    H141366   2.148   5.389   5.453  0.6737  1.5628  0.7591
 6625TIP3    H241367   2.151   5.494   5.344 -0.4756  0.3274 -0.4916
 6626TIP3   OH241368   0.803   6.528   6.580  0.4748  0.2731 -0.0551
 6626TIP3    H141369   0.802   6.577   6.498  1.1764 -0.2390 -0.3808
 6626TIP3    H241370   0.743   6.575   6.638  0.0669  0.7022 -0.8240
 6627TIP3   OH241371   4.166   5.786   0.207  0.4346 -0.1466  0.2067
 6627TIP3    H141372   4.195   5.814   0.294 -0.3780  0.2712  0.3516
 6627TIP3    H241373   4.240   5.736   0.172  0.7969 -0.2658  1.1094
 6628TIP3   OH241374   0.083   6.130   3.389 -0.2400  0.0615  0.1448
 6628TIP3    H141375   0.023   6.055   3.391  1.0776 -1.0201  0.1724
 6628TIP3    H241376   0.089   6.159   3.480 -0.3401 -0.1281  0.2103
 6629TIP3   OH241377   4.217   5.064  11.144  0.2744  0.0484 -0.3275
 6629TIP3    H141378   4.279   5.080  11.073  1.1706  0.3419  0.5066
 6629TIP3    H241379   4.256   5.106  11.220 -0.8857  0.1122  0.2488
 6630TIP3   OH241380   3.818   1.904   1.096  0.4545  0.7702 -0.1295
 6630TIP3    H141381   3.820   1.926   1.189 -0.4527  0.7668 -0.0996
 6630TIP3    H241382   3.866   1.821   1.091  0.4074  0.7080  0.3529
 6631TIP3   OH241383   6.402   3.464   5.156 -0.3054 -0.1719 -0.0630
 6631TIP3    H141384   6.386   3.439   5.246  3.1033  0.4447  0.8706
 6631TIP3    H241385   6.489   3.504   5.157 -0.2042  0.0671 -3.5978
 6632TIP3   OH241386   6.437   6.766   6.059  0.0050  0.1592 -0.1979
 6632TIP3    H141387   6.515   6.771   6.004  0.3837  1.5490  0.4217
 6632TIP3    H241388   6.468   6.731   6.142 -0.1201  0.2300 -0.1201
 6633TIP3   OH241389   5.500   0.683   5.254 -0.1082 -0.1865 -0.6184
 6633TIP3    H141390   5.502   0.715   5.163 -0.4798  0.3123 -0.4566
 6633TIP3    H241391   5.455   0.752   5.302  0.2998 -0.3455 -0.0046
 6634TIP3   OH241392   2.807   0.329  12.738  0.5591 -0.5470 -0.1505
 6634TIP3    H141393   2.781   0.271  12.809 -0.8260 -0.5274 -0.6021
 6634TIP3    H241394   2.799   0.417  12.774  0.7886 -0.5766 -0.0332
 6635TIP3   OH241395   0.134   3.397   0.260  0.2542  0.2647  0.0351
 6635TIP3    H141396   0.134   3.316   0.209  0.9054 -1.0058  1.9481
 6635TIP3    H241397   0.198   3.453   0.217 -0.7775  0.1194 -1.7853
 6636TIP3   OH241398   0.212   1.933   2.885  0.4259 -0.1782 -0.2467
 6636TIP3    H141399   0.165   2.016   2.901  0.5198 -0.2855  0.6570
 6636TIP3    H241400   0.295   1.944   2.930  0.9304 -0.3208 -1.1306
 6637TIP3   OH241401   4.790   6.716   3.122 -0.8625 -0.2188 -0.3395
 6637TIP3    H141402   4.772   6.640   3.178 -0.5048  0.9652  1.4608
 6637TIP3    H241403   4.801   6.679   3.035 -1.2591 -2.1696  0.3802
 6638TIP3   OH241404   2.486   4.216  11.298 -0.4289 -0.1301  0.4832
 6638TIP3    H141405   2.476   4.309  11.274 -2.3643 -0.1096  1.1955
 6638TIP3    H241406   2.466   4.169  11.216  2.9398  0.0316 -0.5729
 6639TIP3   OH241407   6.179   5.221   4.350  0.2770 -0.4194  0.2490
 6639TIP3    H141408   6.211   5.131   4.341 -1.7143 -1.5183  2.8208
 6639TIP3    H241409   6.120   5.233   4.276  0.9573 -1.0239 -0.4090
 6640TIP3   OH241410   1.647   0.572   5.497 -0.2032  0.0535 -0.2423
 6640TIP3    H141411   1.563   0.608   5.466  0.6542  1.8594 -0.6320
 6640TIP3    H241412   1.673   0.511   5.428 -1.1774 -0.5239 -0.1215
 6641TIP3   OH241413   4.924   0.032  11.509 -0.1439  0.5828 -0.0385
 6641TIP3    H141414   4.899  -0.046  11.558  0.3468 -0.4451 -1.3681
 6641TIP3    H241415   5.004   0.007  11.463 -0.7252  1.3977 -1.5679
 6642TIP3   OH241416   3.525   6.374  14.475 -0.1717  0.0241  0.0875
 6642TIP3    H141417   3.438   6.380  14.434  0.6117  0.3270 -1.6209
 6642TIP3    H241418   3.533   6.455  14.526 -1.5101 -0.7505  1.5960
 6643TIP3   OH241419   2.819   4.252   3.833 -0.9175 -0.0106 -0.2111
 6643TIP3    H141420   2.789   4.268   3.922  1.2030  1.8619  0.2518
 6643TIP3    H241421   2.910   4.224   3.842 -0.5032  0.6824 -1.7809
 6644TIP3   OH241422   2.739   0.136  10.403 -0.3555 -0.1168  0.3332
 6644TIP3    H141423   2.802   0.149  10.333 -1.7634 -1.9034 -1.4017
 6644TIP3    H241424   2.654   0.158  10.363 -1.1236 -0.4024  1.7327
 6645TIP3   OH241425   5.884   6.533   3.765  0.0612 -0.8953  0.0810
 6645TIP3    H141426   5.871   6.493   3.851 -1.1139 -1.7704 -0.4635
 6645TIP3    H241427   5.805   6.585   3.750  1.0935  0.7906  0.3074
 6646TIP3   OH241428   4.499   0.204   1.161 -0.7966  0.5061  0.6290
 6646TIP3    H141429   4.533   0.207   1.072 -1.4607 -1.5181  0.2425
 6646TIP3    H241430   4.409   0.174   1.151 -1.2734  1.4276  1.9252
 6647TIP3   OH241431   1.728   0.929   3.938  0.3568  0.4799 -0.5142
 6647TIP3    H141432   1.633   0.916   3.933  0.3873  0.4275 -1.0510
 6647TIP3    H241433   1.739   1.024   3.947  0.1988  0.3530  1.4857
 6648TIP3   OH241434   4.869   3.218   0.295  0.2534  0.1451 -0.0040
 6648TIP3    H141435   4.939   3.278   0.320  0.5308  0.1114 -0.6572
 6648TIP3    H241436   4.837   3.254   0.212  0.7422 -0.8614 -0.6434
 6649TIP3   OH241437   4.234   5.454   2.558  0.0344 -0.2677  0.0639
 6649TIP3    H141438   4.247   5.365   2.592  0.2410 -0.5568 -0.7402
 6649TIP3    H241439   4.283   5.455   2.476 -0.4758  0.3939 -0.2427
 6650TIP3   OH241440   6.531   6.696  11.619  0.9188  0.9209  0.1030
 6650TIP3    H141441   6.496   6.677  11.532  1.5387  0.4502 -0.0502
 6650TIP3    H241442   6.567   6.784  11.612 -1.7738  2.1817  0.7602
 6651TIP3   OH241443   4.055   1.556  11.872 -0.7108  0.4511 -0.3940
 6651TIP3    H141444   4.049   1.469  11.912  0.6119  0.4263 -0.2045
 6651TIP3    H241445   4.144   1.585  11.892 -1.0008  1.6740 -0.8238
 6652TIP3   OH241446   5.809   6.158  17.126  0.0834 -0.0869  0.3788
 6652TIP3    H141447   5.797   6.208  17.045  1.0436 -0.2949  0.0931
 6652TIP3    H241448   5.788   6.220  17.195  0.6356  0.5295  0.0065
 6653TIP3   OH241449   5.152   3.694  12.186  0.1802 -0.1273 -0.1232
 6653TIP3    H141450   5.128   3.674  12.096  0.1334  1.1607 -0.4190
 6653TIP3    H241451   5.072   3.731  12.224  0.2657 -0.4554  0.3844
 6654TIP3   OH241452   6.364   4.253  11.200  0.2166  0.2875  0.3510
 6654TIP3    H141453   6.424   4.327  11.197  0.0712  0.3711 -1.2372
 6654TIP3    H241454   6.374   4.217  11.288  3.6158 -0.5594 -0.2667
 6655TIP3   OH241455   5.411   4.159   4.325 -0.1186 -0.4816 -0.3953
 6655TIP3    H141456   5.354   4.210   4.268 -0.2471 -2.2633 -1.9593
 6655TIP3    H241457   5.484   4.132   4.269  1.0437 -0.2603  0.9464
 6656TIP3   OH241458   2.257   0.975   0.058 -0.0194  0.1303 -0.5864
 6656TIP3    H141459   2.335   0.920   0.051 -0.3252 -0.1831 -1.7895
 6656TIP3    H241460   2.194   0.934  -0.000 -1.1774  0.2497  0.5364
 6657TIP3   OH241461   4.784   0.416  12.234 -0.5552 -0.5678 -0.3231
 6657TIP3    H141462   4.856   0.474  12.258  1.8970 -3.8553  0.9170
 6657TIP3    H241463   4.787   0.412  12.138  0.7449 -0.4186 -0.2986
 6658TIP3   OH241464   2.860   6.009  12.160 -0.4653 -0.4778 -0.4346
 6658TIP3    H141465   2.878   5.916  12.145 -1.4222 -0.9193  0.9858
 6658TIP3    H241466   2.937   6.040  12.208 -0.3107 -0.6349 -0.5796
 6659TIP3   OH241467   2.989   4.889   5.077  0.0598  0.4723  0.0440
 6659TIP3    H141468   2.921   4.825   5.101 -0.0105  1.1966  1.8950
 6659TIP3    H241469   3.011   4.867   4.986 -1.3160 -0.9621  0.0147
 6660TIP3   OH241470   3.275   6.584   0.124 -0.1541 -0.2181  0.3970
 6660TIP3    H141471   3.302   6.655   0.066 -0.6854  0.6683  1.2071
 6660TIP3    H241472   3.352   6.527   0.130 -0.3578 -0.8066 -1.8226
 6661TIP3   OH241473   0.201   4.718   4.997  0.6204  0.5366  0.0814
 6661TIP3    H141474   0.239   4.705   5.084 -0.6613  2.0949  0.9549
 6661TIP3    H241475   0.109   4.694   5.008  0.2893  1.4320 -0.6338
 6662TIP3   OH241476   0.145   3.143  12.300 -0.1715 -0.4242  0.3150
 6662TIP3    H141477   0.115   3.080  12.365  2.5121 -0.8316  1.2840
 6662TIP3    H241478   0.236   3.161  12.324  0.3727  0.7884 -2.2858
 6663TIP3   OH241479   6.373   3.805  16.575 -0.1294  0.0177  0.1958
 6663TIP3    H141480   6.397   3.862  16.649  0.2826  1.9675 -1.3667
 6663TIP3    H241481   6.419   3.723  16.592 -1.3656 -0.2450  2.9387
 6664TIP3   OH241482   1.526   2.731  12.733 -0.5517 -0.3774  0.4980
 6664TIP3    H141483   1.552   2.729  12.826  1.7139  0.3309 -0.0556
 6664TIP3    H241484   1.532   2.823  12.708  1.1474 -0.8245 -0.9091
 6665TIP3   OH241485   2.976   3.954   3.469 -0.5231  0.0058 -0.3616
 6665TIP3    H141486   2.881   3.941   3.468 -0.5240 -0.2429  1.0384
 6665TIP3    H241487   2.994   3.993   3.554  0.8906 -2.0953  0.3717
 6666TIP3   OH241488   0.315   4.134  11.921  0.5603  0.3309  0.8182
 6666TIP3    H141489   0.261   4.193  11.868  1.2044  0.8747  0.7613
 6666TIP3    H241490   0.395   4.122  11.870  0.3109 -0.8636  0.6687
 6667TIP3   OH241491   2.357   1.829   4.515  0.4743 -0.1632 -0.3063
 6667TIP3    H141492   2.268   1.793   4.515  0.0744  0.6996 -2.4794
 6667TIP3    H241493   2.351   1.909   4.462  2.1425  1.0437  1.2055
 6668TIP3   OH241494   1.412   4.299   4.790 -0.3990 -0.3187  0.3563
 6668TIP3    H141495   1.319   4.320   4.796 -0.0603  1.4001 -0.0353
 6668TIP3    H241496   1.438   4.326   4.702  0.4636 -0.8792  0.4162
 6669TIP3   OH241497   6.486   1.970  16.582 -0.0582  0.1939  0.3776
 6669TIP3    H141498   6.525   2.029  16.517  1.4373  0.6131  1.6120
 6669TIP3    H241499   6.445   1.901  16.529 -0.7639  1.6358 -1.0605
 6670TIP3   OH241500   2.912   4.180   0.962 -0.2704  0.4974  0.9775
 6670TIP3    H141501   2.977   4.109   0.965  1.9997  2.2237 -2.0708
 6670TIP3    H241502   2.831   4.136   0.938  1.3354 -1.1018 -2.2406
 6671TIP3   OH241503   4.104   3.405  12.765  0.4840  0.0868  0.3899
 6671TIP3    H141504   4.026   3.351  12.750  0.5861 -1.0620  3.3782
 6671TIP3    H241505   4.159   3.351  12.822  2.1410  2.0517  0.7297
 6672TIP3   OH241506   4.813   1.298  12.155 -0.1826  0.3600 -0.5825
 6672TIP3    H141507   4.834   1.358  12.226  0.5588  0.4488 -0.8723
 6672TIP3    H241508   4.741   1.341  12.108 -0.9451  0.1158  0.3332
 6673TIP3   OH241509   4.883   5.738   4.758  0.5137 -0.5308 -0.0852
 6673TIP3    H141510   4.814   5.771   4.816 -1.4044  1.1712 -3.0580
 6673TIP3    H241511   4.949   5.703   4.817 -0.8065  1.9052  3.1344
 6674TIP3   OH241512   4.125   6.675  11.463 -0.0712  0.5486  0.0992
 6674TIP3    H141513   4.047   6.680  11.518 -0.8713  1.3664 -1.0574
 6674TIP3    H241514   4.178   6.751  11.487 -0.9985  1.6057 -1.0493
 6675TIP3   OH241515   1.435   4.690  16.855 -0.8799 -0.3095  0.2522
 6675TIP3    H141516   1.456   4.611  16.904  1.7174  0.7048  0.9448
 6675TIP3    H241517   1.509   4.749  16.871 -1.7955  1.5461 -1.7797
 6676TIP3   OH241518   5.265   3.221   2.653 -0.7498 -0.2390 -0.3118
 6676TIP3    H141519   5.264   3.184   2.564 -1.1979  0.1016 -0.4561
 6676TIP3    H241520   5.296   3.311   2.640  0.8388 -0.7034  0.1001
 6677TIP3   OH241521   4.148   6.496  10.910  0.1079  0.3254  0.5719
 6677TIP3    H141522   4.232   6.474  10.950 -0.8336 -1.1234  1.8915
 6677TIP3    H241523   4.120   6.576  10.954  0.4865  0.4366  0.6111
 6678TIP3   OH241524   6.479   6.095   5.844  0.8942  0.7531  0.0677
 6678TIP3    H141525   6.388   6.107   5.871  0.3587  1.3468 -1.8569
 6678TIP3    H241526   6.481   6.007   5.807 -0.3359  2.4967 -4.8029
 6679TIP3   OH241527   0.594   2.123   6.459 -0.6714 -0.1696  0.1978
 6679TIP3    H141528   0.614   2.066   6.534  3.8906 -1.1752 -1.4098
 6679TIP3    H241529   0.605   2.212   6.493 -0.3115 -0.5489  1.1057
 6680TIP3   OH241530   1.263   3.932  11.894  0.0547 -0.1840  0.2908
 6680TIP3    H141531   1.325   3.957  11.825  0.8298 -0.2884  0.9403
 6680TIP3    H241532   1.245   3.839  11.877 -0.0031 -0.1301  0.0467
 6681TIP3   OH241533   3.606   5.455   4.814 -0.3057  0.0066 -0.0566
 6681TIP3    H141534   3.593   5.382   4.754 -0.9912 -0.4898  0.6612
 6681TIP3    H241535   3.694   5.443   4.848  0.7789  1.3064 -2.2642
 6682TIP3   OH241536   2.931   3.254  16.526  0.0476 -0.5740  0.4474
 6682TIP3    H141537   2.911   3.217  16.612  0.0319 -2.4107 -0.2945
 6682TIP3    H241538   2.984   3.331  16.544 -0.2336 -0.7419  2.1046
 6683TIP3   OH241539   1.452   3.506  15.750  0.6710  0.1865  0.2853
 6683TIP3    H141540   1.523   3.540  15.695 -0.4951  1.3121 -0.5745
 6683TIP3    H241541   1.414   3.583  15.792  2.1768 -0.6916  3.6254
 6684TIP3   OH241542   6.282   0.605   2.875  0.2919  0.3106 -0.3326
 6684TIP3    H141543   6.253   0.654   2.952 -2.1155  0.0791 -1.0133
 6684TIP3    H241544   6.235   0.645   2.802  1.3963 -0.4360 -1.4909
 6685TIP3   OH241545   5.968   0.076  11.798 -0.1850 -0.0919  0.0500
 6685TIP3    H141546   5.958   0.146  11.862 -1.7472  0.1266 -0.3823
 6685TIP3    H241547   6.030   0.110  11.734  1.7482 -0.4806  1.6185
 6686TIP3   OH241548   1.626   6.067  12.451 -0.2513  0.4192 -0.1211
 6686TIP3    H141549   1.578   6.109  12.523 -0.4283  1.5219 -0.8693
 6686TIP3    H241550   1.562   6.059  12.381  0.5341  1.5158 -0.9861
 6687TIP3   OH241551   3.572   4.409  16.157 -0.2344 -0.5945  0.0411
 6687TIP3    H141552   3.567   4.318  16.184  0.9738 -0.7103 -0.0730
 6687TIP3    H241553   3.650   4.443  16.202 -0.9253  0.5135  0.4555
 6688TIP3   OH241554   4.668   1.316  11.481  0.0094 -0.4224 -0.2769
 6688TIP3    H141555   4.592   1.355  11.523 -0.7554 -1.0314 -1.0752
 6688TIP3    H241556   4.714   1.391  11.441 -0.5474 -0.1354 -0.3849
 6689TIP3   OH241557   5.741   1.655  14.450  0.1018 -0.2072  0.6516
 6689TIP3    H141558   5.776   1.670  14.362 -3.5834 -0.5336 -1.0298
 6689TIP3    H241559   5.704   1.739  14.476 -1.0902 -0.7506  0.7586
 6690TIP3   OH241560   0.040   6.118   1.832  0.3268  0.3836  0.2957
 6690TIP3    H141561   0.057   6.027   1.856 -0.4347  0.2162  0.2161
 6690TIP3    H241562   0.127   6.158   1.828  0.7130 -0.4793 -0.2255
 6691TIP3   OH241563   5.811   6.546   4.351  0.1074  0.5906  0.2378
 6691TIP3    H141564   5.834   6.633   4.382 -1.4282  0.7382  1.0630
 6691TIP3    H241565   5.855   6.486   4.411  1.7317  0.7331 -0.7360
 6692TIP3   OH241566   4.808   2.948   2.510 -0.1527  0.5510 -0.4463
 6692TIP3    H141567   4.821   2.874   2.570 -0.7430 -1.0762 -2.2286
 6692TIP3    H241568   4.857   3.020   2.550  0.9125 -0.9375  1.0806
 6693TIP3   OH241569   6.758   2.071  14.860  0.4880 -0.0865 -0.3596
 6693TIP3    H141570   6.777   1.977  14.859  0.1916 -0.2426  1.9572
 6693TIP3    H241571   6.832   2.112  14.815  1.2798 -1.3332 -0.2242
 6694TIP3   OH241572   6.494   0.101   2.741  0.0125 -0.0413 -0.1570
 6694TIP3    H141573   6.508   0.163   2.669  1.6052  1.2880  1.2263
 6694TIP3    H241574   6.542   0.138   2.815 -0.2042 -2.1972  1.1491
 6695TIP3   OH241575   2.034   3.288   1.338 -0.3219 -0.0378  0.2602
 6695TIP3    H141576   2.028   3.193   1.329 -0.3769  0.0525 -0.7097
 6695TIP3    H241577   2.012   3.322   1.251  2.6674  0.7626 -0.3058
 6696TIP3   OH241578   5.417   6.102   0.315  0.7251 -0.0556  0.3377
 6696TIP3    H141579   5.493   6.155   0.290  1.1112 -0.1133  1.3488
 6696TIP3    H241580   5.450   6.012   0.316  0.1177 -0.3182 -1.1937
 6697TIP3   OH241581   4.486   1.271   2.289 -0.8576 -0.0136  0.1754
 6697TIP3    H141582   4.440   1.353   2.273 -0.5808 -0.0133 -0.6734
 6697TIP3    H241583   4.444   1.235   2.367 -0.7949  1.0563  0.7207
 6698TIP3   OH241584   6.151   5.665   2.586 -0.2283  0.1000  0.3814
 6698TIP3    H141585   6.160   5.629   2.674 -3.2655  0.0581  0.7592
 6698TIP3    H241586   6.117   5.592   2.534 -0.7235  0.7706 -0.2526
 6699TIP3   OH241587   4.609   0.436   5.318  0.2514  0.0731 -0.1536
 6699TIP3    H141588   4.549   0.490   5.265 -1.5246 -0.5380  1.1468
 6699TIP3    H241589   4.553   0.371   5.359  1.9042 -0.8228  0.7780
 6700TIP3   OH241590   0.342   6.245  11.897 -0.4689  0.1624  0.0731
 6700TIP3    H141591   0.266   6.298  11.922 -0.3717 -0.6893  2.4386
 6700TIP3    H241592   0.418   6.300  11.919 -0.3501  0.5933 -1.3006
 6701TIP3   OH241593   0.799   0.955   3.256  0.2494  0.2264  0.1077
 6701TIP3    H141594   0.802   0.928   3.163  0.8055  0.3172  0.0937
 6701TIP3    H241595   0.776   0.874   3.302 -1.1913  0.4385 -0.2016
 6702TIP3   OH241596   6.099   0.144   1.754 -0.2157  0.1804  0.1075
 6702TIP3    H141597   6.088   0.058   1.794 -0.5832  0.1726  0.0010
 6702TIP3    H241598   6.017   0.190   1.773  0.4007  0.8952  1.0779
 6703TIP3   OH241599   0.472   2.263   0.219  0.1781  0.0159  0.4789
 6703TIP3    H141600   0.452   2.357   0.221 -1.0092 -0.1097 -1.9190
 6703TIP3    H241601   0.387   2.220   0.220  0.6700 -0.9885  0.2955
 6704TIP3   OH241602   0.729   4.663   1.396 -0.4903 -0.0543  0.1959
 6704TIP3    H141603   0.710   4.756   1.407 -1.8529 -0.0506 -1.7625
 6704TIP3    H241604   0.825   4.657   1.404 -0.2988  1.6510 -0.5830
 6705TIP3   OH241605   6.220   5.575   0.889  0.3415 -0.2053 -0.1207
 6705TIP3    H141606   6.217   5.635   0.814 -0.0879 -0.6217 -0.4431
 6705TIP3    H241607   6.177   5.495   0.858  0.3089 -0.4446  0.5173
 6706TIP3   OH241608   2.351   6.051  12.721 -0.1999  0.2482  0.8488
 6706TIP3    H141609   2.414   6.000  12.671 -0.5017  0.5705  0.1248
 6706TIP3    H241610   2.378   6.040  12.812  4.2722  4.6383  0.4870
 6707TIP3   OH241611   3.591   2.543   4.085  0.2802  0.4368  0.3565
 6707TIP3    H141612   3.610   2.574   3.997  1.0683  1.4971  0.8707
 6707TIP3    H241613   3.522   2.602   4.117  0.5151  0.5377  0.6952
 6708TIP3   OH241614   0.530   3.267  13.964  0.5054  0.0463 -0.3990
 6708TIP3    H141615   0.436   3.282  13.974  0.3592  0.8599 -2.5483
 6708TIP3    H241616   0.563   3.259  14.054 -1.9950 -3.0206  0.4112
 6709TIP3   OH241617   1.861   2.260  11.675  0.0126 -0.1641 -0.6780
 6709TIP3    H141618   1.829   2.170  11.687 -0.2266 -0.0193 -0.2011
 6709TIP3    H241619   1.785   2.309  11.644 -0.4991  0.3702  1.2891
 6710TIP3   OH241620   4.184   3.739   2.391 -0.3284  0.5557  0.0056
 6710TIP3    H141621   4.268   3.694   2.403  0.0126  1.1643 -0.0562
 6710TIP3    H241622   4.175   3.793   2.470  0.3202  2.0296 -0.8862
 6711TIP3   OH241623   2.559   4.808   5.583  0.5710 -0.2485  0.0955
 6711TIP3    H141624   2.649   4.827   5.557  0.8708  0.7774  1.6882
 6711TIP3    H241625   2.568   4.748   5.657 -0.1954 -2.1748 -1.2915
 6712TIP3   OH241626   0.890   0.465  12.879  0.0315  0.4338 -0.0115
 6712TIP3    H141627   0.939   0.509  12.949 -0.8303  2.1760 -0.4279
 6712TIP3    H241628   0.957   0.441  12.814  0.6427  0.2803  0.6658
 6713TIP3   OH241629   2.119   1.861   0.527  0.3988  0.9754  0.0681
 6713TIP3    H141630   2.163   1.785   0.491  0.0112  0.4564  0.6733
 6713TIP3    H241631   2.041   1.871   0.473 -0.1317  0.2560  0.6769
 6714TIP3   OH241632   3.676   4.638   5.041  0.2554 -0.1509  0.2495
 6714TIP3    H141633   3.625   4.632   4.961 -1.7225 -1.3443  1.5280
 6714TIP3    H241634   3.611   4.637   5.112  1.9741 -0.2999  1.9145
 6715TIP3   OH241635   5.411   2.133   0.461  0.0063  0.1530 -0.0199
 6715TIP3    H141636   5.393   2.040   0.469 -0.4053  0.2742  0.4664
 6715TIP3    H241637   5.358   2.175   0.528  0.1584  0.7451 -0.2552
 6716TIP3   OH241638   3.717   0.282  11.602  0.5215  0.6221 -0.3012
 6716TIP3    H141639   3.684   0.213  11.545 -0.6185 -0.3471  1.4499
 6716TIP3    H241640   3.812   0.266  11.607  0.0040 -2.8651  2.4561
 6717TIP3   OH241641   5.515   2.522   1.389  0.4754 -0.1231 -0.4037
 6717TIP3    H141642   5.599   2.562   1.367  1.5251 -2.3522 -0.7180
 6717TIP3    H241643   5.535   2.459   1.458 -0.6932 -1.5617 -1.3076
 6718TIP3   OH241644   4.003   0.381   2.725  0.1153 -0.1643  0.1956
 6718TIP3    H141645   4.069   0.400   2.792  0.6627 -0.5961 -0.2165
 6718TIP3    H241646   3.977   0.290   2.742 -1.0356  0.2683  0.9110
 6719TIP3   OH241647   3.287   1.849  13.416 -0.0050  0.8642 -0.4211
 6719TIP3    H141648   3.320   1.808  13.336  0.8310 -0.4447  0.5682
 6719TIP3    H241649   3.223   1.787  13.450  1.1312  0.4241  0.9905
 6720TIP3   OH241650   0.360   5.012  16.326 -0.1794 -0.2626 -0.2980
 6720TIP3    H141651   0.428   4.985  16.388 -1.1051  0.2362  0.9923
 6720TIP3    H241652   0.408   5.039  16.248  1.2945  1.8739  1.2248
 6721TIP3   OH241653   2.813   0.738  17.087 -0.5666 -0.1126  0.0222
 6721TIP3    H141654   2.795   0.780  17.170  0.3253 -1.7928  1.1346
 6721TIP3    H241655   2.874   0.667  17.108  0.3354 -0.1002 -2.1823
 6722TIP3   OH241656   2.013   0.531   1.279 -0.5097 -0.0044 -0.0709
 6722TIP3    H141657   2.104   0.519   1.306 -1.0690 -1.1746  1.3619
 6722TIP3    H241658   1.975   0.443   1.280 -2.2162  0.6851  1.4585
 6723TIP3   OH241659   0.264   0.929  11.799 -0.5239 -0.1346 -0.4611
 6723TIP3    H141660   0.329   0.920  11.869 -0.6676 -0.1406 -0.3297
 6723TIP3    H241661   0.216   0.847  11.800 -1.5676  0.4691  0.4699
 6724TIP3   OH241662   0.311   6.830  13.408 -0.0133 -0.1878 -0.0318
 6724TIP3    H141663   0.369   6.891  13.453  1.2619 -0.8225 -0.7720
 6724TIP3    H241664   0.229   6.878  13.399  0.6951  1.1143  0.1384
 6725TIP3   OH241665   3.748   4.666  16.538  0.8322  0.0285 -0.2038
 6725TIP3    H141666   3.834   4.684  16.577  0.9404  0.8526 -0.8068
 6725TIP3    H241667   3.767   4.647  16.446  0.5692 -1.8078  0.0821
 6726TIP3   OH241668   2.578   3.655  16.672  0.1329 -0.5163 -0.7220
 6726TIP3    H141669   2.596   3.631  16.581  1.3598 -0.8150 -0.4335
 6726TIP3    H241670   2.581   3.571  16.719  1.2711 -0.1785 -0.1612
 6727TIP3   OH241671   3.651   1.658   3.550 -0.1331 -0.6321 -0.2568
 6727TIP3    H141672   3.737   1.617   3.564 -0.0465 -1.2676 -2.3118
 6727TIP3    H241673   3.630   1.698   3.634  2.0608 -0.6687  0.3861
 6728TIP3   OH241674   5.112   0.255   1.606 -0.3426  0.1826 -0.6538
 6728TIP3    H141675   5.080   0.166   1.619 -1.1846  0.4185 -1.0523
 6728TIP3    H241676   5.207   0.247   1.612 -0.4746 -0.3125  1.9300
 6729TIP3   OH241677   3.266   5.115  16.240  0.0063  0.1662 -0.1454
 6729TIP3    H141678   3.335   5.090  16.178  0.4575 -1.8680  1.0556
 6729TIP3    H241679   3.313   5.157  16.312  0.0078 -0.9174  0.5168
 6730TIP3   OH241680   5.974   1.777  15.738  0.1831  0.0044 -0.0604
 6730TIP3    H141681   5.969   1.831  15.818  1.6970 -2.5317  1.9112
 6730TIP3    H241682   6.056   1.803  15.697 -0.5194  1.2055 -0.7506
 6731TIP3   OH241683   5.467   3.686  10.995  0.5086  0.0692  0.5399
 6731TIP3    H141684   5.553   3.711  10.962  1.0688 -0.9971  1.1476
 6731TIP3    H241685   5.473   3.592  11.011 -1.8529 -0.7873 -2.6580
 6732TIP3   OH241686   3.380   3.626  16.511 -0.3961 -0.5030 -0.1761
 6732TIP3    H141687   3.438   3.697  16.539 -0.8836  0.6270 -1.9262
 6732TIP3    H241688   3.432   3.577  16.447 -0.4858 -1.0355  0.1503
 6733TIP3   OH241689   3.188   6.728  11.588  0.7616  0.1561 -0.0658
 6733TIP3    H141690   3.160   6.727  11.679  1.5731 -0.5057  0.1952
 6733TIP3    H241691   3.109   6.708  11.538 -0.3484  3.1763  0.2535
 6734TIP3   OH241692   5.622   5.895   6.525 -0.4085  0.0638 -0.2757
 6734TIP3    H141693   5.705   5.884   6.572  0.9308 -1.4667 -2.8118
 6734TIP3    H241694   5.577   5.965   6.573  2.5822  1.3760  0.8575
 6735TIP3   OH241695   2.115   6.591  13.357  0.3900 -0.1490  0.0686
 6735TIP3    H141696   2.074   6.674  13.332 -1.6296 -1.4084 -1.1829
 6735TIP3    H241697   2.094   6.581  13.450 -2.9355 -1.0010 -0.6183
 6736TIP3   OH241698   4.242   6.070   2.978 -0.0249  0.0367  0.2467
 6736TIP3    H141699   4.203   6.129   3.042  2.2993  1.9811  0.0057
 6736TIP3    H241700   4.301   6.015   3.028  0.9474  0.8017 -0.0172
 6737TIP3   OH241701   2.876   4.910  14.248 -0.5345 -0.4624  0.1343
 6737TIP3    H141702   2.805   4.949  14.299  0.2356 -1.2633  1.9252
 6737TIP3    H241703   2.951   4.967  14.264 -0.5148 -0.1654 -0.9529
 6738TIP3   OH241704   2.818   6.770  11.707 -0.5381 -0.0656  0.1602
 6738TIP3    H141705   2.889   6.828  11.736 -0.2617 -0.2618 -0.1253
 6738TIP3    H241706   2.845   6.739  11.621 -0.1137 -1.5536  0.7951
 6739TIP3   OH241707   1.242   4.022   3.866  0.1712  0.3915 -0.5069
 6739TIP3    H141708   1.181   4.003   3.794 -0.9009  1.1984  0.1746
 6739TIP3    H241709   1.255   3.938   3.909 -1.7944  0.4841  0.3532
 6740TIP3   OH241710   2.154   0.580  14.683  0.3412  0.0303  0.4621
 6740TIP3    H141711   2.108   0.647  14.733 -1.7914 -0.5359 -0.6074
 6740TIP3    H241712   2.206   0.629  14.619  0.6021  0.6902  1.1769
 6741TIP3   OH241713   5.329   0.044  16.953 -0.2612 -0.6116 -0.2963
 6741TIP3    H141714   5.254   0.001  16.995 -0.1766 -0.2842  0.2022
 6741TIP3    H241715   5.396  -0.025  16.948 -0.5950 -0.9064 -0.7473
 6742TIP3   OH241716   6.373   1.444  14.434  0.2761  0.5429 -0.0842
 6742TIP3    H141717   6.323   1.439  14.352 -1.7440  1.8237  0.9923
 6742TIP3    H241718   6.425   1.524  14.426 -0.2975  0.9359  0.0652
 6743TIP3   OH241719   2.961   5.135   5.191  0.2242  0.0447 -0.7270
 6743TIP3    H141720   2.875   5.117   5.229  0.1875 -0.1457 -0.8949
 6743TIP3    H241721   2.973   5.065   5.127  0.9733 -0.5571  0.0585
 6744TIP3   OH241722   0.215   4.982  14.239  0.1315 -0.3752  0.5819
 6744TIP3    H141723   0.251   5.043  14.174 -1.4949 -0.7411 -0.7427
 6744TIP3    H241724   0.230   4.895  14.202  0.2928 -0.6592  1.2985
 6745TIP3   OH241725   1.894   3.597   5.893 -0.4471 -0.1000  0.0182
 6745TIP3    H141726   1.912   3.682   5.853  1.2939 -0.8692 -0.9724
 6745TIP3    H241727   1.941   3.599   5.976 -1.0715  0.1988  0.3627
 6746TIP3   OH241728   6.754   5.476  15.339 -0.4548  0.9978 -0.1071
 6746TIP3    H141729   6.792   5.564  15.338  0.1949  0.7353  0.5141
 6746TIP3    H241730   6.754   5.451  15.431  0.1253  0.0366 -0.3487
 6747TIP3   OH241731   3.971   6.221   0.638 -0.0720  0.3681  0.6340
 6747TIP3    H141732   3.984   6.198   0.546 -1.2856 -0.3902  0.6368
 6747TIP3    H241733   3.881   6.194   0.658  0.2884  0.1662  2.1482
 6748TIP3   OH241734   2.033   1.193  16.494 -0.5025 -0.4435 -0.2585
 6748TIP3    H141735   2.020   1.228  16.582  0.0978 -2.8959  0.9092
 6748TIP3    H241736   1.987   1.254  16.436 -0.3648  1.5978  1.6633
 6749TIP3   OH241737   2.106   3.815  10.913  0.3373  0.0988 -0.3259
 6749TIP3    H141738   2.012   3.809  10.900  0.4097 -0.1371 -0.7288
 6749TIP3    H241739   2.137   3.873  10.843  0.4389  0.4959  0.0410
 6750TIP3   OH241740   6.723   2.572   1.754 -0.7457  0.4601 -0.2499
 6750TIP3    H141741   6.740   2.660   1.789  1.8577  0.3206 -0.9248
 6750TIP3    H241742   6.736   2.581   1.660 -1.2295 -0.4889 -0.4145
 6751TIP3   OH241743   0.701   1.735  15.892 -0.3597 -0.3778 -0.2111
 6751TIP3    H141744   0.702   1.646  15.855 -2.6715 -1.1386  1.3307
 6751TIP3    H241745   0.745   1.727  15.976 -0.8329 -0.1699  0.0648
 6752TIP3   OH241746   5.544   6.488   4.996 -0.1750  0.4261 -0.3300
 6752TIP3    H141747   5.493   6.473   5.076  1.3723  0.7547  0.7457
 6752TIP3    H241748   5.634   6.465   5.019  0.0821 -1.0758 -2.4599
 6753TIP3   OH241749   4.378   1.591  12.073 -0.2364  0.0478  0.1572
 6753TIP3    H141750   4.464   1.553  12.090 -0.0603 -0.2029 -1.1902
 6753TIP3    H241751   4.317   1.519  12.090 -0.0600 -0.2254 -0.3410
 6754TIP3   OH241752   2.630   5.400   1.698  0.4466  0.6014 -0.4991
 6754TIP3    H141753   2.681   5.478   1.675  0.5786  1.1020  1.3293
 6754TIP3    H241754   2.651   5.384   1.790  1.7687 -2.6271 -1.2060
 6755TIP3   OH241755   6.257   1.382   3.323 -0.1671 -0.1456 -0.2710
 6755TIP3    H141756   6.311   1.331   3.262  0.4723 -1.3426  1.2226
 6755TIP3    H241757   6.291   1.471   3.317 -0.2978 -0.1769 -1.8316
 6756TIP3   OH241758   0.797   2.954   2.178 -0.0534  0.1368 -0.0100
 6756TIP3    H141759   0.767   3.031   2.227  1.4928 -0.2428  1.6600
 6756TIP3    H241760   0.745   2.882   2.214  0.0183  0.0787 -0.0240
 6757TIP3   OH241761   1.746   4.329   3.621 -0.0867  0.1652  0.0456
 6757TIP3    H141762   1.770   4.272   3.694  0.6250 -0.8931 -0.9682
 6757TIP3    H241763   1.781   4.415   3.645 -0.5381  0.0312  1.2773
 6758TIP3   OH241764   2.990   5.223   6.318  0.1211 -0.2362  0.1546
 6758TIP3    H141765   2.914   5.182   6.359 -0.6855  1.5280  0.5146
 6758TIP3    H241766   2.980   5.316   6.337  1.7139  0.1812 -0.8833
 6759TIP3   OH241767   3.387   3.236   1.489 -0.1858  0.2606 -0.0466
 6759TIP3    H141768   3.397   3.232   1.584 -1.8768 -2.2811  0.1131
 6759TIP3    H241769   3.301   3.197   1.471 -0.6013  2.0476 -2.5443
 6760TIP3   OH241770   1.848   6.394  14.770  0.0047  0.2951 -0.2462
 6760TIP3    H141771   1.752   6.403  14.766  0.0022  0.1873 -0.4300
 6760TIP3    H241772   1.875   6.382  14.679  0.3723  2.0911 -0.4073
 6761TIP3   OH241773   4.625   3.544   2.724 -0.4424 -0.3048 -0.6184
 6761TIP3    H141774   4.625   3.598   2.803 -1.7392 -1.5823  0.3110
 6761TIP3    H241775   4.708   3.565   2.680 -0.1585  1.1727  0.5541
 6762TIP3   OH241776   6.359   5.187   1.515  0.0841  0.0392  0.1490
 6762TIP3    H141777   6.287   5.168   1.575 -0.9687  2.0007 -0.4089
 6762TIP3    H241778   6.415   5.248   1.563  0.9313 -0.7629  0.2285
 6763TIP3   OH241779   0.217   2.638  11.962 -0.2436 -0.2756  0.5046
 6763TIP3    H141780   0.182   2.670  12.046 -0.1833 -3.1822  1.7649
 6763TIP3    H241781   0.146   2.584  11.926  0.5155 -0.7989 -0.2264
 6764TIP3   OH241782   5.373   3.918  14.373 -0.2917  0.2368 -0.4789
 6764TIP3    H141783   5.393   3.839  14.323 -0.4463 -0.6340  0.7879
 6764TIP3    H241784   5.455   3.940  14.418 -0.3584  0.5579 -0.5096
 6765TIP3   OH241785   4.723   2.606   0.813 -0.1010 -0.0471 -0.0778
 6765TIP3    H141786   4.677   2.687   0.838  0.2622 -0.1206  0.8923
 6765TIP3    H241787   4.696   2.589   0.723 -0.4951  0.9396 -0.1555
 6766TIP3   OH241788   0.956   6.060  11.830 -0.4135  0.1983  0.4919
 6766TIP3    H141789   0.941   6.090  11.740  0.1341 -1.0242 -0.0254
 6766TIP3    H241790   0.871   6.068  11.872 -0.5703  1.2546  0.0197
 6767TIP3   OH241791   0.782   4.747  15.186  0.0393  0.3163  0.0154
 6767TIP3    H141792   0.692   4.726  15.160 -0.6506  2.6345  0.2861
 6767TIP3    H241793   0.800   4.830  15.142  3.1784 -1.4717 -2.4454
 6768TIP3   OH241794   5.945   5.208   0.052 -0.0532 -0.1751  0.2432
 6768TIP3    H141795   5.947   5.257   0.134 -1.5535 -0.1344  0.2957
 6768TIP3    H241796   5.855   5.219   0.020  0.2066 -1.0655 -0.8696
 6769TIP3   OH241797   3.410   4.451  13.485 -0.1484  0.0180 -0.2440
 6769TIP3    H141798   3.405   4.360  13.457  0.1526 -0.3470  0.8012
 6769TIP3    H241799   3.499   4.460  13.520  0.2810  1.0899 -1.5279
 6770TIP3   OH241800   3.141   2.441  14.782  0.6240 -0.2122 -0.2763
 6770TIP3    H141801   3.104   2.355  14.759  0.0786 -0.2176  0.6073
 6770TIP3    H241802   3.157   2.482  14.697  1.4540 -1.4125 -0.7366
 6771TIP3   OH241803   6.277   1.048  15.782 -0.0905  0.0348 -0.1765
 6771TIP3    H141804   6.351   1.019  15.836 -1.4476 -0.1099  1.7214
 6771TIP3    H241805   6.238   1.121  15.831 -0.7265  0.6750 -1.5536
 6772TIP3   OH241806   1.504   0.752   3.500  0.2226 -0.1372  0.0918
 6772TIP3    H141807   1.453   0.800   3.435 -0.7346 -0.6902  0.4148
 6772TIP3    H241808   1.592   0.788   3.493 -0.5515  2.0381  0.6423
 6773TIP3   OH241809   1.760   0.233   5.440  0.3536  0.2563  0.2162
 6773TIP3    H141810   1.848   0.202   5.418  0.0226 -1.2457  0.8316
 6773TIP3    H241811   1.743   0.304   5.378  1.8997  0.4224 -0.0567
 6774TIP3   OH241812   4.182   5.266  13.119  0.4196  0.1203  0.1251
 6774TIP3    H141813   4.125   5.195  13.150  0.7740 -0.5410 -0.7019
 6774TIP3    H241814   4.121   5.338  13.102  0.0328 -0.0290  0.8193
 6775TIP3   OH241815   1.639   5.098   0.726 -0.1300 -0.5454  0.6844
 6775TIP3    H141816   1.707   5.094   0.792 -0.6060 -3.8264  1.1740
 6775TIP3    H241817   1.582   5.170   0.753  2.0468  1.0004  1.3301
 6776TIP3   OH241818   5.728   2.414  11.811 -0.3443 -0.2110  0.1443
 6776TIP3    H141819   5.647   2.390  11.857 -0.1518  0.0202  0.6183
 6776TIP3    H241820   5.795   2.361  11.853 -0.4745 -1.5852 -1.3185
 6777TIP3   OH241821   1.421   1.652   4.280  0.1575  0.8766 -0.6381
 6777TIP3    H141822   1.379   1.590   4.340 -0.1313 -1.1310 -2.8024
 6777TIP3    H241823   1.399   1.738   4.316 -2.1098 -0.1851  0.7460
 6778TIP3   OH241824   6.116   5.105  10.585  0.8077 -0.1475  0.3495
 6778TIP3    H141825   6.119   5.187  10.536  0.5442  0.0090  0.5910
 6778TIP3    H241826   6.187   5.113  10.649  0.1254  0.3344  1.0565
 6779TIP3   OH241827   0.273   6.620   4.617  0.3935 -0.0559 -0.4004
 6779TIP3    H141828   0.208   6.677   4.576 -1.0837 -0.8332  0.7899
 6779TIP3    H241829   0.241   6.606   4.706  2.7859  0.4652  0.6416
 6780TIP3   OH241830   0.240   2.550   5.223 -0.2876 -0.0622 -0.9165
 6780TIP3    H141831   0.154   2.525   5.191 -1.1701  0.6810  0.7436
 6780TIP3    H241832   0.253   2.639   5.189 -1.0680  0.5880  0.4023
 6781TIP3   OH241833   5.594   5.846   0.920 -0.3098  0.7263  0.5241
 6781TIP3    H141834   5.685   5.821   0.938 -0.3889  0.5984  0.7450
 6781TIP3    H241835   5.600   5.939   0.895  0.0887  0.2816 -1.1728
 6782TIP3   OH241836   5.676   3.464   1.245 -0.2080 -0.1981  0.0184
 6782TIP3    H141837   5.730   3.422   1.179 -0.8107 -0.4206 -0.3450
 6782TIP3    H241838   5.737   3.493   1.313  0.2082 -1.7315  0.3208
 6783TIP3   OH241839   6.539   1.727  13.477  0.1267 -0.4288  0.3717
 6783TIP3    H141840   6.476   1.667  13.436  1.7914  0.0927 -3.3194
 6783TIP3    H241841   6.621   1.678  13.479  0.7281  0.5530  0.4343
 6784TIP3   OH241842   1.115   5.302  13.710 -0.7539  0.0413  0.4322
 6784TIP3    H141843   1.128   5.315  13.616 -0.9635 -0.8747  0.2597
 6784TIP3    H241844   1.203   5.297  13.746 -0.6248 -1.2798  0.0087
 6785TIP3   OH241845   2.813   5.056  16.535 -0.1389  0.0320  0.6747
 6785TIP3    H141846   2.831   5.121  16.603  0.7048  1.0754 -0.5038
 6785TIP3    H241847   2.886   5.064  16.474 -0.7596 -1.0459 -0.2486
 6786TIP3   OH241848   6.439   0.017  14.618 -0.1211 -0.2017 -0.1802
 6786TIP3    H141849   6.444   0.036  14.525  2.2982  0.2470 -0.0287
 6786TIP3    H241850   6.455  -0.077  14.625  1.2381  0.0120 -0.1628
 6787TIP3   OH241851   1.008   0.364   4.776 -0.4065 -0.1888  0.3035
 6787TIP3    H141852   0.957   0.343   4.698 -1.4476 -1.4680  1.3009
 6787TIP3    H241853   1.096   0.381   4.742 -0.6649 -1.3874 -1.0857
 6788TIP3   OH241854   0.955   6.256   2.914  0.5847  0.4076 -0.3011
 6788TIP3    H141855   0.899   6.207   2.974 -2.1238  2.6808 -0.7446
 6788TIP3    H241856   0.924   6.231   2.827  1.3851  0.5173 -0.6213
 6789TIP3   OH241857   0.318   5.652   2.822  0.5117  0.1323 -0.8763
 6789TIP3    H141858   0.223   5.647   2.814  0.4355 -0.9435  0.4390
 6789TIP3    H241859   0.350   5.657   2.732 -0.8141  1.3831 -1.3115
 6790TIP3   OH241860   3.684   4.245  13.149 -0.4178  0.3958  0.7074
 6790TIP3    H141861   3.696   4.153  13.124 -0.6052  0.6523 -0.4134
 6790TIP3    H241862   3.658   4.242  13.241  0.9469 -0.5871  1.0940
 6791TIP3   OH241863   2.497   3.158   0.275  0.2191  0.4089  0.3250
 6791TIP3    H141864   2.403   3.168   0.289  0.3804 -1.2667  3.7088
 6791TIP3    H241865   2.525   3.240   0.235 -2.4156  1.6215  0.7909
 6792TIP3   OH241866   1.962   4.605   5.072  0.0465  0.0110 -0.2495
 6792TIP3    H141867   2.015   4.684   5.063  0.0528 -0.0880 -1.1409
 6792TIP3    H241868   1.875   4.630   5.042 -0.5839  0.3012  1.6419
 6793TIP3   OH241869   3.137   4.137   5.281  0.3477  0.9598  0.0050
 6793TIP3    H141870   3.146   4.151   5.187  0.8009  1.9852  0.1848
 6793TIP3    H241871   3.149   4.224   5.320  1.4425  0.3577  1.0861
 6794TIP3   OH241872   1.499   6.119   0.962  0.3717 -0.1922  0.1160
 6794TIP3    H141873   1.564   6.058   0.996  1.1075  0.8187  0.5794
 6794TIP3    H241874   1.415   6.086   0.997  0.4207 -2.2236 -1.5259
 6795TIP3   OH241875   3.677   2.192  16.669 -0.6118  0.1191  0.3527
 6795TIP3    H141876   3.679   2.129  16.596 -0.0105 -0.4134  0.8079
 6795TIP3    H241877   3.763   2.234  16.666 -0.8080  0.5291  0.3954
 6796TIP3   OH241878   4.281   5.798   3.599  0.3623  0.4515  0.6442
 6796TIP3    H141879   4.202   5.761   3.558  0.0477  0.0160  1.6222
 6796TIP3    H241880   4.274   5.892   3.583  1.7290  0.1135 -2.8787
 6797TIP3   OH241881   4.172   5.823   6.224 -0.3129  0.0427 -0.4686
 6797TIP3    H141882   4.121   5.855   6.150 -1.2539  0.0865  0.1796
 6797TIP3    H241883   4.183   5.900   6.280  0.2176 -0.0391 -0.4533
 6798TIP3   OH241884   4.002   0.970  10.987  0.5253 -0.6241 -0.7015
 6798TIP3    H141885   3.930   0.977  11.049  0.3868  0.5519 -0.9822
 6798TIP3    H241886   3.961   0.948  10.903  0.3857  0.8427 -1.0416
 6799TIP3   OH241887   0.861   1.754   4.461  0.1463  0.0103  0.1550
 6799TIP3    H141888   0.883   1.686   4.525 -1.1076  0.1966  0.8170
 6799TIP3    H241889   0.946   1.787   4.431  0.7619 -0.7575  0.9998
 6800TIP3   OH241890   2.233   6.575  16.814 -0.2237  0.2347  0.0547
 6800TIP3    H141891   2.172   6.504  16.834 -0.1494 -0.1014 -0.8480
 6800TIP3    H241892   2.290   6.581  16.891 -1.6464  0.8439  1.1066
 6801TIP3   OH241893   1.819   1.654   4.795  0.2577 -0.7295  0.2362
 6801TIP3    H141894   1.832   1.592   4.723  1.4738  0.5911 -0.7214
 6801TIP3    H241895   1.906   1.688   4.813 -0.5058  1.4620  0.0284
 6802TIP3   OH241896   6.042   6.747   1.451 -0.5043 -0.1472 -0.2109
 6802TIP3    H141897   6.087   6.824   1.487  0.2147 -1.3172  1.5315
 6802TIP3    H241898   5.950   6.772   1.447 -0.2603  0.8594  0.1540
 6803TIP3   OH241899   6.622   3.881   0.636  0.4904 -0.2080  0.1385
 6803TIP3    H141900   6.707   3.919   0.659 -0.8151  2.0095  1.7692
 6803TIP3    H241901   6.562   3.914   0.704 -1.8220 -1.0841 -1.3466
 6804TIP3   OH241902   4.260   0.302   0.622 -0.2699  0.7415  0.2401
 6804TIP3    H141903   4.232   0.386   0.659 -2.1810 -0.9342  3.0461
 6804TIP3    H241904   4.211   0.236   0.673  1.9807 -2.1326 -1.0160
 6805TIP3   OH241905   5.411   5.920   4.133  0.1447 -0.4474 -0.8087
 6805TIP3    H141906   5.316   5.925   4.121  0.0865 -0.4940 -0.3626
 6805TIP3    H241907   5.428   5.827   4.148  0.1407 -0.3002  0.1218
 6806TIP3   OH241908   1.131   0.113   0.931 -0.3616 -0.0909  0.3326
 6806TIP3    H141909   1.136   0.196   0.977 -1.6727  0.4703 -0.4925
 6806TIP3    H241910   1.200   0.118   0.864 -0.2311  0.1956  0.4878
 6807TIP3   OH241911   5.914   1.855  17.172 -0.4949 -0.4970  0.1331
 6807TIP3    H141912   5.838   1.828  17.120  0.5258 -0.6718 -1.3467
 6807TIP3    H241913   5.894   1.945  17.200 -1.5858 -0.8369  0.4827
 6808TIP3   OH241914   6.266   5.003   1.083  0.0011 -0.1857  0.0064
 6808TIP3    H141915   6.254   5.033   1.174 -1.6300 -3.4459  1.0301
 6808TIP3    H241916   6.178   5.006   1.045  0.4943  0.1365 -1.1548
 6809TIP3   OH241917   5.401   2.602  14.779  0.4152 -0.2957 -0.1703
 6809TIP3    H141918   5.412   2.697  14.769 -1.3923  0.0209  0.4331
 6809TIP3    H241919   5.475   2.575  14.833  0.1941  1.0237  0.8577
 6810TIP3   OH241920   6.775   3.522   1.282 -0.2549  0.0304  0.2604
 6810TIP3    H141921   6.817   3.599   1.246 -0.0041  1.0723  2.5642
 6810TIP3    H241922   6.847   3.470   1.320 -0.5247 -0.8319 -0.3725
 6811TIP3   OH241923   3.699   5.899   4.315  0.4016 -0.2990  0.3685
 6811TIP3    H141924   3.728   5.890   4.406  2.3057 -0.5019 -0.2192
 6811TIP3    H241925   3.757   5.964   4.276  0.1256 -0.7746 -0.9116
 6812TIP3   OH241926   4.371   1.574  13.631 -0.3127  0.4073  0.0405
 6812TIP3    H141927   4.434   1.599  13.564 -0.0713  0.3188  0.2309
 6812TIP3    H241928   4.415   1.504  13.680 -0.2275  0.9044  0.6897
 6813TIP3   OH241929   2.283   0.127   1.473 -0.1634 -0.1325  0.2583
 6813TIP3    H141930   2.285   0.150   1.380  1.7364 -1.7088 -0.1584
 6813TIP3    H241931   2.199   0.084   1.485  0.5832 -2.2861 -1.4441
 6814TIP3   OH241932   2.022   5.945  13.784  0.4581  0.0792  0.3367
 6814TIP3    H141933   1.945   6.002  13.782  0.3866  0.0461  1.4460
 6814TIP3    H241934   2.081   5.982  13.718 -0.0491  0.7689  0.2578
 6815TIP3   OH241935   3.656   2.051   0.285  0.0838  0.4444  0.0844
 6815TIP3    H141936   3.631   1.988   0.217 -1.5172 -0.5553  1.5340
 6815TIP3    H241937   3.744   2.079   0.260 -0.7357  0.7393 -2.8410
 6816TIP3   OH241938   6.336   3.695   6.491 -0.1621 -0.0045  0.0827
 6816TIP3    H141939   6.259   3.642   6.470 -0.2489  0.8771 -1.9715
 6816TIP3    H241940   6.357   3.741   6.410  2.6290 -0.3205  0.5261
 6817TIP3   OH241941   1.843   6.717  13.475  0.1770  0.1392  0.0924
 6817TIP3    H141942   1.782   6.669  13.420  0.6767 -2.1199  1.3834
 6817TIP3    H241943   1.794   6.794  13.503 -1.0069 -0.0658 -1.2886
 6818TIP3   OH241944   0.072   2.917   2.429  0.6490  0.2790  0.2919
 6818TIP3    H141945   0.133   2.844   2.417 -0.1481 -0.2214 -0.8568
 6818TIP3    H241946   0.126   2.987   2.466  1.9451 -0.1015 -0.8037
 6819TIP3   OH241947   6.467   4.212  12.846 -0.0241 -0.5034  0.1446
 6819TIP3    H141948   6.424   4.189  12.763 -0.2170 -1.3909  0.4762
 6819TIP3    H241949   6.397   4.207  12.911  0.2618 -0.4382  0.4589
 6820TIP3   OH241950   0.804   3.255   3.054 -0.0778 -0.2668 -0.0126
 6820TIP3    H141951   0.881   3.297   3.092  1.9792 -1.5935 -2.4543
 6820TIP3    H241952   0.739   3.325   3.048  2.0755  1.7523 -0.8929
 6821TIP3   OH241953   2.354   0.943   6.131  0.0167  0.3504  0.3574
 6821TIP3    H141954   2.325   1.017   6.184  0.3668  0.0981  0.9128
 6821TIP3    H241955   2.405   0.888   6.191  0.4846  0.0945 -0.2526
 6822TIP3   OH241956   3.532   5.990  16.454  0.4499 -0.1700  0.4665
 6822TIP3    H141957   3.603   6.040  16.413  0.2625  0.4562  0.8916
 6822TIP3    H241958   3.528   5.909  16.404  2.4082 -0.8389  1.2995
 6823TIP3   OH241959   4.219   5.834   5.899  0.2656  0.1014 -0.5090
 6823TIP3    H141960   4.212   5.743   5.870  0.1287 -0.3254  0.8337
 6823TIP3    H241961   4.302   5.838   5.946 -1.0301 -0.0641  1.9133
 6824TIP3   OH241962   0.414   2.824  14.195  0.5347 -0.7261 -0.2729
 6824TIP3    H141963   0.434   2.756  14.259 -3.3744 -1.5214  0.3822
 6824TIP3    H241964   0.382   2.777  14.118 -4.0075  0.0496  0.8338
 6825TIP3   OH241965   5.483   5.582  13.946  0.4391  0.2649 -0.2940
 6825TIP3    H141966   5.417   5.587  14.015 -1.6430  1.9461 -2.2002
 6825TIP3    H241967   5.546   5.517  13.976  0.7440  2.2254  4.0098
 6826TIP3   OH241968   2.505   0.120   5.090 -0.6305  0.3438 -0.4893
 6826TIP3    H141969   2.422   0.093   5.052  0.4231 -0.0340 -2.6869
 6826TIP3    H241970   2.543   0.180   5.025  0.5306  1.0299  0.7604
 6827TIP3   OH241971   5.353   6.124   2.537 -0.8075 -0.0583 -0.3378
 6827TIP3    H141972   5.420   6.057   2.525 -0.4232  0.4457 -1.0543
 6827TIP3    H241973   5.292   6.110   2.464 -1.1632 -0.1403 -0.0261
 6828TIP3   OH241974   1.537   5.451  12.793 -0.1868  0.0449 -0.4457
 6828TIP3    H141975   1.566   5.424  12.880  0.3390 -1.7593 -1.1337
 6828TIP3    H241976   1.475   5.522  12.809 -1.0653 -1.0765  1.4746
 6829TIP3   OH241977   5.449   1.407  14.840  0.2299  0.0567 -0.2435
 6829TIP3    H141978   5.498   1.434  14.918  1.9539  0.8539 -1.5256
 6829TIP3    H241979   5.484   1.462  14.770 -1.6141 -0.3045 -1.4976
 6830TIP3   OH241980   3.126   6.162  16.902  0.7935  0.5271 -0.0655
 6830TIP3    H141981   3.125   6.210  16.819  1.2334 -0.8206 -0.8877
 6830TIP3    H241982   3.209   6.186  16.943  1.6300 -0.4996 -1.0889
 6831TIP3   OH241983   3.829   0.379  16.658  0.0377  0.2676 -0.1014
 6831TIP3    H141984   3.828   0.296  16.706 -0.8057 -0.6640 -1.6386
 6831TIP3    H241985   3.909   0.423  16.687  1.3461 -1.7850 -0.3853
 6832TIP3   OH241986   1.802   4.050  17.186 -0.5328 -0.3116 -0.1080
 6832TIP3    H141987   1.740   3.980  17.164 -0.3311 -1.3359  2.2829
 6832TIP3    H241988   1.754   4.105  17.248  0.4977 -0.4282  0.8254
 6833TIP3   OH241989   3.089   3.731  17.093 -0.4384 -0.2286 -0.1320
 6833TIP3    H141990   3.060   3.719  17.184  0.4643  0.5527  0.2835
 6833TIP3    H241991   3.183   3.745  17.100 -0.4533  0.5107 -1.1252
 6834TIP3   OH241992   1.476   6.209  16.777  0.2284 -0.8286  0.2812
 6834TIP3    H141993   1.510   6.275  16.837  1.0810 -1.6114  0.6839
 6834TIP3    H241994   1.382   6.226  16.773  0.1426 -0.7919  1.8795
 6835TIP3   OH241995   2.785   1.277  11.301 -0.1711 -0.0034 -0.5269
 6835TIP3    H141996   2.870   1.236  11.293 -0.6187 -0.7302 -1.8579
 6835TIP3    H241997   2.723   1.211  11.270 -1.3636  0.0556  1.5357
 6836TIP3   OH241998   2.654   2.056   3.499  0.0318 -0.2827 -0.2167
 6836TIP3    H141999   2.663   2.021   3.411  0.2578  0.5753 -0.5341
 6836TIP3    H242000   2.743   2.066   3.531 -0.0089  0.6517 -0.3833
 6837TIP3   OH242001   1.125   2.160  14.596 -0.1425 -0.5189 -0.5861
 6837TIP3    H142002   1.069   2.084  14.609  0.8556 -1.0569  0.7003
 6837TIP3    H242003   1.099   2.221  14.665  2.1493 -1.5862  1.3526
 6838TIP3   OH242004   5.944   4.730  13.236  0.5005 -0.2711  0.2921
 6838TIP3    H142005   5.915   4.818  13.260 -2.0024 -0.3138 -2.0300
 6838TIP3    H242006   5.990   4.743  13.153 -0.7395 -1.2072 -0.5664
 6839TIP3   OH242007   2.421   6.645   2.656  0.2636  0.9331 -0.7043
 6839TIP3    H142008   2.326   6.633   2.661  0.5619 -1.5364 -0.0396
 6839TIP3    H242009   2.441   6.641   2.562  0.1093 -3.1164 -0.7402
 6840TIP3   OH242010   4.360   4.101  15.115 -0.5961  0.9905  0.6341
 6840TIP3    H142011   4.299   4.093  15.188 -0.7078  0.7966  0.5215
 6840TIP3    H242012   4.348   4.020  15.064 -0.3857  1.0381  0.5048
 6841TIP3   OH242013   3.588   0.524  15.560 -0.8849  1.1341 -0.2652
 6841TIP3    H142014   3.541   0.458  15.610 -1.0807  0.6692 -1.0489
 6841TIP3    H242015   3.662   0.478  15.521  0.7887  2.0330  1.6529
 6842TIP3   OH242016   3.423   0.233  11.746  0.2435 -0.3549 -0.0465
 6842TIP3    H142017   3.355   0.294  11.774 -1.6095 -2.2606 -0.1195
 6842TIP3    H242018   3.419   0.235  11.650 -2.4482 -3.1350 -0.1449
 6843TIP3   OH242019   1.163   3.108  11.854  0.4317  0.3698 -0.6209
 6843TIP3    H142020   1.068   3.115  11.845 -0.1793 -2.8045  1.7186
 6843TIP3    H242021   1.193   3.071  11.771 -0.7320 -0.7652 -0.5587
 6844TIP3   OH242022   5.524   2.046   5.566 -0.2696 -0.2213 -0.6625
 6844TIP3    H142023   5.494   2.028   5.655  0.1065  1.2053 -0.2130
 6844TIP3    H242024   5.457   2.105   5.530  1.6242  2.7130  0.2263
 6845TIP3   OH242025   0.826   4.048   2.660  0.1395  0.0706  0.2260
 6845TIP3    H142026   0.783   3.970   2.693  1.2223 -1.0440 -0.8987
 6845TIP3    H242027   0.918   4.039   2.687  0.8631 -0.4296 -2.1809
 6846TIP3   OH242028   6.556   0.072   4.226  0.6008 -0.3273 -0.0309
 6846TIP3    H142029   6.612   0.002   4.193  0.1913 -0.4276 -0.5212
 6846TIP3    H242030   6.595   0.152   4.192  0.6391 -0.3724 -0.0930
 6847TIP3   OH242031   2.744   2.524  11.927  0.3589 -0.3229 -0.1062
 6847TIP3    H142032   2.835   2.548  11.911  0.3870 -0.9307 -0.9421
 6847TIP3    H242033   2.706   2.513  11.840 -0.8407  1.0631  0.1903
 6848TIP3   OH242034   5.463   5.264   4.551  0.8972  0.1202 -0.2421
 6848TIP3    H142035   5.396   5.240   4.487  0.9504 -1.0186  0.0989
 6848TIP3    H242036   5.501   5.180   4.577  0.9654  0.5700  1.1798
 6849TIP3   OH242037   1.662   6.585  16.337  0.4351 -0.2076 -0.3722
 6849TIP3    H142038   1.718   6.507  16.341  1.1134  0.1855 -1.5025
 6849TIP3    H242039   1.604   6.577  16.412  0.0292 -2.1624 -0.8330
 6850TIP3   OH242040   3.469   4.181   4.782  0.4388  0.1899 -0.5681
 6850TIP3    H142041   3.390   4.220   4.745  0.2440 -0.3480 -0.7331
 6850TIP3    H242042   3.487   4.231   4.861 -0.4204 -0.0720 -0.1983
 6851TIP3   OH242043   2.711   3.894   1.837  0.1250  0.0171 -0.7300
 6851TIP3    H142044   2.693   3.805   1.806 -2.2463 -0.0126  0.4796
 6851TIP3    H242045   2.712   3.948   1.758 -2.5922 -0.5065 -1.1975
 6852TIP3   OH242046   6.567   0.790  14.512  0.5360  0.3424 -0.2464
 6852TIP3    H142047   6.521   0.710  14.485 -2.2111  1.7478 -0.1574
 6852TIP3    H242048   6.592   0.832  14.430 -1.1980  1.0374 -0.4652
 6853TIP3   OH242049   3.477   1.330   3.204 -0.0643 -0.2419 -0.0792
 6853TIP3    H142050   3.519   1.322   3.289  0.6708  0.1740 -0.3949
 6853TIP3    H242051   3.533   1.280   3.145 -0.6158 -0.6002 -0.3044
 6854TIP3   OH242052   0.674   1.751  14.484  0.2199  0.5932 -0.2902
 6854TIP3    H142053   0.705   1.664  14.510  0.4326  0.8376  0.3066
 6854TIP3    H242054   0.591   1.735  14.439  0.2604  0.0800 -0.1852
 6855TIP3   OH242055   3.465   0.441   5.579 -0.2508 -0.0379  0.1022
 6855TIP3    H142056   3.412   0.411   5.653 -0.9717  0.1771 -0.3176
 6855TIP3    H242057   3.449   0.535   5.575 -0.1256 -0.0324 -0.2576
 6856TIP3   OH242058   2.006   1.233   2.152 -0.2622 -0.4904 -0.1345
 6856TIP3    H142059   1.984   1.141   2.136  0.3759 -0.3793 -1.8298
 6856TIP3    H242060   2.056   1.260   2.075  0.3102  1.0469  0.7268
 6857TIP3   OH242061   2.049   3.764   0.674 -0.0385  0.4282 -0.0337
 6857TIP3    H142062   2.074   3.748   0.765 -3.5242 -0.6308  0.8681
 6857TIP3    H242063   2.054   3.860   0.665  0.7679  0.5138  1.1112
 6858TIP3   OH242064   4.207   0.215   1.056  0.3025 -0.1543  0.0433
 6858TIP3    H142065   4.189   0.198   1.149 -0.1584  1.9332  0.3843
 6858TIP3    H242066   4.180   0.135   1.011 -0.2073 -0.9091  1.6278
 6859TIP3   OH242067   1.633   2.844   0.975  0.9045  0.4817 -0.7632
 6859TIP3    H142068   1.554   2.889   1.004 -0.5534 -1.8216 -0.8407
 6859TIP3    H242069   1.603   2.788   0.903  1.7876 -2.8091  1.1752
 6860TIP3   OH242070   4.604   2.937   1.140  0.0651  0.1675  0.2330
 6860TIP3    H142071   4.634   2.853   1.176 -0.4137  0.7296  2.0333
 6860TIP3    H242072   4.522   2.915   1.095  0.6182 -0.5405 -0.4615
 6861TIP3   OH242073   1.208   6.473  13.115  0.7422  0.3768  0.1496
 6861TIP3    H142074   1.192   6.536  13.045  1.0449  0.8276  0.4854
 6861TIP3    H242075   1.303   6.467  13.120  0.7164 -0.3614 -0.1040
 6862TIP3   OH242076   3.542   1.309  12.308  0.2009  0.0855 -0.2237
 6862TIP3    H142077   3.619   1.363  12.326  0.5788 -1.1502  2.3031
 6862TIP3    H242078   3.467   1.364  12.333  0.0225  1.6532 -3.5712
 6863TIP3   OH242079   1.997   2.628   3.659  0.1027 -0.5254 -0.5076
 6863TIP3    H142080   2.014   2.539   3.689 -2.3576 -1.0861 -0.5208
 6863TIP3    H242081   2.079   2.657   3.620  0.6994 -3.1301 -1.3751
 6864TIP3   OH242082   4.923   2.389  13.473 -0.4911 -0.2220  0.2554
 6864TIP3    H142083   4.914   2.327  13.545  2.5156  2.3267  3.1084
 6864TIP3    H242084   4.968   2.339  13.404 -0.6300 -1.9140  1.3384
 6865TIP3   OH242085   1.275   2.575   0.075 -0.0790  0.0199  0.1106
 6865TIP3    H142086   1.203   2.513   0.063  0.1138 -0.2521  0.3342
 6865TIP3    H242087   1.288   2.614  -0.011  0.6859 -1.2243 -0.3726
 6866TIP3   OH242088   3.145   6.762  16.607  0.9056 -0.1404 -0.8942
 6866TIP3    H142089   3.139   6.703  16.681  1.8426  1.4168  0.4803
 6866TIP3    H242090   3.195   6.714  16.541 -0.0457 -1.5785 -0.6009
 6867TIP3   OH242091   1.717   6.318   1.808 -0.1462  0.0976  0.5623
 6867TIP3    H142092   1.686   6.376   1.738  0.5804 -1.2852 -0.9599
 6867TIP3    H242093   1.808   6.343   1.822 -0.1758  0.1058  0.7498
 6868TIP3   OH242094   4.466   0.109   3.356 -0.0634  0.2313 -0.1666
 6868TIP3    H142095   4.446   0.025   3.315 -1.1492 -0.2094  1.1812
 6868TIP3    H242096   4.450   0.095   3.449  3.0271  0.9909  0.5890
 6869TIP3   OH242097   1.913   2.799   0.992 -0.4124  0.2998  0.0781
 6869TIP3    H142098   1.825   2.830   1.011  0.4518  2.0944  1.4462
 6869TIP3    H242099   1.959   2.804   1.076  1.2356  0.2081 -0.7681
 6870TIP3   OH242100   4.138   6.671   3.673  0.2573 -0.2582  0.3927
 6870TIP3    H142101   4.104   6.657   3.585  0.6532 -0.4007  0.2615
 6870TIP3    H242102   4.230   6.647   3.668  1.4953  3.7870 -0.3042
 6871TIP3   OH242103   1.237   2.587  12.443 -0.0744  0.2371 -0.6887
 6871TIP3    H142104   1.213   2.643  12.369  1.6440 -0.3678 -1.7433
 6871TIP3    H242105   1.330   2.570  12.432 -0.0148 -0.8001  1.0040
 6872TIP3   OH242106   2.146   6.427  12.561 -0.3554  0.7884  0.1913
 6872TIP3    H142107   2.217   6.489  12.545 -1.3227  2.1717  1.0108
 6872TIP3    H242108   2.066   6.479  12.551 -1.1963 -0.3014  1.0063
 6873TIP3   OH242109   3.412   5.700  14.424  0.4031 -0.4813  0.0565
 6873TIP3    H142110   3.480   5.677  14.361 -0.7336 -0.0906 -1.3613
 6873TIP3    H242111   3.342   5.637  14.407 -0.9658  1.2209 -0.8951
 6874TIP3   OH242112   0.511   2.283   1.666  0.0237  0.3672  0.3318
 6874TIP3    H142113   0.421   2.311   1.683  0.1430  0.8530  0.1712
 6874TIP3    H242114   0.540   2.244   1.749 -0.0629  0.9448  0.6390
 6875TIP3   OH242115   6.192   0.381   1.300 -0.0609  0.1814  0.0434
 6875TIP3    H142116   6.267   0.422   1.343  0.6750  1.3961 -2.2885
 6875TIP3    H242117   6.145   0.338   1.372  1.7467  1.0686  1.8665
 6876TIP3   OH242118   0.595   3.964  14.534 -0.0663  0.2584  0.7528
 6876TIP3    H142119   0.552   4.041  14.494  0.6724  0.6396  0.6795
 6876TIP3    H242120   0.531   3.893  14.522 -0.6548  0.7998  0.5937
 6877TIP3   OH242121   5.721   4.325   3.023  0.2396 -0.4754 -0.0536
 6877TIP3    H142122   5.674   4.283   2.951  1.3816  0.5001 -1.4203
 6877TIP3    H242123   5.762   4.402   2.983 -0.8325  1.3211  2.1026
 6878TIP3   OH242124   2.805   3.490   3.769  0.2757 -0.3778 -0.3148
 6878TIP3    H142125   2.887   3.525   3.735 -0.0065 -0.0799 -0.7036
 6878TIP3    H242126   2.738   3.524   3.709 -0.2086 -0.0584  0.3912
 6879TIP3   OH242127   2.825   1.718  15.376 -0.4761  0.2709  0.2264
 6879TIP3    H142128   2.902   1.698  15.430 -0.0142  1.1850 -0.0720
 6879TIP3    H242129   2.789   1.798  15.415 -1.0136  0.0996  0.0874
 6880TIP3   OH242130   5.564   6.400   0.124 -0.0787  0.7744 -0.1678
 6880TIP3    H142131   5.497   6.461   0.094  0.9406  1.1902 -1.7066
 6880TIP3    H242132   5.647   6.443   0.104  0.8050  1.2867  3.6563
 6881TIP3   OH242133   1.306   5.851   0.748  0.4402 -0.4841  0.5587
 6881TIP3    H142134   1.395   5.842   0.781  0.7240 -0.6679 -0.2355
 6881TIP3    H242135   1.259   5.775   0.783  0.5480 -0.3043  1.1035
 6882TIP3   OH242136   1.692   4.145   5.619 -0.1062 -0.1159  0.0310
 6882TIP3    H142137   1.643   4.208   5.566  0.5675  0.1636 -0.2702
 6882TIP3    H242138   1.745   4.199   5.677 -1.0656 -0.4165  1.2332
 6883TIP3   OH242139   6.411   2.236  11.342 -0.0013  0.2167  0.0326
 6883TIP3    H142140   6.344   2.304  11.334 -0.0533 -0.0083 -1.8546
 6883TIP3    H242141   6.492   2.284  11.360  0.0882  0.8951 -1.9300
 6884TIP3   OH242142   0.696   2.233   4.902  0.2677  0.3738 -0.5705
 6884TIP3    H142143   0.711   2.139   4.916 -1.7704  0.2382  1.3295
 6884TIP3    H242144   0.738   2.252   4.818  0.5648 -2.2851 -1.1205
 6885TIP3   OH242145   2.694   0.253   0.196 -0.5019 -0.2042 -0.1534
 6885TIP3    H142146   2.686   0.342   0.162 -0.7914  1.5679  4.0436
 6885TIP3    H242147   2.606   0.230   0.225 -0.5336 -2.1505 -1.5727
 6886TIP3   OH242148   3.314   3.285   5.454  0.2342 -0.9206 -0.0221
 6886TIP3    H142149   3.286   3.272   5.363 -1.3406  0.4270  0.2112
 6886TIP3    H242150   3.359   3.370   5.452 -0.2451 -0.6481  0.5242
 6887TIP3   OH242151   3.853   5.794  15.437 -0.1157  0.3959 -0.1053
 6887TIP3    H142152   3.882   5.748  15.516 -0.4034 -0.7200 -0.6389
 6887TIP3    H242153   3.934   5.831  15.400  0.1199  0.2887  0.3008
 6888TIP3   OH242154   3.836   4.808   4.624  0.2326 -0.1838 -1.2237
 6888TIP3    H142155   3.784   4.735   4.590 -2.0970  0.1313  1.3021
 6888TIP3    H242156   3.872   4.775   4.706 -0.4914  1.3118 -0.2614
 6889TIP3   OH242157   4.814   3.712   5.826 -0.4158 -0.1181  0.3550
 6889TIP3    H142158   4.811   3.617   5.827 -0.1664 -0.1263  0.2802
 6889TIP3    H242159   4.797   3.738   5.917 -1.6222 -0.1977  0.1764
 6890TIP3   OH242160   3.306   6.692  13.330  0.4848 -0.1381  0.2428
 6890TIP3    H142161   3.227   6.686  13.384  0.5493 -2.2818  0.1810
 6890TIP3    H242162   3.378   6.699  13.393  0.3444  0.8321  0.3163
 6891TIP3   OH242163   4.263   2.532   4.125  0.1780  0.1679 -0.0104
 6891TIP3    H142164   4.184   2.489   4.157  0.5332  0.2686  1.0658
 6891TIP3    H242165   4.267   2.615   4.173  0.6562  0.4061 -0.4423
 6892TIP3   OH242166   2.738   4.547  16.755 -0.0037  0.1486 -0.2754
 6892TIP3    H142167   2.652   4.525  16.792 -0.0870  1.1400  0.1514
 6892TIP3    H242168   2.744   4.642  16.763  0.1658  0.3580 -2.4642
 6893TIP3   OH242169   1.274   1.799   5.569 -0.1484 -0.1988 -0.1440
 6893TIP3    H142170   1.224   1.762   5.642  0.0613  1.3891  0.8550
 6893TIP3    H242171   1.302   1.885   5.600 -0.7011  0.8663 -2.4083
 6894TIP3   OH242172   3.670   5.443  15.640 -0.1117 -0.8916 -0.5178
 6894TIP3    H142173   3.601   5.491  15.596 -1.1563 -0.7377  1.1862
 6894TIP3    H242174   3.638   5.353  15.644  0.0771 -0.9513 -0.2917
 6895TIP3   OH242175   1.730   1.748  11.985  0.3795 -0.5800  0.1709
 6895TIP3    H142176   1.684   1.774  11.906 -1.6488 -1.4478  0.9876
 6895TIP3    H242177   1.691   1.664  12.009  1.4553 -0.6915  1.6907
 6896TIP3   OH242178   1.647   2.983   3.781  0.1748 -0.0574 -0.3430
 6896TIP3    H142179   1.614   2.931   3.708 -1.9748  0.1857  0.3816
 6896TIP3    H242180   1.613   2.939   3.859  1.2506  0.4682  0.4394
 6897TIP3   OH242181   5.178   4.788  13.404 -0.0287  0.3215 -0.1421
 6897TIP3    H142182   5.165   4.707  13.454  1.4580 -0.7207 -1.3269
 6897TIP3    H242183   5.160   4.763  13.313  2.1384  0.8180 -0.7627
 6898TIP3   OH242184   4.415   4.883  14.551  0.4996  0.6553 -0.0718
 6898TIP3    H142185   4.338   4.921  14.593 -0.5596 -0.2077 -1.1756
 6898TIP3    H242186   4.473   4.861  14.624  0.3127  2.5577  0.6941
 6899TIP3   OH242187   6.573   4.415  14.137  0.9465 -0.1104 -0.1397
 6899TIP3    H142188   6.542   4.481  14.199  1.0589  0.3267 -0.5469
 6899TIP3    H242189   6.590   4.463  14.057  0.8751 -0.6640 -0.4923
 6900TIP3   OH242190   0.370   5.959  12.879 -0.0229  0.3406 -0.1425
 6900TIP3    H142191   0.357   6.015  12.955  0.5469  0.0914  0.1425
 6900TIP3    H242192   0.329   5.876  12.902  0.4376  0.1580  0.0251
 6901TIP3   OH242193   2.570   0.441   5.271 -0.7914  0.2293  0.1674
 6901TIP3    H142194   2.630   0.374   5.238 -0.4475  0.1064  1.0033
 6901TIP3    H242195   2.483   0.402   5.263 -0.5022 -0.8498  1.8018
 6902TIP3   OH242196   6.528   6.321  15.512 -0.8238  0.0627  0.2118
 6902TIP3    H142197   6.472   6.273  15.573 -1.1007 -0.9028 -0.7668
 6902TIP3    H242198   6.504   6.412  15.525 -1.3366 -0.1777  1.0773
 6903TIP3   OH242199   0.404   3.914  14.832 -0.4077  0.1295  0.6420
 6903TIP3    H142200   0.390   4.009  14.825 -0.1334  0.3650  2.6617
 6903TIP3    H242201   0.325   3.881  14.873 -1.2010 -0.8095 -1.5382
 6904TIP3   OH242202   4.784   2.862  12.614 -0.0539 -0.0326 -0.5925
 6904TIP3    H142203   4.777   2.894  12.524 -1.5098  0.0632 -0.4789
 6904TIP3    H242204   4.757   2.936  12.668  0.9927 -0.0302 -0.0606
 6905TIP3   OH242205   3.990   6.202   5.621 -0.0856 -0.7106 -0.3056
 6905TIP3    H142206   3.989   6.111   5.650 -0.7021 -0.8124 -0.6340
 6905TIP3    H242207   3.951   6.250   5.694 -0.1729 -0.7618 -0.3185
 6906TIP3   OH242208   4.569   4.013   1.614  0.4811  0.2065 -0.1695
 6906TIP3    H142209   4.566   4.101   1.575  1.2009  0.3581  0.0979
 6906TIP3    H242210   4.621   3.962   1.552  0.6326  0.1454  0.0066
 6907TIP3   OH242211   0.981   4.979   2.692 -0.0844  0.6004  0.5008
 6907TIP3    H142212   0.960   4.980   2.599 -2.0666 -0.2279  0.8850
 6907TIP3    H242213   1.035   4.901   2.704 -2.0311 -0.8290  0.4139
 6908TIP3   OH242214   3.977   2.703  17.135  0.0992  0.5593  0.1104
 6908TIP3    H142215   3.921   2.681  17.061  0.7415 -0.4021 -0.1120
 6908TIP3    H242216   3.916   2.720  17.207 -0.5478  2.0668 -0.7639
 6909TIP3   OH242217   0.131   2.652   3.471 -0.5473  0.2393  0.2069
 6909TIP3    H142218   0.116   2.746   3.477 -1.2797  0.1697 -0.3849
 6909TIP3    H242219   0.064   2.613   3.528  0.2643  0.0951  1.0953
 6910TIP3   OH242220   1.622   3.375  16.603 -0.6219 -1.1709  0.0755
 6910TIP3    H142221   1.545   3.400  16.653  0.9115  0.2962  1.8453
 6910TIP3    H242222   1.656   3.457  16.568  0.4032 -1.7272 -0.2941
 6911TIP3   OH242223   2.291   1.001  14.154  0.4967 -0.5723  0.0587
 6911TIP3    H142224   2.336   0.919  14.169  0.6172 -0.8828 -1.7892
 6911TIP3    H242225   2.328   1.062  14.219 -1.1804 -2.4448  3.0328
 6912TIP3   OH242226   6.708   1.311  15.072  0.1225 -0.6523 -0.4522
 6912TIP3    H142227   6.743   1.353  15.150  0.7379 -0.8103 -0.6439
 6912TIP3    H242228   6.616   1.294  15.093  0.3689 -1.0007  0.3665
 6913TIP3   OH242229   6.657   5.263  11.973  0.3283  0.0014 -0.0806
 6913TIP3    H142230   6.704   5.346  11.968  0.8267 -0.0400  2.6964
 6913TIP3    H242231   6.698   5.209  11.905  4.0331  0.1671  1.7758
 6914TIP3   OH242232   2.549   4.401   2.825 -0.6144 -0.1306  0.1560
 6914TIP3    H142233   2.526   4.474   2.883 -2.0891 -0.2979 -0.1721
 6914TIP3    H242234   2.567   4.442   2.741 -2.0861 -0.1655 -0.2011
 6915TIP3   OH242235   2.310   6.011  16.186  0.2342 -0.0684 -0.3393
 6915TIP3    H142236   2.393   6.048  16.155  1.1773 -3.3233 -2.0688
 6915TIP3    H242237   2.297   5.932  16.134 -3.3425 -0.4236  0.7930
 6916TIP3   OH242238   3.753   3.959  13.854 -0.2245 -0.4321  0.7484
 6916TIP3    H142239   3.784   4.010  13.780  0.0316  0.0328  1.1648
 6916TIP3    H242240   3.708   4.024  13.910  2.1941 -0.1226  2.4986
 6917TIP3   OH242241   3.400   0.958   3.008  0.3158 -1.0705 -0.0908
 6917TIP3    H142242   3.371   1.048   3.023 -1.0513 -0.8213 -3.5122
 6917TIP3    H242243   3.320   0.905   3.019  0.3571 -1.4208 -1.3829
 6918TIP3   OH242244   3.718   4.884  11.924 -0.0304 -0.1792 -0.2235
 6918TIP3    H142245   3.797   4.835  11.903  0.3471  0.0558  0.6036
 6918TIP3    H242246   3.707   4.945  11.851  1.0227  0.3594  0.0491
 6919TIP3   OH242247   5.145   3.552   5.287 -0.0357 -0.3624 -1.0594
 6919TIP3    H142248   5.157   3.521   5.197  1.8673 -0.3543 -0.8514
 6919TIP3    H242249   5.056   3.584   5.289  0.1713  0.5373 -3.2377
 6920TIP3   OH242250   5.999   1.929   5.458 -0.2599 -0.2645 -0.3270
 6920TIP3    H142251   6.075   1.975   5.495  0.3341 -0.9559 -0.6623
 6920TIP3    H242252   5.925   1.988   5.473  0.2502  0.1785  0.4972
 6921TIP3   OH242253   4.322   5.212  11.372 -0.3169 -0.3242  0.1974
 6921TIP3    H142254   4.260   5.260  11.428  0.8024 -0.1586  1.3386
 6921TIP3    H242255   4.352   5.277  11.309  0.7599  0.3733  1.3810
 6922TIP3   OH242256   3.278   3.269   4.607 -0.0175  0.5691  0.3016
 6922TIP3    H142257   3.269   3.175   4.595  2.0753  0.5417 -1.8228
 6922TIP3    H242258   3.255   3.306   4.522  0.3773  1.8632  0.7335
 6923TIP3   OH242259   3.791   5.834  16.682  0.4612  0.0126 -0.6494
 6923TIP3    H142260   3.848   5.799  16.751  0.8448  3.8268  1.1992
 6923TIP3    H242261   3.702   5.821  16.715  0.5228 -0.3526 -0.6191
 6924TIP3   OH242262   2.360   6.226  12.428  0.4545 -0.0853  0.2832
 6924TIP3    H142263   2.447   6.265  12.437 -0.5308  1.8141  2.3440
 6924TIP3    H242264   2.325   6.224  12.516 -1.1039 -2.1517 -0.3045
 6925TIP3   OH242265   0.814   4.137  15.793 -0.1943 -0.0332  0.6389
 6925TIP3    H142266   0.781   4.093  15.872 -0.8732 -1.1609 -0.2332
 6925TIP3    H242267   0.735   4.165  15.746  0.2048  0.7175  0.4008
 6926TIP3   OH242268   2.802   2.652  15.828  0.4016 -0.1335  0.1201
 6926TIP3    H142269   2.726   2.661  15.885  0.9548 -0.5254  0.9362
 6926TIP3    H242270   2.875   2.689  15.878  1.1025 -1.4586  0.1188
 6927TIP3   OH242271   6.030   3.183  12.971  0.2907  0.2739  0.1552
 6927TIP3    H142272   5.935   3.179  12.969  0.3149 -0.9379  0.5598
 6927TIP3    H242273   6.050   3.243  13.044 -0.1798 -1.5455  1.8628
 6928TIP3   OH242274   4.200   2.903   4.197  0.2439  0.1149  0.9006
 6928TIP3    H142275   4.183   2.886   4.104  1.9595  1.2349  0.3308
 6928TIP3    H242276   4.128   2.959   4.225 -0.9360 -1.1988  0.6013
 6929TIP3   OH242277   1.846   0.609  12.111 -0.1858 -0.1339  0.1787
 6929TIP3    H142278   1.875   0.620  12.020  1.9095  1.8646  0.9747
 6929TIP3    H242279   1.888   0.528  12.140  0.3518 -0.0014 -0.2151
 6930TIP3   OH242280   4.430   4.184  13.644 -0.4506  0.4278  0.0821
 6930TIP3    H142281   4.459   4.105  13.691  0.8526  0.5792 -0.4073
 6930TIP3    H242282   4.487   4.254  13.676 -0.0612  0.6943 -1.1031
 6931TIP3   OH242283   0.630   6.562  14.665 -0.1194  0.0734  0.4503
 6931TIP3    H142284   0.620   6.568  14.760  1.6959  0.2751  0.6586
 6931TIP3    H242285   0.585   6.639  14.631  0.3101  0.6801  1.2435
 6932TIP3   OH242286   3.064   3.610   4.884 -0.1474 -0.2322  0.3195
 6932TIP3    H142287   3.134   3.560   4.842 -1.8058 -2.1512 -0.3228
 6932TIP3    H242288   3.071   3.588   4.977  0.4368  0.0655  0.3540
 6933TIP3   OH242289   4.065   1.783   5.906 -0.5824 -0.1928 -0.0528
 6933TIP3    H142290   4.069   1.877   5.922  0.1896 -0.4919  1.7980
 6933TIP3    H242291   3.977   1.768   5.873 -0.6857  1.1793 -0.4597
 6934TIP3   OH242292   2.060   1.957   3.883  0.8178  0.2779 -0.4565
 6934TIP3    H142293   2.152   1.971   3.906  0.3895  0.7837  1.0296
 6934TIP3    H242294   2.011   2.002   3.951 -0.5456  0.8721 -1.7685
 6935TIP3   OH242295   3.627   0.562  12.476  0.1537  0.0421 -0.0432
 6935TIP3    H142296   3.637   0.641  12.423  0.7670  0.1997  0.3008
 6935TIP3    H242297   3.587   0.592  12.557  0.7951  0.0743  0.2652
 6936TIP3   OH242298   3.721   5.397   1.281 -0.9404  0.1508  0.0068
 6936TIP3    H142299   3.639   5.373   1.326 -0.7998  1.0205  0.7669
 6936TIP3    H242300   3.708   5.369   1.191 -1.0437 -2.1403  0.6492
 6937TIP3   OH242301   1.417   0.395  15.715  0.0225 -0.2615 -0.4365
 6937TIP3    H142302   1.490   0.344  15.752 -0.0261 -0.0686 -0.0747
 6937TIP3    H242303   1.339   0.343  15.736  0.0568 -0.4784 -0.8434
 6938TIP3   OH242304   4.822   1.797  15.513 -0.2237  0.2028 -0.2507
 6938TIP3    H142305   4.906   1.753  15.499 -0.9332 -2.0051  1.7831
 6938TIP3    H242306   4.779   1.795  15.427  0.6689 -1.1961 -0.6934
 6939TIP3   OH242307   6.329   4.771  16.562 -0.3763 -0.7850  0.1122
 6939TIP3    H142308   6.282   4.811  16.635  0.2665 -0.6219  0.4458
 6939TIP3    H242309   6.313   4.830  16.488  0.2267 -0.1209  0.4989
 6940TIP3   OH242310   5.785   0.462  13.895 -0.1321  0.3662 -0.0914
 6940TIP3    H142311   5.823   0.385  13.853 -1.1680  0.3887 -1.0965
 6940TIP3    H242312   5.815   0.536  13.843  0.0984  0.5682  0.3204
 6941TIP3   OH242313   0.701   5.120   1.790 -0.1419  0.4362 -0.2013
 6941TIP3    H142314   0.743   5.034   1.786  0.6489  0.8499 -1.0499
 6941TIP3    H242315   0.773   5.182   1.800 -0.3029  1.3329 -3.5720
 6942TIP3   OH242316   6.400   2.283   4.085  0.4865 -0.3342  0.2469
 6942TIP3    H142317   6.360   2.243   4.007 -1.2891  0.2403  0.8188
 6942TIP3    H242318   6.397   2.377   4.068  1.9471 -0.2719  0.1832
 6943TIP3   OH242319   1.338   4.085   1.371  0.7126 -0.1410  0.3330
 6943TIP3    H142320   1.297   4.012   1.325 -0.1205  1.3858 -1.5179
 6943TIP3    H242321   1.345   4.055   1.462 -1.4918 -1.7577  0.0710
 6944TIP3   OH242322   3.143   2.387  12.904  0.0828 -0.3220  0.0586
 6944TIP3    H142323   3.187   2.367  12.821  0.1837 -1.4787  0.3634
 6944TIP3    H242324   3.144   2.304  12.951 -2.1586 -0.3255  0.2057
 6945TIP3   OH242325   4.794   6.283   4.980  0.1941 -0.7993 -0.3221
 6945TIP3    H142326   4.831   6.243   4.902 -0.5424  1.3354 -1.8587
 6945TIP3    H242327   4.864   6.339   5.014 -0.2392  0.0870 -0.8557
 6946TIP3   OH242328   5.996   4.086  15.895 -0.4162  0.0215 -0.5060
 6946TIP3    H142329   5.924   4.115  15.953  1.0630  0.4271  1.2214
 6946TIP3    H242330   6.054   4.037  15.953  0.9805  0.1672 -1.7481
 6947TIP3   OH242331   5.541   5.467   4.726  0.5516  0.1920 -0.0992
 6947TIP3    H142332   5.561   5.382   4.686  0.2687  1.0017 -2.0761
 6947TIP3    H242333   5.517   5.446   4.817  0.8895 -1.7793 -0.4201
 6948TIP3   OH242334   4.722   0.954  15.731  0.4581  0.0683 -0.0384
 6948TIP3    H142335   4.796   0.909  15.770  0.3062 -0.3773 -0.2591
 6948TIP3    H242336   4.672   0.988  15.805  0.5598 -0.1428  0.1257
 6949TIP3   OH242337   2.032   3.321  12.595 -0.2568 -0.0512  0.3589
 6949TIP3    H142338   2.084   3.365  12.662 -0.2076  1.6001 -0.7072
 6949TIP3    H242339   2.065   3.231  12.594  1.8706  0.6780  0.4439
 6950TIP3   OH242340   4.909   5.619   4.226 -0.1312 -0.2596 -0.0881
 6950TIP3    H142341   4.864   5.629   4.310 -0.1188  0.2082 -0.1304
 6950TIP3    H242342   4.857   5.555   4.178  0.7556 -1.7515  0.8817
 6951TIP3   OH242343   2.484   2.941   1.255  0.5654  0.0778 -0.3829
 6951TIP3    H142344   2.501   2.892   1.174  0.5275  0.1316 -0.4236
 6951TIP3    H242345   2.571   2.962   1.289  0.6175 -1.3149  0.4267
 6952TIP3   OH242346   4.513   4.501  16.731  0.1295 -0.1283  0.2290
 6952TIP3    H142347   4.596   4.453  16.722  0.1794 -0.0817  0.4279
 6952TIP3    H242348   4.540   4.591  16.752  0.0168 -0.3223  1.2417
 6953TIP3   OH242349   1.959   1.928  11.456  0.2036  0.6059  0.2700
 6953TIP3    H142350   1.950   1.841  11.495 -0.5003  0.6349  0.1954
 6953TIP3    H242351   1.945   1.913  11.362  1.2870  0.6263  0.0917
 6954TIP3   OH242352   3.014   3.724   1.476  0.5882  0.5400 -0.1884
 6954TIP3    H142353   3.081   3.657   1.487  2.1886  2.3342  1.7298
 6954TIP3    H242354   2.946   3.681   1.424  2.5269 -1.8196 -0.9618
 6955TIP3   OH242355   0.664   4.860  13.170 -0.3111  0.0671  0.0594
 6955TIP3    H142356   0.707   4.935  13.130  0.8328  0.5824  2.0990
 6955TIP3    H242357   0.582   4.894  13.204  0.0081  0.3071  0.6000
 6956TIP3   OH242358   3.675   1.427   5.467 -0.3263 -0.1800  0.4741
 6956TIP3    H142359   3.625   1.375   5.529  1.2259 -0.8909  1.1953
 6956TIP3    H242360   3.711   1.362   5.405 -0.0185  0.2601  0.1815
 6957TIP3   OH242361   1.572   1.803  11.767  0.3672 -0.1612 -0.1197
 6957TIP3    H142362   1.495   1.807  11.824  1.3856  2.6623  1.2743
 6957TIP3    H242363   1.542   1.757  11.689 -2.0216 -1.3065  1.3603
 6958TIP3   OH242364   4.952   4.799  15.214  0.0018 -0.2656  0.3360
 6958TIP3    H142365   4.983   4.881  15.252 -0.3626  0.7665 -1.5371
 6958TIP3    H242366   4.862   4.816  15.188  0.2221 -0.9607 -0.9447
 6959TIP3   OH242367   3.046   2.632   5.299  0.2021 -0.0238  0.5104
 6959TIP3    H142368   3.015   2.601   5.214  0.5739 -0.9734  0.7064
 6959TIP3    H242369   3.141   2.644   5.288 -0.0214  1.8591  0.2133
 6960TIP3   OH242370   0.301   5.526   1.831  0.1157 -0.0618  0.0026
 6960TIP3    H142371   0.304   5.613   1.872 -1.1051  0.3398 -0.7182
 6960TIP3    H242372   0.298   5.465   1.904 -4.0088  0.6971  0.6920
 6961TIP3   OH242373   6.454   4.275   0.528 -0.3074  0.0908 -0.2109
 6961TIP3    H142374   6.358   4.282   0.528 -0.3541 -0.4665  0.2971
 6961TIP3    H242375   6.471   4.190   0.488 -0.1835 -1.3378  2.6309
 6962TIP3   OH242376   1.223   4.138  14.591  0.1030  0.4488  0.1437
 6962TIP3    H142377   1.277   4.217  14.583  2.1005 -0.8357  0.2216
 6962TIP3    H242378   1.176   4.133  14.508  1.4591  0.7127 -0.6896
 6963TIP3   OH242379   1.756   5.672  12.776  0.1656  0.2697 -0.1942
 6963TIP3    H142380   1.725   5.639  12.691 -1.1902  0.9519  0.0038
 6963TIP3    H242381   1.692   5.638  12.839  0.3019  1.0256  0.3539
 6964TIP3   OH242382   0.103   6.092  13.053  0.3841 -0.3784 -0.0134
 6964TIP3    H142383   0.029   6.040  13.085  0.6404 -0.3301  0.6714
 6964TIP3    H242384   0.077   6.119  12.965  0.1062 -1.3944 -0.2593
 6965TIP3   OH242385   3.381   1.398   1.268 -0.1842 -0.0814  0.4430
 6965TIP3    H142386   3.302   1.379   1.319  0.6925  0.5152  2.1172
 6965TIP3    H242387   3.451   1.403   1.334  1.0648  0.4451 -0.8712
 6966TIP3   OH242388   6.464   4.263  14.428 -0.0941 -0.7006 -0.2480
 6966TIP3    H142389   6.541   4.223  14.388  0.0919  0.5829 -1.2814
 6966TIP3    H242390   6.406   4.282  14.354 -0.8942 -0.6014  0.3882
 6967TIP3   OH242391   4.242   6.151   4.906  0.0182 -0.0234 -0.0146
 6967TIP3    H142392   4.287   6.229   4.938 -2.3091  1.1586  0.6027
 6967TIP3    H242393   4.272   6.081   4.963 -0.0145  0.9912  1.2997
 6968TIP3   OH242394   4.510   5.720   4.656 -0.1457  0.2355  0.2174
 6968TIP3    H142395   4.438   5.689   4.710 -0.2979 -3.2083 -1.6564
 6968TIP3    H242396   4.468   5.778   4.591 -0.3086  2.4226  2.1589
 6969TIP3   OH242397   0.309   4.431  11.489 -0.4379  0.4693  0.2317
 6969TIP3    H142398   0.398   4.430  11.524  1.0370 -0.8835 -3.1159
 6969TIP3    H242399   0.287   4.339  11.476 -1.2179  0.8568 -1.4205
 6970TIP3   OH242400   5.097   4.689  14.997 -0.0839  0.0477  0.0139
 6970TIP3    H142401   5.056   4.719  15.078  0.0494 -0.3511  0.2317
 6970TIP3    H242402   5.045   4.729  14.927  0.8294  1.8109  0.2890
 6971TIP3   OH242403   0.674   0.043  11.981 -0.7456 -0.0569 -0.0729
 6971TIP3    H142404   0.723   0.062  12.061 -0.8387 -0.7873  0.1649
 6971TIP3    H242405   0.605  -0.017  12.009 -0.2092 -1.0655 -0.8574
 6972TIP3   OH242406   4.863   6.289   2.988 -0.5996  0.3497 -0.4094
 6972TIP3    H142407   4.858   6.371   3.037 -0.1456  0.5172 -0.6413
 6972TIP3    H242408   4.925   6.236   3.038 -1.6157 -0.2321  0.2832
 6973TIP3   OH242409   0.396   0.092   3.577  0.3057  0.2195  0.1998
 6973TIP3    H142410   0.340   0.120   3.650  1.4031 -3.4113  2.7304
 6973TIP3    H242411   0.468   0.154   3.578  0.4180  0.1562  2.5029
 6974TIP3   OH242412   4.873   0.213   0.606 -0.0739 -0.2140  0.0439
 6974TIP3    H142413   4.823   0.252   0.678 -0.2365 -1.8156  0.8482
 6974TIP3    H242414   4.869   0.278   0.536 -0.2347  1.2325  1.3431
 6975TIP3   OH242415   5.130   4.401  13.313 -0.5447  0.2143 -0.1245
 6975TIP3    H142416   5.086   4.383  13.230 -0.2931  1.8060 -0.6393
 6975TIP3    H242417   5.204   4.339  13.315 -0.0764  0.6907 -1.4806
 6976TIP3   OH242418   3.745   1.044  16.137 -0.3731  0.2862  0.3324
 6976TIP3    H142419   3.800   1.121  16.153  0.2520 -0.0212 -0.2722
 6976TIP3    H242420   3.656   1.079  16.130 -0.2360  0.8153  1.1332
 6977TIP3   OH242421   5.861   2.050  11.234 -0.4183 -0.1141  0.3079
 6977TIP3    H142422   5.791   2.040  11.169 -1.8994 -0.1282  1.8506
 6977TIP3    H242423   5.827   2.007  11.312  1.0644  0.4384  1.2842
 6978TIP3   OH242424   5.011   4.416  16.197  0.0800  0.1923  0.6457
 6978TIP3    H142425   4.916   4.401  16.199 -0.3291  2.2748 -0.5902
 6978TIP3    H242426   5.038   4.393  16.108  1.1361 -2.0746  1.4536
 6979TIP3   OH242427   2.601   0.296  14.998 -0.1111  0.2827 -0.0142
 6979TIP3    H142428   2.600   0.217  15.052 -1.2289 -0.3840 -0.9579
 6979TIP3    H242429   2.664   0.277  14.929  1.3163  1.1336  1.0228
 6980TIP3   OH242430   6.643   4.783   2.066 -0.2396 -0.0121  0.0294
 6980TIP3    H142431   6.592   4.749   2.139  0.0362  0.0201  0.2382
 6980TIP3    H242432   6.723   4.730   2.065  0.2064  0.6381  0.3755
 6981TIP3   OH242433   3.937   0.730   0.766  0.0897 -0.1961  0.4269
 6981TIP3    H142434   3.908   0.685   0.846 -0.4879 -0.7924 -0.1102
 6981TIP3    H242435   3.889   0.812   0.766 -0.0330 -0.2670  0.6096
 6982TIP3   OH242436   2.878   4.682   2.597  1.0177  0.1678  0.0171
 6982TIP3    H142437   2.791   4.679   2.637  0.0793  0.7454 -1.8313
 6982TIP3    H242438   2.892   4.593   2.565  0.9215  0.1678 -0.0263
 6983TIP3   OH242439   5.229   3.481  15.886 -0.2966 -0.5379 -0.0738
 6983TIP3    H142440   5.272   3.397  15.874  0.5953  0.1070 -1.9231
 6983TIP3    H242441   5.236   3.499  15.980  2.0095 -1.2510 -0.0468
 6984TIP3   OH242442   6.233   1.828   1.401 -0.4717 -0.1058 -0.5436
 6984TIP3    H142443   6.298   1.889   1.367 -0.9956  0.0723 -1.2617
 6984TIP3    H242444   6.205   1.777   1.324 -2.4505  1.0124 -0.6508
 6985TIP3   OH242445   4.718   0.783  12.487 -0.8619 -0.7396 -0.0774
 6985TIP3    H142446   4.647   0.727  12.519 -0.3815 -1.5670 -0.4295
 6985TIP3    H242447   4.791   0.765  12.546 -0.1527 -1.8405 -1.2405
 6986TIP3   OH242448   6.140   3.422  15.032 -0.1330 -0.6759 -0.3217
 6986TIP3    H142449   6.094   3.397  14.952  0.3632 -0.8557 -0.5527
 6986TIP3    H242450   6.232   3.431  15.005 -0.0174 -0.4071  0.1535
 6987TIP3   OH242451   2.150   6.037   2.008 -0.3640  1.0253  0.0174
 6987TIP3    H142452   2.199   6.101   2.059 -1.6497  1.2749  0.9919
 6987TIP3    H242453   2.216   5.997   1.951  1.1287  0.7659  1.8246
 6988TIP3   OH242454   4.275   0.662  14.130  0.6390  0.2077 -0.1040
 6988TIP3    H142455   4.324   0.580  14.135  1.3290  0.6395  0.3023
 6988TIP3    H242456   4.341   0.730  14.122  0.1055  0.7847  0.2510
 6989TIP3   OH242457   5.335   6.713  14.856 -0.3083 -0.1584  0.5725
 6989TIP3    H142458   5.291   6.791  14.887 -0.3130 -0.0166  0.2191
 6989TIP3    H242459   5.284   6.640  14.891  0.1163 -0.0110  1.5055
 6990TIP3   OH242460   5.458   0.599   3.593 -0.3013  0.2618 -0.1449
 6990TIP3    H142461   5.374   0.553   3.583  0.3554 -0.9310 -0.3612
 6990TIP3    H242462   5.507   0.575   3.515  0.4328  0.5695  0.2152
 6991TIP3   OH242463   6.015   3.888  14.154  0.3931 -0.1248  0.1154
 6991TIP3    H142464   5.990   3.891  14.062  1.1323 -0.8728 -0.1234
 6991TIP3    H242465   5.997   3.798  14.181 -1.8658  0.6022  1.3309
 6992TIP3   OH242466   5.450   2.879   3.715  0.2212  0.0588 -0.0869
 6992TIP3    H142467   5.492   2.802   3.677 -0.8129 -0.2519 -0.6420
 6992TIP3    H242468   5.439   2.859   3.807 -0.7907 -0.8111 -0.3843
 6993TIP3   OH242469   4.871   4.571   5.171 -0.2771 -0.4087  0.4751
 6993TIP3    H142470   4.801   4.524   5.126 -0.5868 -0.3111  0.8480
 6993TIP3    H242471   4.886   4.520   5.251  1.2767 -1.4132 -0.4017
 6994TIP3   OH242472   0.301   2.367   4.404 -0.3818 -0.7070 -0.4230
 6994TIP3    H142473   0.223   2.419   4.384 -0.1424 -0.3295 -0.3832
 6994TIP3    H242474   0.367   2.432   4.429  0.8915 -0.7347 -3.3578
 6995TIP3   OH242475   0.139   2.205  14.668 -0.1665 -0.2033 -0.6840
 6995TIP3    H142476   0.062   2.262  14.672  0.2372  0.4737 -1.7941
 6995TIP3    H242477   0.193   2.244  14.599  0.6472 -1.3123 -0.7005
 6996TIP3   OH242478   1.735   0.291   0.450 -0.3124  0.4982 -0.7908
 6996TIP3    H142479   1.736   0.266   0.542  0.8743  1.7343 -0.4313
 6996TIP3    H242480   1.645   0.319   0.433 -0.7767 -0.6048 -0.2831
 6997TIP3   OH242481   0.308   6.484   1.610  0.0601 -0.2263  0.7603
 6997TIP3    H142482   0.307   6.464   1.703  3.1410  1.2483  1.2623
 6997TIP3    H242483   0.390   6.445   1.578 -0.4462  0.1391 -1.1263
 6998TIP3   OH242484   2.287   0.875   5.084 -0.4457  0.2135  0.2005
 6998TIP3    H142485   2.283   0.794   5.033 -3.7687  0.6849 -0.5417
 6998TIP3    H242486   2.264   0.848   5.173 -0.3665  0.1897  0.2139
 6999TIP3   OH242487   4.280   1.919   5.417  0.7158  0.3810 -0.3340
 6999TIP3    H142488   4.213   1.946   5.353  0.9239 -0.3357 -0.8765
 6999TIP3    H242489   4.233   1.915   5.500 -0.3572 -1.5816 -0.9449
 7000TIP3   OH242490   2.644   2.332  13.193  0.2182 -0.6614 -0.4062
 7000TIP3    H142491   2.609   2.314  13.281 -1.1419  0.0163 -0.7863
 7000TIP3    H242492   2.608   2.262  13.139 -0.6129  0.0666 -0.8105
 7001TIP3   OH242493   3.069   0.377  15.702  0.2211  0.1794  0.0183
 7001TIP3    H142494   3.121   0.439  15.752  0.2955  0.1256  0.0072
 7001TIP3    H242495   3.116   0.366  15.619 -0.6522  1.4002 -0.6875
 7002TIP3   OH242496   1.256   2.596  13.050 -0.3970  0.2392 -0.5864
 7002TIP3    H142497   1.350   2.601  13.031 -0.0578 -0.1568  0.8785
 7002TIP3    H242498   1.217   2.566  12.967  0.7531  0.4443 -1.2277
 7003TIP3   OH242499   4.776   1.800  13.346 -0.1356 -0.1793 -0.8202
 7003TIP3    H142500   4.850   1.853  13.319 -0.6568  0.2595 -1.4239
 7003TIP3    H242501   4.801   1.710  13.322  0.1534 -0.0202 -1.1246
 7004TIP3   OH242502   0.595   4.460   5.231 -0.6299 -0.0662 -0.4493
 7004TIP3    H142503   0.620   4.539   5.184  0.7177 -0.5358 -0.5456
 7004TIP3    H242504   0.652   4.457   5.307 -0.0637 -1.3854 -0.8989
 7005TIP3   OH242505   5.476   0.520  16.411 -0.4505  0.3510  0.0929
 7005TIP3    H142506   5.516   0.557  16.332  0.8697  2.3997  1.5994
 7005TIP3    H242507   5.391   0.489  16.382 -0.6322  2.3890 -1.8807
 7006TIP3   OH242508   3.800   0.429   6.359 -0.1333 -0.3407  0.0205
 7006TIP3    H142509   3.749   0.496   6.314 -0.4814 -1.4330 -1.2904
 7006TIP3    H242510   3.884   0.470   6.378 -0.7232  0.7917  0.2150
 7007TIP3   OH242511   3.357   2.634  15.933 -0.2786 -0.1654  0.1724
 7007TIP3    H142512   3.350   2.633  15.837  0.2263 -0.0657  0.1328
 7007TIP3    H242513   3.415   2.707  15.952 -0.1966 -0.3286  0.5450
 7008TIP3   OH242514   5.540   6.256  13.431  0.0034  0.1209  0.0647
 7008TIP3    H142515   5.560   6.272  13.338  1.4665 -0.0499  0.3196
 7008TIP3    H242516   5.606   6.306  13.478  0.3776 -1.1859  0.9777
 7009TIP3   OH242517   0.467   2.293  16.518 -0.0357  0.3670  0.2953
 7009TIP3    H142518   0.512   2.344  16.451 -0.6586  0.8037  0.2057
 7009TIP3    H242519   0.408   2.355  16.561 -2.2742 -0.6379 -1.1362
 7010TIP3   OH242520   5.968   2.006   3.206  0.4390 -0.4991 -0.3725
 7010TIP3    H142521   5.922   1.935   3.251  0.2680  0.0404  0.3103
 7010TIP3    H242522   5.926   2.011   3.120 -1.5531  0.7197  0.6140
 7011TIP3   OH242523   1.852   4.047  15.541 -0.2835 -0.3276  0.0781
 7011TIP3    H142524   1.871   4.046  15.635  0.7396 -1.1347 -0.1208
 7011TIP3    H242525   1.769   4.094  15.534 -0.2929 -0.1105  1.3681
 7012TIP3   OH242526   0.482   5.712  14.936 -0.1104 -0.4918 -0.8479
 7012TIP3    H142527   0.556   5.693  14.879  0.0976 -1.5911 -0.2535
 7012TIP3    H242528   0.514   5.692  15.024 -0.4608  1.0428 -0.3522
 7013TIP3   OH242529   4.370   0.303  13.907 -0.8481  0.0048 -0.1238
 7013TIP3    H142530   4.324   0.299  13.991  0.1526 -1.6670  0.3910
 7013TIP3    H242531   4.303   0.286  13.842 -1.4828  0.4916  0.3864
 7014TIP3   OH242532   0.640   4.771   0.190 -0.3665 -0.8008 -0.2791
 7014TIP3    H142533   0.613   4.851   0.145 -1.5209 -1.5214 -0.8858
 7014TIP3    H242534   0.734   4.764   0.172 -0.3424  0.1821 -0.5767
 7015TIP3   OH242535   6.148   4.192   5.148  0.0667  0.4525 -0.2569
 7015TIP3    H142536   6.071   4.174   5.202 -0.1289  2.3603  0.1717
 7015TIP3    H242537   6.125   4.158   5.061  0.4836 -2.8930  0.7840
 7016TIP3   OH242538   1.422   0.353  14.891  0.4432  0.0427 -0.1245
 7016TIP3    H142539   1.388   0.308  14.969 -0.2664  2.2711  0.9350
 7016TIP3    H242540   1.357   0.335  14.823 -1.9911  2.5184  1.3255
 7017TIP3   OH242541   2.135   5.694   0.226  0.0326 -0.5755 -0.1051
 7017TIP3    H142542   2.052   5.742   0.218 -0.2170 -0.8068  0.9592
 7017TIP3    H242543   2.136   5.635   0.152 -0.4049 -0.0453 -0.5441
 7018TIP3   OH242544   3.072   1.110   1.567  0.1554  0.2937 -0.0794
 7018TIP3    H142545   3.042   1.024   1.538  1.3143 -0.6738  1.4475
 7018TIP3    H242546   3.071   1.104   1.663  0.3850  1.9496  0.0425
 7019TIP3   OH242547   3.526   0.558  13.156  0.0767  0.6652 -0.0567
 7019TIP3    H142548   3.598   0.548  13.094 -1.5125 -3.0736 -1.6214
 7019TIP3    H242549   3.548   0.497  13.227 -1.5934 -0.8162 -0.7412
 7020TIP3   OH242550   6.729   3.255   3.869  0.3000 -0.5759 -0.4595
 7020TIP3    H142551   6.797   3.319   3.884  0.6232 -0.1245 -3.2591
 7020TIP3    H242552   6.647   3.304   3.876  0.3082 -0.7841  1.3763
 7021TIP3   OH242553   3.072   1.512   5.791  0.0208 -0.0781  0.3533
 7021TIP3    H142554   3.132   1.560   5.848  0.1835  0.1118  0.0176
 7021TIP3    H242555   3.090   1.420   5.811 -0.1644 -0.0063  0.8609
 7022TIP3   OH242556   4.123   4.079   4.686  0.2842 -0.2482 -0.1059
 7022TIP3    H142557   4.167   4.160   4.711 -0.1053 -0.0516 -0.0508
 7022TIP3    H242558   4.086   4.045   4.767 -1.4059  0.6497 -0.4592
 7023TIP3   OH242559   5.141   6.092  16.601  0.4438 -0.1241 -0.1182
 7023TIP3    H142560   5.127   6.002  16.571  0.3296  0.0192 -0.5112
 7023TIP3    H242561   5.112   6.092  16.692  2.2647 -0.9527  0.5044
 7024TIP3   OH242562   1.391   1.943   1.101  0.2007  0.1917 -0.3998
 7024TIP3    H142563   1.448   1.922   1.027  0.0437  1.2133 -0.8285
 7024TIP3    H242564   1.312   1.892   1.085 -0.2449  1.1865 -1.5167
 7025TIP3   OH242565   0.405   3.021   0.247  0.1612  0.2434  0.3719
 7025TIP3    H142566   0.463   3.095   0.230  1.2868 -0.8571 -0.8496
 7025TIP3    H242567   0.462   2.952   0.281 -1.0569  0.2611  2.6605
 7026TIP3   OH242568   4.061   0.904  10.573  0.4235 -0.5489  0.5697
 7026TIP3    H142569   4.144   0.944  10.599  0.8483 -1.7037  1.0597
 7026TIP3    H242570   4.085   0.818  10.540 -0.4965 -0.5198 -0.2146
 7027TIP3   OH242571   0.235   0.336   1.441  0.3009  0.2231  0.3110
 7027TIP3    H142572   0.203   0.255   1.482 -1.1159 -0.2090 -1.5239
 7027TIP3    H242573   0.315   0.356   1.489  0.9538 -2.5313  0.5779
 7028TIP3   OH242574   4.747   1.976  12.514 -0.1812  0.3816 -0.6438
 7028TIP3    H142575   4.782   2.018  12.435  0.6483 -1.0220 -1.0408
 7028TIP3    H242576   4.807   1.905  12.533  0.1824  1.2467  1.8315
 7029TIP3   OH242577   5.500   0.274   6.134  0.0234 -0.1464 -0.1002
 7029TIP3    H142578   5.594   0.291   6.130 -0.1490  0.8278 -0.2467
 7029TIP3    H242579   5.460   0.360   6.123 -0.8836 -0.5220  0.2162
 7030TIP3   OH242580   5.019   0.765   0.297 -0.1997 -0.1713  0.5202
 7030TIP3    H142581   5.107   0.749   0.263 -1.0275 -2.1217 -0.8656
 7030TIP3    H242582   5.025   0.741   0.390  0.5702 -0.9894  0.2770
 7031TIP3   OH242583   5.986   3.698  12.859  0.0419  0.2005  0.2176
 7031TIP3    H142584   6.049   3.752  12.907  1.2592 -0.1892 -0.8751
 7031TIP3    H242585   5.923   3.670  12.925  1.6421 -0.3117  1.6000
 7032TIP3   OH242586   2.729   0.355   5.887 -0.2627  0.0038 -0.2097
 7032TIP3    H142587   2.676   0.284   5.850 -2.9299  0.7398  1.8674
 7032TIP3    H242588   2.746   0.328   5.978  2.7089  0.0142 -0.6548
 7033TIP3   OH242589   2.790   0.080   2.783  0.5233  0.1992  0.1471
 7033TIP3    H142590   2.696   0.079   2.798  0.1643 -1.7165 -1.7385
 7033TIP3    H242591   2.812   0.171   2.764 -0.2339  1.3944  4.0670
 7034TIP3   OH242592   6.006   2.376   0.782 -0.3687 -0.6114 -0.6933
 7034TIP3    H142593   5.987   2.433   0.857 -0.2125  0.3131 -1.3413
 7034TIP3    H242594   6.067   2.426   0.729  0.0610 -1.5488 -1.0987
 7035TIP3   OH242595   0.199   5.076  13.401 -0.3723  0.2991  0.0445
 7035TIP3    H142596   0.188   5.104  13.491  0.1655  1.2422 -0.1640
 7035TIP3    H242597   0.135   5.128  13.352 -0.6369 -0.1806 -0.1274
 7036TIP3   OH242598   0.203   5.706  11.127 -0.1510  0.3152 -0.1508
 7036TIP3    H142599   0.264   5.770  11.088 -0.1762 -0.1803 -1.0173
 7036TIP3    H242600   0.259   5.647  11.177  0.2009 -0.6318 -1.6135
 7037TIP3   OH242601   6.164   4.527   3.340  0.0130  0.3859  0.4752
 7037TIP3    H142602   6.226   4.479   3.395  0.1496  0.9050  0.7810
 7037TIP3    H242603   6.081   4.482   3.352  0.0507  0.4730  1.0774
 7038TIP3   OH242604   6.686   6.517  13.063  0.3130  0.0109 -0.0221
 7038TIP3    H142605   6.691   6.516  12.967 -0.6546 -0.1630 -0.0847
 7038TIP3    H242606   6.622   6.584  13.083  0.7666  0.2886  0.5299
 7039TIP3   OH242607   1.345   1.165   5.263  0.1331 -0.4210 -0.6332
 7039TIP3    H142608   1.335   1.260   5.249 -0.2418 -0.3958 -0.2173
 7039TIP3    H242609   1.317   1.152   5.354  0.0773 -0.9504 -0.7293
 7040TIP3   OH242610   4.583   0.716  15.391  0.6669 -0.1612  0.0983
 7040TIP3    H142611   4.636   0.686  15.317  0.9783 -2.1228  1.0541
 7040TIP3    H242612   4.597   0.650  15.459 -0.1329  1.2235  1.6897
 7041TIP3   OH242613   4.270   1.827  16.695 -0.0916  0.2592  0.8818
 7041TIP3    H142614   4.196   1.794  16.746 -2.4464  1.2980 -1.6405
 7041TIP3    H242615   4.259   1.922  16.694  0.1264  0.3102 -1.0987
 7042TIP3   OH242616   0.470   1.991  12.525 -0.4749  0.0534 -1.0842
 7042TIP3    H142617   0.438   1.911  12.565  0.5877 -0.5140 -1.3239
 7042TIP3    H242618   0.480   2.052  12.598  0.9466 -0.7970 -0.5311
 7043TIP3   OH242619   0.033   2.477   0.611 -0.4823 -0.5174  0.1948
 7043TIP3    H142620  -0.033   2.487   0.542 -0.4340 -0.9179  0.0839
 7043TIP3    H242621   0.067   2.565   0.625 -1.0859 -0.2903  0.2993
 7044TIP3   OH242622   5.898   2.054   2.913  0.3533  0.1766  0.1897
 7044TIP3    H142623   5.883   1.963   2.937  0.3555  0.2670  0.5354
 7044TIP3    H242624   5.813   2.097   2.925  0.2382  0.1269 -0.4103
 7045TIP3   OH242625   3.980   4.211   1.495  0.6522 -0.1629  0.2387
 7045TIP3    H142626   4.011   4.301   1.497 -1.9393  0.8047  1.4215
 7045TIP3    H242627   3.998   4.182   1.405  0.9246  1.7554 -0.3861
 7046TIP3   OH242628   2.583   2.280   0.150  0.0777  0.0414  0.3302
 7046TIP3    H142629   2.516   2.289   0.218  0.2635  0.4147  0.4659
 7046TIP3    H242630   2.634   2.203   0.177 -0.1743 -0.1271  0.3311
 7047TIP3   OH242631   6.177   2.616   4.292 -0.0837  0.7653  0.2970
 7047TIP3    H142632   6.174   2.624   4.196  0.6600  2.1689  0.3664
 7047TIP3    H242633   6.182   2.522   4.307 -0.8452  0.4849 -1.0230
 7048TIP3   OH242634   2.512   1.672   3.403  0.0936 -0.2012 -0.2226
 7048TIP3    H142635   2.475   1.599   3.354  0.0085 -0.6162  0.4519
 7048TIP3    H242636   2.490   1.749   3.351  0.6383 -0.6897 -1.2181
 7049TIP3   OH242637   4.238   2.751   5.169 -0.1608  0.0541  0.4007
 7049TIP3    H142638   4.314   2.699   5.143 -0.7982 -1.1596  0.9169
 7049TIP3    H242639   4.167   2.718   5.115 -0.2846  1.3821 -0.2788
 7050TIP3   OH242640   2.732   1.758   4.935 -0.0800  0.0536 -0.3656
 7050TIP3    H142641   2.711   1.815   5.009 -0.9921 -1.9386  0.9824
 7050TIP3    H242642   2.793   1.810   4.882 -1.3646  2.5220  0.3943
 7051TIP3   OH242643   2.032   3.563  10.497  0.3412  0.1546 -0.2735
 7051TIP3    H142644   1.984   3.622  10.439  0.9761 -0.3527 -1.3407
 7051TIP3    H242645   1.983   3.566  10.580  0.7975  2.7821 -0.0102
 7052TIP3   OH242646   2.402   5.832  12.172  0.3009 -0.1237 -0.2168
 7052TIP3    H142647   2.378   5.822  12.080 -1.0689  0.2897  0.0659
 7052TIP3    H242648   2.389   5.926  12.190  0.5245 -0.2050  0.4014
 7053TIP3   OH242649   5.778   3.521   5.578 -0.3115  0.2856  0.5345
 7053TIP3    H142650   5.684   3.522   5.557  0.0105 -1.8856 -1.3735
 7053TIP3    H242651   5.810   3.605   5.545 -1.8838  2.1662  3.3593
 7054TIP3   OH242652   5.804   0.522  13.002  0.1859 -0.0367  0.8356
 7054TIP3    H142653   5.790   0.602  13.052 -2.6136 -0.1148  0.3613
 7054TIP3    H242654   5.753   0.455  13.049 -0.1242 -0.7721 -0.4901
 7055TIP3   OH242655   6.537   4.312   4.952  0.1978 -0.0771 -0.1969
 7055TIP3    H142656   6.525   4.257   4.874 -1.5630  0.6483 -0.4710
 7055TIP3    H242657   6.454   4.358   4.962  1.4679  2.2471  0.2752
 7056TIP3   OH242658   5.644   3.310  14.825  0.5119 -0.2683 -0.0441
 7056TIP3    H142659   5.647   3.404  14.845  0.6950  0.0120 -1.3311
 7056TIP3    H242660   5.695   3.270  14.895  1.0046  0.6610  0.1537
 7057TIP3   OH242661   4.678   2.111   1.013  0.3317 -0.2012  0.0134
 7057TIP3    H142662   4.676   2.207   1.005 -0.9115 -0.1493  0.6111
 7057TIP3    H242663   4.593   2.082   0.981 -0.2945 -0.8717  2.0986
 7058TIP3   OH242664   0.467   2.046   4.047 -0.4226 -0.1761 -0.0618
 7058TIP3    H142665   0.544   2.006   4.086 -1.0805 -2.1972 -0.7526
 7058TIP3    H242666   0.424   2.092   4.120  0.7012 -0.1482  0.5953
 7059TIP3   OH242667   0.160   1.777  14.066  0.2876  0.2980 -0.4119
 7059TIP3    H142668   0.073   1.816  14.080 -0.0033 -0.6377  0.5853
 7059TIP3    H242669   0.218   1.825  14.125 -0.2228 -1.1963  1.4251
 7060TIP3   OH242670   2.930   1.630   2.535 -0.4742  0.3278  0.0991
 7060TIP3    H142671   2.989   1.691   2.579 -3.4966  2.2101  1.9009
 7060TIP3    H242672   2.910   1.564   2.602  0.6815 -1.1940 -0.9879
 7061TIP3   OH242673   4.052   1.152   5.657 -0.1777 -0.1535 -1.4580
 7061TIP3    H142674   4.114   1.222   5.636  0.0630  0.4951  1.0068
 7061TIP3    H242675   4.081   1.120   5.743 -2.1847 -1.0862 -1.0646
 7062TIP3   OH242676   4.749   4.290  10.550 -0.6533 -0.2506 -0.0344
 7062TIP3    H142677   4.665   4.330  10.531 -0.8416 -0.4730  0.3217
 7062TIP3    H242678   4.806   4.317  10.478 -1.6706 -2.0991 -1.6199
 7063TIP3   OH242679   3.835   3.147  12.724  0.6303  0.3980 -0.3727
 7063TIP3    H142680   3.847   3.062  12.766  1.5473  0.7086  0.0369
 7063TIP3    H242681   3.741   3.161  12.724  0.5413 -0.1029  0.6255
 7064TIP3   OH242682   2.177   0.669  16.811  0.0046  0.2533 -0.0686
 7064TIP3    H142683   2.241   0.738  16.794  1.7916 -1.5285 -0.9611
 7064TIP3    H242684   2.095   0.703  16.776  0.1009  3.0693  2.1249
 7065TIP3   OH242685   5.971   6.552   2.506  0.0461 -0.3284  0.1602
 7065TIP3    H142686   5.902   6.494   2.539  0.1877 -0.3857  0.3576
 7065TIP3    H242687   5.924   6.620   2.458  0.0117 -2.7237 -3.5725
 7066TIP3   OH242688   3.601   4.607  11.252  0.1891  0.2139 -0.1768
 7066TIP3    H142689   3.570   4.524  11.215 -1.4210  0.6952  0.0085
 7066TIP3    H242690   3.674   4.633  11.195 -0.0315 -0.7653 -0.9271
 7067TIP3   OH242691   6.638   5.055   5.485 -0.0441 -0.1098 -0.1906
 7067TIP3    H142692   6.658   5.149   5.492 -0.8019 -0.0129  0.8985
 7067TIP3    H242693   6.716   5.011   5.519  0.6126  0.0831 -1.3784
 7068TIP3   OH242694   4.599   0.770   4.477  0.3189  0.1342 -0.2667
 7068TIP3    H142695   4.606   0.683   4.516  1.6465  0.7587  0.9697
 7068TIP3    H242696   4.555   0.823   4.544  3.3479  1.4236  0.8711
 7069TIP3   OH242697   2.454   3.132  16.103 -0.4056 -0.5156 -0.0859
 7069TIP3    H142698   2.399   3.199  16.062 -0.1903 -0.9079 -1.0442
 7069TIP3    H242699   2.489   3.081  16.029  2.6670  0.7977  0.3238
 7070TIP3   OH242700   4.460   2.603   3.496 -0.0483  0.0465 -0.5410
 7070TIP3    H142701   4.398   2.537   3.464 -0.9829  1.4888 -1.8393
 7070TIP3    H242702   4.411   2.653   3.561  0.9806 -1.1117  1.2130
 7071TIP3   OH242703   3.291   5.152  13.054  0.2641 -0.5472 -0.1398
 7071TIP3    H142704   3.253   5.073  13.015  0.5643 -1.2739  0.9837
 7071TIP3    H242705   3.315   5.206  12.979  0.0760 -1.5344 -0.9420
 7072TIP3   OH242706   2.745   1.574  15.115  0.8504  0.0643 -0.9696
 7072TIP3    H142707   2.729   1.486  15.148  3.6677 -0.8190 -1.7128
 7072TIP3    H242708   2.781   1.622  15.190  0.4266  0.2601 -0.8852
 7073TIP3   OH242709   1.399   6.357   5.938  0.1836  0.5397 -0.0193
 7073TIP3    H142710   1.494   6.359   5.936  0.3759 -0.6083  3.0038
 7073TIP3    H242711   1.376   6.396   6.023 -1.9559 -0.3329 -0.1361
 7074TIP3   OH242712   4.157   5.549  13.210  0.4192  0.2705 -0.1444
 7074TIP3    H142713   4.251   5.541  13.226  0.1540 -1.3576  0.8096
 7074TIP3    H242714   4.131   5.631  13.253  0.8204 -0.9739  2.6343
 7075TIP3   OH242715   2.118   1.198   1.664 -0.4343  0.2372 -0.7062
 7075TIP3    H142716   2.065   1.133   1.616  1.0831 -1.0201 -0.7626
 7075TIP3    H242717   2.141   1.154   1.746 -0.1295  1.0574 -0.3461
 7076TIP3   OH242718   0.983   0.704   1.641 -0.5384  0.6250 -0.1249
 7076TIP3    H142719   0.983   0.666   1.553  0.8859 -0.2957  0.2292
 7076TIP3    H242720   1.063   0.670   1.681 -1.4087  0.6346  1.7074
 7077TIP3   OH242721   5.936   6.163  14.111  0.0628  0.2375 -0.0687
 7077TIP3    H142722   5.945   6.189  14.019  2.2475 -1.6495 -0.4883
 7077TIP3    H242723   6.013   6.201  14.154 -0.5059  0.4148  0.8145
 7078TIP3   OH242724   6.691   6.025   1.492  0.6780 -0.1052 -0.2149
 7078TIP3    H142725   6.716   5.987   1.408 -0.0835  0.4285 -0.6889
 7078TIP3    H242726   6.691   6.119   1.477  0.4944 -0.0074  0.3767
 7079TIP3   OH242727   6.662   4.438   6.440  0.3467 -0.5395  0.2547
 7079TIP3    H142728   6.618   4.387   6.508  0.2382 -1.0043 -0.1582
 7079TIP3    H242729   6.680   4.375   6.371  1.1294 -0.2256  0.1641
 7080TIP3   OH242730   2.742   2.622  15.113 -0.1141 -0.3528 -0.3169
 7080TIP3    H142731   2.719   2.550  15.172 -1.7946 -0.4153 -0.9916
 7080TIP3    H242732   2.831   2.603  15.084  0.0483 -1.3020  0.7511
 7081TIP3   OH242733   4.003   6.598   2.405 -0.1414 -0.5398 -0.0777
 7081TIP3    H142734   4.084   6.575   2.360 -0.1499  0.4489 -0.6239
 7081TIP3    H242735   4.026   6.675   2.457 -0.5779 -0.6250  0.2448
 7082TIP3   OH242736   5.383   1.481   3.762 -0.2606 -0.5097  0.2140
 7082TIP3    H142737   5.317   1.546   3.786 -0.2436 -1.0455  1.7794
 7082TIP3    H242738   5.399   1.432   3.842  2.6817  0.1357  0.1435
 7083TIP3   OH242739   2.153   5.349  13.246  0.0834  0.3486  0.1196
 7083TIP3    H142740   2.216   5.321  13.181  0.0535  1.2581 -0.3238
 7083TIP3    H242741   2.206   5.381  13.319  0.1235 -0.1290  0.2980
 7084TIP3   OH242742   4.511   2.501   5.413 -0.4026 -0.2710  0.2455
 7084TIP3    H142743   4.490   2.517   5.321 -1.8993 -1.3589  0.3661
 7084TIP3    H242744   4.439   2.446   5.445 -0.2537  0.5898  2.2261
 7085TIP3   OH242745   4.581   1.568   1.232 -0.6790  0.3203 -0.3687
 7085TIP3    H142746   4.642   1.591   1.302 -0.5190 -0.5584 -0.2068
 7085TIP3    H242747   4.551   1.652   1.197 -0.1413  0.7604  0.2151
 7086TIP3   OH242748   5.831   5.873   0.013  0.3063  0.5582  0.1044
 7086TIP3    H142749   5.821   5.960  -0.024  1.2849  0.2492 -0.9226
 7086TIP3    H242750   5.889   5.827  -0.048  0.0344 -0.7216  0.7733
 7087TIP3   OH242751   4.858   4.247   1.855  0.3500 -0.0855 -0.4094
 7087TIP3    H142752   4.858   4.328   1.905 -1.4837 -0.3984  0.1557
 7087TIP3    H242753   4.920   4.263   1.784  0.1006  1.7714 -0.2571
 7088TIP3   OH242754   1.970   3.379  16.642 -0.0925 -0.5114 -0.1793
 7088TIP3    H142755   2.032   3.437  16.686 -1.1884  0.7356 -0.2146
 7088TIP3    H242756   1.933   3.431  16.571 -1.9360 -0.8266  0.4776
 7089TIP3   OH242757   1.237   3.741   3.975 -0.1578 -0.6420 -0.4279
 7089TIP3    H142758   1.188   3.713   4.052  0.3930 -1.2403 -0.2905
 7089TIP3    H242759   1.328   3.743   4.004  0.0448 -0.7933 -1.0424
 7090TIP3   OH242760   3.009   2.627  12.873  0.3929 -0.1602 -0.2597
 7090TIP3    H142761   2.938   2.581  12.918  0.8097 -0.4184  0.1518
 7090TIP3    H242762   3.081   2.563  12.873  0.5040 -0.0380 -0.9998
 7091TIP3   OH242763   4.940   5.342  10.156 -0.2987  0.2594  0.1767
 7091TIP3    H142764   4.869   5.340  10.220 -0.4076  0.1764  0.0546
 7091TIP3    H242765   4.906   5.398  10.086 -0.3807 -0.0613 -0.0407
 7092TIP3   OH242766   1.061   6.619   5.986  0.2491 -0.4649  0.2007
 7092TIP3    H142767   0.970   6.640   5.966  0.0044 -1.4142  0.2452
 7092TIP3    H242768   1.110   6.698   5.965 -0.8049  0.6875  1.8958
 7093TIP3   OH242769   3.492   5.759   5.051 -0.3501 -0.0432 -0.4871
 7093TIP3    H142770   3.416   5.772   5.108  1.4134  1.3848  1.7120
 7093TIP3    H242771   3.492   5.835   4.993  0.8044  1.4285  1.3275
 7094TIP3   OH242772   2.495   0.359  11.666  0.5716 -0.3415 -0.0625
 7094TIP3    H142773   2.504   0.323  11.577  0.3288 -1.9463  0.5267
 7094TIP3    H242774   2.405   0.337  11.691  0.1072  1.5137  0.0068
 7095TIP3   OH242775   1.197   4.216   1.865 -0.4270 -0.8047 -0.7604
 7095TIP3    H142776   1.168   4.256   1.783 -2.1220  1.4142  0.8010
 7095TIP3    H242777   1.279   4.260   1.886  0.0948 -1.4914 -1.2915
 7096TIP3   OH242778   5.510   6.541   1.482 -0.2745 -0.1292 -0.0784
 7096TIP3    H142779   5.505   6.552   1.577  0.2629  0.0775 -0.0697
 7096TIP3    H242780   5.474   6.454   1.466  0.7458 -0.6576  0.4363
 7097TIP3   OH242781   4.693   0.371  12.589 -0.2793  0.7809  0.4558
 7097TIP3    H142782   4.616   0.404  12.543 -1.4705  0.6201  2.2412
 7097TIP3    H242783   4.746   0.330  12.521 -2.2541  0.0010 -0.6980
 7098TIP3   OH242784   0.934   1.723  15.357  0.6270  0.1927 -0.1510
 7098TIP3    H142785   0.923   1.667  15.434  2.8440 -2.0396 -1.3241
 7098TIP3    H242786   0.909   1.669  15.283  0.6354  1.5604 -1.1965
 7099TIP3   OH242787   6.055   3.384   4.263 -0.8992  0.6876  0.5011
 7099TIP3    H142788   5.972   3.353   4.298 -1.3858 -2.1777 -2.6514
 7099TIP3    H242789   6.031   3.450   4.198 -0.2824  2.9115  2.3819
 7100TIP3   OH242790   4.215   1.871   4.432 -0.3093  0.1947  0.1365
 7100TIP3    H142791   4.126   1.884   4.398  0.1025  0.2301 -0.9428
 7100TIP3    H242792   4.252   1.959   4.437  1.4382 -0.0308 -4.3610
 7101TIP3   OH242793   1.795   1.686   3.696  0.3707  0.2970  1.1267
 7101TIP3    H142794   1.824   1.769   3.733  0.4523  0.4412  0.7416
 7101TIP3    H242795   1.714   1.666   3.742  0.9624  0.0005  2.0588
 7102TIP3   OH242796   5.324   4.785   3.361  0.0098 -0.0116 -0.2438
 7102TIP3    H142797   5.333   4.874   3.394 -1.2004 -0.2711  0.8618
 7102TIP3    H242798   5.333   4.793   3.266 -0.0187  1.2712 -0.1494
 7103TIP3   OH242799   6.729   6.693  12.784 -0.3320  0.3000  0.2546
 7103TIP3    H142800   6.813   6.739  12.789  0.9907 -2.0199  4.0383
 7103TIP3    H242801   6.679   6.727  12.859 -1.4126 -0.6553 -0.0158
 7104TIP3   OH242802   3.445   3.419  12.804  0.0250  0.4572 -0.4884
 7104TIP3    H142803   3.381   3.426  12.733 -0.6455 -0.0886  0.0403
 7104TIP3    H242804   3.518   3.473  12.776 -1.0019  1.7631 -0.7638
 7105TIP3   OH242805   5.782   6.118  11.415  0.0151  0.3751 -0.3233
 7105TIP3    H142806   5.794   6.034  11.460  0.7357  0.5685 -0.1479
 7105TIP3    H242807   5.704   6.105  11.361 -1.2411  0.3084  1.3985
 7106TIP3   OH242808   2.172   0.223   0.540  0.1563  0.2751 -0.1033
 7106TIP3    H142809   2.207   0.233   0.629  0.4609  1.3140 -0.3210
 7106TIP3    H242810   2.153   0.313   0.512  1.4188  0.1070 -1.6300
 7107TIP3   OH242811   0.928   4.999   0.896 -1.0487  0.8664  0.4743
 7107TIP3    H142812   0.860   4.954   0.946 -0.5168  0.4331  0.8185
 7107TIP3    H242813   0.891   5.010   0.808  0.0976 -3.5838 -0.8169
 7108TIP3   OH242814   6.711   5.760   4.697  0.8396 -0.4046 -0.6138
 7108TIP3    H142815   6.659   5.707   4.637  2.9301 -4.3605  0.6632
 7108TIP3    H242816   6.651   5.779   4.770 -0.1371 -0.5705 -1.3537
 7109TIP3   OH242817   1.047   5.324   6.105  0.1318  0.0195 -0.2320
 7109TIP3    H142818   1.058   5.409   6.147 -1.8086 -0.3317  1.1292
 7109TIP3    H242819   1.132   5.281   6.116  1.5867  2.1531 -2.0448
 7110TIP3   OH242820   6.137   3.647   0.085 -0.3207  0.5053 -0.3146
 7110TIP3    H142821   6.195   3.682   0.152  1.7346 -0.1735 -1.6465
 7110TIP3    H242822   6.195   3.600   0.025 -2.4887 -2.0639 -0.6047
 7111TIP3   OH242823   4.369   0.449   5.794 -0.2184  0.4606  0.3250
 7111TIP3    H142824   4.343   0.498   5.717 -0.2748  0.9930  0.6766
 7111TIP3    H242825   4.418   0.374   5.760  0.0320  0.8633 -0.2084
 7112TIP3   OH242826   2.182   0.711   0.842 -0.4990 -0.4034  0.1523
 7112TIP3    H142827   2.177   0.777   0.773 -0.4984 -0.2680  0.2830
 7112TIP3    H242828   2.090   0.692   0.864 -0.4891  0.7291  1.2463
 7113TIP3   OH242829   5.345   4.056   2.594 -0.1857 -0.4357  0.4155
 7113TIP3    H142830   5.404   4.004   2.650 -0.1609 -0.7065  0.1445
 7113TIP3    H242831   5.310   3.992   2.532 -0.6364 -0.2405  0.4699
 7114TIP3   OH242832   4.444   2.590  10.292 -0.2676  0.0953  0.3021
 7114TIP3    H142833   4.407   2.676  10.276 -0.0760  0.0617 -0.3572
 7114TIP3    H242834   4.370   2.536  10.320 -0.6921  0.0838 -0.7798
 7115TIP3   OH242835   5.333   3.229  13.189  0.3409  0.2136  0.0148
 7115TIP3    H142836   5.318   3.144  13.147  0.1281  0.4353 -0.3608
 7115TIP3    H242837   5.408   3.214  13.247 -1.5224 -1.0484  2.2932
 7116TIP3   OH242838   0.106   0.247   3.271 -0.3069 -0.7532  0.6086
 7116TIP3    H142839   0.011   0.251   3.279 -0.2311 -0.2821  1.4148
 7116TIP3    H242840   0.136   0.334   3.297  0.1166  0.7237 -3.9123
 7117TIP3   OH242841   3.736   5.364  12.858  0.1102  0.5497 -0.1085
 7117TIP3    H142842   3.696   5.375  12.772  1.7411 -0.7387 -1.1140
 7117TIP3    H242843   3.681   5.300  12.903  0.6091 -0.7099 -1.2142
 7118TIP3   OH242844   1.723   5.934   0.960 -1.1592  0.3327  0.9021
 7118TIP3    H142845   1.781   5.995   0.915 -1.4913 -0.1644 -0.2411
 7118TIP3    H242846   1.773   5.903   1.035  0.1811 -0.2992 -0.2111
 7119TIP3   OH242847   5.639   0.085  13.248  0.1276 -0.2147 -0.2209
 7119TIP3    H142848   5.694   0.044  13.314  1.1054  1.3306 -0.0407
 7119TIP3    H242849   5.550   0.058  13.271  0.6994 -2.0316 -0.0003
 7120TIP3   OH242850   3.150   3.895  16.422  0.5065 -0.3786 -0.6654
 7120TIP3    H142851   3.221   3.907  16.485 -0.7495 -0.4424  0.8308
 7120TIP3    H242852   3.122   3.984  16.400 -1.9168 -0.2142  2.3544
 7121TIP3   OH242853   4.196   0.960  11.879  0.3399 -0.2741  0.6791
 7121TIP3    H142854   4.144   1.037  11.857  0.5538  0.0808  1.3620
 7121TIP3    H242855   4.232   0.930  11.796  0.7509  0.7278  0.4821
 7122TIP3   OH242856   5.174   4.042  13.993 -0.6551  0.0469 -0.1120
 7122TIP3    H142857   5.220   4.078  14.068 -1.0043 -0.3557  0.3011
 7122TIP3    H242858   5.212   4.087  13.918 -2.2818  2.6117  0.4773
 7123TIP3   OH242859   3.823   5.354  11.565  0.0472  0.4492  0.1861
 7123TIP3    H142860   3.826   5.403  11.483 -2.0319  0.4793  0.0961
 7123TIP3    H242861   3.887   5.398  11.621  1.7381  0.2500 -1.4598
 7124TIP3   OH242862   0.232   6.522   3.442  0.0796  0.4640 -0.6132
 7124TIP3    H142863   0.155   6.465   3.430 -0.3747  0.9280  0.0391
 7124TIP3    H242864   0.213   6.599   3.388  0.3578  0.3230 -0.9135
 7125TIP3   OH242865   6.413   4.060  10.901 -0.3020  0.1502 -0.8169
 7125TIP3    H142866   6.474   4.054  10.827  0.6606 -1.1990  0.0234
 7125TIP3    H242867   6.359   3.981  10.894 -0.0570 -0.1031  0.0219
 7126TIP3   OH242868   2.125   2.081   2.004 -0.2969  0.2801 -0.0698
 7126TIP3    H142869   2.046   2.069   2.057 -0.6442  1.8827 -0.1728
 7126TIP3    H242870   2.109   2.027   1.926 -0.2307 -1.2636  0.9458
 7127TIP3   OH242871   5.030   5.730   2.093 -0.3597  0.0050 -0.5556
 7127TIP3    H142872   5.088   5.783   2.039  2.3146 -1.0098  1.0876
 7127TIP3    H242873   5.088   5.688   2.156 -2.6103 -2.9809 -0.2391
 7128TIP3   OH242874   5.581   1.832   2.838  0.2355  0.5762  0.1978
 7128TIP3    H142875   5.529   1.852   2.760  1.0680 -0.2178 -0.5965
 7128TIP3    H242876   5.579   1.737   2.845 -0.0771  0.6585  1.3367
 7129TIP3   OH242877   2.162   5.258  10.884  0.3308  0.2788 -0.0675
 7129TIP3    H142878   2.152   5.319  10.811  1.6252  0.3432 -0.2102
 7129TIP3    H242879   2.171   5.314  10.961 -1.0989  0.2102  0.1781
 7130TIP3   OH242880   3.988   2.509  11.745 -0.4079  0.6123 -0.4289
 7130TIP3    H142881   4.069   2.514  11.795 -0.8642  0.0119  0.4114
 7130TIP3    H242882   3.985   2.590  11.695  1.3091  0.1059 -1.4417
 7131TIP3   OH242883   4.714   3.030   1.538 -0.3790 -0.7464 -0.2321
 7131TIP3    H142884   4.756   2.949   1.565 -0.8441 -1.5083 -1.7067
 7131TIP3    H242885   4.785   3.082   1.500 -0.5442 -1.6760 -1.9232
 7132TIP3   OH242886   6.162   1.111  13.066  0.3547 -0.2872 -0.2594
 7132TIP3    H142887   6.191   1.099  12.976 -1.9018  0.9178 -1.2083
 7132TIP3    H242888   6.127   1.025  13.091 -1.6378  0.0638 -1.6025
 7133TIP3   OH242889   6.328   2.071   0.300  0.4000  0.1593 -0.1315
 7133TIP3    H142890   6.270   2.032   0.235  0.6615  2.0135 -1.5658
 7133TIP3    H242891   6.396   2.005   0.315 -0.4303 -0.8508 -0.6576
 7134TIP3   OH242892   2.862   5.095  13.679  0.7458  0.1624 -1.0546
 7134TIP3    H142893   2.786   5.040  13.692  0.0827  0.8183 -2.0356
 7134TIP3    H242894   2.831   5.167  13.623  1.9493  0.7124 -1.0537
 7135TIP3   OH242895   3.281   3.551   4.335  0.1955  0.6976  0.5714
 7135TIP3    H142896   3.346   3.586   4.273  1.4772  0.4668  1.7313
 7135TIP3    H242897   3.288   3.608   4.412  1.2054 -1.1015  1.8825
 7136TIP3   OH242898   4.144   6.137  13.422 -0.4701  0.1694 -0.2660
 7136TIP3    H142899   4.053   6.122  13.447 -0.4437 -0.6428 -0.6288
 7136TIP3    H242900   4.194   6.075  13.474 -0.1110  0.7010  0.0238
 7137TIP3   OH242901   5.866   1.140  15.246  0.3794  0.0380  0.3728
 7137TIP3    H142902   5.783   1.170  15.210  0.6182  0.3646  0.0887
 7137TIP3    H242903   5.924   1.215  15.239  0.0946  0.5291  2.6243
 7138TIP3   OH242904   6.397   6.227   0.170  0.1150 -0.1031  0.0548
 7138TIP3    H142905   6.329   6.292   0.155 -0.8645 -0.9827  0.4838
 7138TIP3    H242906   6.370   6.182   0.250  0.2678 -1.6207 -0.7027
 7139TIP3   OH242907   0.394   5.558  11.257 -0.3869 -0.0469  0.0421
 7139TIP3    H142908   0.467   5.618  11.241 -1.0514  0.2781 -2.2354
 7139TIP3    H242909   0.421   5.476  11.215 -0.7727 -0.3503  0.3801
 7140TIP3   OH242910   2.643   1.032   2.884  0.3218 -0.2979 -0.5756
 7140TIP3    H142911   2.681   1.014   2.798  2.5594  0.9146  0.0789
 7140TIP3    H242912   2.652   1.127   2.895  1.0153 -0.5386  1.3769
 7141TIP3   OH242913   4.315   2.376   3.445 -0.3473  0.3620 -0.1747
 7141TIP3    H142914   4.292   2.334   3.362 -3.9265 -2.8676  2.0944
 7141TIP3    H242915   4.362   2.307   3.493  2.1559  2.3444  0.4193
 7142TIP3   OH242916   5.144   2.645  12.473  0.3668  0.0425 -0.1423
 7142TIP3    H142917   5.232   2.628  12.440 -0.2501 -0.7611 -1.4400
 7142TIP3    H242918   5.158   2.687  12.558  1.9954 -0.2954 -0.2164
 7143TIP3   OH242919   0.487   0.337   4.273 -0.1669 -0.1518  0.1278
 7143TIP3    H142920   0.493   0.332   4.178 -3.0459  0.2331 -0.1553
 7143TIP3    H242921   0.470   0.247   4.301  1.5511 -0.4186  0.4143
 7144TIP3   OH242922   1.639   4.201  12.411  0.2966 -0.1936  0.1009
 7144TIP3    H142923   1.666   4.166  12.496 -0.2857  2.2903  1.4068
 7144TIP3    H242924   1.547   4.176  12.402  0.5726 -1.1354 -0.2018
 7145TIP3   OH242925   1.460   5.459  12.267  0.1989  0.0300  0.0602
 7145TIP3    H142926   1.431   5.435  12.180  0.3928  0.2865 -0.0762
 7145TIP3    H242927   1.417   5.543  12.285  0.6620  0.2942 -0.0478
 7146TIP3   OH242928   1.596   2.392   1.586  0.2298  0.3602 -0.1898
 7146TIP3    H142929   1.601   2.461   1.652  1.5841 -0.6091  0.7626
 7146TIP3    H242930   1.509   2.402   1.547  0.2097  2.2691  0.2754
 7147TIP3   OH242931   2.090   1.211   0.375  0.1344 -0.1745  0.3471
 7147TIP3    H142932   2.070   1.296   0.414  0.5737  0.6642 -1.1932
 7147TIP3    H242933   2.179   1.221   0.341 -0.2238 -0.8627 -0.8363
 7148TIP3   OH242934   2.150   6.591  15.226 -0.2505 -0.2464  0.1501
 7148TIP3    H142935   2.200   6.510  15.237 -0.4517 -0.5641 -1.1471
 7148TIP3    H242936   2.191   6.635  15.152  0.0686  1.0207  1.0535
 7149TIP3   OH242937   1.291   5.330   1.699  0.2052  0.4961 -0.4487
 7149TIP3    H142938   1.243   5.314   1.618  0.9787 -1.3768 -0.5901
 7149TIP3    H242939   1.374   5.368   1.671 -0.5363  2.3785 -0.2953
 7150TIP3   OH242940   5.175   2.056   4.633 -1.1681  0.4686  0.4023
 7150TIP3    H142941   5.135   2.130   4.679  1.1627  1.0598  1.6421
 7150TIP3    H242942   5.222   2.008   4.701 -0.4172 -0.6174 -0.8319
 7151TIP3   OH242943   0.009   0.618   3.203  0.1489 -0.2566 -0.2192
 7151TIP3    H142944   0.026   0.676   3.129 -0.0522  0.4822  0.3034
 7151TIP3    H242945   0.071   0.647   3.270  0.5241 -1.1062 -0.1890
 7152TIP3   OH242946   6.636   0.408   6.414  0.3083 -0.5124  0.1434
 7152TIP3    H142947   6.724   0.435   6.438 -0.0277  0.4668  0.3128
 7152TIP3    H242948   6.581   0.484   6.433 -0.3645 -0.6111 -1.2605
 7153TIP3   OH242949   6.755   0.889  16.026 -0.7111 -0.4461  0.3868
 7153TIP3    H142950   6.727   0.915  15.938 -3.0641 -1.8246  0.6497
 7153TIP3    H242951   6.715   0.953  16.084  1.4496  0.9074  0.4839
 7154TIP3   OH242952   3.295   5.931   0.856 -0.2152 -0.8973  0.3028
 7154TIP3    H142953   3.268   5.981   0.933 -0.8932  0.2371 -0.6495
 7154TIP3    H242954   3.218   5.878   0.834 -0.8918  0.5644 -0.9939
 7155TIP3   OH242955   0.545   0.318  12.256 -0.4141 -0.4118  0.2318
 7155TIP3    H142956   0.470   0.275  12.296 -0.4046 -0.3639  0.3027
 7155TIP3    H242957   0.515   0.346  12.170 -0.8031  0.5348  0.6601
 7156TIP3   OH242958   5.041   6.012  17.187 -0.0947 -0.2985 -0.1129
 7156TIP3    H142959   4.981   6.042  17.119 -0.3657 -0.4755  0.0464
 7156TIP3    H242960   5.003   5.930  17.218  1.3374 -1.5677 -1.4898
 7157TIP3   OH242961   3.391   1.571   0.639 -0.4783 -0.2450  0.4910
 7157TIP3    H142962   3.465   1.511   0.630 -0.8854 -0.6002 -0.8037
 7157TIP3    H242963   3.332   1.545   0.569 -1.3484  0.7179  0.8525
 7158TIP3   OH242964   4.907   1.065   3.419  0.2722  0.1566  0.4884
 7158TIP3    H142965   4.994   1.099   3.396 -0.4139  1.8046  0.2180
 7158TIP3    H242966   4.855   1.143   3.439 -2.0334 -0.5060 -2.3683
 7159TIP3   OH242967   2.367   5.368   4.776  0.5009  0.3280 -0.3123
 7159TIP3    H142968   2.347   5.378   4.683 -1.7076 -3.5655 -0.4254
 7159TIP3    H242969   2.286   5.392   4.821  0.8178 -0.0015  0.4469
 7160TIP3   OH242970   2.636   3.311  16.517  1.0560  0.3521  0.0730
 7160TIP3    H142971   2.721   3.283  16.481  0.8630  0.6196 -0.5949
 7160TIP3    H242972   2.571   3.266  16.463  0.7614  0.9061 -0.0314
 7161TIP3   OH242973   3.742   1.681   3.081  0.1428  0.2791  0.1955
 7161TIP3    H142974   3.837   1.683   3.068  0.0887 -2.0864 -1.1810
 7161TIP3    H242975   3.724   1.591   3.107 -1.8554  0.3443 -0.7999
 7162TIP3   OH242976   4.268   1.108  12.760 -0.4167  0.9105 -0.3725
 7162TIP3    H142977   4.302   1.058  12.686  1.5502  0.7096  0.6225
 7162TIP3    H242978   4.188   1.149  12.726 -0.3319 -0.3118 -2.1614
 7163TIP3   OH242979   0.107   4.005  10.770 -0.0161 -0.1453  0.3921
 7163TIP3    H142980   0.077   3.947  10.700  2.6555  1.1987 -2.0466
 7163TIP3    H242981   0.094   4.094  10.735  2.8835  0.5374  0.7955
 7164TIP3   OH242982   1.302   6.480  16.606  1.2725  0.0128  0.0270
 7164TIP3    H142983   1.246   6.488  16.530  0.1502  2.3215  0.9758
 7164TIP3    H242984   1.381   6.530  16.583  0.4472  1.7158  0.7187
 7165TIP3   OH242985   6.206   3.902  10.893 -0.3095 -0.0439  0.0288
 7165TIP3    H142986   6.126   3.883  10.843 -1.4711 -1.3904  2.2423
 7165TIP3    H242987   6.187   3.872  10.982  1.4542  2.6823  1.4926
 7166TIP3   OH242988   5.781   2.574   0.150  0.0725  0.0948 -0.5503
 7166TIP3    H142989   5.847   2.624   0.198  0.2441  0.1644 -0.8580
 7166TIP3    H242990   5.697   2.601   0.188  0.2343 -0.1913  0.0262
 7167TIP3   OH242991   6.574   4.649   4.803 -0.3673 -0.1312 -0.6912
 7167TIP3    H142992   6.531   4.566   4.780 -2.6643  0.8061 -0.1259
 7167TIP3    H242993   6.501   4.707   4.826  1.3291  0.4966  4.2553
 7168TIP3   OH242994   5.621   3.343   3.822 -0.0166 -0.6989  0.8203
 7168TIP3    H142995   5.597   3.265   3.773  1.4619 -0.9406  0.4541
 7168TIP3    H242996   5.716   3.345   3.820 -0.0173  1.7820 -0.2747
 7169TIP3   OH242997   5.316   2.421   4.524 -0.5116  0.6458  0.0492
 7169TIP3    H142998   5.412   2.420   4.526 -0.4319 -1.7053 -1.3927
 7169TIP3    H242999   5.293   2.352   4.462 -3.1585  1.4082  0.0704
 7170TIP3   OH243000   5.185   6.452   3.456  0.6847  0.0650 -0.4324
 7170TIP3    H143001   5.259   6.402   3.420  0.8646 -1.2191  1.5683
 7170TIP3    H243002   5.189   6.436   3.550 -1.9202  0.2627 -0.2151
 7171TIP3   OH243003   0.007   5.254  11.771  0.6507 -0.2396 -0.2011
 7171TIP3    H143004   0.020   5.344  11.742 -2.5428  0.2047 -0.6200
 7171TIP3    H243005   0.054   5.201  11.707  0.2263  1.0373 -1.6329
 7172TIP3   OH243006   3.512   2.148   2.410  0.3209 -0.2774 -0.2297
 7172TIP3    H143007   3.424   2.125   2.439  0.1491 -2.4031 -2.2352
 7172TIP3    H243008   3.498   2.203   2.332  0.7840 -0.2848 -0.3190
 7173TIP3   OH243009   6.100   6.535  11.658  1.0513 -0.8243  0.1919
 7173TIP3    H143010   6.107   6.600  11.588  0.4627 -1.3007 -0.3203
 7173TIP3    H243011   6.166   6.470  11.637  2.0152 -0.1314  1.0037
 7174TIP3   OH243012   4.615   1.000   0.433 -0.1160 -0.3460 -0.5556
 7174TIP3    H143013   4.708   1.004   0.407 -0.2506 -0.3691 -1.0456
 7174TIP3    H243014   4.591   1.091   0.451 -0.1822 -0.2604 -1.0807
 7175TIP3   OH243015   2.504   1.003   3.140  0.1562  0.0568  0.7031
 7175TIP3    H143016   2.426   0.948   3.135  0.5102 -0.3945  0.0895
 7175TIP3    H243017   2.533   1.013   3.049  0.0864  1.2787  0.7912
 7176TIP3   OH243018   1.175   6.033  12.344 -0.1258 -0.2149 -0.4643
 7176TIP3    H143019   1.126   6.086  12.281  0.5240  0.0693 -0.7408
 7176TIP3    H243020   1.181   5.947  12.304  1.4323  0.3086 -1.4301
 7177TIP3   OH243021   3.348   0.137  16.859  0.0318  0.5997  0.5677
 7177TIP3    H143022   3.330   0.148  16.765  0.9312  0.7921  0.4163
 7177TIP3    H243023   3.273   0.086  16.891 -0.0627  0.1318 -0.3434
 7178TIP3   OH243024   4.460   4.645  12.573 -0.0180 -0.5134 -0.1534
 7178TIP3    H143025   4.438   4.601  12.491  0.7760 -1.8879  0.3235
 7178TIP3    H243026   4.444   4.738  12.557 -1.5113 -0.9463 -1.2931
 7179TIP3   OH243027   3.675   4.112   4.240  0.0381 -0.0484 -0.0535
 7179TIP3    H143028   3.666   4.178   4.172  1.6095  0.1042 -0.1589
 7179TIP3    H243029   3.739   4.050   4.205 -0.8806 -1.2607  0.3321
 7180TIP3   OH243030   5.991   5.556   3.614  0.1658  0.3446 -0.2247
 7180TIP3    H143031   5.963   5.467   3.632 -2.5445  1.2038  0.2756
 7180TIP3    H243032   5.959   5.607   3.688 -0.4605  2.0779 -1.5967
 7181TIP3   OH243033   0.325   2.855  16.582 -0.6793 -0.0368  0.2021
 7181TIP3    H143034   0.397   2.832  16.640  0.2925  0.4730 -0.7694
 7181TIP3    H243035   0.366   2.872  16.497 -1.8081  1.2580 -0.1346
 7182TIP3   OH243036   6.027   5.760  10.858  0.2723  0.0467  0.4429
 7182TIP3    H143037   6.008   5.669  10.835  1.1001 -0.0588  0.1474
 7182TIP3    H243038   6.110   5.757  10.906  1.7801  0.8877 -1.9288
 7183TIP3   OH243039   5.732   4.993  10.933  0.3987 -0.0393 -0.3741
 7183TIP3    H143040   5.806   4.978  10.992  1.2702 -0.2079 -1.4763
 7183TIP3    H243041   5.767   5.050  10.864 -1.1615  1.9373  0.3778
 7184TIP3   OH243042   0.203   6.106  12.674 -0.1395 -0.1636 -0.6109
 7184TIP3    H143043   0.258   6.067  12.742  0.2525 -0.7401 -1.2424
 7184TIP3    H243044   0.192   6.197  12.702 -0.2587 -0.4706  0.3832
 7185TIP3   OH243045   0.114   3.424   2.241  0.0457  0.6437 -0.1113
 7185TIP3    H143046   0.178   3.478   2.195 -0.7301  0.8998 -0.9101
 7185TIP3    H243047   0.151   3.335   2.236  0.4215  0.8117 -0.4086
 7186TIP3   OH243048   3.371   4.665   4.053  0.1626  0.2002 -0.4412
 7186TIP3    H143049   3.424   4.742   4.033 -1.9370  2.0842  0.7358
 7186TIP3    H243050   3.300   4.699   4.109 -0.7826 -2.6233  0.2292
 7187TIP3   OH243051   2.286   5.411   3.477 -0.2983 -0.3037 -0.1366
 7187TIP3    H143052   2.370   5.456   3.487 -0.1818 -0.4935 -0.2620
 7187TIP3    H243053   2.253   5.441   3.392 -0.4996  0.0032  0.0476
 7188TIP3   OH243054   4.265   3.792   2.760  0.4253  0.4270 -0.1696
 7188TIP3    H143055   4.246   3.880   2.790  0.7202  0.5252 -0.2692
 7188TIP3    H243056   4.359   3.792   2.744  0.2459  0.4216 -1.2454
 7189TIP3   OH243057   2.234   1.957   5.442 -0.7995 -0.4884 -0.5804
 7189TIP3    H143058   2.297   1.901   5.397  0.6730 -0.2017  1.0206
 7189TIP3    H243059   2.246   2.044   5.404 -0.4032 -0.4869 -0.4520
 7190TIP3   OH243060   3.731   0.560   2.587  0.6897 -0.3543 -0.6158
 7190TIP3    H143061   3.798   0.610   2.633 -0.1954  1.9808 -1.6922
 7190TIP3    H243062   3.711   0.613   2.510 -1.2723 -1.7577 -1.1372
 7191TIP3   OH243063   4.292   0.857  10.915 -0.1516  0.6441  0.7748
 7191TIP3    H143064   4.327   0.813  10.838 -0.0880  1.4205  0.3531
 7191TIP3    H243065   4.200   0.873  10.893 -0.7809 -1.2162  1.8006
 7192TIP3   OH243066   0.690   4.811   4.193  0.0717 -0.3916  0.6420
 7192TIP3    H143067   0.723   4.876   4.131 -1.3097 -0.0976  0.1942
 7192TIP3    H243068   0.716   4.727   4.155 -3.5444 -0.4736 -2.2432
 7193TIP3   OH243069   3.552   4.074   1.944 -0.1272 -0.5527  0.0182
 7193TIP3    H143070   3.562   4.137   1.873 -0.8074  0.1624  0.5478
 7193TIP3    H243071   3.471   4.027   1.923 -0.2598 -0.4300  0.2571
 7194TIP3   OH243072   1.943   4.555   1.111  0.4300 -0.4421  0.6871
 7194TIP3    H143073   1.926   4.648   1.097  0.2699 -0.4543  0.7969
 7194TIP3    H243074   1.885   4.531   1.183 -0.6246 -0.9721 -0.3025
 7195TIP3   OH243075   4.060   3.693   6.115 -0.0892  0.2075 -0.0170
 7195TIP3    H143076   3.989   3.720   6.173  0.1368 -0.9185  0.8387
 7195TIP3    H243077   4.076   3.601   6.138  0.7910  0.0716 -1.0732
 7196TIP3   OH243078   3.801   6.380   5.720 -0.2507  0.0507  0.2002
 7196TIP3    H143079   3.742   6.451   5.746 -0.2166  1.5943 -3.3505
 7196TIP3    H243080   3.744   6.304   5.713 -0.7666  0.2577  1.6802
 7197TIP3   OH243081   5.659   1.600   2.936 -0.8701 -0.3262  0.5450
 7197TIP3    H143082   5.738   1.644   2.965 -1.5882  1.8644 -0.6027
 7197TIP3    H243083   5.691   1.527   2.883  0.4168  0.8622 -0.3922
 7198TIP3   OH243084   6.773   3.963  15.055 -0.3478  0.4630  0.0885
 7198TIP3    H143085   6.756   4.041  15.003 -1.3456 -0.5302 -1.1109
 7198TIP3    H243086   6.692   3.913  15.052  0.9919 -1.8206 -1.2814
 7199TIP3   OH243087   1.909   2.624   0.314 -0.3469  0.2640  0.3966
 7199TIP3    H143088   1.985   2.596   0.264 -0.4760  0.8476 -0.1385
 7199TIP3    H243089   1.886   2.548   0.367 -0.3818 -0.4702 -0.6368
 7200TIP3   OH243090   3.399   6.209   2.179  0.0252 -0.0235  0.0285
 7200TIP3    H143091   3.309   6.192   2.153  0.7583 -0.7413 -2.2684
 7200TIP3    H243092   3.440   6.123   2.181  1.1246  0.4462 -0.9320
 7201TIP3   OH243093   4.358   1.226   5.769  0.0720  0.4598 -0.3127
 7201TIP3    H143094   4.348   1.138   5.732  0.3096  0.1233  0.4092
 7201TIP3    H243095   4.445   1.225   5.810 -0.2283  0.7906  0.3511
 7202TIP3   OH243096   5.534   4.748  14.183  0.0454  0.2390  0.1466
 7202TIP3    H143097   5.476   4.684  14.222 -0.5094  0.1392 -0.8030
 7202TIP3    H243098   5.565   4.707  14.102  2.1765 -0.0840  1.0457
 7203TIP3   OH243099   1.646   2.401   3.199 -0.5981  0.4236  0.4760
 7203TIP3    H143100   1.731   2.426   3.235 -0.7937  1.4248  0.2641
 7203TIP3    H243101   1.583   2.430   3.265 -0.8847  1.2810 -0.1609
 7204TIP3   OH243102   5.067   4.781   2.864  0.3507 -0.8117  0.1833
 7204TIP3    H143103   5.005   4.734   2.808  0.3665 -0.3017 -0.2662
 7204TIP3    H243104   5.033   4.870   2.870  1.0605 -0.5060 -0.1211
 7205TIP3   OH243105   6.227   6.772   0.661  0.1524  0.6690 -0.5671
 7205TIP3    H143106   6.278   6.820   0.595  0.1901 -1.2709 -2.0570
 7205TIP3    H243107   6.282   6.773   0.739  0.9739  1.4270 -1.1292
 7206TIP3   OH243108   1.290   2.887  13.315  0.7236 -0.4936  0.5682
 7206TIP3    H143109   1.342   2.895  13.395  0.0412  2.1095  0.8454
 7206TIP3    H243110   1.277   2.978  13.286 -1.1042 -1.2360 -1.1398
 7207TIP3   OH243111   0.802   6.480  12.537  0.0242  0.2652  0.0944
 7207TIP3    H143112   0.794   6.574  12.553  0.8920 -0.0814  3.1268
 7207TIP3    H243113   0.830   6.474  12.446 -0.8134  2.8771 -0.4164
 7208TIP3   OH243114   3.336   4.038  13.019 -0.2376 -0.5701  0.5709
 7208TIP3    H143115   3.394   3.964  13.037  0.0854 -0.2449  0.8692
 7208TIP3    H243116   3.391   4.115  13.033 -0.5781 -0.2725  0.2771
 7209TIP3   OH243117   3.178   0.165   3.340 -0.1795 -0.2039  0.5027
 7209TIP3    H143118   3.118   0.120   3.400  0.6954  0.6795  2.1068
 7209TIP3    H243119   3.245   0.099   3.319 -0.0595 -0.2910  1.1426
 7210TIP3   OH243120   2.340   5.551  16.814 -0.8077  0.1967 -0.3205
 7210TIP3    H143121   2.349   5.492  16.739 -0.1314 -0.2121  0.0639
 7210TIP3    H243122   2.423   5.598  16.817 -1.1893  0.8815 -0.3766
 7211TIP3   OH243123   4.089   6.759  11.769 -0.2402  0.3001  0.6265
 7211TIP3    H143124   4.027   6.746  11.697  1.1017 -0.1613 -0.4935
 7211TIP3    H243125   4.050   6.712  11.843 -1.8816  1.1788  0.3665
 7212TIP3   OH243126   3.726   4.543  11.951  0.0444 -0.0155  0.3766
 7212TIP3    H143127   3.707   4.591  12.031  1.0014 -2.2447  2.0389
 7212TIP3    H243128   3.644   4.547  11.901 -1.1631 -0.0273  2.2557
 7213TIP3   OH243129   4.422   6.599   3.635  0.3643 -0.0112 -0.0742
 7213TIP3    H143130   4.445   6.692   3.644 -0.2152  0.0194  1.4562
 7213TIP3    H243131   4.466   6.556   3.708  0.7213 -0.9756 -0.8328
 7214TIP3   OH243132   3.250   5.045  17.081 -0.2505 -0.0847  0.8035
 7214TIP3    H143133   3.318   5.109  17.060 -0.3179 -0.6582 -1.3391
 7214TIP3    H243134   3.293   4.960  17.073 -0.1898 -0.4185  3.5172
 7215TIP3   OH243135   2.650   2.742   3.407  1.0969  0.4279 -0.2230
 7215TIP3    H143136   2.681   2.735   3.317  1.5866 -1.9437  0.0660
 7215TIP3    H243137   2.630   2.835   3.419  1.1445  0.8080 -2.7124
 7216TIP3   OH243138   0.868   3.842   3.979  0.0826  0.4928  0.3346
 7216TIP3    H143139   0.944   3.892   4.008  1.4433 -0.8816 -0.6762
 7216TIP3    H243140   0.829   3.894   3.910  1.0097  0.5419 -0.1640
 7217TIP3   OH243141   0.657   1.448  15.875  0.6159  0.1237 -0.1987
 7217TIP3    H143142   0.743   1.419  15.844 -0.2325 -1.5640 -1.1031
 7217TIP3    H243143   0.595   1.408  15.814 -0.8279  1.3392  0.4110
 7218TIP3   OH243144   4.775   5.631   5.434 -0.2719  0.6044 -0.2431
 7218TIP3    H143145   4.702   5.572   5.451 -0.6910  1.5419  1.4047
 7218TIP3    H243146   4.828   5.629   5.514  0.7927  0.9574 -0.9067
 7219TIP3   OH243147   1.819   4.154  12.130  1.3608 -0.0530  0.2454
 7219TIP3    H143148   1.800   4.066  12.163  0.2479 -0.3045 -0.9583
 7219TIP3    H243149   1.777   4.213  12.192 -0.4451 -0.5025 -0.4816
 7220TIP3   OH243150   6.511   1.483  10.904  0.2090  0.2163  0.0159
 7220TIP3    H143151   6.602   1.461  10.885  0.7350  1.3584  1.1037
 7220TIP3    H243152   6.510   1.504  10.997 -0.5061  3.2515 -0.5727
 7221TIP3   OH243153   2.272   5.917   0.080 -0.1832 -0.1749 -0.5943
 7221TIP3    H143154   2.282   5.831   0.039 -0.8873 -0.1346 -0.8610
 7221TIP3    H243155   2.328   5.974   0.028  0.6760 -0.5576 -0.1143
 7222TIP3   OH243156   5.826   2.020  16.137  0.2342  0.4158  0.0425
 7222TIP3    H143157   5.795   1.986  16.220  1.1484 -1.0181 -0.1822
 7222TIP3    H243158   5.764   1.987  16.072 -1.2197  2.5598  0.2230
 7223TIP3   OH243159   2.863   6.624  16.253 -0.0558 -0.9728  0.0629
 7223TIP3    H143160   2.853   6.667  16.338  1.7091 -0.6707  0.1520
 7223TIP3    H243161   2.895   6.536  16.275  1.5796 -0.4954 -0.3008
 7224TIP3   OH243162   6.638   5.719   6.171 -0.2310  0.7027  0.2512
 7224TIP3    H143163   6.693   5.666   6.114 -2.3324 -0.0707 -1.1942
 7224TIP3    H243164   6.697   5.786   6.206  1.5092  0.2312 -1.5866
 7225TIP3   OH243165   2.798   5.616  16.876 -0.4774 -0.1109 -0.4651
 7225TIP3    H143166   2.886   5.600  16.909 -1.5960 -3.4771  1.3158
 7225TIP3    H243167   2.777   5.705  16.906  1.5575  0.0063  0.7675
 7226TIP3   OH243168   3.461   1.773   4.893 -0.3731 -0.3913 -0.2025
 7226TIP3    H143169   3.532   1.732   4.844 -1.3007 -0.6270 -1.3673
 7226TIP3    H243170   3.501   1.796   4.977  1.2570  0.0490 -1.0525
 7227TIP3   OH243171   5.718   2.010   4.084 -0.4020  0.1438  1.0562
 7227TIP3    H143172   5.745   1.956   4.010 -2.5442  1.3180 -0.7238
 7227TIP3    H243173   5.791   2.070   4.099  0.2495 -0.4142  0.1773
 7228TIP3   OH243174   1.288   5.581  13.112  0.0019 -0.3368 -0.4134
 7228TIP3    H143175   1.344   5.544  13.180 -0.8558 -0.6349  0.1544
 7228TIP3    H243176   1.239   5.650  13.156 -1.1646 -1.0815 -0.4934
 7229TIP3   OH243177   3.193   3.465  16.201  0.1025 -0.0627  0.3767
 7229TIP3    H143178   3.098   3.464  16.193 -0.1796 -0.3078  2.9374
 7229TIP3    H243179   3.216   3.559  16.203  0.2723  0.0692 -2.5873
 7230TIP3   OH243180   2.926   0.086  15.489 -0.2350 -0.1200  0.6931
 7230TIP3    H143181   3.004   0.087  15.433 -1.4545 -0.4931 -1.0833
 7230TIP3    H243182   2.947   0.022  15.557  0.8021 -0.6122 -0.0555
 7231TIP3   OH243183   5.033   5.566  16.094 -0.0838 -0.1619 -0.4758
 7231TIP3    H143184   4.945   5.587  16.065 -0.9870 -0.0916  2.0948
 7231TIP3    H243185   5.035   5.470  16.099 -0.5720 -0.1160  0.9531
 7232TIP3   OH243186   3.076   6.358   5.203  0.2125 -0.1346  0.1545
 7232TIP3    H143187   3.146   6.421   5.189  0.2427 -0.1751  0.1246
 7232TIP3    H243188   3.074   6.345   5.298  0.8896 -0.8649  0.0826
 7233TIP3   OH243189   5.525   1.515  14.581  0.1603 -0.1412 -0.7381
 7233TIP3    H143190   5.592   1.582  14.575  0.5383 -0.3915  0.4223
 7233TIP3    H243191   5.545   1.454  14.510  0.7660  0.1258 -0.7973
 7234TIP3   OH243192   1.433   2.382   1.140  0.0011 -0.1557 -0.2980
 7234TIP3    H143193   1.454   2.426   1.223 -0.0792  0.7180 -0.7220
 7234TIP3    H243194   1.518   2.364   1.100  0.0478 -0.8657  0.1156
 7235TIP3   OH243195   3.826   2.424   0.171 -0.4839  0.2849  0.1581
 7235TIP3    H143196   3.910   2.428   0.125  0.1715  2.5610  1.4244
 7235TIP3    H243197   3.842   2.368   0.246  0.0838  1.1268  0.6786
 7236TIP3   OH243198   3.619   1.774   3.794  0.5775 -0.2746  0.1273
 7236TIP3    H143199   3.613   1.868   3.808 -0.1734 -0.4561  1.1634
 7236TIP3    H243200   3.529   1.742   3.804  0.7910 -1.0864 -0.3820
 7237TIP3   OH243201   1.931   3.505  11.448  0.4785  0.6416 -0.1118
 7237TIP3    H143202   1.915   3.502  11.542 -0.5749  1.1130 -0.2598
 7237TIP3    H243203   2.016   3.463  11.437  0.2850 -0.0811  0.9670
 7238TIP3   OH243204   2.147   6.015   2.797  0.5837 -0.3053  0.0741
 7238TIP3    H143205   2.181   5.951   2.734  2.5842  1.4781 -0.8189
 7238TIP3    H243206   2.076   5.970   2.842  0.2468 -2.2641 -2.2306
 7239TIP3   OH243207   4.893   0.650  13.245 -0.2939 -0.6775  0.0257
 7239TIP3    H143208   4.819   0.694  13.205 -0.9865 -0.4703  1.4829
 7239TIP3    H243209   4.950   0.628  13.172 -1.4434 -0.1991 -1.0447
 7240TIP3   OH243210   4.603   0.876   1.898  0.1418  0.0348  0.0757
 7240TIP3    H143211   4.543   0.819   1.849 -0.4379 -0.2818  1.1104
 7240TIP3    H243212   4.550   0.952   1.922 -0.4745 -1.0759  2.5943
 7241TIP3   OH243213   1.087   5.752   1.727  1.1008  0.0439 -0.0743
 7241TIP3    H143214   1.088   5.824   1.791  3.0727 -1.5614  1.8321
 7241TIP3    H243215   0.999   5.716   1.735  0.2544  1.8545 -0.6626
 7242TIP3   OH243216   1.401   6.702  12.737 -0.2535  0.9559  0.4139
 7242TIP3    H143217   1.454   6.741  12.668  0.0455  1.1537  0.7527
 7242TIP3    H243218   1.414   6.607  12.726 -1.4634  0.8949 -0.7930
 7243TIP3   OH243219   4.228   3.365   4.862  0.3221  0.2347 -0.1546
 7243TIP3    H143220   4.272   3.440   4.821 -0.3093  0.4700 -0.4234
 7243TIP3    H243221   4.254   3.369   4.954 -0.1586  1.1466 -0.0388
 7244TIP3   OH243222   1.311   4.470  17.019 -0.4429 -0.3031  0.2562
 7244TIP3    H143223   1.247   4.490  16.951 -1.7563 -2.0054  0.9110
 7244TIP3    H243224   1.288   4.381  17.048  2.9360 -1.4997 -0.2538
 7245TIP3   OH243225   3.912   5.288  14.544 -0.6276 -0.3620  0.1528
 7245TIP3    H143226   3.876   5.254  14.462  0.7766  0.1974 -0.7294
 7245TIP3    H243227   3.896   5.219  14.608 -1.8112 -0.7796 -0.5541
 7246TIP3   OH243228   3.610   2.154   3.454 -0.0347 -0.2515  0.2027
 7246TIP3    H143229   3.586   2.099   3.528  1.0321 -1.9833 -0.6770
 7246TIP3    H243230   3.675   2.103   3.406 -0.3946  0.9713 -1.7098
 7247TIP3   OH243231   1.551   6.523  15.129  0.0667  0.0148  0.4186
 7247TIP3    H143232   1.463   6.496  15.103  0.2325  0.0882 -0.2445
 7247TIP3    H243233   1.538   6.600  15.184 -0.3125 -0.3441  0.8390
 7248TIP3   OH243234   1.944   5.075   1.449 -0.0026 -0.1031  0.1372
 7248TIP3    H143235   2.008   5.011   1.417  0.4129  0.8294 -0.9585
 7248TIP3    H243236   1.963   5.081   1.543  1.0046 -0.4253 -0.0289
 7249TIP3   OH243237   6.501   4.464  10.720  0.4904 -0.0982  0.4071
 7249TIP3    H143238   6.564   4.536  10.717  1.1225 -0.6015  1.0442
 7249TIP3    H243239   6.524   4.409  10.645  0.2517  0.1669  0.1399
 7250TIP3   OH243240   6.144   6.675   4.360 -0.2379 -0.0421 -0.0064
 7250TIP3    H143241   6.075   6.669   4.426  0.6287  1.0235  1.0524
 7250TIP3    H243242   6.100   6.711   4.283 -0.6451  2.0729  1.1137
 7251TIP3   OH243243   1.998   6.372  13.848  0.1830  0.0447 -0.2810
 7251TIP3    H143244   2.064   6.305  13.864  0.1439  0.1513  0.3605
 7251TIP3    H243245   2.035   6.452  13.887  0.0995  0.3274 -0.7732
 7252TIP3   OH243246   0.625   1.417  16.169 -0.3932  0.2597 -0.2967
 7252TIP3    H143247   0.657   1.491  16.221 -1.9263  1.8815 -1.5181
 7252TIP3    H243248   0.653   1.436  16.080 -1.0067 -0.5132 -0.6668
 7253TIP3   OH243249   0.962   2.381   5.046 -0.1886 -0.4526  0.5388
 7253TIP3    H143250   0.999   2.301   5.083  0.5112 -0.2397  0.3107
 7253TIP3    H243251   0.904   2.352   4.977  2.0106 -0.7030 -1.3061
 7254TIP3   OH243252   6.469   0.146  11.745  0.3052  0.0741  0.2686
 7254TIP3    H143253   6.456   0.154  11.839 -0.5356  0.8056  0.1073
 7254TIP3    H243254   6.502   0.231  11.718 -0.8225  0.3664 -0.2869
 7255TIP3   OH243255   5.193   4.797  16.354  0.1431  0.0999 -0.6291
 7255TIP3    H143256   5.245   4.764  16.281  0.6837 -0.2499 -0.0961
 7255TIP3    H243257   5.160   4.882  16.324  0.3295 -0.0594 -1.2878
 7256TIP3   OH243258   2.905   2.168  14.710  0.4738 -0.1355 -0.0624
 7256TIP3    H143259   2.848   2.128  14.776  1.4656  0.3422  1.1110
 7256TIP3    H243260   2.921   2.098  14.647  0.4809 -0.9617  0.8279
 7257TIP3   OH243261   2.564   5.317  13.327  0.3537 -0.4588 -0.1916
 7257TIP3    H143262   2.644   5.324  13.274  0.3059  2.5191 -0.0499
 7257TIP3    H243263   2.502   5.375  13.283 -0.5431  0.0485  1.6563
 7258TIP3   OH243264   6.584   4.591  14.427 -0.4208  0.7100 -0.2978
 7258TIP3    H143265   6.601   4.627  14.514 -1.2892 -1.4911  0.8629
 7258TIP3    H243266   6.669   4.555  14.399 -0.9830 -2.6639  1.7566
 7259TIP3   OH243267   3.184   6.458   4.103  0.3443 -0.6782  0.6059
 7259TIP3    H143268   3.235   6.482   4.180 -1.0004  2.1550  0.7388
 7259TIP3    H243269   3.104   6.418   4.137 -1.5173  2.9740  1.0564
 7260TIP3   OH243270   3.156   1.615  14.048  0.2248  0.1613  0.2867
 7260TIP3    H143271   3.075   1.583  14.009  0.6202  0.4291 -0.7816
 7260TIP3    H243272   3.224   1.559  14.010  0.3189 -2.4844  3.7803
 7261TIP3   OH243273   5.805   0.555  11.137 -0.4079  0.4539  0.3534
 7261TIP3    H143274   5.858   0.629  11.166  0.2459 -0.5406  1.7869
 7261TIP3    H243275   5.765   0.521  11.217  1.9881 -2.7849  0.3834
 7262TIP3   OH243276   1.313   1.505   3.514  0.1981 -0.5786  0.2757
 7262TIP3    H143277   1.232   1.471   3.551  0.1935 -0.7026  0.1533
 7262TIP3    H243278   1.365   1.427   3.495 -0.0647 -0.5608 -0.5921
 7263TIP3   OH243279   1.201   1.350  15.741  0.1995 -0.1275 -0.6397
 7263TIP3    H143280   1.258   1.385  15.810  1.3332 -1.1259 -1.0297
 7263TIP3    H243281   1.219   1.256  15.741  0.5092 -0.1039 -2.5342
 7264TIP3   OH243282   6.173   5.711   3.486  0.1206 -0.6371 -0.2481
 7264TIP3    H143283   6.145   5.636   3.538  2.8822 -1.5649  0.0600
 7264TIP3    H243284   6.127   5.786   3.524 -3.7375 -2.2155 -1.3813
 7265TIP3   OH243285   6.206   0.368   4.821 -0.5503  0.3289 -0.7027
 7265TIP3    H143286   6.116   0.362   4.790 -0.4079 -3.1015 -0.8323
 7265TIP3    H243287   6.205   0.321   4.905  0.8732  1.4283 -0.0324
 7266TIP3   OH243288   5.429   4.381   4.521 -0.3727  0.6008  0.1440
 7266TIP3    H143289   5.459   4.301   4.478  1.7358  2.3928 -2.0018
 7266TIP3    H243290   5.353   4.409   4.471  0.0273  0.9051 -0.2990
 7267TIP3   OH243291   0.441   3.716  13.850 -0.1844  0.2472  0.4942
 7267TIP3    H143292   0.464   3.664  13.927  0.2689 -0.6338 -0.2192
 7267TIP3    H243293   0.451   3.656  13.776 -0.7778  1.0269 -0.2454
 7268TIP3   OH243294   5.281   5.985   0.879  0.2683 -0.0693 -0.0320
 7268TIP3    H143295   5.277   6.044   0.803 -1.1808 -1.2373 -0.9129
 7268TIP3    H243296   5.277   6.044   0.954  2.6460  1.1945 -0.7659
 7269TIP3   OH243297   6.518   0.802  16.916 -0.3724  0.2294  0.9255
 7269TIP3    H143298   6.476   0.884  16.943  2.1303  0.9982  2.8712
 7269TIP3    H243299   6.608   0.827  16.893  0.2110 -1.8309  0.7237
 7270TIP3   OH243300   4.324   3.655   0.493 -0.1080  0.1131  0.0356
 7270TIP3    H143301   4.315   3.701   0.576 -0.7548  0.2723 -0.1180
 7270TIP3    H243302   4.366   3.719   0.435 -1.2435  0.6317 -0.2539
 7271TIP3   OH243303   4.807   2.772   5.740  0.4663 -0.1449 -0.6705
 7271TIP3    H143304   4.721   2.772   5.780  0.3489  0.2511 -0.9144
 7271TIP3    H243305   4.828   2.680   5.727  0.1372 -0.2459 -0.4896
 7272TIP3   OH243306   4.684   2.952   3.493  0.7174  0.1155  0.2608
 7272TIP3    H143307   4.655   2.881   3.435  0.5697  1.4987 -1.4623
 7272TIP3    H243308   4.620   3.023   3.478 -0.2062  0.0579  3.2718
 7273TIP3   OH243309   6.401   0.351  12.728  0.3407  0.1002 -0.4250
 7273TIP3    H143310   6.343   0.278  12.750  0.0325 -0.1725 -2.0012
 7273TIP3    H243311   6.396   0.409  12.804 -0.4617 -0.8703  0.2943
 7274TIP3   OH243312   2.267   2.790   3.786  0.2360 -0.3513 -0.7157
 7274TIP3    H143313   2.268   2.862   3.849  0.7861  0.7936 -1.9815
 7274TIP3    H243314   2.285   2.712   3.838  0.3535  0.5237  0.5820
 7275TIP3   OH243315   2.885   1.296   5.962 -0.5724  0.3118 -0.1768
 7275TIP3    H143316   2.962   1.255   5.921 -0.9196 -0.5690  0.0347
 7275TIP3    H243317   2.915   1.319   6.050  0.1142  2.0240 -0.8073
 7276TIP3   OH243318   3.474   2.152  12.520 -0.3442  0.0205  0.1508
 7276TIP3    H143319   3.537   2.084  12.542 -0.7953  0.2615  2.4300
 7276TIP3    H243320   3.516   2.234  12.548 -1.0225  0.3448  0.2460
 7277TIP3   OH243321   3.268   0.393   3.452  0.2572 -0.4599  0.3584
 7277TIP3    H143322   3.233   0.320   3.401 -1.2636  0.6370 -0.2276
 7277TIP3    H243323   3.363   0.380   3.448  0.0384 -2.7444  0.8395
 7278TIP3   OH243324   4.505   1.263  12.388 -0.0673 -0.0122 -0.3342
 7278TIP3    H143325   4.523   1.204  12.315 -0.6836  0.9716 -1.3140
 7278TIP3    H243326   4.575   1.328  12.384  1.2600 -1.2209  1.4191
 7279TIP3   OH243327   1.586   1.424  14.762 -0.3617  0.2920 -0.5085
 7279TIP3    H143328   1.494   1.440  14.784  0.2073 -0.5906  3.1784
 7279TIP3    H243329   1.587   1.420  14.666 -4.8008 -3.1710 -0.7649
 7280TIP3   OH243330   6.381   0.425   5.392 -0.2523  0.3969 -0.1607
 7280TIP3    H143331   6.470   0.454   5.412 -0.6395  1.0046  0.7166
 7280TIP3    H243332   6.391   0.372   5.313  1.4539 -2.7804  1.9827
 7281TIP3   OH243333   0.455   0.705   3.828  0.2232  0.2850 -0.4322
 7281TIP3    H143334   0.540   0.709   3.872  0.7158  0.7764 -1.4161
 7281TIP3    H243335   0.470   0.653   3.750 -0.9128 -1.5604  0.5053
 7282TIP3   OH243336   0.203   6.498  12.366  0.2191 -0.3678 -0.0114
 7282TIP3    H143337   0.122   6.461  12.401  0.5917 -1.3190 -0.1456
 7282TIP3    H243338   0.254   6.423  12.337  0.3607  0.3115 -1.6737
 7283TIP3   OH243339   5.398   5.801   1.201 -0.1881  0.1385 -0.3131
 7283TIP3    H143340   5.440   5.815   1.116  0.5335 -1.5989 -0.2736
 7283TIP3    H243341   5.455   5.740   1.247 -0.2631  1.4820  1.6932
 7284TIP3   OH243342   6.515   6.420  11.697 -1.0969 -0.0891  0.3040
 7284TIP3    H143343   6.553   6.500  11.661 -0.4531 -0.6643 -0.3271
 7284TIP3    H243344   6.431   6.411  11.653 -2.6083  1.8165  2.5479
 7285TIP3   OH243345   4.185   1.385   0.936 -0.2813  0.1372 -0.2007
 7285TIP3    H143346   4.099   1.425   0.951 -1.0315 -1.3364 -0.3763
 7285TIP3    H243347   4.193   1.319   1.005  1.7581  1.7935  1.2522
 7286TIP3   OH243348   5.879   6.107   3.310  0.1568  0.0110 -0.2702
 7286TIP3    H143349   5.785   6.110   3.328  0.3136  3.2617  0.6861
 7286TIP3    H243350   5.887   6.061   3.226 -2.1951 -0.9513 -0.0201
 7287TIP3   OH243351   6.746   6.469  13.452 -0.0016  0.7413  0.0624
 7287TIP3    H143352   6.810   6.421  13.399 -0.5971 -0.1959  0.1631
 7287TIP3    H243353   6.738   6.554  13.410  0.7172  0.5751 -0.4192
 7288TIP3   OH243354   6.798   4.051   3.733  0.1686  0.1805  0.2325
 7288TIP3    H143355   6.772   4.002   3.811  1.1001  0.5147  0.7709
 7288TIP3    H243356   6.796   4.143   3.760 -2.2887  0.5898 -0.9736
 7289TIP3   OH243357   6.125   2.950  13.039 -0.0289 -0.4424  0.1794
 7289TIP3    H143358   6.110   3.045  13.039 -0.4101 -0.4571  2.5815
 7289TIP3    H243359   6.047   2.914  12.996  1.0869  0.3496 -2.8061
 7290TIP3   OH243360   0.874   0.408   5.661  0.1628 -0.0355  0.4559
 7290TIP3    H143361   0.961   0.376   5.637  0.4757  0.7380  0.5585
 7290TIP3    H243362   0.886   0.453   5.744 -0.3319  0.1046  0.4579
 7291TIP3   OH243363   1.542   0.662   2.606 -0.3613 -0.1383 -0.5779
 7291TIP3    H143364   1.554   0.720   2.681  0.3415  1.4430 -1.8615
 7291TIP3    H243365   1.450   0.672   2.583 -0.4420 -0.1914 -0.2887
 7292TIP3   OH243366   0.949   5.091   5.066 -0.1555  0.1217  0.1116
 7292TIP3    H143367   0.987   5.152   5.129 -1.4128  1.3438 -0.2734
 7292TIP3    H243368   0.873   5.054   5.110 -0.8331  0.7136 -0.5235
 7293TIP3   OH243369   5.772   2.116  14.764  0.4791 -0.1842 -0.2564
 7293TIP3    H143370   5.861   2.132  14.796  0.1636  0.0535  0.5338
 7293TIP3    H243371   5.784   2.064  14.685  1.2632 -1.8747  0.9117
 7294TIP3   OH243372   3.868   3.842  13.496  0.3350 -0.5822  0.4933
 7294TIP3    H143373   3.853   3.778  13.566  1.8667 -1.1884  0.2866
 7294TIP3    H243374   3.919   3.795  13.430  0.3496  0.4720 -0.2721
 7295TIP3   OH243375   0.478   6.727  12.997 -0.1623  0.0403 -0.5465
 7295TIP3    H143376   0.444   6.739  13.085  0.6847  0.1971 -0.2248
 7295TIP3    H243377   0.544   6.796  12.988  2.3577 -2.1352  0.0688
 7296TIP3   OH243378   1.299   3.478  13.846 -0.5355  0.2260 -0.1417
 7296TIP3    H143379   1.289   3.466  13.941 -0.5984 -0.9812 -0.2865
 7296TIP3    H243380   1.213   3.507  13.817 -0.3888  1.0657  0.2268
 7297TIP3   OH243381   0.236   0.927  13.605 -0.0892 -0.2210  0.9338
 7297TIP3    H143382   0.206   1.008  13.646  1.7177 -0.6824  3.4304
 7297TIP3    H243383   0.226   0.860  13.674  0.1107 -1.7624 -0.4717
 7298TIP3   OH243384   0.917   3.500  14.047  0.4169 -0.3544  0.5521
 7298TIP3    H143385   0.937   3.439  13.976 -1.1304 -2.0012  1.4378
 7298TIP3    H243386   0.911   3.445  14.125 -1.0079  0.9246  1.4052
 7299TIP3   OH243387   3.895   1.244  16.859  0.2152  0.6394 -0.4145
 7299TIP3    H143388   3.944   1.163  16.871 -0.5479  0.2075 -0.1133
 7299TIP3    H243389   3.923   1.300  16.931  0.9710  0.7608 -0.7998
 7300TIP3   OH243390   4.350   1.964  14.630 -0.1731 -0.2311 -0.1866
 7300TIP3    H143391   4.398   1.997  14.554  0.2173 -1.1688 -0.3584
 7300TIP3    H243392   4.298   2.038  14.660  0.2789  0.3761 -0.8872
 7301TIP3   OH243393   3.691   3.170  15.319  0.2280  0.3030  0.0608
 7301TIP3    H143394   3.659   3.134  15.237  0.5900 -1.1270  0.5117
 7301TIP3    H243395   3.612   3.194  15.368 -0.1001 -1.1330  0.2730
 7302TIP3   OH243396   2.884   2.508  12.545  0.0176 -0.3069  0.2606
 7302TIP3    H143397   2.833   2.526  12.466  0.7426 -0.1708 -0.1823
 7302TIP3    H243398   2.818   2.502  12.614 -0.7456 -1.4156 -0.5032
 7303TIP3   OH243399   2.455   2.771   2.740  0.1909  0.2784 -0.6113
 7303TIP3    H143400   2.415   2.732   2.662 -0.1065  0.8921 -0.7717
 7303TIP3    H243401   2.543   2.733   2.743  0.2086  0.2567 -1.2543
 7304TIP3   OH243402   6.002   3.315  11.601  0.4813  0.5643 -0.0469
 7304TIP3    H143403   5.947   3.253  11.554 -1.4179  1.8866  0.3472
 7304TIP3    H243404   6.003   3.394  11.547  2.5694  0.3982 -0.3629
 7305TIP3   OH243405   2.228   0.603  15.265 -0.1536 -0.7984  0.3749
 7305TIP3    H143406   2.186   0.643  15.341  2.7424 -1.6178  2.6433
 7305TIP3    H243407   2.157   0.581  15.206 -2.4563  1.1553  2.2310
 7306TIP3   OH243408   0.715   0.281  17.082  0.0034 -0.3058 -0.2017
 7306TIP3    H143409   0.642   0.277  17.020  0.9478  1.0075 -1.4726
 7306TIP3    H243410   0.674   0.269  17.168 -1.4255 -1.5987 -1.0049
 7307TIP3   OH243411   4.497   0.508   1.729 -0.3991 -0.0359  0.4722
 7307TIP3    H143412   4.564   0.553   1.678 -0.0131 -0.5475  0.5202
 7307TIP3    H243413   4.458   0.446   1.667  0.6255 -1.2379  0.9955
 7308TIP3   OH243414   3.221   6.676   3.063  0.7854  1.0468 -0.0161
 7308TIP3    H143415   3.128   6.686   3.043  0.8540  1.1733 -0.2743
 7308TIP3    H243416   3.266   6.721   2.992  1.1569 -1.5289 -1.5370
 7309TIP3   OH243417   0.509   2.563   2.063 -0.0081  0.4830  0.4764
 7309TIP3    H143418   0.460   2.640   2.092  1.1787  1.0566  1.0060
 7309TIP3    H243419   0.580   2.598   2.008 -0.1082 -0.3238 -0.1953
 7310TIP3   OH243420   5.568   4.829   2.551 -0.3385 -0.5616  0.3366
 7310TIP3    H143421   5.621   4.822   2.471  0.4539  0.7022  0.7243
 7310TIP3    H243422   5.484   4.862   2.520  0.6421  2.0754  0.1874
 7311TIP3   OH243423   1.954   4.145  15.007 -0.1512 -0.2494 -0.1044
 7311TIP3    H143424   2.011   4.151  15.084  1.1336 -0.4228 -1.0162
 7311TIP3    H243425   2.002   4.191  14.938 -1.8275  0.9421 -0.5282
 7312TIP3   OH243426   0.547   4.401   2.382 -0.2210  0.4399  0.1176
 7312TIP3    H143427   0.608   4.383   2.454  1.1918 -0.3442 -1.1877
 7312TIP3    H243428   0.496   4.321   2.374 -1.4845  1.1062  1.2255
 7313TIP3   OH243429   6.003   1.555   4.869 -0.8746  0.6754  0.2070
 7313TIP3    H143430   5.927   1.572   4.925 -1.8146 -1.5980 -0.2719
 7313TIP3    H243431   5.995   1.463   4.844  1.8360  0.4690 -0.2244
 7314TIP3   OH243432   1.874   5.420   1.709  0.2516 -0.2116 -0.7479
 7314TIP3    H143433   1.862   5.325   1.716  0.7128 -0.4744 -2.7649
 7314TIP3    H243434   1.830   5.443   1.627 -0.2170  1.4023 -0.0664
 7315TIP3   OH243435   0.952   5.041  14.388  0.0432  0.2670 -0.5837
 7315TIP3    H143436   1.003   4.961  14.399 -1.7456 -0.5644  3.9744
 7315TIP3    H243437   1.014   5.112  14.406  0.3543 -0.5407  1.8086
 7316TIP3   OH243438   3.908   2.706   2.007 -0.2409 -0.0725  0.4633
 7316TIP3    H143439   3.841   2.639   1.991 -1.1025  0.5140  1.5020
 7316TIP3    H243440   3.903   2.723   2.101  0.2149  1.1909  0.2770
 7317TIP3   OH243441   4.886   5.892   5.705 -0.1875 -0.1783  0.4195
 7317TIP3    H143442   4.933   5.886   5.788  0.5760 -0.1121 -0.0081
 7317TIP3    H243443   4.822   5.962   5.719  1.9732  2.0074 -0.0174
 7318TIP3   OH243444   5.243   3.724  12.694 -0.3629  0.1226 -0.2134
 7318TIP3    H143445   5.305   3.670  12.645 -0.2792  0.3774 -0.3963
 7318TIP3    H243446   5.228   3.800  12.637  0.0940  0.6540  0.3507
 7319TIP3   OH243447   3.907   5.269  16.428 -0.1537 -0.1604 -0.0586
 7319TIP3    H143448   3.925   5.295  16.338 -0.2826 -1.9840 -0.6511
 7319TIP3    H243449   3.979   5.209  16.451 -0.3098  0.0089  0.9433
 7320TIP3   OH243450   2.143   1.482  15.750 -0.0281 -0.2933 -0.2790
 7320TIP3    H143451   2.081   1.535  15.800 -0.0332  0.3266 -0.9259
 7320TIP3    H243452   2.112   1.392  15.762 -0.2173 -0.1304  0.5541
 7321TIP3   OH243453   4.500   6.693   0.990 -0.4946  0.2726  0.8330
 7321TIP3    H143454   4.440   6.735   1.052 -3.5345 -0.2725 -1.4771
 7321TIP3    H243455   4.514   6.758   0.922 -2.1681 -1.0472 -0.8698
 7322TIP3   OH243456   2.676   5.988  17.178 -0.3570 -0.4658 -0.1520
 7322TIP3    H143457   2.648   5.928  17.247 -0.1732  1.2466  1.4885
 7322TIP3    H243458   2.597   6.035  17.153 -0.3475 -0.8179 -0.8790
 7323TIP3   OH243459   6.421   4.168  16.109  0.5091 -0.2575 -0.4676
 7323TIP3    H143460   6.494   4.106  16.099 -1.0336 -1.9588 -1.7737
 7323TIP3    H243461   6.365   4.128  16.175 -0.5303 -0.3082 -1.3585
 7324TIP3   OH243462   6.813   4.251  15.373 -0.2972 -0.0634  1.0233
 7324TIP3    H143463   6.800   4.321  15.437 -0.5111 -0.8542  1.8779
 7324TIP3    H243464   6.782   4.172  15.418  1.0887 -0.9170  0.5606
 7325TIP3   OH243465   2.452   1.972   0.972 -0.2945  0.1812 -0.1257
 7325TIP3    H143466   2.544   1.986   0.947 -0.6174 -0.2677 -1.6856
 7325TIP3    H243467   2.406   1.964   0.889 -1.5335 -1.0540  0.6333
 7326TIP3   OH243468   5.666   2.373  15.629 -0.5502  0.1712 -0.3687
 7326TIP3    H143469   5.641   2.307  15.694  1.4592  0.4711  0.7761
 7326TIP3    H243470   5.731   2.427  15.673 -1.6125  2.5224 -1.5144
 7327TIP3   OH243471   3.610   5.696   6.781  0.4072 -0.2045  0.3603
 7327TIP3    H143472   3.532   5.696   6.726  0.8473 -1.0363 -0.2838
 7327TIP3    H243473   3.620   5.605   6.808  1.8494 -0.3635 -0.5913
 7328TIP3   OH243474   3.813   5.527  14.315  0.7131 -0.4834 -0.1230
 7328TIP3    H143475   3.830   5.541  14.409 -0.5240  0.2131  0.0126
 7328TIP3    H243476   3.799   5.432  14.308 -1.1711 -0.3219  0.7758
 7329TIP3   OH243477   3.015   4.431  15.798 -0.4410 -0.2291 -0.1916
 7329TIP3    H143478   2.958   4.492  15.844 -0.3611 -0.1237 -0.2314
 7329TIP3    H243479   2.976   4.345  15.812 -0.9027 -0.1023 -0.6541
 7330TIP3   OH243480   3.990   0.724  14.537 -0.0274 -0.2406 -0.1988
 7330TIP3    H143481   4.049   0.669  14.588 -1.2558 -0.4498  1.0649
 7330TIP3    H243482   3.926   0.663  14.500  0.0227  0.0734 -0.8054
 7331TIP3   OH243483   0.104   1.272  12.779  0.4530  0.2800 -0.2097
 7331TIP3    H143484   0.039   1.202  12.786  0.8623 -0.2134 -1.1211
 7331TIP3    H243485   0.052   1.351  12.767 -0.0069 -0.1578 -1.3011
 7332TIP3   OH243486   0.157   2.896  13.405 -0.4624  0.2657 -0.1518
 7332TIP3    H143487   0.096   2.963  13.376 -0.4044  0.2856 -0.2286
 7332TIP3    H243488   0.142   2.888  13.499 -1.2656 -0.4273 -0.3313
 7333TIP3   OH243489   0.349   2.217   3.852  0.4836  0.3727 -0.1709
 7333TIP3    H143490   0.429   2.265   3.830  0.8035 -0.0700  0.0076
 7333TIP3    H243491   0.381   2.136   3.892 -0.0499 -0.0622 -0.6346
 7334TIP3   OH243492   5.481   2.300  16.462 -0.5664 -0.0153 -0.1928
 7334TIP3    H143493   5.481   2.361  16.535  0.6623 -0.0177 -0.1845
 7334TIP3    H243494   5.412   2.332  16.404 -0.3434  1.0182  0.1033
 7335TIP3   OH243495   6.832   4.618  15.800  0.4692 -0.3627 -0.0233
 7335TIP3    H143496   6.797   4.530  15.813  1.7391 -0.8126  0.5398
 7335TIP3    H243497   6.828   4.659  15.887 -0.1757  0.1621 -0.2955
 7336TIP3   OH243498   3.312   2.354  15.685 -0.2375 -0.7511 -0.1527
 7336TIP3    H143499   3.303   2.336  15.592  0.7827 -2.2084 -0.0047
 7336TIP3    H243500   3.222   2.369  15.715 -0.4127  1.7652 -1.7020
 7337TIP3   OH243501   1.333   2.772   4.085  0.6363 -0.1038  0.4160
 7337TIP3    H143502   1.271   2.741   4.151  0.2184 -0.8261 -0.3006
 7337TIP3    H243503   1.331   2.706   4.016  3.0190 -0.7320  0.8537
 7338TIP3   OH243504   4.925   5.461  11.609 -0.3303 -0.4362 -0.1567
 7338TIP3    H143505   4.892   5.402  11.541 -2.2008  0.2921  0.0534
 7338TIP3    H243506   4.985   5.519  11.563  1.1675 -2.1160 -0.4689
 7339TIP3   OH243507   0.178   5.380  17.002 -0.0340  0.0229  0.1567
 7339TIP3    H143508   0.156   5.464  17.042  0.6661  0.8591 -1.1751
 7339TIP3    H243509   0.109   5.366  16.937 -0.5553 -0.8115  0.8551
 7340TIP3   OH243510   2.589   3.455   4.882 -0.5934  0.2501 -0.6000
 7340TIP3    H143511   2.676   3.448   4.842 -0.5633  0.1240 -0.5125
 7340TIP3    H243512   2.606   3.480   4.973 -0.6996  1.5309 -0.9093
 7341TIP3   OH243513   2.786   6.141  15.557  0.2624 -0.0193  0.1832
 7341TIP3    H143514   2.870   6.139  15.602  0.9350 -0.9749 -1.0453
 7341TIP3    H243515   2.721   6.126  15.626  1.1260  0.2388  1.0695
 7342TIP3   OH243516   5.387   3.859   3.826  0.0688  0.1710 -0.0823
 7342TIP3    H143517   5.381   3.791   3.893  1.2603 -1.3697 -1.4582
 7342TIP3    H243518   5.330   3.828   3.756 -2.5262  2.5856  0.7468
 7343TIP3   OH243519   1.773   3.524   6.389 -0.7743 -0.0914  0.1945
 7343TIP3    H143520   1.767   3.429   6.397  0.4809 -0.2029  0.0452
 7343TIP3    H243521   1.796   3.554   6.477  1.5699 -0.2214 -0.3105
 7344TIP3   OH243522   4.570   2.793  12.827 -0.3100 -0.2101 -0.2183
 7344TIP3    H143523   4.584   2.884  12.802 -1.3828  0.1893  0.5837
 7344TIP3    H243524   4.658   2.758  12.842  0.1643  0.4136 -1.4575
 7345TIP3   OH243525   5.020   5.142   4.342  0.0832  0.9086 -0.3080
 7345TIP3    H143526   4.928   5.149   4.315  0.3510 -1.3257 -2.1436
 7345TIP3    H243527   5.017   5.096   4.426 -0.4955  1.4799 -0.0072
 7346TIP3   OH243528   2.292   1.161  13.629 -0.5668  0.4919  0.2288
 7346TIP3    H143529   2.378   1.187  13.661 -1.0147  1.2310  0.8765
 7346TIP3    H243530   2.305   1.074  13.591  0.3517  0.3714  0.8007
 7347TIP3   OH243531   2.909   5.207  16.757 -0.0198  0.4673 -0.3586
 7347TIP3    H143532   2.907   5.207  16.853 -1.3625  3.0024 -0.3022
 7347TIP3    H243533   2.986   5.155  16.735 -0.4508 -1.3758  2.0257
 7348TIP3   OH243534   1.924   1.845  16.833 -0.4134  0.3985  0.0167
 7348TIP3    H143535   1.854   1.800  16.878  0.1934  0.6014  1.2056
 7348TIP3    H243536   1.999   1.786  16.839 -0.2283  0.5856 -0.4030
 7349TIP3   OH243537   2.554   2.826   1.497  0.4435 -0.2728 -0.3026
 7349TIP3    H143538   2.562   2.736   1.530 -0.8409 -1.1883 -2.3187
 7349TIP3    H243539   2.491   2.820   1.426 -0.8173  2.5218  0.4563
 7350TIP3   OH243540   4.043   3.091  13.120 -0.0307 -0.4170  0.2373
 7350TIP3    H143541   3.964   3.140  13.097  0.6156  0.7815  0.5030
 7350TIP3    H243542   4.019   3.000  13.105 -1.2168 -0.0233 -0.4178
 7351TIP3   OH243543   4.098   1.518   1.160  0.0112  0.0173  0.2070
 7351TIP3    H143544   4.149   1.442   1.188 -1.2148 -0.4996  1.1682
 7351TIP3    H243545   4.152   1.594   1.185  1.4218 -0.5022 -1.1240
 7352TIP3   OH243546   6.216   5.595  10.674 -0.0674  0.3398 -0.4029
 7352TIP3    H143547   6.256   5.511  10.654  1.5670  0.8079  0.6753
 7352TIP3    H243548   6.124   5.574  10.692  0.2323 -1.1613 -0.4932
 7353TIP3   OH243549   2.802   2.080   1.143 -0.1724  0.0938  0.0765
 7353TIP3    H143550   2.875   2.124   1.098 -1.2356  1.3518 -0.4712
 7353TIP3    H243551   2.832   2.072   1.234  1.1501 -0.5718 -0.3830
 7354TIP3   OH243552   3.670   3.842   1.417 -0.4180  0.3170 -0.1780
 7354TIP3    H143553   3.727   3.868   1.489 -0.5733 -1.5294  0.6658
 7354TIP3    H243554   3.584   3.875   1.442 -0.3948  0.0246  0.2980
 7355TIP3   OH243555   3.321   4.081   3.499  0.1429  0.2324  0.8204
 7355TIP3    H143556   3.402   4.082   3.448 -1.1761  0.6602 -1.3895
 7355TIP3    H243557   3.350   4.073   3.590  2.7170  1.6396  0.2201
 7356TIP3   OH243558   1.229   1.171  14.957 -0.2351 -0.1732  0.4040
 7356TIP3    H143559   1.229   1.083  14.917 -0.2430  0.0239 -0.0428
 7356TIP3    H243560   1.259   1.229  14.887 -1.5148  0.3647  0.2630
 7357TIP3   OH243561   0.377   6.519  12.596 -0.2789  0.1599 -0.0651
 7357TIP3    H143562   0.377   6.609  12.628  0.3011  0.3025 -0.4525
 7357TIP3    H243563   0.356   6.527  12.503  2.3727  0.1540 -0.7379
 7358TIP3   OH243564   2.002   6.123  16.433  0.2933 -0.1950  0.2551
 7358TIP3    H143565   1.910   6.104  16.452  0.1454 -1.9374 -1.7403
 7358TIP3    H243566   2.051   6.077  16.501 -0.2868  0.2648  1.0002
 7359TIP3   OH243567   3.594   2.370  14.573 -0.6113  0.1096 -0.1294
 7359TIP3    H143568   3.584   2.383  14.479  1.1675 -3.0991 -0.8951
 7359TIP3    H243569   3.657   2.437  14.600  0.6636 -0.3637 -1.7461
 7360TIP3   OH243570   5.698   4.560   1.321 -0.2596 -0.1269  0.2829
 7360TIP3    H143571   5.639   4.621   1.365  0.2900  0.4373  0.2487
 7360TIP3    H243572   5.781   4.568   1.368 -0.1205 -0.6961  0.1455
 7361TIP3   OH243573   6.432   0.804   2.658  0.1922  0.0759 -0.7354
 7361TIP3    H143574   6.466   0.733   2.604 -0.1815 -1.6128  1.1433
 7361TIP3    H243575   6.338   0.786   2.664  0.2590  0.0655  0.6401
 7362TIP3   OH243576   2.642   6.275   3.185  0.1650 -0.4731 -0.5552
 7362TIP3    H143577   2.645   6.257   3.091  0.9419  0.2167 -0.6827
 7362TIP3    H243578   2.734   6.289   3.210 -0.2186  3.7591 -0.6546
 7363TIP3   OH243579   5.632   6.820  14.588  0.9362  0.0109 -0.1302
 7363TIP3    H143580   5.693   6.768  14.642  1.2912 -0.8571 -1.3239
 7363TIP3    H243581   5.556   6.763  14.578  0.5559  0.4824  0.0978
 7364TIP3   OH243582   6.635   1.466  14.669  0.0252  0.3729 -0.1268
 7364TIP3    H143583   6.676   1.500  14.590  0.2510  1.4843  0.4445
 7364TIP3    H243584   6.704   1.413  14.711 -0.8983 -2.5267 -1.9697
 7365TIP3   OH243585   1.061   1.675  15.014  0.7019  0.1049  0.4248
 7365TIP3    H143586   1.020   1.744  15.066 -0.2586  0.7527 -1.1312
 7365TIP3    H243587   1.146   1.661  15.056  0.3345  1.2352  1.6143
 7366TIP3   OH243588   6.422   0.860  11.656 -0.2119 -0.0739  0.2220
 7366TIP3    H143589   6.478   0.933  11.682 -0.3650  0.1162  0.0179
 7366TIP3    H243590   6.424   0.860  11.561  1.5672 -1.7092  0.1863
 7367TIP3   OH243591   5.775   2.291  13.615 -0.6043  0.1718 -0.6816
 7367TIP3    H143592   5.741   2.346  13.544  0.7646  0.5551 -1.0669
 7367TIP3    H243593   5.754   2.340  13.695  0.3506  1.1505 -1.0049
 7368TIP3   OH243594   6.663   3.511   5.743  0.2030  0.2650  0.3804
 7368TIP3    H143595   6.582   3.461   5.737  0.0110  0.7083 -1.0526
 7368TIP3    H243596   6.694   3.496   5.832 -0.6508 -1.1406  0.4644
 7369TIP3   OH243597   2.297   3.537   1.662  0.2352 -0.0384 -0.7505
 7369TIP3    H143598   2.203   3.533   1.644  0.1945  0.6538 -0.7010
 7369TIP3    H243599   2.337   3.500   1.584 -0.1005 -1.2982 -0.3634
 7370TIP3   OH243600   5.034   2.184   2.866 -0.5081 -0.4716  0.5371
 7370TIP3    H143601   5.029   2.093   2.839 -0.5428 -0.5475  0.8008
 7370TIP3    H243602   5.048   2.233   2.785  1.7986 -0.9044  0.6188
 7371TIP3   OH243603   5.264   0.403  13.041  0.0143 -0.3608  0.4110
 7371TIP3    H143604   5.289   0.325  13.089 -0.5740 -0.7469  0.1020
 7371TIP3    H243605   5.346   0.451  13.028  0.5239 -1.3658 -0.1724
 7372TIP3   OH243606   3.248   0.514   0.462  0.8825 -0.1425 -0.3753
 7372TIP3    H143607   3.328   0.528   0.410  2.1399 -1.4345  1.1263
 7372TIP3    H243608   3.263   0.431   0.507 -2.3123 -1.6665 -1.8288
 7373TIP3   OH243609   3.802   5.758   5.993 -0.5897  0.3466 -0.0702
 7373TIP3    H143610   3.748   5.818   5.943 -2.1050 -1.8009 -1.1891
 7373TIP3    H243611   3.852   5.709   5.927 -0.3780 -0.4927  0.6860
 7374TIP3   OH243612   6.810   4.972   3.762  0.0458  0.2417  0.1042
 7374TIP3    H143613   6.791   4.926   3.843 -1.9802  0.5134 -0.1567
 7374TIP3    H243614   6.780   5.062   3.778  1.2029  0.7351 -0.3854
 7375TIP3   OH243615   3.056   2.063  15.713  0.2123 -0.0539 -0.0389
 7375TIP3    H143616   3.071   1.987  15.770  1.7019 -0.3281 -0.7486
 7375TIP3    H243617   3.035   2.134  15.774  0.0464 -0.7452  0.7278
 7376TIP3   OH243618   2.143   4.687  14.247  0.4778  0.9544  0.2356
 7376TIP3    H143619   2.064   4.737  14.265  0.4797  0.4788  1.7181
 7376TIP3    H243620   2.124   4.599  14.280  2.2555  1.3053  2.4194
 7377TIP3   OH243621   5.700   2.835   3.233 -0.0943  0.5664 -0.0461
 7377TIP3    H143622   5.717   2.816   3.141  0.8005  1.2599 -0.0416
 7377TIP3    H243623   5.609   2.863   3.236 -0.8389 -1.6409 -0.3460
 7378TIP3   OH243624   4.330   3.530  11.492 -0.3926 -0.0256  0.2417
 7378TIP3    H143625   4.414   3.499  11.458 -0.2197  0.7007 -0.0121
 7378TIP3    H243626   4.272   3.454  11.488  0.1389 -0.4207  0.0283
 7379TIP3   OH243627   1.261   3.151  16.042 -0.7153  0.4275  0.4078
 7379TIP3    H143628   1.214   3.226  16.078  0.3653  0.0526  2.8364
 7379TIP3    H243629   1.349   3.185  16.022 -0.2033 -0.1212  1.5757
 7380TIP3   OH243630   2.753   6.217  16.116 -0.0766 -0.0553  0.4780
 7380TIP3    H143631   2.686   6.209  16.184 -1.7377  0.1827 -1.0693
 7380TIP3    H243632   2.732   6.298  16.069  1.9701  0.6268  0.6005
 7381TIP3   OH243633   0.557   1.795  10.744 -0.2907  0.4570  0.3500
 7381TIP3    H143634   0.629   1.739  10.775  0.8717  1.1029 -1.0829
 7381TIP3    H243635   0.589   1.832  10.662 -3.5872 -2.0561 -2.3659
 7382TIP3   OH243636   5.438   0.989   4.443 -0.0330  0.1892  0.2960
 7382TIP3    H143637   5.346   0.985   4.416 -0.1295  0.5210  0.5759
 7382TIP3    H243638   5.486   0.956   4.367 -0.4648 -1.3866  0.6631
 7383TIP3   OH243639   2.365   0.790   1.074 -0.3136 -0.7405  0.0771
 7383TIP3    H143640   2.330   0.866   1.121  1.3664 -0.1444  0.4313
 7383TIP3    H243641   2.306   0.778   1.000 -0.8291  0.6738  0.2367
 7384TIP3   OH243642   6.170   6.805  13.084  0.8848 -0.0894  0.0779
 7384TIP3    H143643   6.094   6.860  13.064  0.9256 -0.1349 -0.2120
 7384TIP3    H243644   6.228   6.816  13.008  0.1485 -1.8367 -0.7962
 7385TIP3   OH243645   2.164   1.520   3.772  0.1511 -0.1137 -0.5971
 7385TIP3    H143646   2.095   1.493   3.712  0.1855 -0.6359 -0.4049
 7385TIP3    H243647   2.162   1.616   3.770  0.3269 -0.1248 -1.6220
 7386TIP3   OH243648   4.047   2.105   2.796 -0.0868  0.1207  0.2442
 7386TIP3    H143649   4.071   2.094   2.704  0.2325 -0.6672  0.4146
 7386TIP3    H243650   4.058   2.199   2.813 -0.8041  0.3850 -0.6944
 7387TIP3   OH243651   0.846   2.821  11.016 -0.5537  0.1731 -0.0495
 7387TIP3    H143652   0.804   2.765  10.951 -1.3529  1.0454 -0.3117
 7387TIP3    H243653   0.940   2.804  11.006 -0.7210 -0.3421 -0.8352
 7388TIP3   OH243654   4.443   5.823   0.949 -0.0773  0.2781  0.0517
 7388TIP3    H143655   4.526   5.788   0.917  0.0177 -0.8689  1.4725
 7388TIP3    H243656   4.406   5.869   0.873  1.7949  0.7594 -0.6242
 7389TIP3   OH243657   0.548   3.373   5.386 -0.5275 -0.3099  0.1003
 7389TIP3    H143658   0.586   3.307   5.444  0.4439 -1.0445 -1.3116
 7389TIP3    H243659   0.597   3.453   5.405  1.4702 -1.1105 -1.2959
 7390TIP3   OH243660   3.462   1.207   5.509 -0.2867 -0.6575 -0.0758
 7390TIP3    H143661   3.479   1.155   5.430  0.4610 -0.0788 -0.3117
 7390TIP3    H243662   3.378   1.250   5.491 -1.5161 -2.6396  0.6045
 7391TIP3   OH243663   1.693   0.231  13.857  0.0674 -0.4733 -0.1886
 7391TIP3    H143664   1.622   0.289  13.886 -0.7779 -1.3224 -0.4993
 7391TIP3    H243665   1.773   0.278  13.880 -0.5447 -0.6127  2.6288
 7392TIP3   OH243666   5.401   2.379  11.641  0.2133  0.1820  0.1813
 7392TIP3    H143667   5.470   2.332  11.596 -1.2069 -2.7210  0.8207
 7392TIP3    H243668   5.434   2.394  11.729  0.3887 -0.3414  0.2044
 7393TIP3   OH243669   2.182   3.316   4.112  0.2033  0.2582 -0.6327
 7393TIP3    H143670   2.179   3.224   4.138  3.1459  0.2879  0.1013
 7393TIP3    H243671   2.099   3.331   4.066 -2.0737 -1.7172  2.4745
 7394TIP3   OH243672   5.587   5.887   0.334 -0.5487  0.4247  0.4914
 7394TIP3    H143673   5.661   5.830   0.310 -0.8815  0.2371 -0.1230
 7394TIP3    H243674   5.628   5.961   0.378 -0.0236  0.1417  0.4956
 7395TIP3   OH243675   1.257   3.446  17.199  0.3213 -0.1887 -0.2686
 7395TIP3    H143676   1.323   3.504  17.238 -0.4006 -0.4260  1.3976
 7395TIP3    H243677   1.284   3.358  17.225  0.6369 -0.5248 -1.6198
 7396TIP3   OH243678   2.236   3.124   5.669  0.1341 -0.1536  0.3104
 7396TIP3    H143679   2.206   3.059   5.732 -0.8576  0.4023  0.4348
 7396TIP3    H243680   2.262   3.199   5.723  0.2100 -0.0332  0.1058
 7397TIP3   OH243681   3.038   1.610  17.123  0.2649  0.1061 -0.2806
 7397TIP3    H143682   3.105   1.605  17.055  0.1298  0.7409 -0.4685
 7397TIP3    H243683   2.956   1.587  17.079  0.2915 -0.2211 -0.1579
 7398TIP3   OH243684   6.264   6.312  11.630 -0.0852  0.5120  0.2027
 7398TIP3    H143685   6.301   6.226  11.650  0.1927  0.7968  0.9327
 7398TIP3    H243686   6.171   6.303  11.648  0.1296  0.7040  1.4468
 7399TIP3   OH243687   6.375   6.289   1.470  0.3103 -0.0650 -0.2714
 7399TIP3    H143688   6.315   6.358   1.498  1.7857  0.2069  2.4816
 7399TIP3    H243689   6.324   6.208   1.479 -0.2699  0.3279  0.0665
 7400TIP3   OH243690   3.993   0.715  14.205  0.1710  0.1125  0.2208
 7400TIP3    H143691   3.982   0.804  14.237  0.1224  0.7502 -1.5232
 7400TIP3    H243692   4.088   0.705  14.192  0.1773 -0.0966  0.4157
 7401TIP3   OH243693   1.845   1.639  15.173 -0.1017 -0.0074 -0.3479
 7401TIP3    H143694   1.856   1.659  15.266  0.7471  2.3326 -0.8781
 7401TIP3    H243695   1.759   1.599  15.168  0.0271 -0.6358  1.4974
 7402TIP3   OH243696   1.828   6.437   2.110 -0.8164  0.5685 -0.3155
 7402TIP3    H143697   1.907   6.384   2.098 -0.9828  0.3402 -0.4077
 7402TIP3    H243698   1.834   6.505   2.043 -0.7855  0.4461 -0.4367
 7403TIP3   OH243699   0.039   0.317   2.490 -0.0069  0.2157  0.1768
 7403TIP3    H143700   0.030   0.388   2.553  0.6592  0.7589 -0.3263
 7403TIP3    H243701   0.114   0.266   2.522 -0.2382 -0.0403  0.3191
 7404TIP3   OH243702   2.184   4.028  14.857  0.2433 -0.6192  0.1961
 7404TIP3    H143703   2.147   3.947  14.891 -1.6388  0.3606  0.6146
 7404TIP3    H243704   2.205   4.080  14.934 -2.5071  0.9392  0.0434
 7405TIP3   OH243705   3.569   3.366   4.712 -0.7251 -0.1719 -1.0993
 7405TIP3    H143706   3.527   3.339   4.793 -2.1085  0.9013 -1.4291
 7405TIP3    H243707   3.511   3.335   4.643 -0.8302  1.0445 -1.5801
 7406TIP3   OH243708   6.756   2.851   3.767 -0.4382 -0.0134 -0.2960
 7406TIP3    H143709   6.851   2.862   3.769 -0.5605  2.1142 -1.8949
 7406TIP3    H243710   6.723   2.917   3.829 -0.8982  0.1815 -0.7413
 7407TIP3   OH243711   1.761   4.490   2.226  0.2437 -0.1738  0.0181
 7407TIP3    H143712   1.693   4.431   2.257 -0.0095 -0.5537 -1.2078
 7407TIP3    H243713   1.841   4.438   2.227  0.3835  0.0412  0.7186
 7408TIP3   OH243714   4.268   4.252  16.245  0.6768 -0.4736  0.7527
 7408TIP3    H143715   4.316   4.295  16.174  0.4250 -0.3691  0.6464
 7408TIP3    H243716   4.313   4.168  16.256 -0.5050 -1.3840 -0.9045
 7409TIP3   OH243717   6.468   2.192  12.303 -0.3311 -0.0678  0.3806
 7409TIP3    H143718   6.375   2.214  12.303 -0.3998 -0.1834 -1.4902
 7409TIP3    H243719   6.503   2.238  12.227  0.7257 -1.5934 -0.1032
 7410TIP3   OH243720   4.098   1.728   0.233 -0.1041  0.0114  0.2501
 7410TIP3    H143721   4.191   1.721   0.255 -0.1816 -0.3208  0.4804
 7410TIP3    H243722   4.055   1.750   0.316 -0.2724 -0.1795  0.2132
 7411TIP3   OH243723   3.444   4.113  15.432  0.1782  0.4527 -0.1732
 7411TIP3    H143724   3.410   4.043  15.487 -0.1757  0.8836  0.1581
 7411TIP3    H243725   3.432   4.192  15.483  0.4808  0.7724 -0.5905
 7412TIP3   OH243726   1.112   2.399   1.787  0.4093 -0.2460 -0.3236
 7412TIP3    H143727   1.190   2.358   1.752  1.2243  0.2249  0.8658
 7412TIP3    H243728   1.107   2.368   1.878 -0.7090 -0.1752 -0.3448
 7413TIP3   OH243729   6.807   5.053  14.037  1.1927 -0.0538  0.0408
 7413TIP3    H143730   6.788   4.961  14.054  0.1831  0.1133 -0.1213
 7413TIP3    H243731   6.803   5.095  14.123  0.4396  0.0348 -0.0255
 7414TIP3   OH243732   6.622   4.756  16.052 -0.2516 -0.8770  0.1562
 7414TIP3    H143733   6.687   4.696  16.088 -1.5011 -1.6578  1.1755
 7414TIP3    H243734   6.629   4.834  16.106  1.6352  0.1390 -1.4019
 7415TIP3   OH243735   2.449   5.302   2.837 -0.0641  0.2687 -0.4672
 7415TIP3    H143736   2.505   5.226   2.821  0.3184  0.7717 -1.6089
 7415TIP3    H243737   2.369   5.283   2.789  0.7954  1.4385 -2.5366
 7416TIP3   OH243738   5.771   4.462   4.984 -0.0776  0.6551  0.6089
 7416TIP3    H143739   5.749   4.505   4.902  1.1684  2.2185  1.0361
 7416TIP3    H243740   5.709   4.499   5.048 -2.3079 -1.9440  0.1107
 7417TIP3   OH243741   3.699   2.023  12.055  0.2205 -0.1478  0.1824
 7417TIP3    H143742   3.654   2.026  12.140 -0.0710  1.3107  0.0124
 7417TIP3    H243743   3.645   1.964  12.001  0.6067 -1.3674  1.0880
 7418TIP3   OH243744   6.697   5.275   4.389  0.3228 -0.5284  0.0242
 7418TIP3    H143745   6.744   5.359   4.381  1.6495 -1.3434 -1.3194
 7418TIP3    H243746   6.706   5.251   4.481  1.0646  0.1839  0.1494
 7419TIP3   OH243747   0.079   1.777   5.657  0.2659  0.2094 -0.8662
 7419TIP3    H143748   0.074   1.857   5.710 -0.9605  1.7927 -3.2112
 7419TIP3    H243749   0.113   1.711   5.718 -0.5009  2.0065  1.7104
 7420TIP3   OH243750   2.671   2.150  10.633 -0.4395 -0.4898 -0.4407
 7420TIP3    H143751   2.617   2.071  10.635 -0.6068 -0.3646  1.1654
 7420TIP3    H243752   2.722   2.147  10.713 -1.5263  1.7460  0.4267
 7421TIP3   OH243753   5.952   5.637  14.629 -0.3383  0.1965 -0.5830
 7421TIP3    H143754   6.026   5.673  14.679 -0.6930  0.5025 -0.2667
 7421TIP3    H243755   5.882   5.628  14.694 -0.0950 -1.6319 -0.5191
 7422TIP3   OH243756   4.064   5.784  12.985  0.4851  0.1221 -0.9857
 7422TIP3    H143757   4.054   5.833  13.067 -0.9598  0.8346 -1.5406
 7422TIP3    H243758   4.141   5.730  12.999 -0.2557 -0.5070  1.2293
 7423TIP3   OH243759   2.892   3.540  12.911 -0.0572 -0.1925 -0.0692
 7423TIP3    H143760   2.933   3.622  12.884  0.3905 -0.5812 -0.6019
 7423TIP3    H243761   2.894   3.486  12.832  0.3173 -0.9797  0.4698
 7424TIP3   OH243762   1.781   4.121   6.430 -0.0624  0.3232  0.1397
 7424TIP3    H143763   1.869   4.149   6.456 -0.5812  0.7245  1.5689
 7424TIP3    H243764   1.781   4.026   6.443 -0.3746  0.5242  2.0111
 7425TIP3   OH243765   4.698   2.853   0.535  0.0175 -0.2390  0.0080
 7425TIP3    H143766   4.657   2.770   0.510 -0.0786 -0.1373 -0.1725
 7425TIP3    H243767   4.784   2.852   0.491  1.2644 -1.5385  2.2912
 7426TIP3   OH243768   3.611   0.416   4.966  0.1781  0.4408 -0.2523
 7426TIP3    H143769   3.553   0.492   4.963 -1.2867 -0.4872  1.9633
 7426TIP3    H243770   3.685   0.444   5.020  0.8624  0.9967 -1.4348
 7427TIP3   OH243771   0.479   2.558   1.313 -0.1342  0.5561 -0.5263
 7427TIP3    H143772   0.408   2.598   1.364  0.5106 -0.0844  0.9332
 7427TIP3    H243773   0.456   2.465   1.308  0.2144  0.4770 -0.7037
 7428TIP3   OH243774   6.130   1.874  13.313  0.0270 -0.1999 -0.5315
 7428TIP3    H143775   6.124   1.820  13.391  1.3108  0.3694 -0.0136
 7428TIP3    H243776   6.182   1.950  13.340 -1.5465  1.2010 -1.3009
 7429TIP3   OH243777   6.834   3.422  14.046 -0.5613  0.1027  0.4692
 7429TIP3    H143778   6.802   3.396  13.960  2.2830 -1.0814 -0.3106
 7429TIP3    H243779   6.828   3.342  14.099  0.9277 -0.1361  0.3194
 7430TIP3   OH243780   0.127   1.144  15.919  0.5757 -0.3331  0.6975
 7430TIP3    H143781   0.103   1.123  16.009  0.4288 -0.7714  0.5608
 7430TIP3    H243782   0.071   1.087  15.866  1.1982 -0.6274  0.3458
 7431TIP3   OH243783   4.906   3.781  12.298  0.2560  0.1248 -0.0840
 7431TIP3    H143784   4.858   3.710  12.339  0.4044  0.3896  0.5658
 7431TIP3    H243785   4.867   3.790  12.211 -1.9889  1.3910  0.9713
 7432TIP3   OH243786   0.815   6.209  16.050 -0.4621 -0.1327 -0.3600
 7432TIP3    H143787   0.901   6.167  16.045 -0.9626 -1.0963 -1.1671
 7432TIP3    H243788   0.831   6.300  16.027  0.5917  0.0955  1.0802
 7433TIP3   OH243789   1.249   6.831   2.213  0.2600  0.5859  0.2470
 7433TIP3    H143790   1.323   6.776   2.238  0.1308 -0.0092 -0.6717
 7433TIP3    H243791   1.186   6.821   2.285  1.1325  1.2531  1.1313
 7434TIP3   OH243792   1.681   1.351   4.599 -0.4262  0.0190 -0.0028
 7434TIP3    H143793   1.638   1.278   4.555 -4.2511  2.0544 -0.0697
 7434TIP3    H243794   1.656   1.343   4.691  1.4508 -0.1968  0.5364
 7435TIP3   OH243795   2.186   4.423  13.195  0.0172  0.0133  0.1148
 7435TIP3    H143796   2.241   4.457  13.266  0.4780  0.2394 -0.3392
 7435TIP3    H243797   2.155   4.339  13.226 -0.6987  0.6043  1.0462
 7436TIP3   OH243798   1.587   4.727   3.199 -0.2676 -0.8996  0.1712
 7436TIP3    H143799   1.519   4.781   3.158 -0.8194 -2.5049 -1.0876
 7436TIP3    H243800   1.543   4.686   3.273 -1.0857 -2.8867 -1.3440
 7437TIP3   OH243801   4.192   2.497   3.098  0.0774  0.4908  0.6817
 7437TIP3    H143802   4.219   2.422   3.151  1.5667 -2.2928 -3.4966
 7437TIP3    H243803   4.103   2.477   3.071 -0.5372  1.6919  1.7389
 7438TIP3   OH243804   0.804   4.623  10.125  0.4908  0.0448  0.6017
 7438TIP3    H143805   0.764   4.543  10.089 -0.4635 -0.4183  2.5866
 7438TIP3    H243806   0.771   4.629  10.214  1.6541  1.9324  0.9649
 7439TIP3   OH243807   6.696   4.081   0.232 -0.3860 -0.3810 -0.2071
 7439TIP3    H143808   6.791   4.091   0.234 -0.2345 -1.2191 -1.7920
 7439TIP3    H243809   6.665   4.167   0.202 -0.1197 -0.2182 -0.0335
 7440TIP3   OH243810   3.964   1.672  12.420 -0.8470 -0.0353  0.1687
 7440TIP3    H143811   4.035   1.724  12.457 -0.5140  0.3091 -0.9177
 7440TIP3    H243812   3.924   1.730  12.355 -0.4254 -1.1425 -1.1134
 7441TIP3   OH243813   6.248   1.911   1.927  0.1382 -0.6451 -0.4155
 7441TIP3    H143814   6.322   1.907   1.868 -0.1410  2.4924 -1.1411
 7441TIP3    H243815   6.217   1.821   1.934  2.3054 -1.5993 -2.2628
 7442TIP3   OH243816   3.655   2.843  14.680 -0.0277  0.1667  0.2143
 7442TIP3    H143817   3.620   2.796  14.605 -0.2587  1.3966 -0.4663
 7442TIP3    H243818   3.653   2.935  14.654 -1.5532  0.7977  2.2740
 7443TIP3   OH243819   3.599   5.895  10.551 -0.4734  0.0074  0.2398
 7443TIP3    H143820   3.562   5.980  10.529 -0.4021 -0.2923 -1.1309
 7443TIP3    H243821   3.529   5.832  10.532 -0.2522 -0.3018  0.4288
 7444TIP3   OH243822   5.543   0.172  16.820  0.1421 -0.0632 -0.8038
 7444TIP3    H143823   5.569   0.082  16.841  0.2184  0.1309 -0.0499
 7444TIP3    H243824   5.492   0.164  16.739 -0.3719 -0.8607 -0.4121
 7445TIP3   OH243825   3.602   3.926  16.352 -0.1292 -0.0987 -0.0099
 7445TIP3    H143826   3.549   3.869  16.296 -1.2218  0.4504  0.4165
 7445TIP3    H243827   3.559   3.922  16.438  0.9065 -0.1231  0.5270
 7446TIP3   OH243828   2.708   1.534   0.212 -0.2902  0.1101  0.0573
 7446TIP3    H143829   2.765   1.460   0.194 -0.9923 -0.1721 -1.0724
 7446TIP3    H243830   2.757   1.610   0.182  0.0760  0.0185  0.4186
 7447TIP3   OH243831   6.584   0.717  13.400  0.0268  0.0866 -0.0240
 7447TIP3    H143832   6.573   0.799  13.352  0.6923  0.2070  0.0278
 7447TIP3    H243833   6.669   0.725  13.442  1.7192 -2.0168 -2.7184
 7448TIP3   OH243834   4.654   0.050   2.127  0.1443 -0.3564  0.0144
 7448TIP3    H143835   4.681   0.125   2.073 -1.8426  0.5409  0.1958
 7448TIP3    H243836   4.713   0.053   2.202  0.2151  0.9158 -0.0744
 7449TIP3   OH243837   0.011   5.554  12.986  0.1513  0.2357  0.1417
 7449TIP3    H143838  -0.006   5.460  12.996  0.2966  0.2692  0.7418
 7449TIP3    H243839   0.037   5.564  12.894 -0.6059 -0.1926 -0.1256
 7450TIP3   OH243840   3.623   4.271   1.778 -0.3931  0.1037  0.3773
 7450TIP3    H143841   3.717   4.281   1.792 -0.6209  2.8991  0.5953
 7450TIP3    H243842   3.615   4.251   1.684  0.3994  0.9648  0.1106
 7451TIP3   OH243843   0.012   4.168   1.637  0.1423  0.2231  0.3410
 7451TIP3    H143844   0.018   4.241   1.576 -0.2583 -0.1803 -0.1915
 7451TIP3    H243845  -0.082   4.155   1.651  0.1566 -0.9060 -0.4601
 7452TIP3   OH243846   4.970   3.629  17.020  1.1019 -0.4182  0.6957
 7452TIP3    H143847   4.876   3.630  17.040  1.1335  1.0719  0.9270
 7452TIP3    H243848   5.008   3.572  17.086  0.4341 -0.5507  0.9795
 7453TIP3   OH243849   2.726   3.321  11.488 -0.1822  0.0314  0.0418
 7453TIP3    H143850   2.817   3.342  11.511 -0.1879 -2.0885  2.5140
 7453TIP3    H243851   2.677   3.400  11.512  0.6738  0.1279  1.6310
 7454TIP3   OH243852   5.782   2.249  13.023  0.7007  0.6944 -0.1347
 7454TIP3    H143853   5.821   2.177  13.072  0.0110  1.3702  1.4929
 7454TIP3    H243854   5.746   2.307  13.090  0.9591  2.4093 -1.3980
 7455TIP3   OH243855   4.410   1.198  14.484  0.0418 -0.1747  0.2381
 7455TIP3    H143856   4.470   1.135  14.444  0.3072 -0.2198  0.7099
 7455TIP3    H243857   4.448   1.284  14.462 -0.5887 -0.1509 -0.8351
 7456TIP3   OH243858   3.904   3.167   5.531  0.5827 -0.3841 -0.2902
 7456TIP3    H143859   3.846   3.171   5.607  1.7673 -2.0669  0.7852
 7456TIP3    H243860   3.969   3.235   5.547  1.9617 -1.9787  1.2721
 7457TIP3   OH243861   5.033   5.424   0.011  0.0166  0.2693 -0.1333
 7457TIP3    H143862   5.104   5.482   0.039 -1.9365  2.1519  1.1955
 7457TIP3    H243863   5.062   5.336   0.036  2.1107  0.8897 -0.2000
 7458TIP3   OH243864   2.123   0.436  14.412 -0.0048 -0.5804  0.1157
 7458TIP3    H143865   2.077   0.444  14.496 -0.0248 -0.5239  0.0988
 7458TIP3    H243866   2.171   0.518  14.403 -1.8186  0.4159 -1.0283
 7459TIP3   OH243867   4.411   2.160  15.354  0.3338  0.2012  0.1266
 7459TIP3    H143868   4.316   2.170  15.356  0.3525  0.2943  0.9458
 7459TIP3    H243869   4.443   2.227  15.414  0.8063 -0.9515  1.2196
 7460TIP3   OH243870   4.544   3.109   4.412  0.1904  0.0960 -0.0126
 7460TIP3    H143871   4.508   3.145   4.493 -0.8949 -0.1406 -0.3648
 7460TIP3    H243872   4.572   3.021   4.436 -1.0483 -0.3430 -0.0985
 7461TIP3   OH243873   2.907   2.357   0.285 -0.3414  0.1856  0.7805
 7461TIP3    H143874   2.997   2.327   0.272 -0.1715  1.3685 -1.2040
 7461TIP3    H243875   2.856   2.277   0.296  0.5905 -0.6635 -0.7428
 7462TIP3   OH243876   6.267   6.264   0.782  0.0029  0.1652 -0.0262
 7462TIP3    H143877   6.351   6.277   0.738 -0.3581  0.2557 -0.7104
 7462TIP3    H243878   6.245   6.351   0.816 -0.2911  0.3742 -0.7311
 7463TIP3   OH243879   0.006   0.662  12.347  0.1174  0.1277 -0.1422
 7463TIP3    H143880   0.021   0.727  12.415 -0.0312  1.0151 -0.9374
 7463TIP3    H243881  -0.000   0.713  12.266 -2.4102 -0.5938 -0.5033
 7464TIP3   OH243882   5.137   1.671   6.602 -0.0673 -0.1104 -0.0323
 7464TIP3    H143883   5.058   1.713   6.636 -0.2789  0.4153 -1.1485
 7464TIP3    H243884   5.206   1.697   6.662  0.1355  3.1718 -1.4886
 7465TIP3   OH243885   1.156   1.792  10.432 -0.4105 -0.1859 -0.5973
 7465TIP3    H143886   1.200   1.721  10.384  0.9238 -0.5970  1.1233
 7465TIP3    H243887   1.228   1.843  10.469 -1.3912  0.1502  0.8801
 7466TIP3   OH243888   6.819   5.492   3.254 -0.9792  0.1419  0.0625
 7466TIP3    H143889   6.815   5.546   3.175 -0.9190 -0.2340 -0.1996
 7466TIP3    H243890   6.908   5.457   3.254 -0.9272  0.2690  0.3842
 7467TIP3   OH243891   6.118   6.164   2.414  0.1344 -0.4351  0.4602
 7467TIP3    H143892   6.083   6.105   2.482 -0.6615  0.8978  1.2742
 7467TIP3    H243893   6.043   6.180   2.356 -0.0110  0.6345  0.9054
 7468TIP3   OH243894   3.595   1.915   5.102 -0.6251  0.2925  0.5288
 7468TIP3    H143895   3.617   1.877   5.188  0.6775 -0.5017 -0.1163
 7468TIP3    H243896   3.663   1.981   5.087 -0.0820 -0.4590 -0.4231
 7469TIP3   OH243897   5.674   6.726  15.928 -0.4284  0.5155 -0.1506
 7469TIP3    H143898   5.744   6.752  15.988 -0.3662  1.4560 -0.6198
 7469TIP3    H243899   5.610   6.681  15.985  0.7677 -0.8499  0.1941
 7470TIP3   OH243900   6.516   5.213  11.123 -0.4427 -0.6133 -0.3416
 7470TIP3    H143901   6.486   5.302  11.140 -0.9856 -0.8361 -0.1005
 7470TIP3    H243902   6.608   5.223  11.099 -1.1907  0.3206 -3.1786
 7471TIP3   OH243903   5.596   6.005  12.223 -0.0773  0.5729  0.3258
 7471TIP3    H143904   5.593   5.910  12.212 -1.1031  0.3140  2.3810
 7471TIP3    H243905   5.600   6.039  12.134 -1.1720 -1.3433 -0.5232
 7472TIP3   OH243906   2.941   2.507   2.120 -0.4347  1.2310 -0.5002
 7472TIP3    H143907   2.856   2.463   2.111  2.0329 -3.9703 -2.6552
 7472TIP3    H243908   2.967   2.527   2.030  1.0474  1.8355  0.0350
 7473TIP3   OH243909   6.413   4.864  12.202 -0.3113 -0.0146 -0.1537
 7473TIP3    H143910   6.500   4.885  12.168 -0.0112 -0.7785  0.1071
 7473TIP3    H243911   6.395   4.931  12.267  0.4393 -0.3123  0.3745
 7474TIP3   OH243912   6.798   6.179   3.684  0.1138  0.0918  0.0685
 7474TIP3    H143913   6.886   6.215   3.696  0.6301 -0.4602 -1.7628
 7474TIP3    H243914   6.746   6.254   3.654  0.3582  0.0581 -0.4416
 7475TIP3   OH243915   5.437   0.518   0.558  0.0371 -0.0729 -0.1517
 7475TIP3    H143916   5.370   0.456   0.529  0.8939 -1.0011 -0.2017
 7475TIP3    H243917   5.504   0.514   0.490  1.0945 -0.7037  0.8848
 7476TIP3   OH243918   6.321   4.826   2.233 -0.3456  0.1022  0.5341
 7476TIP3    H143919   6.384   4.878   2.283 -1.0784  1.6528 -0.0584
 7476TIP3    H243920   6.284   4.765   2.296  0.5131  0.3393  1.2902
 7477TIP3   OH243921   6.177   2.572   0.719 -0.0450 -0.4859  0.3982
 7477TIP3    H143922   6.216   2.653   0.752 -1.6653  0.2421  0.6199
 7477TIP3    H243923   6.236   2.544   0.649  2.1983 -0.7877  2.2608
 7478TIP3   OH243924   5.204   2.234   5.164  0.5438  1.4255 -0.0006
 7478TIP3    H143925   5.122   2.220   5.211 -0.2442  1.6623 -1.2582
 7478TIP3    H243926   5.271   2.229   5.231 -0.4330  0.4733  0.9351
 7479TIP3   OH243927   4.303   0.227  14.682 -0.0486  0.3593 -0.6016
 7479TIP3    H143928   4.379   0.281  14.659 -0.2431  0.2830 -1.4500
 7479TIP3    H243929   4.314   0.210  14.775  1.4963 -0.4421 -0.8889
 7480TIP3   OH243930   2.234   6.392  13.210 -0.0965 -0.2266  0.5351
 7480TIP3    H143931   2.206   6.457  13.274  0.1020  0.3765  0.0228
 7480TIP3    H243932   2.152   6.356  13.176 -0.1934 -1.0733  1.6410
 7481TIP3   OH243933   0.881   4.438  15.541  0.1042  0.2763  0.2792
 7481TIP3    H143934   0.808   4.378  15.528  0.8120 -0.5423 -0.0660
 7481TIP3    H243935   0.847   4.523  15.516 -1.0942  0.1323  1.3406
 7482TIP3   OH243936   3.708   2.563  15.879  0.4753 -0.5243  0.6160
 7482TIP3    H143937   3.671   2.489  15.832 -0.0578  0.8882 -1.3385
 7482TIP3    H243938   3.646   2.635  15.862  1.7099  0.7301  1.2088
 7483TIP3   OH243939   5.938   4.832  16.431 -0.0979 -0.0708  0.7591
 7483TIP3    H143940   5.966   4.764  16.371  0.2809  1.2149 -0.5621
 7483TIP3    H243941   5.918   4.785  16.512  2.2185 -1.5093  0.5963
 7484TIP3   OH243942   3.922   3.319   1.374 -0.3791  0.7107 -0.9222
 7484TIP3    H143943   3.846   3.375   1.390 -0.2715  0.5410  0.2172
 7484TIP3    H243944   3.889   3.230   1.382  0.2698  0.6317  1.3462
 7485TIP3   OH243945   5.813   4.193   4.970 -0.5447 -0.4764  0.0371
 7485TIP3    H143946   5.811   4.289   4.973  4.1439 -0.1974  1.9135
 7485TIP3    H243947   5.778   4.165   5.054 -3.5110 -0.7240 -1.1234
 7486TIP3   OH243948   4.733   3.151  14.353 -0.7094  0.7910  0.1871
 7486TIP3    H143949   4.829   3.148  14.351 -0.7305 -0.7538  0.2139
 7486TIP3    H243950   4.711   3.151  14.446 -0.7269 -3.0746  0.3466
 7487TIP3   OH243951   5.214   1.346   4.159  0.0119 -0.1012 -0.2703
 7487TIP3    H143952   5.185   1.330   4.249 -0.2440  0.9070 -0.1648
 7487TIP3    H243953   5.204   1.261   4.115  1.0337 -0.8455  0.8795
 7488TIP3   OH243954   4.343   1.737   2.287 -0.2541  0.3176 -0.2375
 7488TIP3    H143955   4.251   1.759   2.297 -0.4294 -0.5494  0.1165
 7488TIP3    H243956   4.384   1.819   2.259 -1.3953  0.3142 -2.0419
 7489TIP3   OH243957   1.296   4.651  15.175  0.4644  0.3527 -0.3006
 7489TIP3    H143958   1.333   4.565  15.193  0.1498  0.4976  1.1667
 7489TIP3    H243959   1.201   4.639  15.182  0.4180  0.8113 -0.0919
 7490TIP3   OH243960   3.289   4.965  14.468  0.4453  0.3052  0.4006
 7490TIP3    H143961   3.310   4.901  14.400  0.2317  0.4028  0.2416
 7490TIP3    H243962   3.372   4.979  14.514  0.1065 -1.5689  1.7290
 7491TIP3   OH243963   5.979   0.314  13.726  0.0995 -0.3809  0.6763
 7491TIP3    H143964   6.024   0.315  13.642 -1.4163 -0.3608 -0.1607
 7491TIP3    H243965   6.020   0.242  13.774  3.2800  1.6486  1.2784
 7492TIP3   OH243966   3.250   3.765   0.381  0.2676 -0.0743  0.3814
 7492TIP3    H143967   3.172   3.737   0.429 -1.1237  1.0693 -1.0947
 7492TIP3    H243968   3.309   3.800   0.449 -1.4756  1.1744  1.3320
 7493TIP3   OH243969   6.332   0.749  13.129 -0.0021 -0.4668  0.0596
 7493TIP3    H143970   6.245   0.736  13.167 -1.1458  1.1851 -1.8177
 7493TIP3    H243971   6.325   0.712  13.041  1.0296  0.1237 -0.2866
 7494TIP3   OH243972   0.940   3.992   2.343 -0.7824 -0.1797  0.0549
 7494TIP3    H143973   0.952   4.056   2.272  0.0293  1.0920  1.2798
 7494TIP3    H243974   0.898   4.043   2.413 -0.5073 -1.1075  0.9113
 7495TIP3   OH243975   6.476   0.705  15.448 -0.1495  0.3350 -0.3972
 7495TIP3    H143976   6.383   0.728  15.445 -0.2787 -0.2401 -1.1912
 7495TIP3    H243977   6.484   0.646  15.524  0.2675  3.1452  1.9287
 7496TIP3   OH243978   3.822   0.214   1.779  0.0925  0.5908 -0.6238
 7496TIP3    H143979   3.827   0.147   1.846 -0.4676  2.0348  0.9472
 7496TIP3    H243980   3.810   0.296   1.828  0.3585  1.7907 -2.4618
 7497TIP3   OH243981   6.278   2.011  11.737  0.2339  0.0397 -0.2554
 7497TIP3    H143982   6.318   1.952  11.800  0.3115  0.9974  0.6286
 7497TIP3    H243983   6.200   1.965  11.705 -1.3964  0.5620  2.6177
 7498TIP3   OH243984   5.693   5.270  16.089  0.0528 -0.0930 -0.5499
 7498TIP3    H143985   5.703   5.178  16.064 -0.7980 -0.2683 -0.2924
 7498TIP3    H243986   5.610   5.272  16.138  1.1435  0.4146  1.3872
 7499TIP3   OH243987   3.203   6.061  10.301 -0.1290  0.2950 -0.5811
 7499TIP3    H143988   3.189   6.135  10.359  0.4726  0.5531 -0.7629
 7499TIP3    H243989   3.295   6.039  10.311 -0.1393  0.0190 -1.0523
 7500TIP3   OH243990   6.479   4.035   0.388 -0.1587 -0.3117 -0.2034
 7500TIP3    H143991   6.537   4.052   0.313 -2.7064  1.2864 -1.9843
 7500TIP3    H243992   6.531   3.979   0.446  2.6037 -0.1566 -2.2949
 7501TIP3   OH243993   6.327   3.310  11.628 -0.2124  0.3690  1.0261
 7501TIP3    H143994   6.418   3.282  11.617  0.2031  2.0297 -0.3517
 7501TIP3    H243995   6.292   3.312  11.539 -1.2285  0.9075  1.4196
 7502TIP3   OH243996   5.045   6.586   6.552 -0.1021 -0.5732 -0.2562
 7502TIP3    H143997   4.987   6.604   6.479  1.7655 -0.5694 -1.8006
 7502TIP3    H243998   5.005   6.512   6.598 -0.5158 -1.6323 -2.2317
 7503TIP3   OH243999   6.454   5.661  17.018  0.3317  0.2878  0.5075
 7503TIP3    H144000   6.480   5.569  17.012  0.8906  0.4759 -0.1689
 7503TIP3    H244001   6.533   5.710  16.993 -0.4277  0.9007 -0.7919
 7504TIP3   OH244002   1.576   0.636  14.206  0.3777  0.0143 -0.2104
 7504TIP3    H144003   1.525   0.689  14.267 -0.1727  0.0318 -0.6782
 7504TIP3    H244004   1.511   0.590  14.153  0.8328  0.4277 -1.1565
 7505TIP3   OH244005   2.397   6.265  16.948  0.7957  0.1936 -0.3006
 7505TIP3    H144006   2.345   6.287  16.870  1.5061  0.5005 -0.7008
 7505TIP3    H244007   2.421   6.350  16.985  1.0904  0.0529 -0.1691
 7506TIP3   OH244008   1.035   1.908  11.504  0.8207  0.5265 -0.0696
 7506TIP3    H144009   0.994   1.961  11.573 -0.9938  0.1438 -0.8041
 7506TIP3    H244010   1.034   1.819  11.538 -0.0079  0.3483 -0.5360
 7507TIP3   OH244011   4.330   2.917   5.463  0.4633 -0.0384 -0.1173
 7507TIP3    H144012   4.408   2.899   5.411  0.3400 -0.0863 -0.2878
 7507TIP3    H244013   4.278   2.837   5.458  1.8450 -1.2262  2.6445
 7508TIP3   OH244014   0.712   0.895  12.756 -0.3383  0.0166 -0.1054
 7508TIP3    H144015   0.675   0.934  12.676 -0.6616 -0.4474 -0.1836
 7508TIP3    H244016   0.732   0.970  12.811 -1.2387  0.2921 -0.1363
 7509TIP3   OH244017   5.582   2.652  15.400 -0.5838 -0.5577  0.0605
 7509TIP3    H144018   5.667   2.620  15.431 -0.9779 -0.1040  1.6782
 7509TIP3    H244019   5.519   2.621  15.465 -1.1638  2.2993  1.0154
 7510TIP3   OH244020   2.903   6.555  12.294 -0.2932  0.2197 -0.3400
 7510TIP3    H144021   2.973   6.495  12.270  0.0359 -0.8554  2.8602
 7510TIP3    H244022   2.826   6.500  12.303 -0.2786  0.4035  1.3376
 7511TIP3   OH244023   4.225   6.254   5.463  0.6054 -0.7209 -0.3325
 7511TIP3    H144024   4.151   6.237   5.520  0.6615 -0.1333 -0.0831
 7511TIP3    H244025   4.208   6.201   5.385  0.2084 -1.0191 -0.0440
 7512TIP3   OH244026   4.243   6.567  12.084  0.2645  0.0718  0.0619
 7512TIP3    H144027   4.159   6.589  12.044  0.4148 -0.7627 -0.7534
 7512TIP3    H244028   4.263   6.641  12.141 -1.6566 -0.2977  1.3134
 7513TIP3   OH244029   5.759   1.860   2.065  0.2760  0.2609  0.3011
 7513TIP3    H144030   5.853   1.843   2.060  0.2265 -2.7838  4.3564
 7513TIP3    H244031   5.750   1.930   2.130 -0.2081 -0.8900  1.5280
 7514TIP3   OH244032   5.197   5.978   1.930  0.2376  0.1748 -0.1715
 7514TIP3    H144033   5.226   6.047   1.990  0.7117 -0.1188 -0.0562
 7514TIP3    H244034   5.130   6.020   1.877 -0.2830  0.4065  0.6430
 7515TIP3   OH244035   5.293   4.000   1.693 -0.1193 -0.0978  0.3387
 7515TIP3    H144036   5.364   4.023   1.754 -1.0937 -0.6000  1.7064
 7515TIP3    H244037   5.213   4.015   1.743 -0.9102 -1.8354 -0.3530
 7516TIP3   OH244038   4.583   0.342   3.113  0.1510 -0.1309 -0.3702
 7516TIP3    H144039   4.562   0.409   3.048  1.9087  0.5779 -0.2370
 7516TIP3    H244040   4.560   0.382   3.197  0.0485 -0.1674 -0.3806
 7517TIP3   OH244041   1.834   0.162   1.437  0.1336 -0.0664  0.1510
 7517TIP3    H144042   1.807   0.207   1.357 -0.6967  0.1220  0.5190
 7517TIP3    H244043   1.764   0.098   1.453 -0.6984  1.1439  1.7041
 7518TIP3   OH244044   2.420   2.194   1.709 -0.0370 -0.1607 -0.2459
 7518TIP3    H144045   2.412   2.142   1.789  0.4269  0.2265  0.0612
 7518TIP3    H244046   2.482   2.264   1.733 -0.2433  0.2158 -0.8087
 7519TIP3   OH244047   2.455   5.006  11.160 -0.2544 -1.0255 -0.1195
 7519TIP3    H144048   2.372   5.014  11.114 -0.7676 -1.6565  0.6815
 7519TIP3    H244049   2.519   4.990  11.090 -0.5831  0.6804 -0.8632
 7520TIP3   OH244050   5.446   3.609  16.134  0.1679 -0.5633  0.2410
 7520TIP3    H144051   5.507   3.623  16.062 -1.0155 -0.1083 -0.6920
 7520TIP3    H244052   5.384   3.681  16.129 -1.2831 -1.7504  0.2950
 7521TIP3   OH244053   2.780   2.711   5.314  0.3946 -0.6331 -0.4097
 7521TIP3    H144054   2.817   2.668   5.237 -1.2056 -0.3775 -1.3711
 7521TIP3    H244055   2.823   2.796   5.317 -0.8653  0.1356 -2.2023
 7522TIP3   OH244056   6.369   4.516   3.862 -0.7300 -0.0470 -0.0060
 7522TIP3    H144057   6.442   4.577   3.871 -0.3911 -0.1584 -1.7044
 7522TIP3    H244058   6.301   4.551   3.920  0.2827  0.6443  0.7923
 7523TIP3   OH244059   1.501   2.019  14.232  0.1983 -0.6058  0.5413
 7523TIP3    H144060   1.551   2.101  14.228  1.5601 -1.4038  0.6559
 7523TIP3    H244061   1.503   1.985  14.143 -1.2511 -0.0277  0.2644
 7524TIP3   OH244062   2.761   1.294   1.671 -0.0427 -0.0660 -0.4940
 7524TIP3    H144063   2.720   1.293   1.585 -1.3612  0.6987  0.0966
 7524TIP3    H244064   2.708   1.235   1.724 -0.1633  0.6304  0.1759
 7525TIP3   OH244065   5.647   1.442   1.264 -0.2549  0.4867 -0.1568
 7525TIP3    H144066   5.652   1.355   1.225 -0.6820 -0.4652  1.7879
 7525TIP3    H244067   5.686   1.500   1.198 -2.0349 -0.7892 -2.5061
 7526TIP3   OH244068   3.494   0.312   1.965  0.2280  0.6568 -0.2111
 7526TIP3    H144069   3.538   0.254   2.028  0.4932  0.9451 -0.1276
 7526TIP3    H244070   3.555   0.385   1.953 -0.0117  0.8148 -0.4768
 7527TIP3   OH244071   1.739   2.921   0.648  0.4059 -0.0491 -0.0111
 7527TIP3    H144072   1.800   2.864   0.696  0.1229 -1.7067 -1.4967
 7527TIP3    H244073   1.783   2.937   0.564  0.3637  1.7790  0.2772
 7528TIP3   OH244074   4.362   5.418  16.357 -0.6668 -0.0650  0.3101
 7528TIP3    H144075   4.412   5.496  16.382 -0.1953 -0.3892  0.3780
 7528TIP3    H244076   4.277   5.430  16.400 -0.0262 -0.3977  1.7406
 7529TIP3   OH244077   5.457   4.542  15.237  0.4307 -0.8754  0.2178
 7529TIP3    H144078   5.439   4.620  15.290  0.9120 -0.9173  0.4475
 7529TIP3    H244079   5.546   4.516  15.261  0.5884 -1.0031 -0.4854
 7530TIP3   OH244080   1.522   2.123  15.643 -0.8675 -0.4784  1.0559
 7530TIP3    H144081   1.476   2.043  15.620 -0.8013 -0.6500  1.5279
 7530TIP3    H244082   1.575   2.100  15.719 -0.9599  0.0448  1.2858
 7531TIP3   OH244083   3.387   0.917  13.515  0.0674 -0.0634  0.4940
 7531TIP3    H144084   3.457   0.982  13.504 -0.3635  0.4064  0.5153
 7531TIP3    H244085   3.349   0.907  13.428 -0.6161  0.5698  0.7120
 7532TIP3   OH244086   4.095   6.418  13.719 -0.1451 -0.0081  0.6478
 7532TIP3    H144087   4.106   6.385  13.808  1.1558 -0.6990  0.2694
 7532TIP3    H244088   4.181   6.454  13.696 -0.6531  0.7761 -0.0946
 7533TIP3   OH244089   1.201   6.767  13.588  0.1959  0.2074 -0.0458
 7533TIP3    H144090   1.163   6.713  13.519 -1.2196 -0.1179  0.9363
 7533TIP3    H244091   1.258   6.829  13.542  0.3896 -0.8956 -1.3562
 7534TIP3   OH244092   2.772   5.694  16.532 -0.1893  0.1397 -0.0529
 7534TIP3    H144093   2.810   5.669  16.616 -2.2443 -0.9689  0.6037
 7534TIP3    H244094   2.825   5.769  16.503  1.6996 -0.5865  1.3145
 7535TIP3   OH244095   3.600   1.262  15.172 -0.3274  0.1189  0.3067
 7535TIP3    H144096   3.517   1.307  15.152 -0.1123  1.1678  1.6480
 7535TIP3    H244097   3.659   1.331  15.199  0.0692 -0.9402  2.3019
 7536TIP3   OH244098   3.613   3.041  12.555 -0.0402  0.1553  0.1866
 7536TIP3    H144099   3.526   3.022  12.520  0.4909 -0.0942 -1.0505
 7536TIP3    H244100   3.647   2.956  12.584  1.3896 -0.5751 -3.1596
 7537TIP3   OH244101   2.802   3.261  13.592 -0.1239  0.0402 -0.1361
 7537TIP3    H144102   2.754   3.303  13.521 -2.5630 -2.0358  0.1804
 7537TIP3    H244103   2.820   3.173  13.561 -1.3144 -0.9446  1.7780
 7538TIP3   OH244104   0.183   3.062   1.684 -0.2383  0.2963  0.4559
 7538TIP3    H144105   0.217   3.090   1.769 -1.8281  0.6871  0.9917
 7538TIP3    H244106   0.255   3.078   1.623  0.3883  1.4808  1.4715
 7539TIP3   OH244107   4.825   3.672  14.174 -0.6331  0.1438  0.6314
 7539TIP3    H144108   4.862   3.585  14.192 -0.9669 -0.1630 -0.0971
 7539TIP3    H244109   4.827   3.717  14.258 -0.4200 -0.5600  1.0139
 7540TIP3   OH244110   2.445   1.779  15.782 -0.5434  0.0844  0.0906
 7540TIP3    H144111   2.381   1.837  15.741 -0.2246  0.6005  0.3160
 7540TIP3    H244112   2.491   1.737  15.709  0.0521  1.0271 -0.0832
 7541TIP3   OH244113   2.076   2.916  11.138 -0.5262 -0.0414 -1.2250
 7541TIP3    H144114   2.101   2.859  11.066  3.1879  0.9737 -0.9777
 7541TIP3    H244115   2.003   2.967  11.105 -0.8050 -1.6058 -3.1699
 7542TIP3   OH244116   2.710   1.838  15.049  0.0818 -0.1378 -0.3756
 7542TIP3    H144117   2.733   1.746  15.063 -1.6067 -0.5153  0.1659
 7542TIP3    H244118   2.751   1.860  14.965  3.2049 -0.3829  0.9614
 7543TIP3   OH244119   0.047   2.806   2.039 -0.0334  0.3240  0.0830
 7543TIP3    H144120   0.038   2.714   2.064 -0.7884  0.4725  0.3906
 7543TIP3    H244121  -0.007   2.853   2.102  0.9095  1.0480  0.3590
 7544TIP3   OH244122   1.189   3.739  11.361 -0.0853  0.3091 -0.0959
 7544TIP3    H144123   1.198   3.646  11.338  2.4102  0.6694 -0.9029
 7544TIP3    H244124   1.097   3.759  11.345 -0.1408 -1.4056 -2.3865
 7545TIP3   OH244125   2.625   4.269  15.034 -0.3855  0.6056  1.2999
 7545TIP3    H144126   2.656   4.346  14.986 -0.1344  0.7046  1.6223
 7545TIP3    H244127   2.609   4.204  14.965  0.9936  0.3865  1.1471
 7546TIP3   OH244128   5.690   1.974   1.792  0.2271 -0.0453 -0.3383
 7546TIP3    H144129   5.614   2.032   1.788  0.6070  0.4285 -0.9163
 7546TIP3    H244130   5.684   1.932   1.878 -0.7078 -0.0473 -0.3965
 7547TIP3   OH244131   6.633   0.324   4.373 -0.0550 -0.6882  0.5433
 7547TIP3    H144132   6.588   0.389   4.427  2.5843  1.5780  0.2052
 7547TIP3    H244133   6.613   0.240   4.415 -2.9949  0.3170  1.4115
 7548TIP3   OH244134   3.798   1.704  14.285 -0.1560 -0.3293  0.1825
 7548TIP3    H144135   3.837   1.789  14.264 -1.2685  0.2610  0.4178
 7548TIP3    H244136   3.871   1.642  14.281  0.8516  0.7673  0.8345
 7549TIP3   OH244137   6.424   4.455  13.767 -0.3272  0.8991 -0.3488
 7549TIP3    H144138   6.335   4.470  13.799 -0.6205  0.3795 -0.8832
 7549TIP3    H244139   6.411   4.419  13.679  0.3197 -1.6146  0.5031
 7550TIP3   OH244140   2.735   4.770  11.361 -0.1808  0.1818  0.1870
 7550TIP3    H144141   2.720   4.718  11.282 -1.5194 -1.3414  1.3808
 7550TIP3    H244142   2.825   4.749  11.387  0.1843  0.5129 -0.7547
 7551TIP3   OH244143   4.453   1.326   3.932  0.5721  0.2559 -0.4737
 7551TIP3    H144144   4.437   1.233   3.948  2.2160  0.1513  0.8381
 7551TIP3    H244145   4.545   1.339   3.957  0.6032  2.0700 -1.4080
 7552TIP3   OH244146   5.640   5.692   1.347 -0.1718 -0.5847  0.6155
 7552TIP3    H144147   5.676   5.761   1.292 -0.4268 -1.4892 -0.7260
 7552TIP3    H244148   5.716   5.645   1.381 -0.0192 -0.7711  0.0318
 7553TIP3   OH244149   6.451   2.991  15.363  0.1821  0.2030 -0.0066
 7553TIP3    H144150   6.516   3.054  15.334 -0.6953  0.9810 -0.3520
 7553TIP3    H244151   6.478   2.966  15.452  1.0487  0.3463 -0.2258
 7554TIP3   OH244152   1.152   6.109   0.871  0.3067  0.1362  0.1225
 7554TIP3    H144153   1.192   6.195   0.877  0.4701  0.1619 -0.9844
 7554TIP3    H244154   1.171   6.080   0.781 -0.8599 -0.4917  0.0507
 7555TIP3   OH244155   0.153   5.345   3.505  0.3349  0.0314  0.2881
 7555TIP3    H144156   0.078   5.287   3.519  0.7590 -0.3333  1.1298
 7555TIP3    H244157   0.214   5.293   3.453  0.2543  0.1143  0.1105
 7556TIP3   OH244158   3.264   3.778  14.722  0.2442 -0.3798 -0.9688
 7556TIP3    H144159   3.197   3.714  14.747  1.7263 -1.5551  0.2566
 7556TIP3    H244160   3.292   3.750  14.635  0.5029 -1.1287 -0.6625
 7557TIP3   OH244161   3.368   1.379  12.059 -1.0607  0.0407 -0.0765
 7557TIP3    H144162   3.378   1.471  12.034 -0.6947 -0.2028 -0.8687
 7557TIP3    H244163   3.351   1.334  11.976 -0.0881 -0.7640  0.1538
 7558TIP3   OH244164   6.260   4.162  12.605  0.4136  0.2366 -0.1116
 7558TIP3    H144165   6.187   4.189  12.662  0.2882  0.2979 -0.3017
 7558TIP3    H244166   6.228   4.083  12.561  1.0672 -0.7079  1.0359
 7559TIP3   OH244167   3.225   1.384  14.227  0.1206 -0.0704  0.5058
 7559TIP3    H144168   3.156   1.341  14.278  1.0767 -3.3827 -0.7556
 7559TIP3    H244169   3.180   1.413  14.147  0.0567 -1.9219 -0.1704
 7560TIP3   OH244170   3.114   0.026  16.951 -0.7928 -0.2074 -0.4082
 7560TIP3    H144171   3.114  -0.065  16.921 -2.5453 -0.0271 -1.0914
 7560TIP3    H244172   3.022   0.046  16.969 -0.5187  1.5773 -0.7385
 7561TIP3   OH244173   5.885   6.131  15.513 -0.5155  0.1820  0.1049
 7561TIP3    H144174   5.820   6.063  15.495  0.2137 -0.1840 -1.2888
 7561TIP3    H244175   5.918   6.110  15.600 -0.2519 -1.3079 -0.3264
 7562TIP3   OH244176   4.400   0.147   5.690 -1.0699  0.2381  0.3407
 7562TIP3    H144177   4.446   0.086   5.748 -0.7111  1.2933  1.2053
 7562TIP3    H244178   4.330   0.095   5.651  0.6499 -1.3638 -0.8256
 7563TIP3   OH244179   0.904   4.285   5.603  0.5288  0.1679  0.6648
 7563TIP3    H144180   0.853   4.318   5.528  0.0263 -0.4563  0.7224
 7563TIP3    H244181   0.985   4.336   5.600 -0.6839  2.3100  1.4863
 7564TIP3   OH244182   3.561   4.162   3.359  0.7233  0.2570  0.1733
 7564TIP3    H144183   3.564   4.258   3.363  1.2866  0.1968  1.8430
 7564TIP3    H244184   3.651   4.136   3.337  0.5940  0.0878 -0.1732
 7565TIP3   OH244185   3.632   5.325   0.615  0.7507 -0.3314 -0.3845
 7565TIP3    H144186   3.692   5.372   0.672 -1.2200  0.4819  1.1238
 7565TIP3    H244187   3.656   5.353   0.526  2.1490  0.4383  0.2065
 7566TIP3   OH244188   4.292   6.478   1.261  0.1969  0.3129  0.5054
 7566TIP3    H144189   4.302   6.555   1.206  0.3816  0.3843  0.6371
 7566TIP3    H244190   4.346   6.411   1.219 -1.1323 -0.1984 -0.4406
 7567TIP3   OH244191   1.598   3.184  17.185 -0.6702 -0.2878  0.3231
 7567TIP3    H144192   1.689   3.173  17.214 -0.2319 -0.0699 -0.9249
 7567TIP3    H244193   1.559   3.098  17.198  0.0389 -0.7005 -0.1887
 7568TIP3   OH244194   0.804   0.255   4.174  0.2277  0.2280 -0.0826
 7568TIP3    H144195   0.715   0.264   4.141  0.3173 -0.5057 -0.5355
 7568TIP3    H244196   0.844   0.187   4.119  1.5901  1.6939 -0.9905
 7569TIP3   OH244197   0.002   4.670   2.215  0.1523  0.5567 -0.1429
 7569TIP3    H144198  -0.016   4.715   2.297  0.8953  0.0395  0.3199
 7569TIP3    H244199   0.054   4.594   2.240  1.3592  0.9910 -1.2120
 7570TIP3   OH244200   3.318   6.061  12.579  0.1547  0.0048  0.1897
 7570TIP3    H144201   3.233   6.018  12.579  0.3291 -0.3475  0.8422
 7570TIP3    H244202   3.310   6.129  12.512 -0.7744  0.2519  0.5355
 7571TIP3   OH244203   1.257   3.296   4.085 -0.2924 -0.3969 -0.2128
 7571TIP3    H144204   1.300   3.218   4.122 -0.0979 -0.5724 -0.7941
 7571TIP3    H244205   1.215   3.338   4.160  1.3979  0.1137  0.5165
 7572TIP3   OH244206   2.498   0.752  14.025  0.3041 -0.9379  0.2501
 7572TIP3    H144207   2.524   0.792  14.108 -0.7134 -1.1362  0.6781
 7572TIP3    H244208   2.534   0.663  14.029 -0.7968 -1.3711  1.0490
 7573TIP3   OH244209   0.537   0.421  15.513 -0.1375  0.1694 -0.7663
 7573TIP3    H144210   0.553   0.472  15.433 -1.1186 -0.0844 -1.1413
 7573TIP3    H244211   0.448   0.388  15.502 -0.0852 -0.3073  0.2022
 7574TIP3   OH244212   2.841   2.752  13.300  0.6725  0.4763  0.2293
 7574TIP3    H144213   2.748   2.740  13.319  0.2926  0.5944 -1.4332
 7574TIP3    H244214   2.878   2.781  13.383 -0.4351 -1.1910  1.3714
 7575TIP3   OH244215   5.068   1.151  10.717  0.0548 -0.1745  0.0939
 7575TIP3    H144216   5.043   1.183  10.630  3.8431 -0.8119 -1.4563
 7575TIP3    H244217   5.079   1.057  10.706 -0.3769 -0.4234  1.5836
 7576TIP3   OH244218   0.611   6.099  13.154  0.7618 -0.4323 -0.0870
 7576TIP3    H144219   0.529   6.111  13.107  1.3172 -1.3091 -1.3291
 7576TIP3    H244220   0.619   6.176  13.210 -1.6186 -1.0169  1.1665
 7577TIP3   OH244221   1.375   3.997  11.651  0.4263 -0.9497  0.0535
 7577TIP3    H144222   1.352   4.089  11.641  3.8229 -0.0450 -0.7930
 7577TIP3    H244223   1.402   3.969  11.563  2.5865 -1.7218  0.9047
 7578TIP3   OH244224   3.575   3.620  12.492 -0.6501  0.5969  0.6885
 7578TIP3    H144225   3.620   3.672  12.425 -0.1128 -1.9140 -1.0663
 7578TIP3    H244226   3.577   3.675  12.570  0.5825  2.8284 -0.7842
 7579TIP3   OH244227   5.429   5.988  16.200 -0.2516 -0.1173 -0.3573
 7579TIP3    H144228   5.502   6.022  16.148  0.3999  0.6851  1.0071
 7579TIP3    H244229   5.469   5.927  16.262 -1.1493 -1.8390 -1.4162
 7580TIP3   OH244230   1.531   1.008  15.728  0.5357  0.2305 -0.3315
 7580TIP3    H144231   1.604   1.044  15.778  2.3075  0.8715 -3.1643
 7580TIP3    H244232   1.559   0.921  15.701 -0.8206 -0.5287  0.5498
 7581TIP3   OH244233   4.409   1.231   0.384  0.2288  0.6121  0.2244
 7581TIP3    H144234   4.362   1.313   0.367  0.2090  0.7726  1.0231
 7581TIP3    H244235   4.485   1.234   0.326 -0.2635  0.7696 -0.4213
 7582TIP3   OH244236   1.018   4.989   0.593 -0.6270 -0.1744  0.7586
 7582TIP3    H144237   1.075   4.979   0.670  0.3353  0.6479  0.1876
 7582TIP3    H244238   1.054   4.927   0.529  0.2502  0.9859  0.0743
 7583TIP3   OH244239   3.523   6.631   4.765  0.3169  0.3507 -0.7785
 7583TIP3    H144240   3.508   6.537   4.756  1.6458  0.1376 -0.9972
 7583TIP3    H244241   3.502   6.667   4.679  1.0128  0.0617 -1.0781
 7584TIP3   OH244242   2.352   1.363   6.325 -0.2266  0.2951  0.4387
 7584TIP3    H144243   2.387   1.274   6.331 -1.4334 -0.1307  1.8695
 7584TIP3    H244244   2.366   1.401   6.412 -0.4081  1.2397  0.0719
 7585TIP3   OH244245   2.279   1.850  12.116  0.3920  0.2089  0.0063
 7585TIP3    H144246   2.365   1.834  12.078  0.7613 -1.4639  1.4202
 7585TIP3    H244247   2.222   1.784  12.075 -0.6118  2.1959 -1.9768
 7586TIP3   OH244248   0.315   5.696  13.325  0.4875 -0.2636  0.3682
 7586TIP3    H144249   0.313   5.765  13.260  2.4561 -0.2365  0.2562
 7586TIP3    H244250   0.257   5.628  13.291 -2.5207  1.7440  1.0972
 7587TIP3   OH244251   6.690   5.462  13.970  0.0254 -0.1210  0.2282
 7587TIP3    H144252   6.740   5.453  14.051  0.8963  1.8041 -0.0460
 7587TIP3    H244253   6.633   5.537  13.985  1.4480  1.3961 -1.4950
 7588TIP3   OH244254   1.423   5.542   2.979  0.6903  0.3225 -0.1560
 7588TIP3    H144255   1.408   5.544   3.074 -0.0752  1.0497 -0.2833
 7588TIP3    H244256   1.462   5.456   2.963  1.5098  0.4791  0.9155
 7589TIP3   OH244257   3.082   6.188   2.590 -0.3726  0.3219  0.5395
 7589TIP3    H144258   3.025   6.263   2.603 -0.7751  0.1725 -0.2796
 7589TIP3    H244259   3.030   6.128   2.535  0.6183  0.2457 -0.3371
 7590TIP3   OH244260   3.412   3.077  14.358  0.2284  0.2139 -0.4150
 7590TIP3    H144261   3.371   2.993  14.380 -1.9076  1.3695  0.3410
 7590TIP3    H244262   3.348   3.121  14.301  0.1311  2.2886  1.1616
 7591TIP3   OH244263   5.229   3.917   2.385  0.1050 -0.3165  0.4631
 7591TIP3    H144264   5.163   3.985   2.396 -2.5824 -2.6482 -0.0240
 7591TIP3    H244265   5.224   3.893   2.292  1.4460 -0.7639  0.4777
 7592TIP3   OH244266   5.444   3.400  13.444  0.1448 -0.0792 -0.3504
 7592TIP3    H144267   5.512   3.351  13.399  0.2385  1.1713 -1.6354
 7592TIP3    H244268   5.392   3.334  13.489 -0.8170 -1.5912 -3.4268
 7593TIP3   OH244269   0.847   2.867   0.745 -0.0183  0.1855 -0.0502
 7593TIP3    H144270   0.775   2.824   0.698  3.0083 -2.2981 -2.9182
 7593TIP3    H244271   0.864   2.810   0.820 -1.8456  1.6057  1.5430
 7594TIP3   OH244272   4.357   3.647  14.548  0.9891  0.5741  0.2721
 7594TIP3    H144273   4.378   3.555  14.529 -3.9565 -1.4260  2.7258
 7594TIP3    H244274   4.394   3.663  14.635  2.8421  1.4308 -0.6222
 7595TIP3   OH244275   4.282   2.127   0.332 -0.5595 -0.1785  0.9731
 7595TIP3    H144276   4.235   2.114   0.415  0.4458 -1.3777  1.3819
 7595TIP3    H244277   4.371   2.150   0.359 -0.8013  1.8417  0.2105
 7596TIP3   OH244278   3.928   2.234   4.407  0.4388 -0.2509  0.3085
 7596TIP3    H144279   3.938   2.158   4.465 -1.3626 -1.0265 -0.3249
 7596TIP3    H244280   3.891   2.198   4.326  2.1235  0.9304 -1.0559
 7597TIP3   OH244281   1.185   6.373  11.779  0.5723 -0.6123  0.2918
 7597TIP3    H144282   1.270   6.404  11.751  0.1924  0.3766  0.1940
 7597TIP3    H244283   1.133   6.368  11.699 -0.2702  1.4475  0.6317
 7598TIP3   OH244284   2.466   4.475  14.814 -0.3461 -0.2475  0.6693
 7598TIP3    H144285   2.418   4.555  14.831  0.5550  0.4936 -0.1858
 7598TIP3    H244286   2.526   4.496  14.743 -0.3308 -1.7813  0.1795
 7599TIP3   OH244287   5.974   0.145  13.049 -0.1417  0.2954  0.0427
 7599TIP3    H144288   5.969   0.204  13.124  3.2352 -1.4796  1.9090
 7599TIP3    H244289   5.966   0.202  12.973 -3.7747  2.1971  1.5592
 7600TIP3   OH244290   3.863   2.249  16.214  0.2396 -0.6294  0.2128
 7600TIP3    H144291   3.953   2.254  16.247  0.2805 -0.0559  0.0272
 7600TIP3    H244292   3.817   2.317  16.262  0.3006  0.2224 -0.9042
 7601TIP3   OH244293   4.204   5.412   3.148  0.6386 -0.3263  0.4125
 7601TIP3    H144294   4.167   5.350   3.212 -0.7930  0.3398  0.2782
 7601TIP3    H244295   4.192   5.369   3.063 -0.0397 -0.0203  0.3499
 7602TIP3   OH244296   1.890   1.329   6.151 -0.0838 -0.1661  0.0327
 7602TIP3    H144297   1.844   1.384   6.089 -1.1928 -0.9949  0.0861
 7602TIP3    H244298   1.909   1.248   6.103 -0.0068 -0.4018  0.4449
 7603TIP3   OH244299   2.511   4.583   1.476 -0.2149 -0.1461  0.0613
 7603TIP3    H144300   2.546   4.536   1.552  2.1138 -1.3441 -1.6300
 7603TIP3    H244301   2.539   4.674   1.490  0.9714 -0.5251  0.2337
 7604TIP3   OH244302   6.648   4.073   3.193 -0.5493 -0.1253  0.2605
 7604TIP3    H144303   6.733   4.086   3.234 -1.0399  1.0626  0.9652
 7604TIP3    H244304   6.660   3.998   3.135  0.5144 -1.0991  1.6558
 7605TIP3   OH244305   1.834   0.878  11.273 -0.1633 -0.1675  1.2349
 7605TIP3    H144306   1.797   0.840  11.193  0.7879 -0.9251  1.1480
 7605TIP3    H244307   1.779   0.955  11.290  0.1634  0.5145 -0.6397
 7606TIP3   OH244308   2.246   1.334   5.608 -0.6035  0.5988 -0.0999
 7606TIP3    H144309   2.264   1.428   5.614 -0.8860  0.6849 -0.5218
 7606TIP3    H244310   2.325   1.298   5.568 -2.0872  1.3107 -4.1908
 7607TIP3   OH244311   4.585   0.725   6.437 -0.2558 -0.0905  0.1068
 7607TIP3    H144312   4.553   0.762   6.354  0.3917  3.8994  1.4151
 7607TIP3    H244313   4.673   0.761   6.447 -0.7236  0.5380  2.9865
 7608TIP3   OH244314   0.515   1.321  12.637  0.4003 -0.1947 -0.3548
 7608TIP3    H144315   0.593   1.317  12.581  0.4822 -0.5622 -0.2175
 7608TIP3    H244316   0.550   1.315  12.726  0.2463  0.0699 -0.2751
 7609TIP3   OH244317   4.087   1.896  16.360  0.7623  0.1172 -0.0032
 7609TIP3    H144318   4.018   1.921  16.421  0.6332 -0.9316  0.2967
 7609TIP3    H244319   4.150   1.969  16.364 -0.1200  0.8984  0.0111
 7610TIP3   OH244320   5.271   3.617   4.092 -0.5597  0.0915 -0.3416
 7610TIP3    H144321   5.306   3.703   4.118 -0.7495  0.0205  0.1571
 7610TIP3    H244322   5.310   3.556   4.155 -2.6592  0.1842  1.1483
 7611TIP3   OH244323   6.489   6.809  15.245  0.2781  0.2626  0.3846
 7611TIP3    H144324   6.581   6.830  15.225  0.6343 -0.5591  1.0746
 7611TIP3    H244325   6.439   6.857  15.179  1.2304  0.2755 -0.3626
 7612TIP3   OH244326   0.452   6.747   1.683  0.1907  0.0062 -0.1462
 7612TIP3    H144327   0.531   6.774   1.636  1.0467 -0.3422  1.0624
 7612TIP3    H244328   0.392   6.718   1.613 -0.2064  3.4064 -1.3957
 7613TIP3   OH244329   1.990   0.257   1.173 -0.5468  0.0476 -0.0580
 7613TIP3    H144330   1.954   0.195   1.110 -0.1142 -0.0677 -0.1960
 7613TIP3    H244331   2.083   0.264   1.150 -0.1445 -0.7859  1.2141
 7614TIP3   OH244332   0.317   1.527   2.121  0.1602  0.0689  0.1818
 7614TIP3    H144333   0.327   1.491   2.209 -1.6343  0.6608  0.6805
 7614TIP3    H244334   0.312   1.451   2.064  2.4492 -0.3123  0.4014
 7615TIP3   OH244335   0.199   4.856  16.146  0.1420  0.1249 -0.1324
 7615TIP3    H144336   0.239   4.897  16.069 -1.2394 -1.0150 -1.5274
 7615TIP3    H244337   0.233   4.907  16.220  2.4735  0.5242 -1.3515
 7616TIP3   OH244338   5.328   4.769   0.629 -0.3951 -0.2354  0.5117
 7616TIP3    H144339   5.395   4.785   0.695  0.1576  0.2911 -0.1531
 7616TIP3    H244340   5.266   4.841   0.639  0.0791  0.2576 -0.0073
 7617TIP3   OH244341   5.762   3.132   3.377 -0.1743  0.1387 -0.3656
 7617TIP3    H144342   5.834   3.120   3.315 -0.5667  0.9039 -0.9917
 7617TIP3    H244343   5.765   3.055   3.433  1.5831  0.4991  0.0871
 7618TIP3   OH244344   0.193   5.027   3.964 -0.2054  0.3012 -0.4543
 7618TIP3    H144345   0.191   5.114   4.004 -0.4622  0.0342  0.1168
 7618TIP3    H244346   0.156   5.040   3.877 -1.1337  0.5895 -0.0241
 7619TIP3   OH244347   2.991   2.177  11.903 -0.2623 -0.0618 -0.3484
 7619TIP3    H144348   2.929   2.195  11.973  0.6138 -1.3547  0.8145
 7619TIP3    H244349   3.004   2.262  11.860 -0.8139  0.7682  1.0511
 7620TIP3   OH244350   2.953   1.888   5.825 -0.6009  0.2441 -0.0985
 7620TIP3    H144351   3.008   1.821   5.866 -0.0001  0.6596 -0.2164
 7620TIP3    H244352   2.893   1.838   5.769 -2.2191 -0.4363  2.0917
 7621TIP3   OH244353   6.045   3.271  13.567  0.0962 -0.1666 -0.0607
 7621TIP3    H144354   5.998   3.350  13.544  0.4597  0.5364  1.4540
 7621TIP3    H244355   6.129   3.301  13.602  0.3882 -1.2271  0.2174
 7622TIP3   OH244356   3.448   1.435   0.290 -0.3126 -0.6673 -0.0171
 7622TIP3    H144357   3.508   1.420   0.363 -0.5186  0.4990  0.4191
 7622TIP3    H244358   3.499   1.416   0.212  0.0564 -1.4797  0.4075
 7623TIP3   OH244359   2.322   0.489   0.169  0.1249 -0.3454  0.0919
 7623TIP3    H144360   2.281   0.406   0.194  1.3694 -0.6299  1.2695
 7623TIP3    H244361   2.325   0.540   0.251  1.3491 -0.0058 -0.1530
 7624TIP3   OH244362   1.047   1.856  11.086 -0.2625 -0.0257  0.2005
 7624TIP3    H144363   1.005   1.934  11.122 -1.5786 -1.4014  1.7738
 7624TIP3    H244364   1.006   1.843  11.001 -0.6407  0.5105  0.2970
 7625TIP3   OH244365   6.575   2.882   5.169  0.0799 -0.1642 -0.1971
 7625TIP3    H144366   6.514   2.808   5.174 -1.5452  1.1660  0.4654
 7625TIP3    H244367   6.580   2.915   5.258  0.9225  0.4572 -0.4577
 7626TIP3   OH244368   3.665   5.100   3.821  0.2031  0.2258 -0.0683
 7626TIP3    H144369   3.723   5.163   3.863 -0.6596  0.5891  0.5953
 7626TIP3    H244370   3.667   5.024   3.879 -0.1985  0.3429  0.0988
 7627TIP3   OH244371   1.908   6.099   4.365  0.2125 -0.0998  0.1638
 7627TIP3    H144372   1.961   6.125   4.440  1.1664  1.0609 -0.8711
 7627TIP3    H244373   1.819   6.089   4.400  0.9477 -1.4513  1.8057
 7628TIP3   OH244374   2.780   5.369   4.547  0.5856  0.0436  0.4039
 7628TIP3    H144375   2.842   5.428   4.591  0.8109  0.2973 -0.2375
 7628TIP3    H244376   2.835   5.297   4.515  0.6638  0.5532 -0.6708
 7629TIP3   OH244377   5.560   5.973  13.317 -1.1293  0.2932 -0.2060
 7629TIP3    H144378   5.502   6.044  13.291 -2.5809 -0.2731  1.3226
 7629TIP3    H244379   5.615   6.010  13.386 -1.2278  0.1999 -0.0766
 7630TIP3   OH244380   6.205   5.453   1.640 -0.5918 -0.1123 -0.1507
 7630TIP3    H144381   6.150   5.376   1.652 -0.8408  0.1535  0.4490
 7630TIP3    H244382   6.185   5.509   1.715 -0.3149  0.4778 -0.5091
 7631TIP3   OH244383   2.495   6.035   6.228  0.2932 -0.6206  0.2064
 7631TIP3    H144384   2.471   6.122   6.258  0.7445 -0.8435  1.2368
 7631TIP3    H244385   2.433   5.977   6.272  1.2608 -0.9952  1.0866
 7632TIP3   OH244386   1.738   2.437   5.710  0.2332 -0.0558 -0.1156
 7632TIP3    H144387   1.661   2.425   5.655 -1.1429  1.1756  1.4420
 7632TIP3    H244388   1.778   2.350   5.714 -0.3213 -0.4493 -1.9614
 7633TIP3   OH244389   5.452   5.578  17.082 -0.1085  0.5422 -0.3134
 7633TIP3    H144390   5.523   5.635  17.112 -0.1871 -0.1913  1.3826
 7633TIP3    H244391   5.496   5.506  17.037  0.4938 -1.1593  2.7820
 7634TIP3   OH244392   4.170   4.054  12.073 -0.3596 -0.0079 -0.5992
 7634TIP3    H144393   4.227   4.131  12.082  0.5628 -0.7590  0.1814
 7634TIP3    H244394   4.225   3.980  12.099 -1.2361 -0.9437 -1.3379
 7635TIP3   OH244395   0.703   6.519  15.850  0.5980  0.2113  0.2517
 7635TIP3    H144396   0.701   6.610  15.881 -0.0657  0.4091 -0.3428
 7635TIP3    H244397   0.644   6.473  15.909  0.3526  0.3223  0.0957
 7636TIP3   OH244398   5.374   2.353   0.008 -0.6492  0.2486 -0.0961
 7636TIP3    H144399   5.382   2.263  -0.025  0.4225 -0.3008  1.5412
 7636TIP3    H244400   5.447   2.400  -0.032  0.3586 -0.2958  1.0327
 7637TIP3   OH244401   0.350   4.870  15.463 -0.2993  0.3056  0.6490
 7637TIP3    H144402   0.404   4.926  15.408  0.7707 -0.0958  1.2602
 7637TIP3    H244403   0.361   4.905  15.552  0.8406 -1.1690  1.1293
 7638TIP3   OH244404   4.290   3.762  12.764  0.3581  0.6614  0.5708
 7638TIP3    H144405   4.208   3.742  12.720 -0.1152  1.1008  1.2383
 7638TIP3    H244406   4.276   3.736  12.855  1.1482  0.2412  0.5856
 7639TIP3   OH244407   4.168   3.402  13.055 -0.1885  0.5043 -0.0632
 7639TIP3    H144408   4.195   3.353  13.133 -0.2447  0.6889  0.0729
 7639TIP3    H244409   4.171   3.338  12.985 -0.3124  0.2924  0.1233
 7640TIP3   OH244410   4.766   6.677  14.899 -0.3142  0.0853 -0.1396
 7640TIP3    H144411   4.715   6.741  14.948 -0.0161 -0.9216  1.5798
 7640TIP3    H244412   4.846   6.723  14.874 -1.0954  1.0406 -1.0139
 7641TIP3   OH244413   6.174   6.266  15.489 -0.2361  0.0125  0.5414
 7641TIP3    H144414   6.210   6.326  15.423 -0.3250 -1.2336 -0.6846
 7641TIP3    H244415   6.087   6.244  15.455  0.3155 -1.8428  0.2539
 7642TIP3   OH244416   1.891   2.386  14.545 -0.2835 -0.1214 -0.2866
 7642TIP3    H144417   1.870   2.336  14.624 -0.1293  0.0963 -0.1059
 7642TIP3    H244418   1.817   2.446  14.534  0.9760  1.8776  1.3490
 7643TIP3   OH244419   2.573   6.074   4.341 -0.0617  0.3250  0.2047
 7643TIP3    H144420   2.554   6.097   4.432 -0.5816 -0.1460  0.2226
 7643TIP3    H244421   2.668   6.057   4.340  0.0639  1.0010  0.5020
 7644TIP3   OH244422   3.969   4.442   0.581  0.3467 -0.4273 -0.5284
 7644TIP3    H144423   3.958   4.368   0.641  1.2097  0.4760  0.7815
 7644TIP3    H244424   3.880   4.473   0.565  0.1563  0.6831  2.1012
 7645TIP3   OH244425   1.477   0.150  15.122 -0.3145 -0.3884 -0.3107
 7645TIP3    H144426   1.533   0.126  15.048  1.3271 -1.9992  1.3511
 7645TIP3    H244427   1.461   0.068  15.168  0.9221  0.8577  2.5810
 7646TIP3   OH244428   1.873   4.808  14.311  0.1055  0.2347  0.7326
 7646TIP3    H144429   1.921   4.821  14.393  0.1539  1.5391  0.5094
 7646TIP3    H244430   1.900   4.880  14.255 -2.6837  1.4998  0.8654
 7647TIP3   OH244431   5.899   2.849  13.286  0.1303  0.1787  0.0836
 7647TIP3    H144432   5.845   2.791  13.233 -0.1701 -0.2914  0.8918
 7647TIP3    H244433   5.988   2.838  13.252 -0.4161  1.9542 -2.1553
 7648TIP3   OH244434   6.316   1.518  13.044  0.3311  0.5350  0.2801
 7648TIP3    H144435   6.352   1.603  13.069  1.2354  0.9030 -2.0195
 7648TIP3    H244436   6.258   1.537  12.971 -0.9987 -0.6371  0.9761
 7649TIP3   OH244437   0.382   2.778   4.020 -0.1484 -0.1899  0.0462
 7649TIP3    H144438   0.360   2.704   4.075  2.3761 -1.2062 -0.1679
 7649TIP3    H244439   0.307   2.837   4.026 -1.7330 -2.2318  1.1099
 7650TIP3   OH244440   5.158   1.732   5.945  0.0882 -0.2734  0.1270
 7650TIP3    H144441   5.129   1.660   6.001  1.0751 -0.9763 -0.2482
 7650TIP3    H244442   5.242   1.759   5.982  0.6542 -0.6091 -0.8659
 7651TIP3   OH244443   0.175   0.226  14.816  0.0767  0.5077  0.4837
 7651TIP3    H144444   0.091   0.204  14.856 -0.0389  0.2437  0.0946
 7651TIP3    H244445   0.152   0.278  14.739  0.2769  0.5434  0.4483
 7652TIP3   OH244446   3.125   5.101   3.694  0.2905 -0.2652 -0.4896
 7652TIP3    H144447   3.173   5.152   3.759 -1.2383  1.4035 -0.6084
 7652TIP3    H244448   3.042   5.147   3.682 -0.8219 -2.3088 -1.2742
 7653TIP3   OH244449   6.105   1.666  14.452  0.2996  0.2294  0.2115
 7653TIP3    H144450   6.039   1.599  14.472 -0.9757  1.0398 -1.1461
 7653TIP3    H244451   6.099   1.679  14.357  1.8246  0.9602  0.1788
 7654TIP3   OH244452   4.163   1.127  14.941  0.2916  0.1214  0.1684
 7654TIP3    H144453   4.232   1.060  14.931  0.2446 -0.6880  3.8532
 7654TIP3    H244454   4.210   1.210  14.934  1.2151 -0.3802  0.1969
 7655TIP3   OH244455   6.212   4.962  10.816  0.3044  0.6831  0.1522
 7655TIP3    H144456   6.254   4.879  10.795 -0.1229 -0.2355  2.6398
 7655TIP3    H244457   6.120   4.950  10.792 -0.7249 -1.2422  4.1918
 7656TIP3   OH244458   0.496   1.843   4.772  0.2213  0.4829  0.6077
 7656TIP3    H144459   0.577   1.820   4.817 -0.0274  1.0582  1.3710
 7656TIP3    H244460   0.467   1.762   4.730  0.6818  0.0424  1.1391
 7657TIP3   OH244461   3.648   4.844  17.067  0.0722  0.4483 -0.3159
 7657TIP3    H144462   3.653   4.893  16.984 -4.4215 -0.9140 -1.6705
 7657TIP3    H244463   3.711   4.773  17.056  0.6433  1.1534 -1.9231
 7658TIP3   OH244464   0.277   6.815   5.569  0.2164  0.2329  0.1367
 7658TIP3    H144465   0.255   6.889   5.512 -2.0322 -0.3009  0.2023
 7658TIP3    H244466   0.325   6.754   5.513  0.2399  0.8284 -0.4950
 7659TIP3   OH244467   3.328   2.148   1.459 -0.0001  0.0806 -0.0402
 7659TIP3    H144468   3.296   2.079   1.401 -0.3108  0.2391 -0.0596
 7659TIP3    H244469   3.304   2.230   1.415 -2.8576  0.2793  1.6234
 7660TIP3   OH244470   3.897   0.856  13.299  0.1988 -0.5304 -0.2499
 7660TIP3    H144471   3.811   0.818  13.319  0.5886 -0.6369  1.3019
 7660TIP3    H244472   3.944   0.854  13.382  1.4422  0.2323 -0.9159
 7661TIP3   OH244473   3.180   6.725   1.260 -0.3732 -0.8547  0.0833
 7661TIP3    H144474   3.211   6.637   1.238 -0.5732 -0.6240 -1.1484
 7661TIP3    H244475   3.180   6.726   1.356  0.8433 -1.7599  0.1199
 7662TIP3   OH244476   0.114   3.353   1.500  0.1777 -0.9604 -0.3275
 7662TIP3    H144477   0.029   3.387   1.528  0.1746 -0.5843 -0.7824
 7662TIP3    H244478   0.096   3.263   1.471 -0.3025 -0.4794 -1.5880
 7663TIP3   OH244479   4.863   2.188   6.195  0.1463  0.4265 -0.4324
 7663TIP3    H144480   4.909   2.194   6.279 -0.8268 -0.0191  0.1593
 7663TIP3    H244481   4.772   2.210   6.217 -0.6648 -2.1464 -0.8549
 7664TIP3   OH244482   0.071   1.387  13.910  0.2339 -0.0712 -0.1810
 7664TIP3    H144483   0.033   1.471  13.884  2.4465  0.9903 -0.2542
 7664TIP3    H244484   0.034   1.370  13.996 -1.0388  0.4491 -0.5979
 7665TIP3   OH244485   0.630   0.594  14.586  0.1521  0.2440  0.4558
 7665TIP3    H144486   0.717   0.628  14.569  0.9402 -2.0809 -0.5376
 7665TIP3    H244487   0.573   0.640  14.524  0.9122  0.7660  0.1402
 7666TIP3   OH244488   1.434   5.209   4.745 -0.1218 -0.7603  0.2129
 7666TIP3    H144489   1.493   5.151   4.793  0.1015  0.6574  1.7442
 7666TIP3    H244490   1.349   5.199   4.789 -0.3621 -0.7665 -0.2447
 7667TIP3   OH244491   5.169   3.896   3.101 -0.1194  0.0889 -0.1338
 7667TIP3    H144492   5.113   3.949   3.157 -0.8166 -0.7193 -0.0441
 7667TIP3    H244493   5.186   3.817   3.152 -0.8647 -0.7118 -1.0955
 7668TIP3   OH244494   2.903   6.497  15.088  0.9369 -0.6294  0.8794
 7668TIP3    H144495   2.894   6.496  15.184 -0.2273 -0.9791  0.7807
 7668TIP3    H244496   2.984   6.450  15.071  1.5952  0.1544  1.7371
 7669TIP3   OH244497   5.736   2.952  16.059  0.0336 -0.2498 -0.9218
 7669TIP3    H144498   5.646   2.983  16.066 -0.0504 -0.6391 -0.0933
 7669TIP3    H244499   5.772   2.965  16.147  0.0061 -2.4465 -0.5435
 7670TIP3   OH244500   5.240   3.541   2.944 -0.2772  0.0957 -0.0000
 7670TIP3    H144501   5.213   3.565   3.033  0.7306 -0.1841  0.3951
 7670TIP3    H244502   5.257   3.447   2.949  1.2643  0.3372 -0.0720
 7671TIP3   OH244503   5.582   2.155   1.394  0.2142  0.3401  0.1499
 7671TIP3    H144504   5.591   2.230   1.452 -1.5573  2.7060 -2.3887
 7671TIP3    H244505   5.529   2.092   1.445  0.1797  1.5547  1.6856
 7672TIP3   OH244506   4.019   1.169   1.598 -0.2866  0.2267  0.2565
 7672TIP3    H144507   4.012   1.248   1.652  1.0552  0.3624  0.2816
 7672TIP3    H244508   4.069   1.197   1.521 -0.9517 -0.3001 -0.3752
 7673TIP3   OH244509   1.060   1.780  12.990  0.0383 -0.3569 -0.0112
 7673TIP3    H144510   1.038   1.818  13.075  0.0570  1.2736 -0.7064
 7673TIP3    H244511   1.110   1.701  13.011  2.6856  1.5688  1.4972
 7674TIP3   OH244512   1.535   5.338   1.599 -0.2002  0.4928 -0.1624
 7674TIP3    H144513   1.550   5.420   1.646 -0.0666  0.6394 -0.4597
 7674TIP3    H244514   1.585   5.347   1.518 -0.6233  0.3370 -0.4423
 7675TIP3   OH244515   0.916   5.000  13.107  0.4682 -0.1024  0.1385
 7675TIP3    H144516   0.871   5.083  13.119  1.6255  0.5747 -0.0207
 7675TIP3    H244517   0.953   5.005  13.019  1.5130 -0.2952  0.5497
 7676TIP3   OH244518   3.760   6.163  10.941  0.4175  0.3061  0.1353
 7676TIP3    H144519   3.756   6.068  10.928  1.1634  0.6167 -3.3238
 7676TIP3    H244520   3.854   6.182  10.947  0.2990  0.9032  0.1340
 7677TIP3   OH244521   5.307   1.678  14.713  0.3397 -0.0952  0.2064
 7677TIP3    H144522   5.352   1.763  14.717 -1.1255  0.8050 -1.2193
 7677TIP3    H244523   5.369   1.620  14.671  1.4628  0.1648  1.4203
 7678TIP3   OH244524   3.796   1.613   1.887 -0.4700 -0.4683 -0.0863
 7678TIP3    H144525   3.730   1.683   1.882  1.6288  1.9166  2.4871
 7678TIP3    H244526   3.864   1.641   1.826  0.8902  0.4504  1.7604
 7679TIP3   OH244527   2.610   5.898   2.827  0.0123  0.7760 -0.5430
 7679TIP3    H144528   2.701   5.876   2.848  0.4574  2.0981 -1.0167
 7679TIP3    H244529   2.605   5.892   2.732 -1.6044 -3.6783 -0.4061
 7680TIP3   OH244530   0.059   4.964   5.484 -0.3142  0.3416  0.3301
 7680TIP3    H144531   0.076   4.878   5.445  1.6590  0.6489  0.3893
 7680TIP3    H244532   0.073   5.026   5.412  1.0952  0.7710  0.9465
 7681TIP3   OH244533   6.023   4.132   3.796  0.1562 -0.0699  0.2913
 7681TIP3    H144534   6.045   4.076   3.721  1.1346 -0.3497  0.7712
 7681TIP3    H244535   6.011   4.219   3.759 -2.2691 -0.6896 -0.6111
 7682TIP3   OH244536   1.437   6.197  15.263 -0.2739  0.9083  0.1935
 7682TIP3    H144537   1.357   6.145  15.254 -0.0705  0.8633 -1.8634
 7682TIP3    H244538   1.448   6.209  15.357 -0.9884 -1.7336  0.6748
 7683TIP3   OH244539   2.947   1.858   4.795 -0.0095  0.2580  0.4712
 7683TIP3    H144540   2.997   1.916   4.853  0.3508 -1.4593  1.9751
 7683TIP3    H244541   3.001   1.780   4.786 -1.8797 -1.2251  1.2662
 7684TIP3   OH244542   1.796   0.489   4.367  0.5607  0.1804  0.6374
 7684TIP3    H144543   1.709   0.452   4.379  0.8824 -0.7076  0.2824
 7684TIP3    H244544   1.795   0.524   4.278  0.4911  0.4081  0.7251
 7685TIP3   OH244545   6.453   3.032   3.462  0.4203  0.1369  0.3947
 7685TIP3    H144546   6.392   2.965   3.431 -0.1970 -0.1642  2.1424
 7685TIP3    H244547   6.444   3.030   3.557  2.8602  0.3866  0.6940
 7686TIP3   OH244548   1.292   3.676   0.871  0.4209 -0.5911  0.2937
 7686TIP3    H144549   1.364   3.737   0.854 -0.8358  1.3012  1.4331
 7686TIP3    H244550   1.233   3.687   0.796  0.1296 -0.2957  0.5641
 7687TIP3   OH244551   3.397   2.052   1.029  0.2588  0.4043  0.5601
 7687TIP3    H144552   3.361   2.140   1.024 -2.6788 -0.5630  2.0271
 7687TIP3    H244553   3.344   2.001   0.967  0.7545 -0.6287  0.9572
 7688TIP3   OH244554   3.426   0.617  15.073  0.3685  0.3279 -0.0108
 7688TIP3    H144555   3.513   0.618  15.114  0.6227 -0.4642 -0.4922
 7688TIP3    H244556   3.406   0.708  15.055  0.8542  0.5664  0.6217
 7689TIP3   OH244557   2.829   4.952   6.637  0.5464 -1.0890  0.1355
 7689TIP3    H144558   2.838   5.024   6.574  0.5054  0.0610  1.4180
 7689TIP3    H244559   2.919   4.931   6.663  0.5175 -1.1227  0.2075
 7690TIP3   OH244560   1.566   0.195  14.503 -0.1070  0.0829  0.5449
 7690TIP3    H144561   1.593   0.177  14.413  1.6563  0.1709  1.0217
 7690TIP3    H244562   1.500   0.264  14.495  0.9132  0.9635 -0.6209
 7691TIP3   OH244563   6.567   5.853  15.113 -0.1970 -0.5325 -0.1110
 7691TIP3    H144564   6.506   5.921  15.085 -1.7236 -1.6584  0.2943
 7691TIP3    H244565   6.547   5.840  15.206  2.2341  0.5846  0.6395
 7692TIP3   OH244566   4.970   6.608   5.067  0.1212  0.8296  0.3116
 7692TIP3    H144567   5.021   6.528   5.062  1.6746  1.7974 -0.0027
 7692TIP3    H244568   5.001   6.662   4.994  0.0295  2.2198  1.2575
 7693TIP3   OH244569   1.131   4.427   5.553 -0.1382  0.1325  0.0626
 7693TIP3    H144570   1.137   4.455   5.462 -1.4209 -0.5622 -0.2734
 7693TIP3    H244571   1.216   4.387   5.572  0.6938  1.6616 -0.3259
 7694TIP3   OH244572   2.999   5.474  11.851  0.6990  0.5682  0.5927
 7694TIP3    H144573   3.052   5.405  11.810  0.0293  0.7673 -0.6743
 7694TIP3    H244574   3.057   5.514  11.915  1.8037  0.2222 -0.1644
 7695TIP3   OH244575   4.478   4.303   0.109  1.0301 -0.9547  0.0142
 7695TIP3    H144576   4.547   4.369   0.121 -0.0353  0.1441  0.3144
 7695TIP3    H244577   4.471   4.293   0.014  0.7523 -0.1187 -0.0643
 7696TIP3   OH244578   4.154   2.151  15.284 -0.2649 -0.2412  0.3109
 7696TIP3    H144579   4.092   2.162  15.356  2.1343  1.5544  2.2685
 7696TIP3    H244580   4.164   2.238  15.247  1.1374 -0.4597  0.1253
 7697TIP3   OH244581   4.904   4.013  12.443  0.3777 -0.5533  0.5069
 7697TIP3    H144582   4.901   3.930  12.397 -2.4823 -0.7437  0.8203
 7697TIP3    H244583   4.915   4.079  12.375 -0.0959 -1.0493 -0.0581
 7698TIP3   OH244584   4.313   5.337   4.707 -0.2004  0.3782  0.6359
 7698TIP3    H144585   4.372   5.266   4.732  0.7739  1.5379  1.7298
 7698TIP3    H244586   4.226   5.296   4.707  0.2231 -0.6160  2.1140
 7699TIP3   OH244587   4.252   2.556  15.402  0.1330  0.1321  0.6092
 7699TIP3    H144588   4.303   2.567  15.482 -1.4127  2.0319  1.4071
 7699TIP3    H244589   4.227   2.645  15.377  1.3760 -0.2991 -2.5982
 7700TIP3   OH244590   1.313   2.592  16.162 -0.1979  0.1322 -0.3066
 7700TIP3    H144591   1.366   2.564  16.087 -1.4715 -0.1750 -1.1137
 7700TIP3    H244592   1.304   2.686  16.151  3.7387  1.0429  2.1881
 7701TIP3   OH244593   0.298   4.747   5.266 -0.0596 -0.1686  0.6275
 7701TIP3    H144594   0.341   4.822   5.308 -2.4339  0.4305  2.2164
 7701TIP3    H244595   0.308   4.675   5.329 -0.5823 -0.2753  0.5920
 7702TIP3   OH244596   4.205   2.583   5.682 -0.1111 -0.2096 -0.5040
 7702TIP3    H144597   4.120   2.624   5.700 -1.1727 -2.2449 -0.5741
 7702TIP3    H244598   4.220   2.600   5.589 -2.2608 -2.7605 -1.4665
 7703TIP3   OH244599   1.523   4.398  11.215 -0.0942 -0.0629  0.0672
 7703TIP3    H144600   1.428   4.391  11.215 -0.1630  0.2969 -1.6790
 7703TIP3    H244601   1.548   4.394  11.307 -1.7068 -1.2279  0.4938
 7704TIP3   OH244602   2.944   1.225  16.910  0.3611 -0.2636  0.2057
 7704TIP3    H144603   2.902   1.167  16.974 -1.1863  0.5393 -0.0220
 7704TIP3    H244604   2.875   1.244  16.847  1.3587  0.3987 -0.7160
 7705TIP3   OH244605   4.908   2.921  16.997 -0.7716 -0.3302  0.1374
 7705TIP3    H144606   4.984   2.947  17.050 -0.6044 -0.9852  0.2236
 7705TIP3    H244607   4.885   2.834  17.028 -1.0057 -0.5044 -0.5005
 7706TIP3   OH244608   5.918   6.354  12.506  0.7628  0.1886  0.7100
 7706TIP3    H144609   5.823   6.362  12.505  0.5358 -1.1782 -2.5903
 7706TIP3    H244610   5.947   6.411  12.434  2.2105 -0.8623  0.4168
 7707TIP3   OH244611   4.561   2.832  16.215  0.0678  0.2376 -0.1014
 7707TIP3    H144612   4.557   2.739  16.236 -0.7742  0.2465 -0.1764
 7707TIP3    H244613   4.586   2.834  16.122  0.9858  0.1208  0.1345
 7708TIP3   OH244614   5.245   2.826   3.530  0.4587  0.2480 -0.8241
 7708TIP3    H144615   5.293   2.856   3.608 -0.7656  0.3390 -0.0742
 7708TIP3    H244616   5.268   2.734   3.522  1.6633  0.5612 -1.1814
 7709TIP3   OH244617   2.140   6.211   1.592 -0.0905  0.3216 -0.2392
 7709TIP3    H144618   2.060   6.220   1.540  1.2466  1.9510 -2.1626
 7709TIP3    H244619   2.150   6.296   1.636 -0.0622 -0.3124  1.0279
 7710TIP3   OH244620   1.290   1.186   3.643 -0.1734  0.1164 -0.2442
 7710TIP3    H144621   1.209   1.142   3.666  0.2016 -0.2398  0.4401
 7710TIP3    H244622   1.284   1.201   3.549 -1.2124  0.4899 -0.1339
 7711TIP3   OH244623   0.555   0.860  13.647  0.2043 -0.3504 -0.0523
 7711TIP3    H144624   0.461   0.868  13.661  0.0545 -1.2688 -0.4531
 7711TIP3    H244625   0.578   0.936  13.594 -0.2275  0.1249  0.4308
 7712TIP3   OH244626   0.853   6.773  16.988  0.0030 -0.0051 -0.3586
 7712TIP3    H144627   0.809   6.746  17.069  2.5351  0.6133  1.3525
 7712TIP3    H244628   0.800   6.845  16.955  0.3628  1.7002  2.4164
 7713TIP3   OH244629   5.282   3.209  11.910 -0.2676 -0.0066 -0.2809
 7713TIP3    H144630   5.220   3.193  11.981 -0.3260  0.6268 -0.1829
 7713TIP3    H244631   5.328   3.289  11.936 -0.1692  0.1327 -0.8762
 7714TIP3   OH244632   4.998   6.732   4.473 -0.4268  0.0128  0.1383
 7714TIP3    H144633   5.037   6.776   4.549 -0.3567  0.9313 -0.4160
 7714TIP3    H244634   4.986   6.802   4.408 -2.3357 -0.3752  0.0212
 7715TIP3   OH244635   4.932   2.294  12.601  0.7230 -0.2924 -0.1346
 7715TIP3    H144636   5.004   2.232  12.606 -0.1932 -1.3302  1.0708
 7715TIP3    H244637   4.867   2.260  12.663 -0.0323  1.6044  0.1934
 7716TIP3   OH244638   2.358   1.595   5.614  0.1765  0.2004 -0.7586
 7716TIP3    H144639   2.453   1.581   5.610  0.1307  0.0377 -1.8176
 7716TIP3    H244640   2.333   1.612   5.523 -0.8336  0.1105 -0.5125
 7717TIP3   OH244641   2.020   3.607  14.406 -0.0169  0.4369  0.2397
 7717TIP3    H144642   2.005   3.635  14.315  0.1333  0.0720  0.1006
 7717TIP3    H244643   2.078   3.531  14.398  0.4462  0.7430  0.6747
 7718TIP3   OH244644   0.303   2.369   1.993 -0.2298  0.2074  0.3104
 7718TIP3    H144645   0.380   2.422   2.014  0.0133 -0.2905  0.6969
 7718TIP3    H244646   0.243   2.429   1.950  0.3796  0.6061  0.0041
 7719TIP3   OH244647   3.791   5.880   5.574 -0.1121 -0.1310 -0.2900
 7719TIP3    H144648   3.833   5.858   5.657  0.2630  1.7867  0.0676
 7719TIP3    H244649   3.704   5.840   5.579  0.8502 -2.3730 -0.1704
 7720TIP3   OH244650   1.026   1.149   0.204  0.6853 -0.5885 -0.0022
 7720TIP3    H144651   1.070   1.227   0.237 -0.3313  0.8568 -1.8828
 7720TIP3    H244652   1.049   1.080   0.267  1.4223  1.2518  1.8525
 7721TIP3   OH244653   5.413   6.546  13.347  0.0942  0.0412  0.5461
 7721TIP3    H144654   5.456   6.543  13.433 -2.3712 -0.9585  1.8589
 7721TIP3    H244655   5.460   6.480  13.295  0.0857 -1.1302  1.9570
 7722TIP3   OH244656   3.110   5.616  12.194  0.0264 -0.7993 -0.5788
 7722TIP3    H144657   3.187   5.610  12.137  0.9886 -0.6777  0.6610
 7722TIP3    H244658   3.126   5.694  12.247 -0.2733 -1.5471  0.6483
 7723TIP3   OH244659   4.384   1.062   3.521  0.1719  0.4639 -0.3212
 7723TIP3    H144660   4.412   1.013   3.599  0.0872  1.7995  0.5904
 7723TIP3    H244661   4.374   1.152   3.552 -0.7689  0.8583 -1.6805
 7724TIP3   OH244662   6.442   3.974  11.653  0.3806 -0.3739  0.5775
 7724TIP3    H144663   6.496   3.956  11.576 -1.8130  3.2182 -2.0856
 7724TIP3    H244664   6.492   4.038  11.704 -0.0276  0.6863 -0.3178
 7725TIP3   OH244665   5.151   1.237  16.615 -0.2067  0.0812 -0.6363
 7725TIP3    H144666   5.119   1.156  16.576  1.2847 -1.6757  1.5621
 7725TIP3    H244667   5.090   1.254  16.687  0.8294 -0.4440  0.3867
 7726TIP3   OH244668   1.841   5.122   6.016 -0.3504  0.1660  0.6759
 7726TIP3    H144669   1.774   5.188   6.034  0.4072  1.2144 -0.1673
 7726TIP3    H244670   1.793   5.049   5.977 -0.9619  1.0993 -0.3782
 7727TIP3   OH244671   0.343   0.533  11.317 -0.0759 -0.1940 -0.5075
 7727TIP3    H144672   0.280   0.602  11.299 -0.2331 -0.5960 -1.6002
 7727TIP3    H244673   0.322   0.464  11.254  0.9399 -0.6735 -0.3519
 7728TIP3   OH244674   1.886   2.280  11.260  0.2943  0.3561  0.0989
 7728TIP3    H144675   1.836   2.250  11.183  1.3206 -0.3582 -0.3206
 7728TIP3    H244676   1.819   2.299  11.326 -0.6688  1.6243 -1.1604
 7729TIP3   OH244677   6.162   1.361   1.661  0.1021  0.2134  0.1545
 7729TIP3    H144678   6.112   1.306   1.601 -1.0189  0.3228  0.9693
 7729TIP3    H244679   6.181   1.440   1.610 -0.6740  0.2298 -0.1150
 7730TIP3   OH244680   1.118   2.968   6.206 -0.6146  0.1944 -0.1411
 7730TIP3    H144681   1.191   3.005   6.255  0.5442 -1.6090 -0.3930
 7730TIP3    H244682   1.088   3.038   6.148 -0.1514  1.4589  1.1226
 7731TIP3   OH244683   2.694   3.400  14.206 -0.2076  0.3329  0.6108
 7731TIP3    H144684   2.619   3.394  14.146 -1.4683 -2.1370  2.2675
 7731TIP3    H244685   2.655   3.404  14.293  1.5810  3.5842  1.4184
 7732TIP3   OH244686   4.136   4.718   2.078  0.0846 -0.1490  0.6303
 7732TIP3    H144687   4.221   4.690   2.112  0.1913 -0.9627 -0.2449
 7732TIP3    H244688   4.149   4.719   1.983 -1.3133 -1.7762  0.3837
 7733TIP3   OH244689   6.247   4.838  15.045  0.1095  0.3569  0.3917
 7733TIP3    H144690   6.320   4.790  15.085  0.5028  2.1225  1.9387
 7733TIP3    H244691   6.276   4.855  14.955  1.2933  0.3705  0.7502
 7734TIP3   OH244692   2.282   4.395   4.124  0.0832  0.6840  0.0797
 7734TIP3    H144693   2.227   4.347   4.062  0.6205 -0.2310  0.2978
 7734TIP3    H244694   2.339   4.329   4.163  0.1165  1.3233  1.1773
 7735TIP3   OH244695   3.518   5.943  15.793  0.2612  0.0652 -0.9549
 7735TIP3    H144696   3.444   5.971  15.738 -0.4515  0.4569  0.1841
 7735TIP3    H244697   3.594   5.982  15.751 -0.4610  1.7819 -0.7333
 7736TIP3   OH244698   5.315   1.657  10.619  1.0195 -0.2811  0.0432
 7736TIP3    H144699   5.256   1.595  10.663  1.0414 -0.0733  0.3683
 7736TIP3    H244700   5.279   1.743  10.641  1.7633 -0.1297  0.7025
 7737TIP3   OH244701   4.516   1.118   2.043 -0.3836 -0.0041 -0.1531
 7737TIP3    H144702   4.453   1.093   2.111 -0.3301 -1.5416 -0.6355
 7737TIP3    H244703   4.580   1.173   2.088 -0.7437 -0.4121  0.8777
 7738TIP3   OH244704   4.255   6.358  16.498 -0.4991 -0.6481 -0.1507
 7738TIP3    H144705   4.313   6.342  16.573 -0.5188 -1.2988 -0.2641
 7738TIP3    H244706   4.229   6.270  16.470  1.1594 -0.5451 -2.2304
 7739TIP3   OH244707   4.691   3.791   1.826  0.0451 -0.2794 -0.3534
 7739TIP3    H144708   4.653   3.743   1.900  2.0125 -2.5497 -0.6985
 7739TIP3    H244709   4.615   3.823   1.777 -1.3572 -1.7357  0.7561
 7740TIP3   OH244710   2.928   0.465   5.718  0.5623 -0.4162 -0.0804
 7740TIP3    H144711   2.900   0.454   5.809  1.7117  0.1795  0.3575
 7740TIP3    H244712   2.852   0.436   5.667 -1.1900  1.8766  1.0298
 7741TIP3   OH244713   2.880   3.776  15.748 -1.0699  0.7224 -0.1830
 7741TIP3    H144714   2.818   3.708  15.721 -0.4488 -0.4563  1.2755
 7741TIP3    H244715   2.870   3.782  15.843 -0.3083  1.8901 -0.1528
 7742TIP3   OH244716   1.827   5.875  13.546 -0.0166  0.3985  0.1884
 7742TIP3    H144717   1.815   5.862  13.640 -2.2809 -2.5089 -0.3609
 7742TIP3    H244718   1.904   5.823  13.524 -0.0224  0.3476  0.2893
 7743TIP3   OH244719   5.152   3.389   1.842 -0.0889 -0.1109  0.3326
 7743TIP3    H144720   5.141   3.373   1.936  1.5780  2.9846  1.2049
 7743TIP3    H244721   5.247   3.381   1.827 -0.0101  1.8140 -0.4899
 7744TIP3   OH244722   5.285   6.038   4.979 -0.7351  0.1440 -0.1972
 7744TIP3    H144723   5.291   6.044   5.074 -0.1266 -0.3691 -0.1930
 7744TIP3    H244724   5.191   6.035   4.961 -0.9165 -3.2055  0.6427
 7745TIP3   OH244725   1.451   2.488  14.209  0.0585 -0.2847  0.0557
 7745TIP3    H144726   1.369   2.497  14.161  0.2741 -0.9987 -0.4744
 7745TIP3    H244727   1.436   2.531  14.293  0.0226  2.0029 -1.0639
 7746TIP3   OH244728   0.253   1.309   1.861  0.2346  0.5364  0.0335
 7746TIP3    H144729   0.181   1.366   1.888 -0.8090 -0.6013 -0.2218
 7746TIP3    H244730   0.221   1.268   1.780 -0.4984 -2.8083  1.8224
 7747TIP3   OH244731   5.026   3.671  16.115 -0.0523  0.2191  0.3035
 7747TIP3    H144732   4.965   3.698  16.047 -0.1461  1.6549  0.9183
 7747TIP3    H244733   5.002   3.580  16.134  0.6389 -0.5725 -2.2295
 7748TIP3   OH244734   6.407   4.233  12.375 -0.1446  0.1510 -0.3047
 7748TIP3    H144735   6.338   4.193  12.427 -3.1384  1.2065 -3.1392
 7748TIP3    H244736   6.419   4.175  12.300  1.2519  0.5935 -0.4689
 7749TIP3   OH244737   1.957   5.684  16.632 -0.4924  0.1147  0.7414
 7749TIP3    H144738   1.928   5.593  16.640 -1.4265  0.2768 -0.5191
 7749TIP3    H244739   2.049   5.677  16.604 -0.1508 -0.4121  1.9281
 7750TIP3   OH244740   4.554   6.033   0.359 -0.2017  0.1985  0.2264
 7750TIP3    H144741   4.646   6.056   0.346 -0.2957  0.3582 -0.1873
 7750TIP3    H244742   4.535   5.972   0.287 -0.2347 -0.3636  0.7103
 7751TIP3   OH244743   5.678   2.760   2.382 -0.4116 -0.5429 -0.3826
 7751TIP3    H144744   5.610   2.814   2.342  0.4102 -0.3963 -1.6525
 7751TIP3    H244745   5.702   2.697   2.314  0.4610 -0.8154  0.1616
 7752TIP3   OH244746   1.592   0.606   0.794 -0.3046  0.0074  0.3548
 7752TIP3    H144747   1.570   0.582   0.704  3.6920  1.2510 -1.1568
 7752TIP3    H244748   1.581   0.701   0.797  1.3457  0.2259  0.5110
 7753TIP3   OH244749   5.511   4.264   0.087  0.4996 -0.0018  0.0727
 7753TIP3    H144750   5.554   4.202   0.028  1.2690 -0.5560  1.1851
 7753TIP3    H244751   5.425   4.279   0.047  0.9987 -0.3346 -1.1933
 7754TIP3   OH244752   4.947   1.842  13.633  0.0923  0.1712  0.1382
 7754TIP3    H144753   4.994   1.835  13.549 -0.9542 -3.4086 -0.3481
 7754TIP3    H244754   5.015   1.829  13.699  0.5228  0.0412 -0.3172
 7755TIP3   OH244755   2.526   3.231   4.381 -0.1989 -0.5478  0.0400
 7755TIP3    H144756   2.598   3.273   4.427 -0.9728 -1.1951  1.9442
 7755TIP3    H244757   2.465   3.301   4.361  0.9246  0.0135 -1.6268
 7756TIP3   OH244758   0.044   6.507  13.922 -0.5025 -0.1634 -0.2290
 7756TIP3    H144759  -0.023   6.511  13.991 -0.6513  0.4310 -0.4006
 7756TIP3    H244760   0.125   6.533  13.965 -0.2687 -1.4068  0.1058
 7757TIP3   OH244761   5.240   0.375  17.097 -0.5416 -0.1472  0.3630
 7757TIP3    H144762   5.178   0.447  17.086  0.4514  0.5548 -0.9372
 7757TIP3    H244763   5.205   0.323  17.170 -2.6329  0.2117 -0.3437
 7758TIP3   OH244764   4.996   3.554   1.669  0.0871 -0.2011 -0.2070
 7758TIP3    H144765   5.053   3.504   1.727  2.1093  1.2238 -0.8508
 7758TIP3    H244766   5.019   3.523   1.581  0.2921  0.7661 -0.5064
 7759TIP3   OH244767   4.033   5.392   0.280 -0.5356 -0.3868  0.3435
 7759TIP3    H144768   4.034   5.433   0.367  0.6645 -0.4562  0.3836
 7759TIP3    H244769   4.123   5.402   0.248 -1.4562  1.7739 -1.9162
 7760TIP3   OH244770   3.968   4.921   3.596  0.2472 -0.5415  0.3226
 7760TIP3    H144771   3.888   4.888   3.637 -0.3090  0.2099 -0.1557
 7760TIP3    H244772   4.037   4.898   3.659 -0.3653 -0.9682  0.8600
 7761TIP3   OH244773   1.131   4.159  14.065  0.1158  0.1665  0.4330
 7761TIP3    H144774   1.193   4.151  13.993 -0.7535  2.0719 -0.6078
 7761TIP3    H244775   1.056   4.106  14.038  0.5271 -0.6446  0.8413
 7762TIP3   OH244776   0.605   3.614  13.153 -0.2056 -0.0377  0.3635
 7762TIP3    H144777   0.676   3.617  13.089  1.9884  1.6858  2.6747
 7762TIP3    H244778   0.606   3.524  13.185 -0.4121 -0.5469 -1.0139
 7763TIP3   OH244779   4.347   5.202   2.616 -0.1922  0.3970 -0.1776
 7763TIP3    H144780   4.333   5.121   2.568 -0.9889  0.2725  0.2430
 7763TIP3    H244781   4.417   5.247   2.569 -1.0253  0.3306 -1.5142
 7764TIP3   OH244782   0.055   5.419   1.709  0.1249 -0.3537 -1.0887
 7764TIP3    H144783   0.094   5.332   1.720  0.1728 -0.2123  0.0087
 7764TIP3    H244784   0.128   5.480   1.716 -0.1032 -0.1547 -0.2475
 7765TIP3   OH244785   3.427   0.220  11.207 -0.3641  0.2481  0.4395
 7765TIP3    H144786   3.501   0.164  11.185 -2.0374 -1.3924 -1.3610
 7765TIP3    H244787   3.383   0.176  11.280 -0.1008  0.7194  0.8860
 7766TIP3   OH244788   4.854   5.470  10.974 -0.0090  0.3847  0.3295
 7766TIP3    H144789   4.927   5.507  11.025  0.7585  2.9159 -2.3273
 7766TIP3    H244790   4.793   5.542  10.963 -0.3157 -0.1330 -1.9226
 7767TIP3   OH244791   6.688   4.052   2.239  0.0298  0.8814  0.5710
 7767TIP3    H144792   6.644   4.110   2.301 -0.6456  0.7347  0.2372
 7767TIP3    H244793   6.617   4.010   2.190  0.5013 -0.1441  0.7290
 7768TIP3   OH244794   0.010   6.467  15.672  0.0329 -0.0026 -0.4618
 7768TIP3    H144795  -0.016   6.436  15.759 -3.3936  0.2283 -1.2930
 7768TIP3    H244796   0.083   6.527  15.690 -0.9397  0.5177  2.3337
 7769TIP3   OH244797   2.051   6.084   3.151  0.3227  0.4158  0.1757
 7769TIP3    H144798   2.090   6.023   3.213  2.5132  1.2050 -0.3391
 7769TIP3    H244799   2.026   6.030   3.076  0.9077 -0.0569  0.3177
 7770TIP3   OH244800   5.970   2.225  15.815  0.2161  0.4327  0.1875
 7770TIP3    H144801   5.938   2.312  15.790 -2.7991 -0.5968  0.0084
 7770TIP3    H244802   5.982   2.179  15.732 -1.5174 -0.3101  0.2914
 7771TIP3   OH244803   1.746   3.394   1.434 -0.1954 -0.4040  0.0009
 7771TIP3    H144804   1.800   3.471   1.454  0.3776 -0.6343 -0.5740
 7771TIP3    H244805   1.809   3.331   1.398 -0.7220 -1.0002  0.1196
 7772TIP3   OH244806   4.611   3.241   1.266 -0.0679  0.3696  0.3992
 7772TIP3    H144807   4.602   3.169   1.328  0.2750 -0.5260 -0.5613
 7772TIP3    H244808   4.695   3.282   1.288  1.9754 -2.2589 -1.7193
 7773TIP3   OH244809   0.962   4.963  13.376 -0.4531 -0.0571  0.1446
 7773TIP3    H144810   0.937   4.991  13.288  0.3974  1.1316  0.2599
 7773TIP3    H244811   0.883   4.973  13.429 -0.9846 -0.8400 -0.4838
 7774TIP3   OH244812   5.630   4.451  16.568  0.6306  0.2090 -0.1336
 7774TIP3    H144813   5.644   4.464  16.662  0.8202  0.7158 -0.2306
 7774TIP3    H244814   5.691   4.512  16.526 -0.3996  0.9516 -0.5765
 7775TIP3   OH244815   0.416   2.338  13.391 -0.0351  0.6046  0.2278
 7775TIP3    H144816   0.496   2.330  13.340  0.2475 -1.0937  0.8838
 7775TIP3    H244817   0.420   2.266  13.453 -0.4034  2.5405  2.6369
 7776TIP3   OH244818   2.787   3.441   1.558 -0.0280  0.5924  0.9294
 7776TIP3    H144819   2.780   3.359   1.606  0.9701 -0.2809 -0.3547
 7776TIP3    H244820   2.882   3.458   1.552  0.1826 -0.9330 -3.2108
 7777TIP3   OH244821   2.265   4.618   2.674 -0.6121 -0.0907  0.0072
 7777TIP3    H144822   2.223   4.705   2.672  0.0698  0.2407 -0.4178
 7777TIP3    H244823   2.193   4.557   2.690 -1.4100  0.3947 -1.4779
 7778TIP3   OH244824   4.808   2.124   0.083 -0.0584  0.8672 -0.3335
 7778TIP3    H144825   4.756   2.065   0.138 -0.4540  1.1684 -0.3789
 7778TIP3    H244826   4.769   2.210   0.098  0.5693  1.1336 -0.2012
 7779TIP3   OH244827   0.783   4.313   1.284  0.1596  0.3309  0.0698
 7779TIP3    H144828   0.735   4.303   1.202  0.0354  0.3933  0.1333
 7779TIP3    H244829   0.865   4.356   1.260  0.7521 -0.9311 -0.2240
 7780TIP3   OH244830   3.770   5.213  13.298  0.2797  0.0916  0.0628
 7780TIP3    H144831   3.699   5.155  13.269 -0.5126  0.8047  0.5236
 7780TIP3    H244832   3.726   5.293  13.326  1.3892  1.0882 -0.9334
 7781TIP3   OH244833   4.724   1.048  12.397  0.4836  0.4898 -0.0079
 7781TIP3    H144834   4.760   1.094  12.472 -0.1176  1.0210 -0.0333
 7781TIP3    H244835   4.739   0.955  12.416  1.4085  0.6763  0.1982
 7782TIP3   OH244836   0.711   0.933  17.118 -0.0929 -0.0140 -0.1224
 7782TIP3    H144837   0.667   0.877  17.182  0.2009 -0.6541 -0.4646
 7782TIP3    H244838   0.800   0.943  17.152 -0.3725  0.9450  0.3648
 7783TIP3   OH244839   4.496   0.991   3.770 -0.1440 -0.2993  0.3251
 7783TIP3    H144840   4.522   0.899   3.771 -0.6558 -0.5217 -1.8859
 7783TIP3    H244841   4.462   1.007   3.858  0.5925 -2.0209  0.9659
 7784TIP3   OH244842   6.525   3.035  12.095 -0.2016  0.2413  0.8738
 7784TIP3    H144843   6.519   3.111  12.154  1.1111  0.4697  0.7323
 7784TIP3    H244844   6.603   2.989  12.124  0.7431  0.6038 -0.9676
 7785TIP3   OH244845   1.044   5.194  12.535  0.4905 -0.0541  0.3870
 7785TIP3    H144846   1.072   5.233  12.619  0.5890  1.1511 -0.1806
 7785TIP3    H244847   1.125   5.186  12.484 -0.0189  3.4672 -1.2695
 7786TIP3   OH244848   1.599   4.222  16.065 -0.0768 -0.8036  0.3568
 7786TIP3    H144849   1.639   4.304  16.035  1.3366 -1.8941 -0.8789
 7786TIP3    H244850   1.648   4.199  16.144  0.6955 -1.3271 -0.2654
 7787TIP3   OH244851   4.414   4.032   1.047 -0.3975  0.4148  0.4689
 7787TIP3    H144852   4.383   4.020   1.137 -0.9687 -2.0913  0.0106
 7787TIP3    H244853   4.491   3.974   1.041  0.4300  1.5517 -0.3042
 7788TIP3   OH244854   2.558   1.179   1.799  0.6702  0.0976  0.0533
 7788TIP3    H144855   2.578   1.091   1.832  0.3319  0.6636  1.8751
 7788TIP3    H244856   2.574   1.237   1.873 -1.3275  1.3161 -0.3727
 7789TIP3   OH244857   6.391   1.796   2.493 -0.6897  0.1325  0.0349
 7789TIP3    H144858   6.401   1.789   2.588  0.7431  0.0409 -0.0951
 7789TIP3    H244859   6.297   1.804   2.479 -0.9584 -0.3084  1.4302
 7790TIP3   OH244860   0.003   0.753  13.487  0.2033  0.1445 -0.0988
 7790TIP3    H144861   0.006   0.747  13.582  0.1009 -1.5892 -0.1659
 7790TIP3    H244862   0.068   0.690  13.457  1.1493  1.6041 -1.1885
 7791TIP3   OH244863   5.254   6.683   3.593  0.0166  0.5592  0.1423
 7791TIP3    H144864   5.164   6.668   3.623  0.1988 -1.7388 -0.2485
 7791TIP3    H244865   5.262   6.629   3.514  1.3023  1.9308 -0.7135
 7792TIP3   OH244866   0.069   6.664  12.194  0.3188 -0.2326  0.0772
 7792TIP3    H144867   0.021   6.601  12.140  0.8523 -1.7499  1.3038
 7792TIP3    H244868   0.124   6.610  12.250  2.2940  1.3989 -0.1774
 7793TIP3   OH244869   0.566   2.844   0.365  0.5034  0.1728 -0.3308
 7793TIP3    H144870   0.604   2.826   0.450  1.2518  0.5129 -0.5881
 7793TIP3    H244871   0.516   2.764   0.343 -1.3095  0.7914  1.2639
 7794TIP3   OH244872   1.596   0.759   5.033 -0.2061 -0.4221 -0.0504
 7794TIP3    H144873   1.551   0.802   4.960  0.0018  1.0948  0.6756
 7794TIP3    H244874   1.689   0.776   5.018 -0.1685 -0.0188  0.6033
 7795TIP3   OH244875   0.399   4.015  10.278 -0.4383 -0.3625  0.0751
 7795TIP3    H144876   0.334   4.056  10.221 -0.2613 -1.0605 -0.6577
 7795TIP3    H244877   0.348   3.961  10.338 -0.5287 -2.7318 -1.9370
 7796TIP3   OH244878   0.220   1.078  12.256  0.0024 -0.1298  0.1424
 7796TIP3    H144879   0.251   0.989  12.237  0.9715 -0.0071  1.0461
 7796TIP3    H244880   0.300   1.131  12.257 -0.2494  0.2819  2.1043
 7797TIP3   OH244881   4.347   3.839  15.629 -0.0582 -0.4132  0.0595
 7797TIP3    H144882   4.384   3.843  15.541 -1.2614 -1.6715 -0.5420
 7797TIP3    H244883   4.401   3.775  15.675  0.5588  0.2297  0.2483
 7798TIP3   OH244884   0.680   1.715  16.199  0.6886  0.1625  0.0373
 7798TIP3    H144885   0.772   1.731  16.180  0.6703  0.2134 -0.0112
 7798TIP3    H244886   0.667   1.747  16.288  0.5030  1.0127 -0.2868
 7799TIP3   OH244887   5.281   5.470   0.568  0.6321  0.6904  0.3476
 7799TIP3    H144888   5.241   5.390   0.604  0.7055  0.2464 -0.5139
 7799TIP3    H244889   5.253   5.540   0.627 -1.4395  0.4046 -0.2167
 7800TIP3   OH244890   5.839   0.622  16.389 -0.1618  0.1165  0.5807
 7800TIP3    H144891   5.754   0.627  16.344 -0.2384  1.1337  0.8159
 7800TIP3    H244892   5.854   0.711  16.422  0.6771 -0.2188  1.1341
 7801TIP3   OH244893   5.321   5.192  13.250  0.1699  0.4685 -0.1308
 7801TIP3    H144894   5.391   5.182  13.314  1.2567 -1.6885 -1.5298
 7801TIP3    H244895   5.251   5.136  13.283  1.2052 -1.6821 -1.3054
 7802TIP3   OH244896   2.061   5.871   4.663  0.2483  0.0480  0.2429
 7802TIP3    H144897   2.076   5.807   4.594 -1.4900 -0.6269  0.4474
 7802TIP3    H244898   2.075   5.956   4.622 -0.9682 -0.3349 -1.0131
 7803TIP3   OH244899   1.868   0.804   4.967  0.2762  0.0160 -0.4596
 7803TIP3    H144900   1.945   0.860   4.976  0.2045  0.0005  0.3964
 7803TIP3    H244901   1.893   0.721   5.009 -0.0693 -0.1224 -0.5179
 7804TIP3   OH244902   3.774   1.314  11.294 -0.0857  0.6649 -0.0428
 7804TIP3    H144903   3.849   1.271  11.253  1.1857  1.5556  1.2837
 7804TIP3    H244904   3.723   1.242  11.332  2.0783  0.2181  2.2842
 7805TIP3   OH244905   1.352   5.456  15.812 -0.2233  0.2467 -0.0495
 7805TIP3    H144906   1.276   5.420  15.765  0.6033 -2.0026  0.1933
 7805TIP3    H244907   1.325   5.543  15.839 -2.8968 -0.6211  0.3926
 7806TIP3   OH244908   6.224   3.775   2.371  0.2346  0.0258 -0.1977
 7806TIP3    H144909   6.232   3.715   2.296  1.5385  1.5171 -1.3254
 7806TIP3    H244910   6.298   3.753   2.427  1.0518  0.9198 -0.8981
 7807TIP3   OH244911   3.548   6.689  14.401 -0.9103  0.2477  0.4314
 7807TIP3    H144912   3.456   6.678  14.424 -1.0017  2.3517  1.2729
 7807TIP3    H244913   3.593   6.704  14.484 -0.0275  0.6087 -0.0867
 7808TIP3   OH244914   2.234   4.672  14.005  0.7884  0.2767  0.1404
 7808TIP3    H144915   2.172   4.606  13.974  3.5713 -2.0754 -0.9182
 7808TIP3    H244916   2.199   4.699  14.090 -0.6931 -2.3495  0.4744
 7809TIP3   OH244917   0.414   5.136   0.568  0.7223  0.0558 -0.0030
 7809TIP3    H144918   0.484   5.198   0.589 -2.3423  3.5372  1.0776
 7809TIP3    H244919   0.389   5.158   0.478 -0.4214  0.4160  0.3971
 7810TIP3   OH244920   3.458   2.647  11.957  0.2904  0.1232  0.0771
 7810TIP3    H144921   3.455   2.567  11.904 -1.0092  0.7704 -0.8810
 7810TIP3    H244922   3.381   2.639  12.015  0.7136  0.2359  0.6612
 7811TIP3   OH244923   4.808   2.842   3.151 -0.4284 -0.3140 -0.2492
 7811TIP3    H144924   4.741   2.809   3.210  0.5276  1.6224  2.1129
 7811TIP3    H244925   4.890   2.832   3.200  0.7158 -0.4989 -2.1134
 7812TIP3   OH244926   4.080   4.598  17.156  0.5278  0.8237 -0.0178
 7812TIP3    H144927   3.998   4.648  17.151  1.5288  2.4924 -0.7538
 7812TIP3    H244928   4.092   4.582  17.249 -0.8975  0.0525  0.0625
 7813TIP3   OH244929   3.581   6.747  13.787  0.5310  0.6748  0.3498
 7813TIP3    H144930   3.670   6.721  13.764  0.4926  0.2443  0.6680
 7813TIP3    H244931   3.560   6.692  13.863  0.3631  1.4846  0.8934
 7814TIP3   OH244932   3.264   6.544  14.178  0.4025 -0.4904 -0.1427
 7814TIP3    H144933   3.304   6.458  14.185 -0.4518 -0.8220  0.9414
 7814TIP3    H244934   3.172   6.526  14.159  0.5792  0.2363 -1.8509
 7815TIP3   OH244935   2.756   4.585  12.003  0.1246 -0.7299 -0.2529
 7815TIP3    H144936   2.710   4.657  11.961 -2.5803 -0.4492  2.8015
 7815TIP3    H244937   2.818   4.627  12.062  0.7876 -1.0221 -0.7269
 7816TIP3   OH244938   4.461   3.522  12.718 -0.3645 -0.4476 -0.2217
 7816TIP3    H144939   4.431   3.613  12.719 -0.3561 -0.4223  1.7630
 7816TIP3    H244940   4.411   3.481  12.647 -0.7302  0.9737 -0.8199
 7817TIP3   OH244941   5.228   1.902   3.766  0.7854 -0.1652 -0.1848
 7817TIP3    H144942   5.275   1.955   3.702  0.3023 -0.4408 -0.7682
 7817TIP3    H244943   5.139   1.938   3.766  1.0761  0.6496  1.2418
 7818TIP3   OH244944   1.197   0.911   4.666 -0.1954  0.1611  0.1151
 7818TIP3    H144945   1.106   0.904   4.695 -0.1716  2.3484  0.9312
 7818TIP3    H244946   1.191   0.930   4.573 -0.4067 -2.7914 -0.5756
 7819TIP3   OH244947   2.949   6.752   2.986 -0.3204 -0.1752 -0.2902
 7819TIP3    H144948   2.929   6.833   2.939 -2.2342  0.0463  0.8149
 7819TIP3    H244949   2.903   6.684   2.938 -1.4628 -0.0918  0.6532
 7820TIP3   OH244950   2.924   0.383  12.435  0.2507 -0.6329 -0.1401
 7820TIP3    H144951   2.875   0.446  12.487  0.7070 -0.7497  0.4525
 7820TIP3    H244952   2.970   0.435  12.369 -0.2296 -0.4670 -0.3419
 7821TIP3   OH244953   3.998   5.184   3.495 -0.2747  0.0067  0.5005
 7821TIP3    H144954   4.090   5.160   3.487 -0.6015 -0.8121 -1.3368
 7821TIP3    H244955   3.957   5.108   3.536 -0.1479  0.3351  1.2370
 7822TIP3   OH244956   6.465   4.874   0.558  0.1366  0.4710 -0.1811
 7822TIP3    H144957   6.374   4.901   0.566  0.1137  0.3973 -0.1942
 7822TIP3    H244958   6.490   4.899   0.469 -0.0921 -0.1868 -0.4306
 7823TIP3   OH244959   6.393   3.457   2.019 -0.5489 -0.3230 -0.2202
 7823TIP3    H144960   6.409   3.363   2.024 -3.8981 -1.0294 -0.7112
 7823TIP3    H244961   6.389   3.477   1.925 -1.1217  0.0340 -0.1276
 7824TIP3   OH244962   3.950   0.015  10.751 -0.5118 -0.3172 -0.0592
 7824TIP3    H144963   4.033   0.003  10.705  0.7615  0.9718  1.7657
 7824TIP3    H244964   3.941  -0.062  10.807  0.8340  0.6806  1.6440
 7825TIP3   OH244965   5.676   0.637   3.116 -0.2084 -0.0679 -0.1653
 7825TIP3    H144966   5.733   0.711   3.135 -1.3388  0.6173  0.6309
 7825TIP3    H244967   5.734   0.561   3.123  0.3878  0.5027  1.7553
 7826TIP3   OH244968   2.739   1.281   0.923  0.1618  0.5149  0.1179
 7826TIP3    H144969   2.717   1.374   0.935  1.4405  0.8924 -0.3010
 7826TIP3    H244970   2.692   1.255   0.844  0.9567  1.2258 -0.6076
 7827TIP3   OH244971   2.470   6.008   3.216 -0.1222 -0.0070 -0.2736
 7827TIP3    H144972   2.437   6.039   3.132  1.8445 -0.9099 -1.4582
 7827TIP3    H244973   2.564   5.993   3.201  0.2668 -0.2971  2.0590
 7828TIP3   OH244974   6.683   5.592   0.852 -0.3009  0.2359  0.3273
 7828TIP3    H144975   6.660   5.653   0.781  0.8779  0.6313  0.2588
 7828TIP3    H244976   6.615   5.525   0.850 -1.8612  1.7435  0.6440
 7829TIP3   OH244977   3.578   6.820   4.487  0.0815  0.1664 -0.1843
 7829TIP3    H144978   3.584   6.913   4.469 -0.5814  0.4762  1.0854
 7829TIP3    H244979   3.637   6.805   4.561  1.7567 -0.8351 -1.6144
 7830TIP3   OH244980   1.315   4.015   4.567 -0.3488 -0.1118 -0.0653
 7830TIP3    H144981   1.292   4.071   4.493 -1.4693 -1.0100 -0.4126
 7830TIP3    H244982   1.233   4.002   4.614  0.5215  1.2986  1.9715
 7831TIP3   OH244983   5.745   1.390   2.089  0.1456 -0.3539 -0.1532
 7831TIP3    H144984   5.830   1.426   2.113 -0.8742  0.1564  3.2553
 7831TIP3    H244985   5.764   1.324   2.022  2.8200  1.7177 -1.5927
 7832TIP3   OH244986   2.923   3.466   2.827 -0.0132  0.5703 -0.2022
 7832TIP3    H144987   3.011   3.444   2.857 -0.4467 -0.5860  0.2923
 7832TIP3    H244988   2.934   3.497   2.737  0.9027  0.5716 -0.0925
 7833TIP3   OH244989   0.595   0.758  13.234  0.5340 -0.0135 -0.3246
 7833TIP3    H144990   0.616   0.792  13.147  1.6735  0.0957 -0.0212
 7833TIP3    H244991   0.507   0.792  13.253 -0.5517 -1.6101 -2.2036
 7834TIP3   OH244992   2.981   4.960  12.347  0.1240  0.4524 -0.3779
 7834TIP3    H144993   2.899   4.942  12.301 -0.8734  2.7296  0.3717
 7834TIP3    H244994   2.999   5.052  12.328  2.8528 -0.1235 -0.9803
 7835TIP3   OH244995   4.065   2.288   2.134  0.0928 -0.3511  0.5128
 7835TIP3    H144996   4.158   2.304   2.143  0.2808 -0.4488 -0.9282
 7835TIP3    H244997   4.044   2.318   2.045 -1.0675 -1.0978  0.5054
 7836TIP3   OH244998   1.734   2.912  16.159  0.2029 -0.0271  0.4633
 7836TIP3    H144999   1.808   2.906  16.219 -0.1904 -0.2391  0.9324
 7836TIP3    H245000   1.657   2.909  16.215 -0.1843 -0.7567 -0.0903
 7837TIP3   OH245001   4.789   6.171   4.112  0.0447 -0.1060 -0.1035
 7837TIP3    H145002   4.717   6.218   4.154  0.5215 -1.3185  2.2213
 7837TIP3    H245003   4.760   6.080   4.111  0.0638 -0.1532 -2.5308
 7838TIP3   OH245004   4.703   1.644  15.721  0.4747  0.0472 -0.2232
 7838TIP3    H145005   4.734   1.704  15.789 -2.7698 -0.5400  1.9982
 7838TIP3    H245006   4.711   1.694  15.640  2.0664  1.7700  0.9070
 7839TIP3   OH245007   6.242   4.264   2.053 -0.1135  0.3017 -0.5054
 7839TIP3    H145008   6.245   4.227   1.964 -1.2860 -0.2458 -0.3310
 7839TIP3    H245009   6.234   4.189   2.110 -0.5053  0.7156 -0.0070
 7840TIP3   OH245010   0.125   0.082   1.502 -0.3745 -0.0518 -0.2933
 7840TIP3    H145011   0.067   0.153   1.531 -0.6196  0.3522 -1.6706
 7840TIP3    H245012   0.085   0.051   1.421 -0.1825 -1.6831  0.2068
 7841TIP3   OH245013   0.876   3.041   3.972 -0.0583 -0.2416  0.1105
 7841TIP3    H145014   0.883   3.112   3.908 -2.8564 -0.1591 -0.2068
 7841TIP3    H245015   0.885   2.961   3.920 -3.7611 -0.2326 -0.8333
 7842TIP3   OH245016   4.580   0.181   2.771  0.0703  0.5083  0.3939
 7842TIP3    H145017   4.659   0.237   2.769  0.2697  0.2204 -0.1955
 7842TIP3    H245018   4.580   0.142   2.858  0.1928  1.0554  0.6455
 7843TIP3   OH245019   5.882   0.754  16.805 -0.4480 -0.1696 -0.4722
 7843TIP3    H145020   5.884   0.844  16.774 -0.1386  0.3702  0.9903
 7843TIP3    H245021   5.866   0.701  16.727 -0.0213  1.1003 -1.4527
 7844TIP3   OH245022   2.433   0.107  17.000 -0.4458  0.3349 -0.3782
 7844TIP3    H145023   2.339   0.121  17.010 -0.9105 -1.9336 -1.0796
 7844TIP3    H245024   2.452   0.134  16.910 -0.7122 -0.4655 -0.6840
 7845TIP3   OH245025   2.274   1.298   0.582 -0.5086  0.3008 -0.4287
 7845TIP3    H145026   2.345   1.262   0.634 -1.9359 -1.0563  0.6940
 7845TIP3    H245027   2.195   1.277   0.632 -1.8511  0.1714 -2.4907
 7846TIP3   OH245028   5.098   3.857  15.126 -0.6771  0.2660  0.4109
 7846TIP3    H145029   5.089   3.828  15.217 -0.1377  0.8085  0.6447
 7846TIP3    H245030   5.133   3.946  15.133  0.5714 -0.1449 -0.3584
 7847TIP3   OH245031   4.880   2.823   3.999 -0.4294  0.4926 -0.0739
 7847TIP3    H145032   4.929   2.889   3.951  0.6775 -1.5779 -1.9653
 7847TIP3    H245033   4.830   2.776   3.932  1.8611 -3.1069  0.4451
 7848TIP3   OH245034   1.102   3.256   5.031 -0.1363 -0.2784  0.0429
 7848TIP3    H145035   1.135   3.229   5.117 -1.4552 -0.8891  0.3850
 7848TIP3    H245036   1.058   3.339   5.048  1.8695  0.9986 -0.5771
 7849TIP3   OH245037   5.532   2.852  15.240  0.1689 -0.0445  0.1776
 7849TIP3    H145038   5.575   2.840  15.156 -0.0190 -0.1596  0.0976
 7849TIP3    H245039   5.546   2.769  15.286 -0.4534 -0.2889 -0.0681
 7850TIP3   OH245040   1.350   3.648   1.715 -0.4870  0.1402  0.0108
 7850TIP3    H145041   1.403   3.727   1.712  0.5000 -0.5087 -0.1806
 7850TIP3    H245042   1.403   3.581   1.672 -0.5011 -1.0679  1.7348
 7851TIP3   OH245043   5.512   3.756  15.469 -0.4230  0.4373 -0.4675
 7851TIP3    H145044   5.592   3.714  15.437 -0.2484  0.1037  0.3766
 7851TIP3    H245045   5.441   3.702  15.433 -0.2350  0.1085 -0.3538
 7852TIP3   OH245046   5.719   2.829   5.246  0.5597 -0.0715 -0.2546
 7852TIP3    H145047   5.778   2.897   5.214  1.4051 -1.5256 -1.9649
 7852TIP3    H245048   5.706   2.850   5.338  2.1133  1.4594 -0.3293
 7853TIP3   OH245049   1.528   6.175  11.866 -0.1163  0.3616 -0.0472
 7853TIP3    H145050   1.587   6.127  11.809 -1.5674 -0.9006 -0.5451
 7853TIP3    H245051   1.488   6.108  11.922 -1.7529  1.0262 -0.3521
 7854TIP3   OH245052   4.110   4.147   5.607  0.3187  0.9544  0.3145
 7854TIP3    H145053   4.179   4.083   5.590 -0.5219 -0.0290  0.4677
 7854TIP3    H245054   4.140   4.195   5.684  0.5666  0.1098  0.7634
 7855TIP3   OH245055   0.154   1.083   5.891 -0.5016 -0.2070 -0.1211
 7855TIP3    H145056   0.115   1.163   5.926 -2.6474 -2.1676  2.2933
 7855TIP3    H245057   0.245   1.108   5.871 -1.0999  2.8067  0.4267
 7856TIP3   OH245058   4.439   5.186   1.920  0.3498  0.3921 -0.3406
 7856TIP3    H145059   4.489   5.222   1.847  0.4041 -3.5081 -2.4848
 7856TIP3    H245060   4.375   5.128   1.879 -1.8840  0.5637  2.6307
 7857TIP3   OH245061   2.757   4.330   4.099 -0.0589 -0.0539  0.7928
 7857TIP3    H145062   2.686   4.393   4.089 -1.5279 -1.7356  0.0180
 7857TIP3    H245063   2.720   4.262   4.156  1.0414 -0.8250  0.6052
 7858TIP3   OH245064   1.926   6.564  12.462  0.2467  0.6183  0.1765
 7858TIP3    H145065   1.970   6.635  12.415 -0.2993  1.4911  0.9475
 7858TIP3    H245066   1.876   6.608  12.531 -3.8593  0.0450 -2.0728
 7859TIP3   OH245067   2.976   4.249  12.455  1.2198 -0.3851  0.8175
 7859TIP3    H145068   3.035   4.316  12.421  2.0745 -1.1133  0.8298
 7859TIP3    H245069   2.891   4.293  12.461  1.1169 -0.0629 -1.7506
 7860TIP3   OH245070   2.164   5.130   5.999 -0.0888 -0.1996  0.4977
 7860TIP3    H145071   2.126   5.211   5.964  0.5109 -0.7725 -1.6094
 7860TIP3    H245072   2.176   5.148   6.092 -0.7895  1.8099  0.2554
 7861TIP3   OH245073   4.856   3.283   1.441 -0.0012 -0.3849  0.0358
 7861TIP3    H145074   4.814   3.364   1.471  0.8864  0.1598 -0.1601
 7861TIP3    H245075   4.949   3.303   1.439  0.1863 -1.2454 -0.5557
 7862TIP3   OH245076   4.491   0.646   3.747 -0.1292 -0.3386 -0.7428
 7862TIP3    H145077   4.429   0.650   3.674 -0.9005  2.1666 -0.0625
 7862TIP3    H245078   4.437   0.622   3.822  0.0575  0.0835 -0.4712
 7863TIP3   OH245079   3.072   6.279  12.320  0.0969 -0.1233 -0.4195
 7863TIP3    H145080   3.007   6.287  12.390  1.6858  1.1404  1.0114
 7863TIP3    H245081   3.080   6.185  12.304 -0.2302 -0.4487  1.2132
 7864TIP3   OH245082   1.454   0.246   1.565  0.1646  0.0148 -0.0218
 7864TIP3    H145083   1.366   0.264   1.532  0.9114  1.0816 -1.5188
 7864TIP3    H245084   1.510   0.309   1.521  1.8179 -1.1502  0.3034
 7865TIP3   OH245085   6.787   0.766   2.288 -0.0783  0.3256 -0.3368
 7865TIP3    H145086   6.796   0.840   2.347  0.1204 -0.4061  0.5765
 7865TIP3    H245087   6.803   0.689   2.343 -1.4981 -0.4758 -0.9870
 7866TIP3   OH245088   6.558   5.076  14.986 -0.2657 -0.0814 -0.1162
 7866TIP3    H145089   6.535   5.150  15.042  2.1691 -0.1436  1.0793
 7866TIP3    H245090   6.601   5.014  15.044  0.7115 -0.9588 -1.7218
 7867TIP3   OH245091   4.346   0.742  15.216  0.6192 -0.1759 -0.4222
 7867TIP3    H145092   4.411   0.733  15.286 -0.5568  0.3154  0.8017
 7867TIP3    H245093   4.385   0.701  15.140  2.3994  0.2162  0.2393
 7868TIP3   OH245094   6.732   6.201  11.489  0.1073 -0.2357 -0.4372
 7868TIP3    H145095   6.704   6.111  11.505 -0.4151 -0.0029 -0.0253
 7868TIP3    H245096   6.785   6.196  11.410  0.8527 -1.0592  0.0892
 7869TIP3   OH245097   5.357   2.738  16.397  0.0181  0.1418  0.0537
 7869TIP3    H145098   5.285   2.767  16.341 -0.3226 -1.1402 -0.2081
 7869TIP3    H245099   5.330   2.759  16.486 -0.2340  0.5618 -0.1224
 7870TIP3   OH245100   4.961   5.401  13.116  0.1290  0.0439  0.0980
 7870TIP3    H145101   4.872   5.423  13.087  0.3914  0.4327 -0.4330
 7870TIP3    H245102   4.998   5.483  13.147 -0.0484 -0.3148  1.3183
 7871TIP3   OH245103   0.437   6.606   4.153 -0.3178  0.4369  0.0069
 7871TIP3    H145104   0.505   6.652   4.104 -1.3043  1.4350 -0.4787
 7871TIP3    H245105   0.373   6.674   4.175 -1.1772 -0.4728  0.4163
 7872TIP3   OH245106   3.023   6.517  16.034 -0.3160  0.5378 -0.4487
 7872TIP3    H145107   3.012   6.612  16.038  0.2907  0.5894  1.7455
 7872TIP3    H245108   2.997   6.487  16.122  1.9262 -1.0133 -0.2394
 7873TIP3   OH245109   3.919   3.219  14.401 -0.5266  0.0634 -0.3156
 7873TIP3    H145110   4.011   3.212  14.426 -0.8070  0.5280  0.8613
 7873TIP3    H245111   3.888   3.128  14.398 -0.6677 -0.0034  1.7895
 7874TIP3   OH245112   4.345   3.571  13.673  0.1753  0.3788 -0.0335
 7874TIP3    H145113   4.337   3.665  13.689  0.3445  0.5409 -0.8610
 7874TIP3    H245114   4.316   3.531  13.754  3.6474  1.1739  1.7735
 7875TIP3   OH245115   0.619   1.153   4.340 -0.0933  0.1981  0.0355
 7875TIP3    H145116   0.629   1.231   4.395 -0.7166 -0.3710  0.9701
 7875TIP3    H245117   0.622   1.187   4.250 -1.5867  1.4784  0.4271
 7876TIP3   OH245118   0.143   1.243  14.335 -0.1413  0.7005  0.1641
 7876TIP3    H145119   0.077   1.177  14.359 -0.9352  1.6996  0.7990
 7876TIP3    H245120   0.208   1.194  14.285 -0.5705 -0.6257  0.8462
 7877TIP3   OH245121   5.589   4.865  17.097  0.4931 -0.3599 -0.0756
 7877TIP3    H145122   5.516   4.915  17.134  0.2376 -1.0457  0.3822
 7877TIP3    H245123   5.549   4.812  17.028  1.1081  1.5275 -1.9885
 7878TIP3   OH245124   2.184   5.101   6.283 -0.2520 -0.4660 -0.1609
 7878TIP3    H145125   2.135   5.169   6.329 -0.6010  0.9371 -2.4262
 7878TIP3    H245126   2.160   5.019   6.327 -1.2788  0.6700  1.4732
 7879TIP3   OH245127   5.052   2.117  16.812 -0.9263  0.2434  0.1408
 7879TIP3    H145128   5.017   2.075  16.733 -1.5023 -0.3568  0.6988
 7879TIP3    H245129   4.990   2.092  16.881  1.4511 -2.3438  1.5461
 7880TIP3   OH245130   2.487   1.218   5.587 -0.5475  0.4342  0.5935
 7880TIP3    H145131   2.570   1.249   5.623  0.3987  0.0616 -1.1579
 7880TIP3    H245132   2.481   1.127   5.616 -0.0325  0.2795  0.2296
 7881TIP3   OH245133   5.492   2.052   4.256  0.0112 -0.1732 -0.2257
 7881TIP3    H145134   5.550   2.071   4.182  0.0109 -1.5480 -0.6012
 7881TIP3    H245135   5.482   1.957   4.255 -1.8081 -0.0273  0.1721
 7882TIP3   OH245136   0.990   1.139   2.559 -0.8727  0.3122  0.8881
 7882TIP3    H145137   1.035   1.197   2.620  0.3403 -0.4637  0.7643
 7882TIP3    H245138   1.033   1.155   2.475  0.0153 -1.3149  1.0120
 7883TIP3   OH245139   5.529   0.855   3.452  0.0698  0.2100 -0.8378
 7883TIP3    H145140   5.462   0.922   3.438  0.3473  0.1428 -2.8225
 7883TIP3    H245141   5.485   0.785   3.500 -0.8378  0.8478 -0.7222
 7884TIP3   OH245142   5.904   3.378   3.496  0.1525 -0.0719 -0.2943
 7884TIP3    H145143   5.990   3.346   3.523  0.4330 -0.3280 -1.4434
 7884TIP3    H245144   5.856   3.299   3.471 -0.3629  0.0850  0.2049
 7885TIP3   OH245145   2.244   0.949   0.389  0.3661 -0.3866  0.3888
 7885TIP3    H145146   2.263   1.003   0.312 -0.5509  1.8775  1.6411
 7885TIP3    H245147   2.153   0.969   0.410  0.4904 -1.2348  1.8278
 7886TIP3   OH245148   6.676   3.820  17.009  0.4440 -0.0561  0.1185
 7886TIP3    H145149   6.688   3.905  16.967 -0.7097  0.4540  0.7792
 7886TIP3    H245150   6.628   3.840  17.089 -2.0335 -1.6032 -0.8890
 7887TIP3   OH245151   0.576   4.066   5.761 -0.0199 -0.2799 -0.0782
 7887TIP3    H145152   0.630   4.073   5.839 -0.8239 -1.0821  0.5652
 7887TIP3    H245153   0.488   4.046   5.794 -0.1966 -1.5093 -1.2157
 7888TIP3   OH245154   3.149   1.122  11.822  0.2508 -0.0274 -0.2180
 7888TIP3    H145155   3.200   1.199  11.796  2.1149 -1.7945 -2.1668
 7888TIP3    H245156   3.071   1.125  11.767 -0.0581  0.7953  0.2338
 7889TIP3   OH245157   1.227   4.757   2.339  0.0327  0.5927 -0.5884
 7889TIP3    H145158   1.141   4.767   2.296 -0.9560 -0.2859  1.0759
 7889TIP3    H245159   1.218   4.805   2.421  0.6373 -0.7169  0.2630
 7890TIP3   OH245160   6.679   2.344   1.904 -0.2871 -0.7461 -0.1860
 7890TIP3    H145161   6.693   2.429   1.862  1.3060 -1.0080 -0.2573
 7890TIP3    H245162   6.630   2.293   1.839  0.9910 -0.7087 -1.2305
 7891TIP3   OH245163   3.585   5.415   5.704 -0.0622 -0.1621 -0.1674
 7891TIP3    H145164   3.525   5.357   5.657  0.2896 -0.8142  0.1879
 7891TIP3    H245165   3.532   5.450   5.776 -0.3456  0.1619 -0.5237
 7892TIP3   OH245166   5.328   5.208  11.145  0.1477 -0.4647 -0.0188
 7892TIP3    H145167   5.317   5.232  11.053 -0.0948  1.2631  0.4358
 7892TIP3    H245168   5.333   5.291  11.192  1.7959 -1.2944  1.3834
 7893TIP3   OH245169   0.282   4.554  13.948  0.0611 -0.5370  0.8209
 7893TIP3    H145170   0.330   4.515  14.022  1.1096  1.0318  1.0038
 7893TIP3    H245171   0.270   4.645  13.973  0.6066  0.0699 -1.0373
 7894TIP3   OH245172   4.647   2.361  15.859  0.5133  0.0777  0.1441
 7894TIP3    H145173   4.683   2.275  15.878  1.2760  0.8126  2.3710
 7894TIP3    H245174   4.686   2.385  15.774  2.1261 -0.8337  0.5829
 7895TIP3   OH245175   3.214   0.899  15.567 -0.5469 -0.1739 -0.0217
 7895TIP3    H145176   3.219   0.914  15.473 -0.7471 -0.2966 -0.0537
 7895TIP3    H245177   3.162   0.819  15.576  0.1671 -0.6213  0.1612
 7896TIP3   OH245178   0.871   0.565   3.613  0.7150 -0.0276 -0.2237
 7896TIP3    H145179   0.943   0.502   3.615 -0.4455 -1.4413 -0.9144
 7896TIP3    H245180   0.830   0.556   3.699 -0.5754 -1.6728 -0.9381
 7897TIP3   OH245181   4.291   2.358   2.269  0.0615 -0.0168  0.1575
 7897TIP3    H145182   4.339   2.327   2.345 -0.3411  0.8157  0.7646
 7897TIP3    H245183   4.272   2.450   2.288  0.1643  0.2723 -1.0503
 7898TIP3   OH245184   2.116   6.260   3.400 -0.3616  0.2349  0.2808
 7898TIP3    H145185   2.187   6.196   3.400 -0.6254 -0.0764 -1.0620
 7898TIP3    H245186   2.154   6.337   3.357 -0.4664  0.5003  0.6606
 7899TIP3   OH245187   5.482   5.221  11.562  0.2249 -0.8021 -0.0450
 7899TIP3    H145188   5.453   5.168  11.636 -1.1302 -0.8334 -0.5754
 7899TIP3    H245189   5.486   5.160  11.489  0.4482 -0.5386 -0.2552
 7900TIP3   OH245190   5.858   2.442  14.137  0.2729 -0.1514  0.5579
 7900TIP3    H145191   5.929   2.505  14.122 -0.1712  0.7854  2.1689
 7900TIP3    H245192   5.780   2.497  14.149 -0.4835 -1.1072  0.1075
 7901TIP3   OH245193   0.657   5.261   5.354  0.2597  0.0224 -0.1351
 7901TIP3    H145194   0.636   5.168   5.358  0.7660 -0.1029 -0.3183
 7901TIP3    H245195   0.623   5.297   5.436 -0.5946 -0.1826 -0.3893
 7902TIP3   OH245196   6.458   0.787  16.642 -0.0743 -0.0990 -0.0473
 7902TIP3    H145197   6.546   0.819  16.624  0.9392 -2.1431  0.9540
 7902TIP3    H245198   6.458   0.767  16.735 -1.3484 -0.8246 -0.1753
 7903TIP3   OH245199   2.731   5.174   5.829 -0.1469 -0.5120  0.3229
 7903TIP3    H145200   2.781   5.106   5.784 -0.0642 -1.4590  1.7807
 7903TIP3    H245201   2.641   5.141   5.830 -0.3896  0.0957 -0.2220
 7904TIP3   OH245202   1.003   4.524  11.180 -0.1759  0.1447 -0.4181
 7904TIP3    H145203   1.013   4.563  11.093  2.0645 -0.0330 -0.3131
 7904TIP3    H245204   0.973   4.596  11.235 -1.6738  0.2447 -1.3071
 7905TIP3   OH245205   5.758   3.737  15.325 -0.2128 -0.0521 -0.2099
 7905TIP3    H145206   5.824   3.804  15.309 -0.1645  0.1443  0.8091
 7905TIP3    H245207   5.690   3.755  15.260 -0.7555  1.7047  0.8036
 7906TIP3   OH245208   2.458   6.689   2.380  0.5211  0.0327  0.4286
 7906TIP3    H145209   2.425   6.601   2.365  0.0467  0.2036  0.4444
 7906TIP3    H245210   2.509   6.710   2.302  1.7109 -0.7356  0.9611
 7907TIP3   OH245211   4.091   0.865   4.618 -0.0033 -0.2615  0.0238
 7907TIP3    H145212   4.169   0.916   4.597  0.2245  0.2709  1.9916
 7907TIP3    H245213   4.119   0.807   4.689 -0.5464 -2.4109 -1.4040
 7908TIP3   OH245214   1.934   2.864  11.792 -0.3844 -0.3990  0.3823
 7908TIP3    H145215   2.012   2.837  11.744  0.8584  1.0584  1.4860
 7908TIP3    H245216   1.954   2.847  11.884 -1.0247  0.7071  0.7514
 7909TIP3   OH245217   2.085   1.670  12.069 -0.7531  0.2522 -0.1781
 7909TIP3    H145218   2.015   1.709  12.122 -1.2421  0.1097 -0.7165
 7909TIP3    H245219   2.118   1.597  12.122 -2.3066 -0.8941 -0.7204
 7910TIP3   OH245220   3.379   0.751   4.645  0.2724 -0.0406  0.2662
 7910TIP3    H145221   3.384   0.712   4.732  3.0862 -1.8057 -0.5176
 7910TIP3    H245222   3.462   0.798   4.635  0.1631 -0.1537 -1.5608
 7911TIP3   OH245223   3.869   2.632  16.778  0.0107  0.0615 -0.2750
 7911TIP3    H145224   3.948   2.595  16.737  0.2720  0.0202  0.2607
 7911TIP3    H245225   3.803   2.631  16.708  0.1942 -0.8394 -0.4541
 7912TIP3   OH245226   3.847   2.405   3.684  0.0750 -0.2547  0.1411
 7912TIP3    H145227   3.836   2.313   3.657  1.0972 -0.9236  1.8428
 7912TIP3    H245228   3.915   2.439   3.626 -1.3465 -0.0727 -1.5110
 7913TIP3   OH245229   4.158   4.895   0.201  0.5311  0.3514  0.5458
 7913TIP3    H145230   4.073   4.865   0.168 -0.0216  0.5732  1.7078
 7913TIP3    H245231   4.221   4.834   0.164  0.1347  1.2918 -1.9187
 7914TIP3   OH245232   2.301   4.563  15.602  0.1916 -0.1246 -1.0646
 7914TIP3    H145233   2.314   4.483  15.550 -1.7168 -1.5226  0.4463
 7914TIP3    H245234   2.389   4.594  15.621  0.9654 -1.2640 -2.5542
 7915TIP3   OH245235   0.325   1.688   5.122  0.4351 -0.1512 -0.0658
 7915TIP3    H145236   0.287   1.774   5.142 -0.4358 -0.6094  0.3245
 7915TIP3    H245237   0.292   1.667   5.035 -0.6401 -0.7642  0.4702
 7916TIP3   OH245238   2.693   1.945   5.131  0.5927  0.0850  0.0491
 7916TIP3    H145239   2.724   1.951   5.222 -2.4500 -1.1323  1.2795
 7916TIP3    H245240   2.655   2.031   5.113 -0.0114 -0.1047  0.4150
 7917TIP3   OH245241   0.617   2.347   3.663 -0.8953  0.2918 -0.5022
 7917TIP3    H145242   0.576   2.316   3.582  1.0584 -2.1675 -0.6576
 7917TIP3    H245243   0.708   2.363   3.640 -0.7591  1.5503  0.7711
 7918TIP3   OH245244   6.530   6.781   0.578 -0.2815  0.0042  0.2763
 7918TIP3    H145245   6.576   6.768   0.495 -1.5502 -2.4882 -0.1577
 7918TIP3    H245246   6.598   6.778   0.644  0.4350 -1.6387 -0.4730
 7919TIP3   OH245247   5.476   2.110  15.536  0.0956  0.1381 -0.2198
 7919TIP3    H145248   5.560   2.074  15.564 -0.6099 -1.2294  0.2097
 7919TIP3    H245249   5.434   2.137  15.618  0.7623  2.3941 -0.5485
 7920TIP3   OH245250   5.709   1.714   3.886  0.1481 -0.0134 -0.3368
 7920TIP3    H145251   5.691   1.626   3.919  0.2250 -0.2600 -0.9360
 7920TIP3    H245252   5.745   1.700   3.799 -0.8762  0.6483 -0.8902
 7921TIP3   OH245253   2.549   6.729  17.143 -0.2047 -0.4411 -0.4742
 7921TIP3    H145254   2.499   6.806  17.117 -0.7910 -0.5301  0.3308
 7921TIP3    H245255   2.635   6.763  17.168 -0.8002  0.1125  0.9119
 7922TIP3   OH245256   0.943   2.032  15.340 -0.3218  0.1210  0.0843
 7922TIP3    H145257   0.950   1.982  15.420 -0.5244 -1.8593 -1.0803
 7922TIP3    H245258   0.875   2.098  15.358 -0.4105 -0.3311  1.4790
 7923TIP3   OH245259   4.599   0.830  13.345 -0.6408  1.1102 -0.3296
 7923TIP3    H145260   4.517   0.824  13.394 -0.9415  1.6730 -0.7581
 7923TIP3    H245261   4.615   0.741  13.314 -2.3726  1.4017 -2.2913
 7924TIP3   OH245262   5.911   3.310  15.899  0.1870  0.2190 -0.3376
 7924TIP3    H145263   5.932   3.404  15.901  2.8550 -0.3144  0.7589
 7924TIP3    H245264   5.976   3.270  15.956 -2.6421 -2.0511  1.5721
 7925TIP3   OH245265   5.690   6.232   1.691 -0.7650 -0.3858 -0.1566
 7925TIP3    H145266   5.754   6.296   1.658 -0.4321 -0.0314  1.1121
 7925TIP3    H245267   5.618   6.286   1.724 -2.5976 -0.8120 -3.1192
 7926TIP3   OH245268   4.448   3.173   5.076  0.5946 -0.2360  0.2445
 7926TIP3    H145269   4.362   3.132   5.075 -0.7657  2.4338 -0.3493
 7926TIP3    H245270   4.481   3.163   4.987  0.1717  0.0698  0.0457
 7927TIP3   OH245271   6.495   4.808  15.700 -0.4746  0.5115 -0.4501
 7927TIP3    H145272   6.480   4.786  15.608  0.5524  1.0197 -0.7451
 7927TIP3    H245273   6.549   4.737  15.734 -0.0243  0.8299 -0.5000
 7928TIP3   OH245274   5.571   3.184  13.353 -0.0669  0.2051 -0.3246
 7928TIP3    H145275   5.639   3.196  13.420  1.1279  2.2421 -1.7785
 7928TIP3    H245276   5.561   3.089  13.347  1.5148 -0.1173  1.0554
 7929TIP3   OH245277   4.476   4.707   1.791 -0.3581 -0.7814 -0.0591
 7929TIP3    H145278   4.546   4.749   1.841 -1.2454  0.1364  0.4541
 7929TIP3    H245279   4.488   4.613   1.807  1.2365 -0.7134 -0.6606
 7930TIP3   OH245280   6.739   0.712  11.721 -0.1493 -0.5467 -0.2975
 7930TIP3    H145281   6.696   0.780  11.669 -0.0664  1.0157  1.5854
 7930TIP3    H245282   6.688   0.633  11.702 -2.1439  0.6591 -0.2789
 7931TIP3   OH245283   5.572   1.203   5.556  0.0172  0.0914  0.7676
 7931TIP3    H145284   5.647   1.260   5.574  0.6945 -0.3922 -0.3849
 7931TIP3    H245285   5.527   1.245   5.483 -0.5837  0.1329  1.1496
 7932TIP3   OH245286   3.703   6.391   2.687 -0.2888  0.4109  0.2784
 7932TIP3    H145287   3.652   6.310   2.690 -1.4403  1.1546  1.4213
 7932TIP3    H245288   3.647   6.454   2.643 -0.6278  1.3879  2.0287
 7933TIP3   OH245289   2.438   6.411  12.883 -0.7527  0.0006 -0.4456
 7933TIP3    H145290   2.347   6.416  12.911 -0.6068  2.3706 -0.1737
 7933TIP3    H245291   2.482   6.482  12.930  1.0646 -0.5586 -1.1896
 7934TIP3   OH245292   4.652   6.748  15.384  0.5226 -0.1082 -0.1880
 7934TIP3    H145293   4.657   6.834  15.342  1.1071 -0.2761 -0.4673
 7934TIP3    H245294   4.719   6.751  15.453 -1.1290  0.5499  1.4625
 7935TIP3   OH245295   6.635   5.117  16.394 -0.1756  0.3894  0.3001
 7935TIP3    H145296   6.694   5.062  16.342 -0.3427  1.5006 -1.1227
 7935TIP3    H245297   6.554   5.118  16.344 -0.4982  1.1362  0.8270
 7936TIP3   OH245298   0.076   0.170  10.796 -0.2101 -0.9938 -0.2191
 7936TIP3    H145299   0.157   0.213  10.768  0.9897 -2.4113  0.8461
 7936TIP3    H245300   0.047   0.121  10.719  0.4299 -1.1360 -0.3781
 7937TIP3   OH245301   5.947   4.823   5.442 -0.1954 -0.1238  0.1860
 7937TIP3    H145302   5.999   4.833   5.362  0.2872  1.1154  0.6389
 7937TIP3    H245303   5.858   4.807   5.410  0.2826 -1.4227 -0.5911
 7938TIP3   OH245304   5.846   5.056  15.015  0.7551  0.3611 -0.4495
 7938TIP3    H145305   5.848   5.002  14.936 -0.1992  0.3562 -0.4771
 7938TIP3    H245306   5.768   5.027  15.062  2.3882 -1.0963  1.5466
 7939TIP3   OH245307   0.815   6.517  10.607 -0.4893 -0.4765  0.1635
 7939TIP3    H145308   0.881   6.552  10.548 -2.3342  0.5734 -1.3791
 7939TIP3    H245309   0.771   6.448  10.556  0.1468 -2.0128  1.5900
 7940TIP3   OH245310   3.182   0.394  16.531 -0.5348  0.1404 -0.6730
 7940TIP3    H145311   3.106   0.378  16.586  0.3966 -0.1633  0.5670
 7940TIP3    H245312   3.188   0.490  16.527 -0.6216  0.1681 -0.2508
 7941TIP3   OH245313   5.159   1.311   5.128  0.6634 -0.3291  0.1746
 7941TIP3    H145314   5.129   1.385   5.075  0.5246 -1.4673 -1.3950
 7941TIP3    H245315   5.228   1.348   5.183  0.3721  1.0370 -0.3356
 7942TIP3   OH245316   2.867   1.749   3.738  0.2443 -0.2758  0.5983
 7942TIP3    H145317   2.794   1.725   3.794 -0.9287  0.6107 -0.4866
 7942TIP3    H245318   2.912   1.667   3.719 -1.8946 -1.2382 -0.6511
 7943TIP3   OH245319   3.604   0.185   2.177 -0.3531 -0.0460  0.1813
 7943TIP3    H145320   3.561   0.128   2.241  0.5965 -0.8776  0.1213
 7943TIP3    H245321   3.673   0.229   2.227  0.6579 -1.0049 -0.3097
 7944TIP3   OH245322   1.837   4.507  12.080  0.6113 -0.3153 -1.0281
 7944TIP3    H145323   1.848   4.584  12.136 -2.0959 -0.0489 -0.7015
 7944TIP3    H245324   1.860   4.537  11.992 -0.7821  1.0216 -0.9728
 7945TIP3   OH245325   6.712   6.775   2.416  0.1649  0.2070 -0.4353
 7945TIP3    H145326   6.753   6.761   2.331  0.8427 -0.0290 -0.0709
 7945TIP3    H245327   6.770   6.732   2.479  0.1787  1.1965  0.2544
 7946TIP3   OH245328   5.478   6.241   1.989  0.0722  0.0859  0.3913
 7946TIP3    H145329   5.491   6.153   2.024 -2.5295 -0.3595  0.3777
 7946TIP3    H245330   5.387   6.263   2.009  0.4503  2.5492 -0.1581
 7947TIP3   OH245331   1.732   4.935   3.329  0.0247 -0.1417 -0.4761
 7947TIP3    H145332   1.698   4.860   3.281 -0.9625  0.0542 -0.1085
 7947TIP3    H245333   1.714   4.915   3.421 -1.2304  1.0044 -0.4427
 7948TIP3   OH245334   4.144   6.461   4.552 -0.5422 -0.2993 -0.1710
 7948TIP3    H145335   4.209   6.466   4.622  1.1750  2.6605 -1.7709
 7948TIP3    H245336   4.077   6.524   4.577  0.2871  1.0843 -1.2860
 7949TIP3   OH245337   0.201   3.775  13.267  0.1476 -0.0201  0.0480
 7949TIP3    H145338   0.143   3.699  13.264  0.9764 -0.7029  0.5594
 7949TIP3    H245339   0.175   3.828  13.192 -0.6994 -0.6236 -0.1001
 7950TIP3   OH245340   5.570   2.577  14.029  0.8522 -0.1953  0.5952
 7950TIP3    H145341   5.636   2.615  14.087  1.5615  0.9982 -0.8973
 7950TIP3    H245342   5.490   2.625  14.049  1.2861  0.7820  0.0594
 7951TIP3   OH245343   3.828   5.135   0.711 -0.1507  0.3111  0.4998
 7951TIP3    H145344   3.746   5.172   0.678 -0.4019 -1.0019 -0.4428
 7951TIP3    H245345   3.828   5.156   0.804 -2.4114 -1.0994  0.8904
 7952TIP3   OH245346   3.085   3.298  13.332  0.2223 -0.0397  0.0648
 7952TIP3    H145347   3.082   3.203  13.344  0.9718  0.1179  1.7957
 7952TIP3    H245348   3.084   3.310  13.237 -0.4985 -1.7374 -0.1859
 7953TIP3   OH245349   3.926   5.347  15.455  0.4217 -0.6418  0.4012
 7953TIP3    H145350   3.887   5.347  15.542  1.1770  0.3799  0.7594
 7953TIP3    H245351   4.008   5.299  15.464  0.2956 -0.9081  0.1522
 7954TIP3   OH245352   6.488   2.542   3.148  0.4125  0.0590  0.0089
 7954TIP3    H145353   6.497   2.448   3.166  1.0203 -0.3615 -2.2382
 7954TIP3    H245354   6.399   2.551   3.114  0.7792  0.0786 -0.9522
 7955TIP3   OH245355   0.269   0.909   1.532 -0.5542 -0.4178  0.1319
 7955TIP3    H145356   0.214   0.857   1.591 -1.1238 -0.0642 -0.0800
 7955TIP3    H245357   0.358   0.881   1.552 -0.5598  0.9158  2.3700
 7956TIP3   OH245358   1.517   0.270   4.061  0.0771  0.3730  0.2780
 7956TIP3    H145359   1.463   0.266   3.982 -0.2566  2.1340  0.3772
 7956TIP3    H245360   1.603   0.237   4.033 -0.4367 -0.4400 -0.4090
 7957TIP3   OH245361   0.961   4.158  12.136 -0.5641 -0.3866 -0.1661
 7957TIP3    H145362   1.019   4.231  12.158 -0.0783 -1.1280  1.1357
 7957TIP3    H245363   0.874   4.197  12.131 -0.3288  0.2621  0.6403
 7958TIP3   OH245364   1.377   0.749   2.818 -0.1515  0.4521 -0.0984
 7958TIP3    H145365   1.322   0.673   2.837  0.9264  0.0649  1.7969
 7958TIP3    H245366   1.373   0.802   2.898  2.0354  0.4720  0.0642
 7959TIP3   OH245367   3.400   5.501   4.137  0.2504  0.2229  0.5933
 7959TIP3    H145368   3.418   5.555   4.214  1.2686 -0.4962  0.8829
 7959TIP3    H245369   3.394   5.563   4.065 -0.2282  0.8612  1.1686
 7960TIP3   OH245370   1.322   2.226  14.252  0.0485 -0.1621  0.0783
 7960TIP3    H145371   1.371   2.152  14.288  0.9814  0.3258 -0.1721
 7960TIP3    H245372   1.382   2.300  14.256 -0.9621  0.6699  0.5901
 7961TIP3   OH245373   2.271   5.697   4.707 -0.6896 -0.0668  0.0828
 7961TIP3    H145374   2.235   5.632   4.647 -2.3701  1.1871 -0.3415
 7961TIP3    H245375   2.199   5.759   4.721  0.9837  2.0111  0.0231
 7962TIP3   OH245376   5.972   3.319   6.483 -0.3015 -0.1147 -0.4020
 7962TIP3    H145377   6.007   3.237   6.447 -0.6730  0.3962 -2.0313
 7962TIP3    H245378   6.048   3.363   6.520 -0.3528 -1.9293  2.1306
 7963TIP3   OH245379   3.778   4.366  11.215 -0.6802 -0.3694  0.2597
 7963TIP3    H145380   3.738   4.304  11.155 -0.6911 -1.2990  1.1995
 7963TIP3    H245381   3.871   4.367  11.191 -0.8532  0.0466 -0.4214
 7964TIP3   OH245382   4.354   5.181   6.125  0.3631  0.1341  0.5364
 7964TIP3    H145383   4.420   5.113   6.138 -0.0860 -0.3534  0.3181
 7964TIP3    H245384   4.285   5.159   6.189 -0.5159 -0.5639 -0.6080
 7965TIP3   OH245385   1.038   5.790  13.211 -0.2194  0.1435 -0.3282
 7965TIP3    H145386   0.985   5.718  13.246 -0.1648  1.1820  2.1207
 7965TIP3    H245387   1.005   5.803  13.123 -1.8435 -1.3557  0.0011
 7966TIP3   OH245388   2.742   4.220   3.198  0.1306 -0.1322  0.3433
 7966TIP3    H145389   2.757   4.171   3.117  0.0188  0.4701 -0.0468
 7966TIP3    H245390   2.652   4.252   3.191  0.3949  0.6198  0.3280
 7967TIP3   OH245391   5.273   4.489   0.731  0.3539 -0.4218 -0.2343
 7967TIP3    H145392   5.242   4.578   0.749 -0.2975 -1.0515  2.2072
 7967TIP3    H245393   5.368   4.495   0.739  0.2739 -0.0398  0.6256
 7968TIP3   OH245394   1.800   6.531   2.347  0.0152 -0.5711  0.2232
 7968TIP3    H145395   1.804   6.483   2.264  1.0238  0.8403 -0.5921
 7968TIP3    H245396   1.771   6.618   2.322  0.1346 -0.1891  1.3949
 7969TIP3   OH245397   2.603   1.301   2.807  0.4001  0.1879 -0.4821
 7969TIP3    H145398   2.511   1.274   2.806  0.4040  0.1168  0.4321
 7969TIP3    H245399   2.630   1.299   2.715 -0.5009  0.1758 -0.7506
 7970TIP3   OH245400   1.105   6.571  16.363  0.8425 -0.0686 -0.0287
 7970TIP3    H145401   1.183   6.530  16.327  0.9648  0.3589 -0.2631
 7970TIP3    H245402   1.037   6.505  16.355  1.0712 -0.2773 -0.2664
 7971TIP3   OH245403   4.230   5.959  17.156  0.6531  0.3279 -0.1059
 7971TIP3    H145404   4.324   5.950  17.175  0.2246 -0.8543  1.6823
 7971TIP3    H245405   4.191   5.983  17.240 -0.8204 -0.6486 -0.4818
 7972TIP3   OH245406   6.102   3.130   4.984 -0.3167 -0.1837 -0.4579
 7972TIP3    H145407   6.140   3.135   5.072  1.1834  0.1912 -1.0927
 7972TIP3    H245408   6.016   3.170   4.993 -0.5527 -0.9329  1.0139
 7973TIP3   OH245409   0.953   1.053  17.178  0.2741  0.0086 -0.0966
 7973TIP3    H145410   1.037   1.055  17.132 -0.3192  1.2376 -1.2031
 7973TIP3    H245411   0.966   1.108  17.255  0.4099  0.4578 -0.4329
 7974TIP3   OH245412   5.403   4.359  13.703  0.0263 -0.6569 -0.2903
 7974TIP3    H145413   5.439   4.364  13.791  1.4295  1.0496 -0.8810
 7974TIP3    H245414   5.391   4.450  13.677 -0.6395 -1.1301 -1.7578
 7975TIP3   OH245415   4.533   5.368   5.002 -0.1089 -0.1248 -0.3146
 7975TIP3    H145416   4.441   5.356   5.025 -0.3405  0.6625 -0.7793
 7975TIP3    H245417   4.575   5.285   5.026 -0.6834 -0.0189  1.1118
 7976TIP3   OH245418   6.632   5.071   2.117  0.2186  0.2373  0.5096
 7976TIP3    H145419   6.712   5.124   2.115 -0.0013  0.5526 -0.1983
 7976TIP3    H245420   6.663   4.981   2.114  0.5170  0.3783 -1.5996
 7977TIP3   OH245421   2.219   3.647   2.319  0.3046 -0.1494  0.3273
 7977TIP3    H145422   2.141   3.702   2.309 -0.8809 -1.3837  2.2358
 7977TIP3    H245423   2.224   3.598   2.237 -0.8441  0.0692  0.1071
 7978TIP3   OH245424   3.727   5.021   6.386 -0.2340  0.1111 -0.3490
 7978TIP3    H145425   3.820   5.010   6.367  0.2191  2.1545  0.4022
 7978TIP3    H245426   3.717   5.115   6.403 -1.7710 -0.5014  2.8567
 7979TIP3   OH245427   6.587   4.064   4.772 -0.0785 -0.1630 -0.2007
 7979TIP3    H145428   6.662   4.108   4.733  0.2075 -0.5441 -0.0884
 7979TIP3    H245429   6.525   4.051   4.700 -0.6393  1.3889 -0.0302
 7980TIP3   OH245430   6.546   1.753  10.826  0.5582 -0.2647  0.1780
 7980TIP3    H145431   6.569   1.725  10.737 -1.2433 -0.1627 -0.3647
 7980TIP3    H245432   6.505   1.676  10.866 -0.1502  0.1759  0.3237
 7981TIP3   OH245433   6.550   6.338  17.179  0.5508 -0.0294  0.0516
 7981TIP3    H145434   6.482   6.287  17.223  0.6285 -1.0736 -0.9831
 7981TIP3    H245435   6.631   6.291  17.196  0.7599  0.2442 -0.1660
 7982TIP3   OH245436   0.876   5.762   2.209 -0.4763  0.4700  0.1011
 7982TIP3    H145437   0.828   5.684   2.235 -0.0602 -0.1839 -1.0013
 7982TIP3    H245438   0.808   5.823   2.180 -0.6993 -0.3312 -1.1458
 7983TIP3   OH245439   2.610   4.874   1.792 -0.1073 -0.6010 -1.0285
 7983TIP3    H145440   2.514   4.867   1.795 -0.3972  2.4668 -0.2696
 7983TIP3    H245441   2.629   4.903   1.703  0.1605 -1.3663 -1.2286
 7984TIP3   OH245442   5.587   3.799  13.800  0.1479  0.0966  0.0997
 7984TIP3    H145443   5.569   3.855  13.725 -0.5061 -0.9083 -0.5161
 7984TIP3    H245444   5.501   3.776  13.834  0.3538 -1.3406 -0.2853
 7985TIP3   OH245445   0.671   1.214  13.978 -0.2276  0.2025 -0.4991
 7985TIP3    H145446   0.717   1.294  13.955  1.1355 -0.2647  0.4254
 7985TIP3    H245447   0.726   1.174  14.046 -0.2607 -2.0453 -1.6917
 7986TIP3   OH245448   2.786   6.651   6.133 -0.3436  0.4642  0.0227
 7986TIP3    H145449   2.773   6.741   6.165  1.4710  0.3001  1.4364
 7986TIP3    H245450   2.847   6.613   6.196 -1.5514 -1.9904 -0.1860
 7987TIP3   OH245451   1.449   6.189   1.644  0.2969  0.6602  1.0520
 7987TIP3    H145452   1.511   6.131   1.687  0.7185  1.3782  1.4317
 7987TIP3    H245453   1.431   6.147   1.560  0.3266 -0.1858  1.4600
 7988TIP3   OH245454   2.796   1.486  15.700  0.1072 -0.0891 -0.5975
 7988TIP3    H145455   2.834   1.567  15.735  0.4201 -0.5032  0.0388
 7988TIP3    H245456   2.777   1.433  15.777 -1.1911 -0.1609 -0.9389
 7989TIP3   OH245457   4.914   4.828  16.735 -0.1486 -0.4748  0.0388
 7989TIP3    H145458   5.006   4.837  16.711 -0.4172  0.3649 -0.7398
 7989TIP3    H245459   4.903   4.884  16.811 -0.6867  2.1173 -1.7975
 7990TIP3   OH245460   1.149   4.212   0.355 -0.4564  0.0383  0.1660
 7990TIP3    H145461   1.102   4.183   0.277  0.4648 -0.4772 -0.2117
 7990TIP3    H245462   1.235   4.238   0.323 -0.1350  0.0225  0.9812
 7991TIP3   OH245463   2.058   4.553   5.732 -0.0678  0.0196 -0.6006
 7991TIP3    H145464   2.074   4.485   5.798 -0.5924  1.2348  0.8331
 7991TIP3    H245465   2.051   4.505   5.650 -1.8808 -1.8486  0.5488
 7992TIP3   OH245466   0.395   6.561   3.158  0.7377 -0.0031  0.8356
 7992TIP3    H145467   0.450   6.636   3.181  0.7272 -0.3126  1.9406
 7992TIP3    H245468   0.452   6.504   3.106  2.0354 -1.0727  3.2691
 7993TIP3   OH245469   2.556   6.583  14.616 -0.9137 -0.4473 -0.0236
 7993TIP3    H145470   2.477   6.636  14.627 -0.9928 -0.3678 -0.9050
 7993TIP3    H245471   2.627   6.638  14.649 -1.1601 -0.3196  0.2979
 7994TIP3   OH245472   6.474   3.909   4.513 -0.3642 -0.2560 -0.2632
 7994TIP3    H145473   6.493   3.832   4.566  0.0112 -0.7792 -1.1347
 7994TIP3    H245474   6.468   3.876   4.424 -0.0935  0.7321 -0.6637
 7995TIP3   OH245475   4.485   2.554   3.948 -0.2450  0.1797  0.1641
 7995TIP3    H145476   4.417   2.518   4.006 -1.2317 -0.0910 -1.0963
 7995TIP3    H245477   4.479   2.649   3.960 -0.6436  0.1411  0.2946
 7996TIP3   OH245478   0.309   0.454   2.630 -0.5216 -0.1246  0.2480
 7996TIP3    H145479   0.367   0.500   2.569 -1.6427  0.8970 -0.0732
 7996TIP3    H245480   0.301   0.514   2.704  0.7267 -1.2960  1.4029
 7997TIP3   OH245481   0.418   0.613   4.645 -0.2405 -0.3295  0.1258
 7997TIP3    H145482   0.383   0.632   4.558 -1.4964 -0.8447  0.4787
 7997TIP3    H245483   0.447   0.522   4.639 -1.4505 -0.7704  0.5438
 7998TIP3   OH245484   1.382   0.647  14.643  0.1832  0.1858 -0.3791
 7998TIP3    H145485   1.356   0.566  14.599 -1.3000  0.3475  0.1428
 7998TIP3    H245486   1.396   0.709  14.572  0.8784 -0.3970 -0.7637
 7999TIP3   OH245487   2.489   4.006  13.291  0.4305 -0.9858  0.0054
 7999TIP3    H145488   2.440   3.954  13.228  1.6316 -0.8756 -1.0646
 7999TIP3    H245489   2.438   4.001  13.372 -1.3070 -0.8758 -1.0489
 8000TIP3   OH245490   6.163   1.607  12.835 -0.3645 -0.2988  0.1063
 8000TIP3    H145491   6.186   1.533  12.778 -1.0357 -1.3053  1.1013
 8000TIP3    H245492   6.150   1.680  12.775  3.2155 -0.1337 -0.7223
 8001TIP3   OH245493   6.365   6.222   4.405 -0.5651 -0.3905 -0.0939
 8001TIP3    H145494   6.347   6.252   4.494 -2.0582  0.3613 -0.6057
 8001TIP3    H245495   6.311   6.278   4.350 -0.8963 -1.8830 -1.3521
 8002TIP3   OH245496   0.736   1.689   3.970 -0.4489 -0.1570  0.2687
 8002TIP3    H145497   0.802   1.667   4.036 -0.3599 -1.1237 -0.1195
 8002TIP3    H245498   0.656   1.646   4.001 -1.2358  1.9294  1.3227
 8003TIP3   OH245499   1.095   3.628   1.655  0.1063  0.9750  0.0673
 8003TIP3    H145500   1.187   3.623   1.683  0.8849  4.9674 -1.1590
 8003TIP3    H245501   1.046   3.640   1.737  0.5225 -1.5379  0.7667
 8004TIP3   OH245502   1.903   2.594  16.443  0.3565 -0.1490  0.7163
 8004TIP3    H145503   1.870   2.538  16.373  1.6861 -0.1915  0.0921
 8004TIP3    H245504   1.829   2.603  16.503 -0.4385 -1.0876 -0.0806
 8005TIP3   OH245505   5.096   6.219  15.964 -0.1044  0.1371 -0.3421
 8005TIP3    H145506   5.062   6.173  15.887  1.4799 -1.6547 -0.0799
 8005TIP3    H245507   5.105   6.150  16.031  2.4033  0.7552  0.0873
 8006TIP3   OH245508   5.560   2.135   2.545  0.4014 -0.3747 -0.2824
 8006TIP3    H145509   5.486   2.143   2.604  1.2670 -1.0580  0.9341
 8006TIP3    H245510   5.544   2.201   2.477 -1.3857 -0.6462 -0.1541
 8007TIP3   OH245511   0.391   4.184   2.275 -0.1260  0.0214 -0.1497
 8007TIP3    H145512   0.315   4.152   2.226 -0.1456  1.2761 -0.9914
 8007TIP3    H245513   0.446   4.227   2.209  1.2041 -0.6272  0.4844
 8008TIP3   OH245514   0.751   4.241   0.339  0.8096 -0.3250  0.3369
 8008TIP3    H145515   0.757   4.220   0.245 -3.4706  0.7476 -0.3886
 8008TIP3    H245516   0.741   4.156   0.382 -0.3525 -0.7123 -0.6252
 8009TIP3   OH245517   5.383   0.892   5.382 -0.3196  0.5112  0.3347
 8009TIP3    H145518   5.302   0.860   5.422 -0.4248 -1.2535 -1.1372
 8009TIP3    H245519   5.354   0.942   5.306 -0.0471  0.9604  0.5251
 8010TIP3   OH245520   4.100   1.431  16.510  0.5998 -0.1226  0.1899
 8010TIP3    H145521   4.117   1.503  16.449  0.5787 -0.0319  0.2894
 8010TIP3    H245522   4.018   1.456  16.554  0.0758 -0.6770 -0.4581
 8011TIP3   OH245523   5.471   5.909   0.082  0.4352  0.6506 -0.2338
 8011TIP3    H145524   5.534   5.904   0.154  0.0279  0.4903  0.1168
 8011TIP3    H245525   5.389   5.877   0.120  0.7123 -1.5851 -1.3413
 8012TIP3   OH245526   5.806   6.314   2.567  0.3235  0.3531  0.1134
 8012TIP3    H145527   5.827   6.234   2.615  0.1941 -0.5481 -1.2643
 8012TIP3    H245528   5.710   6.318   2.567  0.2431 -0.5485 -1.3842
 8013TIP3   OH245529   5.364   4.177  12.493 -0.2741  0.4886  0.8208
 8013TIP3    H145530   5.361   4.223  12.409  0.1582 -0.6823  0.1485
 8013TIP3    H245531   5.426   4.105  12.479 -1.9218 -1.1198  1.4075
 8014TIP3   OH245532   2.744   3.694   5.312 -0.3828  0.1039 -0.2613
 8014TIP3    H145533   2.823   3.660   5.268 -0.4891  0.1162 -0.4641
 8014TIP3    H245534   2.674   3.681   5.248 -0.9743 -1.9546  0.7162
 8015TIP3   OH245535   6.546   6.186  15.207 -0.4625 -0.0484  0.6959
 8015TIP3    H145536   6.490   6.151  15.277 -2.7235  1.0982 -0.4110
 8015TIP3    H245537   6.524   6.280  15.205  1.2797  0.3771 -0.0420
 8016TIP3   OH245538   6.353   5.453  11.313  0.0256  0.0962 -0.3651
 8016TIP3    H145539   6.385   5.476  11.225  2.6337  2.0030  0.9291
 8016TIP3    H245540   6.290   5.521  11.334  1.6825  1.4881  0.3306
 8017TIP3   OH245541   1.195   2.935  16.494 -0.3160 -0.3857  0.5064
 8017TIP3    H145542   1.276   2.964  16.536 -0.0453 -0.7930  0.2752
 8017TIP3    H245543   1.180   2.999  16.424 -0.9621  0.5015  1.4280
 8018TIP3   OH245544   6.672   3.647  14.364  0.0445  0.2376 -0.0307
 8018TIP3    H145545   6.669   3.561  14.320  1.0955  0.3573 -0.3602
 8018TIP3    H245546   6.712   3.629  14.449 -0.4534  0.2763  0.2123
 8019TIP3   OH245547   2.712   0.133   5.510  0.4815 -0.0015 -0.3261
 8019TIP3    H145548   2.771   0.135   5.585 -0.7801  0.6197  0.6846
 8019TIP3    H245549   2.763   0.090   5.441  1.2064 -1.8953  1.2916
 8020TIP3   OH245550   1.679   2.362  11.435 -0.1587  0.5118 -0.1286
 8020TIP3    H145551   1.615   2.303  11.474 -0.0918  0.0545 -0.6935
 8020TIP3    H245552   1.640   2.449  11.446 -1.3629  0.1695 -1.3132
 8021TIP3   OH245553   3.106   6.754  13.967 -0.5663 -0.7306  0.5154
 8021TIP3    H145554   3.029   6.806  13.988 -1.1930 -1.5605  0.3572
 8021TIP3    H245555   3.150   6.739  14.051  0.2753  0.9965  0.4300
 8022TIP3   OH245556   1.049   0.689  15.653  0.8468 -0.5896  0.4694
 8022TIP3    H145557   1.060   0.745  15.576 -0.0135  0.5676  1.1579
 8022TIP3    H245558   1.047   0.750  15.727 -0.9386 -1.4338  1.1761
 8023TIP3   OH245559   3.969   6.196   2.827 -0.2309  0.4925  0.0066
 8023TIP3    H145560   4.012   6.111   2.815 -1.0209  0.3368 -2.4143
 8023TIP3    H245561   4.025   6.242   2.889  1.4660 -0.9920 -0.3045
 8024TIP3   OH245562   5.265   0.819  13.074  1.1240 -0.1288 -0.0868
 8024TIP3    H145563   5.236   0.839  13.163  1.4110 -2.6923  0.6678
 8024TIP3    H245564   5.352   0.780  13.085  1.4212  0.0593 -1.5580
 8025TIP3   OH245565   5.627   2.302   2.290 -0.0737  0.0503 -0.4423
 8025TIP3    H145566   5.599   2.387   2.257 -0.5903 -0.6351 -1.8318
 8025TIP3    H245567   5.634   2.247   2.213 -0.5479 -1.4070  0.5014
 8026TIP3   OH245568   1.588   1.164   1.404 -0.6482  0.5400  0.6388
 8026TIP3    H145569   1.634   1.187   1.485  0.8676  2.1796 -0.6004
 8026TIP3    H245570   1.608   1.072   1.391 -0.5090  0.3749  1.8599
 8027TIP3   OH245571   6.076   1.430   5.859  0.5475  0.4658  0.6296
 8027TIP3    H145572   6.148   1.395   5.806  0.7445 -0.7345  1.6418
 8027TIP3    H245573   6.117   1.500   5.911  0.3831  1.5508 -0.6379
 8028TIP3   OH245574   5.737   4.379  14.534  0.4563  0.1362 -0.3122
 8028TIP3    H145575   5.816   4.337  14.502 -0.3598 -1.3087 -0.5247
 8028TIP3    H245576   5.749   4.383  14.629  0.2875 -1.2207 -0.2081
 8029TIP3   OH245577   1.628   2.203   0.637 -0.5875 -0.2451  0.5299
 8029TIP3    H145578   1.633   2.298   0.630 -1.1969 -0.3300 -1.7819
 8029TIP3    H245579   1.711   2.172   0.601 -1.4786 -0.6201 -1.2967
 8030TIP3   OH245580   0.470   0.347  16.941  0.4850  0.4003  0.0392
 8030TIP3    H145581   0.436   0.421  16.991 -1.1405 -2.2635  3.2793
 8030TIP3    H245582   0.394   0.313  16.893  0.4552 -0.8060  0.8863
 8031TIP3   OH245583   0.612   1.901   5.401 -0.0396  0.0379  0.4704
 8031TIP3    H145584   0.600   1.977   5.458  0.1716  1.3640 -1.1791
 8031TIP3    H245585   0.583   1.931   5.315  0.1099 -1.7497 -0.2487
 8032TIP3   OH245586   4.395   4.127   3.993  0.1679  0.3721 -0.0650
 8032TIP3    H145587   4.466   4.069   3.967  0.7362  1.1938 -0.3550
 8032TIP3    H245588   4.326   4.112   3.929  0.2623 -0.0665 -0.0658
 8033TIP3   OH245589   1.301   0.112   3.974 -0.3162 -0.5606  0.3587
 8033TIP3    H145590   1.255   0.061   4.040 -1.7038  0.1114 -0.0468
 8033TIP3    H245591   1.237   0.123   3.903 -0.2121  1.9953  0.5646
 8034TIP3   OH245592   1.336   1.810   5.303 -0.8389  0.7585 -0.2151
 8034TIP3    H145593   1.274   1.826   5.374  1.0977  0.1753  1.7264
 8034TIP3    H245594   1.412   1.771   5.346  1.2975  2.3398 -2.3076
 8035TIP3   OH245595   3.047   0.099  16.334 -0.8006 -0.5179 -0.2501
 8035TIP3    H145596   2.964   0.133  16.301 -0.0431  0.8588 -0.8285
 8035TIP3    H245597   3.027   0.066  16.421 -2.1940 -1.3651 -0.8590
 8036TIP3   OH245598   4.189   3.810   5.538  0.2770 -0.7133 -0.0641
 8036TIP3    H145599   4.230   3.774   5.617 -2.2342 -0.7276  1.3030
 8036TIP3    H245600   4.097   3.784   5.544 -0.0620 -0.4796 -2.8923
 8037TIP3   OH245601   1.625   6.455  15.794  0.0436 -0.6811 -0.3823
 8037TIP3    H145602   1.622   6.411  15.879  1.9822  0.4692  0.3738
 8037TIP3    H245603   1.680   6.398  15.740  0.4949 -0.4292 -0.1962
 8038TIP3   OH245604   1.109   3.572   1.235  0.2906  0.6206 -0.4023
 8038TIP3    H145605   1.194   3.574   1.278  0.0196 -1.5276  0.3368
 8038TIP3    H245606   1.047   3.549   1.305 -0.4464 -0.8506 -1.4824
 8039TIP3   OH245607   3.832   3.061   1.384 -0.1310 -0.5204  0.5597
 8039TIP3    H145608   3.889   2.984   1.391 -0.7714 -1.1841 -0.9498
 8039TIP3    H245609   3.756   3.030   1.334 -0.7748  0.9055  0.5934
 8040TIP3   OH245610   0.345   3.459   0.704 -0.3144  0.1930  0.3118
 8040TIP3    H145611   0.315   3.500   0.623 -0.4993  0.7067  0.6329
 8040TIP3    H245612   0.276   3.476   0.767 -0.7492 -1.2882  0.2706
 8041TIP3   OH245613   6.428   1.889   5.132 -0.6226 -0.4350  0.4126
 8041TIP3    H145614   6.395   1.843   5.056 -1.5871  2.8367 -1.3430
 8041TIP3    H245615   6.520   1.906   5.111 -0.7420 -0.0229  0.2065
 8042TIP3   OH245616   3.314   1.630  11.812  0.3314 -0.4775  0.1954
 8042TIP3    H145617   3.401   1.669  11.810  0.0014  0.2485 -0.4322
 8042TIP3    H245618   3.259   1.690  11.761 -0.3003 -1.5104 -0.3851
 8043TIP3   OH245619   1.019   1.651  16.795 -0.0376 -0.3157 -0.2062
 8043TIP3    H145620   1.055   1.711  16.730  2.5273  0.2652  1.6162
 8043TIP3    H245621   1.003   1.570  16.747  0.7231  0.4324 -1.7839
 8044TIP3   OH245622   6.538   1.088  15.888 -0.1137 -0.0521 -0.3761
 8044TIP3    H145623   6.630   1.093  15.862  0.1256 -2.3746 -0.2099
 8044TIP3    H245624   6.525   1.164  15.945  1.3007  1.0950 -1.5033
 8045TIP3   OH245625   3.198   0.914  13.156 -0.3624 -0.2026 -0.5312
 8045TIP3    H145626   3.169   0.829  13.122 -1.5178 -0.1491  0.2646
 8045TIP3    H245627   3.125   0.973  13.138 -0.4089  0.1480  0.7281
 8046TIP3   OH245628   2.835   6.313   6.358  0.0157 -0.0808 -1.0613
 8046TIP3    H145629   2.887   6.393   6.349 -1.5816  1.0075 -0.9298
 8046TIP3    H245630   2.769   6.319   6.289 -2.2022  0.3953  0.9817
 8047TIP3   OH245631   4.193   4.069  15.980  0.0344  0.2439 -0.6597
 8047TIP3    H145632   4.259   4.085  16.047 -0.1667 -0.8879 -0.1646
 8047TIP3    H245633   4.209   4.136  15.914  0.0468  1.5910  0.6512
 8048TIP3   OH245634   6.748   1.681   3.685  0.3520  0.5119  0.0687
 8048TIP3    H145635   6.693   1.730   3.745 -1.2059 -1.1891  0.1260
 8048TIP3    H245636   6.835   1.719   3.696 -0.2607  1.5128  1.9728
 8049TIP3   OH245637   2.089   2.968  12.343  0.4490 -0.5067  0.2143
 8049TIP3    H145638   2.055   2.903  12.405  0.0875 -0.5892 -0.0686
 8049TIP3    H245639   2.172   2.995  12.381  0.2263 -0.5465  0.7479
 8050TIP3   OH245640   1.125   1.918   4.500  0.9799  0.2066  0.0611
 8050TIP3    H145641   1.151   2.002   4.460 -0.3484 -0.2687 -1.9518
 8050TIP3    H245642   1.189   1.855   4.465  2.0196  0.3442  1.6269
 8051TIP3   OH245643   4.082   3.010   3.688  0.2093  0.4951 -0.8766
 8051TIP3    H145644   4.156   2.990   3.631  0.1453 -0.3306 -0.6798
 8051TIP3    H245645   4.007   3.012   3.629  0.3444  1.0631 -1.0344
 8052TIP3   OH245646   0.670   6.075  11.890 -0.3052 -0.1428  0.4128
 8052TIP3    H145647   0.589   6.053  11.845  0.2052 -2.0509  0.3767
 8052TIP3    H245648   0.657   6.043  11.980 -0.3017  1.2815  0.9615
 8053TIP3   OH245649   1.217   2.123   6.788  0.3220  0.2824  0.4494
 8053TIP3    H145650   1.123   2.125   6.771  0.4544 -0.3252 -0.4676
 8053TIP3    H245651   1.233   2.198   6.845 -0.7511  0.2573  0.8071
 8054TIP3   OH245652   5.228   1.520   1.169 -0.1339  0.0980 -0.2057
 8054TIP3    H145653   5.231   1.436   1.214 -0.1775  0.0031 -0.3801
 8054TIP3    H245654   5.292   1.574   1.215 -0.8726  0.3089  0.5910
 8055TIP3   OH245655   3.694   2.894  13.398 -0.2449  0.2704  0.2073
 8055TIP3    H145656   3.686   2.859  13.310 -0.0148 -0.1167  0.3367
 8055TIP3    H245657   3.640   2.973  13.398 -0.1486  0.3338 -0.3114
 8056TIP3   OH245658   5.033   1.639  12.182  0.5064 -0.1485 -0.2100
 8056TIP3    H145659   5.068   1.552  12.201 -0.7601 -0.7552 -0.5588
 8056TIP3    H245660   4.946   1.622  12.145  0.0709  1.2846  0.1185
 8057TIP3   OH245661   2.720   6.587   0.926 -0.2356  0.2916  0.1628
 8057TIP3    H145662   2.806   6.601   0.964 -0.3375 -0.3017  0.6198
 8057TIP3    H245663   2.675   6.529   0.988 -0.9625  0.5961 -0.0661
 8058TIP3   OH245664   3.142   6.417   3.549 -0.2697 -0.0333  0.3854
 8058TIP3    H145665   3.214   6.480   3.548 -0.1238 -0.1838  1.0426
 8058TIP3    H245666   3.179   6.337   3.511  0.0313 -0.2363  1.0978
 8059TIP3   OH245667   5.159   3.365   4.515  0.7096  0.0618  0.8771
 8059TIP3    H145668   5.120   3.278   4.514  0.1534  0.3122  0.6325
 8059TIP3    H245669   5.084   3.425   4.513  1.1119  0.5542 -0.5524
 8060TIP3   OH245670   1.857   2.732   5.749  0.1840  0.3665  0.4187
 8060TIP3    H145671   1.808   2.704   5.826 -0.4089  2.2799  0.8003
 8060TIP3    H245672   1.913   2.657   5.727  0.5858 -0.1380  2.8720
 8061TIP3   OH245673   0.350   6.461  13.035 -0.5217  0.1075  0.5482
 8061TIP3    H145674   0.272   6.511  13.060 -0.8370 -0.2037  0.2136
 8061TIP3    H245675   0.417   6.486  13.098 -0.0215  2.5388 -0.8273
 8062TIP3   OH245676   6.292   5.321   0.135  0.0654  0.6620 -0.5385
 8062TIP3    H145677   6.365   5.265   0.111  2.2491  2.9501  0.4103
 8062TIP3    H245678   6.257   5.281   0.216 -0.1457 -0.7337 -1.2784
 8063TIP3   OH245679   0.718   6.310   1.083 -0.0807 -0.7990 -0.1576
 8063TIP3    H145680   0.734   6.307   1.178 -0.6035 -0.6930 -0.0642
 8063TIP3    H245681   0.775   6.242   1.047  1.7976  0.5982 -0.0140
 8064TIP3   OH245682   2.946   3.144   1.284 -0.0796  0.2741 -0.5363
 8064TIP3    H145683   2.916   3.106   1.201 -1.4128 -2.3154  1.0159
 8064TIP3    H245684   2.870   3.192   1.317  0.1225  0.4492 -0.3225
 8065TIP3   OH245685   6.509   1.701  13.127 -0.0545 -0.0249 -0.4538
 8065TIP3    H145686   6.591   1.733  13.165 -0.6869 -0.1910  1.1095
 8065TIP3    H245687   6.535   1.622  13.080  0.4848 -1.0303  1.4159
 8066TIP3   OH245688   5.011   2.640   2.478  0.1049 -0.3941  0.4744
 8066TIP3    H145689   4.921   2.658   2.504  0.3037  2.1707 -0.3199
 8066TIP3    H245690   5.062   2.654   2.558 -0.0573 -0.4676  0.5917
 8067TIP3   OH245691   2.881   4.978  11.971 -0.1124  0.5262 -0.4002
 8067TIP3    H145692   2.812   5.030  12.011 -0.5197  0.1632 -0.6268
 8067TIP3    H245693   2.835   4.915  11.915  0.3636 -0.1744 -0.0170
 8068TIP3   OH245694   5.113   6.548   4.273 -0.2650  0.2329 -0.0933
 8068TIP3    H145695   5.064   6.582   4.347 -0.3593 -0.4693  0.1712
 8068TIP3    H245696   5.205   6.558   4.298 -0.3002 -0.4872  0.3465
 8069TIP3   OH245697   4.954   1.093  11.290 -0.4207  0.0779 -0.4955
 8069TIP3    H145698   5.015   1.020  11.299 -0.5865 -0.3399 -2.3451
 8069TIP3    H245699   5.007   1.171  11.306 -0.0728 -0.3889  0.7403
 8070TIP3   OH245700   4.398   6.739  12.448  0.4597  0.4511 -0.0199
 8070TIP3    H145701   4.417   6.813  12.390  1.2957 -0.1686 -0.5673
 8070TIP3    H245702   4.303   6.735  12.451  0.3739  2.1403  0.8176
 8071TIP3   OH245703   4.039   4.662   4.361  0.2093 -0.4766 -0.5429
 8071TIP3    H145704   4.088   4.594   4.316 -0.4384 -1.8818  0.7965
 8071TIP3    H245705   4.082   4.673   4.445 -0.6420 -0.4008 -0.0985
 8072TIP3   OH245706   1.141   2.980  15.459 -0.4556  0.3897  0.0612
 8072TIP3    H145707   1.122   3.046  15.392  0.4716 -0.6719 -1.3180
 8072TIP3    H245708   1.078   2.997  15.528 -0.2891  2.6555 -0.2798
 8073TIP3   OH245709   3.517   3.834  16.111 -0.6781  0.2453 -0.0605
 8073TIP3    H145710   3.596   3.862  16.064  0.3528 -2.6725 -0.3196
 8073TIP3    H245711   3.444   3.868  16.059  0.4391 -0.2585 -2.0727
 8074TIP3   OH245712   3.444   4.845  12.858  0.3180 -0.4059  0.2382
 8074TIP3    H145713   3.522   4.833  12.912  0.1370 -3.0775  0.0510
 8074TIP3    H245714   3.371   4.827  12.918  0.0161 -0.9751 -0.2905
 8075TIP3   OH245715   0.220   0.588   1.240  0.1461 -0.2769  0.0533
 8075TIP3    H145716   0.238   0.548   1.325  1.4610 -0.1548 -0.1576
 8075TIP3    H245717   0.128   0.616   1.247  0.1659 -0.4409  1.3554
 8076TIP3   OH245718   2.661   1.527   0.859  0.1760 -0.2679 -0.3466
 8076TIP3    H145719   2.569   1.545   0.878  0.0193 -0.0548 -1.2638
 8076TIP3    H245720   2.685   1.593   0.793  1.3679  0.5611  0.8633
 8077TIP3   OH245721   4.747   3.098   5.316 -0.2856 -0.2129 -0.7932
 8077TIP3    H145722   4.752   3.052   5.400  0.8224 -0.0423 -0.7415
 8077TIP3    H245723   4.661   3.141   5.316 -0.5649 -0.7627 -0.0397
 8078TIP3   OH245724   1.603   2.131   3.830  0.5342 -0.5611  0.1816
 8078TIP3    H145725   1.668   2.195   3.800  1.2821 -0.5766  1.7038
 8078TIP3    H245726   1.580   2.082   3.751  0.6594  0.9467 -0.8256
 8079TIP3   OH245727   1.850   4.480  14.131 -0.4118  0.0501 -0.7329
 8079TIP3    H145728   1.885   4.465  14.218 -1.2664  0.4135 -0.3149
 8079TIP3    H245729   1.762   4.515  14.146 -0.7873 -0.4111 -1.7369
 8080TIP3   OH245730   5.449   2.415   2.046  0.1866  0.7127 -0.2689
 8080TIP3    H145731   5.379   2.365   2.089 -0.0054  0.6251 -0.6791
 8080TIP3    H245732   5.447   2.385   1.955  2.4471 -1.1704  0.2228
 8081TIP3   OH245733   2.616   5.361  15.152 -0.0218  0.3220  0.1620
 8081TIP3    H145734   2.684   5.324  15.096 -1.4806 -0.7845 -0.9502
 8081TIP3    H245735   2.540   5.371  15.095 -0.9724  1.0151  1.4887
 8082TIP3   OH245736   1.090   0.829   1.255  0.2177 -0.3799  0.2514
 8082TIP3    H145737   0.995   0.820   1.261  0.1377 -2.4079 -2.3037
 8082TIP3    H245738   1.121   0.742   1.229  2.4937  0.8046 -1.3379
 8083TIP3   OH245739   1.745   2.535  16.968  0.6026 -0.3800  0.5142
 8083TIP3    H145740   1.817   2.598  16.978 -0.4756  0.9015  0.4559
 8083TIP3    H245741   1.669   2.589  16.945 -1.1475 -1.2942  3.6192
 8084TIP3   OH245742   2.833   4.584  15.961  0.4482 -0.0535  0.0799
 8084TIP3    H145743   2.803   4.607  16.049  0.3786 -2.1345  0.6684
 8084TIP3    H245744   2.778   4.636  15.902 -0.0899  0.7339  1.2428
 8085TIP3   OH245745   0.909   3.271   0.372  0.5393  0.3760 -0.0200
 8085TIP3    H145746   0.886   3.180   0.356  1.3075 -0.2876  2.3743
 8085TIP3    H245747   0.932   3.305   0.285  1.5349 -2.0683 -0.7933
 8086TIP3   OH245748   6.608   0.200  16.330 -0.1487  0.4688 -0.0270
 8086TIP3    H145749   6.580   0.171  16.417 -3.0207  0.4834 -0.8679
 8086TIP3    H245750   6.678   0.263  16.348  0.2875 -0.5394  2.1843
 8087TIP3   OH245751   1.225   5.195   0.923 -0.0630 -0.0092 -0.1065
 8087TIP3    H145752   1.230   5.116   0.868  0.9012 -0.5536  0.7162
 8087TIP3    H245753   1.317   5.219   0.937 -0.2525 -0.1879  1.6616
 8088TIP3   OH245754   3.215   4.061  16.864  0.1026  0.5817  0.1557
 8088TIP3    H145755   3.137   4.008  16.847  0.2532 -0.6369  2.7281
 8088TIP3    H245756   3.288   4.006  16.835  0.0835  1.7438 -2.3033
 8089TIP3   OH245757   2.161   0.984   0.968 -0.4225  0.4787  0.1314
 8089TIP3    H145758   2.194   1.004   1.056  1.0621  0.4404 -0.3894
 8089TIP3    H245759   2.240   0.978   0.914 -1.1055 -2.1667 -0.6863
 8090TIP3   OH245760   2.503   0.543   4.042 -0.3514  0.4357 -0.4514
 8090TIP3    H145761   2.459   0.459   4.055  0.4035  0.0142 -0.5833
 8090TIP3    H245762   2.435   0.600   4.005 -0.9454 -0.0244 -0.0932
 8091TIP3   OH245763   5.785   6.591   5.761  0.1048 -0.7160  0.4979
 8091TIP3    H145764   5.696   6.560   5.745  0.4795 -1.7453  0.3608
 8091TIP3    H245765   5.776   6.649   5.837 -1.4379  3.0603 -2.2332
 8092TIP3   OH245766   4.739   4.604  14.973  0.2544 -0.0611 -0.0847
 8092TIP3    H145767   4.805   4.670  14.995  1.0396 -0.0624 -2.2216
 8092TIP3    H245768   4.750   4.589  14.879 -0.7075 -2.3647  0.0995
 8093TIP3   OH245769   5.460   5.165   1.368 -0.0949 -0.1413  0.5473
 8093TIP3    H145770   5.484   5.161   1.461  1.6964 -0.7264  0.0968
 8093TIP3    H245771   5.435   5.257   1.354 -0.2849 -0.0258  1.5778
 8094TIP3   OH245772   4.066   4.690   3.438  0.4025  0.1583 -0.2137
 8094TIP3    H145773   3.984   4.720   3.399  0.5300 -0.2555 -0.8284
 8094TIP3    H245774   4.123   4.767   3.436  0.5350  0.0568 -1.2367
 8095TIP3   OH245775   0.238   4.398   4.882  0.2260 -0.6211 -0.6021
 8095TIP3    H145776   0.209   4.486   4.907 -1.0773 -0.7251 -1.6373
 8095TIP3    H245777   0.289   4.412   4.802  0.6028 -0.7533 -0.3902
 8096TIP3   OH245778   3.570   0.411   1.282 -0.7245 -0.5168  0.0894
 8096TIP3    H145779   3.601   0.497   1.308 -0.2804 -0.6377 -0.0380
 8096TIP3    H245780   3.532   0.374   1.362  1.0001 -1.0519  0.7096
 8097TIP3   OH245781   2.100   0.441  16.989  0.2157  0.3730 -0.7656
 8097TIP3    H145782   2.115   0.516  16.932  0.2361  1.0274  0.0941
 8097TIP3    H245783   2.005   0.426  16.985 -0.3888  2.6837  1.7669
 8098TIP3   OH245784   3.897   5.433   5.131  0.2022 -0.2233  0.4080
 8098TIP3    H145785   3.853   5.373   5.072  0.9805 -0.6514  0.2537
 8098TIP3    H245786   3.830   5.498   5.153  0.3773  0.9895 -2.3325
 8099TIP3   OH245787   5.369   2.054  16.574  0.3715  0.2702 -0.1927
 8099TIP3    H145788   5.429   2.114  16.530  0.4562  1.2729  1.2020
 8099TIP3    H245789   5.304   2.111  16.614 -0.6774 -0.7136 -0.4671
 8100TIP3   OH245790   4.886   4.411   2.459  0.2548 -0.2461  0.2363
 8100TIP3    H145791   4.920   4.351   2.393 -1.3938  0.4824 -1.3708
 8100TIP3    H245792   4.920   4.497   2.434 -2.0537  0.3953 -1.0313
 8101TIP3   OH245793   4.039   6.787   2.601 -0.3136 -0.0288 -0.2727
 8101TIP3    H145794   3.986   6.842   2.659  0.8930  1.9582 -0.9502
 8101TIP3    H245795   4.101   6.743   2.660  1.6186  2.7784  0.0366
 8102TIP3   OH245796   0.526   2.673   1.077  0.3986  0.4001 -0.6971
 8102TIP3    H145797   0.520   2.636   1.165 -0.0769  2.2945  0.1278
 8102TIP3    H245798   0.444   2.720   1.065  0.6418  0.5274 -1.9832
 8103TIP3   OH245799   0.028   2.875  13.654  0.5748 -0.1597 -0.6374
 8103TIP3    H145800  -0.015   2.790  13.644  0.1274 -0.1955  1.3639
 8103TIP3    H245801   0.080   2.867  13.734 -0.7256  1.9478  0.4893
 8104TIP3   OH245802   6.344   3.051  16.891 -0.0671  0.1301 -0.3363
 8104TIP3    H145803   6.320   2.989  16.959 -1.7688  1.5195  0.4105
 8104TIP3    H245804   6.338   3.000  16.809 -1.0751 -0.7767  0.2741
 8105TIP3   OH245805   3.319   5.315  11.441 -0.1250  0.9284  0.6299
 8105TIP3    H145806   3.357   5.401  11.423 -0.5644  0.6018 -2.3051
 8105TIP3    H245807   3.386   5.252  11.415 -1.0988  0.3845 -0.6645
 8106TIP3   OH245808   5.493   4.372   1.973  0.1559 -0.0481  0.1854
 8106TIP3    H145809   5.398   4.380   1.963  0.1445 -0.5462 -0.1055
 8106TIP3    H245810   5.512   4.421   2.053 -0.5087 -1.0243  0.9699
 8107TIP3   OH245811   3.108   2.561  13.475 -0.3927 -0.0287  0.2251
 8107TIP3    H145812   3.037   2.553  13.411  0.2805  2.1555 -0.8759
 8107TIP3    H245813   3.070   2.612  13.547 -0.3508 -0.1248  0.3156
 8108TIP3   OH245814   5.392   6.356   5.196 -0.8328  0.4372  0.4991
 8108TIP3    H145815   5.411   6.264   5.209  0.6456  0.6537  0.0485
 8108TIP3    H245816   5.302   6.358   5.164 -1.2755 -0.7419  1.6070
 8109TIP3   OH245817   0.258   2.641  13.601 -0.5046  0.3250  0.0535
 8109TIP3    H145818   0.332   2.635  13.541  0.3268 -0.8943  1.1492
 8109TIP3    H245819   0.270   2.567  13.661 -1.9054  0.8643  1.0348
 8110TIP3   OH245820   0.303   5.047   2.919 -0.1605  0.1027 -0.5562
 8110TIP3    H145821   0.385   5.031   2.874 -0.4223  1.4796 -1.5854
 8110TIP3    H245822   0.274   5.132   2.887 -1.9458 -0.3103 -0.1517
 8111TIP3   OH245823   3.880   2.096  11.045  0.0662  0.5470 -0.0444
 8111TIP3    H145824   3.876   2.004  11.021  1.1381  0.1549  1.1885
 8111TIP3    H245825   3.885   2.142  10.961 -1.2963 -0.4260 -0.7103
 8112TIP3   OH245826   3.863   2.268  13.195 -0.6824 -0.0745  0.1837
 8112TIP3    H145827   3.956   2.265  13.172 -0.4297  1.0198  0.9703
 8112TIP3    H245828   3.843   2.180  13.225 -0.0003 -0.4259 -0.3459
 8113TIP3   OH245829   1.506   2.412   4.656  0.1750  0.2808  0.5838
 8113TIP3    H145830   1.484   2.504   4.675 -0.8899 -0.5086  3.8389
 8113TIP3    H245831   1.545   2.415   4.569 -0.2741  3.7468  0.3274
 8114TIP3   OH245832   1.502   0.414   0.389  0.1930  0.6129 -0.6194
 8114TIP3    H145833   1.469   0.474   0.455 -2.4468 -1.6168  0.2993
 8114TIP3    H245834   1.444   0.426   0.314 -0.5846 -0.8994 -0.3067
 8115TIP3   OH245835   6.124   2.983  13.922  0.4514  0.7650  0.4053
 8115TIP3    H145836   6.072   3.061  13.903 -1.5659  0.0047  2.3669
 8115TIP3    H245837   6.085   2.915  13.867  1.9985  1.0047 -1.0615
 8116TIP3   OH245838   0.479   2.281  17.035 -0.2707 -0.0973 -0.1728
 8116TIP3    H145839   0.436   2.360  17.004 -2.0198 -0.4128  1.2997
 8116TIP3    H245840   0.458   2.215  16.969 -1.7878 -0.1507  0.3254
 8117TIP3   OH245841   2.739   4.672  12.369  1.0289 -0.5173  0.3102
 8117TIP3    H145842   2.713   4.739  12.433 -0.3516  0.8339 -1.5456
 8117TIP3    H245843   2.831   4.691  12.350  0.9896  0.0940  0.6992
 8118TIP3   OH245844   6.423   1.028  14.586 -0.0816  0.1551 -0.2057
 8118TIP3    H145845   6.454   0.950  14.540 -1.2386 -1.5922  1.7697
 8118TIP3    H245846   6.498   1.058  14.637  0.1881 -0.0356 -0.4868
 8119TIP3   OH245847   5.225   0.125   0.913 -0.6044 -0.6810 -0.5917
 8119TIP3    H145848   5.135   0.092   0.909 -0.9017  0.1005 -0.5505
 8119TIP3    H245849   5.220   0.212   0.874 -0.0648 -0.2161  0.3461
 8120TIP3   OH245850   2.839   0.797  15.488 -0.7320 -0.4700 -0.1804
 8120TIP3    H145851   2.749   0.766  15.476 -0.7937  0.3164 -2.1790
 8120TIP3    H245852   2.886   0.766  15.410  0.5452 -0.1827  0.4383
 8121TIP3   OH245853   6.689   5.903  12.267  0.1984 -0.2500  0.0804
 8121TIP3    H145854   6.650   5.987  12.243 -0.4423 -0.6964 -0.4807
 8121TIP3    H245855   6.695   5.906  12.363 -0.0995  0.3092  0.0842
 8122TIP3   OH245856   3.350   2.630  13.368 -0.2164 -0.1648  0.5463
 8122TIP3    H145857   3.322   2.719  13.386 -1.0152 -0.3293  0.1660
 8122TIP3    H245858   3.282   2.575  13.407 -0.6211 -0.5710 -0.6788
 8123TIP3   OH245859   3.191   4.840   2.367 -0.0433 -0.0552 -0.0644
 8123TIP3    H145860   3.116   4.861   2.423  0.8468  0.4637  0.9788
 8123TIP3    H245861   3.198   4.914   2.307 -1.1882 -0.7560 -1.1147
 8124TIP3   OH245862   5.328   0.288  12.632 -0.4626 -0.0274 -0.1336
 8124TIP3    H145863   5.372   0.248  12.557  0.6738  1.2232 -0.1565
 8124TIP3    H245864   5.365   0.242  12.708 -0.4672 -0.2326 -0.2540
 8125TIP3   OH245865   4.487   5.684   5.057 -0.2926  0.2284  0.2766
 8125TIP3    H145866   4.439   5.676   4.975  0.2101  0.7493 -0.0775
 8125TIP3    H245867   4.568   5.635   5.042  0.2365  1.1307  0.1078
 8126TIP3   OH245868   4.940   5.871   0.854 -0.2992  0.0446 -0.0123
 8126TIP3    H145869   4.877   5.853   0.924  1.1566 -0.8652  1.1255
 8126TIP3    H245870   4.936   5.795   0.797 -0.2889  0.0114  0.0310
 8127TIP3   OH245871   2.232   6.636   4.325  0.3816 -0.1341  0.0995
 8127TIP3    H145872   2.274   6.717   4.295  1.1655 -0.6301 -0.1936
 8127TIP3    H245873   2.211   6.653   4.417 -1.7457  1.2831 -0.5946
 8128TIP3   OH245874   0.390   4.575  12.679 -0.2441 -0.0331  0.5295
 8128TIP3    H145875   0.361   4.497  12.726  1.8458 -0.9035  0.4727
 8128TIP3    H245876   0.481   4.587  12.706 -0.5269  2.4320  0.5551
 8129TIP3   OH245877   1.598   3.422   0.873 -0.0209 -0.1169  0.0873
 8129TIP3    H145878   1.634   3.337   0.850  0.6687  0.4898 -1.1537
 8129TIP3    H245879   1.553   3.407   0.956 -1.2311 -2.0460 -0.8305
 8130TIP3   OH245880   1.829   5.379  11.424  0.2333  0.6685  0.0811
 8130TIP3    H145881   1.752   5.322  11.421 -0.3256  1.4334 -0.9015
 8130TIP3    H245882   1.804   5.450  11.484  0.0114  1.1085 -0.5161
 8131TIP3   OH245883   0.505   2.212   3.448  0.4902 -0.5538 -0.2208
 8131TIP3    H145884   0.567   2.154   3.404  1.7581  0.9473 -0.4995
 8131TIP3    H245885   0.482   2.278   3.382  0.9247  0.6200  0.7495
 8132TIP3   OH245886   1.302   1.212   0.664 -0.3326  0.0200 -0.2582
 8132TIP3    H145887   1.364   1.232   0.734  1.6485  2.6396 -2.5187
 8132TIP3    H245888   1.345   1.146   0.610 -0.8197 -0.3049 -0.2582
 8133TIP3   OH245889   4.211   3.665  13.031  0.2827 -0.2172  0.1285
 8133TIP3    H145890   4.121   3.692  13.009 -0.1066 -1.6296 -0.0850
 8133TIP3    H245891   4.207   3.570  13.037  1.3297 -0.1899  2.1348
 8134TIP3   OH245892   2.139   2.406   5.197  0.3335  0.4821  0.0328
 8134TIP3    H145893   2.052   2.434   5.170 -1.1163 -1.2385  2.4847
 8134TIP3    H245894   2.163   2.465   5.269  0.5137  0.0404  0.3445
 8135TIP3   OH245895   2.978   2.314  15.483  0.1272 -0.5029 -0.2658
 8135TIP3    H145896   2.919   2.371  15.433  2.3907  0.7528 -1.6776
 8135TIP3    H245897   2.989   2.360  15.566 -1.1809 -0.9857  0.2029
 8136TIP3   OH245898   1.756   2.654   4.540  0.1006 -0.2873  0.3763
 8136TIP3    H145899   1.756   2.603   4.459 -1.8643  0.6240 -0.2701
 8136TIP3    H245900   1.663   2.666   4.560  0.5076  1.8623  1.2453
 8137TIP3   OH245901   3.193   0.908  14.434  0.5701  0.0368  0.9359
 8137TIP3    H145902   3.266   0.948  14.481  1.4088 -1.3792  0.9130
 8137TIP3    H245903   3.156   0.845  14.496 -1.8312  1.9732  1.5944
 8138TIP3   OH245904   2.643   5.730   3.568 -0.0339 -0.6121 -0.1587
 8138TIP3    H145905   2.633   5.778   3.650 -0.2129  1.6517 -1.4147
 8138TIP3    H245906   2.711   5.778   3.520 -1.1679 -0.7756 -2.0521
 8139TIP3   OH245907   1.325   5.622  12.843  0.4174 -0.7219 -0.2629
 8139TIP3    H145908   1.322   5.609  12.938 -0.1573  0.5542 -0.0933
 8139TIP3    H245909   1.251   5.572  12.809 -0.3905  0.1854  0.1388
 8140TIP3   OH245910   6.119   1.541   6.239  0.9861  0.8290 -0.4891
 8140TIP3    H145911   6.149   1.603   6.306  2.3980 -1.5856  1.2686
 8140TIP3    H245912   6.197   1.490   6.217 -0.1976 -0.6096 -1.5363
 8141TIP3   OH245913   6.458   4.634   6.426  0.7244  0.2995  0.0802
 8141TIP3    H145914   6.532   4.573   6.420 -0.1933 -1.1948  2.5835
 8141TIP3    H245915   6.396   4.602   6.361  0.6668 -0.8888  0.6883
 8142TIP3   OH245916   5.030   3.603   4.775  0.3546  0.0612 -0.5118
 8142TIP3    H145917   5.107   3.624   4.723 -0.9623 -0.4994 -2.7903
 8142TIP3    H245918   5.058   3.530   4.831  1.6758  0.3907 -0.7080
 8143TIP3   OH245919   6.416   2.762   6.481  0.3018 -0.3340  0.6264
 8143TIP3    H145920   6.381   2.744   6.394  1.6868 -1.0834  0.1908
 8143TIP3    H245921   6.420   2.676   6.523  1.1042 -0.1972  0.8474
 8144TIP3   OH245922   3.053   1.778  12.005 -0.4723  0.6773  0.8263
 8144TIP3    H145923   3.051   1.692  12.047  0.4419  0.5803  0.6890
 8144TIP3    H245924   3.121   1.826  12.052  1.0093  0.3728 -0.9139
 8145TIP3   OH245925   4.700   5.851   5.250 -0.1302 -0.3163 -0.6609
 8145TIP3    H145926   4.701   5.762   5.284 -0.5409 -0.5323 -1.1925
 8145TIP3    H245927   4.680   5.841   5.157 -0.8623  0.3664 -0.5909
 8146TIP3   OH245928   1.713   1.204  16.526 -0.3024  0.4802 -0.0837
 8146TIP3    H145929   1.758   1.137  16.475  0.1778  0.6561  0.1015
 8146TIP3    H245930   1.740   1.187  16.616  0.8427  1.7067 -0.1830
 8147TIP3   OH245931   2.343   4.775  12.955 -0.3928  0.3116  0.3147
 8147TIP3    H145932   2.352   4.867  12.930 -0.8639 -0.2200 -2.1156
 8147TIP3    H245933   2.420   4.757  13.008 -0.7050  2.2925  1.5503
 8148TIP3   OH245934   5.792   3.505   6.184  0.3256  0.0595 -0.1489
 8148TIP3    H145935   5.733   3.580   6.193  0.7396  0.3379  0.2703
 8148TIP3    H245936   5.807   3.475   6.273  0.1745 -0.5179 -0.3154
 8149TIP3   OH245937   5.611   5.380   1.022  0.1792  0.4084  0.3246
 8149TIP3    H145938   5.646   5.303   0.976  0.1020  0.7138 -0.2494
 8149TIP3    H245939   5.686   5.413   1.073  0.8621  1.2568 -1.1540
 8150TIP3   OH245940   1.248   6.051  15.400  0.2618 -0.2156 -0.0019
 8150TIP3    H145941   1.317   5.986  15.413 -1.0699 -1.9732 -1.2621
 8150TIP3    H245942   1.170   6.013  15.441 -0.3723  0.9822 -0.0304
 8151TIP3   OH245943   2.703   4.020  14.783 -0.4064 -0.4316  0.7977
 8151TIP3    H145944   2.772   4.086  14.788 -0.4539 -0.3846  0.8255
 8151TIP3    H245945   2.622   4.068  14.795 -0.5930 -0.1832 -1.1463
 8152TIP3   OH245946   5.105   5.182  12.968  0.4138 -0.2755 -0.3726
 8152TIP3    H145947   5.096   5.255  12.906  0.8355 -0.8584 -1.1470
 8152TIP3    H245948   5.172   5.210  13.030  1.4047 -0.4372 -1.3353
 8153TIP3   OH245949   0.842   2.597  12.229  0.4885  0.2603 -0.0076
 8153TIP3    H145950   0.841   2.541  12.306 -1.0177 -0.8980 -0.8147
 8153TIP3    H245951   0.920   2.652  12.240  0.2385  0.2299  2.3724
 8154TIP3   OH245952   6.502   3.500  13.578  0.9141 -0.5907  0.2144
 8154TIP3    H145953   6.588   3.474  13.546  0.3973 -1.5429 -0.4699
 8154TIP3    H245954   6.517   3.581  13.626  2.1169 -0.5138 -0.2666
 8155TIP3   OH245955   3.456   0.966  12.449  0.4150  0.0484 -0.5832
 8155TIP3    H145956   3.501   0.956  12.533 -1.3435 -0.5602  0.3286
 8155TIP3    H245957   3.494   0.899  12.393 -1.7802 -3.0457  1.3033
 8156TIP3   OH245958   2.128   4.212  13.364 -0.1118  0.0975 -0.4828
 8156TIP3    H145959   2.078   4.131  13.369 -0.9543  0.6460  0.0712
 8156TIP3    H245960   2.196   4.203  13.431 -0.1393 -0.1920 -0.4938
 8157TIP3   OH245961   5.096   1.599   4.123 -0.3606 -0.4260 -0.2786
 8157TIP3    H145962   5.151   1.524   4.147 -0.5353 -1.0606 -1.7549
 8157TIP3    H245963   5.025   1.561   4.071 -2.5353  0.2926  1.9682
 8158TIP3   OH245964   4.194   3.776  13.721 -0.1987  0.1982  0.2847
 8158TIP3    H145965   4.161   3.721  13.793  0.8099  1.2660  1.6069
 8158TIP3    H245966   4.166   3.864  13.744 -1.4769  0.3502 -1.6353
 8159TIP3   OH245967   3.109   0.922  13.495 -0.1945 -0.5097 -0.4906
 8159TIP3    H145968   3.185   0.910  13.552 -1.1677 -0.0832  0.9494
 8159TIP3    H245969   3.127   1.004  13.447 -0.9829  1.2310  1.9914
 8160TIP3   OH245970   6.059   1.397  14.774  0.0565 -0.0072  0.2603
 8160TIP3    H145971   6.119   1.468  14.753  0.2002 -0.1141  0.3116
 8160TIP3    H245972   5.981   1.415  14.721  0.2362 -0.0211 -0.0076
 8161TIP3   OH245973   2.874   2.131   5.725  0.1056  0.3245 -0.0117
 8161TIP3    H145974   2.778   2.131   5.730  0.1439  0.2811  0.9277
 8161TIP3    H245975   2.898   2.039   5.733  0.2414  0.3826  0.2740
 8162TIP3   OH245976   1.841   5.221   3.994 -0.3178  0.0420  0.4538
 8162TIP3    H145977   1.931   5.196   3.974 -0.5183 -1.7868  1.6092
 8162TIP3    H245978   1.848   5.311   4.026  1.0985 -0.0575  0.4958
 8163TIP3   OH245979   6.075   3.123   0.279 -0.2936 -0.3280  0.4309
 8163TIP3    H145980   6.013   3.051   0.286 -0.9600 -0.0358 -1.6299
 8163TIP3    H245981   6.159   3.085   0.304 -1.0412 -1.1275  1.7995
 8164TIP3   OH245982   0.378   5.834   4.560 -0.7413  0.0211 -0.3185
 8164TIP3    H145983   0.451   5.894   4.544  0.3019 -1.1335 -0.0940
 8164TIP3    H245984   0.339   5.865   4.642 -0.9849  1.1054 -0.8374
 8165TIP3   OH245985   2.058   5.688   4.443 -0.2956 -0.3199  0.3786
 8165TIP3    H145986   2.050   5.598   4.414  0.8474 -0.2567 -0.2069
 8165TIP3    H245987   2.010   5.739   4.377  0.0669 -0.4091  0.0381
 8166TIP3   OH245988   1.187   4.290   3.145  0.0582  0.1910 -0.0467
 8166TIP3    H145989   1.182   4.236   3.067 -2.1244  0.2353 -0.0014
 8166TIP3    H245990   1.270   4.337   3.137 -0.4134  0.7121 -2.6962
 8167TIP3   OH245991   3.651   2.257   2.624  0.1237  0.5133  0.3266
 8167TIP3    H145992   3.601   2.203   2.562  0.1036  0.1341  0.6666
 8167TIP3    H245993   3.725   2.289   2.573 -0.3160  0.8658 -0.1138
 8168TIP3   OH245994   2.688   5.106   3.240  0.5571 -0.2628  0.1471
 8168TIP3    H145995   2.719   5.083   3.152  1.4304 -2.0218  0.8845
 8168TIP3    H245996   2.598   5.136   3.226  0.2930 -1.5795 -1.2249
 8169TIP3   OH245997   1.354   0.440  14.461 -0.5512 -0.0589  0.4600
 8169TIP3    H145998   1.307   0.389  14.526  1.0640 -3.4390 -0.8092
 8169TIP3    H245999   1.300   0.434  14.382  0.0409 -0.5335  0.0842
 8170TIP3   OH246000   0.462   2.499   2.815  0.1994 -0.3077 -0.1493
 8170TIP3    H146001   0.467   2.552   2.736  1.4526  1.0380  0.7802
 8170TIP3    H246002   0.518   2.424   2.797 -1.1564 -1.0963 -1.2733
 8171TIP3   OH246003   4.814   2.268   5.395  0.0535  0.3853  0.0682
 8171TIP3    H146004   4.799   2.331   5.466  2.1746  0.9645  0.0530
 8171TIP3    H246005   4.755   2.195   5.416 -1.6224  1.8405  0.7004
 8172TIP3   OH246006   5.777   6.541  16.831 -0.6276  0.3697  0.0353
 8172TIP3    H146007   5.850   6.513  16.776 -1.5758  0.0606 -1.0972
 8172TIP3    H246008   5.809   6.620  16.876  0.9965 -0.7326  0.9147
 8173TIP3   OH246009   4.213   6.197  11.130  0.0891  0.7313 -0.1763
 8173TIP3    H146010   4.240   6.289  11.133  2.3120  0.1093  1.6699
 8173TIP3    H246011   4.180   6.179  11.218 -0.5125 -0.2247 -0.5806
 8174TIP3   OH246012   3.395   5.498   2.895  0.1024  0.3862  0.5604
 8174TIP3    H146013   3.428   5.569   2.839  3.5978 -0.8341  0.8153
 8174TIP3    H246014   3.347   5.440   2.835 -1.3581  2.0389  0.0451
 8175TIP3   OH246015   2.969   3.492   2.154 -0.4346  0.9131  0.5015
 8175TIP3    H146016   2.936   3.553   2.220 -0.1069  1.1891  0.4176
 8175TIP3    H246017   2.936   3.526   2.071  0.4076  1.4446  0.3714
 8176TIP3   OH246018   2.428   4.308   0.023 -0.0263  0.0066  0.0133
 8176TIP3    H146019   2.495   4.239   0.028 -1.0376 -1.1748 -1.5747
 8176TIP3    H246020   2.478   4.388   0.007  1.1097 -0.5596  0.6143
 8177TIP3   OH246021   0.572   0.219   0.594  0.3139  0.0065  0.0912
 8177TIP3    H146022   0.612   0.251   0.514  1.9481  0.1688  0.9282
 8177TIP3    H246023   0.614   0.134   0.609  0.4173  0.2126  1.0322
 8178TIP3   OH246024   3.141   0.959   4.271  0.1219 -0.4043  0.2843
 8178TIP3    H146025   3.114   0.946   4.180 -0.2284 -0.0733  0.3376
 8178TIP3    H246026   3.219   0.905   4.281  1.5771  1.3760 -0.8860
 8179TIP3   OH246027   3.319   4.871  11.743 -0.2559  0.1072  0.0505
 8179TIP3    H146028   3.258   4.942  11.764 -0.7340 -0.3369  0.1923
 8179TIP3    H246029   3.342   4.884  11.652 -0.5942  0.2608 -0.0137
 8180TIP3   OH246030   0.907   3.760  11.345  0.0484  0.1020  0.2157
 8180TIP3    H146031   0.877   3.670  11.345  0.6940 -0.1617  1.8957
 8180TIP3    H246032   0.827   3.812  11.338 -0.4639 -0.5964  0.7247
 8181TIP3   OH246033   6.187   2.746   0.215  0.8492  0.4023  0.0688
 8181TIP3    H146034   6.192   2.817   0.151  0.7106  0.9379  0.6493
 8181TIP3    H246035   6.274   2.705   0.212  0.2660 -0.8612 -1.8984
 8182TIP3   OH246036   3.487   3.468  15.621  0.2434 -0.5049 -0.2717
 8182TIP3    H146037   3.582   3.465  15.615  0.4054  1.9385  0.1102
 8182TIP3    H246038   3.469   3.537  15.685 -1.7915 -1.1841 -0.0428
 8183TIP3   OH246039   1.839   2.554  14.071  0.1961  0.1286 -0.4470
 8183TIP3    H146040   1.820   2.477  14.124 -1.0544 -1.5575 -3.1449
 8183TIP3    H246041   1.935   2.560  14.069  0.3115 -1.4057 -0.2675
 8184TIP3   OH246042   0.721   4.539   2.886  0.0374 -0.2323 -0.2699
 8184TIP3    H146043   0.740   4.555   2.979  1.0774 -1.0955 -0.3183
 8184TIP3    H246044   0.679   4.620   2.856 -1.4436 -0.3602  1.2418
 8185TIP3   OH246045   2.365   4.249  13.577  0.5039 -0.0334  0.3140
 8185TIP3    H146046   2.403   4.170  13.615  1.0085  0.0328 -0.0400
 8185TIP3    H246047   2.333   4.299  13.652 -1.4886 -1.3998  0.4367
 8186TIP3   OH246048   3.777   5.287   5.343  0.0503 -0.5198 -0.2104
 8186TIP3    H146049   3.846   5.329   5.293 -0.4649 -0.2400 -0.6995
 8186TIP3    H246050   3.715   5.256   5.277 -1.1274  0.7147  0.2786
 8187TIP3   OH246051   4.783   2.539  12.603 -0.1844  0.0245 -0.1523
 8187TIP3    H146052   4.859   2.482  12.612  0.6814  0.9695 -1.1611
 8187TIP3    H246053   4.811   2.622  12.642 -0.4950  0.5461 -1.0106
 8188TIP3   OH246054   2.988   0.504   6.028 -0.8494  0.0005 -0.3300
 8188TIP3    H146055   3.020   0.589   6.058  0.1273 -0.6658  0.5758
 8188TIP3    H246056   2.905   0.492   6.076 -0.7308  0.2171 -0.0647
 8189TIP3   OH246057   4.028   4.264   6.754  0.3252  0.0115  0.2526
 8189TIP3    H146058   4.122   4.258   6.772  0.1332 -0.1092  1.3011
 8189TIP3    H246059   4.021   4.325   6.681  1.2808 -0.6940 -0.4549
 8190TIP3   OH246060   4.087   5.103   0.758 -0.4328  0.3105  0.7608
 8190TIP3    H146061   4.007   5.118   0.708 -0.9818 -0.6101  1.3323
 8190TIP3    H246062   4.154   5.153   0.711 -1.3012  0.9616  0.1786
 8191TIP3   OH246063   5.724   0.832   5.862 -0.4692 -0.4906 -0.2400
 8191TIP3    H146064   5.712   0.739   5.876  1.3464 -0.9106 -1.1198
 8191TIP3    H246065   5.669   0.853   5.787  0.1447 -1.1686 -0.8936
 8192TIP3   OH246066   4.806   5.626   2.220  0.2152 -0.8474 -0.3431
 8192TIP3    H146067   4.818   5.532   2.211  0.5794 -0.7193 -1.3713
 8192TIP3    H246068   4.879   5.664   2.172 -1.5830 -0.0573 -2.6403
 8193TIP3   OH246069   4.102   4.315   1.032 -0.4162  0.1570 -0.3470
 8193TIP3    H146070   4.162   4.377   0.990  0.1107 -0.1700 -0.0887
 8193TIP3    H246071   4.122   4.231   0.991  0.5164 -0.2858  0.9372
 8194TIP3   OH246072   5.190   5.067   3.834  0.1987  0.0671  0.5434
 8194TIP3    H146073   5.160   5.024   3.753 -1.2336  1.6030  0.2195
 8194TIP3    H246074   5.266   5.015   3.861 -0.2352 -1.4314 -0.9242
 8195TIP3   OH246075   6.339   0.195  17.204 -0.1487  0.5557 -0.2172
 8195TIP3    H146076   6.372   0.186  17.114 -0.1712  1.9910 -0.3920
 8195TIP3    H246077   6.245   0.209  17.194 -0.4456 -1.0048  0.1477
 8196TIP3   OH246078   6.100   0.904  11.446  0.0546  0.6311  0.3903
 8196TIP3    H146079   6.010   0.916  11.415  0.1422  1.4630  0.4386
 8196TIP3    H246080   6.129   0.992  11.468  0.2805  0.1724  2.0785
 8197TIP3   OH246081   5.672   4.593   3.703 -0.3683  0.1863  0.4204
 8197TIP3    H146082   5.662   4.542   3.623  0.6609  0.5894  0.0167
 8197TIP3    H246083   5.628   4.540   3.770 -2.1713  0.3474 -0.5783
 8198TIP3   OH246084   4.347   1.306  15.869  0.1396 -0.8885 -0.0043
 8198TIP3    H146085   4.397   1.387  15.860  0.3264 -1.0117 -0.0906
 8198TIP3    H246086   4.373   1.271  15.954 -1.1170 -0.0684  0.7569
 8199TIP3   OH246087   4.912   1.607  14.890  0.2718  1.0521 -0.0589
 8199TIP3    H146088   4.855   1.554  14.945  3.3874 -0.8577  1.6944
 8199TIP3    H246089   4.938   1.548  14.819  1.0321  1.4206 -0.0987
 8200TIP3   OH246090   0.653   5.736   3.437 -0.0789 -0.2072  0.2812
 8200TIP3    H146091   0.591   5.729   3.509 -0.9913 -1.2594 -0.5780
 8200TIP3    H246092   0.739   5.724   3.478 -0.6015 -1.1050  1.1520
 8201TIP3   OH246093   2.759   4.960   5.276  0.0999  0.4531 -0.1165
 8201TIP3    H146094   2.665   4.971   5.258  0.1008 -0.4154 -0.6880
 8201TIP3    H246095   2.764   4.878   5.325  0.4907  0.8839  0.5725
 8202TIP3   OH246096   5.774   4.947  14.748 -0.1747 -1.2364 -0.4718
 8202TIP3    H146097   5.757   5.019  14.688 -1.0922  0.1674  1.3940
 8202TIP3    H246098   5.863   4.918  14.726 -0.0481 -0.0177 -1.7067
 8203TIP3   OH246099   5.799   1.962  13.753 -0.1760 -0.1132  0.8555
 8203TIP3    H146100   5.717   2.010  13.740 -0.1056 -0.6618 -2.3685
 8203TIP3    H246101   5.866   2.031  13.753 -0.4729  0.1865  1.6448
 8204TIP3   OH246102   0.056   1.635   2.583  0.2448  0.2657  0.0688
 8204TIP3    H146103   0.145   1.652   2.613  0.5567 -0.5259 -0.3790
 8204TIP3    H246104   0.004   1.625   2.663  1.2930 -3.0962  0.4637
 8205TIP3   OH246105   6.294   6.124   1.734 -0.3929 -0.7352  0.4097
 8205TIP3    H146106   6.267   6.087   1.650 -1.2199  1.7156 -0.4841
 8205TIP3    H246107   6.214   6.127   1.786 -0.9220  1.8011 -0.3905
 8206TIP3   OH246108   6.831   1.954   0.502  0.8646 -0.5117  0.5297
 8206TIP3    H146109   6.800   1.959   0.412 -0.4074  1.6121  1.0403
 8206TIP3    H246110   6.909   1.899   0.497  1.5292  0.5497 -2.0577
 8207TIP3   OH246111   1.893   1.668   5.192  0.0367 -0.6085  0.0031
 8207TIP3    H146112   1.960   1.681   5.259 -1.0364  3.1603  0.5755
 8207TIP3    H246113   1.939   1.681   5.109  0.2033  1.2660  0.3624
 8208TIP3   OH246114   4.421   6.105   3.192 -0.8573  0.2784 -0.3665
 8208TIP3    H146115   4.495   6.074   3.140 -1.1914  0.2133 -0.8060
 8208TIP3    H246116   4.458   6.119   3.279 -0.5977 -0.8963 -0.2737
 8209TIP3   OH246117   5.053   0.199  15.779  0.2598  0.0330 -0.3136
 8209TIP3    H146118   5.135   0.218  15.734 -0.5935 -1.1277 -2.5112
 8209TIP3    H246119   4.985   0.226  15.718 -0.9856 -0.5848  0.7383
 8210TIP3   OH246120   0.097   2.551  16.839 -0.0719  0.0991  0.3698
 8210TIP3    H146121   0.144   2.598  16.908 -1.4690  1.1305  0.6683
 8210TIP3    H246122   0.061   2.620  16.783 -1.7273 -0.5914  0.5146
 8211TIP3   OH246123   1.316   0.314  11.048 -0.1145  0.1496 -0.0875
 8211TIP3    H146124   1.351   0.341  10.964 -0.5003 -0.4146 -0.4352
 8211TIP3    H246125   1.250   0.247  11.027 -0.4008  0.1909  0.6381
 8212TIP3   OH246126   5.863   4.754   2.069  0.3673 -0.3815 -0.0533
 8212TIP3    H146127   5.843   4.660   2.070 -1.7081 -0.0453  2.9075
 8212TIP3    H246128   5.783   4.795   2.035  1.2725  0.3685 -1.3647
 8213TIP3   OH246129   3.919   0.040  15.823 -0.4745 -0.4693  0.1814
 8213TIP3    H146130   3.918  -0.056  15.817  1.7387 -0.5121 -0.5401
 8213TIP3    H246131   3.943   0.058  15.914  0.3439 -0.6612  0.0169
 8214TIP3   OH246132   0.740   2.092  16.249 -0.0340  0.4407 -0.3897
 8214TIP3    H146133   0.751   2.006  16.288  1.7976 -0.0151 -1.7815
 8214TIP3    H246134   0.648   2.097  16.225 -1.0567  0.4130  3.0725
 8215TIP3   OH246135   2.614   1.868  12.372 -0.0212  0.0051  0.4172
 8215TIP3    H146136   2.613   1.867  12.276 -0.5677 -1.7064  0.4121
 8215TIP3    H246137   2.613   1.776  12.397  0.2731  0.4222  2.0845
 8216TIP3   OH246138   1.041   1.739   3.252  0.6724 -0.6443  0.6467
 8216TIP3    H146139   1.000   1.754   3.337  1.5010  0.1456  0.9222
 8216TIP3    H246140   0.996   1.662   3.217  0.6245 -1.2509  1.9845
 8217TIP3   OH246141   5.463   0.943  14.205  0.7237 -0.0017  0.4492
 8217TIP3    H146142   5.472   0.857  14.166  0.9678  0.4308 -0.4754
 8217TIP3    H246143   5.369   0.961  14.204  0.7597  0.1683 -0.3169
 8218TIP3   OH246144   6.663   1.203   1.561 -0.0132  0.6292  0.0945
 8218TIP3    H146145   6.709   1.237   1.638  0.6186  0.9243 -0.4070
 8218TIP3    H246146   6.638   1.114   1.586  0.1830  0.7222  0.6436
 8219TIP3   OH246147   3.187   6.438  15.086 -0.4819  0.6372  0.2474
 8219TIP3    H146148   3.227   6.386  15.016  0.9665  1.3862  0.4686
 8219TIP3    H246149   3.185   6.528  15.051 -0.9797  0.7913  0.6645
 8220TIP3   OH246150   1.302   3.527   5.155 -0.2161  0.3268  0.7828
 8220TIP3    H146151   1.300   3.465   5.228  2.1101 -1.0871 -0.2572
 8220TIP3    H246152   1.341   3.606   5.192  0.8010 -0.3191  1.1291
 8221TIP3   OH246153   0.048   0.273   3.753 -0.1204 -0.3009  0.5422
 8221TIP3    H146154   0.088   0.360   3.752 -0.6419 -0.0363 -1.4396
 8221TIP3    H246155   0.122   0.213   3.746  0.1528  0.0391  0.4656
 8222TIP3   OH246156   3.669   3.925   5.416  0.2305  0.5729 -0.8743
 8222TIP3    H146157   3.587   3.954   5.455  0.3908  1.2344 -1.0126
 8222TIP3    H246158   3.736   3.979   5.459  0.6208 -0.1620 -0.5517
 8223TIP3   OH246159   2.322   1.993  13.955 -0.1865 -0.2014 -0.0274
 8223TIP3    H146160   2.317   1.990  13.860 -0.4899 -1.0916  0.0108
 8223TIP3    H246161   2.399   1.942  13.977  1.8144  2.6463  0.0765
 8224TIP3   OH246162   5.750   2.901   5.779 -0.3148  0.4374 -0.1639
 8224TIP3    H146163   5.778   2.810   5.788  0.1967  0.6552  0.5883
 8224TIP3    H246164   5.760   2.922   5.686 -1.1464 -0.4900 -0.4774
 8225TIP3   OH246165   2.120   0.392   6.276  0.5415 -0.2459  0.1964
 8225TIP3    H146166   2.148   0.300   6.280 -0.3572 -0.5245  0.2192
 8225TIP3    H246167   2.056   0.394   6.205  3.0653  1.0568 -2.2149
 8226TIP3   OH246168   4.891   2.977  15.418 -0.1502  0.1157 -0.2545
 8226TIP3    H146169   4.932   3.032  15.486 -0.5973  0.0788  0.0511
 8226TIP3    H246170   4.822   3.033  15.382 -1.6055 -0.7261  1.0825
 8227TIP3   OH246171   5.578   1.698   3.373 -0.1470 -0.0155 -0.0880
 8227TIP3    H146172   5.489   1.698   3.410 -0.3562 -0.5880 -0.5606
 8227TIP3    H246173   5.564   1.679   3.280  0.5658 -1.9938  0.1484
 8228TIP3   OH246174   4.242   6.011   3.401  0.4846 -0.1382  0.2586
 8228TIP3    H146175   4.167   6.059   3.366  0.8812 -0.5308 -1.2345
 8228TIP3    H246176   4.312   6.026   3.336  1.5874 -0.0875  1.4149
 8229TIP3   OH246177   4.140   5.241  11.785  0.0175 -0.3253 -0.1351
 8229TIP3    H146178   4.101   5.325  11.809 -1.2165 -1.6202  2.9795
 8229TIP3    H246179   4.229   5.262  11.760 -0.8056  2.0716 -1.3689
 8230TIP3   OH246180   3.555   3.157  12.795 -0.1369  0.5616  0.2143
 8230TIP3    H146181   3.506   3.239  12.786 -0.2700  0.4231 -0.3965
 8230TIP3    H246182   3.567   3.127  12.705  0.2731  0.1202  0.4122
 8231TIP3   OH246183   2.068   0.782   6.398 -0.6427 -0.3460 -0.8099
 8231TIP3    H146184   1.993   0.777   6.338  0.4897 -0.9878 -2.2370
 8231TIP3    H246185   2.091   0.875   6.401 -0.6127 -0.3273 -1.5155
 8232TIP3   OH246186   3.606   3.522  11.974  0.3786  0.0984  0.2750
 8232TIP3    H146187   3.598   3.563  11.888 -0.1037  2.0144  1.1918
 8232TIP3    H246188   3.573   3.433  11.961 -1.3635  0.8901 -1.1328
 8233TIP3   OH246189   0.254   2.990   2.813 -0.6419  0.7554 -0.2136
 8233TIP3    H146190   0.259   2.921   2.747 -1.8901 -0.2676  0.7129
 8233TIP3    H246191   0.296   2.953   2.891 -0.1710  1.5304 -0.0869
 8234TIP3   OH246192   2.084   6.621   3.658 -0.2314  0.1750 -0.2164
 8234TIP3    H146193   2.171   6.595   3.627 -0.7469  0.2210 -1.8209
 8234TIP3    H246194   2.030   6.543   3.647 -1.1022  0.9798 -2.2758
 8235TIP3   OH246195   3.508   3.824  13.050 -0.8250 -0.2757 -0.4392
 8235TIP3    H146196   3.490   3.730  13.046 -1.1704 -0.2210 -0.1373
 8235TIP3    H246197   3.530   3.841  13.141  0.1809 -0.2322 -0.6746
 8236TIP3   OH246198   5.604   6.351   0.378 -0.3069  0.1060 -0.8778
 8236TIP3    H146199   5.540   6.413   0.412  0.3979  0.5780 -0.3804
 8236TIP3    H246200   5.598   6.360   0.283 -2.1555 -1.0857 -0.9216
 8237TIP3   OH246201   1.955   4.538  11.834 -0.5036 -0.2126  0.4031
 8237TIP3    H146202   1.893   4.499  11.773  0.1596 -2.0502  0.8274
 8237TIP3    H246203   2.037   4.543  11.785  0.1032 -1.9465  1.1489
 8238TIP3   OH246204   3.090   3.195   1.679  0.2329  0.0433  0.2012
 8238TIP3    H146205   3.138   3.126   1.634  2.0736  1.6322 -0.4646
 8238TIP3    H246206   3.120   3.190   1.770 -1.0014 -1.1068  0.5754
 8239TIP3   OH246207   3.002   6.200  16.483  0.2101 -0.3586  0.2513
 8239TIP3    H146208   2.969   6.111  16.469 -0.6390  0.1113 -0.8188
 8239TIP3    H246209   3.095   6.194  16.460 -0.2346 -0.5811 -1.6308
 8240TIP3   OH246210   5.457   5.848   3.730 -0.2612 -0.9893 -0.2139
 8240TIP3    H146211   5.372   5.835   3.771  0.0478 -0.4043  0.6553
 8240TIP3    H246212   5.486   5.761   3.704 -1.2670 -1.1504 -0.8191
 8241TIP3   OH246213   2.346   6.419  16.387 -0.2081 -0.1228  0.5181
 8241TIP3    H146214   2.412   6.485  16.410  0.2568  0.1330 -1.3894
 8241TIP3    H246215   2.264   6.467  16.387  0.2191  0.7499 -1.6491
 8242TIP3   OH246216   1.136   4.989  11.794  0.0540  0.1771 -0.0627
 8242TIP3    H146217   1.168   4.899  11.792  2.1534  0.8435  0.8816
 8242TIP3    H246218   1.044   4.982  11.767  0.2392 -2.1827 -0.3244
 8243TIP3   OH246219   2.842   5.170  11.517  0.2119  0.3635  0.8617
 8243TIP3    H146220   2.869   5.085  11.552 -0.0320 -1.0833 -2.1159
 8243TIP3    H246221   2.904   5.187  11.446 -0.4181  2.1290  0.7025
 8244TIP3   OH246222   1.370   2.252   4.212  0.4610  0.5261 -0.7988
 8244TIP3    H146223   1.396   2.341   4.189  1.7846  0.4254  0.1709
 8244TIP3    H246224   1.451   2.211   4.243 -0.1797 -0.9329 -0.9714
 8245TIP3   OH246225   3.166   2.056   2.999 -0.6369  0.2676 -0.1319
 8245TIP3    H146226   3.082   2.079   2.959 -1.0894 -1.8137 -0.5081
 8245TIP3    H246227   3.161   1.961   3.013  1.6115  0.0982 -0.0497
 8246TIP3   OH246228   2.390   4.917   4.824 -0.1920 -0.4956  0.5360
 8246TIP3    H146229   2.365   4.953   4.739 -0.1984 -0.3052  0.6188
 8246TIP3    H246230   2.367   4.985   4.887 -1.7716 -1.2821  0.8653
 8247TIP3   OH246231   6.022   4.474   4.891 -0.8065  0.2741  0.1342
 8247TIP3    H146232   5.971   4.450   4.814 -0.2124 -2.3913  0.4695
 8247TIP3    H246233   5.958   4.477   4.962 -1.7289  4.7613 -0.6309
 8248TIP3   OH246234   1.082   4.760  13.646 -1.0866  0.4322 -0.2217
 8248TIP3    H146235   1.123   4.809  13.574 -2.2764 -0.6472 -1.6925
 8248TIP3    H246236   1.156   4.731  13.700 -0.2301  2.0479 -0.4586
 8249TIP3   OH246237   3.770   0.303  13.318  0.0726  0.2489 -0.2429
 8249TIP3    H146238   3.676   0.320  13.316 -0.0424  0.0993  1.8680
 8249TIP3    H246239   3.777   0.208  13.331  0.6064 -0.1705 -2.9284
 8250TIP3   OH246240   2.156   4.211  16.377 -0.9038  0.0020  0.3359
 8250TIP3    H146241   2.250   4.214  16.358 -1.2563  1.3140 -1.4121
 8250TIP3    H246242   2.137   4.117  16.386  0.4372 -0.3303  0.0147
 8251TIP3   OH246243   2.119   6.569  14.728 -0.1379 -0.0799  0.2296
 8251TIP3    H146244   2.026   6.590  14.715  0.1675  0.4650 -1.2394
 8251TIP3    H246245   2.164   6.611  14.655  1.4474  0.8558  1.6495
 8252TIP3   OH246246   2.319   3.110  15.522 -0.1869  0.3784  0.3788
 8252TIP3    H146247   2.268   3.182  15.560 -0.0807  0.1812  0.9086
 8252TIP3    H246248   2.258   3.037  15.519 -0.2547  0.4521 -0.0283
 8253TIP3   OH246249   5.233   4.631  15.792  0.0128  0.1648 -0.1809
 8253TIP3    H146250   5.223   4.725  15.809 -0.9953  0.0686 -0.1677
 8253TIP3    H246251   5.146   4.603  15.762  0.0254 -0.9691  0.7992
 8254TIP3   OH246252   1.500   0.109   2.031  0.3584 -0.3678  0.5921
 8254TIP3    H146253   1.442   0.072   2.098  0.1277 -1.2118 -0.0571
 8254TIP3    H246254   1.485   0.055   1.954 -0.0561  1.1501 -0.4370
 8255TIP3   OH246255   2.312   2.457  14.886  0.4756  0.4870  0.3095
 8255TIP3    H146256   2.236   2.441  14.941  0.6697  0.8013  0.6726
 8255TIP3    H246257   2.289   2.534  14.834  0.1160 -0.0769 -0.3796
 8256TIP3   OH246258   5.671   5.392   4.471  0.1566  0.3094  0.3383
 8256TIP3    H146259   5.677   5.353   4.383 -0.8818 -0.2027  0.4780
 8256TIP3    H246260   5.589   5.359   4.506  0.2854  0.9658  1.2954
 8257TIP3   OH246261   5.667   3.280   5.737 -0.1236 -0.3553 -0.4219
 8257TIP3    H146262   5.651   3.346   5.670  2.8875  0.4215 -0.5140
 8257TIP3    H246263   5.718   3.326   5.804 -1.0870 -1.7080  1.3423
 8258TIP3   OH246264   1.039   4.577  15.228  0.7883 -0.4631 -0.2150
 8258TIP3    H146265   1.020   4.497  15.179 -0.2098 -1.0436  1.0595
 8258TIP3    H246266   0.961   4.632  15.216  0.9370 -0.2109 -0.0498
 8259TIP3   OH246267   4.494   0.172  16.596  0.5438 -0.0290  0.2688
 8259TIP3    H146268   4.534   0.187  16.510 -1.8389  0.1252 -0.9269
 8259TIP3    H246269   4.517   0.250  16.647 -0.9271  1.6839 -1.4987
 8260TIP3   OH246270   6.538   0.981  13.321 -0.5453  0.4932  0.0085
 8260TIP3    H146271   6.624   1.023  13.327 -0.7314  1.0068 -0.7610
 8260TIP3    H246272   6.503   0.987  13.410 -0.4702  1.7803 -0.0255
 8261TIP3   OH246273   5.308   0.367   4.202 -0.5806 -0.2347  1.0217
 8261TIP3    H146274   5.253   0.428   4.153 -0.2167 -0.0151  0.8855
 8261TIP3    H246275   5.270   0.280   4.184 -0.3793 -0.1658  0.2647
 8262TIP3   OH246276   2.999   2.214   0.985  1.2275  0.3574 -0.0615
 8262TIP3    H146277   2.961   2.239   0.901  1.1801 -0.7759 -0.3919
 8262TIP3    H246278   3.091   2.241   0.979  1.8282 -1.6791 -1.4043
 8263TIP3   OH246279   0.733   0.735   3.946  0.4619  0.2319  0.1096
 8263TIP3    H146280   0.732   0.820   3.902  1.4547  0.9164  1.3399
 8263TIP3    H246281   0.688   0.751   4.029 -2.6356 -1.3653 -1.0966
 8264TIP3   OH246282   2.939   6.634  11.493  0.0687 -0.2419 -0.6350
 8264TIP3    H146283   2.943   6.542  11.465  0.1084 -0.4218 -0.0521
 8264TIP3    H246284   2.878   6.675  11.431 -0.7814 -0.9035 -0.2709
 8265TIP3   OH246285   6.046   5.072   3.760 -0.3235 -0.7097  0.1121
 8265TIP3    H146286   6.138   5.096   3.758 -0.3792 -0.5514 -0.7435
 8265TIP3    H246287   6.032   5.036   3.848 -0.0617  1.6982  1.2162
 8266TIP3   OH246288   3.781   3.151  13.647  0.5093  0.1418  0.7204
 8266TIP3    H146289   3.816   3.062  13.646 -0.0544 -0.0859  0.8711
 8266TIP3    H246290   3.764   3.171  13.555  0.7364  0.1411  0.6756
 8267TIP3   OH246291   3.965   3.904   2.130 -0.4095  0.2902  0.2242
 8267TIP3    H146292   3.883   3.944   2.099 -0.0955  0.4189 -0.4717
 8267TIP3    H246293   3.998   3.965   2.196 -0.3500  0.7737 -0.2427
 8268TIP3   OH246294   4.332   0.544  14.580  0.2225 -0.7000 -0.3891
 8268TIP3    H146295   4.299   0.495  14.505 -1.1581  1.7026 -1.4725
 8268TIP3    H246296   4.395   0.606  14.543  1.0104 -0.7723  0.7594
 8269TIP3   OH246297   6.816   1.110  14.061 -0.4639 -0.2776 -0.3826
 8269TIP3    H146298   6.839   1.175  14.127 -0.0245  0.4340 -1.2207
 8269TIP3    H246299   6.874   1.036  14.079 -3.2412 -1.9858  2.7616
 8270TIP3   OH246300   1.063   3.359  11.977 -0.0222 -0.1613  0.1976
 8270TIP3    H146301   0.977   3.384  11.942  0.9706 -0.5007 -2.7606
 8270TIP3    H246302   1.054   3.267  12.000 -0.6163 -0.0394  0.4575
 8271TIP3   OH246303   6.158   5.914   3.165 -0.2133 -0.4270 -0.1989
 8271TIP3    H146304   6.073   5.948   3.136 -0.6576 -0.5380  0.9394
 8271TIP3    H246305   6.201   5.886   3.084 -0.8390  0.5752 -0.8991
 8272TIP3   OH246306   6.451   2.955   5.839  0.4215  0.1594  0.4064
 8272TIP3    H146307   6.418   2.997   5.918  0.9035  0.5168  0.4251
 8272TIP3    H246308   6.496   2.876   5.871  0.8920  0.4692  0.5261
 8273TIP3   OH246309   0.479   6.523  10.915  0.2742  0.5757  0.2021
 8273TIP3    H146310   0.399   6.497  10.960  0.2704  1.5350  0.7684
 8273TIP3    H246311   0.536   6.557  10.984  1.1721 -0.0595 -0.1942
 8274TIP3   OH246312   3.134   2.132  13.775  0.3531 -0.0941  0.1574
 8274TIP3    H146313   3.094   2.077  13.843 -0.0883  1.4401  1.2134
 8274TIP3    H246314   3.225   2.142  13.803  0.0920  0.7997  0.7322
 8275TIP3   OH246315   5.490   4.354   5.240 -0.7231 -0.0250  0.6113
 8275TIP3    H146316   5.460   4.386   5.326  0.5106  0.0470  1.0341
 8275TIP3    H246317   5.523   4.432   5.196  1.6618 -0.5383  1.3761
 8276TIP3   OH246318   0.482   6.446  16.382  0.0045  0.0310 -0.3574
 8276TIP3    H146319   0.534   6.519  16.348 -0.0438  0.2447  0.0182
 8276TIP3    H246320   0.403   6.488  16.416 -0.9912 -0.4057 -2.0374
 8277TIP3   OH246321   2.988   1.726   4.512  0.6738  0.1886 -0.5028
 8277TIP3    H146322   3.037   1.807   4.501  1.3994 -0.0047  1.0148
 8277TIP3    H246323   2.898   1.754   4.530  0.6739  0.6116 -1.1383
 8278TIP3   OH246324   0.461   0.552   5.035  0.3629  0.3626  0.6980
 8278TIP3    H146325   0.402   0.536   5.109 -0.7420 -1.3714 -0.4640
 8278TIP3    H246326   0.406   0.597   4.970  0.2271 -1.3396 -0.4296
 8279TIP3   OH246327   6.066   3.729  14.412 -0.0364 -0.1704 -0.1254
 8279TIP3    H146328   6.152   3.763  14.435  1.1451 -2.0184 -1.5138
 8279TIP3    H246329   6.079   3.635  14.403 -2.0982 -0.4342 -0.8551
 8280TIP3   OH246330   5.772   2.091  11.800  0.1378 -0.4098  0.7589
 8280TIP3    H146331   5.839   2.115  11.736 -1.4135  0.4702 -0.6101
 8280TIP3    H246332   5.694   2.074  11.748 -1.5777  1.6551  2.4652
 8281TIP3   OH246333   4.925   6.625  13.512  0.9837 -0.2920 -0.3282
 8281TIP3    H146334   4.930   6.605  13.418  0.8233  0.5001 -0.5111
 8281TIP3    H246335   4.926   6.721  13.516  1.6142 -0.3218  0.5147
 8282TIP3   OH246336   6.276   0.426  15.026  0.1095  0.0048  0.4726
 8282TIP3    H146337   6.222   0.502  15.045  0.5418  0.3895  0.1742
 8282TIP3    H246338   6.359   0.443  15.071  1.0328  0.7765 -1.4289
 8283TIP3   OH246339   1.801   3.215  16.442  0.1140  0.1241  0.0133
 8283TIP3    H146340   1.745   3.280  16.484 -1.6163 -1.2482 -0.0627
 8283TIP3    H246341   1.847   3.172  16.514  0.3408  0.5970  0.1542
 8284TIP3   OH246342   1.533   3.170   5.656  0.0410  0.4237 -0.1386
 8284TIP3    H146343   1.529   3.191   5.749  0.9874  0.2001 -0.0309
 8284TIP3    H246344   1.612   3.115   5.648  0.9101  1.7753 -1.3122
 8285TIP3   OH246345   1.671   1.820   5.615 -0.1404  0.1991  0.0985
 8285TIP3    H146346   1.649   1.772   5.695 -0.4110 -0.0840 -0.1431
 8285TIP3    H246347   1.657   1.912   5.638  0.9120  0.2183  0.7320
 8286TIP3   OH246348   3.376   4.867   4.844 -0.7969  0.2433 -0.1858
 8286TIP3    H146349   3.469   4.884   4.824  0.0527 -1.3946  1.9892
 8286TIP3    H246350   3.364   4.774   4.823 -1.3744 -0.0700  1.4310
 8287TIP3   OH246351   5.293   2.958  13.158 -0.0146 -0.3037 -0.3238
 8287TIP3    H146352   5.318   2.908  13.080 -0.8937 -0.2481 -0.6550
 8287TIP3    H246353   5.211   2.918  13.186  0.2424 -0.2565  0.5205
 8288TIP3   OH246354   6.180   3.767   5.680 -0.1885  0.3152 -0.4959
 8288TIP3    H146355   6.115   3.748   5.612  0.0433  0.1031 -0.6617
 8288TIP3    H246356   6.265   3.757   5.636  0.0964 -2.8469  0.5110
 8289TIP3   OH246357   1.398   2.765  15.610 -0.6795 -0.2714  0.0802
 8289TIP3    H146358   1.443   2.847  15.592 -2.0138  0.1271 -1.7745
 8289TIP3    H246359   1.330   2.788  15.674  0.4615 -0.4677  1.3923
 8290TIP3   OH246360   0.800   3.294   4.155  0.8764  0.1065 -0.3171
 8290TIP3    H146361   0.867   3.226   4.154  3.2883  2.2984 -0.0823
 8290TIP3    H246362   0.834   3.361   4.214 -0.7640  2.0387 -1.3990
 8291TIP3   OH246363   4.301   6.159   0.928 -0.2786 -0.0385 -0.0882
 8291TIP3    H146364   4.325   6.079   0.881  1.6464  1.1656 -1.3044
 8291TIP3    H246365   4.263   6.215   0.860  1.9429  1.4815 -0.2011
 8292TIP3   OH246366   3.910   6.369  15.021 -0.2503  0.7941 -0.4187
 8292TIP3    H146367   4.002   6.395  15.014 -0.2986  1.5317  1.0490
 8292TIP3    H246368   3.893   6.317  14.943  1.0092  1.8599 -1.4547
 8293TIP3   OH246369   1.055   1.515   1.113 -0.1700 -0.5655 -0.1343
 8293TIP3    H146370   1.048   1.573   1.189  0.7359 -0.0595 -0.4203
 8293TIP3    H246371   1.045   1.427   1.149 -0.9906 -0.2665  0.3872
 8294TIP3   OH246372   0.233   4.139   6.173  0.4798 -0.4723 -0.6105
 8294TIP3    H146373   0.212   4.232   6.170  1.9405 -0.0791  0.2744
 8294TIP3    H246374   0.159   4.096   6.128 -0.5829  1.0271 -0.3713
 8295TIP3   OH246375   6.607   5.771   3.144 -0.3258  1.0316  0.1222
 8295TIP3    H146376   6.622   5.687   3.101  2.4112  0.7867  1.3659
 8295TIP3    H246377   6.517   5.765   3.177  0.0021 -1.7411  0.7927
 8296TIP3   OH246378   3.774   3.929   1.642  0.2230  0.3636 -0.8050
 8296TIP3    H146379   3.741   3.885   1.719 -0.0156  0.6524 -0.7401
 8296TIP3    H246380   3.868   3.911   1.642 -0.0340 -1.1002 -1.4116
 8297TIP3   OH246381   0.769   0.875   0.493  0.0670  0.7970  1.0587
 8297TIP3    H146382   0.759   0.940   0.423 -0.3599  1.0574  1.3603
 8297TIP3    H246383   0.793   0.795   0.447  4.0138  1.8440  0.8665
 8298TIP3   OH246384   1.912   5.163   2.968  0.1884 -0.4386 -0.3024
 8298TIP3    H146385   1.849   5.185   3.037  1.0626 -2.2303  1.1734
 8298TIP3    H246386   1.859   5.131   2.895 -0.6784 -1.9448  0.9240
 8299TIP3   OH246387   4.477   2.854   1.420  0.5047  0.6442  0.5050
 8299TIP3    H146388   4.541   2.906   1.468  0.2412 -0.5498  2.2490
 8299TIP3    H246389   4.529   2.804   1.357  1.1856  0.2864  1.3413
 8300TIP3   OH246390   1.031   2.890  14.779  0.5915 -0.5542  0.4372
 8300TIP3    H146391   1.050   2.944  14.856 -0.6820  0.3373  0.1512
 8300TIP3    H246392   1.012   2.952  14.710 -1.8934 -1.3229  0.3489
 8301TIP3   OH246393   6.485   3.382  14.264  0.1904 -0.5399  0.1637
 8301TIP3    H146394   6.450   3.343  14.345 -0.8349 -0.5558 -0.2728
 8301TIP3    H246395   6.482   3.311  14.200  0.0328 -0.2398 -0.1602
 8302TIP3   OH246396   3.840   6.393   6.171 -0.2713  0.4360 -0.4503
 8302TIP3    H146397   3.887   6.393   6.255  0.0344  0.3391 -0.6194
 8302TIP3    H246398   3.821   6.300   6.154 -1.9773  0.5905  0.4166
 8303TIP3   OH246399   0.953   2.639   0.458  0.0670 -0.4034  0.0320
 8303TIP3    H146400   0.882   2.587   0.495  2.0012 -0.8511  3.6026
 8303TIP3    H246401   1.017   2.574   0.428 -0.2239 -0.0061 -1.5303
 8304TIP3   OH246402   0.284   4.872   2.407  0.1453  0.1085  0.2990
 8304TIP3    H146403   0.240   4.912   2.483 -2.9227 -0.1728 -1.1982
 8304TIP3    H246404   0.294   4.780   2.431 -0.5740  0.0737  0.4953
 8305TIP3   OH246405   4.347   1.202   6.341  0.3339  0.1879  0.4627
 8305TIP3    H146406   4.435   1.237   6.353  0.8211 -1.0656  0.6591
 8305TIP3    H246407   4.291   1.280   6.336  1.4086  0.9927  0.6025
 8306TIP3   OH246408   5.660   2.748   4.200  0.3848 -0.0998 -0.0103
 8306TIP3    H146409   5.713   2.805   4.256  0.5921 -0.3977  0.1011
 8306TIP3    H246410   5.574   2.789   4.199  0.8482  0.9067 -0.9529
 8307TIP3   OH246411   5.933   4.373   1.805  0.0440  0.3992 -0.3388
 8307TIP3    H146412   6.020   4.357   1.843 -0.3899 -1.6096 -0.1086
 8307TIP3    H246413   5.949   4.377   1.711  0.3089 -0.7494 -0.3564
 8308TIP3   OH246414   0.241   2.270   0.887 -0.5490  0.0864  0.6678
 8308TIP3    H146415   0.251   2.261   0.982  0.3659 -0.7196  0.5108
 8308TIP3    H246416   0.195   2.353   0.876  0.6284  0.9197  1.7570
 8309TIP3   OH246417   4.299   3.858   4.211 -0.7874  0.5954  0.4492
 8309TIP3    H146418   4.270   3.944   4.180 -0.3182 -0.1587 -2.4366
 8309TIP3    H246419   4.289   3.801   4.134  3.8979 -0.7563  0.5698
 8310TIP3   OH246420   6.036   4.653   6.112  0.3335 -0.7875  0.0821
 8310TIP3    H146421   6.036   4.557   6.102  1.4150 -0.7416 -0.5947
 8310TIP3    H246422   5.944   4.677   6.108  0.1359 -1.6029 -2.2122
 8311TIP3   OH246423   2.421   1.182   3.584  0.3021  0.3183  0.0784
 8311TIP3    H146424   2.431   1.111   3.520  0.1491  0.0604  0.3320
 8311TIP3    H246425   2.470   1.255   3.547  1.6545 -0.3548  0.4693
 8312TIP3   OH246426   3.135   0.193  14.128  0.9246 -0.2856 -0.5160
 8312TIP3    H146427   3.078   0.147  14.189  1.0680 -3.1891 -2.3349
 8312TIP3    H246428   3.220   0.150  14.137  1.3199  0.1838 -1.6964
 8313TIP3   OH246429   5.972   1.166  13.264 -0.1008  0.3998 -0.4296
 8313TIP3    H146430   6.045   1.161  13.203 -0.5831 -0.3081 -0.9677
 8313TIP3    H246431   5.915   1.234  13.227 -0.7009 -0.4623 -1.1337
 8314TIP3   OH246432   6.057   0.651  16.063  0.0355 -0.1642  0.0325
 8314TIP3    H146433   6.024   0.574  16.016  0.0405 -0.7442  0.9691
 8314TIP3    H246434   6.147   0.659  16.034 -0.0783 -0.2746 -0.3655
 8315TIP3   OH246435   5.324   1.523  12.619  0.4604 -0.0907  0.0582
 8315TIP3    H146436   5.254   1.504  12.681 -0.3729 -1.2634 -1.1829
 8315TIP3    H246437   5.341   1.617  12.629 -1.3899  0.2554  0.2984
 8316TIP3   OH246438   2.988   0.610   1.355  0.2373  0.1256 -0.1131
 8316TIP3    H146439   3.073   0.572   1.334  0.3894  0.9421 -1.0517
 8316TIP3    H246440   2.936   0.598   1.276  0.3455  1.9605 -0.5186
 8317TIP3   OH246441   1.847   1.423   1.671  0.0809 -0.2906  0.0695
 8317TIP3    H146442   1.940   1.438   1.650  0.4130  0.3155  1.7891
 8317TIP3    H246443   1.804   1.505   1.647  0.3925  0.2584  1.3161
 8318TIP3   OH246444   0.703   4.609  10.365 -0.2768 -0.0584 -0.4180
 8318TIP3    H146445   0.611   4.606  10.340 -0.4702  0.6429  0.2083
 8318TIP3    H246446   0.704   4.650  10.451  0.5558 -0.7699 -0.0693
 8319TIP3   OH246447   0.363   6.264  12.286  0.4794 -0.2176 -0.0128
 8319TIP3    H146448   0.375   6.191  12.347  1.6119 -1.3189 -1.4941
 8319TIP3    H246449   0.285   6.240  12.236  1.1409 -0.6797 -0.8388
 8320TIP3   OH246450   1.578   0.627   3.778  0.2073 -0.3278  0.4183
 8320TIP3    H146451   1.542   0.695   3.836 -0.0883 -0.5715  0.5264
 8320TIP3    H246452   1.552   0.654   3.690  2.2055  1.0202  0.1743
 8321TIP3   OH246453   1.214   3.112   3.829 -0.0888  0.2270 -0.1572
 8321TIP3    H146454   1.266   3.182   3.789 -0.5761  0.8446  0.2524
 8321TIP3    H246455   1.202   3.141   3.920 -1.2283  0.1620 -0.2714
 8322TIP3   OH246456   3.450   0.162  10.911 -1.1900  0.5704 -0.0901
 8322TIP3    H146457   3.525   0.124  10.864 -0.5031 -0.2174  1.5454
 8322TIP3    H246458   3.472   0.255  10.920  1.0997 -0.0900  2.8477
 8323TIP3   OH246459   1.694   5.311   2.271 -0.3975 -0.3498  0.0013
 8323TIP3    H146460   1.681   5.367   2.194 -0.4776  0.0070  0.2763
 8323TIP3    H246461   1.733   5.231   2.235 -0.4689 -0.1988 -0.4171
 8324TIP3   OH246462   5.835   0.151  14.402 -0.6788  0.7960 -0.1085
 8324TIP3    H146463   5.793   0.082  14.453  0.3154  0.5280  0.3844
 8324TIP3    H246464   5.763   0.197  14.359 -1.3342 -1.0916 -1.1634
 8325TIP3   OH246465   2.126   3.220   3.767 -0.4614 -0.0477  0.0700
 8325TIP3    H146466   2.163   3.261   3.689 -0.3806 -1.5015 -0.6921
 8325TIP3    H246467   2.101   3.132   3.739  0.0027 -0.7789  1.7892
 8326TIP3   OH246468   3.667   3.081   1.846  0.0684 -0.0503  0.2392
 8326TIP3    H146469   3.645   3.056   1.756  0.7952  0.3081 -0.0458
 8326TIP3    H246470   3.641   3.173   1.852  0.4200  0.0510  0.2535
 8327TIP3   OH246471   0.282   4.681  12.119  0.2433  0.3400  0.4260
 8327TIP3    H146472   0.230   4.735  12.179 -0.3814 -0.2332  0.4081
 8327TIP3    H246473   0.367   4.673  12.162  0.3314  1.2761  0.4631
 8328TIP3   OH246474   3.765   5.814  14.018  0.1481 -0.5635 -0.0575
 8328TIP3    H146475   3.674   5.808  13.990 -0.6834 -1.2574  2.5185
 8328TIP3    H246476   3.768   5.892  14.075  0.3808 -2.1049  2.1867
 8329TIP3   OH246477   5.652   6.336  12.596 -0.4196  0.1472 -0.3530
 8329TIP3    H146478   5.590   6.391  12.643  0.5239 -0.0245  1.1684
 8329TIP3    H246479   5.643   6.249  12.636  0.9258  0.1700  0.0391
 8330TIP3   OH246480   0.675   4.726   2.335 -0.2682 -0.2986  0.6791
 8330TIP3    H146481   0.660   4.811   2.378 -0.5187  0.5204 -0.9564
 8330TIP3    H246482   0.619   4.728   2.258  0.3599 -1.6213  0.1614
 8331TIP3   OH246483   2.405   5.340  15.481 -0.4760  0.2092 -0.3160
 8331TIP3    H146484   2.348   5.323  15.406  0.2685  0.1218 -0.8759
 8331TIP3    H246485   2.490   5.303  15.456 -0.1456  0.4114  0.4651
 8332TIP3   OH246486   3.075   4.050  15.959  0.0099 -0.5694  0.2053
 8332TIP3    H146487   3.019   4.006  16.024  0.5982 -1.6301  0.0264
 8332TIP3    H246488   3.014   4.092  15.899 -0.6062 -1.7662 -0.0275
 8333TIP3   OH246489   1.556   4.764  15.304 -0.1930 -0.0372  0.9159
 8333TIP3    H146490   1.514   4.827  15.362 -1.5633  1.5735 -1.6562
 8333TIP3    H246491   1.488   4.699  15.287 -1.1932  1.5733 -1.7854
 8334TIP3   OH246492   1.939   5.444  11.175 -0.3885  0.0308 -0.0634
 8334TIP3    H146493   1.926   5.357  11.137 -0.1802  0.4232 -1.0647
 8334TIP3    H246494   1.904   5.436  11.264  0.1622 -1.2356  0.0689
 8335TIP3   OH246495   4.110   5.122   5.962 -0.5367  0.3818 -0.2229
 8335TIP3    H146496   4.091   5.210   5.930 -0.3167  0.2724 -0.6660
 8335TIP3    H246497   4.199   5.127   5.995  0.5836 -0.3481 -2.8691
 8336TIP3   OH246498   2.533   0.404  13.426 -0.2283  0.0388 -0.4262
 8336TIP3    H146499   2.484   0.323  13.411 -0.4179  0.3746 -1.7545
 8336TIP3    H246500   2.586   0.386  13.504 -0.5972 -1.2044 -0.4426
 8337TIP3   OH246501   0.845   0.008  11.393  0.8605  0.2874  0.0202
 8337TIP3    H146502   0.775  -0.042  11.434  0.7221  1.6682  1.6228
 8337TIP3    H246503   0.846   0.091  11.441  0.0657  2.5113 -3.4267
 8338TIP3   OH246504   3.106   5.548   3.915  0.5470  0.4210 -0.4439
 8338TIP3    H146505   3.173   5.484   3.893  0.4020  0.0298  0.2509
 8338TIP3    H246506   3.098   5.602   3.836  1.2670  0.1158 -0.7324
 8339TIP3   OH246507   1.957   6.416   0.885 -0.4612 -0.0809  0.0439
 8339TIP3    H146508   2.002   6.499   0.869  1.2044 -0.8409  0.5859
 8339TIP3    H246509   1.938   6.382   0.797 -1.9228  1.2363 -0.1862
 8340TIP3   OH246510   6.084   6.215   0.448  0.0356  0.1169  0.0834
 8340TIP3    H146511   6.068   6.147   0.383  0.8076 -0.2123  0.2322
 8340TIP3    H246512   6.001   6.263   0.453 -0.2546 -0.2943 -0.6219
 8341TIP3   OH246513   1.421   3.095  13.780  0.1067 -0.4311  0.4346
 8341TIP3    H146514   1.348   3.122  13.723  1.7172  1.0219 -1.0441
 8341TIP3    H246515   1.419   3.156  13.853  0.7858  0.6619 -0.4310
 8342TIP3   OH246516   4.339   6.813   0.662  0.1105  0.2199 -0.1538
 8342TIP3    H146517   4.373   6.732   0.702 -2.8298 -2.5129 -2.6128
 8342TIP3    H246518   4.248   6.818   0.690  0.4632  3.4877  0.8400
 8343TIP3   OH246519   4.511   1.790   1.097  0.0065 -0.0370 -0.5359
 8343TIP3    H146520   4.454   1.723   1.058 -1.2789  0.7509 -0.0855
 8343TIP3    H246521   4.545   1.839   1.022 -1.2263  0.5094 -0.7525
 8344TIP3   OH246522   6.331   5.430  11.587 -0.0982  0.4437  0.7885
 8344TIP3    H146523   6.320   5.428  11.492  1.0563 -1.1560  0.6511
 8344TIP3    H246524   6.253   5.388  11.622  0.2563 -0.5287  0.4410
 8345TIP3   OH246525   2.865   2.678   3.613 -0.2233  0.0718 -0.5424
 8345TIP3    H146526   2.801   2.616   3.580 -0.1123  0.3162 -1.2311
 8345TIP3    H246527   2.825   2.764   3.599 -0.3481  0.1675  0.3400
 8346TIP3   OH246528   2.002   0.865  14.572  0.0443 -0.7797  0.0073
 8346TIP3    H146529   1.950   0.807  14.626  0.2829 -0.4430  0.6022
 8346TIP3    H246530   2.010   0.945  14.623 -2.4892  0.8046 -1.8702
 8347TIP3   OH246531   2.802   6.596  11.942 -0.2555 -0.0587  0.4488
 8347TIP3    H146532   2.783   6.657  11.871 -1.3496  0.8003  1.4401
 8347TIP3    H246533   2.884   6.628  11.980  0.6017 -0.8060 -0.6760
 8348TIP3   OH246534   6.447   6.667   4.380 -0.3640  0.2430 -0.5940
 8348TIP3    H146535   6.468   6.606   4.309 -0.6637  0.5251 -0.9320
 8348TIP3    H246536   6.351   6.666   4.383 -0.3931  1.1155 -0.9750
 8349TIP3   OH246537   0.008   5.283  12.941 -0.1179  0.6293  0.0138
 8349TIP3    H146538  -0.033   5.246  12.863  0.8369  0.4584 -0.4207
 8349TIP3    H246539   0.045   5.207  12.987  1.0069  0.9221 -0.3788
 8350TIP3   OH246540   0.288   3.693  15.148  0.2909  0.8014 -0.4416
 8350TIP3    H146541   0.208   3.674  15.198  0.0279  1.3571 -0.6470
 8350TIP3    H246542   0.352   3.718  15.214 -0.0089  1.3828 -0.3688
 8351TIP3   OH246543   2.474   0.294   2.356  0.7271 -0.3876  0.0132
 8351TIP3    H146544   2.469   0.341   2.439  0.7713 -1.3888  0.5894
 8351TIP3    H246545   2.452   0.204   2.377 -2.0838 -0.1907 -1.5125
 8352TIP3   OH246546   3.611   3.462   6.683 -0.0410  0.2513 -0.4312
 8352TIP3    H146547   3.564   3.446   6.601 -0.6749  0.3474 -0.0911
 8352TIP3    H246548   3.629   3.375   6.718 -0.6231  0.2267 -0.1924
 8353TIP3   OH246549   5.625   2.485  13.751 -0.1886 -0.1335  0.5082
 8353TIP3    H146550   5.594   2.516  13.835  0.1906  0.2020  0.5235
 8353TIP3    H246551   5.593   2.549  13.688 -0.5411 -0.4263  0.3832
 8354TIP3   OH246552   0.085   3.520  14.882 -0.0866 -0.0634 -0.4153
 8354TIP3    H146553   0.063   3.473  14.963 -2.0118  0.9641 -0.2721
 8354TIP3    H246554   0.066   3.612  14.902  1.9091  0.5731 -1.2440
 8355TIP3   OH246555   3.086   2.009   5.054  0.8600  0.6715  0.5767
 8355TIP3    H146556   3.105   2.076   5.120  0.4419  1.2766  0.0961
 8355TIP3    H246557   3.110   1.927   5.096 -0.1981  0.9554  1.8126
 8356TIP3   OH246558   5.978   5.744  16.952  0.3862 -0.0183 -0.0297
 8356TIP3    H146559   5.949   5.654  16.938 -0.6980  0.1169  1.1559
 8356TIP3    H246560   6.066   5.735  16.990  0.2798 -0.5623  0.0912
 8357TIP3   OH246561   2.955   0.441   5.041 -0.0114  0.2758  0.2908
 8357TIP3    H146562   3.024   0.409   4.984 -1.1093  0.7264 -1.3447
 8357TIP3    H246563   2.929   0.525   5.004 -1.6515 -0.0231  0.6598
 8358TIP3   OH246564   6.312   3.863  14.469 -0.5999 -0.5336  0.4316
 8358TIP3    H146565   6.299   3.943  14.519  0.9406 -0.0243  0.0906
 8358TIP3    H246566   6.383   3.884  14.408 -1.2076 -1.6836 -0.7355
 8359TIP3   OH246567   1.133   1.841   6.831  0.8909  0.0492  0.2857
 8359TIP3    H146568   1.115   1.935   6.842 -2.0087 -0.5465  1.4477
 8359TIP3    H246569   1.092   1.819   6.747  2.0501 -0.1249 -0.2570
 8360TIP3   OH246570   1.571   2.479   0.681  0.2369  0.5666  0.2995
 8360TIP3    H146571   1.507   2.457   0.614 -1.1502 -0.0818  1.7709
 8360TIP3    H246572   1.523   2.471   0.764  2.4378 -0.9024  1.5519
 8361TIP3   OH246573   5.284   1.134  12.558 -0.4499 -0.3772 -0.3319
 8361TIP3    H146574   5.213   1.185  12.597  1.0879  1.5512  0.0675
 8361TIP3    H246575   5.350   1.199  12.533  2.6310 -2.2419  2.2349
 8362TIP3   OH246576   0.311   0.212  12.353  0.0661  0.1838 -0.1372
 8362TIP3    H146577   0.301   0.210  12.448  2.8248 -1.6416  0.2264
 8362TIP3    H246578   0.242   0.155  12.320  0.4364 -0.9849  0.9997
 8363TIP3   OH246579   3.737   6.757   0.685  0.0032  0.4316 -0.0457
 8363TIP3    H146580   3.675   6.693   0.649  0.0662  0.2810  0.1112
 8363TIP3    H246581   3.681   6.823   0.726 -0.0404 -0.2589  1.0369
 8364TIP3   OH246582   3.486   2.932  16.626  0.4046 -0.1311 -0.2616
 8364TIP3    H146583   3.574   2.963  16.645  0.1504  1.7467 -1.8465
 8364TIP3    H246584   3.432   2.967  16.696  0.9107 -1.5945  0.9242
 8365TIP3   OH246585   1.121   1.370   3.809 -0.2784 -0.4060 -0.1918
 8365TIP3    H146586   1.190   1.437   3.812  0.3231 -0.9670 -1.1762
 8365TIP3    H246587   1.156   1.298   3.862 -0.4052 -0.4193 -0.1273
 8366TIP3   OH246588   5.574   3.973   3.132 -0.2604 -0.5286  0.0163
 8366TIP3    H146589   5.513   3.913   3.087 -1.5017  0.5661  0.1633
 8366TIP3    H246590   5.594   3.929   3.215 -0.9112 -0.8825 -0.0051
 8367TIP3   OH246591   6.094   6.099   1.900  0.1594 -0.0620 -0.3769
 8367TIP3    H146592   6.004   6.131   1.887  0.0686 -0.4611 -0.7670
 8367TIP3    H246593   6.129   6.154   1.971  0.1250  1.1150 -1.2341
 8368TIP3   OH246594   6.112   4.436  13.467 -0.2621  0.0208  0.0822
 8368TIP3    H146595   6.052   4.439  13.392  0.8104 -1.1455 -0.8771
 8368TIP3    H246596   6.067   4.485  13.535 -1.3017  1.0956 -1.3038
 8369TIP3   OH246597   2.026   5.047   1.157 -0.3935 -0.1512  0.4842
 8369TIP3    H146598   1.982   5.126   1.190  0.0754 -0.1043  1.0019
 8369TIP3    H246599   2.083   5.020   1.228  0.3473 -0.2777 -0.1450
 8370TIP3   OH246600   0.665   4.858   4.663 -0.2839 -0.5048  0.1516
 8370TIP3    H146601   0.713   4.793   4.612  0.3245  0.2297 -0.2363
 8370TIP3    H246602   0.574   4.832   4.657  0.0572 -2.0316  1.0312
 8371TIP3   OH246603   1.569   1.884   1.561  0.6284  0.0363 -0.9502
 8371TIP3    H146604   1.568   1.967   1.608 -1.5925  0.3642 -1.4750
 8371TIP3    H246605   1.607   1.905   1.475  3.1785 -0.2356  0.0326
 8372TIP3   OH246606   4.464   4.669  11.327 -0.1759  0.8029  0.4197
 8372TIP3    H146607   4.398   4.662  11.396 -0.4612 -0.9438  0.0260
 8372TIP3    H246608   4.415   4.656  11.246  0.6952 -1.1893  0.1553
 8373TIP3   OH246609   2.714   0.250  14.234 -0.0618  0.1034  0.7037
 8373TIP3    H146610   2.734   0.281  14.145  1.7773 -1.9202  0.3449
 8373TIP3    H246611   2.670   0.166  14.221  0.8247 -0.5396  1.6834
 8374TIP3   OH246612   6.244   6.623  14.752 -0.2795  0.5976  0.0862
 8374TIP3    H146613   6.219   6.532  14.740  1.9722 -0.1841  0.7584
 8374TIP3    H246614   6.230   6.664  14.667 -0.9712 -0.4486 -0.3159
 8375TIP3   OH246615   1.460   4.517  14.079  0.1193 -0.1523  0.4582
 8375TIP3    H146616   1.402   4.589  14.105  0.7268  0.4317  0.2132
 8375TIP3    H246617   1.527   4.558  14.024  0.6306 -0.8564  0.5372
 8376TIP3   OH246618   0.967   3.069   5.836  0.4671  0.3426 -0.2722
 8376TIP3    H146619   0.999   3.119   5.911  1.6424  0.3591 -0.7524
 8376TIP3    H246620   0.895   3.016   5.872  0.1831  1.2608  0.5683
 8377TIP3   OH246621   1.129   6.116   6.184 -0.3521 -0.3738  0.1906
 8377TIP3    H146622   1.055   6.177   6.186 -1.0949 -1.2300  2.3307
 8377TIP3    H246623   1.192   6.153   6.246  0.4701 -0.3292 -0.6506
 8378TIP3   OH246624   6.189   5.360  12.054 -0.3873 -0.6644  0.0380
 8378TIP3    H146625   6.199   5.436  11.998 -0.3719 -1.5965 -1.2631
 8378TIP3    H246626   6.162   5.289  11.995  0.2661 -1.8298  1.0768
 8379TIP3   OH246627   3.007   3.816   3.964  0.4748 -0.0366 -0.2874
 8379TIP3    H146628   3.012   3.819   4.059 -0.0280 -2.3404 -0.1245
 8379TIP3    H246629   3.051   3.734   3.940  0.2047  0.2786 -1.9892
 8380TIP3   OH246630   3.470   1.863  12.588 -0.6257  0.3128  0.5109
 8380TIP3    H146631   3.401   1.921  12.619 -0.8624  0.4232 -0.2060
 8380TIP3    H246632   3.551   1.905  12.617 -0.8542  0.2331  1.2674
 8381TIP3   OH246633   1.208   5.763  12.549  0.6967 -0.2325 -0.0755
 8381TIP3    H146634   1.160   5.682  12.565  0.8249  0.0290  1.8202
 8381TIP3    H246635   1.151   5.832  12.582  0.6901  0.4574 -1.4600
 8382TIP3   OH246636   6.502   2.833  14.879 -0.3848  0.7949 -0.6987
 8382TIP3    H146637   6.549   2.864  14.955 -0.0451 -1.3197  0.0089
 8382TIP3    H246638   6.564   2.840  14.807  0.0551  0.6906 -0.3295
 8383TIP3   OH246639   4.875   2.733   4.380  0.2839 -0.0277  0.4455
 8383TIP3    H146640   4.920   2.653   4.406  3.5237  1.5085  0.0630
 8383TIP3    H246641   4.896   2.796   4.449 -1.2334  0.8534  0.1685
 8384TIP3   OH246642   5.517   1.773   4.204 -0.2973  0.2902  0.3280
 8384TIP3    H146643   5.485   1.683   4.210 -1.8014  0.7968  0.2486
 8384TIP3    H246644   5.547   1.782   4.113  2.2545 -0.8543  0.9684
 8385TIP3   OH246645   4.380   1.600   0.935  0.6652  0.1183 -0.1056
 8385TIP3    H146646   4.462   1.553   0.946  1.2541  0.2321 -3.0283
 8385TIP3    H246647   4.312   1.534   0.944  1.1789 -0.3297  0.5392
 8386TIP3   OH246648   0.797   3.027   3.243 -0.1858 -0.5144  0.9108
 8386TIP3    H146649   0.796   3.115   3.206 -0.9898 -1.0130 -0.3074
 8386TIP3    H246650   0.705   3.007   3.259 -0.4063 -2.3493 -1.9261
 8387TIP3   OH246651   3.057   1.119  12.093  0.0743 -0.4847 -0.0435
 8387TIP3    H146652   3.101   1.171  12.161  2.2669 -1.4906 -0.6140
 8387TIP3    H246653   3.112   1.129  12.016 -0.7091 -1.8282 -0.8066
 8388TIP3   OH246654   4.094   1.587  11.602  0.6121 -0.2468  0.1907
 8388TIP3    H146655   4.080   1.573  11.696 -1.9636 -0.8838 -0.2117
 8388TIP3    H246656   4.043   1.518  11.560 -0.3610  1.5099 -1.6870
 8389TIP3   OH246657   6.629   3.693   0.279 -0.2470  0.1005 -0.2215
 8389TIP3    H146658   6.707   3.746   0.293  0.2765 -0.2432 -1.6465
 8389TIP3    H246659   6.640   3.617   0.335  0.7138 -0.2100 -0.8191
 8390TIP3   OH246660   4.853   5.448  12.820  0.2467 -0.0455 -0.2173
 8390TIP3    H146661   4.767   5.414  12.844 -0.0184  0.1966 -0.8205
 8390TIP3    H246662   4.898   5.373  12.780  1.1033 -0.7858  1.9502
 8391TIP3   OH246663   3.981   6.303  12.696  0.0760 -0.3195  0.1147
 8391TIP3    H146664   3.885   6.303  12.691 -0.1028 -1.2061  2.1553
 8391TIP3    H246665   4.001   6.368  12.763  0.6054 -2.2953  2.0329
 8392TIP3   OH246666   0.632   2.708   3.606 -0.1093  0.1014 -0.3079
 8392TIP3    H146667   0.672   2.626   3.634 -1.1496 -0.1444  0.5444
 8392TIP3    H246668   0.578   2.684   3.531  0.8095  0.3151 -1.0539
 8393TIP3   OH246669   4.039   3.538   4.200 -0.0085  0.6544 -0.5316
 8393TIP3    H146670   3.963   3.562   4.147 -0.3332  1.7552  0.3733
 8393TIP3    H246671   4.024   3.583   4.283 -0.3809 -2.3204  1.1669
 8394TIP3   OH246672   0.311   0.442   3.383  0.9865 -0.1345 -0.4348
 8394TIP3    H146673   0.349   0.357   3.362  3.1399  0.4033  0.9463
 8394TIP3    H246674   0.386   0.501   3.393 -0.3008  1.4108  0.8009
 8395TIP3   OH246675   6.797   1.358  12.354  0.3338 -0.0045 -0.8513
 8395TIP3    H146676   6.777   1.452  12.353  1.8240  0.3766  0.4663
 8395TIP3    H246677   6.837   1.341  12.269 -0.9867  0.2714 -1.5580
 8396TIP3   OH246678   4.003   4.383   1.965  0.5992 -0.6223  0.0381
 8396TIP3    H146679   3.967   4.469   1.949  2.4260  0.3923  1.0174
 8396TIP3    H246680   3.958   4.326   1.903 -0.5288  1.0443 -0.7426
 8397TIP3   OH246681   4.260   3.804  16.381 -0.3508 -0.0501  0.5806
 8397TIP3    H146682   4.308   3.722  16.381 -0.5190 -0.1512  1.0740
 8397TIP3    H246683   4.192   3.792  16.315  0.5177  0.2279 -0.3779
 8398TIP3   OH246684   0.574   0.773  15.774 -0.2633  0.0433 -0.3347
 8398TIP3    H146685   0.551   0.761  15.682 -0.5261 -1.0227 -0.1431
 8398TIP3    H246686   0.640   0.706  15.791 -0.5104 -0.0361  0.3579
 8399TIP3   OH246687   0.660   6.532   5.154 -0.5425 -0.1340  0.3020
 8399TIP3    H146688   0.696   6.480   5.225  2.4549 -0.8287 -1.5517
 8399TIP3    H246689   0.665   6.475   5.077 -0.8521  1.5674 -1.0571
 8400TIP3   OH246690   5.443   0.760  11.966 -0.4264 -0.1852  0.0331
 8400TIP3    H146691   5.454   0.836  12.022 -0.7824 -0.5911  0.6671
 8400TIP3    H246692   5.348   0.746  11.963 -0.4961  0.4055 -1.4623
 8401TIP3   OH246693   2.002   6.245   1.112 -0.0721  0.4695  0.4971
 8401TIP3    H146694   1.915   6.230   1.149  0.6626  0.7997  2.4983
 8401TIP3    H246695   1.987   6.305   1.040 -1.6075 -0.2349  0.1828
 8402TIP3   OH246696   0.477   3.749  13.350  0.7088 -0.3276 -0.7039
 8402TIP3    H146697   0.519   3.719  13.269  0.7178 -1.6297 -0.2312
 8402TIP3    H246698   0.384   3.749  13.330  0.6279 -1.6705 -0.4095
 8403TIP3   OH246699   5.232   2.502   3.007  0.1684 -0.4342  0.8197
 8403TIP3    H146700   5.142   2.530   3.023 -0.4322 -0.8973 -1.3831
 8403TIP3    H246701   5.285   2.556   3.065 -1.5031 -0.0262  2.0383
 8404TIP3   OH246702   0.453   0.435  11.986 -0.5274  0.2461  0.1003
 8404TIP3    H146703   0.451   0.486  11.905 -0.8380  1.2432  0.7118
 8404TIP3    H246704   0.364   0.402  11.996 -0.6539  0.6499  0.3467
 8405TIP3   OH246705   6.149   6.758  14.998 -0.0486  0.4519  0.2435
 8405TIP3    H146706   6.210   6.827  15.021  0.0766  0.3440  0.2325
 8405TIP3    H246707   6.188   6.714  14.922  0.2186 -0.0798  0.6789
 8406TIP3   OH246708   2.494   4.889  14.688  0.0353 -0.0244 -0.3945
 8406TIP3    H146709   2.492   4.978  14.724  1.8132  0.7708 -2.0773
 8406TIP3    H246710   2.442   4.895  14.608 -0.7195 -0.8105  0.0163
 8407TIP3   OH246711   3.125   1.486   2.906  0.1199 -0.1748  0.4334
 8407TIP3    H146712   3.117   1.391   2.893 -1.7039  0.1289 -0.9935
 8407TIP3    H246713   3.184   1.515   2.836 -3.1656  0.3071 -2.4207
 8408TIP3   OH246714   0.961   0.653   5.499  0.7355 -0.0147 -0.0635
 8408TIP3    H146715   0.918   0.573   5.529 -0.7836  1.0032  0.6117
 8408TIP3    H246716   0.969   0.643   5.405  1.8952 -1.5585  0.1590
 8409TIP3   OH246717   2.823   5.898  16.963 -0.3585 -0.0301 -0.1253
 8409TIP3    H146718   2.747   5.926  16.913 -0.5665  0.0860  0.2605
 8409TIP3    H246719   2.815   5.942  17.047  0.2191  0.1096 -0.1408
 8410TIP3   OH246720   5.189   2.562  15.660  0.2194  0.7599  0.0847
 8410TIP3    H146721   5.140   2.493  15.616  0.7366  0.1763  0.4169
 8410TIP3    H246722   5.279   2.553  15.627  0.3256  1.1803  0.2466
 8411TIP3   OH246723   0.239   2.382   1.660  0.0119  0.1976 -0.0685
 8411TIP3    H146724   0.201   2.457   1.705  0.7672 -0.1755  1.2412
 8411TIP3    H246725   0.171   2.315   1.664  0.0894  0.1503  0.5954
 8412TIP3   OH246726   0.215   6.637   4.906  0.5615 -0.4098  0.0290
 8412TIP3    H146727   0.242   6.718   4.950  0.0249  0.3780 -1.0287
 8412TIP3    H246728   0.119   6.638   4.910  0.5619 -1.1920  0.3398
 8413TIP3   OH246729   3.619   6.286   5.209 -0.0100  0.1182 -0.1176
 8413TIP3    H146730   3.684   6.314   5.273  0.5450 -2.6836  0.6375
 8413TIP3    H246731   3.556   6.234   5.259 -1.1003  0.1706 -1.3867
 8414TIP3   OH246732   0.918   6.024   4.232  0.0609 -0.8047  0.0043
 8414TIP3    H146733   0.916   6.072   4.148  0.6526 -1.6809 -0.5263
 8414TIP3    H246734   1.008   5.991   4.238  1.0491  1.9396  2.5718
 8415TIP3   OH246735   4.194   1.402   5.873  0.1030  0.0835  0.1660
 8415TIP3    H146736   4.238   1.323   5.842  0.2482  0.4077 -0.4612
 8415TIP3    H246737   4.260   1.448   5.925  0.5547  0.6211 -0.8583
 8416TIP3   OH246738   0.088   3.207   0.866 -0.2710 -0.2499 -0.2718
 8416TIP3    H146739   0.034   3.178   0.939  0.0949 -0.9759 -0.2848
 8416TIP3    H246740   0.138   3.130   0.841  1.7186  0.7187  0.5427
 8417TIP3   OH246741   0.260   6.213   2.027  0.0843 -0.0838  0.4933
 8417TIP3    H146742   0.340   6.162   2.042 -0.8177 -2.1697 -1.2833
 8417TIP3    H246743   0.190   6.160   2.067 -0.7867  0.0733 -0.7527
 8418TIP3   OH246744   5.383   2.601  11.897 -0.2399 -0.2211  0.0900
 8418TIP3    H146745   5.301   2.608  11.946  0.3185 -1.1936  1.2116
 8418TIP3    H246746   5.448   2.575  11.963  0.8691  0.0384 -0.8740
 8419TIP3   OH246747   3.890   3.888  16.762  0.0249 -0.2135  0.8455
 8419TIP3    H146748   3.884   3.955  16.831  0.6316 -0.7678  1.4515
 8419TIP3    H246749   3.932   3.814  16.805  1.8757 -0.0207 -0.5114
 8420TIP3   OH246750   2.415   3.851   5.408  0.7004  0.7070 -0.2927
 8420TIP3    H146751   2.430   3.865   5.314  0.9845  0.9209 -0.2149
 8420TIP3    H246752   2.501   3.859   5.448  0.6451  0.1868 -0.0615
 8421TIP3   OH246753   6.151   6.680  13.990 -0.1757  0.6091  0.6174
 8421TIP3    H146754   6.135   6.683  13.896 -1.6022  1.1675  0.8573
 8421TIP3    H246755   6.124   6.592  14.016  1.2760  0.0547  0.3559
 8422TIP3   OH246756   0.697   4.098   2.135 -0.2198  0.5480 -0.3680
 8422TIP3    H146757   0.660   4.182   2.107 -0.1883  1.2670  1.5895
 8422TIP3    H246758   0.661   4.084   2.223 -0.4393 -1.6434 -0.7422
 8423TIP3   OH246759   4.447   4.903   3.551  0.5702 -0.6912  0.7981
 8423TIP3    H146760   4.518   4.899   3.488 -0.8526  1.9323 -1.1609
 8423TIP3    H246761   4.469   4.976   3.609 -1.1441  1.2224 -0.8204
 8424TIP3   OH246762   6.462   0.441   4.760 -0.2909 -0.1148 -0.2140
 8424TIP3    H146763   6.375   0.421   4.725 -0.2610 -0.7745  0.0688
 8424TIP3    H246764   6.444   0.485   4.843 -0.4211 -2.7416  1.2760
 8425TIP3   OH246765   1.964   2.109   3.554  0.6485  0.2556  0.9825
 8425TIP3    H146766   1.920   2.044   3.499  0.7962  1.6251 -0.8541
 8425TIP3    H246767   2.042   2.134   3.504  0.0304  2.6298  1.0515
 8426TIP3   OH246768   4.484   4.007   6.009 -0.2062  0.0533 -0.6965
 8426TIP3    H146769   4.541   4.072   6.050  1.2856 -1.0020 -0.9919
 8426TIP3    H246770   4.517   4.000   5.919  0.4880 -1.9334 -0.3475
 8427TIP3   OH246771   1.142   1.194   4.955 -0.1302  0.7345 -0.1615
 8427TIP3    H146772   1.080   1.140   5.003  1.9962 -0.6869  1.1798
 8427TIP3    H246773   1.201   1.228   5.022  1.8668  0.1780 -1.5380
 8428TIP3   OH246774   4.594   5.342  12.828  0.4145 -0.3266 -1.0456
 8428TIP3    H146775   4.580   5.319  12.919  2.1054 -0.4731 -0.7922
 8428TIP3    H246776   4.511   5.323  12.785 -0.3353 -0.4450  0.4183
 8429TIP3   OH246777   0.457   3.295   6.479  0.5135  0.1526  0.2689
 8429TIP3    H146778   0.403   3.293   6.401 -0.4137  3.1526  0.7147
 8429TIP3    H246779   0.519   3.366   6.464 -0.3266  1.5085  2.5595
 8430TIP3   OH246780   1.940   2.279   5.490 -0.2734  0.0665  0.2450
 8430TIP3    H146781   1.903   2.348   5.436  1.1566  1.1519  0.5871
 8430TIP3    H246782   1.936   2.201   5.435 -2.3702  0.2784  0.0368
 8431TIP3   OH246783   4.760   6.106   5.794 -0.5986  0.2300 -0.0502
 8431TIP3    H146784   4.702   6.069   5.861  0.6882 -0.5074  0.6933
 8431TIP3    H246785   4.838   6.134   5.842  0.3260 -0.2472 -1.2169
 8432TIP3   OH246786   5.210   6.435   2.952  0.7052 -0.1937  0.3567
 8432TIP3    H146787   5.185   6.485   2.875  0.7103 -0.2435  0.3221
 8432TIP3    H246788   5.127   6.411   2.994  0.6687 -0.8382 -0.0653
 8433TIP3   OH246789   0.288   6.654   2.843  0.3243 -0.0376  0.0472
 8433TIP3    H146790   0.381   6.665   2.823  0.0919 -0.5806 -1.4340
 8433TIP3    H246791   0.268   6.724   2.905  1.5919  0.4021 -0.0206
 8434TIP3   OH246792   1.417   5.907  13.342 -0.0002 -0.2296  0.0332
 8434TIP3    H146793   1.422   5.958  13.260 -1.5353 -0.8348 -0.4664
 8434TIP3    H246794   1.459   5.963  13.407  2.7517 -0.3984 -1.4514
 8435TIP3   OH246795   1.221   1.719   1.009 -0.4620  0.0187  0.6072
 8435TIP3    H146796   1.156   1.657   1.044 -1.3956  0.8139  0.3154
 8435TIP3    H246797   1.187   1.742   0.922  0.6010 -0.1106  0.1404
 8436TIP3   OH246798   6.774   4.687  12.337  0.2237 -0.1212 -0.6383
 8436TIP3    H146799   6.834   4.619  12.365 -0.0105 -0.6026 -1.3010
 8436TIP3    H246800   6.824   4.769  12.346  0.8200 -0.4712 -0.7610
 8437TIP3   OH246801   5.870   2.074  15.144  0.0773 -0.4478  0.1661
 8437TIP3    H146802   5.898   2.027  15.065  0.4484  0.4571 -0.2532
 8437TIP3    H246803   5.952   2.106  15.182 -0.2111  0.3310  0.1387
 8438TIP3   OH246804   1.413   5.948   3.164 -0.2853 -0.0602 -0.1607
 8438TIP3    H146805   1.418   5.954   3.069 -0.8219  0.7059 -0.1555
 8438TIP3    H246806   1.381   6.034   3.191 -0.8805 -0.5253  0.6541
 8439TIP3   OH246807   1.230   0.174  13.891  0.1227 -0.2651  0.3889
 8439TIP3    H146808   1.138   0.150  13.896  0.3545 -1.0129  1.8428
 8439TIP3    H246809   1.230   0.269  13.878 -0.8326 -0.4424 -1.0268
 8440TIP3   OH246810   0.524   6.821   4.950 -0.4399 -0.0153 -0.0315
 8440TIP3    H146811   0.569   6.905   4.940 -1.4991  0.5888  0.1488
 8440TIP3    H246812   0.485   6.804   4.865 -0.2101 -0.3446 -0.0733
 8441TIP3   OH246813   4.214   4.375   0.457 -0.4081 -0.3014 -0.5493
 8441TIP3    H146814   4.268   4.300   0.483  0.8057  0.4032 -0.9445
 8441TIP3    H246815   4.125   4.350   0.481  0.1008 -1.4605  0.2316
 8442TIP3   OH246816   0.934   0.056  14.458 -0.1365 -0.5369 -0.1843
 8442TIP3    H146817   0.894   0.141  14.439 -0.4165 -0.8680 -1.1623
 8442TIP3    H246818   0.896  -0.003  14.393 -0.8803 -1.6913  1.2415
 8443TIP3   OH246819   4.730   4.857  12.071 -0.2252 -0.2907 -0.1485
 8443TIP3    H146820   4.670   4.851  11.996 -0.4036  2.4766 -0.3422
 8443TIP3    H246821   4.674   4.885  12.144  0.4819  0.4781  0.1227
 8444TIP3   OH246822   4.062   4.871  11.287  0.4109  0.0523  0.1412
 8444TIP3    H146823   4.118   4.929  11.235  0.2057  0.4166  0.3214
 8444TIP3    H246824   3.974   4.884  11.250  0.3625 -0.1429  0.1856
 8445TIP3   OH246825   4.815   6.402  14.359 -0.8559 -0.0531  0.0464
 8445TIP3    H146826   4.811   6.426  14.452  0.8311  1.5760 -0.2455
 8445TIP3    H246827   4.759   6.325  14.352  0.2949 -1.2980  2.7735
 8446TIP3   OH246828   6.657   4.344  12.378 -0.3795 -0.4747 -0.1088
 8446TIP3    H146829   6.567   4.316  12.361  0.4276 -4.0666  0.6466
 8446TIP3    H246830   6.683   4.295  12.456  1.9576  1.2410  0.3123
 8447TIP3   OH246831   2.697   4.856  13.539  0.0062 -0.1778 -0.4086
 8447TIP3    H146832   2.777   4.815  13.572 -0.3668 -0.8284 -0.2920
 8447TIP3    H246833   2.647   4.875  13.618  0.2597  0.6879 -0.4516
 8448TIP3   OH246834   3.603   4.239  11.850 -0.2530  0.1523  0.4953
 8448TIP3    H146835   3.672   4.174  11.834 -0.7364 -0.3034  0.2601
 8448TIP3    H246836   3.582   4.274  11.763  0.5474  1.1990  0.6928
 8449TIP3   OH246837   2.118   2.325   0.439  0.2969 -0.0198 -0.5398
 8449TIP3    H146838   2.088   2.329   0.348  0.7419  0.6142 -0.6643
 8449TIP3    H246839   2.044   2.286   0.486 -0.7645  1.5600 -0.8299
 8450TIP3   OH246840   0.235   1.767  15.583 -0.1809 -0.1176 -0.0248
 8450TIP3    H146841   0.257   1.739  15.672  0.9883 -1.0118 -0.5568
 8450TIP3    H246842   0.174   1.839  15.595 -2.2329 -1.9501  1.4513
 8451TIP3   OH246843   2.939   3.396   4.227 -0.1386  0.5429 -0.6759
 8451TIP3    H146844   2.959   3.311   4.187 -1.1304  1.2341 -2.7438
 8451TIP3    H246845   2.853   3.419   4.192 -0.1641  2.1316  0.3429
 8452TIP3   OH246846   3.501   1.830   2.730 -0.5192 -0.1952 -0.4159
 8452TIP3    H146847   3.411   1.798   2.736 -0.2677 -0.6841  1.5696
 8452TIP3    H246848   3.523   1.856   2.820  1.8109 -1.4753 -0.5365
 8453TIP3   OH246849   4.792   5.001   4.665  0.6754  0.1529  0.3953
 8453TIP3    H146850   4.699   4.977   4.663  0.9794 -1.0465 -0.3796
 8453TIP3    H246851   4.802   5.052   4.746 -0.5399 -0.1995  0.7914
 8454TIP3   OH246852   1.818   2.430   3.448 -0.0173 -0.2432 -0.0061
 8454TIP3    H146853   1.883   2.500   3.451 -0.7432  0.4354  0.2042
 8454TIP3    H246854   1.806   2.404   3.540 -0.2961 -0.1364 -0.0140
 8455TIP3   OH246855   6.376   2.654   5.296  0.1787  0.0467 -0.4155
 8455TIP3    H146856   6.286   2.650   5.328  0.4072 -0.4855  0.1936
 8455TIP3    H246857   6.421   2.584   5.344  1.2787  1.2737  0.4127
 8456TIP3   OH246858   1.548   5.127  13.125  0.2776  0.0941  0.4211
 8456TIP3    H146859   1.629   5.100  13.169 -0.2938 -1.1820  0.7411
 8456TIP3    H246860   1.540   5.066  13.051 -0.2602  0.3828  0.2401
 8457TIP3   OH246861   1.858   5.290   3.361 -0.0815  0.0333 -0.2885
 8457TIP3    H146862   1.926   5.290   3.294  1.7618  1.5646  1.4843
 8457TIP3    H246863   1.900   5.252   3.438 -1.5134  0.2065  0.6156
 8458TIP3   OH246864   4.133   0.992  15.592 -0.3936 -0.5926  0.1313
 8458TIP3    H146865   4.184   0.932  15.538  1.5895  2.3724 -1.6101
 8458TIP3    H246866   4.176   0.990  15.678  1.7957  0.6110 -0.8437
 8459TIP3   OH246867   6.626   4.430  12.689  0.3800 -0.4571  0.3630
 8459TIP3    H146868   6.644   4.347  12.645 -0.7049 -0.6345  0.2362
 8459TIP3    H246869   6.531   4.431  12.701 -0.1029  2.0630 -2.3401
 8460TIP3   OH246870   5.148   3.054  14.868  0.0464 -0.2679 -0.0118
 8460TIP3    H146871   5.177   3.019  14.952  0.1600  2.3339  1.1317
 8460TIP3    H246872   5.203   3.131  14.853 -1.0699  0.2811 -1.6518
 8461TIP3   OH246873   3.939   2.927   2.942 -0.0626 -0.0547  0.0678
 8461TIP3    H146874   3.892   2.846   2.921 -0.7763  0.5215 -0.6565
 8461TIP3    H246875   3.952   2.969   2.857  1.5711 -0.0714  0.2744
 8462TIP3   OH246876   5.943   6.227  15.274  0.0635 -0.6169  0.5672
 8462TIP3    H146877   5.905   6.211  15.361 -0.5735 -1.0721  0.2118
 8462TIP3    H246878   5.913   6.314  15.250 -0.8695 -1.0092  0.2474
 8463TIP3   OH246879   4.198   3.780  14.351 -0.5892 -0.2815 -0.0567
 8463TIP3    H146880   4.125   3.720  14.363 -3.2290  2.9084  1.5297
 8463TIP3    H246881   4.257   3.762  14.425 -0.8745 -1.4574 -0.1062
 8464TIP3   OH246882   2.247   1.505  10.601 -0.2416  0.6331 -0.4003
 8464TIP3    H146883   2.310   1.574  10.579 -0.3678  0.7347 -0.4496
 8464TIP3    H246884   2.288   1.424  10.570  0.7204  0.4315  1.2798
 8465TIP3   OH246885   3.887   1.577  16.616  0.1619  0.4699 -0.3757
 8465TIP3    H146886   3.819   1.587  16.683  1.1694  0.9222  0.6054
 8465TIP3    H246887   3.839   1.582  16.533 -1.5549 -2.9422  0.2191
 8466TIP3   OH246888   2.001   5.637  17.021 -0.5229 -0.2867 -0.0559
 8466TIP3    H146889   2.028   5.632  17.113 -0.1626  0.3759 -0.1179
 8466TIP3    H246890   2.061   5.701  16.982 -2.0543  1.0669 -0.2590
 8467TIP3   OH246891   4.844   2.133   4.424  0.2716 -0.6574  0.1852
 8467TIP3    H146892   4.846   2.093   4.337  0.7539  2.3767 -1.3608
 8467TIP3    H246893   4.891   2.072   4.480  1.5354 -1.8971 -2.0895
 8468TIP3   OH246894   0.886   6.433   2.440 -0.1753  0.8261 -0.2391
 8468TIP3    H146895   0.866   6.506   2.499 -2.0187  0.1234  0.0779
 8468TIP3    H246896   0.905   6.359   2.499  4.0128  1.4485 -0.4787
 8469TIP3   OH246897   3.506   1.210  13.216  0.1201  0.7305  0.8842
 8469TIP3    H146898   3.550   1.229  13.300  0.4802 -0.7440  1.0533
 8469TIP3    H246899   3.478   1.119  13.224  1.0358  0.2496 -0.9847
 8470TIP3   OH246900   6.818   3.987   6.200 -0.1759  0.1568 -0.0495
 8470TIP3    H146901   6.880   3.953   6.136  0.0867  1.4980 -0.5334
 8470TIP3    H246902   6.745   4.021   6.147  0.0703  1.3247  0.3381
 8471TIP3   OH246903   2.411   3.137   5.447  0.0527 -0.0554  0.5194
 8471TIP3    H146904   2.333   3.123   5.501  0.5674 -0.5247  1.1669
 8471TIP3    H246905   2.457   3.053   5.449 -0.2777 -0.3141 -1.2786
 8472TIP3   OH246906   2.641   3.669   4.195 -0.2661 -0.7616  0.1596
 8472TIP3    H146907   2.594   3.748   4.170  1.4635  0.6946  1.2614
 8472TIP3    H246908   2.692   3.646   4.117  0.8122  0.4672  0.4702
 8473TIP3   OH246909   2.263   1.351  12.488 -0.0096 -0.0045 -0.5703
 8473TIP3    H146910   2.170   1.332  12.497 -0.0282 -0.5803 -1.7783
 8473TIP3    H246911   2.300   1.331  12.573 -1.1428  1.2505  0.2595
 8474TIP3   OH246912   2.180   2.919   0.589  0.0784 -0.2953 -0.6652
 8474TIP3    H146913   2.204   3.011   0.595 -1.3126  0.1672 -1.6096
 8474TIP3    H246914   2.262   2.871   0.602  0.5144  0.9706  2.0867
 8475TIP3   OH246915   2.007   2.913   4.731 -0.6695  0.4205  0.0837
 8475TIP3    H146916   2.098   2.940   4.746 -0.2054  1.3590 -3.4792
 8475TIP3    H246917   2.010   2.818   4.732  0.2605  0.4437  0.5253
 8476TIP3   OH246918   5.986   0.930   1.185 -0.6480 -0.0110  0.6970
 8476TIP3    H146919   5.932   0.945   1.107 -1.1774 -0.2173  1.0125
 8476TIP3    H246920   5.922   0.915   1.255 -0.2131  1.2377  1.4042
 8477TIP3   OH246921   2.968   4.923   2.488  0.5265 -0.2133 -0.1320
 8477TIP3    H146922   2.955   4.840   2.534 -0.8138 -0.1656 -0.3611
 8477TIP3    H246923   2.880   4.961   2.483  1.0994  1.1803 -0.1127
 8478TIP3   OH246924   2.698   4.747  15.806 -0.0686  0.2234  0.2398
 8478TIP3    H146925   2.710   4.831  15.849 -1.7355  0.5749  0.0850
 8478TIP3    H246926   2.706   4.766  15.712  0.0253  0.1163  0.2251
 8479TIP3   OH246927   4.087   4.082   2.297  1.1399 -0.0709 -0.2675
 8479TIP3    H146928   4.114   4.171   2.318  0.1284  0.4853 -1.1983
 8479TIP3    H246929   4.035   4.054   2.372  0.0608  0.7681 -0.6712
 8480TIP3   OH246930   5.359   5.080   1.931  0.0327  0.1567 -0.3047
 8480TIP3    H146931   5.384   5.061   2.021 -2.6746  0.1497  0.5271
 8480TIP3    H246932   5.311   5.163   1.936 -2.1786 -0.9758 -1.2970
 8481TIP3   OH246933   5.842   1.512   6.274  0.5420  0.3121 -0.3024
 8481TIP3    H146934   5.824   1.518   6.180  0.5178  1.9819 -0.2316
 8481TIP3    H246935   5.936   1.528   6.281  0.5794 -0.0176 -0.0623
 8482TIP3   OH246936   6.159   1.888   4.114  0.2496 -0.2252  0.5920
 8482TIP3    H146937   6.208   1.867   4.194 -2.0501  0.2097  2.2309
 8482TIP3    H246938   6.124   1.804   4.085  0.1804 -0.2404  0.7147
 8483TIP3   OH246939   5.356   1.893   0.973 -0.1333  0.0711 -0.5174
 8483TIP3    H146940   5.451   1.889   0.979 -0.1256  0.3241 -0.4737
 8483TIP3    H246941   5.326   1.810   1.011  0.1063 -0.4300 -1.4040
 8484TIP3   OH246942   5.516   1.664  12.832  0.2219 -0.2894  0.3057
 8484TIP3    H146943   5.469   1.745  12.813 -1.3053 -1.2798 -0.3922
 8484TIP3    H246944   5.544   1.632  12.746  2.3919  0.3577  0.7173
 8485TIP3   OH246945   0.530   3.979   1.253  0.0619 -0.1567 -0.2814
 8485TIP3    H146946   0.495   3.913   1.313 -0.1838  0.0085 -0.2429
 8485TIP3    H246947   0.617   3.946   1.230  0.5771  0.2840  0.9616
 8486TIP3   OH246948   6.034   0.102   5.652  0.1813  0.0895 -0.1818
 8486TIP3    H146949   6.122   0.139   5.655 -0.0566  0.6136  1.9739
 8486TIP3    H246950   5.976   0.178   5.656 -0.3321 -0.3418  1.0249
 8487TIP3   OH246951   3.998   2.346  15.419 -0.9656  0.6162  0.4376
 8487TIP3    H146952   3.985   2.400  15.496  1.6253 -0.3651  1.6557
 8487TIP3    H246953   4.050   2.400  15.360 -0.2510  0.2380  0.7216
 8488TIP3   OH246954   6.412   4.886   6.335 -0.6540  0.3877  0.1173
 8488TIP3    H146955   6.459   4.965   6.360  1.0338  0.9222 -3.8588
 8488TIP3    H246956   6.448   4.817   6.391  2.5258  1.4248 -0.4487
 8489TIP3   OH246957   4.447   4.890  12.414  0.0029 -0.3426 -0.4983
 8489TIP3    H146958   4.493   4.971  12.439 -0.5104 -0.0586 -0.4663
 8489TIP3    H246959   4.390   4.916  12.342  0.5613 -0.8962 -1.1544
 8490TIP3   OH246960   6.406   2.892   4.674 -0.1938 -0.0166  0.0632
 8490TIP3    H146961   6.395   2.951   4.748  0.6710  1.0043 -0.6075
 8490TIP3    H246962   6.376   2.942   4.599  1.4579 -0.0608 -0.6546
 8491TIP3   OH246963   1.174   4.132  16.548 -0.0657 -0.5768  0.0947
 8491TIP3    H146964   1.234   4.096  16.482  0.9360 -0.2084  0.7679
 8491TIP3    H246965   1.206   4.221  16.564  0.9552 -1.2631  2.4318
 8492TIP3   OH246966   4.935   3.739   6.407  0.0331 -0.0276  0.3000
 8492TIP3    H146967   5.004   3.789   6.451 -0.4905  0.5503  0.4811
 8492TIP3    H246968   4.965   3.649   6.411  1.2215  0.3090 -0.4351
 8493TIP3   OH246969   4.659   4.732  16.812  0.2851 -0.0744 -0.0550
 8493TIP3    H146970   4.645   4.816  16.854  2.5112  0.4699 -0.2922
 8493TIP3    H246971   4.739   4.743  16.760  0.9640 -2.4816  0.3392
 8494TIP3   OH246972   4.092   0.323   5.735  0.8175 -0.1451 -0.3471
 8494TIP3    H146973   4.146   0.300   5.810  0.3193 -0.8327 -0.1920
 8494TIP3    H246974   4.137   0.398   5.695  0.2815  1.2799  1.5593
 8495TIP3   OH246975   4.076   5.674  10.728  0.1811  0.1454 -0.0745
 8495TIP3    H146976   4.105   5.585  10.709  0.4992  0.1167  0.5199
 8495TIP3    H246977   4.150   5.714  10.772 -0.0751  0.6080 -0.0622
 8496TIP3   OH246978   6.550   3.722   2.402 -0.0777  0.7835 -0.1109
 8496TIP3    H146979   6.542   3.673   2.320  1.7238 -0.7342  0.5728
 8496TIP3    H246980   6.642   3.748   2.405 -0.7346  3.3346  0.0947
 8497TIP3   OH246981   2.822   3.292  15.610 -0.2487  0.2789  0.4550
 8497TIP3    H146982   2.774   3.233  15.552  2.2500 -0.6519 -0.7770
 8497TIP3    H246983   2.897   3.321  15.558  0.6787  1.4858  2.3650
 8498TIP3   OH246984   0.367   6.125   4.079 -0.2863  0.7426  0.1117
 8498TIP3    H146985   0.392   6.209   4.040  2.6563 -0.0386  0.0641
 8498TIP3    H246986   0.442   6.100   4.132 -1.7100 -1.1638  1.3605
 8499TIP3   OH246987   1.102   2.360   5.923  0.1516 -0.6236  0.3577
 8499TIP3    H146988   1.032   2.296   5.915 -1.3540  0.6895  2.0292
 8499TIP3    H246989   1.174   2.313   5.966 -0.0253 -1.7567 -0.5559
 8500TIP3   OH246990   3.865   5.198  12.033  0.3164  0.0295  0.3517
 8500TIP3    H146991   3.888   5.288  12.009  2.0205 -0.3921  0.2641
 8500TIP3    H246992   3.775   5.187  12.004  0.5191  1.2876 -0.8316
 8501TIP3   OH246993   3.638   0.778  13.386  0.1700  0.3419  0.6069
 8501TIP3    H146994   3.594   0.699  13.418  0.6150  0.2228  0.9303
 8501TIP3    H246995   3.585   0.806  13.311  1.2740 -1.5575 -0.9793
 8502TIP3   OH246996   2.779   4.970  15.945  0.1453  0.0449 -0.4244
 8502TIP3    H146997   2.747   5.052  15.910 -0.1513  0.0410 -0.1726
 8502TIP3    H246998   2.863   4.992  15.987 -0.3179  0.3803  0.3480
 8503TIP3   OH246999   0.770   4.075   1.006  0.7592 -0.4921  0.4318
 8503TIP3    H147000   0.719   4.154   1.020 -0.7693 -1.7526  2.3479
 8503TIP3    H247001   0.811   4.056   1.090  0.7916 -1.9312  0.1348
 8504TIP3   OH247002   5.707   6.340  12.890 -0.2732 -0.0756  0.5645
 8504TIP3    H147003   5.741   6.418  12.845 -0.3978  0.4514  1.3752
 8504TIP3    H247004   5.759   6.268  12.853 -0.1169  0.3885 -0.1534
 8505TIP3   OH247005   2.085   4.817   6.744  0.4885  0.5841  0.8572
 8505TIP3    H147006   2.031   4.840   6.668 -0.8701  0.3606  1.7247
 8505TIP3    H247007   2.120   4.900   6.775  1.9734  0.5698 -0.6463
 8506TIP3   OH247008   2.421   2.133  16.128  1.0453  0.1190  0.2093
 8506TIP3    H147009   2.410   2.134  16.033  0.1842  1.3277  0.2865
 8506TIP3    H247010   2.426   2.226  16.152 -0.5217 -0.0858  1.5129
 8507TIP3   OH247011   5.801   0.280  16.888  0.6445 -0.0978 -0.3856
 8507TIP3    H147012   5.813   0.358  16.834 -1.0961  0.8068  0.4311
 8507TIP3    H247013   5.707   0.262  16.883  0.5723 -0.4995  1.6048
 8508TIP3   OH247014   1.701   4.940  13.533  0.1677  0.2980  0.2557
 8508TIP3    H147015   1.659   4.854  13.528  1.9251 -0.7499  2.2962
 8508TIP3    H247016   1.667   4.979  13.614  2.2631 -0.1592  1.4182
 8509TIP3   OH247017   4.676   2.161   2.302 -0.2984 -0.5332  0.2135
 8509TIP3    H147018   4.694   2.171   2.208  1.4009 -0.5776  0.5083
 8509TIP3    H247019   4.652   2.250   2.330 -1.2345 -0.5971 -0.3164
 8510TIP3   OH247020   4.969   6.818  14.846 -0.5815  0.0115  0.0428
 8510TIP3    H147021   4.977   6.885  14.913  0.4681 -0.3420  0.2963
 8510TIP3    H247022   5.055   6.818  14.802 -1.1131 -0.0381 -1.0339
 8511TIP3   OH247023   5.036   3.104  14.008 -0.0034 -0.4436 -0.2327
 8511TIP3    H147024   4.954   3.085  13.963 -0.1061  0.2850 -0.3724
 8511TIP3    H247025   5.028   3.061  14.093 -1.3332  1.1856  0.5104
 8512TIP3   OH247026   4.830   5.740  15.743 -0.1585 -0.5742 -0.8108
 8512TIP3    H147027   4.824   5.772  15.653  0.4187 -2.1434 -1.4396
 8512TIP3    H247028   4.914   5.772  15.775  0.7012 -1.8796 -1.6467
 8513TIP3   OH247029   3.566   0.816   3.199 -0.4122 -0.1623  0.2929
 8513TIP3    H147030   3.504   0.811   3.126  0.3486 -0.5615 -0.3427
 8513TIP3    H247031   3.517   0.784   3.274 -1.3826  0.7688  0.0865
 8514TIP3   OH247032   3.525   5.228   4.663  0.1229 -0.4527  0.3109
 8514TIP3    H147033   3.563   5.141   4.652  1.7777  0.3386 -0.5563
 8514TIP3    H247034   3.439   5.211   4.703  0.3766 -2.4664  0.1370
 8515TIP3   OH247035   4.199   3.631   0.075 -1.0056 -0.3447 -0.4628
 8515TIP3    H147036   4.293   3.631   0.090 -1.2841  1.6004  1.9343
 8515TIP3    H247037   4.186   3.569   0.003  2.1078 -0.3910 -1.1280
 8516TIP3   OH247038   3.783   6.384  12.174 -0.4829 -0.1234 -0.1093
 8516TIP3    H147039   3.862   6.431  12.200 -0.8788  0.1892  0.5454
 8516TIP3    H247040   3.785   6.303  12.225 -0.7017 -0.0141  0.0709
 8517TIP3   OH247041   3.239   0.821  15.301  0.6399  0.2515  0.5056
 8517TIP3    H147042   3.228   0.880  15.227  0.9780  0.4606  0.6204
 8517TIP3    H247043   3.330   0.792  15.294  0.9607  1.0129  1.3822
 8518TIP3   OH247044   5.536   4.235   5.878 -0.1352 -0.2568 -0.4578
 8518TIP3    H147045   5.502   4.316   5.916 -0.1254  0.6505 -2.2996
 8518TIP3    H247046   5.458   4.183   5.859 -0.1856 -0.3222 -0.0890
 8519TIP3   OH247047   2.926   1.605  13.256  0.3276  0.6037 -0.0178
 8519TIP3    H147048   2.979   1.610  13.335 -0.1934  0.2549  0.3644
 8519TIP3    H247049   2.862   1.536  13.274  0.4036  0.2905 -0.8648
 8520TIP3   OH247050   6.193   5.585   1.912  0.1725  0.0405 -0.3611
 8520TIP3    H147051   6.117   5.620   1.957  1.3696  0.8513  1.1368
 8520TIP3    H247052   6.236   5.661   1.874 -0.2813 -0.5229 -2.0938
 8521TIP3   OH247053   6.560   0.169  16.610  0.1148 -0.2761 -0.3732
 8521TIP3    H147054   6.472   0.132  16.604  0.3323 -0.8529 -0.0994
 8521TIP3    H247055   6.614   0.097  16.643  0.1082  0.9911  2.7015
 8522TIP3   OH247056   1.924   1.602  15.908 -0.7506 -0.7377  0.4669
 8522TIP3    H147057   1.993   1.604  15.974 -0.4922 -0.0061  0.1850
 8522TIP3    H247058   1.869   1.678  15.928 -0.3364 -0.1657 -0.4982
 8523TIP3   OH247059   3.988   1.159  11.832 -0.2640  0.3680 -0.5816
 8523TIP3    H147060   4.043   1.171  11.754 -1.7346  0.9986 -1.5673
 8523TIP3    H247061   3.901   1.188  11.805 -1.0348 -0.3035  1.0255
 8524TIP3   OH247062   6.127   0.498   1.586 -0.8358  1.2910  0.4581
 8524TIP3    H147063   6.171   0.493   1.671  0.5603  1.4779 -0.2179
 8524TIP3    H247064   6.065   0.425   1.586  0.9197 -0.2807  0.6854
 8525TIP3   OH247065   1.952   5.109  14.556 -0.0239  0.6455 -0.3106
 8525TIP3    H147066   1.994   5.023  14.545 -0.5102  0.2903  0.5752
 8525TIP3    H247067   1.915   5.128  14.469 -0.4031 -0.3044 -0.3694
 8526TIP3   OH247068   4.543   1.204   0.682  0.4449 -0.0016  0.6319
 8526TIP3    H147069   4.471   1.155   0.642  0.4617  0.3649  0.1381
 8526TIP3    H247070   4.593   1.139   0.731  0.7944 -0.5853 -0.4778
 8527TIP3   OH247071   4.545   6.069   3.429 -0.0633 -0.1799 -0.1285
 8527TIP3    H147072   4.559   5.975   3.435  1.5233 -0.1051 -1.6909
 8527TIP3    H247073   4.603   6.106   3.495  2.0514 -0.2058 -1.8574
 8528TIP3   OH247074   1.412   4.402   3.231  0.4604 -0.2923  0.3849
 8528TIP3    H147075   1.386   4.482   3.277  2.3280  0.1743  0.7317
 8528TIP3    H247076   1.498   4.381   3.269  1.1864 -0.9737 -1.5543
 8529TIP3   OH247077   6.119   2.939  15.111  0.3443 -0.0330  0.7017
 8529TIP3    H147078   6.163   2.987  15.181  1.1186  1.3676 -0.6924
 8529TIP3    H247079   6.176   2.863  15.097  0.5391  0.0251  1.1374
 8530TIP3   OH247080   5.507   1.286  11.453  0.3982 -0.2527  0.5184
 8530TIP3    H147081   5.498   1.202  11.498 -1.2464 -0.6156 -0.3970
 8530TIP3    H247082   5.455   1.347  11.505 -1.6851 -0.7183 -0.8773
 8531TIP3   OH247083   1.512   1.104  16.876  0.1730  0.5308  0.2271
 8531TIP3    H147084   1.433   1.144  16.839  0.7400  1.5622  0.0718
 8531TIP3    H247085   1.516   1.137  16.966  1.5517  2.2879 -0.4098
 8532TIP3   OH247086   1.548   1.922  17.113 -0.1848  0.6879  0.0300
 8532TIP3    H147087   1.628   1.973  17.099 -1.0158  1.8598 -0.6371
 8532TIP3    H247088   1.502   1.967  17.183  0.0799 -0.4405  0.9666
 8533TIP3   OH247089   3.480   4.313  12.688 -0.1445  0.2188  0.2133
 8533TIP3    H147090   3.555   4.254  12.690  0.2487  0.7290  0.7703
 8533TIP3    H247091   3.417   4.270  12.629 -0.3813 -1.3677  1.5502
 8534TIP3   OH247092   2.122   0.547  10.762 -0.6397 -0.7561  0.0927
 8534TIP3    H147093   2.161   0.462  10.744 -0.6908 -0.7559 -0.0214
 8534TIP3    H247094   2.060   0.560  10.691  0.1911 -0.1137 -0.5471
 8535TIP3   OH247095   0.023   5.455  15.971  0.1382  0.3385 -0.1872
 8535TIP3    H147096   0.011   5.537  15.924  0.5474  0.8306  0.5452
 8535TIP3    H247097   0.009   5.477  16.063 -0.7906 -0.6328 -0.0766
 8536TIP3   OH247098   4.334   2.603  16.502  0.5264 -0.1536  0.1198
 8536TIP3    H147099   4.364   2.693  16.493 -1.5357  0.7214  1.4446
 8536TIP3    H247100   4.391   2.566  16.570  0.2854  0.6930  0.8005
 8537TIP3   OH247101   4.686   5.212   5.710 -0.0599  0.0005 -0.4358
 8537TIP3    H147102   4.596   5.181   5.718  0.1826 -0.5767  0.1639
 8537TIP3    H247103   4.729   5.182   5.790 -0.2326  3.3920  1.1115
 8538TIP3   OH247104   4.946   5.263  13.341  0.3694 -0.0548  0.3892
 8538TIP3    H147105   4.879   5.313  13.389  1.9785  2.2254  0.4145
 8538TIP3    H247106   4.950   5.305  13.255  0.0534 -1.7999 -0.5202
 8539TIP3   OH247107   5.186   1.199  16.064 -0.5649 -1.0000  0.4159
 8539TIP3    H147108   5.245   1.140  16.018  0.3485  1.9160 -2.4959
 8539TIP3    H247109   5.241   1.273  16.090 -2.2707  0.1995  0.7877
 8540TIP3   OH247110   6.001   6.400   2.238  0.6136  0.0036 -0.3178
 8540TIP3    H147111   5.999   6.468   2.305  0.5809  0.8805 -1.1932
 8540TIP3    H247112   5.917   6.356   2.246  0.4888  0.3004  0.0116
 8541TIP3   OH247113   0.447   2.803   4.618 -0.1470 -0.4157  0.3917
 8541TIP3    H147114   0.423   2.783   4.709 -1.0261 -1.0142  0.0501
 8541TIP3    H247115   0.509   2.733   4.594 -1.5250 -1.5195 -0.1048
 8542TIP3   OH247116   0.497   0.984  11.949 -0.4880  0.1522  0.4555
 8542TIP3    H147117   0.469   1.070  11.919 -0.2307  0.2677  0.5471
 8542TIP3    H247118   0.593   0.989  11.953 -0.5270  0.2977  1.7382
 8543TIP3   OH247119   1.921   3.957   5.504  0.2617  0.2089 -0.3750
 8543TIP3    H147120   1.836   3.922   5.530 -0.5012  0.3122 -2.5269
 8543TIP3    H247121   1.902   4.045   5.472  1.1668  0.2239 -0.9054
 8544TIP3   OH247122   6.561   6.547   3.370 -0.2837 -0.3509 -0.5551
 8544TIP3    H147123   6.653   6.563   3.352  0.5426  0.0443  3.2244
 8544TIP3    H247124   6.521   6.535   3.284  3.0181  0.7430 -2.4000
 8545TIP3   OH247125   3.138   5.519  15.940 -0.4330 -0.8727 -0.1482
 8545TIP3    H147126   3.050   5.556  15.928 -0.7390 -1.2358  0.9065
 8545TIP3    H247127   3.137   5.482  16.028  0.3647 -2.0560 -0.6205
 8546TIP3   OH247128   5.482   3.943   0.237 -0.2908  0.0613 -0.2732
 8546TIP3    H147129   5.502   3.870   0.180  0.7496  0.0681  0.0596
 8546TIP3    H247130   5.409   3.913   0.291  1.4613 -1.5549  1.3190
 8547TIP3   OH247131   1.201   3.659  10.508 -0.6869  0.3803 -0.1956
 8547TIP3    H147132   1.232   3.586  10.454 -1.4715 -0.0832 -0.0340
 8547TIP3    H247133   1.265   3.665  10.579 -0.3613  0.1498 -0.4641
 8548TIP3   OH247134   5.211   5.571   1.134  0.0831  0.0100 -0.3355
 8548TIP3    H147135   5.167   5.656   1.139  0.5930  0.3003 -0.7298
 8548TIP3    H247136   5.293   5.589   1.088 -0.2487 -0.8652 -1.3212
 8549TIP3   OH247137   3.485   6.554   4.497 -0.4639 -0.0733 -0.0442
 8549TIP3    H147138   3.505   6.644   4.470 -0.0971 -0.4702 -1.1573
 8549TIP3    H247139   3.482   6.505   4.415 -0.5540 -1.1026  0.5635
 8550TIP3   OH247140   2.821   2.029   0.533  0.0207 -0.1809  0.2817
 8550TIP3    H147141   2.896   2.024   0.592  0.3870 -1.0251 -0.2391
 8550TIP3    H247142   2.821   1.945   0.487 -0.5027  0.3030 -0.6254
 8551TIP3   OH247143   4.390   1.502   2.127 -0.0597  0.0810  0.0712
 8551TIP3    H147144   4.308   1.497   2.078  0.1339 -2.3011 -0.1280
 8551TIP3    H247145   4.382   1.582   2.179 -3.1775 -0.8075  1.1873
 8552TIP3   OH247146   4.264   2.341  11.177  0.7952 -0.3602 -0.1131
 8552TIP3    H147147   4.290   2.380  11.094 -2.9193  1.6419 -0.5833
 8552TIP3    H247148   4.242   2.250  11.155 -1.7254  0.5477 -1.8968
 8553TIP3   OH247149   0.277   1.496  15.541 -0.8882  0.7899 -0.6669
 8553TIP3    H147150   0.331   1.478  15.464 -1.3790  0.1419 -0.8663
 8553TIP3    H247151   0.239   1.582  15.525 -0.3547  1.0077 -0.7777
 8554TIP3   OH247152   2.126   3.638  12.725 -0.3563 -0.1377 -0.0122
 8554TIP3    H147153   2.198   3.601  12.673  0.6019 -0.2325  1.3434
 8554TIP3    H247154   2.140   3.603  12.813 -1.7147  0.3473  0.4099
 8555TIP3   OH247155   1.279   5.780  15.092  0.4934 -0.3999  0.0616
 8555TIP3    H147156   1.357   5.742  15.052  1.4727  0.6822  0.8564
 8555TIP3    H247157   1.276   5.870  15.058  0.9518  0.3107  1.7615
 8556TIP3   OH247158   0.874   1.343  13.309 -0.3247 -0.4033  0.2342
 8556TIP3    H147159   0.899   1.432  13.334 -0.8448 -0.4198  0.8406
 8556TIP3    H247160   0.954   1.292  13.318 -0.2626 -0.1963  0.8668
 8557TIP3   OH247161   4.412   5.577   6.457 -0.2552 -0.1142 -0.0441
 8557TIP3    H147162   4.420   5.482   6.460 -0.8471 -0.2628 -1.7140
 8557TIP3    H247163   4.413   5.598   6.363  1.1857  1.6552  0.3131
 8558TIP3   OH247164   1.674   0.795  17.041 -0.1572  0.0854 -0.2757
 8558TIP3    H147165   1.600   0.831  17.091 -1.1915  2.4141 -3.2142
 8558TIP3    H247166   1.749   0.848  17.068  0.1117 -1.0574  1.3515
 8559TIP3   OH247167   4.393   5.559  12.333  0.1344  0.9667 -0.4451
 8559TIP3    H147168   4.374   5.653  12.334 -0.6347  0.8180  1.0792
 8559TIP3    H247169   4.313   5.518  12.365  0.1715 -0.2916 -1.8401
 8560TIP3   OH247170   0.276   2.008  16.415  0.2007 -0.2749 -0.0066
 8560TIP3    H147171   0.182   1.999  16.397  0.0123 -0.6997  1.1028
 8560TIP3    H247172   0.312   2.046  16.335 -1.0161  0.4775 -0.2317
 8561TIP3   OH247173   3.939   5.835   2.251  0.1622  0.0576 -0.1396
 8561TIP3    H147174   3.889   5.910   2.283 -0.8192 -0.6274 -0.0355
 8561TIP3    H247175   3.932   5.840   2.155 -2.2899 -1.4202 -0.1224
 8562TIP3   OH247176   5.559   6.591  13.583  0.1774  0.0955 -0.7292
 8562TIP3    H147177   5.618   6.662  13.610  0.2208 -0.8448  1.9320
 8562TIP3    H247178   5.478   6.608  13.632 -0.5396 -0.5852 -1.6543
 8563TIP3   OH247179   5.728   5.673   3.115  0.0844  0.0904 -0.3652
 8563TIP3    H147180   5.722   5.580   3.134  1.5734 -0.3911 -1.9350
 8563TIP3    H247181   5.766   5.712   3.193 -0.1288 -0.6846  0.1301
 8564TIP3   OH247182   2.058   4.859  14.523  0.2514 -0.1609  0.3791
 8564TIP3    H147183   2.066   4.784  14.582  0.3871 -0.2563  0.2388
 8564TIP3    H247184   2.148   4.883  14.502  0.2026 -0.1974  0.1232
 8565TIP3   OH247185   3.619   2.542   3.813  0.3770 -1.1093  0.6935
 8565TIP3    H147186   3.683   2.514   3.747  0.4031  1.5204 -0.5303
 8565TIP3    H247187   3.535   2.510   3.781  0.6758 -1.8295  0.6210
 8566TIP3   OH247188   6.338   0.524   3.371 -0.1021  0.2452  0.0615
 8566TIP3    H147189   6.403   0.455   3.384 -0.4681 -0.0531  0.3083
 8566TIP3    H247190   6.260   0.493   3.418  0.2062  1.5098  1.5052
 8567TIP3   OH247191   5.028   4.951  11.497  0.0319  0.1974 -0.0971
 8567TIP3    H147192   5.039   5.019  11.563  1.2813 -0.6721  0.6249
 8567TIP3    H247193   5.067   4.988  11.418 -0.6209  0.8726 -0.1183
 8568TIP3   OH247194   5.029   4.125  16.838  0.0538 -0.1814 -0.0394
 8568TIP3    H147195   5.043   4.034  16.863 -1.6717 -0.2408  0.8122
 8568TIP3    H247196   5.008   4.170  16.919 -0.7893  0.6290 -0.6836
 8569TIP3   OH247197   1.809   3.326   3.284  0.3027  0.3237 -0.0652
 8569TIP3    H147198   1.746   3.399   3.283  0.4324  0.5514  2.2964
 8569TIP3    H247199   1.895   3.369   3.278  0.3179  0.1567 -1.2214
 8570TIP3   OH247200   2.656   5.626  12.892  0.7614 -0.1820 -0.0125
 8570TIP3    H147201   2.698   5.687  12.832 -0.1972  1.5683  1.0360
 8570TIP3    H247202   2.643   5.675  12.973  0.3540 -1.9159  1.0453
 8571TIP3   OH247203   6.137   5.528   1.379 -0.5481  0.1442 -0.4429
 8571TIP3    H147204   6.203   5.490   1.321 -0.2655 -1.5068  0.8732
 8571TIP3    H247205   6.185   5.553   1.457 -0.8952  2.5045 -0.9078
 8572TIP3   OH247206   5.225   2.658   0.701 -0.2013 -0.1614 -0.1754
 8572TIP3    H147207   5.243   2.605   0.623 -1.0471  2.7558 -2.4996
 8572TIP3    H247208   5.310   2.669   0.743  0.3268 -1.5082 -0.8332
 8573TIP3   OH247209   1.667   1.493  12.098  0.8143 -0.7899 -0.1383
 8573TIP3    H147210   1.668   1.471  12.191 -0.4374 -1.0649 -0.1812
 8573TIP3    H247211   1.695   1.412  12.054 -0.5658 -1.3056 -0.1025
 8574TIP3   OH247212   1.853   1.442  13.641 -0.5256  0.4158  0.0061
 8574TIP3    H147213   1.839   1.416  13.733 -1.5829  1.0637  0.0552
 8574TIP3    H247214   1.880   1.362  13.597 -1.3606 -0.2232  0.6227
 8575TIP3   OH247215   0.136   1.503  11.365  0.5871  0.1436 -0.1528
 8575TIP3    H147216   0.202   1.565  11.397 -0.1940  0.1028  1.7075
 8575TIP3    H247217   0.158   1.420  11.408 -0.3994  0.0265  0.1561
 8576TIP3   OH247218   0.196   5.346  10.893 -0.5351  0.0640  0.2225
 8576TIP3    H147219   0.249   5.415  10.855  0.0719  0.0658  1.0434
 8576TIP3    H247220   0.117   5.390  10.924 -0.7059  0.1789 -0.3684
 8577TIP3   OH247221   0.211   2.320  12.513 -0.4507 -0.7396 -0.1472
 8577TIP3    H147222   0.241   2.249  12.456  1.2229  0.4499 -0.8330
 8577TIP3    H247223   0.212   2.283  12.601  1.9270 -1.1680 -0.2973
 8578TIP3   OH247224   0.113   2.062   4.745  0.1029 -0.4448  0.0073
 8578TIP3    H147225   0.159   2.083   4.663  0.6045 -0.8883  0.1689
 8578TIP3    H247226   0.076   2.146   4.774  0.0887 -0.2460 -0.5681
 8579TIP3   OH247227   0.872   4.432   3.317 -0.1540 -0.2072  0.1036
 8579TIP3    H147228   0.829   4.424   3.402  0.4561 -1.1391  0.3383
 8579TIP3    H247229   0.800   4.443   3.255 -0.8493 -2.7164  0.3546
 8580TIP3   OH247230   2.879   5.903   1.811  0.4319 -0.1808  0.2583
 8580TIP3    H147231   2.911   5.989   1.783  1.9902 -0.5943  0.6555
 8580TIP3    H247232   2.939   5.841   1.769 -0.3100 -1.0406  0.4604
 8581TIP3   OH247233   3.403   3.118  11.239  0.5715  0.0250 -0.3971
 8581TIP3    H147234   3.372   3.208  11.231  0.1841 -0.0092  0.6053
 8581TIP3    H247235   3.436   3.097  11.152 -0.4614  0.7100 -0.9831
 8582TIP3   OH247236   6.176   5.429  14.206 -0.7779 -0.6841 -0.2716
 8582TIP3    H147237   6.229   5.350  14.208  0.2337 -0.0229  0.8061
 8582TIP3    H247238   6.144   5.438  14.296 -0.3722  0.4435 -0.2247
 8583TIP3   OH247239   1.297   1.648  15.172  0.1841 -0.0122 -0.1583
 8583TIP3    H147240   1.263   1.680  15.255  0.5400  1.7116 -0.6532
 8583TIP3    H247241   1.388   1.678  15.169  0.8447 -1.8635 -0.2614
 8584TIP3   OH247242   4.617   1.609   2.003  0.0006 -0.1819 -0.0774
 8584TIP3    H147243   4.637   1.691   2.049  0.0717 -1.0175  1.4283
 8584TIP3    H247244   4.528   1.587   2.029  0.2271 -0.9422  0.0687
 8585TIP3   OH247245   1.717   2.241   1.777  0.0963 -0.8700  0.1050
 8585TIP3    H147246   1.661   2.291   1.718  0.1315  0.0534  0.8299
 8585TIP3    H247247   1.791   2.214   1.723 -0.7445 -1.6080 -0.7132
 8586TIP3   OH247248   1.302   6.136   1.194  0.0472 -0.1743  0.6110
 8586TIP3    H147249   1.210   6.131   1.220  0.6039  2.1809  3.5254
 8586TIP3    H247250   1.302   6.195   1.119 -0.9336 -1.5855 -0.5487
 8587TIP3   OH247251   1.853   0.287  16.710  0.4856 -0.0554  0.0281
 8587TIP3    H147252   1.894   0.359  16.662  1.0611 -0.7605 -0.5519
 8587TIP3    H247253   1.761   0.311  16.714  0.5880  0.4723 -0.5981
 8588TIP3   OH247254   4.416   5.847   2.547  0.0960 -0.5239 -0.6818
 8588TIP3    H147255   4.498   5.887   2.520 -1.2752  2.0581 -1.4232
 8588TIP3    H247256   4.377   5.813   2.466  0.1588 -1.1763 -0.4392
 8589TIP3   OH247257   0.682   4.478  14.510  0.5574 -0.6168 -0.0776
 8589TIP3    H147258   0.773   4.450  14.526  0.7745 -0.8989 -1.5960
 8589TIP3    H247259   0.633   4.396  14.509 -0.2491 -0.3096  3.3972
 8590TIP3   OH247260   4.155   6.430   0.473 -0.6669  0.5831  0.3769
 8590TIP3    H147261   4.221   6.391   0.529 -2.0279 -2.2981  0.1235
 8590TIP3    H247262   4.093   6.472   0.533 -0.7873 -0.3138  0.8935
 8591TIP3   OH247263   0.419   5.902  16.385  0.2286  0.0236  0.1442
 8591TIP3    H147264   0.445   5.898  16.293 -2.3160 -1.0258 -0.6135
 8591TIP3    H247265   0.324   5.900  16.383  0.1094 -1.4938  2.8720
 8592TIP3   OH247266   5.326   2.563   3.515  0.8918 -0.1497 -0.4604
 8592TIP3    H147267   5.290   2.506   3.583 -1.7233  1.2546 -0.5710
 8592TIP3    H247268   5.291   2.528   3.433  1.4817  0.0473 -0.8042
 8593TIP3   OH247269   2.189   6.415  11.113  0.4879  0.7502 -0.2950
 8593TIP3    H147270   2.110   6.468  11.124  1.5669  2.0620  2.1589
 8593TIP3    H247271   2.162   6.327  11.136 -0.4314  1.0430 -0.2121
 8594TIP3   OH247272   1.849   3.608   4.332  0.0057 -0.2960 -0.0294
 8594TIP3    H147273   1.760   3.586   4.360  0.0905 -0.1947  0.3365
 8594TIP3    H247274   1.902   3.535   4.363  0.5390  1.0546  2.6023
 8595TIP3   OH247275   0.033   0.188   2.788 -0.3154 -0.0042  0.4191
 8595TIP3    H147276   0.124   0.197   2.758  0.3694 -1.4473  1.8673
 8595TIP3    H247277  -0.006   0.126   2.727 -0.0440 -0.0981  0.3356
 8596TIP3   OH247278   6.224   1.715   4.804 -0.2530 -0.0970 -0.1656
 8596TIP3    H147279   6.143   1.737   4.851 -0.4941  0.4945 -0.8403
 8596TIP3    H247280   6.195   1.681   4.720  0.1907 -0.4928 -0.1604
 8597TIP3   OH247281   1.748   3.562  13.144 -0.1190 -0.0716  0.4882
 8597TIP3    H147282   1.666   3.591  13.104 -0.4341 -0.8371  0.5728
 8597TIP3    H247283   1.763   3.475  13.109  1.4025  0.5919 -0.6273
 8598TIP3   OH247284   6.199   4.354   1.772 -0.6075 -0.6257  0.7206
 8598TIP3    H147285   6.187   4.269   1.729  0.5638 -0.0027 -0.9299
 8598TIP3    H247286   6.287   4.381   1.747 -1.3212  1.5471  0.3984
 8599TIP3   OH247287   5.550   4.879  10.646 -0.2052 -0.3300  0.1381
 8599TIP3    H147288   5.576   4.789  10.666  0.8952  0.1535  1.0194
 8599TIP3    H247289   5.572   4.891  10.554  0.4357 -0.7101  0.2373
 8600TIP3   OH247290   5.551   0.133  16.135  0.6877 -0.4773  0.5384
 8600TIP3    H147291   5.627   0.191  16.124  0.7535 -0.6582 -0.0388
 8600TIP3    H247292   5.588   0.051  16.168  0.5962 -0.2037  1.3424
 8601TIP3   OH247293   0.317   0.725   4.379 -0.2501 -0.1545  0.0182
 8601TIP3    H147294   0.281   0.806   4.416 -0.0020  0.3970 -0.8913
 8601TIP3    H247295   0.256   0.703   4.308  0.7099  0.3294 -0.9956
 8602TIP3   OH247296   5.724   4.413  13.690 -0.0529  0.0079 -0.2166
 8602TIP3    H147297   5.711   4.400  13.784  1.9140 -2.8524 -0.2237
 8602TIP3    H247298   5.768   4.498  13.683 -0.7022  0.5073  1.3692
 8603TIP3   OH247299   0.657   2.936  13.847  0.3245  0.1831 -0.4013
 8603TIP3    H147300   0.713   3.001  13.806  0.6273 -0.2923 -0.7568
 8603TIP3    H247301   0.699   2.916  13.931  0.5276  0.0350 -0.5407
 8604TIP3   OH247302   0.561   2.614   2.565  0.1411  0.1811 -0.4155
 8604TIP3    H147303   0.626   2.546   2.580 -2.1042 -2.2158 -0.9286
 8604TIP3    H247304   0.514   2.586   2.487 -1.6793  1.7023  0.0504
 8605TIP3   OH247305   4.034   2.875  13.675  0.0797 -0.0606  0.0214
 8605TIP3    H147306   4.063   2.919  13.595 -0.3297  0.9369  0.4009
 8605TIP3    H247307   3.961   2.820  13.647  0.5011 -0.3984 -0.4370
 8606TIP3   OH247308   1.801   2.663   4.872  0.4108  0.6007  0.0096
 8606TIP3    H147309   1.784   2.569   4.880 -0.7896  0.5445 -2.4549
 8606TIP3    H247310   1.822   2.676   4.780  0.1352  2.8177  0.2112
 8607TIP3   OH247311   0.061   6.826  11.024  0.1256  0.1031 -0.0956
 8607TIP3    H147312   0.083   6.872  10.943 -0.1272  0.5889  0.1052
 8607TIP3    H247313   0.145   6.812  11.068  0.2117  0.3080 -0.1947
 8608TIP3   OH247314   0.232   0.106  11.652  0.0734  0.2225  0.0417
 8608TIP3    H147315   0.318   0.080  11.684  0.2098  0.4180 -0.1599
 8608TIP3    H247316   0.236   0.092  11.558 -1.0656 -2.4968  0.3134
 8609TIP3   OH247317   3.940   4.186  14.000  0.1686  0.3244 -0.0999
 8609TIP3    H147318   3.941   4.280  14.016 -3.3758  0.6561 -1.0471
 8609TIP3    H247319   3.939   4.147  14.087  0.8411  1.1664  0.3059
 8610TIP3   OH247320   6.628   2.130   4.513 -0.2693  0.4833  0.0488
 8610TIP3    H147321   6.649   2.156   4.423 -1.2730  1.3394  0.0378
 8610TIP3    H247322   6.664   2.201   4.566  0.1206  0.0911  0.3142
 8611TIP3   OH247323   6.441   2.199   3.504 -0.0981 -0.0500 -0.2510
 8611TIP3    H147324   6.368   2.219   3.445  0.2477 -1.5167 -1.2362
 8611TIP3    H247325   6.519   2.231   3.458 -0.0405  0.9444  0.5122
 8612TIP3   OH247326   3.301   0.159  16.578 -0.5706  0.9926  0.4082
 8612TIP3    H147327   3.245   0.084  16.599 -0.5482  1.3240  1.7265
 8612TIP3    H247328   3.241   0.224  16.542 -0.6203  0.4400 -0.5525
 8613TIP3   OH247329   5.443   1.790  14.115  0.3264  0.6151 -0.7859
 8613TIP3    H147330   5.427   1.873  14.070  0.1152  0.8792 -0.2340
 8613TIP3    H247331   5.518   1.752  14.070  1.0142  1.5459 -0.4574
 8614TIP3   OH247332   3.672   0.526  13.614 -0.0256  0.0672  0.6312
 8614TIP3    H147333   3.713   0.576  13.685 -0.7444 -0.2141  1.2607
 8614TIP3    H247334   3.746   0.489  13.566  0.5008  1.2354  0.5093
 8615TIP3   OH247335   6.211   4.513  15.800 -0.0892  0.1498  0.6019
 8615TIP3    H147336   6.277   4.561  15.851 -0.5689  1.6202 -0.1098
 8615TIP3    H247337   6.234   4.530  15.709 -1.2211  0.3956  0.3407
 8616TIP3   OH247338   5.317   0.734  15.632 -0.2354 -0.3433 -0.3236
 8616TIP3    H147339   5.307   0.644  15.602 -1.4183  0.1024 -1.3822
 8616TIP3    H247340   5.311   0.786  15.552 -0.0146  0.7108  0.3246
 8617TIP3   OH247341   3.128   6.321   0.131 -0.2209 -0.1259  0.0172
 8617TIP3    H147342   3.144   6.313   0.225 -0.6303 -1.5537 -0.0180
 8617TIP3    H247343   3.184   6.394   0.103 -1.3203  1.4293  1.6407
 8618TIP3   OH247344   0.443   3.796  15.348 -0.2054 -0.6155 -0.0131
 8618TIP3    H147345   0.491   3.773  15.427 -1.5353 -1.3690  0.5982
 8618TIP3    H247346   0.478   3.882  15.323  0.5869 -0.5990  1.0891
 8619TIP3   OH247347   2.273   2.280  12.356 -0.6628 -0.1626 -0.3122
 8619TIP3    H147348   2.234   2.357  12.315 -0.9957  0.5135  1.2085
 8619TIP3    H247349   2.199   2.224  12.377 -0.6274  0.0289  0.3810
 8620TIP3   OH247350   3.522   3.315   4.404  0.6551 -0.1836 -0.5251
 8620TIP3    H147351   3.597   3.355   4.360  0.4784  0.3444 -0.3565
 8620TIP3    H247352   3.448   3.370   4.379  0.3895 -0.4726 -0.3742
 8621TIP3   OH247353   1.273   4.247  15.967  0.2705  0.7412 -0.4450
 8621TIP3    H147354   1.184   4.237  15.932  0.5187  1.9656 -1.5026
 8621TIP3    H247355   1.260   4.291  16.051 -0.1480  0.4462 -0.3465
 8622TIP3   OH247356   0.441   2.584   6.489  0.2272  0.6494 -0.0450
 8622TIP3    H147357   0.513   2.641   6.515  0.1541  0.1888  1.2176
 8622TIP3    H247358   0.368   2.611   6.544  0.4126 -1.1652  1.1806
 8623TIP3   OH247359   6.672   2.833  11.449 -0.0788  0.3242 -0.4779
 8623TIP3    H147360   6.730   2.907  11.430  0.5028  0.5917  2.0253
 8623TIP3    H247361   6.602   2.869  11.503 -0.1810 -0.8015  0.1850
 8624TIP3   OH247362   4.845   0.915   2.041  0.0615  0.0323  0.4596
 8624TIP3    H147363   4.836   1.003   2.003  0.1889  0.0842  0.5473
 8624TIP3    H247364   4.779   0.862   1.996 -0.7788  0.4349  1.1821
 8625TIP3   OH247365   4.746   6.411   2.115  0.1944  0.2708 -0.0588
 8625TIP3    H147366   4.684   6.415   2.188  0.9636 -0.1791  0.6333
 8625TIP3    H247367   4.772   6.502   2.100 -0.2377  0.4026 -0.0119
 8626TIP3   OH247368   5.620   1.537   5.231  0.2534  0.4858  0.4739
 8626TIP3    H147369   5.685   1.606   5.230 -0.4853  1.1933  0.3446
 8626TIP3    H247370   5.652   1.474   5.296  2.3827 -0.4990 -1.3631
 8627TIP3   OH247371   5.242   0.606   3.910  0.3633 -0.3461 -0.4139
 8627TIP3    H147372   5.267   0.517   3.888 -1.5092 -0.4641 -2.3764
 8627TIP3    H247373   5.150   0.600   3.937 -0.5308  1.1984 -2.7998
 8628TIP3   OH247374   3.318   0.203   4.392 -0.4376 -0.1076 -0.0392
 8628TIP3    H147375   3.255   0.181   4.461 -0.5632 -0.1457 -0.1641
 8628TIP3    H247376   3.398   0.227   4.438 -0.1707 -1.2008  0.1100
 8629TIP3   OH247377   1.561   2.159  12.993 -0.3450  0.1452  0.0606
 8629TIP3    H147378   1.545   2.174  12.899  0.3589 -0.5694 -0.1871
 8629TIP3    H247379   1.589   2.068  12.998 -1.5165 -0.1858  1.1327
 8630TIP3   OH247380   6.320   6.789  10.605 -0.0799 -0.3902 -0.3040
 8630TIP3    H147381   6.317   6.878  10.570 -1.2927 -0.6322 -0.8589
 8630TIP3    H247382   6.402   6.752  10.572 -0.1514  0.1215 -1.0624
 8631TIP3   OH247383   1.521   3.870   6.311  0.1752  0.4309  0.5552
 8631TIP3    H147384   1.440   3.825   6.291  0.0410 -0.7498  3.3408
 8631TIP3    H247385   1.497   3.963   6.315 -0.8104  0.1896  0.3568
 8632TIP3   OH247386   0.913   6.569  11.017  0.6839 -0.3851  0.0849
 8632TIP3    H147387   0.968   6.495  10.991 -0.2937 -0.7574 -0.9874
 8632TIP3    H247388   0.975   6.632  11.054  1.8618 -0.7313 -1.2038
 8633TIP3   OH247389   4.506   3.947  12.765 -0.2850  1.1487  0.1424
 8633TIP3    H147390   4.443   4.011  12.732 -1.2771  0.6156  0.9518
 8633TIP3    H247391   4.452   3.874  12.795  0.8130 -0.0599 -0.7044
 8634TIP3   OH247392   0.576   2.457  12.470  0.1026  0.5070  0.1100
 8634TIP3    H147393   0.630   2.436  12.547  0.2661 -1.5927 -0.5147
 8634TIP3    H247394   0.486   2.455  12.503  0.0937 -1.5446  0.0619
 8635TIP3   OH247395   2.914   4.078  11.875 -0.4256  0.1553  0.0760
 8635TIP3    H147396   2.898   4.172  11.874 -1.1298  0.0420  0.1892
 8635TIP3    H247397   2.882   4.049  11.961 -2.1723 -0.5018 -0.7558
 8636TIP3   OH247398   2.627   2.227   5.700 -0.2313  0.0767  0.6077
 8636TIP3    H147399   2.658   2.305   5.654  1.8538 -0.6228  0.7292
 8636TIP3    H247400   2.596   2.169   5.631 -1.8079  0.9663  0.5174
 8637TIP3   OH247401   5.127   0.106  16.116 -0.2608  0.0275  0.0541
 8637TIP3    H147402   5.094   0.045  16.182 -0.2424 -0.9827 -0.8352
 8637TIP3    H247403   5.058   0.172  16.107 -1.0772 -0.8354 -0.2003
 8638TIP3   OH247404   6.638   1.967  11.910 -0.8535 -0.3072 -0.1766
 8638TIP3    H147405   6.650   1.903  11.840 -1.4865 -1.3632  0.6439
 8638TIP3    H247406   6.544   1.970  11.925 -0.7568  0.1613  0.3941
 8639TIP3   OH247407   4.418   5.143  10.934 -0.3203 -0.3633  0.4433
 8639TIP3    H147408   4.496   5.192  10.958  0.0457 -0.6312 -0.1507
 8639TIP3    H247409   4.407   5.161  10.840  0.4723 -2.2477 -0.0729
 8640TIP3   OH247410   2.501   0.047   3.675  0.0166  0.0793 -0.2625
 8640TIP3    H147411   2.510   0.020   3.766 -0.3367  0.8955  0.0224
 8640TIP3    H247412   2.579   0.012   3.632  1.0092  1.0353  0.6858
 8641TIP3   OH247413   2.705   4.088   4.200  0.1511 -0.3885 -1.0259
 8641TIP3    H147414   2.716   4.025   4.271 -0.6039 -1.6481 -1.9918
 8641TIP3    H247415   2.739   4.043   4.123  0.2991  0.6896 -1.6070
 8642TIP3   OH247416   2.236   0.144  12.812  0.4088  0.0602 -0.4105
 8642TIP3    H147417   2.293   0.071  12.790  0.4683  0.2921 -1.0538
 8642TIP3    H247418   2.209   0.179  12.727  1.3058  1.5004 -0.1435
 8643TIP3   OH247419   0.886   4.625   0.574 -0.5502 -0.1170  0.6111
 8643TIP3    H147420   0.970   4.662   0.545 -0.6811 -2.0454 -2.7054
 8643TIP3    H247421   0.910   4.555   0.635  0.3537 -0.8457 -0.5310
 8644TIP3   OH247422   3.213   0.126   5.665 -0.5449 -0.4332  0.0487
 8644TIP3    H147423   3.168   0.175   5.596 -0.8801 -1.5428 -0.5468
 8644TIP3    H247424   3.195   0.175   5.745  1.1563  1.7876 -0.8046
 8645TIP3   OH247425   2.705   4.561   2.031 -0.5322  0.1683 -0.4353
 8645TIP3    H147426   2.709   4.568   1.936  0.2797 -0.1178 -0.4285
 8645TIP3    H247427   2.796   4.570   2.060 -0.8389  0.9191  0.3610
 8646TIP3   OH247428   1.567   3.884   2.548 -0.4020 -0.2037 -0.3803
 8646TIP3    H147429   1.629   3.854   2.482  1.1287 -0.3178  1.0445
 8646TIP3    H247430   1.510   3.809   2.563  1.4782 -1.4475  0.9478
 8647TIP3   OH247431   5.533   1.237  16.139 -0.1913  0.0079 -0.5122
 8647TIP3    H147432   5.555   1.155  16.183 -1.6670 -0.5913 -0.8382
 8647TIP3    H247433   5.570   1.229  16.051  1.1993  0.4594  0.0013
 8648TIP3   OH247434   0.461   3.562  14.937 -0.4028  0.4528  0.5720
 8648TIP3    H147435   0.420   3.498  14.879  0.2386  0.3442  0.2210
 8648TIP3    H247436   0.393   3.584  15.000 -0.9053  0.0691  0.1813
 8649TIP3   OH247437   2.643   3.008   3.339 -0.2469 -0.3845  0.3278
 8649TIP3    H147438   2.670   3.100   3.350  0.0591 -0.4716  0.3256
 8649TIP3    H247439   2.560   3.001   3.386  0.0202 -0.2477  0.8231
 8650TIP3   OH247440   6.590   0.554  11.976 -0.4495  0.0321 -0.4012
 8650TIP3    H147441   6.530   0.605  11.922  2.1883  3.9131 -0.1146
 8650TIP3    H247442   6.558   0.564  12.065  0.2108  1.6433 -0.3098
 8651TIP3   OH247443   2.762   6.045  13.090 -0.0194  0.3440  0.5130
 8651TIP3    H147444   2.751   6.108  13.162  1.2799  1.0378  0.1478
 8651TIP3    H247445   2.720   5.965  13.121 -2.2974  1.5553  0.7302
 8652TIP3   OH247446   1.195   3.213   3.448 -0.0382 -0.1138  0.1207
 8652TIP3    H147447   1.101   3.228   3.451 -0.3159 -1.4920 -0.4568
 8652TIP3    H247448   1.204   3.118   3.456  1.3120  0.0036  0.2781
 8653TIP3   OH247449   0.059   0.356  13.586 -0.0326 -0.7150  0.0566
 8653TIP3    H147450   0.046   0.412  13.662  0.4814  0.7068 -0.8724
 8653TIP3    H247451   0.109   0.281  13.621  0.3755  0.0027  1.0718
 8654TIP3   OH247452   4.614   1.358  14.245 -0.3035  0.1945 -0.4178
 8654TIP3    H147453   4.536   1.411  14.227 -0.5175  0.3500  0.8927
 8654TIP3    H247454   4.687   1.418  14.231 -0.4630  0.3543 -0.5870
 8655TIP3   OH247455   1.092   1.473   0.260 -0.4631 -0.0725 -0.2453
 8655TIP3    H147456   1.007   1.455   0.302 -0.0583  1.5751  1.3785
 8655TIP3    H247457   1.070   1.531   0.187 -0.8775 -0.9328 -0.8343
 8656TIP3   OH247458   6.233   5.937  11.435 -0.2112  0.1627 -0.0319
 8656TIP3    H147459   6.307   5.985  11.473  1.5774 -0.3339 -2.5845
 8656TIP3    H247460   6.160   5.999  11.439  0.4875  0.9591  1.8919
 8657TIP3   OH247461   4.609   2.230  11.637 -0.2196 -0.5788  0.5208
 8657TIP3    H147462   4.692   2.191  11.662  1.2328  0.0522 -2.7713
 8657TIP3    H247463   4.578   2.177  11.563 -1.0566  1.0761 -0.3858
 8658TIP3   OH247464   1.736   2.508   3.949  0.1252 -0.0863  0.4976
 8658TIP3    H147465   1.830   2.514   3.969  0.4608 -1.2340 -0.5613
 8658TIP3    H247466   1.693   2.522   4.033  1.1776  1.6072  0.8187
 8659TIP3   OH247467   1.964   0.237   0.052  0.4319  0.2267  0.1882
 8659TIP3    H147468   1.927   0.159   0.093  1.8447 -0.4467  0.2340
 8659TIP3    H247469   1.978   0.298   0.125 -0.0086  0.2552  0.2517
 8660TIP3   OH247470   1.195   0.762  13.116  0.3129  0.1654 -0.0762
 8660TIP3    H147471   1.285   0.734  13.096  0.9120  1.9065 -0.0308
 8660TIP3    H247472   1.204   0.816  13.195 -0.8547 -0.0191  0.2007
 8661TIP3   OH247473   0.108   1.486   2.895  1.1470  0.3818 -0.4298
 8661TIP3    H147474   0.045   1.557   2.882 -0.2691 -0.6573  0.4676
 8661TIP3    H247475   0.138   1.496   2.986 -1.3793 -1.8438  0.7953
 8662TIP3   OH247476   3.917   0.422   4.476  0.1972  0.1446 -0.9453
 8662TIP3    H147477   3.916   0.516   4.459  0.3428  0.0362 -1.5829
 8662TIP3    H247478   3.888   0.382   4.394  1.8671 -0.4467 -1.3002
 8663TIP3   OH247479   0.841   4.119  11.754 -0.5147 -0.0179 -0.0015
 8663TIP3    H147480   0.906   4.170  11.803 -1.3298  2.4511 -1.3396
 8663TIP3    H247481   0.892   4.074  11.686 -0.1116  1.7401 -0.9200
 8664TIP3   OH247482   0.822   2.957   1.170 -0.3749  0.0688  0.3867
 8664TIP3    H147483   0.884   2.947   1.242  0.4848  4.1493  0.4509
 8664TIP3    H247484   0.746   2.999   1.209  0.0538  2.2337 -0.9724
 8665TIP3   OH247485   3.792   1.430   3.179 -0.4139  0.2913 -0.4576
 8665TIP3    H147486   3.760   1.449   3.267  2.5970  0.3606  0.7546
 8665TIP3    H247487   3.864   1.368   3.193  0.0952  0.2398 -2.8922
 8666TIP3   OH247488   6.131   6.746   4.756 -0.3520  0.7612  0.1178
 8666TIP3    H147489   6.172   6.810   4.813  1.2115  1.8649 -2.1036
 8666TIP3    H247490   6.098   6.796   4.682 -2.0700 -0.6431 -0.1459
 8667TIP3   OH247491   3.858   5.402   4.582  0.3867  0.5119 -0.0635
 8667TIP3    H147492   3.779   5.450   4.557  0.5189  0.8261  0.1220
 8667TIP3    H247493   3.924   5.469   4.596  1.3185  0.1509 -2.3111
 8668TIP3   OH247494   3.651   1.816  13.599 -0.4411 -0.2705  0.2851
 8668TIP3    H147495   3.636   1.872  13.675  0.9818 -0.0585  0.4427
 8668TIP3    H247496   3.713   1.750  13.630 -1.1002 -1.1516 -0.2537
 8669TIP3   OH247497   6.027   4.266   2.894 -0.0840 -0.2882  0.4907
 8669TIP3    H147498   6.114   4.245   2.861  0.2345  0.5899  0.7476
 8669TIP3    H247499   5.980   4.183   2.891  0.9583 -0.9216  0.9560
 8670TIP3   OH247500   1.143   6.516  14.099 -0.3453  0.3896 -0.5639
 8670TIP3    H147501   1.225   6.530  14.147 -0.2879 -0.4553 -0.3998
 8670TIP3    H247502   1.138   6.421  14.087 -1.5856  0.3772 -0.0722
 8671TIP3   OH247503   0.500   3.523  11.778 -0.7235  0.2882  0.1010
 8671TIP3    H147504   0.555   3.472  11.718  0.6627  2.1497 -0.3184
 8671TIP3    H247505   0.495   3.470  11.857 -0.0934 -0.8796 -0.6032
 8672TIP3   OH247506   1.766   4.181   3.851 -0.7975  0.9083  0.1802
 8672TIP3    H147507   1.741   4.245   3.918  0.5618  0.4438  1.1789
 8672TIP3    H247508   1.712   4.104   3.870 -1.2649  1.1772 -0.0203
 8673TIP3   OH247509   2.133   3.837   2.852  0.0098 -0.2060  0.4299
 8673TIP3    H147510   2.188   3.865   2.779 -1.1358  0.7690 -0.1082
 8673TIP3    H247511   2.113   3.917   2.900 -1.1227 -0.4865  0.4675
 8674TIP3   OH247512   2.805   0.395   4.768  0.5987 -0.4885 -0.6932
 8674TIP3    H147513   2.881   0.382   4.824 -0.5355 -0.5298  0.9056
 8674TIP3    H247514   2.767   0.478   4.798 -0.3315 -0.7745 -1.0381
 8675TIP3   OH247515   3.521   6.336   6.013 -0.4644  0.0703 -0.9109
 8675TIP3    H147516   3.540   6.375   6.098 -2.2028 -0.2353 -0.3394
 8675TIP3    H247517   3.564   6.250   6.016  0.6358  0.6141 -0.8951
 8676TIP3   OH247518   0.037   4.029   4.237 -0.5044  0.4666 -0.1808
 8676TIP3    H147519  -0.056   4.023   4.257 -0.7282  1.1434 -0.9533
 8676TIP3    H247520   0.051   3.962   4.169 -0.3413  0.0981  0.2126
 8677TIP3   OH247521   3.386   4.734  11.386 -0.0238 -0.0293 -0.2031
 8677TIP3    H147522   3.372   4.702  11.475  1.5227  1.4220  0.6209
 8677TIP3    H247523   3.456   4.679  11.351  1.3761  1.1616  0.5715
 8678TIP3   OH247524   0.109   4.278   0.328  0.3454 -0.5205 -0.5631
 8678TIP3    H147525   0.084   4.335   0.401  3.0227  1.5395 -1.1074
 8678TIP3    H247526   0.162   4.209   0.368  0.3899 -0.3727 -0.3663
 8679TIP3   OH247527   3.529   0.076   0.779  0.7767  0.0036 -0.8236
 8679TIP3    H147528   3.516  -0.012   0.815  0.2445 -0.5489 -2.3077
 8679TIP3    H247529   3.514   0.134   0.854 -3.5624 -0.8985 -0.7308
 8680TIP3   OH247530   5.597   6.679  14.884 -0.1312 -0.0334 -0.6184
 8680TIP3    H147531   5.586   6.740  14.956 -1.4957  0.4451 -1.1990
 8680TIP3    H247532   5.511   6.675  14.842 -0.3988 -3.0865 -0.0385
 8681TIP3   OH247533   3.219   4.387  14.547  0.0810  0.4114 -0.5508
 8681TIP3    H147534   3.252   4.476  14.559  1.3495  0.1890 -2.0304
 8681TIP3    H247535   3.234   4.345  14.632 -0.8919  1.6718  0.2993
 8682TIP3   OH247536   0.936   0.490  16.838  0.4613  0.1144  0.1423
 8682TIP3    H147537   0.985   0.497  16.756 -0.1937  2.4165 -0.1189
 8682TIP3    H247538   0.848   0.520  16.816 -0.2880 -1.1369  1.2776
 8683TIP3   OH247539   2.193   4.217  12.761 -0.3528  0.9126  0.2306
 8683TIP3    H147540   2.229   4.212  12.850  0.5120 -2.7674 -0.1889
 8683TIP3    H247541   2.106   4.254  12.773 -0.6235 -0.3027  2.7832
 8684TIP3   OH247542   6.469   0.598  17.107 -0.1603 -0.3150 -0.1729
 8684TIP3    H147543   6.496   0.662  17.041  1.2806 -0.4906  0.2150
 8684TIP3    H247544   6.513   0.517  17.083  1.0311 -0.1803  1.4137
 8685TIP3   OH247545   0.077   0.282   2.206  0.6532 -0.2467  0.1398
 8685TIP3    H147546   0.043   0.322   2.286  0.2287  1.8382 -1.0280
 8685TIP3    H247547   0.019   0.207   2.191 -0.0968  0.1217  1.0660
 8686TIP3   OH247548   0.834   2.588   5.165 -0.2585 -0.5125  0.5527
 8686TIP3    H147549   0.908   2.545   5.123  1.2405  0.3936  2.1386
 8686TIP3    H247550   0.803   2.524   5.230  0.8774  0.0966  1.7298
 8687TIP3   OH247551   4.506   3.824   2.889  0.3986 -0.3591  0.0040
 8687TIP3    H147552   4.505   3.738   2.930 -0.9136  0.8721  2.8149
 8687TIP3    H247553   4.599   3.848   2.886  0.6225 -0.9863  1.2669
 8688TIP3   OH247554   0.812   3.679   2.515 -0.2272 -0.0906  0.1479
 8688TIP3    H147555   0.802   3.649   2.424  0.8046  0.9706 -0.3476
 8688TIP3    H247556   0.824   3.599   2.565 -0.6510 -0.6884 -0.6727
 8689TIP3   OH247557   6.562   4.268   2.422 -0.2856  0.2009 -0.5299
 8689TIP3    H147558   6.604   4.351   2.400 -0.5419  0.2836 -0.7072
 8689TIP3    H247559   6.605   4.241   2.503 -0.6811  0.8556 -0.0893
 8690TIP3   OH247560   0.915   0.214  15.522 -0.6947  0.5485 -0.2601
 8690TIP3    H147561   0.962   0.298  15.528 -1.7337  1.2144 -1.0958
 8690TIP3    H247562   0.876   0.202  15.608  0.4336  0.3228  0.2369
 8691TIP3   OH247563   3.035   4.372  12.750 -0.8263  0.0039  0.2032
 8691TIP3    H147564   2.942   4.349  12.751 -0.8079 -0.2297 -1.3728
 8691TIP3    H247565   3.056   4.383  12.658  0.8576 -0.4832  0.4953
 8692TIP3   OH247566   3.981   6.792  15.357 -0.0524 -0.2418  0.3240
 8692TIP3    H147567   3.991   6.700  15.335  0.4718  0.2181 -1.5716
 8692TIP3    H247568   4.071   6.825  15.362 -0.2659  0.5545 -0.8900
 8693TIP3   OH247569   4.334   4.237  11.342 -0.5317 -0.0029  0.4827
 8693TIP3    H147570   4.357   4.184  11.265  0.1072 -0.4624  0.9797
 8693TIP3    H247571   4.417   4.271  11.373 -0.4740 -1.5610  2.2185
 8694TIP3   OH247572   6.745   1.541  13.589 -0.0195  0.5615 -0.1882
 8694TIP3    H147573   6.830   1.525  13.548  0.1863  0.3978  0.2968
 8694TIP3    H247574   6.766   1.570  13.678 -0.4716  0.4475 -0.0405
 8695TIP3   OH247575   1.079   2.677  13.360 -0.0985  0.0490 -0.1306
 8695TIP3    H147576   1.121   2.761  13.343 -0.4507  0.1101 -0.7090
 8695TIP3    H247577   1.126   2.614  13.306 -0.7870  0.1301 -0.8420
 8696TIP3   OH247578   6.094   5.950   2.614 -0.0464 -0.5834 -0.4183
 8696TIP3    H147579   6.171   5.977   2.665 -1.3708  1.2578  0.7665
 8696TIP3    H247580   6.105   5.856   2.602  1.1546 -0.8183  1.9117
 8697TIP3   OH247581   2.022   2.369  12.596 -0.6893  0.0860 -0.2246
 8697TIP3    H147582   1.963   2.348  12.668  0.0839  1.0119  0.7237
 8697TIP3    H247583   2.053   2.285  12.563 -1.5665 -0.3620  0.0786
 8698TIP3   OH247584   2.320   1.920   3.989  0.2913  0.0907 -0.0861
 8698TIP3    H147585   2.386   1.989   3.983 -0.7570  1.1495 -0.0936
 8698TIP3    H247586   2.361   1.851   4.040  1.9149  0.0591 -1.3779
 8699TIP3   OH247587   6.559   3.920  14.356 -0.5097  0.0587 -1.1321
 8699TIP3    H147588   6.583   3.995  14.302  2.6814 -0.2188 -0.3127
 8699TIP3    H247589   6.592   3.844  14.307 -0.8084 -0.5043 -0.4787
 8700TIP3   OH247590   2.982   4.855  13.661 -0.1329 -0.3407  0.6607
 8700TIP3    H147591   2.927   4.932  13.649 -0.5587 -0.4743  1.6092
 8700TIP3    H247592   3.048   4.862  13.593 -0.5362  0.5299  0.3351
 8701TIP3   OH247593   5.466   1.801  15.362  0.2045 -0.2417  0.0155
 8701TIP3    H147594   5.414   1.863  15.310  0.1832  0.5510  0.9535
 8701TIP3    H247595   5.556   1.825  15.344  0.1912  0.4677  0.8262
 8702TIP3   OH247596   4.268   5.151  14.137  0.2838 -0.0265 -0.1143
 8702TIP3    H147597   4.172   5.149  14.133  0.2474  1.1360 -0.0880
 8702TIP3    H247598   4.295   5.085  14.072 -0.5346  0.8902 -1.4500
 8703TIP3   OH247599   1.722   2.899   2.418  0.5518 -0.2775  0.0740
 8703TIP3    H147600   1.793   2.878   2.357 -0.0282  0.5918 -0.9247
 8703TIP3    H247601   1.670   2.966   2.374 -0.4882 -0.3668  1.0909
 8704TIP3   OH247602   5.583   2.272  15.850 -0.1860 -0.2892  0.6289
 8704TIP3    H147603   5.623   2.190  15.881 -0.0177 -0.2512  0.5136
 8704TIP3    H247604   5.519   2.295  15.918 -1.0528 -1.1218  0.1228
 8705TIP3   OH247605   2.597   6.315   1.788 -0.4255 -0.2593  0.0691
 8705TIP3    H147606   2.527   6.323   1.852 -1.5831  0.6391 -1.2353
 8705TIP3    H247607   2.618   6.222   1.787 -2.4524 -0.7701 -0.3092
 8706TIP3   OH247608   5.863   4.285   2.290  0.3472 -0.2966  0.1173
 8706TIP3    H147609   5.950   4.245   2.301  1.1005  1.4107  0.7356
 8706TIP3    H247610   5.837   4.310   2.379 -0.6405 -0.4720 -0.1115
 8707TIP3   OH247611   2.047   2.053   5.936 -0.7739 -0.2441  0.4636
 8707TIP3    H147612   2.132   2.068   5.978 -1.1724 -0.0272  1.2096
 8707TIP3    H247613   2.068   2.002   5.857 -0.0709 -1.2020  1.2370
 8708TIP3   OH247614   4.614   3.184   0.980 -0.3338  0.4597 -0.4486
 8708TIP3    H147615   4.535   3.132   0.966  0.4371 -0.5668 -1.1494
 8708TIP3    H247616   4.625   3.188   1.075 -0.1837 -1.0388 -0.3779
 8709TIP3   OH247617   1.928   4.315  12.764 -0.3623 -0.4754  0.0891
 8709TIP3    H147618   1.894   4.296  12.676 -0.1811  0.1392 -0.1161
 8709TIP3    H247619   1.861   4.369  12.805 -0.3403 -0.5694  0.2526
 8710TIP3   OH247620   1.039   6.750   5.296 -0.0848  0.0945  0.1081
 8710TIP3    H147621   1.024   6.717   5.385 -0.6749  1.2595  0.4554
 8710TIP3    H247622   0.982   6.827   5.288  0.2400  0.2354 -1.1505
 8711TIP3   OH247623   1.671   0.566  16.373 -0.2137  0.5690 -0.0899
 8711TIP3    H147624   1.586   0.592  16.410 -0.4394  0.3093 -0.4235
 8711TIP3    H247625   1.659   0.475  16.347  0.5156  0.1667  0.8852
 8712TIP3   OH247626   5.799   1.188  11.313  0.2630 -0.1101 -1.0097
 8712TIP3    H147627   5.809   1.094  11.330 -0.4676 -0.2451 -1.2865
 8712TIP3    H247628   5.881   1.213  11.271  1.6882  0.0250  1.6620
 8713TIP3   OH247629   2.431   5.560   2.764 -0.4354 -0.5735  0.3266
 8713TIP3    H147630   2.442   5.468   2.790 -0.8550 -0.4110  1.0866
 8713TIP3    H247631   2.468   5.610   2.836 -2.4560 -0.1037  1.1022
 8714TIP3   OH247632   1.993   6.176  14.872  0.5644  0.1776 -0.0183
 8714TIP3    H147633   2.001   6.175  14.968 -0.1722  0.9363  0.0658
 8714TIP3    H247634   1.927   6.243  14.855 -0.5524 -1.1189 -0.9765
 8715TIP3   OH247635   5.298   1.489   3.280 -0.5355 -0.2696  0.1382
 8715TIP3    H147636   5.325   1.541   3.204 -0.9005 -0.3676 -0.0607
 8715TIP3    H247637   5.209   1.460   3.259 -0.2396 -1.2139  0.1209
 8716TIP3   OH247638   1.295   6.775  12.269  0.2541  0.0257  0.5757
 8716TIP3    H147639   1.285   6.694  12.319 -0.4649  0.2129  0.7565
 8716TIP3    H247640   1.244   6.759  12.189  1.7276 -0.4274 -0.3149
 8717TIP3   OH247641   6.165   2.516   2.809  0.3441 -0.6566  0.6851
 8717TIP3    H147642   6.242   2.530   2.755 -0.3376  0.5949 -0.0201
 8717TIP3    H247643   6.092   2.510   2.747 -0.6185  1.9255  1.3988
 8718TIP3   OH247644   5.852   5.728  15.218 -0.5411 -0.3595 -0.2144
 8718TIP3    H147645   5.945   5.749  15.223 -0.6210  0.0059 -0.2373
 8718TIP3    H247646   5.810   5.794  15.273 -0.8104 -0.3660 -0.4137
 8719TIP3   OH247647   0.796   5.803   1.101 -0.1657 -0.1083 -0.3220
 8719TIP3    H147648   0.827   5.743   1.034  1.4997 -0.2761  0.5325
 8719TIP3    H247649   0.779   5.885   1.054 -1.8940 -1.0086 -1.3936
 8720TIP3   OH247650   4.442   6.561  15.937 -0.2646 -0.5226  0.2367
 8720TIP3    H147651   4.511   6.627  15.926  0.9151 -1.8340 -0.6835
 8720TIP3    H247652   4.465   6.515  16.018 -0.1193 -0.8672  0.0048
 8721TIP3   OH247653   1.598   4.785   3.526  0.3788  0.5879 -0.3115
 8721TIP3    H147654   1.654   4.764   3.601  1.3333  0.2597 -1.0970
 8721TIP3    H247655   1.513   4.747   3.548  0.3886  1.2960  1.0069
 8722TIP3   OH247656   0.581   3.053  14.816 -0.3665  0.1279  0.0500
 8722TIP3    H147657   0.570   2.995  14.741  1.6023  0.9884 -1.0006
 8722TIP3    H247658   0.658   3.018  14.862 -0.4537  0.6572  0.6036
 8723TIP3   OH247659   6.106   5.440   4.878 -0.3021 -0.3833  0.2195
 8723TIP3    H147660   6.152   5.370   4.831  0.5952  1.0373 -1.1438
 8723TIP3    H247661   6.084   5.504   4.810 -2.2207  0.0977  1.2269
 8724TIP3   OH247662   5.504   6.088   3.091  1.2972  0.0523 -0.3889
 8724TIP3    H147663   5.474   6.151   3.026 -1.2510 -1.0590 -0.4380
 8724TIP3    H247664   5.511   6.005   3.043  0.2898 -0.5835  0.5140
 8725TIP3   OH247665   5.999   2.864  12.215  0.3854 -0.2188  0.8992
 8725TIP3    H147666   6.076   2.887  12.163 -0.7617  0.3086 -0.6435
 8725TIP3    H247667   5.963   2.949  12.242 -2.3370 -0.0332 -2.5300
 8726TIP3   OH247668   1.173   6.617  13.357  0.1976  0.1174 -0.2486
 8726TIP3    H147669   1.203   6.539  13.403 -2.3859 -1.2052 -0.6279
 8726TIP3    H247670   1.196   6.602  13.266  0.4398  0.2079 -0.2042
 8727TIP3   OH247671   6.661   2.591   4.886 -0.9219 -0.2842 -0.4065
 8727TIP3    H147672   6.720   2.608   4.813 -0.9179  1.1591 -0.0898
 8727TIP3    H247673   6.576   2.623   4.856 -1.1988 -0.8573 -0.2457
 8728TIP3   OH247674   4.194   6.060  16.086  0.3004 -0.1155 -0.0629
 8728TIP3    H147675   4.253   6.109  16.143  1.7941  0.6174 -2.1286
 8728TIP3    H247676   4.236   6.062  16.000 -2.0687 -0.7645 -1.3222
 8729TIP3   OH247677   1.278   1.581  12.980 -0.2688 -0.2589  0.4985
 8729TIP3    H147678   1.308   1.621  12.899 -1.4968  0.7067  0.4924
 8729TIP3    H247679   1.233   1.501  12.952 -1.4013  0.4835  0.1274
 8730TIP3   OH247680   4.060   6.482   6.766  0.1062 -0.0965 -0.0723
 8730TIP3    H147681   4.022   6.405   6.809 -1.0218  0.6953  0.4059
 8730TIP3    H247682   3.985   6.541   6.753  1.3427  2.1985  2.3090
 8731TIP3   OH247683   0.806   4.171  11.268 -0.3811  0.3917  0.6424
 8731TIP3    H147684   0.766   4.182  11.182  0.0687  1.1011  0.5160
 8731TIP3    H247685   0.745   4.212  11.329 -1.6714 -1.8013  0.9428
 8732TIP3   OH247686   6.817   1.008  13.413 -0.0598  0.3568 -0.3158
 8732TIP3    H147687   6.891   1.068  13.421 -0.0165  0.2425  0.1431
 8732TIP3    H247688   6.841   0.933  13.467 -1.2552  1.0539  1.2298
 8733TIP3   OH247689   3.773   1.468  12.473 -0.0169 -0.5314 -0.4157
 8733TIP3    H147690   3.750   1.482  12.565  0.6436  0.6114 -0.4055
 8733TIP3    H247691   3.838   1.535  12.454 -0.3610 -0.5611 -1.8127
 8734TIP3   OH247692   0.236   3.026   0.727 -0.8574  0.1150 -0.3466
 8734TIP3    H147693   0.307   2.965   0.748 -0.4708  1.3038  2.1522
 8734TIP3    H247694   0.277   3.093   0.672 -0.4122 -0.0368 -0.2076
 8735TIP3   OH247695   0.728   3.014   5.225 -0.0987  0.3542  0.7459
 8735TIP3    H147696   0.677   3.095   5.229 -0.2303  0.2237  2.0111
 8735TIP3    H247697   0.700   2.964   5.301  0.0385 -0.8634  0.0298
 8736TIP3   OH247698   3.534   6.524  12.570  0.0932  0.3188 -0.3109
 8736TIP3    H147699   3.452   6.481  12.545  0.0835 -0.3697  0.8625
 8736TIP3    H247700   3.570   6.557  12.487 -0.9930 -0.0182 -0.9342
 8737TIP3   OH247701   1.868   1.103   2.413 -0.2942 -0.4956  0.3334
 8737TIP3    H147702   1.928   1.174   2.389  0.8885 -1.3922  0.5337
 8737TIP3    H247703   1.813   1.141   2.482  1.4013 -0.2171  1.6099
 8738TIP3   OH247704   6.823   5.135   1.522 -0.3456  0.0557  0.7030
 8738TIP3    H147705   6.917   5.134   1.540  0.0392  0.4806 -1.0291
 8738TIP3    H247706   6.801   5.228   1.515 -0.2465 -0.0470 -1.7237
 8739TIP3   OH247707   4.291   1.507   4.037 -0.6590 -0.7310 -0.3748
 8739TIP3    H147708   4.247   1.433   4.079  0.9752 -0.5146  1.9051
 8739TIP3    H247709   4.361   1.467   3.985 -1.8086 -0.9177 -1.8388
 8740TIP3   OH247710   1.486   2.073  15.083  0.0956 -0.4828 -0.3360
 8740TIP3    H147711   1.400   2.072  15.124 -0.2595 -0.1187 -1.0403
 8740TIP3    H247712   1.534   2.141  15.130 -0.9674  1.3620 -1.7381
 8741TIP3   OH247713   2.210   6.110  14.466 -0.2349  0.1646 -0.1053
 8741TIP3    H147714   2.229   6.122  14.559 -1.5235 -0.1358  0.2238
 8741TIP3    H247715   2.181   6.197  14.436 -1.6356 -0.1628  0.2522
 8742TIP3   OH247716   6.806   3.595   2.001  0.0446 -0.8936  0.1835
 8742TIP3    H147717   6.895   3.619   2.028 -0.4125  0.5354  0.5054
 8742TIP3    H247718   6.800   3.626   1.910 -0.5246  0.2120  0.5767
 8743TIP3   OH247719   6.143   1.629   3.106  0.2986  0.1831  0.2484
 8743TIP3    H147720   6.204   1.660   3.039 -0.3746 -0.7595 -0.8219
 8743TIP3    H247721   6.181   1.660   3.189  2.2740 -0.4682 -0.3741
 8744TIP3   OH247722   6.398   2.355  17.068  0.2774  0.0733  0.3936
 8744TIP3    H147723   6.339   2.288  17.033 -0.8660  0.4183  1.5967
 8744TIP3    H247724   6.468   2.361  17.002 -0.4075 -1.1662 -0.5046
 8745TIP3   OH247725   3.289   6.820   4.240 -0.1540  0.1560 -0.0396
 8745TIP3    H147726   3.263   6.825   4.148  1.3499 -0.0750 -0.5179
 8745TIP3    H247727   3.304   6.912   4.265 -0.8451  0.2428  0.0717
 8746TIP3   OH247728   5.207   5.976  11.974 -0.5877 -0.1191  0.2793
 8746TIP3    H147729   5.273   6.023  12.026  1.1012 -1.9626 -0.0673
 8746TIP3    H247730   5.207   5.888  12.010 -0.4923 -1.0344 -1.8148
 8747TIP3   OH247731   6.819   0.669  11.083 -0.5112  0.0341 -0.1021
 8747TIP3    H147732   6.870   0.603  11.129 -1.0308 -1.0536 -1.0610
 8747TIP3    H247733   6.873   0.748  11.088  1.1866 -1.0122 -0.9018
 8748TIP3   OH247734   5.224   6.373   0.218 -0.2041 -0.0714  0.5035
 8748TIP3    H147735   5.291   6.410   0.275 -0.1644  0.9084 -0.1716
 8748TIP3    H247736   5.272   6.338   0.143 -0.5043  1.7760 -0.6074
 8749TIP3   OH247737   1.787   0.441   3.832 -0.3748 -0.1118  0.3843
 8749TIP3    H147738   1.721   0.510   3.824  1.4627  1.6637 -0.3585
 8749TIP3    H247739   1.763   0.393   3.912 -2.2217  0.7889  0.4108
 8750TIP3   OH247740   5.752   5.033  13.673  0.3728  0.0822  0.2381
 8750TIP3    H147741   5.783   5.053  13.762  1.0938  1.6090 -0.3133
 8750TIP3    H247742   5.800   5.094  13.617 -2.7769  1.8354 -0.8103
 8751TIP3   OH247743   6.016   3.865   2.180  0.3254 -0.4857  0.3215
 8751TIP3    H147744   6.048   3.775   2.169 -0.3525 -0.6619 -0.2735
 8751TIP3    H247745   5.925   3.855   2.209 -0.0897 -0.0016 -0.7767
 8752TIP3   OH247746   1.216   5.289   4.408  0.0793 -0.2681  0.0902
 8752TIP3    H147747   1.129   5.261   4.436 -0.0585 -0.3238 -0.3876
 8752TIP3    H247748   1.276   5.246   4.469 -0.2794  0.6001  1.0809
 8753TIP3   OH247749   1.098   1.530  14.051  0.4204  0.3985 -0.1717
 8753TIP3    H147750   1.166   1.465  14.067  0.0398 -0.1033 -0.5479
 8753TIP3    H247751   1.090   1.534  13.956 -0.8604 -0.4172 -0.1287
 8754TIP3   OH247752   4.587   6.566  16.838  0.5427  0.1933 -0.1995
 8754TIP3    H147753   4.637   6.616  16.903  2.4334 -0.1329 -1.3026
 8754TIP3    H247754   4.543   6.632  16.785  2.0144  0.6802 -0.8692
 8755TIP3   OH247755   5.504   1.233   1.431  0.5676  0.2017  0.2245
 8755TIP3    H147756   5.518   1.325   1.453  1.5542  0.2741 -0.6468
 8755TIP3    H247757   5.583   1.208   1.383 -0.4437 -0.6254 -1.0464
 8756TIP3   OH247758   2.432   0.509  14.937  0.3080 -0.3213  0.4905
 8756TIP3    H147759   2.504   0.549  14.888  0.0620  1.0219  1.1804
 8756TIP3    H247760   2.470   0.432  14.978  0.2701 -2.1924 -2.6754
 8757TIP3   OH247761   4.772   2.276  15.087 -0.1096  0.2505 -0.0648
 8757TIP3    H147762   4.784   2.332  15.011 -1.2483  1.3017  0.5028
 8757TIP3    H247763   4.678   2.274  15.101 -0.1021 -1.7171  0.0314
 8758TIP3   OH247764   5.804   4.511   0.149  0.5174 -0.1613  0.1703
 8758TIP3    H147765   5.759   4.547   0.225 -0.5019  0.8147 -0.8500
 8758TIP3    H247766   5.794   4.416   0.158 -2.3421 -0.0149 -0.2824
 8759TIP3   OH247767   2.829   5.097   5.525 -0.5836 -0.2063 -0.0683
 8759TIP3    H147768   2.774   5.176   5.530 -1.6100 -0.9440  1.0990
 8759TIP3    H247769   2.801   5.054   5.444 -1.2174 -0.2067  0.1448
 8760TIP3   OH247770   4.769   2.657   2.603  0.0873  0.0127  1.0750
 8760TIP3    H147771   4.692   2.711   2.622 -0.2732 -0.0875 -0.0508
 8760TIP3    H247772   4.765   2.587   2.669 -0.9325 -0.1329  0.8884
 8761TIP3   OH247773   0.562   2.860   3.827 -0.6024 -0.0154 -0.1744
 8761TIP3    H147774   0.496   2.813   3.878  0.0893 -0.5257  0.2574
 8761TIP3    H247775   0.582   2.802   3.753 -0.4861  0.0464 -0.1924
 8762TIP3   OH247776   0.904   0.950   2.252 -1.0140  0.2923 -0.1969
 8762TIP3    H147777   0.998   0.969   2.251 -0.7751 -0.6361  1.4164
 8762TIP3    H247778   0.874   0.979   2.338 -1.6087 -1.8977  0.4187
 8763TIP3   OH247779   5.020   0.133   4.333  0.5347  0.5112 -0.0303
 8763TIP3    H147780   4.955   0.157   4.267  0.8813  3.2601  0.4964
 8763TIP3    H247781   5.104   0.141   4.288  0.6413 -1.6718 -0.3233
 8764TIP3   OH247782   4.852   3.218   2.325  0.1461 -0.3864 -0.1546
 8764TIP3    H147783   4.929   3.260   2.363  0.2457  0.7711 -1.5330
 8764TIP3    H247784   4.887   3.155   2.263  0.0164  0.4889 -1.1454
 8765TIP3   OH247785   0.425   4.631   2.474  0.3896 -0.0111 -0.1016
 8765TIP3    H147786   0.405   4.550   2.521 -1.0165 -0.2503 -1.0653
 8765TIP3    H247787   0.490   4.605   2.408  1.1857  0.0064  0.6584
 8766TIP3   OH247788   4.470   0.577   0.360  0.9031 -0.1506  0.0242
 8766TIP3    H147789   4.457   0.483   0.373 -1.3083  0.2569  1.4460
 8766TIP3    H247790   4.551   0.584   0.310  0.0919 -2.9015 -1.9196
 8767TIP3   OH247791   5.428   6.718   2.757  0.3562 -0.7588 -0.1934
 8767TIP3    H147792   5.498   6.783   2.772  0.9552 -1.1902 -1.0209
 8767TIP3    H247793   5.386   6.709   2.842  1.5890 -0.7973  0.4463
 8768TIP3   OH247794   0.524   4.292   6.193 -0.2811 -0.1893  0.7396
 8768TIP3    H147795   0.464   4.359   6.160  0.5124 -0.9525 -2.6809
 8768TIP3    H247796   0.607   4.338   6.206  0.4417 -0.4270 -2.2106
 8769TIP3   OH247797   0.488   0.119  16.485  0.4844 -0.5721  0.0774
 8769TIP3    H147798   0.506   0.036  16.530 -0.6185 -0.6324  0.4186
 8769TIP3    H247799   0.574   0.160  16.477  0.7813 -0.8145  1.7258
 8770TIP3   OH247800   0.643   0.534   0.671  0.3309 -0.5127 -0.2282
 8770TIP3    H147801   0.567   0.480   0.694  0.0992  0.0569  0.3695
 8770TIP3    H247802   0.642   0.537   0.575 -0.3700 -0.5637 -0.2291
 8771TIP3   OH247803   1.139   3.967  15.106  0.3243  0.0402  0.2917
 8771TIP3    H147804   1.087   4.016  15.168 -1.4105  0.7893 -1.6332
 8771TIP3    H247805   1.085   3.890  15.085 -0.4136  1.1291 -2.1783
 8772TIP3   OH247806   5.473   5.909   2.847  0.1922  0.3566 -0.4726
 8772TIP3    H147807   5.504   5.819   2.845  0.5854  0.4934 -1.5008
 8772TIP3    H247808   5.432   5.922   2.761  2.1837  1.8327 -1.2710
 8773TIP3   OH247809   2.257   1.952   0.110 -0.0282  0.6385  0.1262
 8773TIP3    H147810   2.185   1.890   0.096  0.0989  0.8541 -1.6516
 8773TIP3    H247811   2.301   1.919   0.189 -0.3263 -1.1774 -0.4074
 8774TIP3   OH247812   5.979   5.096  11.980 -0.0396  0.8158  0.1555
 8774TIP3    H147813   5.922   5.143  11.919 -2.1302 -1.1016  0.4993
 8774TIP3    H247814   5.947   5.120  12.067  1.4441  1.7453  0.4896
 8775TIP3   OH247815   6.138   1.196   5.583  0.2446 -0.3655  0.7705
 8775TIP3    H147816   6.148   1.175   5.675 -1.8433  0.7557  1.3216
 8775TIP3    H247817   6.196   1.271   5.569  1.0879 -0.9668  0.9645
 8776TIP3   OH247818   5.670   4.788   5.358  0.1969  0.5503  0.2839
 8776TIP3    H147819   5.625   4.749   5.433  0.8195  1.3134  1.0859
 8776TIP3    H247820   5.612   4.857   5.328 -0.3868 -0.2248 -0.4180
 8777TIP3   OH247821   0.781   0.682  13.592  0.3972 -0.4454 -0.8966
 8777TIP3    H147822   0.824   0.767  13.604 -0.7022  0.0843 -0.5734
 8777TIP3    H247823   0.688   0.703  13.585 -0.0078 -1.7090  0.2362
 8778TIP3   OH247824   2.026   4.206   0.345 -0.2534  1.0005 -0.0828
 8778TIP3    H147825   1.932   4.214   0.364  0.1568  0.4615  2.5294
 8778TIP3    H247826   2.031   4.137   0.280 -1.6024 -0.3920  1.1946
 8779TIP3   OH247827   6.346   2.233   1.277 -0.5604 -0.2140 -0.3552
 8779TIP3    H147828   6.273   2.172   1.263 -0.6715 -0.4919  1.3020
 8779TIP3    H247829   6.346   2.288   1.198 -1.2971 -1.4883 -1.2744
 8780TIP3   OH247830   1.519   5.298  13.557 -0.6608  0.7481  0.2152
 8780TIP3    H147831   1.613   5.295  13.575 -0.7717 -0.0964  0.7016
 8780TIP3    H247832   1.485   5.214  13.589 -1.3168  0.3436 -1.4176
 8781TIP3   OH247833   6.556   0.656  13.780 -0.3823  0.0928  0.0748
 8781TIP3    H147834   6.547   0.727  13.716 -0.3088 -2.1431 -2.6310
 8781TIP3    H247835   6.472   0.610  13.777  0.7420 -2.0149 -1.0247
 8782TIP3   OH247836   3.685   5.009  16.853  0.2171 -0.2147  0.3615
 8782TIP3    H147837   3.717   5.085  16.805 -2.2796  1.2437  0.8449
 8782TIP3    H247838   3.639   4.957  16.788 -3.9990  2.2356  1.0419
 8783TIP3   OH247839   3.614   3.847  12.651  0.1398 -0.7050  0.2914
 8783TIP3    H147840   3.687   3.902  12.680  1.2713 -2.5081  1.0244
 8783TIP3    H247841   3.602   3.870  12.559  2.8323 -1.5388 -0.3770
 8784TIP3   OH247842   0.722   0.503   2.093  0.4229 -0.1607  0.5440
 8784TIP3    H147843   0.817   0.502   2.078  0.3995 -0.9043  0.3770
 8784TIP3    H247844   0.697   0.410   2.089 -0.3048  0.0292  0.6336
 8785TIP3   OH247845   4.862   1.533  10.127 -0.1414 -0.1147 -0.6688
 8785TIP3    H147846   4.887   1.591  10.199 -2.2050  0.0648 -0.0248
 8785TIP3    H247847   4.837   1.451  10.170  0.3253 -0.6226 -1.3533
 8786TIP3   OH247848   2.722   1.657   3.096 -0.2145 -0.4287 -0.0580
 8786TIP3    H147849   2.724   1.563   3.082 -0.4876 -0.7543  1.8434
 8786TIP3    H247850   2.814   1.683   3.099 -0.0655 -1.0003  1.3610
 8787TIP3   OH247851   1.645   0.372  13.313  0.4552  0.1696 -0.0623
 8787TIP3    H147852   1.708   0.404  13.249  0.1411  1.3735  0.2101
 8787TIP3    H247853   1.636   0.443  13.376  0.8226 -1.0273  1.3967
 8788TIP3   OH247854   3.359   5.889   2.407  0.1254 -0.2625 -0.8545
 8788TIP3    H147855   3.396   5.973   2.382 -0.5959 -0.3619 -2.4109
 8788TIP3    H247856   3.434   5.836   2.434  0.3832  1.5098  2.3315
 8789TIP3   OH247857   5.678   0.858  16.531  0.3286  0.2701 -0.0959
 8789TIP3    H147858   5.761   0.884  16.492  0.4580  0.8672  0.5483
 8789TIP3    H247859   5.626   0.939  16.531  0.7145  0.5753  1.9106
 8790TIP3   OH247860   3.571   1.302   2.170 -0.1190 -0.0205 -0.1238
 8790TIP3    H147861   3.569   1.320   2.076  2.3225 -1.8410 -0.6251
 8790TIP3    H247862   3.619   1.376   2.208  0.5349 -0.1820 -0.6134
 8791TIP3   OH247863   0.452   6.409  10.376 -0.1064 -0.0191  0.4351
 8791TIP3    H147864   0.402   6.484  10.344 -0.6536 -0.8903 -0.8519
 8791TIP3    H247865   0.543   6.431  10.356  0.0541  1.4367  2.5120
 8792TIP3   OH247866   0.130   2.557   2.645  0.0515  0.1259 -0.8715
 8792TIP3    H147867   0.057   2.579   2.586 -0.9636  0.4362  0.4539
 8792TIP3    H247868   0.180   2.491   2.597 -0.1053  1.1620 -2.5296
 8793TIP3   OH247869   0.369   2.205   5.968 -0.0253 -0.8179  0.1465
 8793TIP3    H147870   0.284   2.239   5.997  0.3462 -0.8589  1.3110
 8793TIP3    H247871   0.386   2.131   6.025  1.3132 -0.1407  0.6592
 8794TIP3   OH247872   6.688   6.129   6.026  0.1209  0.0361  0.3946
 8794TIP3    H147873   6.635   6.086   5.959  0.7305  0.8296 -0.6151
 8794TIP3    H247874   6.771   6.080   6.025  0.1131  0.0200  0.5947
 8795TIP3   OH247875   0.468   2.381  15.161  0.1416 -0.0994 -0.8379
 8795TIP3    H147876   0.452   2.308  15.102 -0.9382  0.5065 -1.3354
 8795TIP3    H247877   0.385   2.429  15.163  0.5015  0.5209  0.3055
 8796TIP3   OH247878   3.168   2.563   6.732  0.0450  0.0953  0.1164
 8796TIP3    H147879   3.219   2.482   6.742  0.7411  0.6920  1.7528
 8796TIP3    H247880   3.228   2.625   6.691  0.6292  0.7332  1.8473
 8797TIP3   OH247881   5.094   6.558   2.061 -0.1500 -0.9729  0.6110
 8797TIP3    H147882   5.108   6.494   1.992 -1.2210 -1.0969  0.4867
 8797TIP3    H247883   5.004   6.588   2.048  0.1476  0.1564  0.9952
 8798TIP3   OH247884   4.212   5.408   5.063 -0.0786  0.2496  0.4046
 8798TIP3    H147885   4.147   5.470   5.031  0.1224  0.8177  1.0708
 8798TIP3    H247886   4.236   5.441   5.150  2.1903  0.9004 -0.4058
 8799TIP3   OH247887   4.043   0.631   0.520 -0.3278 -0.6992 -0.2106
 8799TIP3    H147888   3.950   0.611   0.514 -0.9583  1.9944 -0.8892
 8799TIP3    H247889   4.052   0.680   0.602 -0.0116  1.1434 -1.3008
 8800TIP3   OH247890   0.020   2.479   2.372 -0.2818  0.2061  0.2148
 8800TIP3    H147891  -0.068   2.469   2.408 -0.4909  2.4840  0.5280
 8800TIP3    H247892   0.006   2.504   2.281 -0.1221  2.4518  0.7328
 8801TIP3   OH247893   5.869   6.119  10.916  0.0675  0.3048 -0.3142
 8801TIP3    H147894   5.792   6.154  10.962  1.1753  0.3899  1.5894
 8801TIP3    H247895   5.918   6.197  10.889  0.0663  0.2424 -0.4994
 8802TIP3   OH247896   5.721   0.776  15.519 -0.0895 -0.5766  0.1097
 8802TIP3    H147897   5.628   0.798  15.510  0.4853  1.1063 -3.2352
 8802TIP3    H247898   5.728   0.739  15.607 -4.0165 -1.4344  0.2649
 8803TIP3   OH247899   2.257   0.176  12.117  0.0027 -0.3707  0.2419
 8803TIP3    H147900   2.211   0.094  12.131  0.6421 -0.5643  1.3749
 8803TIP3    H247901   2.238   0.227  12.196 -2.0595  1.4252 -1.2835
 8804TIP3   OH247902   0.197   5.230  16.300 -0.2678  0.2220 -0.2633
 8804TIP3    H147903   0.270   5.173  16.321 -1.6612 -1.6824 -0.3610
 8804TIP3    H247904   0.192   5.228  16.204 -0.0103  0.9621 -0.3021
 8805TIP3   OH247905   6.307   1.311   4.664 -0.0187 -0.1197  0.1049
 8805TIP3    H147906   6.231   1.305   4.606 -0.7014  1.0487  0.8378
 8805TIP3    H247907   6.308   1.227   4.710 -1.8062  0.3651  1.1523
 8806TIP3   OH247908   5.068   6.548  10.557 -0.3155  0.3107  0.3163
 8806TIP3    H147909   4.972   6.538  10.559 -0.2515 -0.3495  2.9291
 8806TIP3    H247910   5.101   6.467  10.597  1.3166  0.9492  0.3229
 8807TIP3   OH247911   6.647   5.980   1.187 -0.4579 -0.4058  0.0018
 8807TIP3    H147912   6.721   6.041   1.189 -2.0343  1.6059  0.9377
 8807TIP3    H247913   6.682   5.901   1.147  1.6570  1.1947 -1.5563
 8808TIP3   OH247914   4.517   2.180   2.769 -0.3064  0.3603 -0.5225
 8808TIP3    H147915   4.472   2.098   2.753  0.9143 -0.0426 -2.0408
 8808TIP3    H247916   4.609   2.156   2.780 -0.1922  1.3284  0.9961
 8809TIP3   OH247917   2.647   3.521  10.741 -0.7172 -0.0314  0.2458
 8809TIP3    H147918   2.575   3.475  10.784  1.2392 -0.5239  3.2887
 8809TIP3    H247919   2.701   3.451  10.703 -0.2822  0.0962  0.6209
 8810TIP3   OH247920   2.139   2.191  17.035  0.1747  0.2462  0.0267
 8810TIP3    H147921   2.075   2.249  17.077  0.6584  0.0266  1.1214
 8810TIP3    H247922   2.109   2.103  17.057 -0.4759  0.0693 -1.5037
 8811TIP3   OH247923   0.787   1.552  14.874  0.4453 -0.2225  0.1010
 8811TIP3    H147924   0.824   1.487  14.814  0.1166 -1.3389  1.0654
 8811TIP3    H247925   0.862   1.587  14.921  0.5641 -0.4784  0.1062
 8812TIP3   OH247926   1.710   3.569  16.423  0.1039  0.2102 -0.0331
 8812TIP3    H147927   1.800   3.565  16.454 -0.1570  1.0128  0.8760
 8812TIP3    H247928   1.716   3.549  16.330  1.3905  1.5245 -0.2737
 8813TIP3   OH247929   1.706   1.475   5.979  0.5432 -0.2138  0.2484
 8813TIP3    H147930   1.732   1.545   6.039  0.4455  0.2226 -0.2086
 8813TIP3    H247931   1.677   1.521   5.900 -2.9816 -0.5707  1.1762
 8814TIP3   OH247932   2.420   4.325  12.670  0.0655  0.0841  0.1393
 8814TIP3    H147933   2.341   4.273  12.673  0.3832 -0.5155 -1.0251
 8814TIP3    H247934   2.478   4.286  12.735 -0.4492  0.2884  0.7246
 8815TIP3   OH247935   1.142   4.640   1.793 -0.2405  0.5071 -0.3103
 8815TIP3    H147936   1.077   4.638   1.722  0.2445  1.9311 -0.8184
 8815TIP3    H247937   1.130   4.724   1.836  0.0948  0.0411  0.7372
 8816TIP3   OH247938   5.967   3.725   5.507 -0.0673 -0.2314  0.1662
 8816TIP3    H147939   5.896   3.747   5.447 -0.7105 -1.6446  0.3605
 8816TIP3    H247940   6.041   3.704   5.450 -0.5033 -0.9990 -0.1352
 8817TIP3   OH247941   4.540   1.058   1.280  0.2522 -0.1696 -0.5626
 8817TIP3    H147942   4.523   1.119   1.352  3.1409 -1.4656  1.4455
 8817TIP3    H247943   4.462   1.003   1.276 -2.4660  3.4230 -2.4555
 8818TIP3   OH247944   5.406   5.725   1.636  0.1753 -0.0068 -0.3341
 8818TIP3    H147945   5.429   5.809   1.675 -0.6259 -0.1303  0.4233
 8818TIP3    H247946   5.480   5.667   1.658 -0.6807 -0.3413  1.8696
 8819TIP3   OH247947   6.171   5.181  12.536  0.2717 -0.1317  0.6617
 8819TIP3    H147948   6.226   5.250  12.574 -0.0868  0.0259  0.9022
 8819TIP3    H247949   6.166   5.203  12.443 -0.2115  0.4332  0.8125
 8820TIP3   OH247950   0.753   2.543   5.510  0.0617 -0.0015  0.1326
 8820TIP3    H147951   0.736   2.480   5.440 -0.7830 -0.1043  0.4238
 8820TIP3    H247952   0.827   2.505   5.558 -1.2033 -1.4394  1.0439
 8821TIP3   OH247953   4.080   2.798   4.619  0.3059  0.4819  0.4208
 8821TIP3    H147954   4.131   2.876   4.642  0.9608  0.1862  0.0210
 8821TIP3    H247955   3.996   2.832   4.591 -0.0580  0.9249  1.9657
 8822TIP3   OH247956   4.088   3.725  12.519 -0.0787 -0.1401 -0.1898
 8822TIP3    H147957   4.054   3.769  12.442 -0.2552  1.1129  0.5758
 8822TIP3    H247958   4.011   3.687  12.561 -0.1023 -0.0376 -0.1408
 8823TIP3   OH247959   3.866   4.550  15.136  0.1982  0.1881  0.2708
 8823TIP3    H147960   3.814   4.525  15.060 -0.9042 -0.0575  1.0903
 8823TIP3    H247961   3.930   4.479  15.145  0.7964  0.5705 -0.8321
 8824TIP3   OH247962   4.975   4.558  11.240 -0.4673 -0.1237  0.2450
 8824TIP3    H147963   4.932   4.518  11.315  1.7400 -1.5636  0.8116
 8824TIP3    H247964   4.905   4.569  11.175 -1.6905 -2.4236  1.0787
 8825TIP3   OH247965   3.984   3.603  15.018  0.5590  0.3209  0.0315
 8825TIP3    H147966   3.891   3.583  15.020  1.0174 -2.2247  0.3888
 8825TIP3    H247967   3.999   3.655  15.096 -0.1754 -1.6495  1.5856
 8826TIP3   OH247968   3.393   4.357   6.920  0.2493 -0.1186 -0.1345
 8826TIP3    H147969   3.452   4.395   6.984  1.9140  1.4199 -2.3981
 8826TIP3    H247970   3.450   4.309   6.860 -0.6285  1.7054 -2.6214
 8827TIP3   OH247971   5.283   2.656  14.111  0.2371  0.3445 -0.5230
 8827TIP3    H147972   5.359   2.703  14.145  0.2981 -0.2260  0.1687
 8827TIP3    H247973   5.208   2.702  14.148  0.2960 -0.0608  0.1242
 8828TIP3   OH247974   1.052   2.223  10.504 -0.0551  0.3029 -0.0022
 8828TIP3    H147975   1.007   2.308  10.505  0.3870  0.5815 -1.3684
 8828TIP3    H247976   0.984   2.160  10.481 -0.3431  0.2949  0.8255
 8829TIP3   OH247977   4.473   3.108   2.050  0.3799 -0.4847 -0.3932
 8829TIP3    H147978   4.379   3.108   2.032  0.0128 -2.0153  1.2115
 8829TIP3    H247979   4.479   3.121   2.145  1.8226  0.0275 -0.5358
 8830TIP3   OH247980   3.178   4.832  13.898 -0.2380 -0.2390 -0.4410
 8830TIP3    H147981   3.149   4.755  13.946  1.4712 -0.7934 -0.2525
 8830TIP3    H247982   3.190   4.802  13.808 -0.9589  0.1841 -0.6950
 8831TIP3   OH247983   5.239   3.259   5.177  0.1912 -0.2550  0.3798
 8831TIP3    H147984   5.148   3.255   5.208 -0.2332 -0.1364 -0.8064
 8831TIP3    H247985   5.255   3.172   5.141  0.2218  0.0333 -0.2996
 8832TIP3   OH247986   1.005   6.602  10.426 -0.0488 -0.9081 -0.3685
 8832TIP3    H147987   1.052   6.523  10.399  1.8092  0.1735 -0.4267
 8832TIP3    H247988   1.052   6.633  10.503 -0.8256  0.0997 -0.2830
 8833TIP3   OH247989   6.732   5.804   0.666  0.5902 -0.0673  0.1061
 8833TIP3    H147990   6.706   5.751   0.591 -0.6073  1.0181 -0.2786
 8833TIP3    H247991   6.815   5.845   0.638  0.5531 -0.2776 -0.3212
 8834TIP3   OH247992   5.804   3.589  14.561 -0.4550 -0.0478  0.0823
 8834TIP3    H147993   5.743   3.656  14.590  2.4353  3.1912 -0.5960
 8834TIP3    H247994   5.883   3.604  14.613  0.3398 -3.0983 -0.0334
 8835TIP3   OH247995   0.765   0.986  10.320  0.5669 -0.8280 -0.1403
 8835TIP3    H147996   0.708   0.926  10.271  1.2826 -1.0373 -0.7382
 8835TIP3    H247997   0.730   0.984  10.409 -0.0809 -1.3042 -0.3923
 8836TIP3   OH247998   6.610   2.981  15.764  0.0023 -0.5888 -0.1959
 8836TIP3    H147999   6.667   3.056  15.754 -0.2607 -0.3091  0.3374
 8836TIP3    H248000   6.667   2.911  15.796  0.2363 -0.6033 -0.6427
 8837TIP3   OH248001   5.101   0.322  16.531  0.4710 -0.2100  0.1781
 8837TIP3    H148002   5.125   0.368  16.611 -0.1122  1.0560 -0.3400
 8837TIP3    H248003   5.155   0.363  16.463 -0.5115  0.1887 -0.3976
 8838TIP3   OH248004   0.578   1.590   5.042 -0.4446  0.0839 -0.4475
 8838TIP3    H148005   0.502   1.637   5.076 -1.3261 -1.8814  0.4467
 8838TIP3    H248006   0.644   1.596   5.112  0.1664  1.4833 -1.0828
 8839TIP3   OH248007   4.317   1.544   0.426 -0.0063 -0.4848  0.1241
 8839TIP3    H148008   4.312   1.526   0.520 -1.8146  3.2344  0.9275
 8839TIP3    H248009   4.234   1.509   0.392  0.1468 -0.8400  0.1108
 8840TIP3   OH248010   0.219   1.063   5.294  0.1184 -0.0591 -0.3030
 8840TIP3    H148011   0.223   1.108   5.378  0.0296 -0.9563  0.1941
 8840TIP3    H248012   0.230   0.971   5.316  0.6829 -0.2504 -1.3379
 8841TIP3   OH248013   6.567   4.293  11.551 -0.3217  0.2759  0.1649
 8841TIP3    H148014   6.534   4.382  11.566 -1.6808 -0.1762  0.0133
 8841TIP3    H248015   6.489   4.242  11.528  0.4468 -0.9403  0.1587
 8842TIP3   OH248016   1.524   5.500   3.436 -0.0227 -0.0280  0.4149
 8842TIP3    H148017   1.549   5.592   3.448 -0.9658  0.4655 -1.0772
 8842TIP3    H248018   1.515   5.466   3.524  0.1567  1.3704  1.0039
 8843TIP3   OH248019   3.305   4.968   4.455  0.2898  0.1048  0.2921
 8843TIP3    H148020   3.382   5.014   4.421 -1.4568  2.5790 -0.5606
 8843TIP3    H248021   3.268   5.028   4.519 -0.0578 -1.7801  1.9515
 8844TIP3   OH248022   3.539   6.648  15.045  0.0702  0.5794  0.2453
 8844TIP3    H148023   3.532   6.640  14.950 -1.5321 -1.8808  0.4777
 8844TIP3    H248024   3.497   6.731  15.066 -2.3960 -0.2465 -1.0116
 8845TIP3   OH248025   2.062   6.826   2.154  0.3317  0.4669  0.1493
 8845TIP3    H148026   2.053   6.746   2.103  1.8200 -0.1733  0.8208
 8845TIP3    H248027   1.985   6.827   2.210 -0.2423  0.0665 -0.6166
 8846TIP3   OH248028   0.886   3.985  14.489 -0.3033  0.0579 -0.2503
 8846TIP3    H148029   0.796   4.007  14.512  0.0731 -0.0013  1.3404
 8846TIP3    H248030   0.882   3.968  14.395 -1.6098  1.8395 -0.5792
 8847TIP3   OH248031   5.739   4.125   3.448  0.4496 -0.2287 -0.7224
 8847TIP3    H148032   5.786   4.055   3.494  0.5582 -0.2557 -0.8734
 8847TIP3    H248033   5.646   4.105   3.461  0.4584 -1.2766 -2.0723
 8848TIP3   OH248034   3.579   0.966  12.970 -0.8561 -0.1713 -0.0166
 8848TIP3    H148035   3.601   0.875  12.950  0.5616  0.3284 -0.8620
 8848TIP3    H248036   3.617   1.017  12.899 -1.7315  1.0915  0.3724
 8849TIP3   OH248037   4.037   3.667  16.598  0.4540 -0.1001  0.0727
 8849TIP3    H148038   4.003   3.591  16.551 -3.0950  1.2943  0.0753
 8849TIP3    H248039   4.007   3.742  16.547  0.4181  1.3723  2.1275
 8850TIP3   OH248040   1.419   6.286   5.558  0.5173  0.1409  0.0551
 8850TIP3    H148041   1.380   6.353   5.502 -0.8197  2.2463  3.1997
 8850TIP3    H248042   1.511   6.282   5.531  0.6764  3.3229 -0.3052
 8851TIP3   OH248043   3.687   4.587   3.351 -0.2473  0.1967 -0.2753
 8851TIP3    H148044   3.606   4.542   3.327 -0.9709  1.2829  0.0240
 8851TIP3    H248045   3.721   4.620   3.267 -0.1203 -0.2405 -0.3983
 8852TIP3   OH248046   4.013   5.183   4.731  0.4360  0.9085  0.1075
 8852TIP3    H148047   4.010   5.215   4.640  1.8900 -2.2192 -1.2001
 8852TIP3    H248048   3.930   5.137   4.742  1.7810 -2.1468 -1.2303
 8853TIP3   OH248049   3.733   4.546   0.533  0.3420 -0.5305 -0.7602
 8853TIP3    H148050   3.695   4.565   0.447 -1.5980  2.7782  0.6169
 8853TIP3    H248051   3.657   4.526   0.588  1.1498  0.7939  0.9059
 8854TIP3   OH248052   4.555   2.811  14.799 -0.3534  0.3376  0.5730
 8854TIP3    H148053   4.521   2.886  14.847 -0.7029  0.3570  0.3005
 8854TIP3    H248054   4.648   2.831  14.786 -0.6233  1.1292 -0.2536
 8855TIP3   OH248055   1.200   3.138   1.897 -0.3975 -0.5745  0.3468
 8855TIP3    H148056   1.264   3.067   1.897  0.0631 -0.2110 -1.3594
 8855TIP3    H248057   1.164   3.138   1.986  2.5772 -0.2436  1.6974
 8856TIP3   OH248058   5.085   2.079  15.541 -0.1556 -0.3568 -0.0350
 8856TIP3    H148059   4.998   2.058  15.507 -0.0405  2.3707 -2.3013
 8856TIP3    H248060   5.143   2.018  15.496 -0.6750 -0.9852  0.1237
 8857TIP3   OH248061   1.446   6.352   1.375 -0.2275 -0.1070 -0.9241
 8857TIP3    H148062   1.410   6.416   1.314 -0.9310  0.5513  0.1541
 8857TIP3    H248063   1.382   6.281   1.375 -0.7230  0.3261 -0.2478
 8858TIP3   OH248064   3.158   2.706  14.063 -0.3655  0.5492  0.0671
 8858TIP3    H148065   3.180   2.623  14.022 -2.6263 -0.7846  1.3840
 8858TIP3    H248066   3.229   2.720  14.127 -1.2495 -1.7839  1.6937
 8859TIP3   OH248067   2.712   3.329   2.710 -0.2447  0.6707  0.0557
 8859TIP3    H148068   2.775   3.281   2.657 -0.4589  0.5172 -0.0553
 8859TIP3    H248069   2.766   3.393   2.757  0.0129  0.4516  0.0613
 8860TIP3   OH248070   6.455   2.548  13.685  0.0092  0.3534  0.7599
 8860TIP3    H148071   6.401   2.508  13.617  2.2056 -0.1699 -0.7760
 8860TIP3    H248072   6.493   2.475  13.733 -0.2218  0.7065  1.5060
 8861TIP3   OH248073   0.125   2.871   4.060  0.0329  0.0930  0.4325
 8861TIP3    H148074   0.076   2.795   4.029  2.5947 -1.6866  0.5040
 8861TIP3    H248075   0.136   2.926   3.983 -1.1178  0.0135  0.1926
 8862TIP3   OH248076   5.165   5.601   5.309 -0.0655  0.2065 -0.6752
 8862TIP3    H148077   5.084   5.552   5.296  0.2087 -0.6691  0.7278
 8862TIP3    H248078   5.160   5.633   5.399  0.5870  1.2312 -0.9832
 8863TIP3   OH248079   1.371   0.858  12.456  0.1988  0.9065  0.1537
 8863TIP3    H148080   1.315   0.831  12.383  0.5930  1.0738 -0.2076
 8863TIP3    H248081   1.332   0.939  12.488 -0.5261  0.3531  0.7391
 8864TIP3   OH248082   5.423   1.985   5.857  0.1461 -0.1718  0.4468
 8864TIP3    H148083   5.504   1.977   5.908  0.5602  0.2330 -0.1393
 8864TIP3    H248084   5.358   1.937   5.909  0.6661 -0.1749  1.1181
 8865TIP3   OH248085   6.430   1.187   3.162  0.4829  0.5221  0.3891
 8865TIP3    H148086   6.494   1.151   3.100 -0.9434 -0.1938 -0.7320
 8865TIP3    H248087   6.480   1.198   3.243  1.4935 -2.2612  0.2589
 8866TIP3   OH248088   3.661   5.400  14.651 -0.1283  0.1370  0.1031
 8866TIP3    H148089   3.596   5.386  14.583  0.2699  1.0563 -0.4800
 8866TIP3    H248090   3.708   5.317  14.657 -0.3151 -0.0205 -0.5808
 8867TIP3   OH248091   4.464   6.052  16.459 -0.4724  0.6022  0.1142
 8867TIP3    H148092   4.518   6.094  16.525  0.1374 -2.4537  1.7656
 8867TIP3    H248093   4.379   6.040  16.501 -0.3226 -0.6529  0.1148
 8868TIP3   OH248094   5.085   3.053  12.684  0.1585  0.7105 -0.1786
 8868TIP3    H148095   5.028   3.123  12.652 -0.6437  0.4612  0.6541
 8868TIP3    H248096   5.151   3.098  12.737  0.5269  0.9621 -0.8306
 8869TIP3   OH248097   4.121   5.670   0.725 -0.7013 -0.2343  0.0808
 8869TIP3    H148098   4.109   5.755   0.683 -0.8224 -0.4132 -0.2545
 8869TIP3    H248099   4.068   5.675   0.805  2.0113  1.2598  1.9422
 8870TIP3   OH248100   5.410   5.266  10.504  0.2157  0.3321  0.0403
 8870TIP3    H148101   5.320   5.261  10.536  0.4538 -0.0232  0.6525
 8870TIP3    H248102   5.424   5.359  10.486 -0.6412  0.2625 -1.1293
 8871TIP3   OH248103   4.683   2.144  14.232 -0.1094 -0.1404  0.4258
 8871TIP3    H148104   4.634   2.172  14.309  2.4234  2.4369  1.2576
 8871TIP3    H248105   4.669   2.213  14.168  0.6882 -0.4723 -0.1150
 8872TIP3   OH248106   1.552   4.729   5.984 -0.8860  0.3532 -0.0190
 8872TIP3    H148107   1.620   4.739   5.918 -0.4745  2.4330  0.6620
 8872TIP3    H248108   1.507   4.648   5.960  0.7511 -0.1884 -1.4460
 8873TIP3   OH248109   5.171   5.199  10.199  0.3177  0.2327 -0.2253
 8873TIP3    H148110   5.126   5.136  10.255  0.1482  0.7648  0.2403
 8873TIP3    H248111   5.101   5.246  10.154  0.3892  1.1160  0.5602
 8874TIP3   OH248112   1.022   5.677   0.797  0.0194  0.0395  0.4212
 8874TIP3    H148113   0.941   5.636   0.767 -0.1949 -0.3551  1.5053
 8874TIP3    H248114   1.090   5.613   0.775 -0.3696 -1.1959  2.5754
 8875TIP3   OH248115   5.854   4.142  11.322 -0.0807 -0.6939  0.1602
 8875TIP3    H148116   5.924   4.206  11.311 -0.4472 -0.2879  0.1714
 8875TIP3    H248117   5.826   4.152  11.413 -1.7300  0.7863 -0.4753
 8876TIP3   OH248118   1.817   6.783  11.116  0.2089  0.1516  0.5666
 8876TIP3    H148119   1.820   6.875  11.144 -0.6786  0.3821 -0.0601
 8876TIP3    H248120   1.741   6.747  11.160  0.2773 -0.1576  0.4297
 8877TIP3   OH248121   5.430   1.312   3.962 -0.0641  0.4815  0.8939
 8877TIP3    H148122   5.492   1.259   3.912  1.6295  1.5915  1.7426
 8877TIP3    H248123   5.401   1.255   4.033 -2.7562 -1.2367 -1.3553
 8878TIP3   OH248124   3.014   2.209   5.932 -0.5007  0.3170 -0.3612
 8878TIP3    H148125   2.987   2.298   5.954 -2.2548 -0.4587  0.8999
 8878TIP3    H248126   2.959   2.185   5.857  0.0915  0.3307 -0.8098
 8879TIP3   OH248127   4.714   4.181  10.786 -0.1921 -0.4774 -0.1178
 8879TIP3    H148128   4.715   4.237  10.708 -1.3334 -0.0575  0.1491
 8879TIP3    H248129   4.698   4.093  10.753 -0.5898 -0.3120 -0.3718
 8880TIP3   OH248130   2.062   0.512   6.510  0.5054  0.2100  0.0872
 8880TIP3    H148131   2.081   0.466   6.429 -1.6268  1.0469 -0.9624
 8880TIP3    H248132   2.063   0.605   6.487  0.1277  0.4808  1.0654
 8881TIP3   OH248133   5.393   0.478  11.773  0.0137  0.2195 -0.5637
 8881TIP3    H148134   5.387   0.450  11.865  0.5215 -0.9894 -0.8780
 8881TIP3    H248135   5.457   0.419  11.734 -0.4447  0.5031 -1.7850
 8882TIP3   OH248136   3.957   3.756  16.292 -0.3302  0.2513 -0.2064
 8882TIP3    H148137   3.895   3.768  16.220 -0.9922 -0.1447  0.2839
 8882TIP3    H248138   3.983   3.664  16.286 -3.5107 -1.0397  2.4253
 8883TIP3   OH248139   3.725   4.861   2.753 -0.0222  0.4975 -0.1414
 8883TIP3    H148140   3.774   4.881   2.833 -0.1298  0.5680 -0.0932
 8883TIP3    H248141   3.675   4.782   2.774  0.5202  0.0829 -0.3821
 8884TIP3   OH248142   1.351   4.549  11.838 -0.0956 -0.6745 -0.0991
 8884TIP3    H148143   1.396   4.551  11.754 -0.0835  1.8583 -0.1138
 8884TIP3    H248144   1.409   4.499  11.896  1.8128  0.8617 -0.6094
 8885TIP3   OH248145   4.576   4.157   3.738 -0.0850  0.3363  0.0028
 8885TIP3    H148146   4.494   4.139   3.691  0.8026  0.7704 -1.8228
 8885TIP3    H248147   4.625   4.075   3.732  0.1216  0.4621 -0.0329
 8886TIP3   OH248148   3.581   1.550   4.164 -0.2455  0.1007  0.1024
 8886TIP3    H148149   3.528   1.630   4.168 -1.7306 -0.8559 -0.0928
 8886TIP3    H248150   3.534   1.492   4.105  1.8459 -0.2155 -1.3577
 8887TIP3   OH248151   4.943   2.363   4.550  0.3550  0.4231 -0.1116
 8887TIP3    H148152   4.890   2.351   4.629 -0.5545  0.8552 -0.6397
 8887TIP3    H248153   4.929   2.283   4.499 -0.5288  0.9111 -0.6615
 8888TIP3   OH248154   0.287   2.308   2.593 -0.3102  0.4391 -0.5131
 8888TIP3    H148155   0.356   2.243   2.610 -1.6933 -1.4990 -1.8364
 8888TIP3    H248156   0.219   2.289   2.657 -0.6585  0.7120 -0.7976
 8889TIP3   OH248157   1.718   5.410  13.873  0.3084 -0.7271  0.2974
 8889TIP3    H148158   1.658   5.379  13.940 -0.7155  0.7871  0.1306
 8889TIP3    H248159   1.662   5.456  13.810  1.6730  1.5284  0.6014
 8890TIP3   OH248160   0.032   5.630   2.005 -0.0226  0.7420  0.7148
 8890TIP3    H148161  -0.010   5.581   1.935  1.1306 -0.0574  0.5559
 8890TIP3    H248162   0.026   5.573   2.082 -0.2154  1.1055  0.9744
 8891TIP3   OH248163   1.382   4.208   4.120 -0.5211  0.0590 -0.2678
 8891TIP3    H148164   1.319   4.232   4.051 -0.2812  2.7325  0.3269
 8891TIP3    H248165   1.453   4.164   4.073 -0.3381  1.8487 -1.8130
 8892TIP3   OH248166   2.557   5.909  12.589  0.4246  0.3116 -0.2249
 8892TIP3    H148167   2.569   5.891  12.496 -1.3594  2.1722 -0.8703
 8892TIP3    H248168   2.630   5.966  12.612  1.4398 -0.9453 -0.1707
 8893TIP3   OH248169   3.543   4.528   1.152 -0.0548  0.8024  0.1087
 8893TIP3    H148170   3.510   4.581   1.080 -2.0623 -1.2072 -0.5729
 8893TIP3    H248171   3.589   4.455   1.111  1.1313  1.0162  0.9767
 8894TIP3   OH248172   2.599   4.131  15.557  0.3600 -0.1123  0.9986
 8894TIP3    H148173   2.550   4.075  15.497  0.2562  1.4383 -0.4277
 8894TIP3    H248174   2.534   4.163  15.619  0.0309  0.0202  0.5860
 8895TIP3   OH248175   2.535   1.703   4.756  0.4526  0.5177 -0.8840
 8895TIP3    H148176   2.603   1.730   4.818  0.3622  0.9776 -0.9787
 8895TIP3    H248177   2.474   1.777   4.755 -1.0753 -0.6437  0.6386
 8896TIP3   OH248178   6.798   0.350  10.975  0.5662 -0.2013  0.3086
 8896TIP3    H148179   6.842   0.275  10.934  0.2891 -0.6338  0.7891
 8896TIP3    H248180   6.829   0.426  10.925  0.4821 -0.6790 -0.4944
 8897TIP3   OH248181   3.779   1.007   0.591 -0.2169  0.5741 -0.0724
 8897TIP3    H148182   3.754   1.065   0.519  0.0105 -0.2818 -0.8480
 8897TIP3    H248183   3.814   1.066   0.658  1.8189  1.1968 -1.5944
 8898TIP3   OH248184   0.072   1.216   2.891  0.4859 -0.5494 -0.5818
 8898TIP3    H148185  -0.022   1.220   2.908  0.4849 -1.4844 -0.3411
 8898TIP3    H248186   0.099   1.308   2.890 -0.0847 -0.3268  1.2083
 8899TIP3   OH248187   5.331   3.300   1.450  0.1015  0.2360  0.2032
 8899TIP3    H148188   5.289   3.219   1.480 -0.5731  0.3706 -0.3440
 8899TIP3    H248189   5.401   3.271   1.392  0.2476  0.0288  0.4809
 8900TIP3   OH248190   4.415   1.997  12.955 -0.4809 -0.2767  0.3102
 8900TIP3    H148191   4.506   2.021  12.974 -1.1149  3.3396 -0.4400
 8900TIP3    H248192   4.422   1.922  12.896  1.9299 -0.7771  1.1016
 8901TIP3   OH248193   0.683   1.022  11.301  0.2251  0.3115  0.3178
 8901TIP3    H148194   0.620   1.053  11.366 -0.9050 -1.7680  0.3074
 8901TIP3    H248195   0.691   0.928  11.318 -1.3538 -0.7175 -3.4820
 8902TIP3   OH248196   3.969   0.658  13.576 -0.1851 -0.3525 -0.1474
 8902TIP3    H148197   3.954   0.574  13.620  0.0972 -0.1908  0.2710
 8902TIP3    H248198   4.064   0.664  13.567 -0.1250  0.3619  0.7360
 8903TIP3   OH248199   4.350   6.069  13.211 -0.0847  0.4361 -0.2520
 8903TIP3    H148200   4.307   6.057  13.126  0.4193  1.6203 -0.6944
 8903TIP3    H248201   4.283   6.109  13.266 -0.3969 -0.2847 -0.1115
 8904TIP3   OH248202   1.148   6.222  15.780  0.2308 -0.2893 -0.2552
 8904TIP3    H148203   1.228   6.274  15.788  0.4457 -0.8796  2.8633
 8904TIP3    H248204   1.077   6.286  15.772  0.6693  0.4628  1.4942
 8905TIP3   OH248205   3.929   4.270  15.946  0.5693  0.1097  0.4305
 8905TIP3    H148206   3.995   4.329  15.907  0.4794 -0.2114 -0.2311
 8905TIP3    H248207   3.955   4.263  16.038  0.9426  0.6908  0.3805
 8906TIP3   OH248208   1.141   2.616   4.222 -0.7462  0.1753 -0.3674
 8906TIP3    H148209   1.090   2.605   4.301 -2.6533 -1.1818 -1.6957
 8906TIP3    H248210   1.184   2.532   4.209 -2.2067 -0.3895 -1.8812
 8907TIP3   OH248211   1.190   1.859  16.759 -0.0154 -0.2851  0.1970
 8907TIP3    H148212   1.270   1.909  16.773 -1.2285  1.6706  0.5556
 8907TIP3    H248213   1.123   1.905  16.810 -1.4037 -1.8059 -0.1358
 8908TIP3   OH248214   6.240   1.104   4.374 -0.2340 -0.1927  0.2604
 8908TIP3    H148215   6.172   1.049   4.335 -1.7527  1.8082 -0.0587
 8908TIP3    H248216   6.294   1.042   4.424 -1.1394 -2.1173 -0.9837
 8909TIP3   OH248217   6.511   0.246   0.792 -0.1769  0.2444  0.0911
 8909TIP3    H148218   6.579   0.246   0.860  1.3787  1.4974 -1.3806
 8909TIP3    H248219   6.496   0.153   0.774  1.7831 -0.0830 -0.1126
 8910TIP3   OH248220   5.034   3.684   2.510 -0.1385  0.3743 -0.6300
 8910TIP3    H148221   5.016   3.690   2.604 -2.1758  0.2254 -0.9663
 8910TIP3    H248222   5.099   3.752   2.494  0.4625  0.2142  0.9269
 8911TIP3   OH248223   3.083   4.944   1.493 -0.4319 -0.2566 -0.6191
 8911TIP3    H148224   3.041   5.007   1.552 -0.6665 -1.1965  0.2473
 8911TIP3    H248225   3.031   4.947   1.413 -0.9645  0.0139 -0.2667
 8912TIP3   OH248226   3.131   1.533  11.530 -0.1215  0.1329  0.3862
 8912TIP3    H148227   3.112   1.625  11.547 -0.9522  0.2001 -0.8292
 8912TIP3    H248228   3.217   1.534  11.489 -0.1628  0.3725  0.3040
 8913TIP3   OH248229   6.787   3.210  13.376  0.2363  0.3704 -0.2495
 8913TIP3    H148230   6.724   3.219  13.305 -1.3091 -0.3642  0.9631
 8913TIP3    H248231   6.785   3.294  13.422  0.2242  0.3824 -0.2724
 8914TIP3   OH248232   4.777   5.643  13.003 -0.2108 -0.2976  0.0520
 8914TIP3    H148233   4.812   5.583  12.937 -1.3723 -1.1122  0.1406
 8914TIP3    H248234   4.708   5.691  12.958 -0.2480 -0.0517  0.3705
 8915TIP3   OH248235   2.514   5.473  14.828 -0.2652  0.8562 -0.1318
 8915TIP3    H148236   2.450   5.543  14.815 -0.2278  1.0803  0.8287
 8915TIP3    H248237   2.589   5.516  14.868 -0.0366  0.3572 -0.0109
 8916TIP3   OH248238   3.875   6.287   1.477 -0.1194 -0.0671  0.0448
 8916TIP3    H148239   3.877   6.202   1.433  2.1067 -0.7467  1.2857
 8916TIP3    H248240   3.879   6.266   1.571  1.0204  1.3594  0.3681
 8917TIP3   OH248241   4.069   3.435   6.138 -0.8512  0.2165 -0.0479
 8917TIP3    H148242   3.992   3.392   6.175 -0.3703 -0.1936  0.5152
 8917TIP3    H248243   4.131   3.363   6.122 -0.5179  0.5577 -0.3183
 8918TIP3   OH248244   4.650   2.946  16.797 -0.4544  0.1553  0.0739
 8918TIP3    H148245   4.603   2.906  16.724  0.1242 -0.8045  0.2161
 8918TIP3    H248246   4.742   2.933  16.775 -0.2728  0.3416  0.7192
 8919TIP3   OH248247   4.540   3.608  15.709  0.0841 -0.6332 -0.2060
 8919TIP3    H148248   4.524   3.518  15.681  0.7228 -1.0541  0.7257
 8919TIP3    H248249   4.601   3.642  15.643  0.6357 -1.2169 -0.0101
 8920TIP3   OH248250   6.436   6.592  15.386 -0.2667 -0.6631 -0.0176
 8920TIP3    H148251   6.381   6.533  15.335  1.9401 -1.1013 -2.0193
 8920TIP3    H248252   6.450   6.668  15.329  1.3028 -0.6257  0.3686
 8921TIP3   OH248253   3.661   4.962   2.383  0.7566  0.3280 -0.3817
 8921TIP3    H148254   3.674   5.017   2.460  2.8679 -1.5327  0.7205
 8921TIP3    H248255   3.630   5.022   2.315  4.3399  3.2695  0.2570
 8922TIP3   OH248256   5.547   2.124   6.336 -0.3995 -0.3736 -0.1027
 8922TIP3    H148257   5.639   2.133   6.311 -0.2879 -0.9822  0.0980
 8922TIP3    H248258   5.522   2.037   6.305 -0.8154 -0.3445  0.1512
 8923TIP3   OH248259   2.025   0.044  16.326  0.0122 -0.8745 -0.1039
 8923TIP3    H148260   2.025  -0.044  16.287 -0.1948 -0.0418 -2.0740
 8923TIP3    H248261   1.937   0.054  16.362  0.2687 -1.7245  0.8286
 8924TIP3   OH248262   2.427   0.911  12.204  0.0371 -0.0325 -0.1516
 8924TIP3    H148263   2.347   0.936  12.158  1.2249  3.0945 -0.8245
 8924TIP3    H248264   2.459   0.835  12.157 -0.2431  1.3887 -2.8660
 8925TIP3   OH248265   1.446   6.075   0.082 -0.3237  0.7070  0.1531
 8925TIP3    H148266   1.352   6.077   0.069 -0.4044  1.1931  0.7753
 8925TIP3    H248267   1.476   6.162   0.055  0.1008  0.1897 -1.1143
 8926TIP3   OH248268   5.650   5.659   0.697 -0.2231 -0.2244 -0.2531
 8926TIP3    H148269   5.573   5.714   0.684 -2.0871 -1.7995  2.7810
 8926TIP3    H248270   5.684   5.685   0.783  0.8510 -1.5182 -0.2567
 8927TIP3   OH248271   4.800   0.574  16.275 -0.2449  0.6127  0.0072
 8927TIP3    H148272   4.731   0.516  16.246 -0.9241  0.8389  1.1241
 8927TIP3    H248273   4.755   0.645  16.321  0.7410  0.5773  1.0746
 8928TIP3   OH248274   3.893   0.442  14.810 -0.0538 -0.7771  0.1310
 8928TIP3    H148275   3.956   0.370  14.802  0.2446 -0.5790  0.6512
 8928TIP3    H248276   3.829   0.425  14.741 -0.7936 -2.3472  1.1260
 8929TIP3   OH248277   1.506   1.533   5.400  0.0018 -0.5703 -0.6591
 8929TIP3    H148278   1.470   1.501   5.483  0.9530 -2.7315 -0.9938
 8929TIP3    H248279   1.594   1.564   5.423 -0.6153  1.1649 -0.4852
 8930TIP3   OH248280   3.686   3.413   2.353 -0.1965 -0.1651 -0.0472
 8930TIP3    H148281   3.700   3.404   2.447  0.2316 -0.2355 -0.1188
 8930TIP3    H248282   3.708   3.504   2.333  2.6019 -0.8760 -0.5739
 8931TIP3   OH248283   0.475   3.068  11.630  0.0205 -0.3519  0.3004
 8931TIP3    H148284   0.556   3.022  11.652  0.9365  1.9687  2.1965
 8931TIP3    H248285   0.501   3.131  11.563 -1.4066 -2.9077 -2.9425
 8932TIP3   OH248286   0.762   5.312  14.711 -0.0475 -0.0660  0.1117
 8932TIP3    H148287   0.723   5.251  14.774 -0.0160 -1.1274 -0.8591
 8932TIP3    H248288   0.713   5.394  14.723 -2.1662 -1.1502 -0.6049
 8933TIP3   OH248289   1.059   0.348   3.646 -0.3497  0.1522 -0.3546
 8933TIP3    H148290   1.082   0.267   3.600 -0.8148 -0.1473 -0.0745
 8933TIP3    H248291   1.142   0.393   3.658 -0.1140 -0.1720 -0.7248
 8934TIP3   OH248292   6.706   5.211   0.569  0.4716 -0.3638 -0.5338
 8934TIP3    H148293   6.766   5.140   0.546  2.3771 -0.0451  2.8475
 8934TIP3    H248294   6.730   5.235   0.659 -3.2776  1.3578  0.2038
 8935TIP3   OH248295   6.218   4.815  16.285 -0.0666  0.7252  0.0794
 8935TIP3    H148296   6.136   4.768  16.265 -1.0011  2.2588  0.1497
 8935TIP3    H248297   6.191   4.905  16.298  1.5493  1.1089  0.9998
 8936TIP3   OH248298   4.249   2.585  13.057 -0.2012  0.1327 -0.0196
 8936TIP3    H148299   4.318   2.574  12.991 -0.1514 -0.8720  0.1842
 8936TIP3    H248300   4.167   2.572  13.008 -0.1207 -2.5089  0.4088
 8937TIP3   OH248301   4.462   3.121   2.644 -0.2387 -0.9779  0.2512
 8937TIP3    H148302   4.498   3.121   2.555 -0.4514  0.3963  0.1345
 8937TIP3    H248303   4.383   3.069   2.638  1.2740 -3.4420  0.3434
 8938TIP3   OH248304   2.032   3.515  17.081 -0.5171 -0.8370  0.8618
 8938TIP3    H148305   2.083   3.538  17.159 -1.4174 -1.7487  1.7261
 8938TIP3    H248306   2.094   3.466  17.026  0.4228  0.6685  0.5036
 8939TIP3   OH248307   1.612   2.531   2.953  0.1357  0.2830 -0.2672
 8939TIP3    H148308   1.629   2.480   3.032 -1.9590  1.4116  1.0041
 8939TIP3    H248309   1.697   2.534   2.907  0.4397 -4.1392 -0.4256
 8940TIP3   OH248310   0.628   5.722  11.281 -0.2254  0.0320  0.5651
 8940TIP3    H148311   0.701   5.735  11.220  1.2748 -1.2441  2.0009
 8940TIP3    H248312   0.595   5.810  11.298  1.1827  0.6730  0.1250
 8941TIP3   OH248313   5.463   3.218  13.686  0.1120  0.3926 -0.3778
 8941TIP3    H148314   5.464   3.311  13.708  1.3400  0.2046  0.4174
 8941TIP3    H248315   5.555   3.193  13.680 -0.1993 -0.6282 -1.2470
 8942TIP3   OH248316   4.232   6.589   3.111  0.2813  0.4668  0.1747
 8942TIP3    H148317   4.307   6.545   3.152 -0.9606 -1.5447  0.4340
 8942TIP3    H248318   4.270   6.638   3.038  1.8058 -1.0451 -0.1231
 8943TIP3   OH248319   2.753   2.602   0.248  0.4455 -0.0390 -0.1027
 8943TIP3    H148320   2.776   2.512   0.229  2.6721  0.6395 -0.9446
 8943TIP3    H248321   2.797   2.653   0.179 -0.2329  1.7245  0.7071
 8944TIP3   OH248322   4.439   5.242  16.771 -0.6437 -0.1738 -0.2287
 8944TIP3    H148323   4.391   5.320  16.797 -1.0114 -0.1128 -1.0562
 8944TIP3    H248324   4.531   5.262  16.792 -0.4679  1.2356 -2.0838
 8945TIP3   OH248325   0.728   2.093   0.542  0.2256  0.5359  0.0117
 8945TIP3    H148326   0.702   2.118   0.630 -1.4776  1.0453 -0.6097
 8945TIP3    H248327   0.656   2.039   0.510  1.0233 -0.0158 -0.9266
 8946TIP3   OH248328   2.656   1.316   6.757  0.6102  0.3231  0.0293
 8946TIP3    H148329   2.634   1.318   6.850  1.9450 -1.8232  0.4651
 8946TIP3    H248330   2.631   1.402   6.725 -2.9772  0.0438  1.6132
 8947TIP3   OH248331   2.877   5.432   5.583 -0.0685 -0.5365 -0.1496
 8947TIP3    H148332   2.940   5.409   5.652  0.5739  0.3064 -0.4344
 8947TIP3    H248333   2.795   5.445   5.629  0.3368 -0.0478  0.4568
 8948TIP3   OH248334   2.624   0.143   1.706  0.1127  0.2351  0.5950
 8948TIP3    H148335   2.554   0.182   1.653  1.9752  2.0572 -0.6790
 8948TIP3    H248336   2.667   0.219   1.747  0.2525 -0.9699  2.8315
 8949TIP3   OH248337   3.992   6.365  14.166  0.2725 -0.4571 -0.2254
 8949TIP3    H148338   4.043   6.348  14.245  1.2495  0.1557 -0.7028
 8949TIP3    H248339   3.904   6.335  14.187  0.7370 -1.1735  0.7606
 8950TIP3   OH248340   3.101   4.305   4.266  0.0796 -0.4593 -0.0535
 8950TIP3    H148341   3.105   4.390   4.310  2.0494 -0.5989  0.1212
 8950TIP3    H248342   3.154   4.317   4.187  2.1782 -2.0341  0.9947
 8951TIP3   OH248343   1.803   0.657  14.997 -0.3681 -0.1546  0.2209
 8951TIP3    H148344   1.728   0.620  14.951 -0.2937  1.4726 -1.3098
 8951TIP3    H248345   1.824   0.737  14.949  1.8460 -0.1273  1.0987
 8952TIP3   OH248346   4.822   3.949  10.937 -0.7392  0.0345 -0.3136
 8952TIP3    H148347   4.733   3.958  10.971 -0.2878 -1.3639  1.3610
 8952TIP3    H248348   4.835   3.855  10.927  0.4357  0.2371 -0.8756
 8953TIP3   OH248349   1.394   0.859  15.462  0.2706  0.0862 -0.0971
 8953TIP3    H148350   1.336   0.900  15.525 -0.9721 -1.5954 -0.0731
 8953TIP3    H248351   1.413   0.773  15.500  0.6764 -0.3901 -1.3336
 8954TIP3   OH248352   3.446   1.733   5.777  0.2054 -0.1149  0.1525
 8954TIP3    H148353   3.430   1.820   5.740 -0.3974 -0.6275 -0.8226
 8954TIP3    H248354   3.533   1.710   5.747 -0.0633 -0.2942 -0.5144
 8955TIP3   OH248355   0.669   1.346   0.162 -0.0303  0.1648  0.2034
 8955TIP3    H148356   0.705   1.429   0.194  1.1807  0.0312 -0.7549
 8955TIP3    H248357   0.653   1.360   0.069 -1.5332 -0.1264  0.3879
 8956TIP3   OH248358   6.719   0.937   1.668 -0.3177 -0.1476 -0.1889
 8956TIP3    H148359   6.744   0.890   1.747 -1.9101  4.1438  3.2227
 8956TIP3    H248360   6.640   0.891   1.637 -0.1847 -1.3948  1.2080
 8957TIP3   OH248361   6.097   6.793  16.548 -0.0696  0.1029 -0.3398
 8957TIP3    H148362   6.128   6.753  16.630  2.3441 -0.1710 -1.2865
 8957TIP3    H248363   6.050   6.871  16.576  0.2557 -0.2567  1.3445
 8958TIP3   OH248364   3.726   4.258   2.498  0.0757  0.3046  0.3002
 8958TIP3    H148365   3.770   4.198   2.558 -0.9527 -0.6567  0.1318
 8958TIP3    H248366   3.738   4.345   2.537  0.5717 -0.1523  1.1861
 8959TIP3   OH248367   1.358   3.039   6.350 -0.4078 -0.2415 -0.4466
 8959TIP3    H148368   1.401   3.114   6.392  2.5766 -2.1455  0.2361
 8959TIP3    H248369   1.407   2.963   6.382 -1.3524 -2.2546 -3.4023
 8960TIP3   OH248370   6.311   1.192  11.194  0.1291  0.8689 -0.4047
 8960TIP3    H148371   6.266   1.198  11.109 -0.0095  1.0186 -0.3199
 8960TIP3    H248372   6.267   1.256  11.250  0.0416  0.5742 -0.1372
 8961TIP3   OH248373   4.051   1.159   2.842 -0.0283 -0.5626  0.0381
 8961TIP3    H148374   4.012   1.120   2.764  0.6072  0.0680 -0.6067
 8961TIP3    H248375   4.034   1.095   2.912 -0.8275 -1.0145 -0.5529
 8962TIP3   OH248376   1.000   5.588   6.142 -0.6117  0.5669  0.1258
 8962TIP3    H148377   1.085   5.583   6.187  0.1976  0.7415 -1.3188
 8962TIP3    H248378   0.980   5.682   6.138 -0.9820  0.5119  0.6541
 8963TIP3   OH248379   2.541   0.365  11.323  0.7453  0.7173 -0.4624
 8963TIP3    H148380   2.527   0.405  11.238  0.1084  1.3021 -0.0910
 8963TIP3    H248381   2.637   0.364  11.333  0.8756 -0.3121 -1.6110
 8964TIP3   OH248382   2.446   4.850   6.295 -0.0322 -0.5681 -0.0576
 8964TIP3    H148383   2.438   4.940   6.263  0.2224 -0.6260 -0.2892
 8964TIP3    H248384   2.477   4.859   6.385  1.2860 -0.4421 -0.4979
 8965TIP3   OH248385   4.039   6.756   0.388  0.2354  0.3097 -0.6389
 8965TIP3    H148386   4.018   6.834   0.438  0.3308  0.9510 -1.5721
 8965TIP3    H248387   4.020   6.683   0.447  0.4085  1.0402  0.3380
 8966TIP3   OH248388   5.656   2.106  14.480  0.7880  0.2331  0.1727
 8966TIP3    H148389   5.664   2.166  14.407  1.9455 -0.7368 -0.5382
 8966TIP3    H248390   5.642   2.020  14.439  1.1841 -0.2843  1.0858
 8967TIP3   OH248391   2.561   4.491   3.728  0.3966  0.1364  0.1008
 8967TIP3    H148392   2.513   4.523   3.652  1.0231 -0.4461 -0.5579
 8967TIP3    H248393   2.632   4.554   3.740 -0.1600  0.6640  0.7030
 8968TIP3   OH248394   6.736   6.709   4.123 -0.1480 -0.2967 -0.4287
 8968TIP3    H148395   6.672   6.646   4.157  1.3225 -0.7044  1.8190
 8968TIP3    H248396   6.817   6.659   4.116  0.8465  1.1059  0.5710
 8969TIP3   OH248397   4.354   6.459   3.417 -0.2525 -0.4434 -0.0715
 8969TIP3    H148398   4.322   6.371   3.437 -0.6606  0.2605  2.8622
 8969TIP3    H248399   4.374   6.498   3.503  3.8315  0.9443 -1.3876
 8970TIP3   OH248400   2.304   6.027   0.555  0.2336 -0.2084  0.3380
 8970TIP3    H148401   2.374   6.093   0.555  0.1832 -0.1114  2.0208
 8970TIP3    H248402   2.322   5.973   0.479  1.6135  0.3729  0.2224
 8971TIP3   OH248403   2.054   1.938   6.728  0.3834 -0.3423 -0.0218
 8971TIP3    H148404   2.032   1.995   6.802  0.2120 -1.2484  0.6392
 8971TIP3    H248405   1.971   1.926   6.682  0.8996  2.2073 -1.8511
 8972TIP3   OH248406   6.492   3.090  12.523 -0.5219 -0.1687  0.3844
 8972TIP3    H148407   6.538   3.006  12.526 -0.1059  0.0691  0.7598
 8972TIP3    H248408   6.497   3.123  12.612  1.0148  1.1392 -0.1310
 8973TIP3   OH248409   1.487   0.872   5.801 -0.6731  0.1555 -0.4189
 8973TIP3    H148410   1.536   0.897   5.723 -0.4786  0.6487 -0.1464
 8973TIP3    H248411   1.395   0.875   5.774 -0.6525  1.1279 -0.4124
 8974TIP3   OH248412   6.767   4.185  12.590  0.3402  0.1804  0.2241
 8974TIP3    H148413   6.837   4.131  12.553 -1.4505 -1.1829 -1.3667
 8974TIP3    H248414   6.722   4.127  12.651 -1.2219 -0.0019 -1.0349
 8975TIP3   OH248415   5.472   2.414  13.468 -0.1949 -0.1977 -0.1586
 8975TIP3    H148416   5.437   2.499  13.440  0.7967  0.7558  1.3802
 8975TIP3    H248417   5.413   2.386  13.538  0.5255  0.1131  0.5831
 8976TIP3   OH248418   3.317   6.717  15.245  0.2484  0.0058 -0.2306
 8976TIP3    H148419   3.296   6.662  15.169 -1.3545  1.2033 -0.7168
 8976TIP3    H248420   3.288   6.666  15.320 -0.6637 -0.0924 -0.6322
 8977TIP3   OH248421   3.397   1.540   2.829  0.3017  0.4121  0.0085
 8977TIP3    H148422   3.412   1.446   2.833  0.3691  0.4410  0.5696
 8977TIP3    H248423   3.478   1.579   2.863  0.2793  0.6716 -0.2305
 8978TIP3   OH248424   3.678   1.148   3.837 -0.5531 -0.5769  0.0293
 8978TIP3    H148425   3.678   1.141   3.933  0.0503 -1.3594 -0.0174
 8978TIP3    H248426   3.767   1.123   3.811 -1.3661 -2.7742 -0.8845
 8979TIP3   OH248427   0.300   6.279  15.555  0.2049  0.2477 -0.4781
 8979TIP3    H148428   0.339   6.367  15.548  1.0800 -0.1269 -0.5024
 8979TIP3    H248429   0.338   6.230  15.482  0.0208 -0.2590 -0.2380
 8980TIP3   OH248430   4.101   4.040   4.131  0.2190 -0.4438 -0.1871
 8980TIP3    H148431   4.118   4.098   4.057  1.2477 -0.5449 -0.0472
 8980TIP3    H248432   4.072   4.098   4.201 -2.0198 -0.4788 -1.0147
 8981TIP3   OH248433   1.496   1.685   3.631 -0.4287 -0.6406 -0.3321
 8981TIP3    H148434   1.525   1.703   3.541  0.5953  0.4408  0.1954
 8981TIP3    H248435   1.422   1.625   3.620 -0.5586 -0.2395 -1.9094
 8982TIP3   OH248436   5.951   5.453  11.890  0.0585 -0.0830  0.2189
 8982TIP3    H148437   5.860   5.483  11.879  0.2107  0.2438 -0.1598
 8982TIP3    H248438   5.987   5.453  11.802  0.2967 -0.6501  0.3135
 8983TIP3   OH248439   1.973   0.602   5.102 -0.1916  0.1605 -0.7055
 8983TIP3    H148440   1.952   0.595   5.195 -0.4291 -0.5532 -0.8081
 8983TIP3    H248441   2.037   0.533   5.087  0.6026  0.9235 -0.8626
 8984TIP3   OH248442   0.959   4.929   5.490  0.0839  0.0241  0.9781
 8984TIP3    H148443   0.967   5.012   5.537  0.6220  0.8007 -0.4191
 8984TIP3    H248444   1.004   4.944   5.407 -2.0071 -0.7993 -0.3918
 8985TIP3   OH248445   2.042   5.272  11.669  0.2469  0.3236 -0.1173
 8985TIP3    H148446   1.961   5.234  11.703  0.6318  0.6342  1.1965
 8985TIP3    H248447   2.096   5.197  11.646  0.9262 -0.0028  2.2840
 8986TIP3   OH248448   4.001   2.732   3.236 -0.3984 -0.1165  0.6714
 8986TIP3    H148449   3.975   2.659   3.180 -0.2021  0.3850 -0.0865
 8986TIP3    H248450   4.012   2.693   3.323 -0.8236 -0.8812  0.3902
 8987TIP3   OH248451   2.601   2.067   4.338  0.5907 -0.5260 -0.0823
 8987TIP3    H148452   2.507   2.059   4.354  0.3411  0.1706 -1.1105
 8987TIP3    H248453   2.629   2.140   4.393  0.5416 -0.7495  0.2419
 8988TIP3   OH248454   2.568   1.730  11.557 -0.1171 -0.1745 -0.2733
 8988TIP3    H148455   2.485   1.761  11.522  0.5798  1.1869 -0.8200
 8988TIP3    H248456   2.584   1.787  11.633  0.6755  0.1130 -0.6458
 8989TIP3   OH248457   1.359   5.463   4.669  0.3571  0.5038 -0.0418
 8989TIP3    H148458   1.393   5.377   4.691 -0.1426 -0.1893 -1.8065
 8989TIP3    H248459   1.406   5.487   4.588  0.3951  1.8283  0.3515
 8990TIP3   OH248460   6.011   3.240  14.820  0.2962 -0.3774  0.1303
 8990TIP3    H148461   6.001   3.279  14.733 -1.9172 -0.1401  0.4400
 8990TIP3    H248462   5.989   3.148  14.808  2.5782 -0.9734 -0.0102
 8991TIP3   OH248463   4.812   4.851   5.978 -0.7276  0.8593  0.0997
 8991TIP3    H148464   4.722   4.831   5.953 -0.7995  2.1606 -0.7602
 8991TIP3    H248465   4.804   4.891   6.065 -0.8131 -0.4230  0.7045
 8992TIP3   OH248466   4.376   6.454  13.692  0.3312  0.3264 -0.3328
 8992TIP3    H148467   4.412   6.374  13.654  1.3991  0.3237  0.6311
 8992TIP3    H248468   4.438   6.477  13.762 -1.0280  0.8718  0.7353
 8993TIP3   OH248469   5.114   1.278  12.348  0.6487  0.3499 -0.4003
 8993TIP3    H148470   5.030   1.318  12.372  0.4949 -0.5475  0.6607
 8993TIP3    H248471   5.171   1.353  12.328  0.3199  1.1255  1.3494
 8994TIP3   OH248472   1.573   3.129  16.809 -0.5266 -0.5797  0.0772
 8994TIP3    H148473   1.657   3.173  16.817 -0.9400  0.5864 -1.5401
 8994TIP3    H248474   1.519   3.165  16.879 -0.0275 -0.4961  0.4152
 8995TIP3   OH248475   5.386   5.589   4.516  0.5508  0.0767 -0.1608
 8995TIP3    H148476   5.437   5.559   4.592  0.4627 -0.2581 -0.2296
 8995TIP3    H248477   5.297   5.556   4.533  0.4862  0.1727 -0.3113
 8996TIP3   OH248478   5.344   2.090  16.924 -0.9532  0.4442 -0.9315
 8996TIP3    H148479   5.306   2.129  16.845 -0.4258  1.2819 -0.7837
 8996TIP3    H248480   5.410   2.153  16.953  1.3040 -1.3890 -1.7499
 8997TIP3   OH248481   5.462   3.550   3.860 -0.4636 -0.0222  0.3984
 8997TIP3    H148482   5.399   3.514   3.922 -0.4798  0.2109  0.5184
 8997TIP3    H248483   5.501   3.473   3.818 -0.7616 -0.1694  0.3873
 8998TIP3   OH248484   0.772   4.081   1.424 -0.1505 -0.1256  0.2062
 8998TIP3    H148485   0.779   4.149   1.357 -0.6070 -0.4611 -0.1905
 8998TIP3    H248486   0.678   4.061   1.428  0.1157 -1.7075 -0.6808
 8999TIP3   OH248487   5.996   5.040  12.304  0.0042 -0.4309  0.0236
 8999TIP3    H148488   6.043   4.958  12.289 -1.1388 -1.0791 -0.0795
 8999TIP3    H248489   5.926   5.016  12.364  0.8715  0.8970  1.6426
 9000TIP3   OH248490   2.422   2.495  14.432  0.2162 -0.1436  0.5676
 9000TIP3    H148491   2.403   2.406  14.403  0.2132 -0.4076  1.3507
 9000TIP3    H248492   2.338   2.540  14.427  0.2455 -0.1384  0.0326
 9001TIP3   OH248493   6.529   0.532  16.337  0.4345 -0.0391  0.0132
 9001TIP3    H148494   6.464   0.561  16.401  0.3291  0.1428 -0.1762
 9001TIP3    H248495   6.609   0.579  16.362 -0.1306  1.6947 -1.2597
 9002TIP3   OH248496   6.378   2.737  12.310 -0.5138 -0.3004  0.8156
 9002TIP3    H148497   6.292   2.773  12.287 -0.5289  0.7572  2.4077
 9002TIP3    H248498   6.440   2.802  12.279 -0.2568 -1.0137 -0.2345
 9003TIP3   OH248499   5.943   1.184   0.285  0.8068  0.2119  0.2211
 9003TIP3    H148500   6.035   1.181   0.309  1.3781 -1.7543 -1.7781
 9003TIP3    H248501   5.907   1.101   0.318  0.0608  0.4444  0.0214
 9004TIP3   OH248502   5.048   6.810   1.582 -0.0456  0.0355  0.5278
 9004TIP3    H148503   5.004   6.745   1.526 -0.0766 -0.8071  1.5108
 9004TIP3    H248504   4.977   6.868   1.611 -0.1943 -0.1509  0.5381
 9005TIP3   OH248505   3.238   2.035  12.469 -0.0539 -0.2630  0.6176
 9005TIP3    H148506   3.318   2.087  12.479 -0.4581  0.8853 -1.5007
 9005TIP3    H248507   3.207   2.022  12.558  1.8195  0.3220  1.4116
 9006TIP3   OH248508   0.661   2.861   2.665  0.1385 -0.8991  0.2455
 9006TIP3    H148509   0.613   2.852   2.747  1.2255 -2.4823  0.7327
 9006TIP3    H248510   0.637   2.784   2.614 -1.8255  0.8419 -1.7006
 9007TIP3   OH248511   2.881   5.531   5.322  0.0422  0.3768  0.1464
 9007TIP3    H148512   2.864   5.494   5.408 -1.8751 -0.7421 -0.6432
 9007TIP3    H248513   2.865   5.625   5.333 -1.9000  0.0436  0.6816
 9008TIP3   OH248514   1.489   6.279   2.193 -0.0822 -0.2116 -0.6536
 9008TIP3    H148515   1.572   6.234   2.179 -1.3707 -3.3708  0.9372
 9008TIP3    H248516   1.428   6.237   2.133 -0.6421  2.0637 -1.8112
 9009TIP3   OH248517   2.483   6.744   6.081  0.5926  0.0501 -0.1317
 9009TIP3    H148518   2.533   6.811   6.035 -0.8403  0.1282 -1.6591
 9009TIP3    H248519   2.549   6.684   6.115  1.7747  0.7776 -1.0618
 9010TIP3   OH248520   5.861   3.735  11.653 -0.3237  0.4792 -0.2655
 9010TIP3    H148521   5.803   3.809  11.634 -2.0642 -0.8994 -0.5111
 9010TIP3    H248522   5.876   3.741  11.747 -2.6256 -0.3054  0.2144
 9011TIP3   OH248523   4.958   4.979  16.011  0.3041  0.6763  0.6925
 9011TIP3    H148524   4.916   4.930  16.082  0.8412  1.7006  1.7711
 9011TIP3    H248525   5.019   5.038  16.056  2.1694 -0.0485 -0.7560
 9012TIP3   OH248526   6.036   2.201  11.616 -0.2929  0.1512 -0.3036
 9012TIP3    H148527   6.073   2.150  11.543  0.8843  1.1824 -0.4782
 9012TIP3    H248528   6.113   2.238  11.660 -1.0123 -0.0872  1.2055
 9013TIP3   OH248529   1.474   0.382  12.642  0.0743  0.5777  0.0617
 9013TIP3    H148530   1.413   0.421  12.580  0.8539  0.0282 -1.0784
 9013TIP3    H248531   1.434   0.299  12.667 -0.0511  0.6212  0.0063
 9014TIP3   OH248532   1.867   3.371   0.200 -0.6399  0.7429 -0.4524
 9014TIP3    H148533   1.943   3.423   0.228 -1.1753  2.5058 -2.0583
 9014TIP3    H248534   1.867   3.379   0.104 -1.0723 -1.8418 -0.7502
 9015TIP3   OH248535   5.694   3.843   1.729 -0.9487  0.0040  0.1875
 9015TIP3    H148536   5.694   3.854   1.634 -0.7665 -0.0446  0.1836
 9015TIP3    H248537   5.660   3.927   1.762 -1.5009 -0.1595  0.0593
 9016TIP3   OH248538   4.580   5.183   1.513  0.5702  0.1235  0.1581
 9016TIP3    H148539   4.509   5.154   1.572  1.3350  1.5762  1.9054
 9016TIP3    H248540   4.537   5.244   1.453  0.0067 -0.3799  0.0378
 9017TIP3   OH248541   2.298   3.460   4.589  0.2769  0.1603 -0.2322
 9017TIP3    H148542   2.259   3.389   4.639  0.5419 -0.7979 -1.3354
 9017TIP3    H248543   2.346   3.511   4.654  0.5778 -1.0144  0.5063
 9018TIP3   OH248544   1.889   2.322  17.114  0.1330  0.2378 -0.0759
 9018TIP3    H148545   1.867   2.405  17.072  3.3937  0.4223 -1.6992
 9018TIP3    H248546   1.877   2.338  17.208 -1.4084  1.7681 -0.4848
 9019TIP3   OH248547   4.753   1.244   1.538  0.1395  0.0629 -0.2561
 9019TIP3    H148548   4.794   1.324   1.506  0.5744  0.1679  0.5336
 9019TIP3    H248549   4.790   1.231   1.625 -1.7396  0.3123  0.6294
 9020TIP3   OH248550   0.471   0.280   0.047 -0.5563 -0.3712  0.3621
 9020TIP3    H148551   0.397   0.270   0.107 -1.4630  1.5696 -0.3478
 9020TIP3    H248552   0.472   0.373   0.025  1.3763 -0.5626 -0.6044
 9021TIP3   OH248553   5.942   1.995   4.797  0.2979 -0.4450  0.2097
 9021TIP3    H148554   5.992   2.053   4.739 -0.7061  0.9614  0.7109
 9021TIP3    H248555   5.916   1.922   4.741 -2.0614  1.6506 -1.6763
 9022TIP3   OH248556   6.400   0.078   3.172 -0.2065  0.6168  0.5210
 9022TIP3    H148557   6.329   0.119   3.123  0.3500  1.8020  0.6593
 9022TIP3    H248558   6.394  -0.015   3.150 -2.5222  0.4858  1.4609
 9023TIP3   OH248559   1.341   2.561  12.133  0.1453 -0.6022 -0.1305
 9023TIP3    H148560   1.366   2.469  12.143  1.4385 -0.2683 -0.1126
 9023TIP3    H248561   1.296   2.564  12.048 -1.9141 -1.6223  0.8666
 9024TIP3   OH248562   4.855   0.170   4.121 -0.0762 -0.1726  0.6583
 9024TIP3    H148563   4.837   0.077   4.134  0.3789 -0.0323  2.7061
 9024TIP3    H248564   4.772   0.214   4.143 -0.0215 -0.0551  0.6325
 9025TIP3   OH248565   0.471   3.898  12.710 -0.1106  0.4161  0.3734
 9025TIP3    H148566   0.547   3.861  12.666  0.3639  2.3322 -0.5326
 9025TIP3    H248567   0.496   3.902  12.802 -0.3103 -1.7075  0.5598
 9026TIP3   OH248568   6.536   5.397  10.836  0.5164  0.4268  0.1022
 9026TIP3    H148569   6.469   5.379  10.770 -1.1506  0.2789  1.7403
 9026TIP3    H248570   6.605   5.333  10.818  0.3624  0.7437 -1.7881
 9027TIP3   OH248571   5.657   4.368  15.918  0.1490 -0.0845  0.1716
 9027TIP3    H148572   5.698   4.419  15.988 -0.1374  1.0287 -0.4601
 9027TIP3    H248573   5.565   4.363  15.943  0.4053 -1.5546  0.9670
 9028TIP3   OH248574   3.911   4.213   1.756 -0.2871  0.1103 -0.2739
 9028TIP3    H148575   3.953   4.147   1.811  0.8555  0.7057 -0.3865
 9028TIP3    H248576   3.938   4.190   1.667  0.1209  0.7151 -0.3124
 9029TIP3   OH248577   0.494   3.054  12.634  0.0902  0.5103  0.1639
 9029TIP3    H148578   0.412   3.067  12.680 -0.1933 -1.1003  0.1827
 9029TIP3    H248579   0.557   3.032  12.703  0.6559  2.1419  0.1976
 9030TIP3   OH248580   6.679   0.819  10.906  0.0607 -0.1698 -0.1434
 9030TIP3    H148581   6.731   0.899  10.900  0.8087 -0.5466  0.9066
 9030TIP3    H248582   6.718   0.771  10.979 -1.1234 -0.9488  0.0045
 9031TIP3   OH248583   6.635   2.184  14.175  0.5659 -0.1779 -0.1438
 9031TIP3    H148584   6.591   2.099  14.189  0.2690 -0.1220 -0.7282
 9031TIP3    H248585   6.592   2.243  14.237  1.2188 -0.6022  0.7300
 9032TIP3   OH248586   1.064   0.245   4.369 -0.2966  0.0365 -0.3332
 9032TIP3    H148587   0.973   0.273   4.359 -0.2577  0.0637 -0.6425
 9032TIP3    H248588   1.113   0.303   4.310  0.0189  0.5112  0.3828
 9033TIP3   OH248589   4.480   1.031   5.495  0.5811 -0.2837 -0.0710
 9033TIP3    H148590   4.478   0.957   5.555 -0.3627  0.3075  0.6663
 9033TIP3    H248591   4.538   1.095   5.537 -0.5435  0.3683  0.5343
 9034TIP3   OH248592   6.583   3.698   4.711 -0.1875 -0.2273  0.1789
 9034TIP3    H148593   6.660   3.707   4.656  0.6388  0.0190  1.3300
 9034TIP3    H248594   6.525   3.639   4.662 -1.0408  2.6351 -2.5164
 9035TIP3   OH248595   0.458   4.864   5.472  0.8064 -0.2779  0.0075
 9035TIP3    H148596   0.448   4.810   5.549  0.5000  1.1731  1.0275
 9035TIP3    H248597   0.412   4.945   5.493  2.2935  0.8734 -0.9432
 9036TIP3   OH248598   1.556   4.639  14.854 -0.1235  0.0990 -0.8505
 9036TIP3    H148599   1.548   4.548  14.825  0.2311  0.5450 -2.3793
 9036TIP3    H248600   1.485   4.685  14.810 -1.5732  0.2387  1.4569
 9037TIP3   OH248601   6.826   5.063   2.367  0.5079 -0.1743  0.0250
 9037TIP3    H148602   6.899   5.069   2.305  0.2328  0.2490 -0.2568
 9037TIP3    H248603   6.825   4.970   2.393  2.0966  0.0798  1.1847
 9038TIP3   OH248604   3.338   2.912  16.100  0.0951 -0.4648 -0.1135
 9038TIP3    H148605   3.271   2.944  16.160 -0.5280 -0.4014 -0.8213
 9038TIP3    H248606   3.381   2.841  16.147  1.3849  1.2571  1.4224
 9039TIP3   OH248607   6.388   4.316  13.516 -0.1717  0.3885  0.2664
 9039TIP3    H148608   6.309   4.362  13.489 -0.5816 -0.7497 -0.5066
 9039TIP3    H248609   6.399   4.246  13.452  0.5283 -0.5056  1.3290
 9040TIP3   OH248610   2.509   1.327   5.317  0.2172 -0.2580  0.1815
 9040TIP3    H148611   2.513   1.275   5.397 -0.4256  0.3160  0.5941
 9040TIP3    H248612   2.591   1.308   5.272 -0.0744 -1.7588  0.2348
 9041TIP3   OH248613   1.820   1.358   5.419 -0.7539  0.1450 -0.7087
 9041TIP3    H148614   1.757   1.299   5.460 -1.5964  1.1403 -0.5399
 9041TIP3    H248615   1.781   1.445   5.427  2.1949  1.4110  2.6417
 9042TIP3   OH248616   0.201   2.048  17.072 -0.3881  0.1231 -0.8628
 9042TIP3    H148617   0.290   2.045  17.038 -0.6081  1.0057 -1.5648
 9042TIP3    H248618   0.184   1.959  17.103  1.0257  0.1595  0.0858
 9043TIP3   OH248619   3.180   0.138   1.641  0.0862 -0.3784  0.2222
 9043TIP3    H148620   3.153   0.184   1.561 -0.7924 -1.7100 -0.2782
 9043TIP3    H248621   3.221   0.058   1.609 -0.7684 -1.1870  1.1063
 9044TIP3   OH248622   3.043   0.494  16.919  0.0638  0.0353 -0.4789
 9044TIP3    H148623   2.991   0.465  16.994 -1.2300 -0.7108 -1.6352
 9044TIP3    H248624   3.130   0.456  16.934 -0.2202 -0.2301  0.5520
 9045TIP3   OH248625   1.808   5.236   4.277 -0.2446 -0.0102  0.8998
 9045TIP3    H148626   1.838   5.202   4.192 -0.6699 -2.9013  1.7755
 9045TIP3    H248627   1.842   5.173   4.341 -0.2475  1.8739  2.8851
 9046TIP3   OH248628   4.398   1.382   4.662 -0.1062 -0.1025 -0.1709
 9046TIP3    H148629   4.323   1.398   4.719  0.4321  0.6904  0.3338
 9046TIP3    H248630   4.384   1.440   4.587 -0.5276 -0.7278 -0.5766
 9047TIP3   OH248631   4.182   5.222  14.605 -0.0070 -0.3721  0.3205
 9047TIP3    H148632   4.097   5.261  14.585  0.8603  2.1432  1.1231
 9047TIP3    H248633   4.194   5.155  14.539 -3.3936 -2.1195  1.2592
 9048TIP3   OH248634   4.174   1.984   1.096  0.2281  0.2739 -0.2433
 9048TIP3    H148635   4.115   2.004   1.023  2.0616 -0.1273 -1.9124
 9048TIP3    H248636   4.213   2.068   1.119  1.2681  0.0761 -1.2235
 9049TIP3   OH248637   5.496   2.859  13.851  0.4908 -0.1351 -0.1135
 9049TIP3    H148638   5.411   2.901  13.865 -0.6690 -2.4233  0.1540
 9049TIP3    H248639   5.554   2.902  13.915 -1.0080 -0.0068  1.2262
 9050TIP3   OH248640   3.632   5.479  11.727  0.0361 -0.0554  0.3270
 9050TIP3    H148641   3.699   5.455  11.663  0.6408 -1.4443  1.4171
 9050TIP3    H248642   3.674   5.547  11.781 -0.2803  0.7285 -0.4012
 9051TIP3   OH248643   3.752   3.162  14.072  0.4567 -0.5167 -0.0325
 9051TIP3    H148644   3.726   3.121  14.154 -1.5548 -0.2891 -0.4946
 9051TIP3    H248645   3.706   3.246  14.071 -0.3247 -0.9078 -1.7548
 9052TIP3   OH248646   5.330   3.407  15.544  0.3185 -0.3974 -0.1556
 9052TIP3    H148647   5.413   3.422  15.589  1.0273  0.4449 -1.6414
 9052TIP3    H248648   5.316   3.313  15.550 -0.0707 -0.2399  2.4877
 9053TIP3   OH248649   4.922   1.266  16.029 -0.6593  0.2610 -0.6313
 9053TIP3    H148650   4.930   1.273  15.934  0.8318  0.4841 -0.5154
 9053TIP3    H248651   5.012   1.258  16.060 -1.1610 -0.5932  0.7102
 9054TIP3   OH248652   5.537   6.698  16.920 -0.0045  0.4661 -0.8135
 9054TIP3    H148653   5.562   6.609  16.944  1.2110  1.0961  0.3651
 9054TIP3    H248654   5.525   6.695  16.825  0.2626 -0.8870 -0.8209
 9055TIP3   OH248655   1.543   5.626   0.125  0.1915  0.4730 -0.6086
 9055TIP3    H148656   1.617   5.658   0.177 -1.0441  1.0988  0.8252
 9055TIP3    H248657   1.550   5.531   0.128  1.4791  0.5170 -1.3317
 9056TIP3   OH248658   5.968   2.674   0.333 -0.1793  0.0968 -0.1211
 9056TIP3    H148659   6.054   2.708   0.309 -0.5817  0.8890 -0.4685
 9056TIP3    H248660   5.983   2.580   0.347  1.2016  0.5762  2.0867
 9057TIP3   OH248661   1.980   1.931  14.035 -0.1486  0.1457 -0.2939
 9057TIP3    H148662   1.944   1.878  14.106 -2.6394  0.3406 -1.2845
 9057TIP3    H248663   2.074   1.915  14.037 -0.3937 -1.3913  1.7618
 9058TIP3   OH248664   4.308   1.448  14.021  0.1087 -0.3810 -0.4515
 9058TIP3    H148665   4.311   1.353  14.025 -0.7274 -0.4016 -0.2820
 9058TIP3    H248666   4.325   1.476  14.111  2.1041 -0.3035 -0.7992
 9059TIP3   OH248667   4.850   3.892  15.950 -0.6547  0.2756 -0.2352
 9059TIP3    H148668   4.828   3.806  15.914 -1.2154  0.7666 -1.0998
 9059TIP3    H248669   4.768   3.941  15.947 -0.0846  1.2156 -0.8333
 9060TIP3   OH248670   6.771   4.740  14.103  0.1922  0.0345  0.2705
 9060TIP3    H148671   6.803   4.661  14.146  0.0198  0.1798  0.6754
 9060TIP3    H248672   6.698   4.711  14.048  0.0286 -0.0686  0.5375
 9061TIP3   OH248673   1.201   5.565   1.401  0.7491 -0.3700 -0.2280
 9061TIP3    H148674   1.194   5.470   1.397  2.0655 -0.4769 -0.3642
 9061TIP3    H248675   1.130   5.597   1.345  0.6182 -1.2752 -0.5974
 9062TIP3   OH248676   4.270   4.857   4.333 -0.0384  0.3129  0.1984
 9062TIP3    H148677   4.223   4.830   4.254  0.6521  0.1935 -0.1852
 9062TIP3    H248678   4.362   4.860   4.306  0.0048  2.2755  0.4524
 9063TIP3   OH248679   6.812   2.374  13.738 -0.0665 -0.1808 -0.5056
 9063TIP3    H148680   6.717   2.386  13.745 -0.1076 -0.9974  0.4766
 9063TIP3    H248681   6.823   2.288  13.699  0.2745 -0.5684  0.4314
 9064TIP3   OH248682   2.070   4.249   5.380 -0.0252 -0.3979 -0.1146
 9064TIP3    H148683   2.080   4.271   5.472  1.8362  1.4107 -0.6734
 9064TIP3    H248684   2.143   4.190   5.361 -0.5455 -0.9644 -0.4010
 9065TIP3   OH248685   2.384   0.743   0.298 -0.1404 -1.1040  0.1593
 9065TIP3    H148686   2.449   0.716   0.362  0.8198  0.0038 -0.2994
 9065TIP3    H248687   2.330   0.808   0.344  1.1201  0.3839 -0.3562
 9066TIP3   OH248688   5.957   4.357   3.354 -0.0910  1.1114  0.2257
 9066TIP3    H148689   5.939   4.284   3.293  0.0874  0.7072  0.6477
 9066TIP3    H248690   5.884   4.417   3.342 -0.7440  0.3993  0.5656
 9067TIP3   OH248691   6.521   5.498  14.350  0.5817 -0.4774  0.2655
 9067TIP3    H148692   6.532   5.574  14.292  1.6486  0.3576  1.5071
 9067TIP3    H248693   6.544   5.423  14.296  1.1742  0.2464 -0.5151
 9068TIP3   OH248694   3.628   0.225   5.922  0.1450 -0.2611  0.0452
 9068TIP3    H148695   3.644   0.207   5.829 -2.3118 -1.8408 -0.1610
 9068TIP3    H248696   3.553   0.284   5.922  1.2498  1.2183  1.0538
 9069TIP3   OH248697   0.323   1.380   3.536  0.4270 -0.1186  0.0526
 9069TIP3    H148698   0.344   1.463   3.493 -0.6832 -0.0599 -0.3890
 9069TIP3    H248699   0.301   1.405   3.626 -0.6936  0.1782 -0.2882
 9070TIP3   OH248700   2.387   3.717  14.805 -0.6120  0.5241  0.5480
 9070TIP3    H148701   2.464   3.742  14.856  0.9100  1.0059 -1.8270
 9070TIP3    H248702   2.418   3.648  14.747 -2.2211  0.0972  0.1516
 9071TIP3   OH248703   1.624   4.577  14.539 -0.5052 -0.2653  0.1657
 9071TIP3    H148704   1.643   4.599  14.447  2.6157 -0.2661  0.7035
 9071TIP3    H248705   1.599   4.661  14.578  2.7061  0.7915  0.2438
 9072TIP3   OH248706   1.144   1.458   5.107  0.5233  0.2026  0.1875
 9072TIP3    H148707   1.061   1.428   5.070  0.6784 -0.8581  0.6645
 9072TIP3    H248708   1.161   1.542   5.064  0.5607 -0.8401 -1.9837
 9073TIP3   OH248709   0.967   5.064   5.961  0.1801 -0.4263  0.1769
 9073TIP3    H148710   0.969   5.025   6.048 -1.5799 -2.0561 -0.4312
 9073TIP3    H248711   0.966   5.158   5.976  1.8890 -0.5975  1.8100
 9074TIP3   OH248712   0.520   3.452   4.397 -0.1630  0.4576  0.0278
 9074TIP3    H148713   0.518   3.459   4.301 -0.0842 -0.5258 -0.0572
 9074TIP3    H248714   0.503   3.541   4.428 -0.9177  0.6515 -0.8992
 9075TIP3   OH248715   3.847   1.579  10.577 -0.3002 -0.4024  0.2161
 9075TIP3    H148716   3.840   1.520  10.652  0.6295 -0.0949  0.5573
 9075TIP3    H248717   3.827   1.665  10.613 -0.9119 -0.3921 -0.1257
 9076TIP3   OH248718   1.795   0.199   2.404 -0.6198  0.2524 -0.5113
 9076TIP3    H148719   1.792   0.278   2.351 -0.4896  0.7534  0.2201
 9076TIP3    H248720   1.825   0.228   2.490 -0.8474 -0.5445 -0.1499
 9077TIP3   OH248721   1.476   2.466   2.206 -0.6605  0.9091 -0.3427
 9077TIP3    H148722   1.545   2.474   2.140 -0.7018  1.7322 -0.3049
 9077TIP3    H248723   1.465   2.555   2.239 -0.7172  0.5227  0.7065
 9078TIP3   OH248724   0.480   6.474   5.834 -0.2081  0.0876 -0.2729
 9078TIP3    H148725   0.494   6.566   5.859 -2.0520  0.5287 -0.7049
 9078TIP3    H248726   0.422   6.440   5.902 -1.0360 -0.2058 -1.1160
 9079TIP3   OH248727   4.517   2.693   5.808  0.5580 -0.4852  0.0520
 9079TIP3    H148728   4.432   2.735   5.809 -0.2750 -2.1039 -0.0769
 9079TIP3    H248729   4.499   2.600   5.824  2.1788 -1.0301 -0.9764
 9080TIP3   OH248730   4.223   4.619  11.473 -0.3455 -0.1672  0.3443
 9080TIP3    H148731   4.130   4.619  11.450 -1.4016  0.5763  3.9554
 9080TIP3    H248732   4.234   4.541  11.528  0.7862  0.5435  1.1727
 9081TIP3   OH248733   2.299   0.093  14.854  0.6848  0.0791 -0.7299
 9081TIP3    H148734   2.207   0.101  14.879  1.2480  2.8733  0.8199
 9081TIP3    H248735   2.343   0.063  14.934  1.5226  2.0171 -0.4158
 9082TIP3   OH248736   4.762   3.536  14.480  0.2111  0.2603 -0.2649
 9082TIP3    H148737   4.764   3.516  14.573 -0.5264  1.2804 -0.0157
 9082TIP3    H248738   4.722   3.622  14.474  0.0235  0.1136 -1.5461
 9083TIP3   OH248739   3.053   5.793  11.846  0.2830  0.2911  0.2258
 9083TIP3    H148740   3.061   5.872  11.793  3.5610  1.2443  1.8164
 9083TIP3    H248741   3.056   5.721  11.783 -0.8983  1.3681 -1.1278
 9084TIP3   OH248742   5.877   1.336   5.072  0.2147  0.4620 -0.3554
 9084TIP3    H148743   5.901   1.370   5.158 -0.7530  0.3912 -0.0383
 9084TIP3    H248744   5.801   1.280   5.089  1.5939 -1.6972 -0.8927
 9085TIP3   OH248745   6.314   3.642  16.194 -0.2656  0.2337 -0.6199
 9085TIP3    H148746   6.408   3.655  16.179 -0.1206 -2.0912 -2.2469
 9085TIP3    H248747   6.300   3.549  16.176 -2.6055  0.1238  1.2899
 9086TIP3   OH248748   3.357   2.862   4.790  0.2439 -0.2683 -0.5867
 9086TIP3    H148749   3.329   2.773   4.769  0.0533 -0.7086  1.3064
 9086TIP3    H248750   3.434   2.850   4.846 -0.9265  0.6339  1.3404
 9087TIP3   OH248751   5.865   4.487  12.143 -0.5439 -0.1699 -0.6709
 9087TIP3    H148752   5.823   4.432  12.209 -1.4515 -0.1495 -1.2128
 9087TIP3    H248753   5.903   4.425  12.081 -0.3487 -0.1872 -0.5350
 9088TIP3   OH248754   0.682   4.134   6.003  1.0098  0.0930  0.0314
 9088TIP3    H148755   0.756   4.101   6.054  2.1346  2.6209  0.1944
 9088TIP3    H248756   0.628   4.180   6.067  0.7576  0.6004 -0.5426
 9089TIP3   OH248757   4.122   4.265  16.825  0.1938 -0.3210 -0.3441
 9089TIP3    H148758   4.161   4.345  16.859 -1.5545  0.3545  0.1770
 9089TIP3    H248759   4.093   4.218  16.904 -2.4808  0.5168 -0.7140
 9090TIP3   OH248760   2.738   5.140  12.485 -0.6313 -0.3566  0.2954
 9090TIP3    H148761   2.822   5.102  12.511 -0.8945 -1.0784  0.1086
 9090TIP3    H248762   2.713   5.092  12.406 -0.6501  0.6743 -0.3335
 9091TIP3   OH248763   0.486   0.529   5.893 -0.2410  0.1418 -0.3634
 9091TIP3    H148764   0.478   0.502   5.802  1.7456 -0.2795 -0.4395
 9091TIP3    H248765   0.489   0.625   5.889  0.5328  0.1036 -0.8098
 9092TIP3   OH248766   5.529   1.507  16.164 -0.5915  0.1297 -0.6649
 9092TIP3    H148767   5.451   1.532  16.114 -3.7300 -1.5909  2.8922
 9092TIP3    H248768   5.522   1.412  16.174  1.8065 -0.0233  0.1012
 9093TIP3   OH248769   1.497   2.649   5.792 -0.2812 -0.3909  0.9744
 9093TIP3    H148770   1.542   2.655   5.708 -0.4329  1.6780  0.9929
 9093TIP3    H248771   1.486   2.740   5.820 -1.8703 -0.9674  2.3717
 9094TIP3   OH248772   2.995   6.525  14.149 -0.4964 -0.0678  0.8857
 9094TIP3    H148773   2.921   6.477  14.112  0.3896 -1.9198  1.3962
 9094TIP3    H248774   2.955   6.588  14.208 -1.8253  1.5285 -1.5641
 9095TIP3   OH248775   4.745   3.770   5.573 -0.3213  0.5335  0.1283
 9095TIP3    H148776   4.743   3.730   5.660  0.9164 -0.4004 -0.2395
 9095TIP3    H248777   4.749   3.864   5.589 -1.2117  0.4289  1.0535
 9096TIP3   OH248778   4.756   4.961   1.028  0.2726 -0.2691 -0.9411
 9096TIP3    H148779   4.664   4.951   1.004  0.2608 -0.0641 -0.9816
 9096TIP3    H248780   4.756   4.970   1.124  0.2405 -0.1542 -0.9518
 9097TIP3   OH248781   5.030   4.830  11.134  0.0696  0.0097  0.9734
 9097TIP3    H148782   5.022   4.752  11.190  0.0928 -0.1352  0.7763
 9097TIP3    H248783   5.012   4.798  11.046 -0.8657  0.4141  1.0032
 9098TIP3   OH248784   2.550   5.582  12.343 -0.1846 -0.0236 -0.0538
 9098TIP3    H148785   2.526   5.496  12.378  0.0519  0.0331  0.2489
 9098TIP3    H248786   2.587   5.563  12.257  2.5097 -0.5306  1.1223
 9099TIP3   OH248787   2.156   6.459   2.906  0.3901 -0.6275  0.1601
 9099TIP3    H148788   2.119   6.510   2.834 -0.4436 -1.0325  0.2888
 9099TIP3    H248789   2.160   6.521   2.979 -0.3158 -0.6557  0.2275
 9100TIP3   OH248790   2.744   2.833  12.829 -0.1830  0.3806 -0.1650
 9100TIP3    H148791   2.755   2.738  12.831 -1.7181  0.1889  0.0853
 9100TIP3    H248792   2.803   2.865  12.897 -1.3554 -0.5877  1.3500
 9101TIP3   OH248793   3.092   4.582  14.032  0.0203  0.4101 -0.8458
 9101TIP3    H148794   3.102   4.495  14.071  3.0055  0.0073 -2.2658
 9101TIP3    H248795   3.056   4.565  13.945 -0.5264  0.7364 -0.6915
 9102TIP3   OH248796   0.393   0.890   6.101  0.2984 -0.3495  0.6504
 9102TIP3    H148797   0.429   0.852   6.021  0.9021  1.5913 -0.0425
 9102TIP3    H248798   0.455   0.863   6.169  0.8648 -0.3894  0.1291
 9103TIP3   OH248799   5.946   2.836  10.677  0.6886 -0.1483  0.1229
 9103TIP3    H148800   6.027   2.792  10.653 -1.0989 -3.7434 -0.0234
 9103TIP3    H248801   5.903   2.855  10.594 -0.5578 -2.4867  0.1462
 9104TIP3   OH248802   1.639   2.781  11.780  0.5373 -0.1924 -0.4020
 9104TIP3    H148803   1.578   2.852  11.796 -0.2653 -0.9484 -0.0111
 9104TIP3    H248804   1.725   2.819  11.796  0.2574  1.0913 -1.6650
 9105TIP3   OH248805   3.363   0.387  15.403 -0.3611  0.4863 -0.1461
 9105TIP3    H148806   3.307   0.405  15.327 -0.8811  1.8335  0.5059
 9105TIP3    H248807   3.374   0.473  15.445 -0.8776 -0.3449  1.8259
 9106TIP3   OH248808   4.834   5.513   1.893  0.7010  0.0040  0.1508
 9106TIP3    H148809   4.801   5.572   1.825  0.3132  0.8103  1.0176
 9106TIP3    H248810   4.759   5.459   1.916  1.0005 -0.7086 -0.4911
 9107TIP3   OH248811   0.858   0.901  12.258 -0.4397  0.1587 -0.4837
 9107TIP3    H148812   0.808   0.830  12.298  0.8655 -2.1329 -2.5939
 9107TIP3    H248813   0.897   0.948  12.331  2.1300 -3.9562  1.1255
 9108TIP3   OH248814   2.241   2.535   6.431 -0.4861 -0.0976  0.3533
 9108TIP3    H148815   2.293   2.601   6.477  3.2426 -1.4571 -1.4731
 9108TIP3    H248816   2.256   2.454   6.480 -0.6728 -0.5813 -0.3771
 9109TIP3   OH248817   4.889   1.363  12.842  0.1109 -0.2700 -0.3740
 9109TIP3    H148818   4.833   1.392  12.913 -1.3546  0.7410 -1.8615
 9109TIP3    H248819   4.903   1.442  12.789  0.9240 -1.0461 -1.3546
 9110TIP3   OH248820   0.445   3.316   3.891 -0.1463 -0.0066  0.1197
 9110TIP3    H148821   0.423   3.293   3.801  0.9958  0.6554 -0.3582
 9110TIP3    H248822   0.500   3.243   3.921  1.4344  0.8622 -0.5543
 9111TIP3   OH248823   0.530   1.485   0.655  0.0789  0.2864 -0.1750
 9111TIP3    H148824   0.440   1.511   0.673 -0.4461 -0.0945 -2.0324
 9111TIP3    H248825   0.577   1.568   0.642 -0.3868  0.4568 -0.8075
 9112TIP3   OH248826   2.120   4.567  16.587  0.0508  0.5378 -0.6631
 9112TIP3    H148827   2.045   4.550  16.530 -1.1729  1.9669  0.4167
 9112TIP3    H248828   2.107   4.508  16.662 -0.2899  1.1222 -0.2496
 9113TIP3   OH248829   0.336   1.399   2.781 -0.1718  0.0336 -0.2718
 9113TIP3    H148830   0.316   1.348   2.702 -1.7509  2.7874 -1.7982
 9113TIP3    H248831   0.257   1.450   2.797  1.5247  2.5417  0.6792
 9114TIP3   OH248832   2.767   4.340  12.711 -0.0532  0.4262 -0.0769
 9114TIP3    H148833   2.688   4.308  12.754  0.5084  0.6260  1.1578
 9114TIP3    H248834   2.748   4.335  12.617 -2.3397  2.4941  0.1679
 9115TIP3   OH248835   5.873   2.902   2.130  0.3452 -0.3525 -0.6154
 9115TIP3    H148836   5.783   2.870   2.138  0.1339  0.7117  3.7146
 9115TIP3    H248837   5.884   2.920   2.037 -3.7001 -1.0957 -1.4156
 9116TIP3   OH248838   6.222   6.106  13.241  0.2686  0.7233  0.4709
 9116TIP3    H148839   6.211   6.174  13.175  2.3547  0.2182 -0.4942
 9116TIP3    H248840   6.276   6.146  13.308  0.9859  0.2274  0.2001
 9117TIP3   OH248841   4.585   2.453  14.150  0.1023  0.4758  1.2299
 9117TIP3    H148842   4.549   2.424  14.067  0.4082 -1.4094  1.6997
 9117TIP3    H248843   4.667   2.496  14.127 -0.7922  1.8439  0.4300
 9118TIP3   OH248844   1.093   0.980   0.975  0.1868 -0.1497 -0.1981
 9118TIP3    H148845   1.066   1.044   0.909  0.9858  0.1172 -0.2820
 9118TIP3    H248846   1.028   0.911   0.970 -1.9464  1.5896  1.3128
 9119TIP3   OH248847   2.502   1.835  11.953  0.2973  0.0929  0.0433
 9119TIP3    H148848   2.510   1.866  11.862 -0.0848 -0.4429 -0.1750
 9119TIP3    H248849   2.592   1.826  11.983  0.4504 -0.7030 -0.6221
 9120TIP3   OH248850   4.946   1.774   3.599 -0.0473  0.5145 -0.6653
 9120TIP3    H148851   4.966   1.855   3.647  0.2128  0.1062 -0.0746
 9120TIP3    H248852   4.912   1.804   3.515 -0.5089  1.2472 -0.2311
 9121TIP3   OH248853   3.362   0.866  16.449 -0.5374 -0.0466  0.1975
 9121TIP3    H148854   3.417   0.827  16.517 -0.7037 -0.2647  0.2088
 9121TIP3    H248855   3.364   0.960  16.468  2.8527  0.5103 -1.9655
 9122TIP3   OH248856   6.398   1.764  16.406  0.3953  0.6561  0.1574
 9122TIP3    H148857   6.490   1.778  16.384  0.1109  1.4162 -0.6279
 9122TIP3    H248858   6.351   1.827  16.351 -0.8880 -2.0879 -2.1899
 9123TIP3   OH248859   4.310   1.448   0.685 -0.3906  0.2529  0.6585
 9123TIP3    H148860   4.388   1.393   0.680 -1.0226 -0.6179 -0.0092
 9123TIP3    H248861   4.275   1.432   0.772 -0.6179 -0.4883  0.4364
 9124TIP3   OH248862   2.129   3.968   5.123 -0.6586 -0.1403 -0.2568
 9124TIP3    H148863   2.055   4.015   5.085 -1.1137  0.0538  0.8246
 9124TIP3    H248864   2.186   4.036   5.158 -1.5386 -0.3633  1.7127
 9125TIP3   OH248865   4.103   5.131   5.021 -0.2898 -0.2969 -0.7764
 9125TIP3    H148866   4.139   5.213   5.054 -0.2048 -0.3321 -0.7786
 9125TIP3    H248867   4.025   5.156   4.972 -2.2280 -0.4715  1.9574
 9126TIP3   OH248868   6.114   3.704  15.512  0.1249 -0.0321  0.3751
 9126TIP3    H148869   6.090   3.796  15.524  1.3553  0.6274 -1.6129
 9126TIP3    H248870   6.188   3.691  15.571 -0.2105  0.1909  0.8461
 9127TIP3   OH248871   5.151   6.113   0.285  0.1340  0.3654 -0.1876
 9127TIP3    H148872   5.090   6.175   0.244 -0.1837 -1.0691 -1.9919
 9127TIP3    H248873   5.234   6.161   0.290 -0.6564  1.7044  0.5820
 9128TIP3   OH248874   3.055   5.985  12.883 -0.0567  0.0898  0.2494
 9128TIP3    H148875   3.128   6.017  12.937 -1.1307  0.8729  1.2672
 9128TIP3    H248876   3.075   6.017  12.795  1.0768 -0.1271  0.4108
 9129TIP3   OH248877   1.313   6.554  14.649 -0.2639 -0.7039 -0.0432
 9129TIP3    H148878   1.252   6.601  14.593  0.5238 -0.7410 -0.9763
 9129TIP3    H248879   1.317   6.605  14.729 -0.0455  0.3817 -0.7239
 9130TIP3   OH248880   4.196   6.590  13.047 -0.4661  0.0078 -1.0069
 9130TIP3    H148881   4.228   6.499  13.050 -0.3119  0.0448 -1.4358
 9130TIP3    H248882   4.247   6.630  12.976  1.1358  1.0771  0.6605
 9131TIP3   OH248883   2.867   3.066  11.442  0.3218 -0.0315  0.2066
 9131TIP3    H148884   2.773   3.087  11.440  0.9869  4.5025  3.0958
 9131TIP3    H248885   2.885   3.035  11.353 -3.8108 -1.1545 -0.5000
 9132TIP3   OH248886   5.178   5.145  14.543 -0.4438 -0.1173  1.0511
 9132TIP3    H148887   5.089   5.124  14.513  0.3505 -0.3586 -1.3681
 9132TIP3    H248888   5.231   5.070  14.516  0.7696  0.7546  0.9386
 9133TIP3   OH248889   6.799   5.680  13.535 -0.1067 -0.5394 -0.2289
 9133TIP3    H148890   6.804   5.586  13.551  0.4102 -0.6235 -0.8442
 9133TIP3    H248891   6.713   5.693  13.496 -1.4288 -0.3205  2.5246
 9134TIP3   OH248892   3.746   1.555   5.077 -0.2560  0.1170 -0.1659
 9134TIP3    H148893   3.654   1.561   5.100 -0.6858 -1.1340 -1.4489
 9134TIP3    H248894   3.783   1.497   5.144 -0.3428  0.7327  0.4320
 9135TIP3   OH248895   2.522   3.365   6.494  0.0470 -0.6319  0.2459
 9135TIP3    H148896   2.579   3.289   6.496 -1.3332 -1.7572 -1.0821
 9135TIP3    H248897   2.453   3.346   6.557 -0.8484 -0.9676 -0.8038
 9136TIP3   OH248898   2.075   6.557   2.424  0.2560 -0.0687  0.1553
 9136TIP3    H148899   1.989   6.556   2.381  1.2459  1.1762 -2.0140
 9136TIP3    H248900   2.117   6.476   2.396  0.4787  0.2025 -0.2946
 9137TIP3   OH248901   3.643   1.540   0.821  0.1977  0.1120 -0.7378
 9137TIP3    H148902   3.601   1.609   0.871  0.4423  0.3704 -0.8851
 9137TIP3    H248903   3.574   1.476   0.805 -0.1253  0.5047 -0.9248
 9138TIP3   OH248904   6.273   2.683  10.960  0.2351  0.0682 -0.5140
 9138TIP3    H148905   6.208   2.718  11.021  0.0539 -1.4334  0.1975
 9138TIP3    H248906   6.251   2.724  10.876 -1.4705 -0.1912 -0.2360
 9139TIP3   OH248907   0.966   0.757  11.642  0.3713  0.3478  0.4722
 9139TIP3    H148908   0.978   0.690  11.710  0.4008 -0.9452 -0.7771
 9139TIP3    H248909   0.884   0.800  11.666 -0.5889 -1.3220  0.3559
 9140TIP3   OH248910   4.787   3.384  11.498 -0.1170  0.7118  0.3660
 9140TIP3    H148911   4.786   3.291  11.475 -1.6199  0.5523  0.9738
 9140TIP3    H248912   4.783   3.385  11.593  2.9499  1.4071  0.6003
 9141TIP3   OH248913   3.605   2.430   0.832 -0.1508  0.1424 -0.0644
 9141TIP3    H148914   3.662   2.502   0.805 -1.3755  1.9164  1.7654
 9141TIP3    H248915   3.631   2.410   0.922 -0.9529 -0.5367  0.0345
 9142TIP3   OH248916   3.507   4.018  16.837 -0.5259  0.3404 -0.2025
 9142TIP3    H148917   3.542   4.106  16.848  0.4352  0.1748 -1.6853
 9142TIP3    H248918   3.493   3.987  16.926 -0.2001  1.7164  0.3588
 9143TIP3   OH248919   6.264   5.751   2.345  0.1713  0.1455  0.3317
 9143TIP3    H148920   6.219   5.829   2.311  1.8501  0.7954 -0.5369
 9143TIP3    H248921   6.228   5.739   2.432 -2.0693  0.2694 -0.5203
 9144TIP3   OH248922   2.501   6.620  16.475  0.3790 -0.6444 -0.4053
 9144TIP3    H148923   2.478   6.668  16.395 -0.6634  1.3995  1.0253
 9144TIP3    H248924   2.592   6.644  16.492  0.8283 -1.6449 -1.3284
 9145TIP3   OH248925   5.482   4.169  15.125 -0.0806  0.5817  0.7385
 9145TIP3    H148926   5.450   4.178  15.035 -0.0543 -4.7447 -0.0704
 9145TIP3    H248927   5.577   4.178  15.118 -0.1828  1.7099  0.5829
 9146TIP3   OH248928   0.592   0.231   1.525 -0.0962  0.8676  0.3877
 9146TIP3    H148929   0.543   0.154   1.496  1.2513  0.3939 -0.7192
 9146TIP3    H248930   0.576   0.297   1.457  0.5972  0.7780  0.1259
 9147TIP3   OH248931   2.314   1.828  11.480 -0.1519  0.0395  0.1877
 9147TIP3    H148932   2.275   1.826  11.393  1.6946  0.9680 -0.7243
 9147TIP3    H248933   2.272   1.902  11.524  0.8154  1.3108 -0.9365
 9148TIP3   OH248934   0.892   4.933  13.765 -0.1135  0.4338  0.2350
 9148TIP3    H148935   0.942   4.857  13.734  0.5912  0.5194  1.1382
 9148TIP3    H248936   0.830   4.951  13.693  0.1471 -0.5805 -0.2695
 9149TIP3   OH248937   5.379   4.683   2.240  0.2245  0.3692  0.3473
 9149TIP3    H148938   5.433   4.689   2.319 -0.7603  1.1487  0.9743
 9149TIP3    H248939   5.370   4.589   2.224 -0.9629  0.1315  2.1685
 9150TIP3   OH248940   3.372   4.691  10.329  0.3770  0.2588  0.7058
 9150TIP3    H148941   3.308   4.706  10.398  0.1585 -0.1406  0.5979
 9150TIP3    H248942   3.448   4.653  10.374 -0.6370 -2.2595  0.4693
 9151TIP3   OH248943   3.872   6.060  14.145  1.1219  0.0193 -0.1067
 9151TIP3    H148944   3.827   6.047  14.229  1.9107 -1.3238  0.1268
 9151TIP3    H248945   3.958   6.019  14.157  1.8704  1.2577 -1.0355
 9152TIP3   OH248946   2.128   4.431   4.791 -0.3537  0.1904  0.0557
 9152TIP3    H148947   2.144   4.459   4.881 -0.6502  0.3791  0.0532
 9152TIP3    H248948   2.129   4.336   4.794  0.9707  0.1789  0.0154
 9153TIP3   OH248949   4.166   3.346  16.451 -0.4535 -0.1008 -0.0280
 9153TIP3    H148950   4.155   3.256  16.481 -0.0124  0.0421  0.5604
 9153TIP3    H248951   4.247   3.376  16.491 -1.1881  0.9551  0.7315
 9154TIP3   OH248952   4.715   5.665  13.288  0.5583  0.0311 -0.0318
 9154TIP3    H148953   4.743   5.649  13.198 -1.9828 -1.2672 -0.6994
 9154TIP3    H248954   4.715   5.760  13.296  0.7429  0.1794 -1.4416
 9155TIP3   OH248955   5.604   2.438   0.999  0.2329 -0.8411 -0.9122
 9155TIP3    H148956   5.573   2.419   1.088 -1.0584 -0.7805 -1.3264
 9155TIP3    H248957   5.575   2.363   0.948 -0.3343 -0.2004 -1.5545
 9156TIP3   OH248958   3.965   5.676  11.433  0.5360 -0.2773  0.3343
 9156TIP3    H148959   3.889   5.637  11.389  0.5480 -0.7017  0.6809
 9156TIP3    H248960   3.929   5.722  11.509  0.6478 -0.6990  0.6462
 9157TIP3   OH248961   4.596   3.917   4.814  0.0521 -0.0374 -0.1269
 9157TIP3    H148962   4.628   3.883   4.898 -0.1679 -0.8780 -0.3757
 9157TIP3    H248963   4.667   3.897   4.752 -0.4988 -0.9738 -0.4738
 9158TIP3   OH248964   5.052   3.460   0.014  0.5464  0.1961 -1.3218
 9158TIP3    H148965   5.061   3.392   0.081 -1.4539  0.3693 -0.8027
 9158TIP3    H248966   5.069   3.414  -0.068  3.7520  0.1428 -0.7479
 9159TIP3   OH248967   2.332   2.355  13.105 -0.4402  0.2557  0.2624
 9159TIP3    H148968   2.395   2.301  13.057 -0.1600  0.6586  0.1749
 9159TIP3    H248969   2.385   2.426  13.142 -0.6086 -0.1546  1.3407
 9160TIP3   OH248970   5.385   2.026   0.047  0.1183  0.5078 -0.1495
 9160TIP3    H148971   5.438   2.052   0.122  1.9755  0.5482 -1.4024
 9160TIP3    H248972   5.417   1.938   0.026  0.3235  0.8845 -1.4662
 9161TIP3   OH248973   6.138   3.480  13.850  0.1725 -0.5019  0.0278
 9161TIP3    H148974   6.211   3.437  13.805  0.9794 -0.9450  1.6880
 9161TIP3    H248975   6.159   3.573  13.845  0.9723 -0.6370  0.6514
 9162TIP3   OH248976   3.617   5.560   2.625  0.3621 -0.2433  0.3858
 9162TIP3    H148977   3.533   5.593   2.657  0.6432 -0.0083  0.8820
 9162TIP3    H248978   3.630   5.605   2.541 -1.3163 -2.2958 -1.1060
 9163TIP3   OH248979   6.107   3.946   3.282 -0.4196 -0.0590 -0.0109
 9163TIP3    H148980   6.061   4.028   3.262  0.4664  1.0052  2.0532
 9163TIP3    H248981   6.198   3.963   3.259 -0.6729 -1.6519 -2.6556
 9164TIP3   OH248982   3.991   1.936   5.355 -0.4066 -0.0364  0.1855
 9164TIP3    H148983   3.975   2.029   5.375  2.6388  0.6575 -0.1450
 9164TIP3    H248984   3.961   1.889   5.432  0.4587  1.4967  1.5143
 9165TIP3   OH248985   1.239   3.666   3.710  0.3394  0.0380 -0.2660
 9165TIP3    H148986   1.202   3.677   3.798  0.7560 -1.3637  0.1036
 9165TIP3    H248987   1.326   3.706   3.716  1.1013 -1.6464  0.5176
 9166TIP3   OH248988   3.887   2.339   4.096  0.0441  0.3962 -0.0244
 9166TIP3    H148989   3.939   2.419   4.100 -0.8360  1.1004 -1.5542
 9166TIP3    H248990   3.806   2.361   4.143  0.1393  0.1129  0.2743
 9167TIP3   OH248991   1.423   1.177   1.171  0.0741  0.1255  0.7974
 9167TIP3    H148992   1.335   1.158   1.204 -0.6582  2.9311  0.7789
 9167TIP3    H248993   1.473   1.198   1.250  0.2659  0.1012  0.6806
 9168TIP3   OH248994   6.184   1.427  15.943 -0.3352  0.5167  0.2954
 9168TIP3    H148995   6.175   1.418  16.038  0.6568  2.0998  0.5735
 9168TIP3    H248996   6.274   1.398  15.925 -0.5869  0.0314 -0.2017
 9169TIP3   OH248997   1.425   3.061  15.551  0.2726  0.3801  0.0798
 9169TIP3    H148998   1.342   3.019  15.530 -0.2791  0.5260  1.8269
 9169TIP3    H248999   1.409   3.154  15.535  0.6127  0.2525 -1.0852
 9170TIP3   OH249000   6.463   2.903   5.566  0.0400  0.0116 -0.1269
 9170TIP3    H149001   6.421   2.913   5.651 -0.2411 -0.2558 -0.2317
 9170TIP3    H249002   6.497   2.813   5.566 -2.3414 -0.9892 -1.3217
 9171TIP3   OH249003   5.258   4.535   4.031  0.2676  0.1082 -0.0117
 9171TIP3    H149004   5.288   4.575   4.112  1.3839 -0.9778  0.1437
 9171TIP3    H249005   5.164   4.554   4.027  0.4373  1.1927  0.9173
 9172TIP3   OH249006   0.470   6.277  12.553  0.4606 -0.1623 -0.0306
 9172TIP3    H149007   0.430   6.361  12.576 -2.2302 -0.9285 -1.5212
 9172TIP3    H249008   0.474   6.229  12.636  1.8531  1.2870  0.8039
 9173TIP3   OH249009   5.395   6.541  17.185 -0.0797 -0.6297  0.3744
 9173TIP3    H149010   5.353   6.626  17.195 -0.0517 -0.8211  2.4968
 9173TIP3    H249011   5.367   6.510  17.099  1.4509  2.3429 -1.3717
 9174TIP3   OH249012   0.659   5.919   3.861 -0.2518 -0.4670 -0.6240
 9174TIP3    H149013   0.704   5.856   3.917  0.6340  0.8607  0.2305
 9174TIP3    H249014   0.729   5.978   3.830 -1.2552  1.1585  0.0747
 9175TIP3   OH249015   4.764   0.380   1.508  0.0368  0.4923 -0.4017
 9175TIP3    H149016   4.725   0.462   1.539 -0.2055  0.5498 -0.8503
 9175TIP3    H249017   4.698   0.343   1.449  0.0833 -0.0955 -0.0989
 9176TIP3   OH249018   4.286   4.798  16.316  0.1673  0.1220  0.4596
 9176TIP3    H149019   4.351   4.729  16.329  0.6174  0.1680 -1.2496
 9176TIP3    H249020   4.211   4.754  16.276  1.2327  0.8213 -2.6014
 9177TIP3   OH249021   5.325   5.017  14.824  0.2187 -0.5712  0.1158
 9177TIP3    H149022   5.265   5.050  14.758  1.4927 -0.1391 -0.8613
 9177TIP3    H249023   5.324   5.082  14.894 -0.0691 -0.3190 -0.1272
 9178TIP3   OH249024   5.857   3.969   5.320  0.1589  0.8296 -0.5015
 9178TIP3    H149025   5.767   3.988   5.348 -0.2030 -1.1437 -0.1753
 9178TIP3    H249026   5.851   3.962   5.225 -0.3149 -0.5172 -0.3898
 9179TIP3   OH249027   3.194   4.947  15.909  0.5103 -0.2492  0.5802
 9179TIP3    H149028   3.287   4.923  15.910  0.1081 -2.5014 -2.2571
 9179TIP3    H249029   3.148   4.866  15.929 -0.8870  0.4286  0.2502
 9180TIP3   OH249030   3.834   1.751  11.996  0.0702 -0.2126  0.4959
 9180TIP3    H149031   3.868   1.759  11.906 -1.5440 -1.9182 -0.3377
 9180TIP3    H249032   3.913   1.746  12.050  1.1157 -0.5322 -0.9784
 9181TIP3   OH249033   4.582   6.009  12.361  0.3523 -0.2430 -0.0576
 9181TIP3    H149034   4.664   5.992  12.314  1.7790 -1.2526  2.6221
 9181TIP3    H249035   4.558   6.098  12.335  1.8362 -0.2244 -1.5383
 9182TIP3   OH249036   1.190   2.143   3.461  0.3772 -0.2678 -0.3883
 9182TIP3    H149037   1.215   2.149   3.369 -0.7162  1.3794 -0.6253
 9182TIP3    H249038   1.096   2.124   3.460  0.3821 -0.3845  0.3868
 9183TIP3   OH249039   6.243   3.331   2.848 -0.2266  0.1722  0.3549
 9183TIP3    H149040   6.179   3.337   2.777  0.9077 -0.4014 -0.7704
 9183TIP3    H249041   6.306   3.266   2.817  0.7966  0.5863  1.4946
 9184TIP3   OH249042   4.439   0.892  15.605 -0.2036  0.0414  0.6729
 9184TIP3    H149043   4.476   0.880  15.518 -0.4084  0.8733  0.4628
 9184TIP3    H249044   4.491   0.961  15.645  0.0996 -0.5606  1.3428
 9185TIP3   OH249045   1.984   6.074   5.906 -0.3748 -0.3571 -0.3813
 9185TIP3    H149046   2.038   6.124   5.843  2.6670 -2.2556  0.4964
 9185TIP3    H249047   1.968   6.136   5.977  1.5826  0.0373 -0.2198
 9186TIP3   OH249048   0.424   1.247  11.209  0.8600  0.4310 -0.5028
 9186TIP3    H149049   0.478   1.212  11.137  0.9198  1.1293 -0.8082
 9186TIP3    H249050   0.334   1.225  11.184  0.9430 -0.0510 -0.3821
 9187TIP3   OH249051   0.247   2.556  12.679 -0.1633  0.7505 -0.7846
 9187TIP3    H149052   0.185   2.628  12.684  0.3330  1.1319  0.0530
 9187TIP3    H249053   0.194   2.479  12.659 -1.0159  0.9342  0.6826
 9188TIP3   OH249054   4.360   5.027   5.005 -0.3882  0.2943  0.0027
 9188TIP3    H149055   4.278   5.069   4.980 -0.4189  0.6909  0.7637
 9188TIP3    H249056   4.335   4.941   5.039 -0.6056  0.8716  1.3457
 9189TIP3   OH249057   3.014   6.721   0.364  0.6617  0.5204 -0.4606
 9189TIP3    H149058   2.974   6.688   0.283  0.0144 -0.8467  0.3703
 9189TIP3    H249059   2.998   6.815   0.362  0.3163  0.4556 -1.7332
 9190TIP3   OH249060   3.924   3.411   2.054 -0.0049  0.7579  0.3199
 9190TIP3    H149061   3.934   3.382   1.963 -1.3949  2.0730 -0.2984
 9190TIP3    H249062   3.987   3.482   2.065  1.3122 -0.4597  0.9219
 9191TIP3   OH249063   4.340   1.816  15.879  0.0426  0.0433 -0.4591
 9191TIP3    H149064   4.402   1.880  15.843 -0.7930  0.4817 -1.1554
 9191TIP3    H249065   4.325   1.844  15.969  0.0280  0.5558 -0.6220
 9192TIP3   OH249066   2.383   5.311  12.362  0.0347 -0.2695  0.2772
 9192TIP3    H149067   2.324   5.299  12.437 -0.8328  0.1092 -0.3321
 9192TIP3    H249068   2.326   5.339  12.291  0.7656 -1.2313 -0.7159
 9193TIP3   OH249069   2.352   4.612   2.378 -0.1121 -0.0152  0.4659
 9193TIP3    H149070   2.332   4.694   2.423  0.0008 -0.5379  1.5006
 9193TIP3    H249071   2.298   4.546   2.422 -0.2030 -0.5055 -0.3503
 9194TIP3   OH249072   5.228   5.472   1.675  0.0080  0.1581  0.1453
 9194TIP3    H149073   5.278   5.495   1.597 -1.7811  1.7337 -0.6135
 9194TIP3    H249074   5.217   5.555   1.722  0.7887 -0.6976  1.9579
 9195TIP3   OH249075   4.608   2.573  16.165 -0.9642  0.2368  0.1984
 9195TIP3    H149076   4.564   2.493  16.135 -0.8826 -1.0556  3.1874
 9195TIP3    H249077   4.696   2.566  16.127 -1.8205  0.5367 -2.0462
 9196TIP3   OH249078   4.350   3.392  14.161 -0.6540  0.3051 -0.1626
 9196TIP3    H149079   4.310   3.376  14.247 -0.7858  0.9765 -0.0946
 9196TIP3    H249080   4.407   3.467  14.175 -1.0738  0.7485 -0.7792
 9197TIP3   OH249081   0.294   0.790   3.574  0.3769  0.3408  0.2071
 9197TIP3    H149082   0.303   0.837   3.491  0.0555  0.1852  0.0810
 9197TIP3    H249083   0.204   0.809   3.602 -0.2924 -1.4199 -0.5954
 9198TIP3   OH249084   5.926   0.611   0.997  0.4890  0.0080 -0.0184
 9198TIP3    H149085   5.858   0.663   1.040 -0.1166 -0.1203 -0.7955
 9198TIP3    H249086   5.902   0.520   1.014  1.7688 -0.0669  1.6795
 9199TIP3   OH249087   1.600   0.390  12.984  0.2081  0.2543 -0.2258
 9199TIP3    H149088   1.619   0.298  12.965 -0.6687  0.3063 -1.4964
 9199TIP3    H249089   1.673   0.438  12.945  0.4985  0.1246  0.1498
 9200TIP3   OH249090   2.215   5.420  12.142 -0.4693 -0.0810 -0.3804
 9200TIP3    H149091   2.251   5.436  12.055  1.2808 -1.1361  0.0918
 9200TIP3    H249092   2.140   5.362  12.127 -1.5646  1.5064 -1.3245
 9201TIP3   OH249093   3.774   5.266   4.005 -0.3081  0.5116 -0.0404
 9201TIP3    H149094   3.730   5.342   4.044  1.3969  0.9528  1.1849
 9201TIP3    H249095   3.845   5.247   4.066  1.2168 -0.1044 -1.9161
 9202TIP3   OH249096   2.770   1.242   5.222 -0.3660 -0.2497 -0.2717
 9202TIP3    H149097   2.807   1.215   5.138  0.3493  0.4317 -0.1826
 9202TIP3    H249098   2.816   1.189   5.286 -0.1576 -0.0231 -0.2315
 9203TIP3   OH249099   3.470   1.664   6.063  0.3651  0.8352  0.1158
 9203TIP3    H149100   3.446   1.685   5.973  0.7680 -0.9927 -0.4591
 9203TIP3    H249101   3.444   1.741   6.114 -1.4368  1.2262 -1.3035
 9204TIP3   OH249102   4.610   2.672   1.691 -0.4908  0.2898 -0.5240
 9204TIP3    H149103   4.658   2.626   1.760  0.2002  1.4729 -0.1794
 9204TIP3    H249104   4.520   2.675   1.722 -0.0561  1.4534  0.7253
 9205TIP3   OH249105   3.980   4.281  13.266 -0.0656  0.4214 -0.1201
 9205TIP3    H149106   3.894   4.244  13.284  0.3532 -0.7301 -0.3682
 9205TIP3    H249107   4.034   4.252  13.340  0.3990  0.0790 -0.5837
 9206TIP3   OH249108   4.250   6.563   2.262  0.3715 -0.0049 -0.8073
 9206TIP3    H149109   4.343   6.575   2.278  0.2009  0.6009 -0.2204
 9206TIP3    H249110   4.245   6.529   2.173  1.2856 -2.4115 -0.0081
 9207TIP3   OH249111   3.103   5.246   4.160 -0.1309  0.0739 -0.1268
 9207TIP3    H149112   3.076   5.214   4.074 -1.1831  1.7151 -0.4582
 9207TIP3    H249113   3.199   5.241   4.159 -0.0462  1.2716 -1.9130
 9208TIP3   OH249114   1.022   2.229  15.845  0.7981 -0.7029 -0.1992
 9208TIP3    H149115   1.025   2.149  15.898  1.0812 -0.7201 -0.2396
 9208TIP3    H249116   1.099   2.279  15.873 -0.6655  0.7048  1.6010
 9209TIP3   OH249117   3.434   3.656   4.934  0.6138 -0.2433 -0.0322
 9209TIP3    H149118   3.519   3.666   4.976  0.0673  0.0501  1.0468
 9209TIP3    H249119   3.398   3.745   4.930  0.6049 -0.2779 -1.0466
 9210TIP3   OH249120   5.060   3.097   5.007  0.3969 -0.2996  0.1987
 9210TIP3    H149121   5.003   3.029   4.973  0.5654 -0.5988  0.5035
 9210TIP3    H249122   5.015   3.131   5.084 -0.4491  1.0523 -0.8472
 9211TIP3   OH249123   1.476   1.670  10.582  0.3360  0.0592 -0.2278
 9211TIP3    H149124   1.435   1.600  10.530  2.6525 -2.0784  0.6042
 9211TIP3    H249125   1.480   1.635  10.671  0.1809  1.9539  0.5744
 9212TIP3   OH249126   2.973   2.930   4.477 -0.0012  0.0478  0.0289
 9212TIP3    H149127   3.052   2.910   4.426  0.3032  1.4429 -0.0806
 9212TIP3    H249128   2.960   3.024   4.465 -3.3515 -0.5681 -2.3144
 9213TIP3   OH249129   2.111   5.971  12.616 -0.6892 -0.1297  0.5583
 9213TIP3    H149130   2.149   5.910  12.554 -2.0593 -2.0333  1.4918
 9213TIP3    H249131   2.187   6.006  12.664  0.1607 -0.7724 -0.2749
 9214TIP3   OH249132   0.447   2.167  11.496 -0.0700 -0.4628 -0.4924
 9214TIP3    H149133   0.523   2.199  11.448 -0.9987 -0.0950 -1.7694
 9214TIP3    H249134   0.389   2.243  11.504 -0.8386 -1.0177 -0.6372
 9215TIP3   OH249135   2.190   1.632  16.043  0.4078 -0.1681 -0.4239
 9215TIP3    H149136   2.261   1.591  15.993 -0.0390 -1.6331  0.0869
 9215TIP3    H249137   2.225   1.639  16.132  0.1043 -0.4198 -0.2834
 9216TIP3   OH249138   5.521   5.508  10.979  0.0060  0.2655 -0.0131
 9216TIP3    H149139   5.477   5.503  11.064 -1.2798  1.0853 -0.5895
 9216TIP3    H249140   5.552   5.419  10.963 -1.1599 -0.2768  0.5923
 9217TIP3   OH249141   1.029   0.121   1.383  0.0701  0.2474 -0.4357
 9217TIP3    H149142   1.080   0.180   1.438 -0.3248 -0.6551  0.9624
 9217TIP3    H249143   0.945   0.114   1.428  0.0999 -1.3397 -0.5819
 9218TIP3   OH249144   5.078   4.835   2.555 -0.4738  0.1699  0.2980
 9218TIP3    H149145   5.101   4.920   2.592  1.3252  1.1630 -2.8077
 9218TIP3    H249146   5.135   4.773   2.600  2.2774  1.4512 -1.1889
 9219TIP3   OH249147   4.813   6.802  12.187 -0.1067 -0.3475  0.2325
 9219TIP3    H149148   4.756   6.875  12.208  0.6034  0.5571 -0.8594
 9219TIP3    H249149   4.795   6.784  12.094 -1.3541 -2.5556  0.8280
 9220TIP3   OH249150   4.383   4.006  16.170 -0.2942 -0.5862  0.2305
 9220TIP3    H149151   4.353   3.928  16.216 -0.8836 -0.3390  0.2822
 9220TIP3    H249152   4.457   3.977  16.117  1.1863 -0.6344  2.2197
 9221TIP3   OH249153   6.339   1.511   2.023 -0.1274  0.1289  0.0890
 9221TIP3    H149154   6.356   1.421   2.053  0.7992 -0.0208 -0.8050
 9221TIP3    H249155   6.336   1.563   2.102 -0.2014 -0.6183  0.5915
 9222TIP3   OH249156   0.073   1.401   2.154 -0.4643  0.3186 -0.0933
 9222TIP3    H149157   0.149   1.391   2.212 -0.3103 -0.8369 -0.4732
 9222TIP3    H249158   0.078   1.491   2.123  0.1469  0.5788  0.7261
 9223TIP3   OH249159   1.038   6.551  15.123  0.1935  0.6928 -0.0667
 9223TIP3    H149160   1.080   6.629  15.086  0.8559  1.0689  1.4047
 9223TIP3    H249161   0.982   6.585  15.193 -1.4574  0.0515 -0.9986
 9224TIP3   OH249162   3.374   0.101   3.002  0.2942 -0.2954  0.2431
 9224TIP3    H149163   3.466   0.123   2.985 -0.1726  0.4097 -1.5564
 9224TIP3    H249164   3.344   0.171   3.061  0.8266 -0.3704  0.6118
 9225TIP3   OH249165   4.726   3.463  12.051 -0.3990  0.0976  0.2829
 9225TIP3    H149166   4.669   3.471  12.127 -0.8757 -1.2742  0.0992
 9225TIP3    H249167   4.701   3.537  11.995 -1.2014  0.1677  0.7146
 9226TIP3   OH249168   2.002   6.427   5.611  0.3208 -0.0349  0.8867
 9226TIP3    H149169   1.952   6.501   5.576  0.9829 -0.3106 -0.7051
 9226TIP3    H249170   1.942   6.383   5.671 -0.8722  0.4352  0.0637
 9227TIP3   OH249171   3.105   1.261   0.139 -0.1887 -0.0545 -0.3725
 9227TIP3    H149172   3.028   1.247   0.084 -0.4148  0.5452 -0.2136
 9227TIP3    H249173   3.096   1.196   0.209 -0.1105 -0.5436 -0.8036
 9228TIP3   OH249174   1.419   6.834   1.426  0.0460  0.3244 -0.6965
 9228TIP3    H149175   1.396   6.892   1.498 -0.8782  0.9606 -1.4757
 9228TIP3    H249176   1.432   6.892   1.351  4.1066  0.0351 -0.4345
 9229TIP3   OH249177   5.074   0.673   0.562  0.2271  0.2028  0.0966
 9229TIP3    H149178   5.024   0.623   0.625 -0.2565  0.8179  0.2179
 9229TIP3    H249179   5.157   0.693   0.606 -0.7424  2.0536  1.2216
 9230TIP3   OH249180   6.227   3.631  16.821  0.3198  0.0178  0.5700
 9230TIP3    H149181   6.218   3.700  16.887  0.6606  1.6954 -1.0271
 9230TIP3    H249182   6.139   3.618  16.786  0.7374  2.5192 -1.7606
 9231TIP3   OH249183   4.068   4.925   3.284 -0.0486  0.1401 -0.3477
 9231TIP3    H149184   3.985   4.951   3.324  0.2481 -0.7497  0.9107
 9231TIP3    H249185   4.054   4.937   3.190 -1.4257  0.4728 -0.1290
 9232TIP3   OH249186   1.670   2.265  11.079 -1.0269  0.0287 -0.1895
 9232TIP3    H149187   1.625   2.331  11.131  0.0830  0.0437  0.7710
 9232TIP3    H249188   1.717   2.315  11.012 -0.1738  0.2464  0.5477
 9233TIP3   OH249189   0.189   3.108  14.773 -0.0026  0.1468 -0.0573
 9233TIP3    H149190   0.228   3.174  14.716  0.9184 -0.5379 -0.2461
 9233TIP3    H249191   0.234   3.027  14.750  0.0731 -0.2275  1.3296
 9234TIP3   OH249192   4.332   4.422  12.680 -0.1245  0.2802  0.3899
 9234TIP3    H149193   4.312   4.465  12.597 -0.0189  1.9640  1.2026
 9234TIP3    H249194   4.396   4.479  12.722 -0.0417 -0.6397  1.5575
 9235TIP3   OH249195   0.307   4.749  13.133  0.0535 -0.0954  0.0837
 9235TIP3    H149196   0.276   4.807  13.065 -0.7487 -0.5494  0.0497
 9235TIP3    H249197   0.268   4.664  13.113  0.9423 -0.5787  0.3101
 9236TIP3   OH249198   6.513   1.403  13.526  0.8100  0.4234 -0.4421
 9236TIP3    H149199   6.481   1.362  13.606  0.0424  2.5826  0.4245
 9236TIP3    H249200   6.598   1.439  13.550  0.5229  1.1833 -0.5411
 9237TIP3   OH249201   1.397   5.057   5.350  0.0419 -0.5361 -0.2184
 9237TIP3    H149202   1.452   5.012   5.286  0.1127 -1.0272  0.1867
 9237TIP3    H249203   1.357   4.987   5.402 -0.1810 -0.1497  0.1396
 9238TIP3   OH249204   2.529   2.455  13.750  0.4842 -0.1223 -0.4776
 9238TIP3    H149205   2.478   2.534  13.735  1.1876  0.9175  2.0040
 9238TIP3    H249206   2.465   2.391  13.783 -0.4753 -1.4113 -4.3849
 9239TIP3   OH249207   3.578   1.111  14.796  0.9803  0.2225  0.0394
 9239TIP3    H149208   3.588   1.070  14.881  0.7537 -1.2143 -0.5914
 9239TIP3    H249209   3.649   1.075  14.743 -0.8142 -1.5413 -1.3055
 9240TIP3   OH249210   0.124   0.099  12.190  0.2832 -0.0403 -0.2288
 9240TIP3    H149211   0.112   0.004  12.201 -0.7292  0.0677 -0.3187
 9240TIP3    H249212   0.162   0.108  12.103  1.9952 -0.4584  0.4339
 9241TIP3   OH249213   4.067   4.048   2.978 -0.2308  0.4758 -0.1614
 9241TIP3    H149214   4.017   3.968   2.965  0.4508 -0.2364  1.3588
 9241TIP3    H249215   4.154   4.017   3.005 -0.2378  1.7135  1.4100
 9242TIP3   OH249216   0.179   5.190   1.259 -0.3159 -0.0103  0.0897
 9242TIP3    H149217   0.155   5.207   1.350 -0.7676  0.3352 -0.0908
 9242TIP3    H249218   0.243   5.258   1.238  2.0723 -1.8280  1.0411
 9243TIP3   OH249219   4.225   4.273   1.272 -0.0079 -0.8185 -0.2353
 9243TIP3    H149220   4.159   4.278   1.204  2.1561 -3.7870 -2.8873
 9243TIP3    H249221   4.213   4.186   1.311 -0.4281  0.3514  2.4438
 9244TIP3   OH249222   3.769   0.173   3.084 -0.7213  0.0202  0.2779
 9244TIP3    H149223   3.711   0.134   3.149 -1.5485  0.4644 -0.1774
 9244TIP3    H249224   3.716   0.179   3.005 -0.2294  0.9479  0.0006
 9245TIP3   OH249225   0.820   1.526   3.486  0.2039  0.0836 -0.3450
 9245TIP3    H149226   0.908   1.491   3.502  0.2814  1.0520  1.6453
 9245TIP3    H249227   0.761   1.457   3.518  0.1918 -0.7516 -2.0816
 9246TIP3   OH249228   0.326   0.541   0.327  0.1721  0.1088  0.7213
 9246TIP3    H149229   0.276   0.613   0.363 -0.0961  1.3076 -1.8254
 9246TIP3    H249230   0.417   0.560   0.351  0.3978  2.5368 -1.6328
 9247TIP3   OH249231   2.251   1.608  12.405  0.4121 -0.1770 -0.2877
 9247TIP3    H149232   2.232   1.661  12.482 -0.3749 -1.1738  0.2305
 9247TIP3    H249233   2.251   1.518  12.438 -0.1877 -0.6387 -1.4946
 9248TIP3   OH249234   4.856   2.635   5.376  0.4893  0.3801 -0.8617
 9248TIP3    H149235   4.805   2.683   5.311  1.5594  0.3194 -1.7731
 9248TIP3    H249236   4.935   2.607   5.329 -0.2895 -2.7430 -0.5297
 9249TIP3   OH249237   6.127   6.482   4.806 -0.2651  0.4805  0.4036
 9249TIP3    H149238   6.146   6.576   4.803 -1.0571  0.6368  0.2010
 9249TIP3    H249239   6.053   6.474   4.867  0.4168 -0.1233  1.1803
 9250TIP3   OH249240   1.814   3.255  12.382  0.6796  0.2791  0.5466
 9250TIP3    H149241   1.886   3.294  12.432  0.2385  0.6059  0.9350
 9250TIP3    H249242   1.750   3.326  12.374  0.0685 -0.2282  0.8581
 9251TIP3   OH249243   1.983   2.606  14.718 -0.0698 -0.0811  0.0330
 9251TIP3    H149244   1.922   2.679  14.727  0.7808  0.6897 -0.3244
 9251TIP3    H249245   1.953   2.559  14.641 -0.7191 -0.2116  0.3572
 9252TIP3   OH249246   0.549   3.921   5.553  0.0131  0.2310 -0.3587
 9252TIP3    H149247   0.466   3.948   5.514 -0.0785  0.8700  0.2708
 9252TIP3    H249248   0.562   3.980   5.628  1.2538  0.4480 -0.7085
 9253TIP3   OH249249   5.282   0.539  13.483 -0.2940 -0.4230 -0.5475
 9253TIP3    H149250   5.194   0.536  13.446  0.0475  0.4348 -1.4570
 9253TIP3    H249251   5.273   0.495  13.568 -1.9501  1.0356  0.0918
 9254TIP3   OH249252   4.772   2.213   2.630  0.5487 -0.0886 -0.1630
 9254TIP3    H149253   4.847   2.170   2.671  1.6786  1.3319 -0.6430
 9254TIP3    H249254   4.802   2.236   2.542 -1.5799 -2.4351 -1.6437
 9255TIP3   OH249255   3.312   5.554  12.875 -0.0326  0.3114  0.3195
 9255TIP3    H149256   3.371   5.587  12.943 -1.0215 -1.1300  1.9499
 9255TIP3    H249257   3.229   5.598  12.891 -0.3686 -0.2953  0.2852
 9256TIP3   OH249258   4.560   5.917   5.617  0.5612 -0.1249  0.1720
 9256TIP3    H149259   4.576   5.865   5.696  2.0598 -0.9150 -0.6265
 9256TIP3    H249260   4.570   5.856   5.545  0.9656  0.9743 -0.7277
 9257TIP3   OH249261   1.363   5.213  14.549 -0.3823  0.1150  0.0429
 9257TIP3    H149262   1.295   5.224  14.615 -0.2331 -0.4001  0.2826
 9257TIP3    H249263   1.326   5.255  14.470 -0.0161  1.9428  0.7837
 9258TIP3   OH249264   4.933   4.635  11.878 -0.2397  0.6562  1.0153
 9258TIP3    H149265   4.843   4.639  11.847  0.1898  0.2436 -0.3608
 9258TIP3    H249266   4.965   4.725  11.869 -0.5463  0.8323  1.6384
 9259TIP3   OH249267   6.463   3.339   5.806 -0.1554  0.4283 -0.6202
 9259TIP3    H149268   6.386   3.394   5.820  0.2079  0.7615  0.1677
 9259TIP3    H249269   6.483   3.303   5.892 -1.3948 -2.3689 -1.4161
 9260TIP3   OH249270   4.937   4.874  15.756  0.2099  0.5891  0.6159
 9260TIP3    H149271   4.976   4.900  15.840  2.4676  1.1771 -0.5349
 9260TIP3    H249272   4.916   4.956  15.712 -0.4023  0.2896  0.3267
 9261TIP3   OH249273   5.647   4.018   0.003  0.1142  0.2543  0.3315
 9261TIP3    H149274   5.598   4.031   0.084  0.7065 -0.9369  0.8986
 9261TIP3    H249275   5.727   3.971   0.030  0.5180  0.2110 -0.8763
 9262TIP3   OH249276   5.133   2.520   0.951 -0.0708  0.4282 -0.0380
 9262TIP3    H149277   5.126   2.585   1.021  0.6540  1.6182 -1.0216
 9262TIP3    H249278   5.157   2.571   0.874  1.3805 -1.1145 -0.6679
 9263TIP3   OH249279   4.487   1.987  11.528  0.1069 -0.3587  0.1744
 9263TIP3    H149280   4.465   2.029  11.611  0.3433 -0.6775  0.3989
 9263TIP3    H249281   4.407   1.994  11.476  0.4052  1.1607 -0.1291
 9264TIP3   OH249282   1.724   2.086  15.872 -0.3171 -0.4416  0.1576
 9264TIP3    H149283   1.763   2.011  15.916  0.3031 -0.2729 -0.0936
 9264TIP3    H249284   1.636   2.092  15.909 -0.5696 -1.6093 -0.1881
 9265TIP3   OH249285   4.941   4.971  14.146  0.5204 -0.2206 -0.1532
 9265TIP3    H149286   4.996   4.942  14.073 -3.6768 -1.5253 -3.1978
 9265TIP3    H249287   4.899   4.891  14.177 -1.1884  0.8925  0.5631
 9266TIP3   OH249288   0.402   1.915  11.389  0.2534 -0.6262 -0.2031
 9266TIP3    H149289   0.401   1.989  11.450 -2.0913 -0.4036 -0.4201
 9266TIP3    H249290   0.469   1.937  11.325  1.0019  0.3290  0.8581
 9267TIP3   OH249291   1.338   1.899  11.533 -0.1356  0.0375  0.5541
 9267TIP3    H149292   1.352   1.806  11.514  2.2224  0.8919 -2.8149
 9267TIP3    H249293   1.261   1.923  11.481  0.1723  0.2665  0.1996
 9268TIP3   OH249294   1.929   0.813   1.311 -0.0208 -0.4447  0.2651
 9268TIP3    H149295   1.911   0.719   1.307 -5.5409  0.1888  1.5707
 9268TIP3    H249296   1.908   0.844   1.223 -0.1253 -0.2432  0.3606
 9269TIP3   OH249297   3.991   6.589   1.484 -0.3105  0.0292  0.0677
 9269TIP3    H149298   4.016   6.555   1.398 -1.0861  3.5509 -1.7289
 9269TIP3    H249299   4.068   6.636   1.515 -0.6825  0.4438  0.3739
 9270TIP3   OH249300   4.584   5.105   4.151 -0.5245  0.0181  0.1083
 9270TIP3    H149301   4.659   5.062   4.109 -0.3440  0.6957 -0.2911
 9270TIP3    H249302   4.615   5.128   4.238 -0.3405  0.0767  0.0297
 9271TIP3   OH249303   5.921   6.000   3.046  0.5460 -0.2373 -0.1196
 9271TIP3    H149304   5.914   5.937   2.975 -0.9113 -0.5904  0.2988
 9271TIP3    H249305   5.886   6.081   3.009  1.4619  0.0610 -0.3441
 9272TIP3   OH249306   5.513   5.995   2.108  0.1556 -0.7534 -0.9157
 9272TIP3    H149307   5.566   6.035   2.177  0.1108 -0.1458 -1.2238
 9272TIP3    H249308   5.458   5.931   2.153 -0.1494 -0.0874 -0.3259
 9273TIP3   OH249309   5.140   2.624   4.232 -0.6709 -0.2089  0.0235
 9273TIP3    H149310   5.091   2.542   4.229  1.1998 -1.4028  0.0262
 9273TIP3    H249311   5.231   2.597   4.219  0.0441  1.8357  0.4528
 9274TIP3   OH249312   5.320   1.391  13.367 -0.4652 -0.3487  0.2901
 9274TIP3    H149313   5.254   1.461  13.360  0.5852  0.5677 -1.0279
 9274TIP3    H249314   5.401   1.438  13.387  0.5825 -0.9667 -2.1598
 9275TIP3   OH249315   0.226   1.065   2.045  0.0337  0.4468  0.6495
 9275TIP3    H149316   0.133   1.051   2.062  0.2241 -3.0355 -0.5302
 9275TIP3    H249317   0.228   1.134   1.978 -1.6598  0.6753  0.7965
 9276TIP3   OH249318   1.760   3.853   6.447  0.3084 -0.7219 -0.0580
 9276TIP3    H149319   1.804   3.769   6.461 -1.0611 -1.3010  1.0993
 9276TIP3    H249320   1.672   3.830   6.420  0.6277  0.4118 -2.3236
 9277TIP3   OH249321   6.631   4.374  11.885  0.0574 -0.6174  0.2913
 9277TIP3    H149322   6.572   4.447  11.865 -0.0465 -0.8401 -0.2187
 9277TIP3    H249323   6.659   4.390  11.975  1.1295  0.8262 -0.2451
 9278TIP3   OH249324   4.093   4.687  16.744  0.2526 -0.1437  0.5715
 9278TIP3    H149325   4.146   4.623  16.791  1.9538  0.3052 -0.6532
 9278TIP3    H249326   4.075   4.646  16.659  1.3292  0.9533 -0.2120
 9279TIP3   OH249327   5.499   5.397   2.839 -0.1078  0.4062 -0.1633
 9279TIP3    H149328   5.562   5.417   2.770 -0.3669 -2.7433 -1.4801
 9279TIP3    H249329   5.417   5.436   2.808  0.0150 -0.0840 -1.1541
 9280TIP3   OH249330   3.545   3.328  13.064  0.0730  0.1312 -0.4736
 9280TIP3    H149331   3.513   3.394  13.125 -1.8553  0.9507 -2.2334
 9280TIP3    H249332   3.513   3.357  12.978  2.3435 -1.1567 -1.8516
 9281TIP3   OH249333   6.092   1.724   0.147 -0.0987 -0.0625 -0.0432
 9281TIP3    H149334   6.169   1.716   0.091 -0.3936 -0.2272 -0.4356
 9281TIP3    H249335   6.029   1.772   0.093 -1.1129 -1.9509 -0.6322
 9282TIP3   OH249336   1.118   2.582  16.802 -0.2612  0.2233 -0.1148
 9282TIP3    H149337   1.061   2.527  16.748 -2.2920  0.1780  1.9661
 9282TIP3    H249338   1.070   2.664  16.811  1.0113  0.9814 -0.0388
 9283TIP3   OH249339   0.575   4.587  10.830 -0.0607  0.1270  0.1397
 9283TIP3    H149340   0.554   4.619  10.742  0.3456  1.2445  0.4260
 9283TIP3    H249341   0.651   4.639  10.857 -0.9730  0.7718  1.6545
 9284TIP3   OH249342   5.688   4.326  13.438  0.2607 -0.3031  0.5047
 9284TIP3    H149343   5.694   4.374  13.520  1.5306  0.7136 -0.1580
 9284TIP3    H249344   5.775   4.290  13.424 -0.1676 -1.1946  0.0211
 9285TIP3   OH249345   2.607   5.747   1.806  0.0820  0.2338 -0.4199
 9285TIP3    H149346   2.541   5.706   1.751  0.8017 -0.4438 -0.7993
 9285TIP3    H249347   2.690   5.732   1.760  0.4124  1.9071 -0.4449
 9286TIP3   OH249348   5.241   4.527  12.938  0.2024 -0.6057  0.1869
 9286TIP3    H149349   5.300   4.565  13.002 -0.8664  2.0434 -0.2577
 9286TIP3    H249350   5.297   4.499  12.866  1.0813 -0.0644  0.6509
 9287TIP3   OH249351   5.574   3.692   0.091  0.3790 -0.3368  0.1717
 9287TIP3    H149352   5.643   3.735   0.142 -0.2897  1.5309 -0.4093
 9287TIP3    H249353   5.612   3.682   0.003 -0.3968  1.7026 -0.4520
 9288TIP3   OH249354   0.678   5.535   4.152 -0.4934  0.3328 -0.0631
 9288TIP3    H149355   0.630   5.468   4.201 -0.3431 -0.1790 -0.6114
 9288TIP3    H249356   0.758   5.549   4.201 -0.3557 -0.1592 -0.1496
 9289TIP3   OH249357   3.186   6.156   3.428  0.8559  0.4913 -0.5003
 9289TIP3    H149358   3.156   6.071   3.396  2.1958 -0.7019  1.2368
 9289TIP3    H249359   3.269   6.170   3.383  0.4530  1.0968 -1.0765
 9290TIP3   OH249360   4.584   0.060  13.413 -0.2359  0.3890 -0.0263
 9290TIP3    H149361   4.498   0.101  13.415 -0.8635 -0.8892  1.0572
 9290TIP3    H249362   4.616   0.068  13.503  0.0073 -0.6720 -0.0066
 9291TIP3   OH249363   2.811   3.327   6.178 -0.3964  0.3704 -0.0258
 9291TIP3    H149364   2.736   3.339   6.236 -0.7383  1.5076 -0.6701
 9291TIP3    H249365   2.844   3.240   6.200 -1.8870 -0.1511  0.2853
 9292TIP3   OH249366   0.542   0.942   0.290 -0.2131 -0.1156 -0.0409
 9292TIP3    H149367   0.602   1.014   0.312 -0.9446  0.6523 -0.4766
 9292TIP3    H249368   0.455   0.981   0.297 -0.8052 -1.6700  2.2716
 9293TIP3   OH249369   3.550   3.324  11.622 -0.3235  0.1848 -0.4535
 9293TIP3    H149370   3.556   3.246  11.567  1.1189 -0.0622  0.0134
 9293TIP3    H249371   3.557   3.290  11.711 -0.0051  0.8212 -0.2344
 9294TIP3   OH249372   5.631   5.461   5.159  0.0151 -0.3511  1.1086
 9294TIP3    H149373   5.679   5.418   5.230 -0.0167  0.0062  1.3450
 9294TIP3    H249374   5.693   5.462   5.086  0.1254 -0.5147  1.1966
 9295TIP3   OH249375   3.659   0.643  16.660  0.9994 -0.2062 -0.1653
 9295TIP3    H149376   3.597   0.593  16.607  0.5376 -1.3861  1.4037
 9295TIP3    H249377   3.740   0.593  16.657  1.0958 -0.0529 -0.1183
 9296TIP3   OH249378   4.307   2.568  15.682  0.6454  0.0410 -0.4448
 9296TIP3    H149379   4.347   2.580  15.768  2.2398  1.6521 -1.3555
 9296TIP3    H249380   4.247   2.641  15.673 -0.3438 -0.7293 -0.2965
 9297TIP3   OH249381   4.223   6.565   6.541 -0.0401  0.0291 -0.3884
 9297TIP3    H149382   4.183   6.638   6.495  0.5865  0.4613 -0.2570
 9297TIP3    H249383   4.178   6.561   6.626  0.2261  0.5476 -0.2197
 9298TIP3   OH249384   2.449   1.636   0.968  0.8771 -0.1186 -0.1168
 9298TIP3    H149385   2.387   1.597   1.028 -0.3353  0.4720 -0.9465
 9298TIP3    H249386   2.490   1.707   1.017  0.6910 -0.3272  0.3393
 9299TIP3   OH249387   6.122   4.544   4.019 -0.2383 -0.4358 -0.5423
 9299TIP3    H149388   6.148   4.633   3.996  1.1922 -0.7327 -0.1859
 9299TIP3    H249389   6.042   4.528   3.969 -0.0269  0.7416 -1.2810
 9300TIP3   OH249390   5.836   0.953   2.965  0.2784 -0.2710 -0.1551
 9300TIP3    H149391   5.825   0.888   3.035  0.5798  0.2111  0.3437
 9300TIP3    H249392   5.810   1.036   3.004  0.3935 -0.0043 -0.6314
 9301TIP3   OH249393   2.702   3.299   3.358 -0.1254  0.0917 -0.5608
 9301TIP3    H149394   2.773   3.358   3.334 -1.0415  1.3528 -0.2521
 9301TIP3    H249395   2.624   3.338   3.320 -0.6056 -1.6013 -1.4278
 9302TIP3   OH249396   0.818   5.302  11.271  0.7539 -0.1267  0.2112
 9302TIP3    H149397   0.740   5.321  11.322  0.1809 -1.1457 -0.2760
 9302TIP3    H249398   0.863   5.387  11.265 -0.2635  0.4544  0.5569
 9303TIP3   OH249399   6.633   3.732   5.307  0.5958 -0.6117 -0.3169
 9303TIP3    H149400   6.685   3.673   5.252 -1.3157 -2.6996 -0.0267
 9303TIP3    H249401   6.564   3.765   5.249  1.4711  1.2253 -0.4038
 9304TIP3   OH249402   2.462   4.442  12.065  0.2554 -0.1736 -0.1048
 9304TIP3    H149403   2.452   4.479  11.977 -0.0081  0.4980  0.2023
 9304TIP3    H249404   2.464   4.518  12.123  1.0238 -0.5866  0.4198
 9305TIP3   OH249405   0.792   2.155  14.329 -0.2091 -0.5001  0.1210
 9305TIP3    H149406   0.796   2.088  14.261  0.2468 -0.4788  0.1244
 9305TIP3    H249407   0.882   2.189  14.335 -0.4764  0.2536 -0.0264
 9306TIP3   OH249408   4.819   6.481   4.087  0.4458 -0.2052 -0.0519
 9306TIP3    H149409   4.762   6.429   4.143  0.6371 -0.5894 -0.2037
 9306TIP3    H249410   4.887   6.419   4.059  0.0143 -0.1870 -1.1895
 9307TIP3   OH249411   5.107   3.569  13.092 -0.1671 -0.3427  0.2939
 9307TIP3    H149412   5.072   3.543  13.178 -1.5400  0.1237 -0.0961
 9307TIP3    H249413   5.057   3.516  13.030  0.0650  0.1043 -0.2778
 9308TIP3   OH249414   6.266   4.477   5.255 -0.7997 -0.1306 -0.4015
 9308TIP3    H149415   6.272   4.435   5.169 -0.5059 -0.1311 -0.3813
 9308TIP3    H249416   6.350   4.460   5.296 -0.5754  0.7065 -0.5000
 9309TIP3   OH249417   0.896   5.383  12.326  0.2345  0.2219 -0.4822
 9309TIP3    H149418   0.893   5.473  12.360 -0.2605  0.5193 -1.2673
 9309TIP3    H249419   0.937   5.332  12.396  1.5666  1.2602 -0.4403
 9310TIP3   OH249420   1.327   1.369   2.342 -0.1330 -0.0799 -0.0424
 9310TIP3    H149421   1.349   1.448   2.392  1.0360  1.0363 -2.1638
 9310TIP3    H249422   1.398   1.361   2.278 -1.1246 -1.9028 -0.9921
 9311TIP3   OH249423   0.972   2.502  15.214 -0.2175  0.1509  0.4199
 9311TIP3    H149424   0.944   2.477  15.126 -1.4177  1.2770  0.4502
 9311TIP3    H249425   0.903   2.471  15.272 -0.3358  0.9913  0.7510
 9312TIP3   OH249426   5.455   6.561   3.296 -0.2426  0.2781  0.3744
 9312TIP3    H149427   5.431   6.470   3.315 -0.0108  0.4326  1.4633
 9312TIP3    H249428   5.545   6.556   3.264  1.6988  0.4824  5.0973
 9313TIP3   OH249429   0.893   4.725  13.004  0.0192  0.2695 -0.3512
 9313TIP3    H149430   0.798   4.725  13.000 -0.0085  0.7947  0.1343
 9313TIP3    H249431   0.914   4.791  13.071  0.6962 -0.3231  0.0348
 9314TIP3   OH249432   4.046   3.130   4.766 -0.8043 -0.1931 -0.0582
 9314TIP3    H149433   4.105   3.196   4.803 -0.0611 -0.9754  0.1977
 9314TIP3    H249434   3.971   3.180   4.734 -0.8900  0.6473  1.3460
 9315TIP3   OH249435   6.083   6.703   4.075 -1.0823  0.0588 -0.2233
 9315TIP3    H149436   6.169   6.678   4.042 -0.6100  0.1772  0.8604
 9315TIP3    H249437   6.069   6.792   4.042  0.5174  1.1964  1.8904
 9316TIP3   OH249438   5.827   5.834   5.040  0.0287  0.0851  0.3515
 9316TIP3    H149439   5.802   5.839   4.948  0.3417  1.6889  0.3279
 9316TIP3    H249440   5.769   5.767   5.077 -0.9329  0.2817 -0.7391
 9317TIP3   OH249441   0.882   4.289   4.453 -0.0210 -0.4490  0.6024
 9317TIP3    H149442   0.853   4.309   4.542  0.6096  0.0576  0.7011
 9317TIP3    H249443   0.812   4.321   4.397 -0.4226 -0.7712  0.9147
 9318TIP3   OH249444   2.781   1.624  12.191  0.0377 -0.3298  0.0937
 9318TIP3    H149445   2.801   1.683  12.264 -0.3637 -0.7956  0.5894
 9318TIP3    H249446   2.727   1.555  12.230 -3.0366  1.1309 -1.2646
 9319TIP3   OH249447   5.895   0.891  16.379  0.1936  0.0998  0.5128
 9319TIP3    H149448   5.930   0.876  16.291 -0.9834  3.0253 -0.5765
 9319TIP3    H249449   5.959   0.949  16.420 -0.8248  1.3725  0.3537
 9320TIP3   OH249450   2.870   0.165   1.178  0.1437 -0.3157  0.3889
 9320TIP3    H149451   2.798   0.192   1.120 -0.2944  0.6948  1.3743
 9320TIP3    H249452   2.945   0.216   1.149 -0.1416  0.3873  0.8521
 9321TIP3   OH249453   1.936   2.881   0.481  0.0689 -0.5405 -0.6553
 9321TIP3    H149454   1.941   2.809   0.418  0.3411 -0.9233 -0.2049
 9321TIP3    H249455   2.023   2.884   0.521  0.2486  0.4263 -1.0858
 9322TIP3   OH249456   3.874   0.231   3.560 -0.0292  0.2528 -0.5113
 9322TIP3    H149457   3.940   0.263   3.622  0.3377  0.4265 -0.9826
 9322TIP3    H249458   3.792   0.269   3.591  0.2343  0.7868 -0.4439
 9323TIP3   OH249459   4.363   5.397  16.082 -0.3232 -0.2552  0.4995
 9323TIP3    H149460   4.356   5.396  16.178 -0.9311 -0.0860  0.4679
 9323TIP3    H249461   4.398   5.311  16.059 -3.4491 -1.7342  0.6859
 9324TIP3   OH249462   2.617   2.234   6.049 -0.3884 -0.2614  0.1728
 9324TIP3    H149463   2.630   2.290   5.973  0.3501 -1.2124 -0.4157
 9324TIP3    H249464   2.583   2.293   6.116  0.9419  1.0398 -0.2354
 9325TIP3   OH249465   1.803   1.992   6.037 -0.1573  1.0397 -0.2162
 9325TIP3    H149466   1.752   2.065   6.071  0.8428  1.5773  0.1998
 9325TIP3    H249467   1.886   2.032   6.008  0.5585  0.0310  0.3658
 9326TIP3   OH249468   3.482   4.862   0.072 -0.0529  0.1551 -0.3577
 9326TIP3    H149469   3.548   4.862   0.002 -1.1456 -0.1375 -1.4265
 9326TIP3    H249470   3.412   4.806   0.039 -1.5776  1.7424  0.0310
 9327TIP3   OH249471   2.450   5.640  15.362 -0.6946  0.8893  0.4767
 9327TIP3    H149472   2.429   5.558  15.406  0.4893 -0.3592 -1.1747
 9327TIP3    H249473   2.535   5.666  15.398  0.5083 -0.3851 -1.2801
 9328TIP3   OH249474   4.417   4.979  16.791 -0.3587  0.3129  0.3165
 9328TIP3    H149475   4.349   4.949  16.731  0.0312 -0.2568  0.1476
 9328TIP3    H249476   4.408   5.075  16.793  2.0719  0.8600 -3.7561
 9329TIP3   OH249477   4.445   4.867  13.222 -0.7090 -0.4923  0.2801
 9329TIP3    H149478   4.504   4.909  13.160 -2.9013  0.8908 -1.0111
 9329TIP3    H249479   4.471   4.775  13.220 -0.2669 -0.4015 -2.2816
 9330TIP3   OH249480   0.821   0.973   1.509 -0.5788  0.7731  0.7401
 9330TIP3    H149481   0.797   1.030   1.582 -0.1353  3.3407 -0.9859
 9330TIP3    H249482   0.906   0.937   1.533  0.4025  2.9738  0.8274
 9331TIP3   OH249483   0.371   5.552  10.421  0.1233 -0.2091  0.0347
 9331TIP3    H149484   0.397   5.513  10.338 -0.3959  2.0656 -1.2665
 9331TIP3    H249485   0.454   5.568  10.467  0.4437 -0.9464 -0.2695
 9332TIP3   OH249486   0.669   2.797   1.440 -0.0110 -0.0868  0.7677
 9332TIP3    H149487   0.688   2.790   1.346 -0.5203 -1.2060  0.7368
 9332TIP3    H249488   0.610   2.724   1.458 -1.7180  1.4172  1.5300
 9333TIP3   OH249489   4.999   2.858   4.584 -0.1423 -0.5340 -0.1178
 9333TIP3    H149490   5.023   2.770   4.553  1.5847 -0.2708  0.3554
 9333TIP3    H249491   5.081   2.894   4.619 -0.6227  1.5781 -1.0245
 9334TIP3   OH249492   5.762   2.956   0.197 -0.3014 -0.3714 -0.5591
 9334TIP3    H149493   5.805   2.935   0.113 -0.4049  0.1615 -0.7491
 9334TIP3    H249494   5.716   2.876   0.221 -0.1241 -0.5851 -0.9241
 9335TIP3   OH249495   1.070   3.541  13.690  0.1038  0.4217 -0.0932
 9335TIP3    H149496   1.086   3.624  13.645  0.6903 -0.4703 -1.6073
 9335TIP3    H249497   1.000   3.499  13.639 -0.8886  0.3892  1.2433
 9336TIP3   OH249498   6.447   4.374  14.755 -0.2059  0.4711 -0.4698
 9336TIP3    H149499   6.539   4.389  14.778  0.4850 -1.0041 -1.9502
 9336TIP3    H249500   6.432   4.431  14.680 -0.3500  0.3718 -0.5160
 9337TIP3   OH249501   1.783   1.282  16.147 -0.2542 -0.0206 -0.2858
 9337TIP3    H149502   1.812   1.318  16.230 -1.2112  1.8263 -0.7133
 9337TIP3    H249503   1.863   1.249  16.106  0.1985 -1.1931  1.4284
 9338TIP3   OH249504   0.431   1.288  11.575  0.7346 -0.0216  0.1086
 9338TIP3    H149505   0.495   1.354  11.548  0.9993 -0.3143  0.0158
 9338TIP3    H249506   0.349   1.337  11.587  1.7376  1.0834  3.7526
 9339TIP3   OH249507   1.959   1.215   5.139  0.2882  0.4264  0.3163
 9339TIP3    H149508   1.865   1.215   5.155  0.2356  1.6802  0.0735
 9339TIP3    H249509   1.997   1.255   5.218  0.5650  0.5760  0.1072
 9340TIP3   OH249510   3.488   0.575   4.163  0.5192  0.0399 -0.0885
 9340TIP3    H149511   3.467   0.483   4.175  1.7603 -0.3615 -0.8233
 9340TIP3    H249512   3.468   0.592   4.070  1.7686  0.0816 -0.3668
 9341TIP3   OH249513   0.289   5.080  12.280  0.0369 -0.1223  0.2375
 9341TIP3    H149514   0.323   5.109  12.196  0.3303 -0.1713  0.3383
 9341TIP3    H249515   0.363   5.034  12.321 -0.0350  0.0980  0.6177
 9342TIP3   OH249516   5.321   6.793   3.253 -0.1151  0.3293 -0.6463
 9342TIP3    H149517   5.384   6.721   3.258 -0.2683  0.3004  1.3594
 9342TIP3    H249518   5.345   6.851   3.325 -1.1387  1.3563 -1.1105
 9343TIP3   OH249519   4.116   5.249   4.463  0.4381  0.5129  0.3049
 9343TIP3    H149520   4.145   5.161   4.485 -1.5890  0.2099  2.1128
 9343TIP3    H249521   4.047   5.237   4.398  0.7798  0.8485 -0.1286
 9344TIP3   OH249522   3.945   6.697   4.895  0.4075 -0.4719 -0.1538
 9344TIP3    H149523   3.878   6.683   4.963 -0.4640  0.1180 -0.8791
 9344TIP3    H249524   3.957   6.791   4.892  0.8776 -0.5362 -0.4274
 9345TIP3   OH249525   0.215   1.655   1.162  0.1710  0.8055 -0.0974
 9345TIP3    H149526   0.243   1.590   1.098 -0.0233  2.0446 -1.4960
 9345TIP3    H249527   0.297   1.692   1.196  0.3293  1.9589 -1.5980
 9346TIP3   OH249528   1.286   1.603  14.615  0.0501 -0.3729  0.0903
 9346TIP3    H149529   1.200   1.615  14.654  0.6304 -2.5597  2.3406
 9346TIP3    H249530   1.269   1.556  14.533 -0.9056 -1.5731  0.9337
 9347TIP3   OH249531   4.584   1.948   2.476 -0.0106  0.0084 -0.2439
 9347TIP3    H149532   4.593   1.970   2.569 -1.2771  0.6292 -0.2474
 9347TIP3    H249533   4.622   2.022   2.430 -0.1814  0.1094 -0.2234
 9348TIP3   OH249534   2.702   4.496  13.642 -0.0425 -1.4104 -0.3848
 9348TIP3    H149535   2.747   4.563  13.693  0.4891 -2.7676  1.0135
 9348TIP3    H249536   2.636   4.460  13.701  0.5010 -2.9425 -0.6539
 9349TIP3   OH249537   6.404   1.227   1.726  0.1457  0.1916  0.6496
 9349TIP3    H149538   6.326   1.264   1.685 -0.7863 -0.4736  1.7704
 9349TIP3    H249539   6.423   1.148   1.677  0.7784  0.9002 -0.2962
 9350TIP3   OH249540   2.205   2.929  11.382  0.0808 -0.6296 -0.1484
 9350TIP3    H149541   2.169   2.939  11.294  0.0798  0.9731  0.0012
 9350TIP3    H249542   2.179   2.841  11.409  0.2497 -1.2342 -1.8151
 9351TIP3   OH249543   4.321   1.501   4.383 -0.2024  0.0793 -0.2218
 9351TIP3    H149544   4.260   1.556   4.333  0.0332  0.2961 -0.2725
 9351TIP3    H249545   4.306   1.413   4.349 -1.0160  0.0161  0.2950
 9352TIP3   OH249546   3.048   0.989  16.637  0.0492  0.3636 -0.1178
 9352TIP3    H149547   3.010   0.907  16.668 -1.1773  0.6034 -0.9100
 9352TIP3    H249548   3.041   0.983  16.541 -0.2741  1.4926 -0.1719
 9353TIP3   OH249549   4.580   3.431  15.376 -0.2487 -0.2984  0.3393
 9353TIP3    H149550   4.654   3.459  15.430 -1.3272 -1.2100  2.4002
 9353TIP3    H249551   4.506   3.483  15.407 -0.9116 -0.8922 -0.2037
 9354TIP3   OH249552   0.831   5.032  12.532  0.5786 -0.1274  0.2544
 9354TIP3    H149553   0.803   5.061  12.446 -0.8064  2.2899  1.4236
 9354TIP3    H249554   0.904   5.090  12.555  0.2178 -0.0024  1.1387
 9355TIP3   OH249555   0.388   4.173  11.169  1.1459 -0.0593  0.3180
 9355TIP3    H149556   0.361   4.265  11.162  2.5239  0.2518 -1.4771
 9355TIP3    H249557   0.420   4.164  11.259 -1.1216  0.5641  1.2647
 9356TIP3   OH249558   0.196   3.141  13.228  0.5753 -0.2734 -0.4172
 9356TIP3    H149559   0.209   3.211  13.164  1.3645 -0.6323 -0.6665
 9356TIP3    H249560   0.120   3.169  13.279  0.4509  0.4251 -0.9634
 9357TIP3   OH249561   1.083   5.846  14.150  0.0149  0.2916 -0.2875
 9357TIP3    H149562   1.067   5.925  14.202 -3.0372  0.2869 -1.0173
 9357TIP3    H249563   1.165   5.863  14.105 -0.1590  2.7478  0.1827
 9358TIP3   OH249564   4.519   2.997  12.128  0.8125  0.5311  0.1785
 9358TIP3    H149565   4.536   2.930  12.194 -1.8640 -0.1142  0.3448
 9358TIP3    H249566   4.564   3.075  12.160  3.2926 -0.8770  0.4321
 9359TIP3   OH249567   3.120   5.132   6.700 -0.6117 -0.2493  0.3166
 9359TIP3    H149568   3.158   5.192   6.635 -1.7496  0.6986  0.4993
 9359TIP3    H249569   3.104   5.051   6.651  3.3074 -1.4471  0.6277
 9360TIP3   OH249570   0.321   5.387   4.274 -0.0892 -0.0350  0.0044
 9360TIP3    H149571   0.410   5.355   4.260  0.4001  1.0526  0.5416
 9360TIP3    H249572   0.289   5.336   4.348  0.3797  0.1141  0.3161
 9361TIP3   OH249573   3.917   0.581   0.106  0.2715 -0.1691 -0.1016
 9361TIP3    H149574   3.918   0.556   0.199  1.0734  1.1698  0.2807
 9361TIP3    H249575   3.865   0.662   0.104 -2.0747 -1.6178 -1.2672
 9362TIP3   OH249576   4.208   3.046   5.085  0.3855  0.1009 -0.1497
 9362TIP3    H149577   4.216   2.951   5.091  0.5063  0.1060 -0.2243
 9362TIP3    H249578   4.131   3.067   5.137  0.8060  0.0354  0.5175
 9363TIP3   OH249579   0.151   1.264  11.514  0.1852  0.2101  0.4514
 9363TIP3    H149580   0.108   1.265  11.600  0.1899  2.1239  0.4677
 9363TIP3    H249581   0.193   1.178  11.510  1.6556  0.6867  3.1392
 9364TIP3   OH249582   5.440   3.057  16.868 -0.1846 -0.0158 -0.5901
 9364TIP3    H149583   5.500   3.017  16.930  0.6750 -0.8360 -1.8897
 9364TIP3    H249584   5.497   3.099  16.804 -0.9738 -0.6512 -1.7523
 9365TIP3   OH249585   0.842   1.033  14.795 -0.1230 -0.2838 -0.0535
 9365TIP3    H149586   0.823   1.067  14.707 -0.9170 -0.1063  0.1773
 9365TIP3    H249587   0.894   0.954  14.779 -0.0942 -0.1450 -0.6796
 9366TIP3   OH249588   2.220   0.523   3.399 -0.0193  0.1637 -0.3993
 9366TIP3    H149589   2.272   0.522   3.479 -0.3472 -0.0765 -0.1933
 9366TIP3    H249590   2.286   0.527   3.329  0.2741  0.0693 -0.1323
 9367TIP3   OH249591   5.160   2.313   6.173  0.2206 -0.9267  0.6940
 9367TIP3    H149592   5.119   2.345   6.253 -0.9451  1.6074 -0.7924
 9367TIP3    H249593   5.210   2.387   6.141  0.8452 -1.9585 -0.8141
 9368TIP3   OH249594   6.541   3.159   0.075 -0.3100  0.2985  0.2273
 9368TIP3    H149595   6.446   3.146   0.075 -0.2382 -0.3268 -0.5916
 9368TIP3    H249596   6.559   3.206  -0.006  0.2517 -1.1183 -0.5005
 9369TIP3   OH249597   3.838   0.521   5.038  0.5436  0.3305 -0.1873
 9369TIP3    H149598   3.868   0.485   4.955  0.0581 -0.9991  0.1988
 9369TIP3    H249599   3.902   0.490   5.102 -1.2059 -2.0502  0.5503
 9370TIP3   OH249600   6.425   5.558   5.431  0.0171 -0.1339 -0.0917
 9370TIP3    H149601   6.370   5.556   5.352 -0.1582  1.1456 -0.0270
 9370TIP3    H249602   6.514   5.542   5.399 -0.2409 -1.1151 -0.3447
 9371TIP3   OH249603   2.168   6.640   2.654 -0.2838 -0.5682 -0.8671
 9371TIP3    H149604   2.143   6.731   2.641  3.2780  0.3868 -2.2848
 9371TIP3    H249605   2.121   6.593   2.584 -3.4460 -0.2818  0.8556
 9372TIP3   OH249606   4.073   6.000   6.050 -0.9678  0.2170 -0.2089
 9372TIP3    H149607   4.137   5.955   5.995  0.2517 -0.3109  1.5857
 9372TIP3    H249608   4.105   6.090   6.055 -1.7826  0.5949 -1.3597
 9373TIP3   OH249609   2.782   5.583  11.673  0.2315 -0.3495  0.4098
 9373TIP3    H149610   2.831   5.573  11.591  1.0179 -0.1038  0.8334
 9373TIP3    H249611   2.848   5.571  11.742  0.2166  2.3132  1.0076
 9374TIP3   OH249612   5.054   1.672   5.273 -0.1345 -0.1487  0.0046
 9374TIP3    H149613   5.131   1.639   5.319 -0.2358  0.7933  0.8818
 9374TIP3    H249614   5.062   1.768   5.277 -0.9719 -0.0435 -0.5230
 9375TIP3   OH249615   2.510   6.489  12.407 -0.1636  0.3416  0.0714
 9375TIP3    H149616   2.444   6.542  12.452 -0.4127  1.6053 -1.6614
 9375TIP3    H249617   2.561   6.553  12.356  1.3646 -0.8017  0.1103
 9376TIP3   OH249618   2.692   0.724   2.210 -0.4367  0.1719  0.1641
 9376TIP3    H149619   2.692   0.658   2.278 -1.6642  0.8743  0.8850
 9376TIP3    H249620   2.753   0.691   2.144 -0.8880 -1.5836  0.5717
 9377TIP3   OH249621   6.010   0.083  10.810  0.1573 -0.4763 -0.2018
 9377TIP3    H149622   5.998   0.088  10.715 -0.1758 -0.2826 -0.1548
 9377TIP3    H249623   6.041  -0.006  10.826 -0.3120 -0.6880 -0.4418
 9378TIP3   OH249624   3.811   4.516  16.274  0.4779  0.1779  1.0122
 9378TIP3    H149625   3.871   4.444  16.293  0.0567 -0.8647 -1.2642
 9378TIP3    H249626   3.866   4.582  16.230  0.1535 -0.4996 -0.4814
 9379TIP3   OH249627   0.325   4.479   3.825 -0.5144 -0.4673  0.7671
 9379TIP3    H149628   0.411   4.522   3.828 -1.0519  0.5899  3.2485
 9379TIP3    H249629   0.334   4.402   3.880 -0.6450 -1.4656 -0.5696
 9380TIP3   OH249630   6.468   1.408  15.897  0.2613  0.7336 -0.5763
 9380TIP3    H149631   6.477   1.412  15.802 -0.3439 -1.2616 -0.7541
 9380TIP3    H249632   6.553   1.374  15.927  0.3123  0.9917 -0.4211
 9381TIP3   OH249633   3.988   1.384  16.052  0.5091 -0.3822 -0.8496
 9381TIP3    H149634   4.035   1.342  16.124 -1.3616 -0.3084  0.4617
 9381TIP3    H249635   4.036   1.466  16.037  0.0449  0.3770  1.4184
 9382TIP3   OH249636   5.821   5.140   0.359  0.2323 -0.2243  0.9230
 9382TIP3    H149637   5.743   5.172   0.403  1.2631  0.9711  1.9519
 9382TIP3    H249638   5.862   5.218   0.323 -0.1283 -1.0832 -1.4833
 9383TIP3   OH249639   3.340   0.849  16.174 -0.3603 -0.0841 -0.5286
 9383TIP3    H149640   3.367   0.839  16.265 -0.4920  0.2918 -0.4457
 9383TIP3    H249641   3.348   0.943  16.157  0.0286 -0.2063 -1.0214
 9384TIP3   OH249642   5.632   3.519  11.590 -0.8942 -0.4168  1.1818
 9384TIP3    H149643   5.705   3.580  11.582  0.1210 -1.7793 -0.9998
 9384TIP3    H249644   5.578   3.536  11.513 -1.0129 -1.6945  0.9607
 9385TIP3   OH249645   2.900   0.311   0.535 -0.4079 -0.6867 -0.1099
 9385TIP3    H149646   2.907   0.282   0.626  1.1855 -1.9959 -0.5960
 9385TIP3    H249647   2.904   0.406   0.539  0.4439 -0.7628  1.1455
 9386TIP3   OH249648   2.202   3.027  15.932 -0.5410 -0.5689  0.5434
 9386TIP3    H149649   2.236   3.030  16.021 -0.4045 -0.9542  0.5049
 9386TIP3    H249650   2.280   3.012  15.878 -0.9777 -3.6610  0.6136
 9387TIP3   OH249651   4.902   6.107   2.413  0.0295 -0.3359  0.3006
 9387TIP3    H149652   4.820   6.061   2.431  0.2848 -1.0711 -0.3583
 9387TIP3    H249653   4.940   6.124   2.499 -1.6350  1.5904  0.7431
 9388TIP3   OH249654   1.077   1.196  13.498  0.3622  0.2535 -0.2551
 9388TIP3    H149655   1.079   1.101  13.490  0.8274  0.2442 -0.0641
 9388TIP3    H249656   1.155   1.218  13.549  0.5865  0.7836 -0.8103
 9389TIP3   OH249657   1.003   4.956   3.881 -0.1123 -0.2862  0.7409
 9389TIP3    H149658   1.072   5.011   3.918 -0.1565  0.0919  0.2736
 9389TIP3    H249659   1.050   4.894   3.825 -0.2630  1.6587 -1.7594
 9390TIP3   OH249660   1.807   1.659  13.461  0.1601 -0.6575  0.1406
 9390TIP3    H149661   1.823   1.573  13.501 -0.0569 -0.1814  1.2720
 9390TIP3    H249662   1.844   1.651  13.373  0.8576 -1.6472  0.5068
 9391TIP3   OH249663   2.214   5.696  13.455 -0.0164 -0.0878 -0.3378
 9391TIP3    H149664   2.304   5.666  13.465 -0.7828 -2.8233 -0.5663
 9391TIP3    H249665   2.221   5.780  13.409  2.3713 -0.7634 -1.3757
 9392TIP3   OH249666   6.688   0.987   4.513 -0.3210  0.1768 -0.4834
 9392TIP3    H149667   6.722   1.071   4.481 -0.3673  0.2948 -0.2293
 9392TIP3    H249668   6.604   0.976   4.468 -1.3399  1.2965  1.0449
 9393TIP3   OH249669   4.523   0.019  15.885  0.5177 -0.2756  0.6342
 9393TIP3    H149670   4.569  -0.049  15.835  0.6699  0.4455 -0.2313
 9393TIP3    H249671   4.581   0.095  15.881 -0.1488  0.2405  0.6513
 9394TIP3   OH249672   2.380   2.914  14.075  0.0875  0.2184  0.3607
 9394TIP3    H149673   2.441   2.841  14.078  0.8979  0.8290 -0.6283
 9394TIP3    H249674   2.339   2.916  14.162 -0.1552 -1.5648  0.3146
 9395TIP3   OH249675   5.544   5.046  12.704  0.1930  0.4556  0.8310
 9395TIP3    H149676   5.569   5.111  12.770 -0.6473 -0.9407  2.6159
 9395TIP3    H249677   5.624   4.997  12.687  0.5409  1.1608  0.3744
 9396TIP3   OH249678   0.803   3.135   0.648 -0.1401  0.1767  0.0807
 9396TIP3    H149679   0.815   3.050   0.691  2.0616  1.0540  1.3625
 9396TIP3    H249680   0.749   3.185   0.709 -0.6599  0.0056 -0.2372
 9397TIP3   OH249681   3.571   3.228  16.507  0.4313  0.6031  0.7268
 9397TIP3    H149682   3.599   3.178  16.583  0.7672  1.0123  0.8731
 9397TIP3    H249683   3.649   3.277  16.480  0.0358  1.2694  0.7595
 9398TIP3   OH249684   4.426   1.819  12.752  0.1189 -0.0008 -1.0070
 9398TIP3    H149685   4.411   1.814  12.658 -0.3932 -0.6449 -0.8998
 9398TIP3    H249686   4.516   1.788  12.764  0.4189  0.7291 -1.3425
 9399TIP3   OH249687   5.074   1.040  16.849 -0.3853 -0.2011 -0.0127
 9399TIP3    H149688   4.989   1.044  16.893  0.6874  1.4143  2.0193
 9399TIP3    H249689   5.056   0.989  16.769 -3.5585  1.2348 -0.3698
 9400TIP3   OH249690   4.492   4.331  16.969 -0.0694 -0.1275  0.0271
 9400TIP3    H149691   4.572   4.379  16.991 -0.8638  1.4984 -0.4396
 9400TIP3    H249692   4.422   4.397  16.973 -1.2631 -1.3045 -0.4268
 9401TIP3   OH249693   4.279   6.584  15.710  0.0101  0.5398 -0.0002
 9401TIP3    H149694   4.327   6.570  15.791  0.6774 -0.0318 -0.4828
 9401TIP3    H249695   4.335   6.642  15.658  0.4063 -0.4676 -0.7385
 9402TIP3   OH249696   2.799   3.255   5.402 -0.2396  0.2800 -0.0116
 9402TIP3    H149697   2.739   3.263   5.327  2.7369 -0.0490 -2.6413
 9402TIP3    H249698   2.846   3.339   5.404 -0.9996  0.7227  2.3026
 9403TIP3   OH249699   2.396   4.467  11.209  0.3861  0.3883 -0.6281
 9403TIP3    H149700   2.361   4.430  11.128  1.2255  1.8637 -1.7222
 9403TIP3    H249701   2.400   4.562  11.192  2.1553  0.5615  0.4978
 9404TIP3   OH249702   4.419   6.824  15.557  0.4098  0.6614 -0.0961
 9404TIP3    H149703   4.478   6.765  15.510  0.2184 -0.0989  0.6054
 9404TIP3    H249704   4.359   6.856  15.489  0.0815 -0.4837 -0.3730
 9405TIP3   OH249705   3.104   5.445  13.343 -0.3221  0.1057  0.2163
 9405TIP3    H149706   3.095   5.540  13.345 -1.0526  0.0276  0.8146
 9405TIP3    H249707   3.160   5.424  13.418  0.9767  0.1605 -0.6901
 9406TIP3   OH249708   0.120   2.877   1.289  0.2937  0.2446  0.3181
 9406TIP3    H149709   0.153   2.810   1.349  0.2926  0.9221  1.0862
 9406TIP3    H249710   0.170   2.864   1.208 -0.9044 -1.8072 -0.1688
 9407TIP3   OH249711   1.809   5.580  13.298 -0.7296 -0.1122 -0.6359
 9407TIP3    H149712   1.817   5.644  13.368 -2.4633 -0.7070  0.1532
 9407TIP3    H249713   1.797   5.632  13.219 -2.2602  0.5633  0.0092
 9408TIP3   OH249714   3.291   5.482   1.045 -0.0381 -0.0797  0.6786
 9408TIP3    H149715   3.197   5.496   1.034 -0.3838 -1.2227  1.8852
 9408TIP3    H249716   3.320   5.444   0.962 -1.2672 -2.4802  1.2402
 9409TIP3   OH249717   2.839   2.551   3.906 -0.4195  0.6152  0.2051
 9409TIP3    H149718   2.862   2.541   3.813  1.3556  1.8082  0.4647
 9409TIP3    H249719   2.905   2.498   3.952 -1.2105  0.1366  0.7988
 9410TIP3   OH249720   6.506   6.806  11.060 -0.1775  0.1000 -0.1131
 9410TIP3    H149721   6.552   6.775  10.982 -0.7971 -1.3589  0.0653
 9410TIP3    H249722   6.472   6.891  11.036  0.5505  0.1337 -1.0675
 9411TIP3   OH249723   1.824   4.826  16.233 -0.0580  0.0417  0.4765
 9411TIP3    H149724   1.813   4.877  16.153 -1.6118 -1.5106 -0.3729
 9411TIP3    H249725   1.898   4.768  16.213  0.1470  0.2867  0.5205
 9412TIP3   OH249726   2.940   5.020  13.024 -0.1054 -0.7110  0.4805
 9412TIP3    H149727   2.929   5.030  13.118  1.4413 -0.3421  0.6529
 9412TIP3    H249728   3.022   4.972  13.014  0.6553  0.7357 -0.6889
 9413TIP3   OH249729   1.303   2.263  12.188  0.3514 -0.1107 -0.3073
 9413TIP3    H149730   1.323   2.175  12.157 -0.8716 -0.1555 -1.0500
 9413TIP3    H249731   1.214   2.279  12.156 -0.9647 -0.0768  3.0164
 9414TIP3   OH249732   1.314   6.587   2.949 -0.0116 -0.4304  0.4700
 9414TIP3    H149733   1.372   6.521   2.911 -1.7446 -1.5103 -0.4882
 9414TIP3    H249734   1.328   6.580   3.043  2.5312  0.4940  0.2375
 9415TIP3   OH249735   6.386   6.296   1.158  0.1521 -0.4244 -0.3194
 9415TIP3    H149736   6.422   6.360   1.096 -0.9155 -1.0607 -1.6455
 9415TIP3    H249737   6.438   6.217   1.144 -0.0404 -0.5478 -0.3415
 9416TIP3   OH249738   6.406   2.314   3.768 -0.0192  0.3260  0.1051
 9416TIP3    H149739   6.317   2.296   3.739  0.1972 -2.4729  0.9190
 9416TIP3    H249740   6.461   2.263   3.709  0.8936  0.3601  0.9050
 9417TIP3   OH249741   0.425   5.982  11.840 -0.1913  0.4139 -0.0312
 9417TIP3    H149742   0.389   5.927  11.910  0.1530 -0.7259 -0.7200
 9417TIP3    H249743   0.382   6.067  11.851  0.0536  0.3408  1.7170
 9418TIP3   OH249744   2.512   2.598   5.397  0.1145  1.0659  0.0470
 9418TIP3    H149745   2.530   2.570   5.308 -2.6921 -1.2829  0.0912
 9418TIP3    H249746   2.599   2.602   5.438  1.2654 -0.9096 -1.9479
 9419TIP3   OH249747   2.284   4.531   5.437  0.3396  0.0293 -0.1655
 9419TIP3    H149748   2.281   4.500   5.528 -0.5194  0.5053 -0.0201
 9419TIP3    H249749   2.290   4.451   5.385 -1.5030 -0.3949  0.2160
 9420TIP3   OH249750   5.188   1.788  11.240  0.1936 -0.0752  0.2480
 9420TIP3    H149751   5.212   1.875  11.273  0.0599  0.5005 -1.0734
 9420TIP3    H249752   5.106   1.767  11.284 -1.1481  1.6479 -1.2539
 9421TIP3   OH249753   6.403   1.425  14.110 -0.0973  0.5540 -0.4680
 9421TIP3    H149754   6.308   1.416  14.098  0.0711  0.0754 -1.5587
 9421TIP3    H249755   6.440   1.350  14.063  0.7667 -0.0333  1.1104
 9422TIP3   OH249756   5.196   1.656   3.862  0.1593 -0.0052  0.4400
 9422TIP3    H149757   5.218   1.637   3.953 -2.4214 -0.0212  1.1334
 9422TIP3    H249758   5.209   1.750   3.853  0.2118  0.0335  0.8947
 9423TIP3   OH249759   6.436   3.023  10.671 -0.5917 -1.0736 -0.4913
 9423TIP3    H149760   6.440   2.946  10.614  0.8468 -0.4684 -1.2345
 9423TIP3    H249761   6.498   3.004  10.741  1.7731  0.4593 -2.0624
 9424TIP3   OH249762   0.690   1.920  10.554 -0.0472 -0.8821 -0.2169
 9424TIP3    H149763   0.757   1.894  10.490 -1.8467 -0.3021 -2.4764
 9424TIP3    H249764   0.710   2.011  10.574  1.2697 -1.4259  1.1006
 9425TIP3   OH249765   5.690   0.263   0.748 -0.1212  0.1525 -0.1002
 9425TIP3    H149766   5.661   0.173   0.761  1.1867 -0.4333 -1.0450
 9425TIP3    H249767   5.611   0.316   0.763 -0.7483 -1.0722  1.1543
 9426TIP3   OH249768   0.586   5.303  12.521 -0.6794 -0.5410  0.3230
 9426TIP3    H149769   0.622   5.265  12.441 -1.1577 -0.7127  0.1897
 9426TIP3    H249770   0.523   5.368  12.490 -0.2754 -0.0348  0.5552
 9427TIP3   OH249771   2.611   1.652  13.712  0.1208 -0.1136 -0.4563
 9427TIP3    H149772   2.677   1.705  13.757  0.8163 -1.3732  0.0584
 9427TIP3    H249773   2.651   1.566  13.704 -1.2295 -0.7410 -0.6878
 9428TIP3   OH249774   3.383   0.940   5.083  0.3176 -0.6704  0.0329
 9428TIP3    H149775   3.342   0.936   5.170  0.0986 -0.0182 -0.0378
 9428TIP3    H249776   3.352   1.022   5.046  2.1818  0.1405  0.2068
 9429TIP3   OH249777   0.533   4.620  13.253 -0.5413  0.0211 -0.2821
 9429TIP3    H149778   0.596   4.688  13.277  1.6795 -2.0804  0.1772
 9429TIP3    H249779   0.448   4.661  13.269  0.6901  2.2477  1.2329
 9430TIP3   OH249780   4.865   5.214  10.500  0.7563  0.3393  0.4006
 9430TIP3    H149781   4.805   5.244  10.432  0.8665  0.6296  0.4307
 9430TIP3    H249782   4.808   5.182  10.570  0.6417 -0.5927 -0.1028
 9431TIP3   OH249783   2.232   6.338   0.156 -0.1555 -0.1735  0.9105
 9431TIP3    H149784   2.196   6.382   0.078 -0.8134  2.0868  2.4003
 9431TIP3    H249785   2.320   6.374   0.165  0.6027 -1.7672  0.2650
 9432TIP3   OH249786   2.768   2.530   3.210  0.2605 -0.5802  0.1451
 9432TIP3    H149787   2.752   2.496   3.298  0.2458  0.7282  0.6573
 9432TIP3    H249788   2.848   2.582   3.218 -0.9115  1.3449 -0.0961
 9433TIP3   OH249789   2.984   5.979  15.376 -0.1436 -0.1831  0.0978
 9433TIP3    H149790   3.032   5.928  15.442  0.0636 -1.2676 -0.8493
 9433TIP3    H249791   2.963   6.061  15.420  0.6351 -0.5761  1.2672
 9434TIP3   OH249792   3.917   2.550  15.661 -0.1940 -0.2776  0.3854
 9434TIP3    H149793   3.980   2.603  15.709  0.1638  0.2747 -0.6696
 9434TIP3    H249794   3.934   2.460  15.690 -0.7084  0.1415  2.0719
 9435TIP3   OH249795   0.508   4.857  10.997  0.1037 -0.4759  0.8435
 9435TIP3    H149796   0.584   4.820  11.040 -0.7570 -1.4409  1.5744
 9435TIP3    H249797   0.523   4.842  10.904  0.3622 -1.5412  1.0462
 9436TIP3   OH249798   3.264   6.095  16.457  0.3831 -0.1315 -0.2029
 9436TIP3    H149799   3.245   6.025  16.395 -0.3750 -0.8443  0.7943
 9436TIP3    H249800   3.356   6.084  16.480 -0.0501 -1.6623  0.9487
 9437TIP3   OH249801   5.729   0.734   2.641 -0.2258  0.5525 -0.2930
 9437TIP3    H149802   5.664   0.704   2.577  0.9094 -0.3687 -1.0713
 9437TIP3    H249803   5.806   0.753   2.589  0.0336  2.0041  0.5761
 9438TIP3   OH249804   0.580   6.768   0.887 -0.1770  0.3106 -0.2864
 9438TIP3    H149805   0.568   6.813   0.971 -1.9930 -0.4006 -0.1227
 9438TIP3    H249806   0.650   6.705   0.904  1.5527  2.1496 -0.1799
 9439TIP3   OH249807   0.213   0.531   5.166 -0.1478 -0.1923  0.1141
 9439TIP3    H149808   0.212   0.578   5.083  0.1661 -1.5124 -0.6722
 9439TIP3    H249809   0.123   0.504   5.179  0.0450 -1.2145 -0.5527
 9440TIP3   OH249810   3.557   4.502   0.321 -0.2350 -0.2891 -0.1572
 9440TIP3    H149811   3.505   4.425   0.345 -1.0304  0.0311 -0.8232
 9440TIP3    H249812   3.581   4.487   0.230 -1.0705  0.6168 -0.5381
 9441TIP3   OH249813   4.059   0.503  13.874  0.1610 -0.7221  0.4639
 9441TIP3    H149814   3.979   0.556  13.874  0.6228 -0.0015  0.6940
 9441TIP3    H249815   4.070   0.477  13.966 -1.1240 -2.9185  0.0776
 9442TIP3   OH249816   3.848   1.754   2.429  0.2714 -0.3906  0.5801
 9442TIP3    H149817   3.842   1.669   2.385 -2.2834 -0.3900  0.8156
 9442TIP3    H249818   3.763   1.767   2.470  1.1532  1.5533  1.9830
 9443TIP3   OH249819   1.818   2.511   5.376 -0.2189 -0.3448  0.5673
 9443TIP3    H149820   1.897   2.533   5.426  1.2994 -0.9212 -1.4121
 9443TIP3    H249821   1.747   2.554   5.422  1.3197  0.5648  2.2017
 9444TIP3   OH249822   5.534   5.020   6.100 -0.1837  0.3256  0.0303
 9444TIP3    H149823   5.443   5.030   6.071 -0.0711 -1.2742 -1.0145
 9444TIP3    H249824   5.527   4.963   6.177 -0.1689  1.5442  0.9659
 9445TIP3   OH249825   0.417   4.177   3.719  0.3240 -0.1076 -0.1927
 9445TIP3    H149826   0.334   4.163   3.674 -0.8444 -1.3013  2.1603
 9445TIP3    H249827   0.480   4.123   3.669 -1.0620 -1.9671 -0.0386
 9446TIP3   OH249828   1.403   6.293   3.828 -0.1925 -0.7591 -0.2442
 9446TIP3    H149829   1.363   6.379   3.841  1.8723  0.3794 -0.9754
 9446TIP3    H249830   1.331   6.237   3.799 -1.3047  1.1208 -1.3252
 9447TIP3   OH249831   0.707   0.965   3.804 -0.3149  0.0454  0.0564
 9447TIP3    H149832   0.631   1.022   3.792 -0.1874  0.7234  1.9827
 9447TIP3    H249833   0.778   1.026   3.826  0.2875 -0.7298  0.2881
 9448TIP3   OH249834   5.000   0.482   1.647 -0.1174  0.1333  0.1244
 9448TIP3    H149835   4.915   0.452   1.617 -0.9069  1.1614  1.2223
 9448TIP3    H249836   5.055   0.404   1.645 -1.2023 -0.6492 -0.1778
 9449TIP3   OH249837   0.640   1.475   4.788 -0.5584 -0.7979 -0.2869
 9449TIP3    H149838   0.627   1.510   4.876 -0.2849 -0.6017 -0.3233
 9449TIP3    H249839   0.561   1.501   4.740 -0.3376 -0.1854 -0.3254
 9450TIP3   OH249840   3.173   3.052   1.403  0.2992 -0.0590 -0.1490
 9450TIP3    H149841   3.093   3.087   1.365 -0.0977 -1.6841 -0.9108
 9450TIP3    H249842   3.220   3.014   1.328  1.7243  0.7121  0.3037
 9451TIP3   OH249843   5.658   1.807  13.933  0.2864  0.2917  0.3970
 9451TIP3    H149844   5.617   1.754  13.865  0.2445  2.0907 -1.0363
 9451TIP3    H249845   5.720   1.862  13.887  0.3410  1.4876  1.8245
 9452TIP3   OH249846   0.607   5.676  11.867  0.0326  0.4602  0.0629
 9452TIP3    H149847   0.578   5.609  11.804 -0.8404  1.3551 -0.5144
 9452TIP3    H249848   0.526   5.715  11.899  0.5408  1.6313 -0.0343
 9453TIP3   OH249849   0.726   2.411  13.824  0.2929 -0.3425 -0.5485
 9453TIP3    H149850   0.650   2.355  13.838  0.5994 -0.7782 -0.6200
 9453TIP3    H249851   0.799   2.362  13.862  0.9333 -0.9577 -2.4566
 9454TIP3   OH249852   4.837   0.833   4.135  0.2286  0.0364 -0.3928
 9454TIP3    H149853   4.743   0.822   4.119  0.2095 -0.0591 -0.2190
 9454TIP3    H249854   4.871   0.873   4.055 -0.0290  0.4539 -0.2966
 9455TIP3   OH249855   3.531   4.192   2.324 -0.2251 -0.5689 -0.3830
 9455TIP3    H149856   3.560   4.109   2.286  0.1633 -1.3540  1.4774
 9455TIP3    H249857   3.607   4.224   2.371 -1.2435 -0.7800  1.5162
 9456TIP3   OH249858   4.311   4.548   3.147 -0.0609 -0.3267 -0.6942
 9456TIP3    H149859   4.245   4.575   3.083 -0.6630  0.0658  0.0767
 9456TIP3    H249860   4.260   4.518   3.223  0.6017  2.4280  0.9406
 9457TIP3   OH249861   1.495   1.950  16.802 -0.4992 -0.1767 -0.1120
 9457TIP3    H149862   1.530   1.943  16.891 -0.1524 -0.0521 -0.2388
 9457TIP3    H249863   1.528   1.873  16.756  0.4926  0.4807 -0.5303
 9458TIP3   OH249864   4.556   3.244   1.603  0.3652  0.0249  0.7074
 9458TIP3    H149865   4.632   3.302   1.598  0.5992 -0.3400 -0.1621
 9458TIP3    H249866   4.590   3.158   1.577 -0.5747  0.0915 -0.8185
 9459TIP3   OH249867   3.787   0.872  13.590 -0.1375 -0.2542 -0.3928
 9459TIP3    H149868   3.856   0.809  13.570  0.1403  0.3054 -1.2814
 9459TIP3    H249869   3.714   0.847  13.533 -0.0627  0.1434 -0.6726
 9460TIP3   OH249870   6.442   1.484  17.076  0.3069 -0.6516 -0.5155
 9460TIP3    H149871   6.532   1.501  17.046  0.6457 -0.5568  0.5314
 9460TIP3    H249872   6.451   1.416  17.143  0.0009  1.5514  1.9068
 9461TIP3   OH249873   1.056   5.458   5.419  0.1604  0.0858  0.1342
 9461TIP3    H149874   1.101   5.532   5.460 -1.1628  1.0511 -0.0994
 9461TIP3    H249875   0.994   5.427   5.486  0.8949 -1.0107  0.3337
 9462TIP3   OH249876   1.043   2.203  12.649 -0.3649  0.0051 -0.4017
 9462TIP3    H149877   0.958   2.165  12.627 -1.0069  2.0366 -1.6865
 9462TIP3    H249878   1.083   2.139  12.708 -1.5692 -2.3838 -2.0006
 9463TIP3   OH249879   5.073   6.638  11.135 -0.0957  0.1297  0.2702
 9463TIP3    H149880   5.100   6.624  11.044  0.0689  2.0666 -0.0252
 9463TIP3    H249881   5.034   6.554  11.162  0.9761 -0.8781 -1.1573
 9464TIP3   OH249882   4.006   1.967   4.878 -0.2312 -0.6126  0.5145
 9464TIP3    H149883   3.917   2.003   4.876 -0.6300 -1.4131  2.1761
 9464TIP3    H249884   3.996   1.881   4.919  1.2069 -1.0659 -0.0339
 9465TIP3   OH249885   4.089   0.998   1.297  0.2968 -0.2793  0.2389
 9465TIP3    H149886   4.049   0.986   1.211 -0.8811  0.6555  0.6124
 9465TIP3    H249887   4.045   0.934   1.353 -2.1115  1.8610  1.0412
 9466TIP3   OH249888   2.288   5.110  11.603 -0.1106  0.2873  0.1150
 9466TIP3    H149889   2.314   5.040  11.543  0.4953 -0.2727  0.9991
 9466TIP3    H249890   2.371   5.148  11.632 -0.4309  1.1713 -0.1192
 9467TIP3   OH249891   1.612   0.209  14.233 -0.4533  0.5120 -0.9124
 9467TIP3    H149892   1.521   0.212  14.203 -0.9161  2.1200  0.4581
 9467TIP3    H249893   1.654   0.284  14.190 -0.1294  0.5367 -0.5544
 9468TIP3   OH249894   3.387   3.590  13.160  0.0333 -0.1060  0.2447
 9468TIP3    H149895   3.353   3.619  13.245 -0.8348 -0.4479  0.0162
 9468TIP3    H249896   3.311   3.587  13.103  0.8882  2.1935 -1.1626
 9469TIP3   OH249897   1.040   4.027   4.079 -0.0473 -0.5604  0.2356
 9469TIP3    H149898   1.132   4.046   4.063  0.2491 -0.0831  2.2428
 9469TIP3    H249899   0.996   4.112   4.071 -0.2375 -0.7020 -0.2382
 9470TIP3   OH249900   2.731   4.730   1.281 -0.3201  0.2112 -0.1120
 9470TIP3    H149901   2.819   4.693   1.283 -0.4887 -0.2638  2.8909
 9470TIP3    H249902   2.731   4.796   1.350 -2.0195  0.9914 -0.7938
 9471TIP3   OH249903   1.029   3.260  16.540  0.3069 -0.0744  0.3762
 9471TIP3    H149904   0.970   3.283  16.612  0.7510  1.0388  0.4041
 9471TIP3    H249905   1.107   3.312  16.555  0.4379  0.1204 -0.8666
 9472TIP3   OH249906   4.430   3.609   3.068  0.0766  0.7204  0.3974
 9472TIP3    H149907   4.519   3.625   3.100  0.6960 -0.1175 -0.8145
 9472TIP3    H249908   4.374   3.623   3.145  1.2032  1.6415  1.0871
 9473TIP3   OH249909   3.581   4.790  13.632  0.1017  0.2994  0.3328
 9473TIP3    H149910   3.517   4.772  13.563 -0.9099 -0.1579  1.3673
 9473TIP3    H249911   3.539   4.857  13.687  0.4040 -0.1735  1.1586
 9474TIP3   OH249912   6.111   6.218  12.208  0.4236 -0.4304  0.5687
 9474TIP3    H149913   6.113   6.208  12.113  1.1808  3.7439 -0.0581
 9474TIP3    H249914   6.199   6.249  12.230 -0.0082 -0.4510  2.4939
 9475TIP3   OH249915   1.500   3.364   5.881 -0.1454 -0.0876 -0.4832
 9475TIP3    H149916   1.563   3.300   5.913  0.1743  0.4312 -0.0547
 9475TIP3    H249917   1.414   3.326   5.902  0.0455 -0.2701 -0.0165
 9476TIP3   OH249918   4.158   1.330  12.043 -0.0459  0.6077 -0.1487
 9476TIP3    H149919   4.197   1.253  12.085 -0.2810  0.3505 -0.3967
 9476TIP3    H249920   4.109   1.373  12.114 -0.0882  0.4129 -0.0593
 9477TIP3   OH249921   4.621   6.135  13.944  0.4777  0.0340  0.6510
 9477TIP3    H149922   4.629   6.216  13.995 -0.3671 -0.9793  2.5023
 9477TIP3    H249923   4.554   6.084  13.990 -0.4035 -0.9448 -1.5407
 9478TIP3   OH249924   3.049   3.522   3.650 -0.8029  0.5147 -0.1983
 9478TIP3    H149925   3.017   3.512   3.561 -0.6859 -1.3201 -0.0790
 9478TIP3    H249926   3.137   3.485   3.649 -0.3373  1.5630  0.4290
 9479TIP3   OH249927   4.140   1.327  15.547  0.5149 -0.9630  0.5239
 9479TIP3    H149928   4.231   1.342  15.574  0.1771  0.0859  1.1366
 9479TIP3    H249929   4.133   1.232  15.538  1.1131 -1.2552  2.5802
 9480TIP3   OH249930   4.602   4.909   5.631 -0.0853 -0.0143 -0.1614
 9480TIP3    H149931   4.595   4.929   5.724 -1.0650  0.0608 -0.2371
 9480TIP3    H249932   4.515   4.877   5.607 -0.5592  2.0425 -1.5055
 9481TIP3   OH249933   3.898   0.353   4.175 -0.3203 -0.1788 -0.1300
 9481TIP3    H149934   3.991   0.356   4.151  0.1149 -0.4851  1.3827
 9481TIP3    H249935   3.864   0.275   4.130  0.4814 -0.7959  0.2986
 9482TIP3   OH249936   2.251   6.600   6.380  0.4819  0.0554  0.2927
 9482TIP3    H149937   2.262   6.583   6.286  0.3479 -1.5523  0.5442
 9482TIP3    H249938   2.243   6.695   6.386  3.7339  0.5469 -0.9938
 9483TIP3   OH249939   2.066   0.120   2.543  0.4374  0.2143 -0.3578
 9483TIP3    H149940   1.972   0.099   2.541  0.2548  0.6504  1.4483
 9483TIP3    H249941   2.078   0.186   2.475 -0.2459 -0.9537 -1.6544
 9484TIP3   OH249942   4.510   1.007  15.186 -0.0187 -0.0708  0.3343
 9484TIP3    H149943   4.599   0.978  15.201  0.2695 -0.4003 -1.7820
 9484TIP3    H249944   4.458   0.927  15.181 -0.2852  0.0781  0.6217
 9485TIP3   OH249945   6.681   5.411  12.200  0.2220  0.2169 -0.1084
 9485TIP3    H149946   6.635   5.355  12.137  1.5503 -1.1302  0.0590
 9485TIP3    H249947   6.647   5.499  12.184 -0.8960 -0.4169 -1.3566
 9486TIP3   OH249948   5.297   0.810  13.558  0.1421 -0.1272 -0.0085
 9486TIP3    H149949   5.322   0.719  13.540  1.4108  0.0461  0.7414
 9486TIP3    H249950   5.259   0.808  13.646  0.0151  0.0396 -0.0581
 9487TIP3   OH249951   3.146   5.530  13.817 -0.1565 -0.7052  0.2364
 9487TIP3    H149952   3.055   5.508  13.801  0.1395 -0.3684 -2.3279
 9487TIP3    H249953   3.153   5.623  13.797  0.4509 -0.3335  2.0133
 9488TIP3   OH249954   2.447   2.589   3.531 -0.2606 -0.3882 -0.5710
 9488TIP3    H149955   2.524   2.633   3.494 -0.8495 -1.3030 -3.0772
 9488TIP3    H249956   2.383   2.587   3.460 -1.7246 -1.7671  0.6905
 9489TIP3   OH249957   0.360   6.367   1.028  0.2188 -0.1620 -0.0446
 9489TIP3    H149958   0.387   6.286   1.070 -0.7969 -0.5107 -0.0436
 9489TIP3    H249959   0.409   6.369   0.945  0.4725 -0.6154  0.0901
 9490TIP3   OH249960   6.588   4.548  13.530 -0.4963  0.3110 -0.1994
 9490TIP3    H149961   6.639   4.516  13.455 -1.5318 -0.3750 -0.6497
 9490TIP3    H249962   6.559   4.468  13.574  0.5199  0.7072  1.2617
 9491TIP3   OH249963   3.095   5.176  14.494 -0.2012  0.5774 -0.1039
 9491TIP3    H149964   3.072   5.174  14.401 -1.1045 -0.6806  0.1184
 9491TIP3    H249965   3.156   5.103  14.506 -0.5021  0.3955  0.3792
 9492TIP3   OH249966   0.439   5.508   5.671 -0.0020 -0.0883 -0.4228
 9492TIP3    H149967   0.366   5.508   5.733  0.5421  1.2388  0.2607
 9492TIP3    H249968   0.491   5.432   5.696  0.3858  0.6063  1.0065
 9493TIP3   OH249969   3.802   1.335   1.333 -0.3141  0.0109 -0.0647
 9493TIP3    H149970   3.879   1.345   1.277 -1.0892 -0.6019 -1.3008
 9493TIP3    H249971   3.794   1.240   1.346 -0.4474  0.1177  0.6363
 9494TIP3   OH249972   3.188   5.858   4.561 -0.3172  0.7047 -0.5034
 9494TIP3    H149973   3.153   5.928   4.506 -0.4995  0.4640 -0.6973
 9494TIP3    H249974   3.227   5.903   4.636 -2.1343  0.9312  0.3504
 9495TIP3   OH249975   6.713   0.649  15.815 -0.4082 -0.0329  0.6803
 9495TIP3    H149976   6.663   0.606  15.746  0.1196 -0.4115  0.5277
 9495TIP3    H249977   6.693   0.599  15.895 -0.6386  0.1051  0.7091
 9496TIP3   OH249978   5.957   1.676  14.741  0.0524  0.3491 -0.3897
 9496TIP3    H149979   5.942   1.607  14.676  0.0037 -0.2938  0.2924
 9496TIP3    H249980   5.917   1.642  14.821  0.2329  1.0769  0.0139
 9497TIP3   OH249981   3.014   0.466   0.302 -0.1664  1.0115  0.3647
 9497TIP3    H149982   2.955   0.439   0.372 -0.7740 -1.1892 -0.9266
 9497TIP3    H249983   3.100   0.471   0.345 -0.3161 -1.4202  1.0739
 9498TIP3   OH249984   4.286   2.472  11.837 -0.3312 -0.1514  0.0969
 9498TIP3    H149985   4.282   2.538  11.906 -1.6399 -1.1860  1.0861
 9498TIP3    H249986   4.261   2.390  11.881 -0.4559 -0.9846 -1.4432
 9499TIP3   OH249987   1.347   3.364  11.896  0.3412 -0.4572  0.4177
 9499TIP3    H149988   1.257   3.395  11.911 -0.2946 -0.8373 -2.1532
 9499TIP3    H249989   1.338   3.271  11.876  1.4770 -0.7907  1.3514
 9500TIP3   OH249990   5.200   1.209  15.601 -0.5267 -0.1351  0.7235
 9500TIP3    H149991   5.132   1.144  15.587  0.9196 -1.1949 -2.1061
 9500TIP3    H249992   5.186   1.274  15.532 -0.6024  1.4615  2.1569
 9501TIP3   OH249993   4.715   5.289   2.747 -0.0465 -0.2530 -0.3567
 9501TIP3    H149994   4.768   5.280   2.826 -0.2834 -2.5628 -0.3903
 9501TIP3    H249995   4.650   5.220   2.754 -0.7004  0.1365 -2.0996
 9502TIP3   OH249996   0.656   3.089   1.987 -0.4079 -0.8009 -0.2982
 9502TIP3    H149997   0.610   3.005   1.994 -0.4031 -0.7003  1.3110
 9502TIP3    H249998   0.738   3.068   1.943 -2.0823 -0.9056 -3.7311
 9503TIP3   OH249999   3.221   6.673  14.957 -0.1397 -0.6833 -0.2990
 9503TIP3    H150000   3.272   6.644  14.881 -0.5726 -0.9621 -0.4877
 9503TIP3    H250001   3.138   6.704  14.920  1.2471  3.4939 -0.4693
 9504TIP3   OH250002   2.926   3.085   3.176 -0.3448  0.0600 -0.0604
 9504TIP3    H150003   2.869   3.150   3.135  0.5438  0.4221 -0.7351
 9504TIP3    H250004   2.944   3.022   3.106  0.8980  0.4955 -0.1480
 9505TIP3   OH250005   4.854   4.552  13.602  0.4847  0.1530  0.1824
 9505TIP3    H150006   4.847   4.584  13.692 -1.5409 -1.2969  0.6101
 9505TIP3    H250007   4.823   4.625  13.548  0.3698  0.5421  0.7618
 9506TIP3   OH250008   1.134   1.705   0.411 -0.3617 -0.1752  0.1862
 9506TIP3    H150009   1.043   1.728   0.428 -0.3830  2.8576 -2.9441
 9506TIP3    H250010   1.130   1.616   0.376 -2.4142  0.5517 -1.6113
 9507TIP3   OH250011   4.044   2.695   3.587  0.7018  0.2790  0.4678
 9507TIP3    H150012   4.071   2.603   3.589 -0.4116 -0.2726 -2.7930
 9507TIP3    H250013   3.993   2.707   3.667 -0.7568 -2.5474  0.0874
 9508TIP3   OH250014   3.630   2.796  11.795  0.1489  0.1596  0.3758
 9508TIP3    H150015   3.685   2.721  11.774  0.3177  0.2008  0.6563
 9508TIP3    H250016   3.555   2.759  11.842 -0.5676 -0.0098 -0.8595
 9509TIP3   OH250017   4.722   6.160  11.560  0.1210 -0.1198  0.7364
 9509TIP3    H150018   4.701   6.077  11.518 -0.0971 -1.8922  3.9738
 9509TIP3    H250019   4.803   6.142  11.608 -1.0592  0.7796  3.2370
 9510TIP3   OH250020   4.158   1.911  14.028 -0.4155  0.2101 -0.6692
 9510TIP3    H150021   4.247   1.879  14.020  0.0162  1.0803  0.3410
 9510TIP3    H250022   4.138   1.947  13.942  0.8472  1.5097 -0.4677
 9511TIP3   OH250023   6.423   1.063   2.299  0.5701  0.0100 -0.5638
 9511TIP3    H150024   6.433   1.078   2.393 -0.5424 -0.3950 -0.3716
 9511TIP3    H250025   6.463   1.141   2.259 -0.6839  1.1419  0.2943
 9512TIP3   OH250026   4.973   1.276  13.147 -0.6212  0.2256  0.0457
 9512TIP3    H150027   4.885   1.240  13.146 -0.0459 -1.2553 -0.7281
 9512TIP3    H250028   4.966   1.359  13.100 -1.5269 -0.0714 -0.3533
 9513TIP3   OH250029   3.660   5.232  15.359 -0.2840  1.1878  0.7906
 9513TIP3    H150030   3.667   5.216  15.265 -1.0024  0.1790  0.8849
 9513TIP3    H250031   3.737   5.285  15.380  0.2022  0.9381 -0.2584
 9514TIP3   OH250032   4.650   4.142   3.212  0.0162 -0.3288  0.1904
 9514TIP3    H150033   4.597   4.194   3.272  1.0576  0.7309  0.2418
 9514TIP3    H250034   4.731   4.193   3.201 -0.2480 -0.2882 -2.3710
 9515TIP3   OH250035   0.135   5.215   2.583  0.7011  0.5316 -0.3114
 9515TIP3    H150036   0.115   5.303   2.549 -3.0270  0.4435  1.1410
 9515TIP3    H250037   0.061   5.161   2.553 -0.0928 -0.6991  3.4184
 9516TIP3   OH250038   0.283   4.697  11.332 -0.3202 -0.1717  0.0007
 9516TIP3    H150039   0.223   4.670  11.401 -0.2706 -0.5494 -0.1002
 9516TIP3    H250040   0.364   4.649  11.350 -0.1610  0.0695 -0.0645
 9517TIP3   OH250041   1.597   5.284   5.588 -0.1051  0.4255 -0.2917
 9517TIP3    H150042   1.657   5.351   5.622 -0.4048  1.1080 -1.0705
 9517TIP3    H250043   1.654   5.214   5.556  0.2091  0.2323  0.6404
 9518TIP3   OH250044   2.111   2.334  16.548 -0.6314 -0.0735  0.4172
 9518TIP3    H150045   2.016   2.331  16.546 -0.6186 -0.2862 -0.0938
 9518TIP3    H250046   2.138   2.284  16.471 -0.0479 -2.7866  2.2230
 9519TIP3   OH250047   3.850   1.562   4.137  0.2032  0.0225 -0.6694
 9519TIP3    H150048   3.857   1.574   4.043  0.1947 -0.8096 -0.7813
 9519TIP3    H250049   3.756   1.555   4.154  0.2706 -2.5692 -0.9827
 9520TIP3   OH250050   3.265   2.306  14.141 -0.6015  0.3941  0.2213
 9520TIP3    H150051   3.242   2.315  14.048 -0.4904  1.0419  0.2531
 9520TIP3    H250052   3.281   2.396  14.170 -0.0063  0.1308  0.7099
 9521TIP3   OH250053   3.925   5.905   1.793 -0.2759  0.1684  0.0322
 9521TIP3    H150054   3.846   5.859   1.764 -1.1376  1.5644  0.1075
 9521TIP3    H250055   3.974   5.920   1.713 -0.6551  0.3387 -0.1717
 9522TIP3   OH250056   6.452   2.900   3.714  0.2798 -0.1925 -0.4986
 9522TIP3    H150057   6.404   2.825   3.748  0.3362  0.7067  1.8166
 9522TIP3    H250058   6.544   2.876   3.722  0.3204  0.3058  0.8875
 9523TIP3   OH250059   1.858   4.754   5.572 -0.0270 -0.5334  0.1006
 9523TIP3    H150060   1.771   4.749   5.534 -0.3928  1.0818  0.6688
 9523TIP3    H250061   1.917   4.727   5.502 -0.8608 -0.0974 -0.7789
 9524TIP3   OH250062   4.356   2.999  14.502 -0.5090 -0.2235 -0.0638
 9524TIP3    H150063   4.408   2.998  14.582 -3.6351  0.7614  2.1645
 9524TIP3    H250064   4.395   3.068  14.448  1.0479 -0.1946  1.0524
 9525TIP3   OH250065   3.603   6.385   1.509 -0.1558  0.2619 -0.2323
 9525TIP3    H150066   3.681   6.370   1.455 -0.0368 -2.9323  0.6237
 9525TIP3    H250067   3.630   6.452   1.572  0.2089  2.8888 -2.9518
 9526TIP3   OH250068   3.283   2.117   2.228 -0.0357  0.1797 -0.1896
 9526TIP3    H150069   3.359   2.128   2.172 -0.2334  2.3629 -0.0875
 9526TIP3    H250070   3.210   2.103   2.166  0.4703 -2.8866 -0.2758
 9527TIP3   OH250071   1.823   2.074   2.444 -0.1671  0.4654  0.4105
 9527TIP3    H150072   1.871   2.116   2.515 -0.7554  1.1523  0.4122
 9527TIP3    H250073   1.742   2.043   2.485 -1.6250  2.9428 -0.3769
 9528TIP3   OH250074   1.080   3.752   2.378  1.1117  0.2357  0.4114
 9528TIP3    H150075   1.099   3.722   2.289  2.8152  1.6547  0.2279
 9528TIP3    H250076   1.029   3.832   2.365  0.3132 -0.2132  0.7572
 9529TIP3   OH250077   1.748   4.819   1.302  0.1155  0.0915  0.1868
 9529TIP3    H150078   1.714   4.764   1.371  0.5182  0.1850  0.4594
 9529TIP3    H250079   1.724   4.908   1.328 -0.5863  0.0513 -0.2812
 9530TIP3   OH250080   4.917   2.311   5.123 -0.4406  0.2157  0.2535
 9530TIP3    H150081   4.919   2.392   5.071 -0.1441  0.1353  0.1394
 9530TIP3    H250082   4.862   2.333   5.198  0.2830  0.7792  0.6373
 9531TIP3   OH250083   0.869   2.793   3.845 -0.6376 -0.4845 -0.3047
 9531TIP3    H150084   0.909   2.713   3.880  0.1143 -1.0428 -2.2938
 9531TIP3    H250085   0.779   2.767   3.824 -0.7025 -0.5089 -0.0048
 9532TIP3   OH250086   2.696   4.155  13.380  0.5146 -0.4022  0.3800
 9532TIP3    H150087   2.605   4.127  13.373  0.4537 -0.2739  0.6539
 9532TIP3    H250088   2.731   4.104  13.453  0.6652 -0.4618  0.2658
 9533TIP3   OH250089   3.480   4.811   3.041 -0.2958  0.1732  0.1619
 9533TIP3    H150090   3.528   4.776   2.966 -2.0221 -0.2174 -0.8273
 9533TIP3    H250091   3.462   4.734   3.095  0.7454  0.4205  0.8773
 9534TIP3   OH250092   1.815   1.062  15.481 -0.5851 -0.1513  0.3337
 9534TIP3    H150093   1.872   1.031  15.411 -1.1819 -1.0537  0.2340
 9534TIP3    H250094   1.731   1.081  15.438 -0.8437 -0.3656  0.7367
 9535TIP3   OH250095   6.835   6.400  16.362  0.5101 -0.0129  0.2876
 9535TIP3    H150096   6.826   6.477  16.305  1.9692 -0.9651 -1.3073
 9535TIP3    H250097   6.922   6.366  16.343  0.9643 -0.5435  2.9464
 9536TIP3   OH250098   2.849   1.516  11.699  0.5624  0.3979 -0.2883
 9536TIP3    H150099   2.908   1.592  11.694  1.3780 -0.2584 -1.0564
 9536TIP3    H250100   2.899   1.445  11.659 -0.4098 -0.4134 -0.0950
 9537TIP3   OH250101   4.860   1.977   3.790 -0.2505  0.3481  0.5594
 9537TIP3    H150102   4.909   2.017   3.719 -1.0737 -0.5893 -0.5852
 9537TIP3    H250103   4.824   2.051   3.839  0.8081  1.0121  0.3605
 9538TIP3   OH250104   6.424   0.119   6.467  0.9486 -0.7580  0.3265
 9538TIP3    H150105   6.378   0.051   6.516  0.8063 -0.9141 -0.0205
 9538TIP3    H250106   6.516   0.099   6.478  0.9236 -0.6483  0.7373
 9539TIP3   OH250107   1.750   5.282   4.988 -0.4454 -0.5830  0.5210
 9539TIP3    H150108   1.677   5.342   4.974  0.1267  0.1543  0.6390
 9539TIP3    H250109   1.823   5.322   4.942  0.9854  0.9059  3.7804
 9540TIP3   OH250110   6.570   5.880   1.711 -0.3678 -0.3859 -0.0224
 9540TIP3    H150111   6.583   5.942   1.783 -0.2880 -0.9248  0.4345
 9540TIP3    H250112   6.603   5.926   1.634  1.0898 -0.4351  0.5530
 9541TIP3   OH250113   6.209   6.380   3.953  0.0233 -0.3578 -0.2633
 9541TIP3    H150114   6.199   6.316   3.882  0.3562  0.8614 -1.4434
 9541TIP3    H250115   6.120   6.393   3.986 -0.1057 -1.0965 -0.2894
 9542TIP3   OH250116   5.594   1.796  14.727  0.3957  0.2016  0.7647
 9542TIP3    H150117   5.637   1.784  14.812 -0.7623 -0.2497  1.2996
 9542TIP3    H250118   5.570   1.889  14.725  0.3548  0.1945  0.9573
 9543TIP3   OH250119   5.308   4.146  16.265  0.4462 -0.3190  0.0107
 9543TIP3    H150120   5.309   4.097  16.347 -0.3032  1.3894  1.0982
 9543TIP3    H250121   5.283   4.235  16.290  2.5596  0.8682 -1.7548
 9544TIP3   OH250122   5.053   0.503  11.033  0.0200 -0.0104 -0.4471
 9544TIP3    H150123   5.094   0.589  11.044  1.0444 -0.5840  0.4381
 9544TIP3    H250124   4.968   0.522  10.994 -0.4571  1.5663  1.1819
 9545TIP3   OH250125   3.330   5.159   2.397  0.2611  0.3426 -0.7020
 9545TIP3    H150126   3.252   5.212   2.380  0.7589  0.7637 -1.7115
 9545TIP3    H250127   3.398   5.222   2.419 -0.2470 -0.1276  2.7489
 9546TIP3   OH250128   5.177   2.155  15.993  0.5796 -0.0709  0.0148
 9546TIP3    H150129   5.127   2.207  15.931  0.4746  0.5904  0.6435
 9546TIP3    H250130   5.112   2.108  16.045  0.6703 -0.7495 -0.4630
 9547TIP3   OH250131   1.087   5.709   3.982  0.1317 -0.3625  0.1807
 9547TIP3    H150132   1.096   5.804   3.971  1.8059 -0.5404 -0.2746
 9547TIP3    H250133   1.102   5.695   4.076  0.0082 -0.1855  0.2268
 9548TIP3   OH250134   2.303   2.129   4.647  0.1731 -0.2828 -0.0078
 9548TIP3    H150135   2.248   2.054   4.624 -0.3961  0.0119  0.3688
 9548TIP3    H250136   2.256   2.205   4.613  0.1716  0.0059  0.6266
 9549TIP3   OH250137   4.509   1.117   4.394  0.3299 -0.1060 -0.1469
 9549TIP3    H150138   4.566   1.144   4.466  0.5261  1.3763 -0.8026
 9549TIP3    H250139   4.551   1.155   4.316 -1.6135  1.1857 -0.6280
 9550TIP3   OH250140   4.732   1.864  14.196  0.4510  0.0634 -0.2672
 9550TIP3    H150141   4.742   1.955  14.224  0.9635 -0.2224  0.5095
 9550TIP3    H250142   4.638   1.855  14.178  0.5037  0.9324 -1.0540
 9551TIP3   OH250143   2.355   5.150   1.535  0.4453  0.0635 -0.4966
 9551TIP3    H150144   2.306   5.084   1.584  0.3286  0.3806 -0.1835
 9551TIP3    H250145   2.420   5.182   1.596  0.4941  0.2481 -0.6458
 9552TIP3   OH250146   1.419   3.076   6.025  0.3505  0.8784 -0.0078
 9552TIP3    H150147   1.343   3.132   6.012 -0.4684 -0.2872 -0.3781
 9552TIP3    H250148   1.417   3.056   6.119  0.7567  1.6068  0.1624
 9553TIP3   OH250149   1.910   4.386   6.416 -0.5031 -0.0571 -0.0384
 9553TIP3    H150150   1.956   4.309   6.450  0.3757 -0.0644 -1.1860
 9553TIP3    H250151   1.917   4.451   6.486 -0.1892 -0.6088  0.4558
 9554TIP3   OH250152   5.490   5.930  16.993  0.3235 -0.7383  0.0445
 9554TIP3    H150153   5.508   5.942  17.086 -0.3262  0.5399  0.0216
 9554TIP3    H250154   5.397   5.909  16.988  0.2438 -0.3238 -0.3377
 9555TIP3   OH250155   4.243   1.523  14.732  0.6628  0.3510 -0.5644
 9555TIP3    H150156   4.320   1.525  14.675  2.1989  1.4776  1.4019
 9555TIP3    H250157   4.259   1.448  14.790  0.2021  0.5160 -0.2257
 9556TIP3   OH250158   2.838   2.576   1.674 -0.7678  0.2760  0.2924
 9556TIP3    H150159   2.867   2.649   1.620 -0.8580  0.5567  0.6186
 9556TIP3    H250160   2.881   2.590   1.759  2.8513 -2.4388 -0.8520
 9557TIP3   OH250161   4.978   0.061  13.912 -0.0169  0.2263  0.5172
 9557TIP3    H150162   5.049   0.056  13.976  0.6242 -1.4610 -0.2629
 9557TIP3    H250163   4.955   0.154  13.908  2.0377  0.7948  0.8947
 9558TIP3   OH250164   2.840   4.071   5.240  0.2532 -0.4621  0.0819
 9558TIP3    H150165   2.758   4.119   5.231 -0.4274 -1.6118 -0.0393
 9558TIP3    H250166   2.908   4.139   5.242 -0.6744  0.4883 -0.0755
 9559TIP3   OH250167   5.096   0.660   4.416 -0.0893  0.3060 -0.3201
 9559TIP3    H150168   5.006   0.691   4.408 -0.8713 -2.0325 -1.2704
 9559TIP3    H250169   5.128   0.655   4.326  1.2091  1.5257  0.0180
 9560TIP3   OH250170   5.256   2.563   6.099  0.6132 -0.2514 -0.6471
 9560TIP3    H150171   5.318   2.630   6.072 -1.4835  1.8178 -0.6571
 9560TIP3    H250172   5.215   2.598   6.178  0.0543 -1.9549 -0.1185
 9561TIP3   OH250173   4.866   2.842  15.693  0.3342 -0.5070 -0.2099
 9561TIP3    H150174   4.859   2.906  15.623 -1.1226  0.3649  0.6849
 9561TIP3    H250175   4.894   2.761  15.650  2.7918  0.8145 -1.2971
 9562TIP3   OH250176   4.436   6.670   2.940  0.8026 -0.0286 -0.2525
 9562TIP3    H150177   4.469   6.757   2.959 -0.2497  0.4029 -0.3731
 9562TIP3    H250178   4.508   6.611   2.965  1.6328  0.8762 -0.4591
 9563TIP3   OH250179   2.830   4.892  17.059  0.1656 -0.0921 -0.0797
 9563TIP3    H150180   2.768   4.873  16.989  1.1244  0.6886 -1.1603
 9563TIP3    H250181   2.843   4.808  17.103 -1.6236 -0.2853  0.1804
 9564TIP3   OH250182   1.840   1.409   2.585  0.5549 -0.2066 -0.6827
 9564TIP3    H150183   1.813   1.485   2.532  0.7154  0.9859  0.8608
 9564TIP3    H250184   1.894   1.356   2.526 -1.4139 -0.3235 -2.4905
 9565TIP3   OH250185   0.727   6.343   5.362 -0.0920 -0.6898  0.8500
 9565TIP3    H150186   0.794   6.364   5.426 -0.3857  0.8348  0.6917
 9565TIP3    H250187   0.649   6.324   5.414 -0.5666  1.3832  0.9917
 9566TIP3   OH250188   5.895   2.325   3.855 -0.1525 -0.2433 -0.2285
 9566TIP3    H150189   5.952   2.390   3.813 -1.3708  4.2157  3.9732
 9566TIP3    H250190   5.951   2.284   3.921 -0.3128 -0.5203 -0.2670
 9567TIP3   OH250191   1.620   5.558   0.529  0.3875  0.1978  0.4357
 9567TIP3    H150192   1.617   5.591   0.619  0.0692  0.6097  0.2798
 9567TIP3    H250193   1.698   5.599   0.492  0.4487  0.1268  0.4856
 9568TIP3   OH250194   4.570   5.000   5.903  0.0282 -0.1879  0.5057
 9568TIP3    H150195   4.498   4.963   5.954  0.5117 -1.3355  0.3984
 9568TIP3    H250196   4.615   5.059   5.964  0.5324 -1.4578  1.4169
 9569TIP3   OH250197   4.351   4.955   3.307  0.3017 -0.1531 -0.1018
 9569TIP3    H150198   4.262   4.930   3.280  0.1738  1.8378 -1.7635
 9569TIP3    H250199   4.353   4.938   3.401 -2.5703  1.5515  0.4016
 9570TIP3   OH250200   3.712   1.113  17.086  0.1987  0.4018  0.2956
 9570TIP3    H150201   3.648   1.127  17.016  1.9229  0.4976 -1.3610
 9570TIP3    H250202   3.778   1.181  17.071  1.0432 -0.1173  1.5005
 9571TIP3   OH250203   1.610   3.484  11.766 -0.0945 -0.6148 -0.2456
 9571TIP3    H150204   1.533   3.431  11.786  1.7095 -2.6280  1.8606
 9571TIP3    H250205   1.684   3.431  11.794  2.1283  1.1988 -2.2651
 9572TIP3   OH250206   5.116   3.965  15.914  0.0049  0.0502  0.1434
 9572TIP3    H150207   5.021   3.949  15.918  0.1658 -0.6558  1.9751
 9572TIP3    H250208   5.124   4.058  15.890 -1.1626  0.2998  0.6613
 9573TIP3   OH250209   0.421   2.545   4.848 -0.1300  0.1888 -0.8569
 9573TIP3    H150210   0.412   2.450   4.854 -0.5101  0.2921  0.7238
 9573TIP3    H250211   0.426   2.575   4.939 -1.6094  1.8094 -1.2440
 9574TIP3   OH250212   5.870   6.059   4.712  0.3015 -0.3129 -0.2779
 9574TIP3    H150213   5.858   5.973   4.753  2.5680 -0.3004  0.5397
 9574TIP3    H250214   5.827   6.120   4.771  1.1361 -0.6012  0.6524
 9575TIP3   OH250215   6.264   4.500   3.616 -0.1532  0.0564 -0.0193
 9575TIP3    H150216   6.292   4.581   3.574 -1.6751  0.8397  0.3757
 9575TIP3    H250217   6.289   4.510   3.708 -1.8194  0.8773  0.3922
 9576TIP3   OH250218   4.956   0.974   1.141 -0.0356  0.2914 -0.3455
 9576TIP3    H150219   4.963   1.044   1.207  0.6146 -0.3183  0.2466
 9576TIP3    H250220   5.034   0.984   1.087  2.6802 -2.7311  2.5338
 9577TIP3   OH250221   1.333   3.459  13.163 -0.2577 -1.0547  0.5588
 9577TIP3    H150222   1.393   3.483  13.093 -0.3193 -3.8324 -0.6027
 9577TIP3    H250223   1.384   3.466  13.244  0.6633 -0.4360 -0.0695
 9578TIP3   OH250224   1.479   5.006  16.759  0.4226  0.2388 -0.1406
 9578TIP3    H150225   1.388   4.993  16.786  0.4051  1.4314  0.4446
 9578TIP3    H250226   1.493   4.942  16.689 -0.1887 -1.5126  1.2549
 9579TIP3   OH250227   1.917   3.926   3.326 -0.5405 -0.3563  0.0716
 9579TIP3    H150228   1.965   3.858   3.374  1.8897  0.7745 -0.6337
 9579TIP3    H250229   1.885   3.985   3.393 -0.3077 -0.7386  0.5228
 9580TIP3   OH250230   1.597   3.111  12.027 -0.1896 -0.1361 -0.6297
 9580TIP3    H150231   1.613   3.125  11.934  0.9887 -0.5064 -0.4913
 9580TIP3    H250232   1.683   3.119  12.068 -0.8850  1.4158  0.6180
 9581TIP3   OH250233   1.176   5.649   4.755 -0.5595 -0.0665 -0.6665
 9581TIP3    H150234   1.210   5.720   4.808 -0.8274  0.2181 -0.8694
 9581TIP3    H250235   1.253   5.602   4.724 -0.2630  1.2727 -2.1001
 9582TIP3   OH250236   1.594   3.136   2.302  0.5582  0.3742 -0.9368
 9582TIP3    H150237   1.638   3.171   2.380 -1.7338  0.2517  0.4799
 9582TIP3    H250238   1.569   3.213   2.252 -2.0168  0.7646  0.7975
 9583TIP3   OH250239   5.553   5.390   0.656  0.0448  0.4132 -0.2979
 9583TIP3    H150240   5.587   5.478   0.670 -1.4691  0.8783  0.6170
 9583TIP3    H250241   5.466   5.403   0.618 -0.5648 -0.6410  0.6668
 9584TIP3   OH250242   3.731   3.774   3.344  0.0571 -0.3766  0.5736
 9584TIP3    H150243   3.719   3.869   3.335  0.2620 -0.3380  0.7184
 9584TIP3    H250244   3.824   3.760   3.328 -0.1516 -0.6709 -0.4756
 9585TIP3   OH250245   2.748   2.437   3.458 -0.4156  0.0223  0.8208
 9585TIP3    H150246   2.671   2.384   3.477  0.0199 -0.6937  0.6486
 9585TIP3    H250247   2.809   2.419   3.530  0.4805 -1.2141 -0.1985
 9586TIP3   OH250248   3.608   2.709   5.176  0.3330  0.0718 -0.0717
 9586TIP3    H150249   3.696   2.744   5.194 -0.0169  0.4616  0.9329
 9586TIP3    H250250   3.621   2.615   5.172  0.6607  0.0518  1.0086
 9587TIP3   OH250251   4.905   1.964   1.658 -0.0194  0.2568  0.3083
 9587TIP3    H150252   4.823   1.949   1.706  0.0810 -0.2680  0.3232
 9587TIP3    H250253   4.895   2.051   1.620 -1.0923 -0.2848 -0.7141
 9588TIP3   OH250254   1.916   3.033   3.010 -0.3287 -0.1773  0.2134
 9588TIP3    H150255   1.880   3.068   2.929 -0.4923  1.0557  0.7945
 9588TIP3    H250256   2.005   3.067   3.013 -0.9450  1.4908  1.4886
 9589TIP3   OH250257   2.498   4.259   5.422  0.1533  0.0372 -0.0665
 9589TIP3    H150258   2.441   4.288   5.493  0.5641 -0.6029  0.5389
 9589TIP3    H250259   2.492   4.328   5.356  0.5644  1.1415  1.0265
 9590TIP3   OH250260   4.503   4.451   2.782  0.2837  0.5853  0.6948
 9590TIP3    H150261   4.593   4.459   2.748  0.4286  0.1676  0.9688
 9590TIP3    H250262   4.486   4.535   2.824  0.5664  0.6481  0.6909
 9591TIP3   OH250263   6.544   1.435   4.419  0.1706 -0.0010 -0.3957
 9591TIP3    H150264   6.554   1.417   4.326 -1.2342  1.5233 -0.9067
 9591TIP3    H250265   6.471   1.379   4.446  1.0108 -0.9353 -0.0366
 9592TIP3   OH250266   5.541   4.981  15.636  0.7170 -1.0772  0.4692
 9592TIP3    H150267   5.624   4.989  15.589  1.2091 -0.7650  1.3675
 9592TIP3    H250268   5.475   4.983  15.568  1.4176 -0.6890 -0.2193
 9593TIP3   OH250269   2.585   1.719  17.035  0.2269  0.4411  0.9209
 9593TIP3    H150270   2.584   1.804  17.079  1.5960  1.5292 -0.9954
 9593TIP3    H250271   2.493   1.694  17.029 -0.2435  2.0099  1.1776
 9594TIP3   OH250272   3.155   3.700  11.981 -0.4638 -0.2991  0.2128
 9594TIP3    H150273   3.084   3.676  12.039 -0.8985  0.9293  0.2143
 9594TIP3    H250274   3.117   3.764  11.920  0.3639 -0.4054 -0.4433
 9595TIP3   OH250275   2.442   0.970   5.694  0.1472  0.5528 -0.2085
 9595TIP3    H150276   2.445   0.878   5.666 -1.6893  1.0157 -2.1853
 9595TIP3    H250277   2.351   0.986   5.716  0.2913  2.0655 -0.5797
 9596TIP3   OH250278   0.321   1.967  13.917 -0.6686 -0.0302  0.4864
 9596TIP3    H150279   0.250   1.904  13.929 -0.9248  0.0786 -0.4011
 9596TIP3    H250280   0.280   2.052  13.934 -0.3036 -0.0762  1.7697
 9597TIP3   OH250281   4.942   6.285   0.142 -0.1693 -1.0306  0.2149
 9597TIP3    H150282   4.938   6.250   0.053  2.9365 -0.3547 -0.3222
 9597TIP3    H250283   5.002   6.360   0.135  0.3969 -1.1347  2.9213
 9598TIP3   OH250284   3.871   3.533  12.489 -0.7575 -0.1960  0.2113
 9598TIP3    H150285   3.874   3.522  12.394  0.3257  0.2478  0.1892
 9598TIP3    H250286   3.810   3.465  12.518  0.7099 -1.9457 -0.5769
 9599TIP3   OH250287   0.011   2.629  15.057  0.4366 -0.0494  0.7333
 9599TIP3    H150288  -0.006   2.579  14.978 -0.9443  1.1210  0.2422
 9599TIP3    H250289  -0.060   2.606  15.116 -0.1765  1.2182  0.5311
 9600TIP3   OH250290   1.389   4.086   6.196  0.0778  0.0406 -0.3329
 9600TIP3    H150291   1.386   4.067   6.102 -1.0636  0.8727 -0.4948
 9600TIP3    H250292   1.455   4.155   6.204  0.7068 -0.5500 -0.4195
 9601TIP3   OH250293   2.614   1.482   4.372  0.2123  0.0151  0.1504
 9601TIP3    H150294   2.591   1.574   4.381 -1.5948 -0.3724 -0.1181
 9601TIP3    H250295   2.533   1.439   4.345  0.0005 -2.2065  3.6248
 9602TIP3   OH250296   3.819   0.270  10.963 -0.4891 -0.1646 -0.1599
 9602TIP3    H150297   3.814   0.217  10.883 -1.5954 -0.6045  0.1955
 9602TIP3    H250298   3.743   0.328  10.958 -1.0805 -0.8226  1.0241
 9603TIP3   OH250299   6.395   4.492  12.887  0.0084  0.2105  0.4900
 9603TIP3    H150300   6.481   4.522  12.916 -0.4781  2.3679 -0.0925
 9603TIP3    H250301   6.370   4.425  12.951 -0.3719  3.5817  4.3138
 9604TIP3   OH250302   5.880   1.429   2.828 -0.2923  0.5301 -0.9352
 9604TIP3    H150303   5.889   1.335   2.812 -2.8560 -0.4322  2.2029
 9604TIP3    H250304   5.903   1.440   2.920 -0.9902  2.7962 -0.9663
 9605TIP3   OH250305   3.880   3.086  15.585 -0.0489 -0.7206 -0.2288
 9605TIP3    H150306   3.795   3.129  15.581  0.4092  0.1793 -0.4594
 9605TIP3    H250307   3.871   3.010  15.528 -0.2370  0.2076 -1.4774
 9606TIP3   OH250308   5.450   1.098   2.302  0.4371 -0.0390  0.9077
 9606TIP3    H150309   5.455   1.027   2.366  0.8506  0.5458  1.5435
 9606TIP3    H250310   5.357   1.102   2.277  0.6228 -1.6346 -0.1206
 9607TIP3   OH250311   2.658   6.573  13.358  0.5421 -0.3020  0.0507
 9607TIP3    H150312   2.621   6.490  13.389  0.8089 -0.5042 -0.1672
 9607TIP3    H250313   2.751   6.556  13.348  0.4984 -0.1805 -0.6444
 9608TIP3   OH250314   6.716   0.884   3.008 -0.3688 -0.2140 -0.3593
 9608TIP3    H150315   6.673   0.807   2.969  0.8102  0.4248 -3.1555
 9608TIP3    H250316   6.677   0.958   2.963  1.0317  0.5930 -0.2877
 9609TIP3   OH250317   4.744   0.635  14.263  0.2467 -0.1736 -0.4859
 9609TIP3    H150318   4.833   0.648  14.297 -0.1284  1.1365  0.0592
 9609TIP3    H250319   4.724   0.543  14.282  1.6386 -0.6048 -1.0080
 9610TIP3   OH250320   1.340   0.906   0.608 -0.1506 -0.1636 -0.2757
 9610TIP3    H150321   1.246   0.902   0.590 -0.0871 -0.3544 -0.5611
 9610TIP3    H250322   1.375   0.962   0.539 -0.2237  0.8945  0.5114
 9611TIP3   OH250323   0.698   4.637  11.657  0.6798  0.0549  0.0629
 9611TIP3    H150324   0.636   4.652  11.587  0.1811 -1.9011  0.0086
 9611TIP3    H250325   0.773   4.596  11.614  0.2223 -1.5003  0.6653
 9612TIP3   OH250326   2.113   2.710   6.219 -0.1547  0.2975 -0.1594
 9612TIP3    H150327   2.130   2.638   6.280 -0.1596 -0.6260 -1.2270
 9612TIP3    H250328   2.156   2.684   6.138  1.5536  2.4150 -0.0252
 9613TIP3   OH250329   0.765   5.675  13.426 -0.1003 -0.3783 -0.0568
 9613TIP3    H150330   0.682   5.646  13.464 -0.4666  0.4428 -0.2162
 9613TIP3    H250331   0.740   5.728  13.351  0.5660  0.0500  0.0161
 9614TIP3   OH250332   2.352   1.242  13.009  0.4847  0.2165  0.3758
 9614TIP3    H150333   2.378   1.332  13.029  1.6840  0.0678 -0.4369
 9614TIP3    H250334   2.286   1.251  12.941  1.5425  0.4657 -0.6556
 9615TIP3   OH250335   5.789   5.573   4.066 -0.0663 -0.5382  0.2399
 9615TIP3    H150336   5.755   5.595   4.153 -0.0361  0.9816 -0.1119
 9615TIP3    H250337   5.884   5.569   4.079  0.2537  2.7175 -0.2657
 9616TIP3   OH250338   4.363   5.930  11.357 -0.3915  0.2385 -0.0520
 9616TIP3    H150339   4.330   6.008  11.400  0.8706  1.1015 -0.5735
 9616TIP3    H250340   4.319   5.857  11.401 -1.1416  1.2095  0.8466
 9617TIP3   OH250341   3.821   5.227  14.284 -0.1979 -0.4625 -0.5620
 9617TIP3    H150342   3.749   5.177  14.246 -0.6825  0.6404 -1.1388
 9617TIP3    H250343   3.899   5.197  14.236 -0.4788 -0.6636 -0.8934
 9618TIP3   OH250344   0.772   3.460   0.114 -0.2514  0.2826  0.9011
 9618TIP3    H150345   0.710   3.530   0.135  1.0737  1.5020  0.8989
 9618TIP3    H250346   0.853   3.505   0.093  0.7910 -1.2865  1.3704
 9619TIP3   OH250347   4.886   4.226   2.193  0.3614 -0.7177  0.4802
 9619TIP3    H150348   4.808   4.171   2.189 -0.5234  0.5569 -0.3600
 9619TIP3    H250349   4.878   4.284   2.118  2.2210 -0.6683  0.2770
 9620TIP3   OH250350   3.610   6.472   0.608  0.8326 -0.2866  0.3047
 9620TIP3    H150351   3.602   6.464   0.513  0.7599  1.1762  0.1569
 9620TIP3    H250352   3.676   6.407   0.632 -0.2909 -1.7758 -0.5185
 9621TIP3   OH250353   6.427   0.547   0.257  0.7284 -0.3698 -0.0584
 9621TIP3    H150354   6.460   0.478   0.199 -0.8490 -1.2732  0.0524
 9621TIP3    H250355   6.436   0.511   0.345  1.6220  0.3426  0.1526
 9622TIP3   OH250356   4.617   6.442   1.449  0.5974  0.8751  0.4400
 9622TIP3    H150357   4.523   6.444   1.462  0.4554 -1.0321  0.0184
 9622TIP3    H250358   4.649   6.378   1.513  1.3649  0.2726 -0.5078
 9623TIP3   OH250359   6.442   6.579  15.639  0.5172 -0.1977  0.0520
 9623TIP3    H150360   6.446   6.587  15.544 -2.2703  0.2741 -0.1189
 9623TIP3    H250361   6.396   6.658  15.667 -1.0379 -1.5559  1.4862
 9624TIP3   OH250362   4.990   2.386   2.677  0.0600  0.0587  0.5800
 9624TIP3    H150363   4.956   2.375   2.588  2.2239  0.3439 -0.3392
 9624TIP3    H250364   4.997   2.481   2.687  1.2926 -0.0023  0.4285
 9625TIP3   OH250365   3.004   0.117  11.795  0.0724 -0.0549 -0.9212
 9625TIP3    H150366   3.078   0.107  11.855 -0.1572 -1.2504 -0.8038
 9625TIP3    H250367   3.037   0.171  11.724  0.8083  0.1002 -0.4674
 9626TIP3   OH250368   4.989   0.037   0.406  0.2188 -0.2921  0.0720
 9626TIP3    H150369   4.999   0.080   0.491 -0.3441 -2.3191  1.2284
 9626TIP3    H250370   4.989   0.109   0.343  0.6052  1.2827  1.7743
 9627TIP3   OH250371   4.535   4.611   6.016  0.3104  0.2913 -0.6699
 9627TIP3    H150372   4.607   4.556   5.985 -0.6427 -0.6891 -1.2220
 9627TIP3    H250373   4.517   4.580   6.105  0.5209  0.4817 -0.5616
 9628TIP3   OH250374   2.896   0.745  11.595 -0.0176 -0.2281 -0.7982
 9628TIP3    H150375   2.880   0.798  11.517 -0.2740  1.1021  0.1160
 9628TIP3    H250376   2.934   0.806  11.658 -0.6076 -1.0597  0.4053
 9629TIP3   OH250377   0.282   0.394  11.075 -0.1305  0.1426 -0.3077
 9629TIP3    H150378   0.245   0.378  10.988 -0.8046 -0.7900  0.1257
 9629TIP3    H250379   0.368   0.351  11.073 -0.4877 -0.5922 -0.2662
 9630TIP3   OH250380   6.011   0.607  11.779 -0.6172  0.4332 -0.4273
 9630TIP3    H150381   6.051   0.647  11.856 -0.7601 -1.2436  0.5735
 9630TIP3    H250382   6.082   0.603  11.714  0.3512 -0.7738  0.6560
 9631TIP3   OH250383   3.636   0.981   5.748 -0.2048  0.5403  0.3722
 9631TIP3    H150384   3.602   1.019   5.829 -0.5717  2.9379 -0.8396
 9631TIP3    H250385   3.567   0.993   5.684  0.5739 -0.1507 -0.6459
 9632TIP3   OH250386   1.930   4.792   2.038  0.2063 -0.5851 -0.1851
 9632TIP3    H150387   1.934   4.697   2.023  1.3640 -0.7274  0.8445
 9632TIP3    H250388   1.874   4.802   2.114  1.4122 -0.6014  0.7328
 9633TIP3   OH250389   2.823   2.151   3.988 -0.3927 -0.1539  0.0629
 9633TIP3    H150390   2.820   2.091   4.062 -0.6530 -0.0595  0.1306
 9633TIP3    H250391   2.789   2.100   3.914  1.3802 -0.7822 -0.3818
 9634TIP3   OH250392   5.168   3.466   5.001 -0.2354  0.2349  0.1632
 9634TIP3    H150393   5.091   3.409   5.010  0.4551 -0.6497  0.5554
 9634TIP3    H250394   5.241   3.406   4.987  0.3159  1.0921 -0.7806
 9635TIP3   OH250395   0.501   1.856   2.845 -0.3287  0.0507 -0.2975
 9635TIP3    H150396   0.579   1.858   2.790  0.7615  0.8961  1.2401
 9635TIP3    H250397   0.513   1.780   2.902  1.7881  2.7636  3.2220
 9636TIP3   OH250398   2.420   4.832  16.433 -0.0984 -0.6139  0.5027
 9636TIP3    H150399   2.390   4.791  16.515  0.4120  0.2189  1.1144
 9636TIP3    H250400   2.387   4.774  16.364 -2.3813 -0.2121  1.1711
 9637TIP3   OH250401   0.276   0.203  16.792  0.1977  0.1210  0.2824
 9637TIP3    H150402   0.313   0.252  16.719  0.0944  0.6877  0.6081
 9637TIP3    H250403   0.225   0.133  16.751 -0.5515  0.9368 -0.1984
 9638TIP3   OH250404   4.463   0.870   4.713 -0.7251  0.0260 -0.3080
 9638TIP3    H150405   4.418   0.955   4.711 -1.4980 -0.3785 -0.5855
 9638TIP3    H250406   4.395   0.806   4.693 -0.3181 -0.7397  0.6644
 9639TIP3   OH250407   4.968   3.452  14.819  0.3891 -0.5753  0.1850
 9639TIP3    H150408   4.998   3.527  14.870 -1.2135  1.2006 -1.3270
 9639TIP3    H250409   4.890   3.484  14.774 -0.3031 -3.1551 -0.5967
 9640TIP3   OH250410   0.119   6.671   2.561  0.0985  0.1059 -0.0167
 9640TIP3    H150411   0.193   6.636   2.611 -1.1243 -0.9560  1.1529
 9640TIP3    H250412   0.064   6.713   2.627 -1.8401 -1.7920 -0.3052
 9641TIP3   OH250413   5.793   6.767  13.099  0.3876 -0.6755 -0.0548
 9641TIP3    H150414   5.846   6.841  13.072  0.1400  0.3302  1.9658
 9641TIP3    H250415   5.726   6.805  13.157 -0.3514 -2.3437  0.2680
 9642TIP3   OH250416   4.820   0.195  15.592  0.2259  0.1952  0.8219
 9642TIP3    H150417   4.753   0.212  15.659  0.5647 -1.2130  1.5519
 9642TIP3    H250418   4.770   0.184  15.511 -0.3184  0.4423  1.1130
 9643TIP3   OH250419   5.270   4.129  14.253 -0.3999 -0.3646 -0.6283
 9643TIP3    H150420   5.301   4.053  14.301  1.3594  1.6902  1.7802
 9643TIP3    H250421   5.203   4.168  14.309 -0.6398  0.3526 -1.3820
 9644TIP3   OH250422   6.274   3.216  17.137  0.3858 -0.5183 -0.1049
 9644TIP3    H150423   6.271   3.216  17.041  0.4259  1.2075 -0.1389
 9644TIP3    H250424   6.192   3.257  17.163  1.5303  1.4656  0.4970
 9645TIP3   OH250425   5.137   4.689   5.560  0.6096 -0.4832 -0.1875
 9645TIP3    H150426   5.189   4.673   5.639  0.6869 -1.7798 -0.4719
 9645TIP3    H250427   5.053   4.722   5.593  1.3794  1.0607  0.3049
 9646TIP3   OH250428   0.120   0.745   4.695  0.0655 -0.1355  0.0043
 9646TIP3    H150429   0.160   0.786   4.619 -0.2110  0.4363  0.1590
 9646TIP3    H250430   0.041   0.797   4.711  1.6410  1.7423  2.4998
 9647TIP3   OH250431   2.002   3.584   1.605 -0.2118  0.7355  0.1619
 9647TIP3    H150432   1.921   3.614   1.646 -0.3768  0.9746 -0.3312
 9647TIP3    H250433   2.004   3.629   1.521 -0.8221 -1.1444 -0.9185
 9648TIP3   OH250434   5.050   0.776  12.920 -0.0629  0.2616  0.3511
 9648TIP3    H150435   5.120   0.811  12.975 -0.6736 -0.0427  1.3609
 9648TIP3    H250436   5.046   0.683  12.942  1.1821 -0.3951 -1.9061
 9649TIP3   OH250437   3.813   0.389  15.497 -0.2294  0.2126  0.0006
 9649TIP3    H150438   3.830   0.304  15.537 -1.7027 -0.1205 -0.0154
 9649TIP3    H250439   3.861   0.388  15.415  1.0440  0.0348  0.7310
 9650TIP3   OH250440   6.170   0.779  15.440 -0.1656  0.2800  0.3521
 9650TIP3    H150441   6.170   0.833  15.519 -0.4190 -0.3170  0.7647
 9650TIP3    H250442   6.098   0.813  15.388 -0.3835  0.2878  0.6538
 9651TIP3   OH250443   3.695   2.516  12.894  0.3855 -0.3642  0.4939
 9651TIP3    H150444   3.672   2.424  12.909  0.3699 -0.6004 -0.8301
 9651TIP3    H250445   3.613   2.563  12.904  0.3039 -0.5561  0.7313
 9652TIP3   OH250446   0.488   1.026  11.552  0.0740  0.2106 -0.2999
 9652TIP3    H150447   0.497   1.120  11.570 -2.1959  0.5808 -0.7897
 9652TIP3    H250448   0.402   1.004  11.586  0.5192 -1.6936 -0.3350
 9653TIP3   OH250449   1.687   6.054  15.861  0.7045 -0.1247 -0.3313
 9653TIP3    H150450   1.783   6.059  15.853  0.8937 -2.7009 -0.2916
 9653TIP3    H250451   1.659   6.008  15.782 -0.2031 -1.6810  0.8432
 9654TIP3   OH250452   1.649   1.011   0.354  0.2993 -0.4228 -0.3014
 9654TIP3    H150453   1.560   1.045   0.347  0.4789  0.2251  0.5276
 9654TIP3    H250454   1.703   1.078   0.311  0.4779 -0.4231 -0.0748
 9655TIP3   OH250455   6.483   3.665   6.115 -0.3429 -0.3294  0.6530
 9655TIP3    H150456   6.457   3.670   6.022  2.4271 -0.4605 -0.2176
 9655TIP3    H250457   6.456   3.750   6.151 -1.2028 -0.1546 -0.3315
 9656TIP3   OH250458   5.719   6.374   4.025  1.1191 -0.2421  0.0697
 9656TIP3    H150459   5.809   6.389   4.054  0.1607  1.4285  2.4740
 9656TIP3    H250460   5.674   6.456   4.044 -0.6742 -0.6022 -2.2570
 9657TIP3   OH250461   5.661   0.347  13.168 -0.1372 -0.2212  0.1949
 9657TIP3    H150462   5.663   0.285  13.241  0.3822  1.9314  2.1419
 9657TIP3    H250463   5.618   0.425  13.204  1.0239  1.2773 -1.4865
 9658TIP3   OH250464   5.956   4.198  13.426 -0.0504 -0.5050 -0.1833
 9658TIP3    H150465   5.997   4.283  13.438  0.9336 -1.0660  0.5966
 9658TIP3    H250466   6.001   4.160  13.350 -1.5616  0.2750 -1.5137
 9659TIP3   OH250467   6.120   0.617   3.910  0.4853 -0.1337  0.5639
 9659TIP3    H150468   6.195   0.637   3.855  0.2074 -2.2731 -0.7057
 9659TIP3    H250469   6.081   0.702   3.929  1.6040  0.8089 -1.0986
 9660TIP3   OH250470   2.191   3.022  16.725 -0.3002  0.2391 -0.5386
 9660TIP3    H150471   2.159   2.936  16.697  1.3562 -0.1441 -1.3555
 9660TIP3    H250472   2.286   3.013  16.726 -0.1535  1.5698  1.0280
 9661TIP3   OH250473   3.537   6.244  13.932 -0.1552  0.5155 -0.1268
 9661TIP3    H150474   3.520   6.270  13.841  0.1482  2.0998  0.2375
 9661TIP3    H250475   3.467   6.286  13.982 -1.1402 -1.4918  0.2538
 9662TIP3   OH250476   0.181   4.825  12.322  0.1375 -0.5450  0.0152
 9662TIP3    H150477   0.203   4.918  12.322 -1.7381 -0.0525 -1.6720
 9662TIP3    H250478   0.213   4.793  12.407  1.6022  1.4069  0.2690
 9663TIP3   OH250479   1.308   2.459  15.042 -0.2930 -0.0547 -0.5455
 9663TIP3    H150480   1.252   2.412  14.981 -0.8220  0.4359 -0.4461
 9663TIP3    H250481   1.365   2.512  14.986  0.1413 -0.6189 -0.6486
 9664TIP3   OH250482   1.623   3.885  16.241 -0.8053  0.0995  0.5446
 9664TIP3    H150483   1.608   3.938  16.320  1.7224  0.7779  0.6403
 9664TIP3    H250484   1.539   3.888  16.194 -1.3272  2.5928  1.4836
 9665TIP3   OH250485   2.613   6.092  16.807 -0.0826 -0.0392 -0.3887
 9665TIP3    H150486   2.578   6.080  16.719 -1.3428 -0.8572  0.1999
 9665TIP3    H250487   2.545   6.140  16.855  0.3975  0.0187  0.2600
 9666TIP3   OH250488   1.948   1.419  12.257  0.2348 -0.1356  0.0860
 9666TIP3    H150489   1.947   1.365  12.336  0.6660 -0.3332 -0.0458
 9666TIP3    H250490   1.914   1.504  12.287  0.8214 -0.0718  0.5849
 9667TIP3   OH250491   5.285   5.568  13.128  0.6070  0.3929  0.1161
 9667TIP3    H150492   5.320   5.623  13.198 -0.2947 -0.3148  1.1453
 9667TIP3    H250493   5.191   5.565  13.143  0.2835  0.8083 -1.5697
 9668TIP3   OH250494   6.756   5.606  15.741  0.5356  0.0980 -0.2996
 9668TIP3    H150495   6.765   5.529  15.685  1.1063  0.7604 -1.1498
 9668TIP3    H250496   6.675   5.591  15.790 -0.0014 -0.4923 -1.3340
 9669TIP3   OH250497   1.983   5.846  12.831 -0.1149  0.2675  0.0951
 9669TIP3    H150498   1.903   5.814  12.791 -0.2765 -1.4360  1.6438
 9669TIP3    H250499   2.037   5.876  12.757 -0.6210 -2.1530 -1.3658
 9670TIP3   OH250500   1.400   3.705  13.541  0.0239  0.4058  0.9362
 9670TIP3    H150501   1.369   3.618  13.516  1.8973 -0.5745  1.8002
 9670TIP3    H250502   1.471   3.724  13.479 -0.4657  1.4100  0.6546
 9671TIP3   OH250503   3.946   0.304   0.241 -0.0259  0.2047 -0.4917
 9671TIP3    H150504   3.973   0.283   0.152  1.6331 -1.6198  0.3899
 9671TIP3    H250505   4.027   0.324   0.287 -0.9055  1.6307  0.5270
 9672TIP3   OH250506   1.517   4.737   2.558 -0.2858 -0.0067  0.2420
 9672TIP3    H150507   1.501   4.646   2.532  1.3076 -0.1417 -0.3733
 9672TIP3    H250508   1.556   4.777   2.481 -0.4804  1.0693  0.6877
 9673TIP3   OH250509   0.921   3.444  16.735  0.8217 -1.3219  0.5193
 9673TIP3    H150510   0.976   3.458  16.812 -0.6479 -1.4663  1.6431
 9673TIP3    H250511   0.851   3.387  16.766  0.5691 -1.9537 -1.1227
 9674TIP3   OH250512   5.312   1.758   4.491  0.0658  0.2131  0.4458
 9674TIP3    H150513   5.348   1.792   4.573  0.1761 -0.6391  0.7627
 9674TIP3    H250514   5.388   1.746   4.434  0.1401 -0.3130  0.6444
 9675TIP3   OH250515   0.704   0.556   4.764 -0.2377  0.3461  0.2127
 9675TIP3    H150516   0.644   0.630   4.773 -0.7476 -0.0871  0.4575
 9675TIP3    H250517   0.652   0.489   4.719 -0.2304 -0.3439  1.1941
 9676TIP3   OH250518   0.302   5.333  14.574  0.7548 -0.5352  0.0982
 9676TIP3    H150519   0.233   5.267  14.571 -0.7459  0.9607  0.2233
 9676TIP3    H250520   0.306   5.368  14.485  0.9061 -0.1724  0.2452
 9677TIP3   OH250521   0.798   3.004   4.594  0.1718 -0.2168 -0.5187
 9677TIP3    H150522   0.758   3.044   4.517  0.5680 -1.1867 -1.2556
 9677TIP3    H250523   0.737   3.021   4.665 -1.4788 -1.4635 -1.5665
 9678TIP3   OH250524   2.912   0.892   2.872 -0.1691  0.0247  0.6597
 9678TIP3    H150525   2.852   0.821   2.848 -1.4718  1.4123 -0.4430
 9678TIP3    H250526   2.977   0.893   2.802 -1.7143  1.5657 -0.8654
 9679TIP3   OH250527   0.540   1.282  14.273 -0.0109  0.2572 -0.1573
 9679TIP3    H150528   0.524   1.240  14.358 -1.0418  1.3804  0.2368
 9679TIP3    H250529   0.625   1.249  14.246  1.1772  1.1884  2.1677
 9680TIP3   OH250530   5.606   2.140  14.997 -0.4069 -0.2705 -0.2845
 9680TIP3    H150531   5.689   2.115  14.957 -0.5728 -1.9280  0.3181
 9680TIP3    H250532   5.630   2.194  15.073  0.0624  0.0528 -0.6615
 9681TIP3   OH250533   2.702   0.889   0.075  0.3825  0.2319  0.1745
 9681TIP3    H150534   2.723   0.865   0.166 -0.0402 -1.3382 -0.1069
 9681TIP3    H250535   2.619   0.844   0.058  0.2055  0.9266 -0.8385
 9682TIP3   OH250536   0.623   2.141  13.663 -0.3762 -0.1003 -0.3207
 9682TIP3    H150537   0.638   2.121  13.755 -0.1183  0.3808 -0.2514
 9682TIP3    H250538   0.639   2.235  13.656 -0.9406 -0.0283 -0.7488
 9683TIP3   OH250539   3.776   3.334   0.445  0.2646 -0.4181 -0.4052
 9683TIP3    H150540   3.769   3.273   0.372  1.9470 -1.1587  0.0095
 9683TIP3    H250541   3.706   3.398   0.429  0.4752 -0.6473 -2.5554
 9684TIP3   OH250542   4.419   1.285  15.609 -0.0270  0.5730  0.0883
 9684TIP3    H150543   4.504   1.326  15.593  0.6435 -0.8678 -0.2076
 9684TIP3    H250544   4.417   1.269  15.703  0.6969 -0.7260 -0.0914
 9685TIP3   OH250545   5.363   1.809  16.908 -0.2144 -0.1820 -0.0016
 9685TIP3    H150546   5.439   1.799  16.851  2.1509  0.6358  2.7417
 9685TIP3    H250547   5.359   1.903  16.927 -0.6243 -0.4776  1.5062
 9686TIP3   OH250548   0.158   5.474   0.289  0.1447  0.6196 -0.3638
 9686TIP3    H150549   0.209   5.437   0.361 -2.1275 -0.6743  0.6968
 9686TIP3    H250550   0.148   5.566   0.310 -0.0359  0.3630  0.7125
 9687TIP3   OH250551   3.158   0.170  11.087  0.0885  0.8075 -0.4244
 9687TIP3    H150552   3.252   0.190  11.084  0.3520 -0.2674  0.1352
 9687TIP3    H250553   3.139   0.130  11.002  0.4455 -0.1974 -0.0454
 9688TIP3   OH250554   3.889   2.405   1.633  0.0181  0.2079 -0.0452
 9688TIP3    H150555   3.912   2.313   1.615 -0.0035  0.2723 -0.3908
 9688TIP3    H250556   3.905   2.450   1.551  0.8822  0.6818  0.3650
 9689TIP3   OH250557   2.573   1.339  10.765  0.0790  0.0272  0.4436
 9689TIP3    H150558   2.622   1.270  10.810  1.4085  0.6584  0.0144
 9689TIP3    H250559   2.505   1.292  10.717  0.3177 -0.8877  0.9583
 9690TIP3   OH250560   3.880   4.237   4.872 -0.4332 -0.2367 -0.7308
 9690TIP3    H150561   3.906   4.147   4.891  0.8064  0.6070  2.1331
 9690TIP3    H250562   3.927   4.259   4.792  1.9313 -1.1753  0.2866
 9691TIP3   OH250563   0.250   3.260  14.075 -0.6974  0.0953 -0.2940
 9691TIP3    H150564   0.183   3.292  14.134  0.5746 -0.0087  1.2702
 9691TIP3    H250565   0.247   3.164  14.084 -2.6481 -0.2122 -2.8974
 9692TIP3   OH250566   3.388   4.365   4.496 -0.1555  0.7938 -1.0051
 9692TIP3    H150567   3.407   4.408   4.413  1.3421  0.0559 -1.0784
 9692TIP3    H250568   3.474   4.341   4.531 -0.8445 -0.3977 -0.0413
 9693TIP3   OH250569   0.826   5.449   3.379 -0.2363 -0.1673 -0.2926
 9693TIP3    H150570   0.884   5.379   3.346 -0.1190 -0.9521  1.4732
 9693TIP3    H250571   0.854   5.527   3.331 -0.4570 -1.3178 -2.4371
 9694TIP3   OH250572   1.502   4.459  15.529  0.1046  0.3838 -0.0894
 9694TIP3    H150573   1.424   4.481  15.580  0.6155 -0.5038  1.1028
 9694TIP3    H250574   1.469   4.446  15.440 -1.6277 -2.5931  0.8370
 9695TIP3   OH250575   3.907   1.418   2.079 -0.1920 -0.1790  0.0472
 9695TIP3    H150576   3.860   1.485   2.128 -0.4144 -0.8444  0.7572
 9695TIP3    H250577   3.880   1.431   1.988  1.8478  2.4564 -0.3248
 9696TIP3   OH250578   6.017   5.847   0.888  0.3055 -0.1711 -0.0400
 9696TIP3    H150579   6.090   5.895   0.928  1.0662 -0.8308 -0.6175
 9696TIP3    H250580   6.057   5.798   0.816 -0.8442  0.0838 -0.8799
 9697TIP3   OH250581   2.243   5.227   2.661 -0.3681  0.0321 -0.3294
 9697TIP3    H150582   2.216   5.149   2.709 -0.3623 -1.2911 -2.3735
 9697TIP3    H250583   2.200   5.219   2.576  1.6144  0.9609 -1.4772
 9698TIP3   OH250584   0.333   5.553   4.579 -0.6121  0.0641  0.0900
 9698TIP3    H150585   0.366   5.592   4.660 -0.2370 -0.9018  0.4259
 9698TIP3    H250586   0.378   5.600   4.509 -1.1588  1.1096  0.4114
 9699TIP3   OH250587   6.682   2.327  14.637  0.3464 -0.2868  0.1145
 9699TIP3    H150588   6.627   2.297  14.566 -1.8102  1.3124  0.9833
 9699TIP3    H250589   6.742   2.390  14.596 -1.2645  1.0733 -0.2890
 9700TIP3   OH250590   2.964   0.455   4.416 -0.5229 -0.8785 -0.1429
 9700TIP3    H150591   3.012   0.468   4.498 -0.9009  0.8506 -0.1515
 9700TIP3    H250592   2.881   0.501   4.430 -1.4224 -2.2538 -0.8009
 9701TIP3   OH250593   2.075   2.683  13.652  0.2945 -0.9770  0.0619
 9701TIP3    H150594   2.082   2.659  13.559  0.8505 -1.6381  0.2696
 9701TIP3    H250595   2.042   2.772  13.650  0.4646 -0.9164 -0.7833
 9702TIP3   OH250596   6.431   3.825  12.584 -0.3994  0.4245  0.4779
 9702TIP3    H150597   6.393   3.767  12.518 -2.1033  1.0954  0.8269
 9702TIP3    H250598   6.508   3.862  12.541  0.2464 -1.4200 -0.0445
 9703TIP3   OH250599   2.613   3.069  15.485  0.2197  0.7298  0.4748
 9703TIP3    H150600   2.520   3.062  15.507 -0.2247  0.0950 -1.4171
 9703TIP3    H250601   2.658   3.056  15.568 -1.2747 -2.9091  0.9176
 9704TIP3   OH250602   3.801   2.201  15.939 -0.3298 -0.1967  0.1788
 9704TIP3    H150603   3.807   2.266  16.008 -0.8404  0.8496 -0.7418
 9704TIP3    H250604   3.781   2.119  15.985  0.7168  0.1926  1.3781
 9705TIP3   OH250605   2.861   0.005   5.339  0.3265 -0.0765  0.7096
 9705TIP3    H150606   2.884  -0.064   5.401  2.5407  0.1784  0.2662
 9705TIP3    H250607   2.876  -0.034   5.253 -0.1897  0.3883  0.3995
 9706TIP3   OH250608   0.812   1.544   2.548  0.5414 -0.3707  0.6706
 9706TIP3    H150609   0.903   1.544   2.520  0.4594  2.4969  0.1224
 9706TIP3    H250610   0.809   1.606   2.621 -1.2519  1.2213 -0.6392
 9707TIP3   OH250611   0.644   6.572  12.852  0.0962 -0.2649 -0.5091
 9707TIP3    H150612   0.676   6.527  12.930 -0.2371  1.4974  0.7175
 9707TIP3    H250613   0.555   6.600  12.876  0.3522  1.1561 -1.1319
 9708TIP3   OH250614   3.288   0.885   3.341  0.3307 -0.7462 -0.1071
 9708TIP3    H150615   3.241   0.955   3.297 -0.1250 -0.6981  0.4464
 9708TIP3    H250616   3.241   0.805   3.316  0.0738 -0.7196  0.2750
 9709TIP3   OH250617   6.681   1.907   5.044  0.2906 -0.4063  0.1107
 9709TIP3    H150618   6.727   1.846   4.987  0.4066 -0.0867 -0.1416
 9709TIP3    H250619   6.680   1.990   4.995 -0.3807 -0.3575  0.2005
 9710TIP3   OH250620   1.255   5.053   3.910  0.0952 -0.3843  0.6533
 9710TIP3    H150621   1.233   5.140   3.944  0.3070 -0.4661  1.0030
 9710TIP3    H250622   1.326   5.070   3.848 -0.7942 -0.1455 -0.3291
 9711TIP3   OH250623   6.274   6.580   3.383 -0.9150  0.0410  0.5519
 9711TIP3    H150624   6.198   6.545   3.428 -0.2311 -0.7611  1.1091
 9711TIP3    H250625   6.346   6.572   3.446  0.2363 -1.8138 -0.8621
 9712TIP3   OH250626   2.807   5.740  13.820  0.0021  0.1210 -0.4383
 9712TIP3    H150627   2.844   5.727  13.907  0.3524 -1.5361 -0.7931
 9712TIP3    H250628   2.740   5.672  13.812 -1.5253  1.5851 -0.6973
 9713TIP3   OH250629   0.834   3.758   0.655 -0.2546 -0.1150 -0.0356
 9713TIP3    H150630   0.867   3.701   0.724  0.7075  1.7649  1.1363
 9713TIP3    H250631   0.853   3.847   0.686 -2.2386  0.8923 -1.4937
 9714TIP3   OH250632   0.779   5.595   0.675  0.4124 -0.5231  0.1630
 9714TIP3    H150633   0.790   5.508   0.638  1.1967 -0.7858  0.9734
 9714TIP3    H250634   0.701   5.588   0.729  0.1767 -0.5758 -0.1820
 9715TIP3   OH250635   2.055   1.717   6.031 -0.1562  0.0689 -0.8446
 9715TIP3    H150636   1.964   1.737   6.054  0.0902  1.5238 -1.0385
 9715TIP3    H250637   2.086   1.661   6.101 -0.8851  0.4385 -0.2123
 9716TIP3   OH250638   0.451   2.213  15.467 -0.0056 -0.3986  0.4272
 9716TIP3    H150639   0.425   2.305  15.473  1.7792  0.1276  0.7525
 9716TIP3    H250640   0.465   2.186  15.557  2.4252 -0.0384  0.2192
 9717TIP3   OH250641   6.408   5.471   1.186 -0.1480 -0.1665  0.2713
 9717TIP3    H150642   6.434   5.532   1.117  0.6482  0.6717  1.2782
 9717TIP3    H250643   6.451   5.504   1.265  1.4194 -2.7524  0.6300
 9718TIP3   OH250644   1.080   6.453   4.153  0.0577 -0.4874  0.0754
 9718TIP3    H150645   1.081   6.428   4.061 -0.0695  1.2783 -0.4336
 9718TIP3    H250646   1.109   6.374   4.199  1.8639 -0.8837 -1.5958
 9719TIP3   OH250647   5.211   3.539   5.610 -0.1007 -0.1623  0.3875
 9719TIP3    H150648   5.156   3.611   5.642 -0.6584 -0.7029  0.6690
 9719TIP3    H250649   5.212   3.550   5.515 -1.2751 -0.5354  0.3154
 9720TIP3   OH250650   4.331   3.540  15.420 -0.5532 -0.5552 -0.5040
 9720TIP3    H150651   4.317   3.560  15.513  1.3691 -2.7545  0.3756
 9720TIP3    H250652   4.335   3.625  15.377  0.5849  0.6370  1.8010
 9721TIP3   OH250653   2.369   4.739   1.724 -0.1105 -0.6759 -0.1033
 9721TIP3    H150654   2.391   4.655   1.765 -0.5647 -1.3104 -1.1168
 9721TIP3    H250655   2.314   4.715   1.650  0.2951  0.4770 -0.7951
 9722TIP3   OH250656   5.444   0.940   5.888 -0.4173 -0.0850 -0.1458
 9722TIP3    H150657   5.451   0.951   5.793 -2.3070  0.0364 -0.2963
 9722TIP3    H250658   5.405   0.854   5.900 -0.0858 -0.1487  0.5404
 9723TIP3   OH250659   3.362   3.025   3.313  0.5186 -0.6562 -0.2444
 9723TIP3    H150660   3.369   2.937   3.351  2.6639 -0.9163 -1.1051
 9723TIP3    H250661   3.315   3.012   3.231 -1.6091 -0.5304  0.8985
 9724TIP3   OH250662   1.107   1.921   3.067 -0.1530 -0.3994 -0.3360
 9724TIP3    H150663   1.100   1.881   3.153  0.3514  1.2641  0.5170
 9724TIP3    H250664   1.105   1.847   3.006 -0.6179 -1.5983  1.0788
 9725TIP3   OH250665   4.168   4.289   2.902  0.4944  0.1309  0.4430
 9725TIP3    H150666   4.154   4.195   2.903  0.9409  0.0187 -0.9866
 9725TIP3    H250667   4.260   4.300   2.927  1.0648 -0.0034 -1.4327
 9726TIP3   OH250668   5.973   3.418   0.477  0.7544  0.7387  0.1584
 9726TIP3    H150669   5.983   3.405   0.571  0.2655  1.6587  0.3525
 9726TIP3    H250670   6.059   3.399   0.440  0.8486  0.0029  0.7469
 9727TIP3   OH250671   0.043   5.467   1.152  0.0369 -0.5690  0.2271
 9727TIP3    H150672  -0.009   5.397   1.114  0.5857 -0.0794 -1.5168
 9727TIP3    H250673   0.068   5.523   1.078  0.1842  1.1052  1.4591
 9728TIP3   OH250674   1.067   6.351   0.210  0.4297  0.5034 -0.0449
 9728TIP3    H150675   1.046   6.444   0.221 -1.1521  0.0642  0.9546
 9728TIP3    H250676   1.133   6.333   0.278 -1.1677  0.3435  1.5319
 9729TIP3   OH250677   4.078   1.823   2.301 -0.1737 -0.0997  0.1925
 9729TIP3    H150678   4.002   1.817   2.359  0.2013  0.7312  0.8030
 9729TIP3    H250679   4.077   1.914   2.270 -0.3787 -0.5344 -1.1353
 9730TIP3   OH250680   0.659   2.499   3.368  0.3582  0.1933 -0.1783
 9730TIP3    H150681   0.585   2.523   3.424  0.0313 -1.8935  0.3724
 9730TIP3    H250682   0.734   2.497   3.428  0.5372  0.5787 -0.3837
 9731TIP3   OH250683   3.862   2.823  16.004 -0.5550 -0.0456  0.0381
 9731TIP3    H150684   3.828   2.745  15.960 -1.0920  0.4659 -0.4666
 9731TIP3    H250685   3.893   2.878  15.934  0.7424 -0.2165  0.4559
 9732TIP3   OH250686   3.571   1.371  16.917 -0.6412  0.0835  0.3256
 9732TIP3    H150687   3.513   1.315  16.969  0.5371 -1.0690  0.4703
 9732TIP3    H250688   3.546   1.354  16.826 -0.8692 -0.0166  0.4063
 9733TIP3   OH250689   5.305   4.738   0.364  0.2104  0.1155  0.3045
 9733TIP3    H150690   5.309   4.651   0.325  1.9655  0.0846  0.4551
 9733TIP3    H250691   5.309   4.723   0.458 -0.4487  0.3252  0.3684
 9734TIP3   OH250692   4.200   4.010   6.830 -0.0846  0.2594  0.9461
 9734TIP3    H150693   4.177   3.921   6.803  0.0373  0.4597  0.1420
 9734TIP3    H250694   4.288   4.024   6.794 -1.1119  1.6208 -1.2876
 9735TIP3   OH250695   3.825   1.476   0.391  0.3316 -0.0217  0.5006
 9735TIP3    H150696   3.863   1.561   0.411  0.7672  0.0765 -0.6766
 9735TIP3    H250697   3.764   1.459   0.464  0.7223  0.9822  1.0798
 9736TIP3   OH250698   1.381   1.811   4.506  0.4218  0.2452 -0.1182
 9736TIP3    H150699   1.452   1.748   4.518  0.2325  0.2609  1.1775
 9736TIP3    H250700   1.385   1.868   4.582 -1.8821 -0.6591  0.7876
 9737TIP3   OH250701   2.746   2.015  15.613  0.0557 -0.1564 -0.0931
 9737TIP3    H150702   2.837   1.987  15.627  0.2554  0.0022 -1.0409
 9737TIP3    H250703   2.749   2.110  15.619 -0.3466 -0.2080  1.4968
 9738TIP3   OH250704   1.385   6.342   3.487 -0.6570 -0.0215  0.0333
 9738TIP3    H150705   1.334   6.312   3.563 -0.4807 -0.1236  0.1126
 9738TIP3    H250706   1.472   6.305   3.501 -0.1174  1.4266  0.7045
 9739TIP3   OH250707   4.265   3.513   3.714 -0.9117 -0.2894 -0.2137
 9739TIP3    H150708   4.287   3.482   3.802 -0.6040  0.0312 -0.1739
 9739TIP3    H250709   4.205   3.447   3.679  1.0494 -1.8910 -0.7988
 9740TIP3   OH250710   2.617   2.754   4.700 -0.1382 -0.0987  0.2525
 9740TIP3    H150711   2.672   2.832   4.710 -1.5008  0.9372 -0.0431
 9740TIP3    H250712   2.539   2.786   4.656 -0.6616 -1.6841 -0.0006
 9741TIP3   OH250713   4.303   6.190  17.012 -0.4357  0.2481  0.1496
 9741TIP3    H150714   4.242   6.262  17.031 -1.3359 -0.5371  0.3245
 9741TIP3    H250715   4.277   6.120  17.073 -1.0321 -1.0236 -1.4892
 9742TIP3   OH250716   3.322   4.980  11.484 -0.1918  0.2366 -0.8920
 9742TIP3    H150717   3.355   4.901  11.442  0.0245  0.0773 -0.4253
 9742TIP3    H250718   3.391   5.006  11.545  0.2904  1.5016 -1.9413
 9743TIP3   OH250719   2.425   3.921  15.193  0.0070  0.2544  0.0515
 9743TIP3    H150720   2.490   3.990  15.205 -0.4478  0.8746 -0.9025
 9743TIP3    H250721   2.456   3.872  15.117  1.1820 -1.6313  1.6715
 9744TIP3   OH250722   4.796   2.045  13.734  0.0090  0.3850  0.0152
 9744TIP3    H150723   4.853   1.978  13.695 -0.5801  0.8055 -1.6681
 9744TIP3    H250724   4.734   2.067  13.664 -1.8024  0.4299  1.5653
 9745TIP3   OH250725   1.987   6.593  16.214 -0.1803  0.0250 -0.2063
 9745TIP3    H150726   2.005   6.511  16.260 -0.2211  0.1345  0.0060
 9745TIP3    H250727   1.895   6.612  16.233 -0.4772 -0.4261 -1.1224
 9746TIP3   OH250728   3.531   6.248   1.220 -0.5477  0.3991 -0.0809
 9746TIP3    H150729   3.532   6.226   1.313 -0.1846  0.4025 -0.0859
 9746TIP3    H250730   3.595   6.318   1.210  1.0766 -1.1088 -0.7137
 9747TIP3   OH250731   5.390   4.767  10.380  0.0215  0.2200  0.0607
 9747TIP3    H150732   5.360   4.825  10.311 -0.4816 -0.6303 -0.4502
 9747TIP3    H250733   5.485   4.770  10.375  0.0078 -0.6923 -1.4405
 9748TIP3   OH250734   4.713   5.568  13.793 -0.3346 -0.2028  0.1992
 9748TIP3    H150735   4.626   5.580  13.753 -0.8110 -1.6305  0.7441
 9748TIP3    H250736   4.706   5.610  13.878 -0.4092 -0.0914  0.1392
 9749TIP3   OH250737   5.773   2.207  13.983 -0.0070 -0.0012 -0.4907
 9749TIP3    H150738   5.860   2.187  13.949  0.5767  0.5829  0.5744
 9749TIP3    H250739   5.777   2.301  14.005 -0.3629 -0.3238  1.0730
 9750TIP3   OH250740   4.690   3.765   0.371 -0.0159 -0.3034 -0.4400
 9750TIP3    H150741   4.712   3.673   0.387 -0.7607 -0.7283 -1.7077
 9750TIP3    H250742   4.774   3.807   0.353  0.3595 -0.6720  0.3941
 9751TIP3   OH250743   3.611   6.447  16.641  0.6135  0.1173 -0.3205
 9751TIP3    H150744   3.591   6.490  16.558 -0.5085 -0.5403 -0.4087
 9751TIP3    H250745   3.706   6.456  16.650  1.0083 -1.1662 -2.4774
 9752TIP3   OH250746   5.317   2.857   2.522  0.6149  0.3815  0.2850
 9752TIP3    H150747   5.359   2.772   2.510  1.0689  0.6882 -0.3688
 9752TIP3    H250748   5.325   2.874   2.616  2.0139  0.4496  0.1849
 9753TIP3   OH250749   1.198   1.515  14.375 -0.4816  0.2950 -0.5378
 9753TIP3    H150750   1.104   1.519  14.354 -0.6064  0.6039  0.0685
 9753TIP3    H250751   1.220   1.422  14.369 -0.7582  0.2512 -0.9574
 9754TIP3   OH250752   3.837   0.522   2.923  0.0367  0.1421  0.3041
 9754TIP3    H150753   3.929   0.524   2.949 -0.2165  0.9511  1.1957
 9754TIP3    H250754   3.838   0.490   2.833  1.0765 -1.2080  0.7609
 9755TIP3   OH250755   2.858   0.926   0.695 -0.2148  0.6047  0.0514
 9755TIP3    H150756   2.887   0.836   0.677 -0.3148  0.3632  1.0223
 9755TIP3    H250757   2.853   0.930   0.790 -1.3091  1.2957 -0.0213
 9756TIP3   OH250758   2.863   6.222  16.936  0.5749  0.3855  0.0891
 9756TIP3    H150759   2.937   6.163  16.919  1.0086  0.8236  0.4287
 9756TIP3    H250760   2.812   6.220  16.855  1.7331  1.1829 -0.6946
 9757TIP3   OH250761   6.558   1.163  13.970  0.2469  0.5979 -0.4661
 9757TIP3    H150762   6.514   1.078  13.967 -0.7245  0.9301  1.9098
 9757TIP3    H250763   6.647   1.144  14.000  0.0808  0.3855 -0.1017
 9758TIP3   OH250764   3.340   1.643   5.537 -0.2239 -0.4804  0.1349
 9758TIP3    H150765   3.339   1.634   5.632  0.4810 -2.9249 -0.0101
 9758TIP3    H250766   3.426   1.680   5.517 -0.9529  1.4815  0.4951
 9759TIP3   OH250767   6.163   4.690   2.821  0.1041  0.1227 -0.3878
 9759TIP3    H150768   6.174   4.633   2.745  0.9160  0.1537 -0.3031
 9759TIP3    H250769   6.222   4.763   2.804 -0.2790  0.5097 -0.0791
 9760TIP3   OH250770   2.251   6.731  14.505 -0.4456  0.1417  0.5368
 9760TIP3    H150771   2.177   6.712  14.447  0.2965 -0.1362 -0.3474
 9760TIP3    H250772   2.243   6.824  14.525  0.4953  0.8079 -1.8374
 9761TIP3   OH250773   5.200   2.810   2.241 -0.1634 -0.2575 -0.1631
 9761TIP3    H150774   5.229   2.736   2.188 -0.4200 -0.3997 -0.1092
 9761TIP3    H250775   5.249   2.803   2.323  2.1332  1.3920 -1.2903
 9762TIP3   OH250776   6.253   0.750  10.919  0.5574 -0.0775 -0.2837
 9762TIP3    H150777   6.262   0.794  11.004 -1.0605 -0.3129  0.0594
 9762TIP3    H250778   6.202   0.671  10.939 -0.0664 -0.0083 -1.5110
 9763TIP3   OH250779   5.056   3.503  13.515  0.3723  0.8399 -0.0915
 9763TIP3    H150780   5.082   3.438  13.580 -1.6263  0.8261  0.7476
 9763TIP3    H250781   5.082   3.464  13.431 -0.2560 -0.7916  0.4422
 9764TIP3   OH250782   1.394   5.359   1.959 -1.1296 -0.4275  0.2184
 9764TIP3    H150783   1.357   5.350   1.871 -1.7161  1.5524  0.2286
 9764TIP3    H250784   1.387   5.452   1.979  0.6164 -0.5525  1.6732
 9765TIP3   OH250785   2.610   2.382   0.579 -0.2619 -0.3496  0.2569
 9765TIP3    H150786   2.580   2.468   0.551  2.0196  0.4309 -0.0108
 9765TIP3    H250787   2.589   2.323   0.507  0.3172  0.4959 -0.6223
 9766TIP3   OH250788   4.779   0.030   3.398 -0.5695 -0.4783  0.0397
 9766TIP3    H150789   4.686   0.052   3.402 -0.0816  1.5611  1.8081
 9766TIP3    H250790   4.810   0.038   3.488  1.1440 -2.0613 -0.3572
 9767TIP3   OH250791   3.528   1.668  11.121 -0.0699  0.0448  0.0775
 9767TIP3    H150792   3.606   1.666  11.065  0.0982  0.3908  0.2944
 9767TIP3    H250793   3.477   1.742  11.088 -1.6141 -1.7473 -1.7851
 9768TIP3   OH250794   4.542   4.430   1.114 -0.0467 -0.3218 -0.1787
 9768TIP3    H150795   4.455   4.465   1.092 -0.2813 -0.3953  0.6048
 9768TIP3    H250796   4.549   4.349   1.063 -0.6697 -0.6033  0.1665
 9769TIP3   OH250797   1.719   0.894   4.299  0.2889 -0.3049 -0.1083
 9769TIP3    H150798   1.736   0.878   4.392 -1.2888  0.5530  0.3682
 9769TIP3    H250799   1.769   0.973   4.279 -2.2077  1.7179  1.0586
 9770TIP3   OH250800   4.872   0.861  13.414  0.1968  0.0976  0.5890
 9770TIP3    H150801   4.884   0.777  13.370 -0.6148  1.1319 -1.7852
 9770TIP3    H250802   4.779   0.883  13.400  0.3383  1.2866  1.3402
 9771TIP3   OH250803   0.048   2.919   3.454  0.7051 -0.1727 -0.0424
 9771TIP3    H150804  -0.000   2.942   3.375 -1.0104 -0.8294  0.7657
 9771TIP3    H250805   0.011   2.975   3.523 -0.6370 -2.2622  1.0733
 9772TIP3   OH250806   5.194   0.903   3.921  0.8463  0.3738  0.3313
 9772TIP3    H150807   5.127   0.921   3.856  1.8517  1.0456 -0.5557
 9772TIP3    H250808   5.234   0.821   3.891 -0.2454 -0.6143  1.4504
 9773TIP3   OH250809   3.743   6.718   5.492 -0.3775 -0.6600  0.2361
 9773TIP3    H150810   3.738   6.800   5.443 -1.5774 -1.1201 -0.4540
 9773TIP3    H250811   3.704   6.739   5.577 -0.4789 -0.4549  0.1409
 9774TIP3   OH250812   6.515   6.143   1.884  0.5392  0.4163  0.1836
 9774TIP3    H150813   6.447   6.150   1.817 -1.0064 -1.5742  1.4217
 9774TIP3    H250814   6.519   6.230   1.923  0.3238  1.1648 -1.3931
 9775TIP3   OH250815   1.203   2.748   0.694 -0.3575  0.1318  0.8469
 9775TIP3    H150816   1.288   2.713   0.667 -0.2683 -0.9469  2.3939
 9775TIP3    H250817   1.153   2.756   0.612 -0.1359 -3.0435  0.2476
 9776TIP3   OH250818   3.376   3.733   3.771  0.9337  0.9663  0.3477
 9776TIP3    H150819   3.398   3.826   3.777  0.7540  1.0716 -0.5082
 9776TIP3    H250820   3.423   3.702   3.694  0.2117  0.5799  0.0506
 9777TIP3   OH250821   4.803   3.407  16.120  0.4939  0.8449 -0.2783
 9777TIP3    H150822   4.896   3.389  16.109  1.0092  2.5119  0.8474
 9777TIP3    H250823   4.759   3.330  16.085  2.2969 -0.1119 -0.5681
 9778TIP3   OH250824   6.564   0.371   1.977 -0.2917 -0.1391  0.5914
 9778TIP3    H150825   6.656   0.354   1.957 -0.9758 -1.4209 -1.8020
 9778TIP3    H250826   6.528   0.287   2.003 -1.5201 -0.5351 -1.9832
 9779TIP3   OH250827   1.745   0.673   5.731 -0.0935 -0.3945  0.0165
 9779TIP3    H150828   1.697   0.640   5.655 -0.5604 -0.8894  0.5194
 9779TIP3    H250829   1.760   0.595   5.785 -0.6180  0.1105  0.9037
 9780TIP3   OH250830   3.386   5.763   6.036 -0.0687  0.3396 -0.3011
 9780TIP3    H150831   3.346   5.831   6.090 -0.4471 -0.0218 -0.1152
 9780TIP3    H250832   3.456   5.727   6.092 -0.2768  0.1571 -0.1539
 9781TIP3   OH250833   6.317   1.812   1.003  0.0694 -0.9626  0.4355
 9781TIP3    H150834   6.371   1.859   1.067  0.4340  0.6771 -0.9933
 9781TIP3    H250835   6.229   1.848   1.014 -0.6897 -3.1596  2.3061
 9782TIP3   OH250836   3.170   5.081  13.805 -0.0662  0.2010  0.0269
 9782TIP3    H150837   3.183   4.987  13.822  0.3228  0.5503  1.9705
 9782TIP3    H250838   3.083   5.087  13.766  0.5469 -1.0905 -1.6561
 9783TIP3   OH250839   3.425   1.516  14.001  0.4673 -0.2605 -0.3942
 9783TIP3    H150840   3.475   1.527  13.920 -0.7734 -0.5041 -1.2149
 9783TIP3    H250841   3.489   1.530  14.071  1.9978 -1.9473 -1.3929
 9784TIP3   OH250842   3.031   4.381  16.807 -0.5707 -0.1918 -0.4215
 9784TIP3    H150843   3.019   4.396  16.901 -0.8955 -0.1570 -0.4661
 9784TIP3    H250844   3.002   4.463  16.766  0.1498  0.0229 -0.5188
 9785TIP3   OH250845   4.089   2.702  13.921 -0.1161  0.4032 -0.0642
 9785TIP3    H150846   4.117   2.615  13.948 -1.7207  0.7846  3.4173
 9785TIP3    H250847   4.001   2.690  13.887  0.5114  0.4302 -1.7727
 9786TIP3   OH250848   1.940   5.411  11.886 -0.1685  0.4475 -0.2063
 9786TIP3    H150849   1.966   5.371  11.803 -1.4880 -1.5996  0.3042
 9786TIP3    H250850   1.844   5.415  11.881 -0.1693  1.9329  0.5242
 9787TIP3   OH250851   1.846   2.310  13.648  0.7014 -0.5030  0.7127
 9787TIP3    H150852   1.820   2.393  13.690 -2.2084 -0.0030 -1.7333
 9787TIP3    H250853   1.843   2.246  13.719 -0.4370  0.8812  2.0046
 9788TIP3   OH250854   4.155   5.393   6.598 -0.0948  0.9042 -0.2464
 9788TIP3    H150855   4.165   5.483   6.631  2.4356  0.4185  0.5591
 9788TIP3    H250856   4.142   5.340   6.677 -0.3079  0.4285 -0.6006
 9789TIP3   OH250857   1.608   2.398  16.207  0.3475 -0.1172 -0.3712
 9789TIP3    H150858   1.634   2.359  16.123  1.4909 -0.1731 -0.0201
 9789TIP3    H250859   1.689   2.439  16.240  0.3273 -1.3728  1.3889
 9790TIP3   OH250860   0.075   6.255  12.212 -0.6099 -0.4418  0.3284
 9790TIP3    H150861   0.081   6.308  12.132 -0.5246  1.9390  1.8092
 9790TIP3    H250862  -0.017   6.229  12.217 -1.2320  1.6715  0.7731
 9791TIP3   OH250863   6.460   1.427   3.908 -0.4700 -0.2320 -0.4513
 9791TIP3    H150864   6.549   1.449   3.934 -0.7927  1.4494 -0.6271
 9791TIP3    H250865   6.456   1.332   3.910  0.6152 -0.2904  1.9782
 9792TIP3   OH250866   0.816   4.701   4.459 -0.4798 -0.1797  0.0124
 9792TIP3    H150867   0.745   4.702   4.396 -1.4662  0.4095  1.1073
 9792TIP3    H250868   0.894   4.724   4.408 -0.7022 -2.5677 -1.5739
 9793TIP3   OH250869   4.779   6.729  17.003 -0.5217  0.3154 -0.2569
 9793TIP3    H150870   4.831   6.676  17.063  1.7417  0.2396 -2.1244
 9793TIP3    H250871   4.764   6.811  17.049  0.1639 -0.1550  0.8295
 9794TIP3   OH250872   0.878   5.930  13.517  0.0121 -0.0576 -0.0967
 9794TIP3    H150873   0.842   5.862  13.461  2.7168 -1.5692 -0.1731
 9794TIP3    H250874   0.944   5.974  13.463  0.9901  0.0482  1.1255
 9795TIP3   OH250875   0.696   1.869  16.443  0.3716 -0.0978 -0.8415
 9795TIP3    H150876   0.738   1.830  16.520  2.1517 -0.1561 -1.8014
 9795TIP3    H250877   0.660   1.952  16.475  1.7389  0.2387 -0.0961
 9796TIP3   OH250878   4.517   2.125  12.596 -0.1449 -0.4638 -0.4135
 9796TIP3    H150879   4.599   2.076  12.593 -0.3053 -0.7794  0.1172
 9796TIP3    H250880   4.492   2.135  12.504 -0.3654 -1.8283 -0.5238
 9797TIP3   OH250881   5.859   0.895  12.943  0.1369  0.0148  0.4092
 9797TIP3    H150882   5.892   0.815  12.902  0.2437  0.3358 -0.1488
 9797TIP3    H250883   5.764   0.886  12.941  0.1604 -0.2798  0.7160
 9798TIP3   OH250884   1.630   5.024  14.474 -0.3624  0.1094 -0.0194
 9798TIP3    H150885   1.574   5.082  14.525 -1.2706 -0.7786  0.0239
 9798TIP3    H250886   1.622   4.938  14.517 -0.1367 -0.3607 -0.8849
 9799TIP3   OH250887   0.677   1.767   3.510  0.0898  0.0391 -0.5827
 9799TIP3    H150888   0.751   1.708   3.526  0.9300  1.3364  0.5296
 9799TIP3    H250889   0.680   1.829   3.583 -2.9152 -0.6568  0.2540
 9800TIP3   OH250890   1.508   3.829   1.464 -0.0335 -0.3047 -0.0386
 9800TIP3    H150891   1.553   3.774   1.529  0.4216  1.2127  1.0009
 9800TIP3    H250892   1.465   3.897   1.517  1.0154  1.4583 -1.3479
 9801TIP3   OH250893   2.262   4.552   0.772  0.1944  0.3098 -0.8363
 9801TIP3    H150894   2.264   4.624   0.835 -0.4854 -0.2726 -0.1330
 9801TIP3    H250895   2.341   4.502   0.791  0.5716  0.7647 -1.2009
 9802TIP3   OH250896   1.335   2.085  11.769  0.2867  0.4183  0.3727
 9802TIP3    H150897   1.253   2.133  11.760 -0.5145 -1.1645 -2.0683
 9802TIP3    H250898   1.342   2.034  11.687  4.0116  0.9095  0.1893
 9803TIP3   OH250899   4.729   0.503  13.657 -0.0542 -0.2269  0.2636
 9803TIP3    H150900   4.803   0.554  13.690  1.5638 -1.3328 -1.4487
 9803TIP3    H250901   4.660   0.516  13.722  0.8184  2.7385  0.7374
 9804TIP3   OH250902   0.216   3.161   1.195  0.0899 -1.0145 -0.0157
 9804TIP3    H150903   0.236   3.074   1.160 -1.5926 -0.4428 -2.7030
 9804TIP3    H250904   0.121   3.170   1.187  0.0433  0.5658  1.5640
 9805TIP3   OH250905   6.695   0.184  12.066  0.3297 -0.1680  0.1666
 9805TIP3    H150906   6.772   0.154  12.114  0.8089  0.4733 -0.1834
 9805TIP3    H250907   6.731   0.240  11.997 -0.6469  3.4399  2.3710
 9806TIP3   OH250908   2.301   6.681  13.162 -0.1557 -0.1157  0.0541
 9806TIP3    H150909   2.249   6.749  13.203 -0.6681  0.6765 -1.8315
 9806TIP3    H250910   2.239   6.612  13.141  0.0801 -0.4490  0.4188
 9807TIP3   OH250911   3.772   6.281   4.309 -0.2705 -0.0662  0.0505
 9807TIP3    H150912   3.758   6.305   4.401 -1.0504 -0.2551 -0.0094
 9807TIP3    H250913   3.858   6.239   4.308  0.6798  1.7894  0.3295
 9808TIP3   OH250914   3.011   0.839   2.166  0.3202 -0.1259 -0.0067
 9808TIP3    H150915   2.973   0.902   2.104  0.3202 -0.8171 -0.7254
 9808TIP3    H250916   3.101   0.870   2.179 -0.0363  0.7089  0.6049
 9809TIP3   OH250917   1.335   4.160   3.339 -0.6348  0.3236 -0.0815
 9809TIP3    H150918   1.358   4.236   3.285 -0.7353  0.5702  0.2212
 9809TIP3    H250919   1.329   4.088   3.277  1.3135  0.1705 -0.1408
 9810TIP3   OH250920   0.784   0.724  13.902  0.3470 -0.0533  0.5225
 9810TIP3    H150921   0.790   0.781  13.825 -1.8380 -1.2660 -0.6125
 9810TIP3    H250922   0.743   0.779  13.969  0.2858  0.3578  0.1563
 9811TIP3   OH250923   1.484   4.149   2.500 -0.1711  0.2377 -0.3712
 9811TIP3    H150924   1.504   4.056   2.507 -0.4131  0.2472  0.5554
 9811TIP3    H250925   1.389   4.155   2.511 -0.3270  0.4905 -1.6401
 9812TIP3   OH250926   3.976   3.709   3.276  0.3360 -0.5364  0.3982
 9812TIP3    H150927   3.971   3.616   3.253  0.7238 -0.2726 -0.8049
 9812TIP3    H250928   4.063   3.736   3.248  0.1224  0.2602  0.4995
 9813TIP3   OH250929   6.011   6.389  13.626  0.0281 -0.1788 -0.7495
 9813TIP3    H150930   5.952   6.347  13.689  0.1279  0.4969 -0.1934
 9813TIP3    H250931   6.099   6.370  13.658  0.1499  3.3288  1.6110
 9814TIP3   OH250932   2.326   6.816  10.379  0.2251 -0.8156 -0.5595
 9814TIP3    H150933   2.341   6.754  10.451  0.0040  0.9057  1.0435
 9814TIP3    H250934   2.341   6.902  10.418 -0.8962  0.2384 -2.3386
 9815TIP3   OH250935   4.036   1.994  15.565  0.5568 -0.0537 -0.1063
 9815TIP3    H150936   4.016   1.946  15.484 -1.2950  0.3024  0.0907
 9815TIP3    H250937   3.952   1.998  15.612  0.9420  2.2288  0.5020
 9816TIP3   OH250938   3.662   4.085  12.220 -0.3020  0.4031  0.3343
 9816TIP3    H150939   3.571   4.114  12.210 -0.7198 -1.0070 -0.2367
 9816TIP3    H250940   3.713   4.166  12.224 -1.5666  1.2130  0.4949
 9817TIP3   OH250941   4.008   4.676   0.444  0.0407 -0.2111  0.3104
 9817TIP3    H150942   3.996   4.603   0.505 -0.1529  0.0409  0.5768
 9817TIP3    H250943   3.924   4.684   0.399  1.1678 -2.7113 -2.6118
 9818TIP3   OH250944   5.052   4.333   1.652  0.3034  0.0006 -0.6011
 9818TIP3    H150945   5.102   4.415   1.646  2.2319 -1.0807 -0.3443
 9818TIP3    H250946   5.083   4.281   1.578 -0.8083 -0.5590 -0.6909
 9819TIP3   OH250947   2.073   2.339  11.892 -0.4136 -0.1709 -0.1073
 9819TIP3    H150948   2.133   2.282  11.941 -0.5527 -0.3633 -0.1607
 9819TIP3    H250949   2.054   2.291  11.812 -0.2936  0.0865 -0.2929
 9820TIP3   OH250950   5.636   3.266  16.006  0.1574 -0.1266  0.1666
 9820TIP3    H150951   5.711   3.316  15.974 -0.0431 -0.4972 -0.9041
 9820TIP3    H250952   5.669   3.223  16.086  1.1613 -0.4720 -0.4102
 9821TIP3   OH250953   5.842   3.812   5.790 -0.3587 -0.3896 -0.8404
 9821TIP3    H150954   5.861   3.845   5.702  0.7923 -1.6344 -1.0918
 9821TIP3    H250955   5.879   3.723   5.791 -1.1607 -0.7349  0.6042
 9822TIP3   OH250956   1.202   6.566   4.971  0.0604 -0.2679  0.3113
 9822TIP3    H150957   1.124   6.512   4.985  0.7722 -1.9222 -1.6538
 9822TIP3    H250958   1.238   6.535   4.888  0.8509  2.8740 -0.6537
 9823TIP3   OH250959   4.850   0.325   5.364 -0.4139 -0.0710 -0.0340
 9823TIP3    H150960   4.762   0.354   5.340 -0.5682 -0.2906  0.2525
 9823TIP3    H250961   4.843   0.300   5.456 -0.3026 -1.0477 -0.2764
 9824TIP3   OH250962   2.634   0.162   4.178  0.5624 -0.0857  0.1231
 9824TIP3    H150963   2.694   0.210   4.235  0.1052 -0.6210  1.0727
 9824TIP3    H250964   2.687   0.092   4.141  0.3658 -1.0066  1.5344
 9825TIP3   OH250965   6.263   4.067   3.908  0.2647  0.5335  0.4894
 9825TIP3    H150966   6.307   4.018   3.839 -0.0504 -1.0588  1.3738
 9825TIP3    H250967   6.172   4.074   3.879  0.2512  0.3441  0.4863
 9826TIP3   OH250968   0.033   2.149   5.262  0.8197 -0.1727 -0.3441
 9826TIP3    H150969  -0.013   2.066   5.274  2.6452 -1.0342  1.2324
 9826TIP3    H250970   0.010   2.177   5.173  0.9776 -2.9008 -1.3370
 9827TIP3   OH250971   5.710   4.727  15.144  0.0397 -0.2007  0.8064
 9827TIP3    H150972   5.627   4.678  15.145  0.8876 -1.8843 -1.6390
 9827TIP3    H250973   5.684   4.818  15.159 -2.1930 -0.7409  0.6575
 9828TIP3   OH250974   0.390   4.850   1.870 -0.0700  0.8760 -0.5902
 9828TIP3    H150975   0.305   4.881   1.901 -0.4220  1.0871 -1.6966
 9828TIP3    H250976   0.373   4.821   1.780  0.8586  0.1389 -0.5431
 9829TIP3   OH250977   5.826   5.538   1.828 -0.4049  0.4662 -0.2401
 9829TIP3    H150978   5.848   5.618   1.876  0.8866  0.4971 -0.8359
 9829TIP3    H250979   5.825   5.469   1.895 -0.0296  0.7418  0.0540
 9830TIP3   OH250980   1.428   6.753   2.748  0.1813  0.0801  0.3003
 9830TIP3    H150981   1.370   6.723   2.678  1.0283  0.0707 -0.4088
 9830TIP3    H250982   1.399   6.705   2.826  0.6470 -1.5830 -0.5182
 9831TIP3   OH250983   2.311   6.412   4.774  0.0971 -0.3247  0.0119
 9831TIP3    H150984   2.401   6.409   4.807  0.6213 -1.4493 -1.4303
 9831TIP3    H250985   2.258   6.385   4.849  1.0779 -0.9901  0.4910
 9832TIP3   OH250986   6.203   4.050   2.228 -0.2648 -0.6607 -0.4020
 9832TIP3    H150987   6.141   3.977   2.225 -1.5066  0.3732 -1.0965
 9832TIP3    H250988   6.211   4.072   2.320 -0.1410 -1.4372 -0.2188
 9833TIP3   OH250989   3.415   4.260   4.020 -0.0653 -0.0834  0.6006
 9833TIP3    H150990   3.386   4.169   4.030 -1.5995  0.3174  0.1432
 9833TIP3    H250991   3.453   4.263   3.933 -0.2855 -0.2346  0.4963
 9834TIP3   OH250992   4.046   6.409  13.430 -0.3296 -0.0615 -0.5572
 9834TIP3    H150993   4.102   6.334  13.411 -0.6458 -0.6277  0.6873
 9834TIP3    H250994   4.025   6.401  13.523 -1.2493  0.9767 -0.6526
 9835TIP3   OH250995   1.123   3.237  11.428  0.8263 -0.1323  0.3876
 9835TIP3    H150996   1.123   3.326  11.392  2.6756 -1.0517 -2.0667
 9835TIP3    H250997   1.073   3.246  11.510  1.3592  3.2483  0.5142
 9836TIP3   OH250998   4.434   2.018   5.158 -0.3181 -0.3146 -0.2993
 9836TIP3    H150999   4.424   1.930   5.123 -1.6111  0.4961 -2.0999
 9836TIP3    H251000   4.492   2.062   5.096 -1.7748  0.8249 -0.9299
 9837TIP3   OH251001   1.558   2.582  12.387 -0.0547  0.3056 -0.2432
 9837TIP3    H151002   1.619   2.567  12.459 -0.9216  0.5443  0.5548
 9837TIP3    H251003   1.583   2.667  12.352 -0.3350  0.7042  0.5076
 9838TIP3   OH251004   6.570   5.416  11.722 -0.2554  0.4965 -0.1237
 9838TIP3    H151005   6.512   5.409  11.646  0.6094  0.7603 -0.8225
 9838TIP3    H251006   6.621   5.335  11.720 -0.9100  0.0471  0.7664
 9839TIP3   OH251007   5.883   1.120  15.530 -0.2248 -0.5852 -0.4540
 9839TIP3    H151008   5.874   1.112  15.435  3.3803 -0.2304 -0.9460
 9839TIP3    H251009   5.836   1.201  15.551  0.8447  0.6006 -2.3397
 9840TIP3   OH251010   5.558   1.292   1.698 -1.3957  0.6644 -0.1015
 9840TIP3    H151011   5.548   1.386   1.710 -2.6270  0.5035  0.3635
 9840TIP3    H251012   5.519   1.254   1.777  0.5575 -0.2139  0.4952
 9841TIP3   OH251013   4.637   0.121  14.997 -0.3311  0.0268 -0.2601
 9841TIP3    H151014   4.713   0.168  15.031 -0.2448  2.5104 -3.3447
 9841TIP3    H251015   4.564   0.183  15.008 -1.0754 -0.7230 -0.8202
 9842TIP3   OH251016   5.540   1.686   5.795  0.2844  0.1177 -0.0759
 9842TIP3    H151017   5.572   1.645   5.714 -2.9211 -0.9056 -0.9572
 9842TIP3    H251018   5.500   1.768   5.767 -0.4288 -0.0091  0.5519
 9843TIP3   OH251019   6.076   3.318  12.400 -0.3510  0.2837  0.1274
 9843TIP3    H151020   6.030   3.400  12.422  0.6837  1.2718 -1.1790
 9843TIP3    H251021   6.141   3.345  12.334 -0.3944 -1.7114 -0.7851
 9844TIP3   OH251022   1.101   5.973   4.522 -0.7941  0.4701 -0.1538
 9844TIP3    H151023   1.025   5.939   4.569  0.2791  0.6188  1.7776
 9844TIP3    H251024   1.116   6.060   4.559  0.7324  0.1536  0.0635
 9845TIP3   OH251025   1.548   1.675  15.585  0.1610  0.6419 -0.7079
 9845TIP3    H151026   1.614   1.720  15.638  0.5244  1.0812 -1.5255
 9845TIP3    H251027   1.541   1.588  15.625  0.2256  1.0465  0.2306
 9846TIP3   OH251028   4.053   1.446   5.443 -0.2340 -0.2921 -0.0260
 9846TIP3    H151029   4.065   1.538   5.422  1.6407 -0.0951  1.6097
 9846TIP3    H251030   4.135   1.404   5.414 -1.7175 -1.8450 -2.3927
 9847TIP3   OH251031   3.369   2.826   3.973  1.1238 -0.4462  0.2818
 9847TIP3    H151032   3.431   2.815   4.045 -0.3892 -2.7134  1.3238
 9847TIP3    H251033   3.285   2.845   4.016  0.5846  0.1375 -0.9878
 9848TIP3   OH251034   1.834   6.634   4.391  0.3402 -0.1464  0.5011
 9848TIP3    H151035   1.863   6.720   4.362  1.2649 -0.2092  1.1773
 9848TIP3    H251036   1.814   6.586   4.311 -1.8833  1.2212  0.1478
 9849TIP3   OH251037   5.223   5.888   5.762  0.3703 -0.6093 -0.3026
 9849TIP3    H151038   5.317   5.876   5.778  0.6913  2.3569  0.7586
 9849TIP3    H251039   5.186   5.904   5.849 -0.5132  1.3015 -0.9635
 9850TIP3   OH251040   0.893   4.930   2.168 -0.1854  0.0108 -0.6226
 9850TIP3    H151041   0.924   4.841   2.183  0.6521  0.4576  0.4487
 9850TIP3    H251042   0.799   4.921   2.152 -0.6237 -0.8681  2.0104
 9851TIP3   OH251043   4.431   3.619   2.503 -0.1183 -0.5541 -0.0811
 9851TIP3    H151044   4.509   3.604   2.450 -0.1379  1.5235 -0.7773
 9851TIP3    H251045   4.457   3.685   2.567 -1.2158 -0.0510 -0.1307
 9852TIP3   OH251046   1.739   6.677  14.945 -0.4682 -0.1355  0.7086
 9852TIP3    H151047   1.795   6.626  14.886 -0.9539 -1.7412  1.5727
 9852TIP3    H251048   1.797   6.703  15.016  0.6464  3.5520 -1.2793
 9853TIP3   OH251049   1.558   3.216  16.162  0.4130  0.5488  0.5170
 9853TIP3    H151050   1.649   3.235  16.188  0.7032 -0.3541  0.1988
 9853TIP3    H251051   1.552   3.248  16.072 -0.4323  3.1741  1.4179
 9854TIP3   OH251052   1.713   5.427  16.438  0.5418  0.2146  0.3227
 9854TIP3    H151053   1.782   5.376  16.396 -1.2129 -1.4399 -0.6548
 9854TIP3    H251054   1.743   5.437  16.529  3.3061  1.8933 -0.6391
 9855TIP3   OH251055   0.766   1.733  13.194 -0.2241  0.8991  0.0772
 9855TIP3    H151056   0.671   1.732  13.185 -0.4124  0.7995  1.8371
 9855TIP3    H251057   0.796   1.657  13.144 -1.5565 -2.2964  3.6349
 9856TIP3   OH251058   3.934   0.257  15.206  0.5278  0.0254 -0.4047
 9856TIP3    H151059   3.914   0.173  15.247  1.3868 -0.7196 -1.4570
 9856TIP3    H251060   3.858   0.274  15.149  0.3964 -0.0864 -0.2624
 9857TIP3   OH251061   6.166   2.980   3.079  0.5813  0.1682  0.4103
 9857TIP3    H151062   6.257   2.989   3.049  0.0168 -0.0507 -1.5013
 9857TIP3    H251063   6.172   2.925   3.157  2.1726  0.9583  0.8778
 9858TIP3   OH251064   6.725   3.718   5.590  0.2001 -0.0047  0.4181
 9858TIP3    H151065   6.689   3.638   5.626  0.8749  0.7714  2.9967
 9858TIP3    H251066   6.700   3.716   5.497 -1.7315 -2.0674  0.9000
 9859TIP3   OH251067   0.036   3.637  15.277  0.0046  0.2712 -0.3921
 9859TIP3    H151068   0.019   3.597  15.362  2.2106  0.1044  0.0197
 9859TIP3    H251069  -0.040   3.613  15.224 -0.3485 -1.5649  0.8450
 9860TIP3   OH251070   1.698   1.729   0.061 -0.3089  0.1550  0.2903
 9860TIP3    H151071   1.618   1.750   0.013 -0.1281  0.8492  0.2850
 9860TIP3    H251072   1.698   1.789   0.136 -1.4723 -2.0264  2.2072
 9861TIP3   OH251073   0.998   2.892   0.476 -0.2641  0.0851  0.6011
 9861TIP3    H151074   0.966   2.914   0.564 -0.0274  0.3599  0.6199
 9861TIP3    H251075   0.963   2.805   0.459  1.3367 -0.8202  1.7674
 9862TIP3   OH251076   3.860   6.544   6.406 -0.2179 -0.3212  0.1829
 9862TIP3    H151077   3.914   6.594   6.468 -1.1596  0.1619  0.6324
 9862TIP3    H251078   3.776   6.589   6.406 -0.4681 -0.7605 -0.8985
 9863TIP3   OH251079   5.108   4.783   4.043 -0.0441  0.2863  0.1432
 9863TIP3    H151080   5.183   4.769   3.985  0.0261  1.0305  0.0533
 9863TIP3    H251081   5.137   4.851   4.104 -0.3542 -0.0184  0.6461
 9864TIP3   OH251082   2.871   6.235   5.048 -0.4776  0.0009  0.1340
 9864TIP3    H151083   2.949   6.270   5.091  0.4158 -0.8005 -0.7646
 9864TIP3    H251084   2.873   6.142   5.068 -0.7179 -0.1719 -0.6042
 9865TIP3   OH251085   1.892   6.699  14.666 -0.0620  0.0790  0.1515
 9865TIP3    H151086   1.906   6.735  14.579 -0.6900  0.4737  0.2041
 9865TIP3    H251087   1.797   6.689  14.672  0.0891 -1.8760  0.0221
 9866TIP3   OH251088   4.610   1.996   5.357  0.4828  0.2150 -0.2655
 9866TIP3    H151089   4.540   1.996   5.292  0.2904 -1.6200 -0.1144
 9866TIP3    H251090   4.575   2.048   5.430  0.0701  0.9359 -0.9616
 9867TIP3   OH251091   6.664   2.648   3.319  0.1215 -0.0626  0.2744
 9867TIP3    H151092   6.582   2.628   3.275 -1.4939  1.5657  2.3411
 9867TIP3    H251093   6.687   2.736   3.290  0.5616 -0.0825  0.5375
 9868TIP3   OH251094   0.553   0.693   1.669 -0.0913 -0.1421  0.2024
 9868TIP3    H151095   0.578   0.673   1.759 -2.4744 -0.9955  0.7471
 9868TIP3    H251096   0.568   0.787   1.660  1.2141 -0.2344  1.0944
 9869TIP3   OH251097   6.751   4.986  16.166  0.9145  0.5053  0.5433
 9869TIP3    H151098   6.701   5.059  16.130  1.0239  0.4236  0.2223
 9869TIP3    H251099   6.815   4.964  16.098  1.4393  0.6597  0.9725
 9870TIP3   OH251100   2.692   0.020  13.749 -0.4244  0.1497 -0.1288
 9870TIP3    H151101   2.689  -0.044  13.678 -1.4811  0.6930 -0.5790
 9870TIP3    H251102   2.603   0.054  13.756 -0.1314  0.7703  0.8534
 9871TIP3   OH251103   2.443   5.527   6.100 -0.1127 -0.4728 -0.2019
 9871TIP3    H151104   2.366   5.473   6.118 -0.7538  0.1804 -0.9311
 9871TIP3    H251105   2.408   5.611   6.072  0.8719  0.7613  2.0176
 9872TIP3   OH251106   5.000   4.244  11.878  0.0588 -0.5801 -0.2416
 9872TIP3    H151107   5.025   4.155  11.902  0.7511 -0.9397 -2.1400
 9872TIP3    H251108   4.967   4.237  11.789 -2.1060  0.7309  0.3832
 9873TIP3   OH251109   1.374   5.901   4.625 -0.0350  0.4850  0.8697
 9873TIP3    H151110   1.379   5.898   4.720  1.0540 -0.9009  0.7969
 9873TIP3    H251111   1.280   5.910   4.606 -0.8092 -3.3333  2.0694
 9874TIP3   OH251112   1.299   3.454   4.691 -0.0841 -0.4324 -0.8557
 9874TIP3    H151113   1.303   3.415   4.778 -0.0794 -2.0027 -1.5329
 9874TIP3    H251114   1.311   3.381   4.631 -1.7596  0.3452 -2.2189
 9875TIP3   OH251115   6.072   0.267   0.666  0.4376  0.1231  0.0864
 9875TIP3    H151116   6.047   0.351   0.626  0.9113 -1.3167 -3.6740
 9875TIP3    H251117   6.168   0.271   0.670  0.4643 -0.2506 -0.1552
 9876TIP3   OH251118   2.816   6.124  13.575  0.4956  0.3662  0.0052
 9876TIP3    H151119   2.786   6.196  13.631  0.4810  2.3296 -2.3617
 9876TIP3    H251120   2.909   6.116  13.593  0.5492  1.1637  0.0819
 9877TIP3   OH251121   1.680   4.417  15.122  0.4636 -0.3543  0.6618
 9877TIP3    H151122   1.704   4.373  15.040 -1.4572  1.1000 -0.7784
 9877TIP3    H251123   1.743   4.488  15.131 -0.8238  1.0816 -1.0194
 9878TIP3   OH251124   5.571   3.986   6.505 -0.0703 -0.2999  0.7010
 9878TIP3    H151125   5.496   4.013   6.451 -0.5680  0.8830  1.9256
 9878TIP3    H251126   5.583   3.893   6.485 -1.7080 -0.4452  0.2719
 9879TIP3   OH251127   1.063   5.502   2.400  0.3023 -0.1963  0.1728
 9879TIP3    H151128   1.083   5.409   2.393  0.2095 -0.2325  0.3631
 9879TIP3    H251129   0.989   5.506   2.461  1.3946  0.1182  1.5490
 9880TIP3   OH251130   0.167   4.156   1.854 -0.1544 -1.1190 -0.1488
 9880TIP3    H151131   0.123   4.190   1.776  0.1459  1.9704  0.8871
 9880TIP3    H251132   0.260   4.166   1.837 -0.0538 -1.3630  0.2268
 9881TIP3   OH251133   4.679   1.951   0.261  0.5914  0.9640  0.3372
 9881TIP3    H151134   4.710   1.883   0.321  0.6954  0.7345  0.0266
 9881TIP3    H251135   4.649   1.902   0.184 -0.0372  1.2165  0.4163
 9882TIP3   OH251136   0.813   3.955  12.878 -0.2071 -0.7717 -0.5900
 9882TIP3    H151137   0.883   4.002  12.831 -0.7744 -0.0828 -0.7612
 9882TIP3    H251138   0.758   4.024  12.914 -1.5768 -1.2866 -1.6208
 9883TIP3   OH251139   1.913   5.975  11.965  0.2063  0.7182  0.3615
 9883TIP3    H151140   1.931   5.984  12.058 -2.6051  0.2673  1.0474
 9883TIP3    H251141   1.870   6.057  11.940  1.3323  1.0208 -0.6822
 9884TIP3   OH251142   1.558   5.784   5.440  0.4866 -0.2717 -0.4950
 9884TIP3    H151143   1.541   5.827   5.524  4.0252 -0.3751  0.4642
 9884TIP3    H251144   1.475   5.789   5.392 -1.2570  1.0990  2.4071
 9885TIP3   OH251145   5.479   5.631  12.911 -0.8257 -0.7764  0.2958
 9885TIP3    H151146   5.417   5.636  12.984 -0.6838 -1.0048  0.4345
 9885TIP3    H251147   5.565   5.640  12.952 -0.7299 -1.2217  0.1964
 9886TIP3   OH251148   5.999   3.865  17.203 -0.1056  0.7494 -0.1583
 9886TIP3    H151149   5.994   3.868  17.107  1.3956  1.7485 -0.2226
 9886TIP3    H251150   6.056   3.790  17.221 -1.1907 -0.0671  0.0220
 9887TIP3   OH251151   3.310   5.079   5.360  0.3206  0.1972  0.6105
 9887TIP3    H151152   3.248   5.143   5.396 -0.5943 -0.3993  0.1477
 9887TIP3    H251153   3.284   4.996   5.400  0.7092 -0.0905  0.2695
 9888TIP3   OH251154   2.684   1.000   4.396 -0.1541  0.2462 -0.1433
 9888TIP3    H151155   2.757   0.967   4.449 -1.0672 -1.1946  0.2686
 9888TIP3    H251156   2.655   0.924   4.345  0.0924  1.3711 -2.0545
 9889TIP3   OH251157   1.763   1.351   1.056 -0.0039 -0.4090 -0.4208
 9889TIP3    H151158   1.706   1.378   1.128  1.9260 -1.0062  1.4534
 9889TIP3    H251159   1.787   1.432   1.012 -0.0055  0.1484  0.5823
 9890TIP3   OH251160   4.299   4.185   0.609 -0.0873  0.6839 -0.2160
 9890TIP3    H151161   4.287   4.090   0.602 -0.8218  0.8928 -2.5881
 9890TIP3    H251162   4.323   4.199   0.701  2.3601 -2.0236 -0.2816
 9891TIP3   OH251163   6.265   6.067  13.541  0.0039  0.0091  0.3017
 9891TIP3    H151164   6.294   6.147  13.496 -0.5186  0.6033  1.0008
 9891TIP3    H251165   6.346   6.023  13.566  0.2975  0.4525  0.1519
 9892TIP3   OH251166   3.382   5.728  13.866 -0.2103  0.7849  0.0229
 9892TIP3    H151167   3.300   5.773  13.886  0.2313  1.7995 -0.3775
 9892TIP3    H251168   3.450   5.791  13.890  0.5206 -0.5082  1.5412
 9893TIP3   OH251169   4.111   6.330  16.804 -0.2015 -0.3191  0.2761
 9893TIP3    H151170   4.080   6.288  16.885  1.3471  0.6692  1.4445
 9893TIP3    H251171   4.095   6.265  16.736 -2.1181 -0.9490  1.2490
 9894TIP3   OH251172   2.920   2.033  17.063  0.3017 -0.0954  0.4893
 9894TIP3    H151173   2.934   1.982  16.983  0.7060 -2.3990  1.9408
 9894TIP3    H251174   2.982   1.996  17.126 -0.4635  1.2158  2.0730
 9895TIP3   OH251175   4.003   4.258  16.215  0.9304 -0.0946  0.1888
 9895TIP3    H151176   3.951   4.183  16.243  0.8223 -0.1443 -0.1391
 9895TIP3    H251177   4.094   4.230  16.228  0.9103 -0.5436 -0.5767
 9896TIP3   OH251178   4.356   3.160   1.398  0.1581  0.5237  0.0507
 9896TIP3    H151179   4.396   3.132   1.481 -4.0031  0.3563  2.2834
 9896TIP3    H251180   4.338   3.254   1.411 -0.8494  0.4147 -0.4768
 9897TIP3   OH251181   2.383   1.461   5.919  0.2795  0.5249 -0.0636
 9897TIP3    H151182   2.414   1.538   5.871  1.4175 -0.2240 -0.5830
 9897TIP3    H251183   2.453   1.396   5.908  0.0299 -0.0866  1.6169
 9898TIP3   OH251184   0.299   6.574   5.392 -0.0485 -0.5693 -0.5570
 9898TIP3    H151185   0.203   6.572   5.389 -0.0698 -0.4488 -0.1142
 9898TIP3    H251186   0.325   6.611   5.308 -0.3777 -0.8810 -0.8004
 9899TIP3   OH251187   3.828   0.150  10.485 -0.5197  0.4028  0.6130
 9899TIP3    H151188   3.744   0.108  10.466  0.3330 -1.6369  1.0446
 9899TIP3    H251189   3.851   0.118  10.572  1.1235  0.1875  0.1201
 9900TIP3   OH251190   5.772   4.562   4.022 -0.0155  0.2020  0.0789
 9900TIP3    H151191   5.818   4.527   3.946 -0.4476  0.9139 -0.5256
 9900TIP3    H251192   5.828   4.632   4.054 -0.3023  0.5586 -0.1903
 9901TIP3   OH251193   4.468   2.385  13.897 -0.2441  0.6520  0.5894
 9901TIP3    H151194   4.427   2.464  13.861 -0.8085  0.1930  0.2002
 9901TIP3    H251195   4.403   2.316  13.883 -0.2555  0.3416  1.9963
 9902TIP3   OH251196   6.060   2.152  12.872  0.2538 -0.2212  0.0802
 9902TIP3    H151197   6.123   2.209  12.828  0.9505 -0.9455  0.1366
 9902TIP3    H251198   6.014   2.211  12.933  1.4354  0.1620  0.6278
 9903TIP3   OH251199   3.620   3.418   6.019 -0.1286  0.2963  0.2762
 9903TIP3    H151200   3.615   3.455   6.107  1.1452  0.4299  0.3038
 9903TIP3    H251201   3.633   3.324   6.032 -0.6324  0.2150  0.2183
 9904TIP3   OH251202   3.547   5.180  16.100  0.6852  0.2511  0.2752
 9904TIP3    H151203   3.600   5.141  16.030 -0.9020  0.9428 -1.3802
 9904TIP3    H251204   3.488   5.240  16.055  0.1446  1.3327  2.3191
 9905TIP3   OH251205   3.033   0.678   0.814 -0.1695  0.4795 -0.0525
 9905TIP3    H151206   3.119   0.659   0.776 -0.9114  0.1399 -1.6320
 9905TIP3    H251207   2.973   0.619   0.768 -1.0784 -0.3077  2.0009
 9906TIP3   OH251208   5.418   3.915   4.769  0.2212 -0.1520 -0.3366
 9906TIP3    H151209   5.426   3.850   4.839 -0.6815  0.3559  0.2711
 9906TIP3    H251210   5.369   3.987   4.810 -0.3399  0.1477 -1.5064
 9907TIP3   OH251211   4.782   1.081  11.915 -0.1300 -0.0825  0.2975
 9907TIP3    H151212   4.804   1.131  11.836  0.4988 -0.8654 -0.0382
 9907TIP3    H251213   4.829   1.126  11.985 -1.3465  1.1158  0.3909
 9908TIP3   OH251214   2.950   0.246  10.645 -0.8136  0.1875  0.4746
 9908TIP3    H151215   2.950   0.305  10.570 -1.4937 -0.4056 -0.0156
 9908TIP3    H251216   2.858   0.244  10.673 -1.0168 -1.4849 -0.2236
 9909TIP3   OH251217   5.839   6.789  12.019 -0.3051  0.3601 -0.2983
 9909TIP3    H151218   5.885   6.717  11.977 -0.3171  0.2999 -0.2090
 9909TIP3    H251219   5.846   6.862  11.957 -0.2380  0.3007 -0.3608
 9910TIP3   OH251220   3.949   3.611  14.359 -0.0810  0.1117  0.1646
 9910TIP3    H151221   3.865   3.638  14.397 -1.2097 -2.1458 -0.5921
 9910TIP3    H251222   4.008   3.607  14.434 -0.2728  2.7627  0.5739
 9911TIP3   OH251223   0.154   5.194  15.567 -0.1423 -0.1524 -0.2184
 9911TIP3    H151224   0.224   5.241  15.612  0.5837  0.8191 -2.2148
 9911TIP3    H251225   0.156   5.106  15.604  1.3272  0.2065  0.6292
 9912TIP3   OH251226   3.013   3.754  12.799  0.2959  0.3804 -0.2033
 9912TIP3    H151227   3.107   3.757  12.778  0.4640  1.5122  0.6325
 9912TIP3    H251228   2.979   3.838  12.769  0.0297  0.9422  1.5790
 9913TIP3   OH251229   6.340   3.074   0.595  0.0597 -0.3252 -0.1623
 9913TIP3    H151230   6.249   3.073   0.626 -0.4548 -0.4067 -1.5730
 9913TIP3    H251231   6.332   3.088   0.500  1.6484  4.3920  0.1308
 9914TIP3   OH251232   4.645   3.601  13.321  0.3016 -0.0615  0.3500
 9914TIP3    H151233   4.719   3.637  13.271 -2.7752  1.9439 -3.2625
 9914TIP3    H251234   4.623   3.668  13.385 -0.3438  0.8838 -0.8217
 9915TIP3   OH251235   6.629   2.727  13.813 -0.3630 -0.2594 -0.5300
 9915TIP3    H151236   6.558   2.666  13.792 -0.5578 -0.6232  1.0330
 9915TIP3    H251237   6.585   2.799  13.859  0.1350  0.0384 -0.5187
 9916TIP3   OH251238   1.335   4.518   2.380  0.4252  0.1921 -0.5025
 9916TIP3    H151239   1.277   4.591   2.359 -0.4829 -0.4139 -0.1246
 9916TIP3    H251240   1.303   4.445   2.328  1.2519  0.0151 -0.7827
 9917TIP3   OH251241   4.455   2.129   3.510 -0.0148 -0.0760  0.2645
 9917TIP3    H151242   4.404   2.062   3.463  1.2318 -2.5171  2.1357
 9917TIP3    H251243   4.517   2.161   3.445  0.4037 -1.9672 -0.3515
 9918TIP3   OH251244   0.477   3.697   5.707 -0.0428  0.1540 -0.1638
 9918TIP3    H151245   0.516   3.777   5.672 -0.0705 -1.0230 -3.1782
 9918TIP3    H251246   0.384   3.704   5.683 -0.1296 -0.5753 -0.0561
 9919TIP3   OH251247   4.239   5.703  11.461 -0.0715 -0.4509 -0.4939
 9919TIP3    H151248   4.244   5.695  11.556  0.4645  4.3293  0.1476
 9919TIP3    H251249   4.146   5.716  11.443 -0.1150 -0.8576 -0.5659
 9920TIP3   OH251250   5.148   0.921   6.032  0.1555  0.0004  0.8008
 9920TIP3    H151251   5.214   0.858   6.057 -1.8529 -1.3307  3.1582
 9920TIP3    H251252   5.143   0.913   5.936  1.1507 -2.1819  0.8696
 9921TIP3   OH251253   6.007   1.844  14.023  0.6148  0.1023  0.0618
 9921TIP3    H151254   6.033   1.922  13.974 -0.4036 -0.6879 -1.8410
 9921TIP3    H251255   6.078   1.782  14.008  0.5474  0.0343  0.0234
 9922TIP3   OH251256   0.859   4.222   4.055 -0.1816  0.7153 -0.2388
 9922TIP3    H151257   0.800   4.226   3.980  0.4955  1.4387 -0.7492
 9922TIP3    H251258   0.886   4.313   4.069 -0.9780  0.7283  1.4475
 9923TIP3   OH251259   4.957   0.608   5.573  0.4485 -0.0759  0.2433
 9923TIP3    H151260   4.970   0.653   5.490  0.7437  0.0748  0.3666
 9923TIP3    H251261   4.980   0.517   5.555 -1.0857 -0.3821 -0.2479
 9924TIP3   OH251262   2.765   3.796  12.052 -0.3736  0.0710 -0.4399
 9924TIP3    H151263   2.844   3.796  12.106 -0.3434  1.2242 -0.4507
 9924TIP3    H251264   2.703   3.852  12.100 -1.6749 -1.8554  0.2183
 9925TIP3   OH251265   3.577   1.833  14.401 -0.4546  0.2988 -0.1157
 9925TIP3    H151266   3.618   1.882  14.472  0.6603  0.6705 -1.0034
 9925TIP3    H251267   3.633   1.757  14.388 -0.6098  0.2707 -0.6516
 9926TIP3   OH251268   1.816   4.817  14.785  0.2978  0.1833 -0.1126
 9926TIP3    H151269   1.825   4.803  14.691 -0.2033  2.9843 -0.6477
 9926TIP3    H251270   1.744   4.759  14.810  0.6432 -0.8360 -1.3715
 9927TIP3   OH251271   5.648   3.970  14.871  0.0680  0.0356 -0.3903
 9927TIP3    H151272   5.620   3.928  14.789 -0.1923  0.6851 -0.6442
 9927TIP3    H251273   5.602   4.054  14.871  0.8436  0.4693 -0.0588
 9928TIP3   OH251274   0.682   4.252   0.680  0.1637 -0.0918 -0.6886
 9928TIP3    H151275   0.725   4.291   0.756 -0.1158  0.3746 -0.7623
 9928TIP3    H251276   0.752   4.206   0.633  0.6345  0.8512 -0.9315
 9929TIP3   OH251277   3.209   6.371  16.716 -0.1856  0.0410  0.1618
 9929TIP3    H151278   3.295   6.331  16.727  0.3474  0.9208 -0.5920
 9929TIP3    H251279   3.191   6.363  16.622 -0.8453  0.0387  0.2818
 9930TIP3   OH251280   1.564   6.289  16.343  0.2698  0.1355  0.5638
 9930TIP3    H151281   1.660   6.286  16.336  0.2538 -2.6328  0.7093
 9930TIP3    H251282   1.541   6.212  16.394 -2.0945  0.5716  0.2548
 9931TIP3   OH251283   0.818   6.655   6.339  0.7831  0.2053 -0.3327
 9931TIP3    H151284   0.796   6.730   6.284  1.5108  0.0173 -0.8961
 9931TIP3    H251285   0.902   6.623   6.304  1.2607  0.0733  0.8688
 9932TIP3   OH251286   0.571   1.212  10.983  0.1117  0.0934  0.0054
 9932TIP3    H151287   0.657   1.194  11.021  0.2520  2.1704  0.7966
 9932TIP3    H251288   0.590   1.251  10.897 -0.1256 -1.3440 -0.7292
 9933TIP3   OH251289   4.811   4.104   1.076 -0.4382  0.0006  0.0503
 9933TIP3    H151290   4.752   4.090   1.002 -0.9547 -1.3300  0.6797
 9933TIP3    H251291   4.781   4.042   1.143  2.8229 -2.1345 -0.2669
 9934TIP3   OH251292   6.438   2.347  14.269 -0.3013 -0.0910  0.1451
 9934TIP3    H151293   6.459   2.435  14.236 -0.5735  0.4946  1.4624
 9934TIP3    H251294   6.345   2.352  14.292 -0.1466 -0.4966  0.8873
 9935TIP3   OH251295   5.798   6.483  17.175 -0.4046 -0.4669 -0.1040
 9935TIP3    H151296   5.849   6.536  17.235 -0.7350  0.7542 -0.8511
 9935TIP3    H251297   5.851   6.479  17.095 -0.5802 -0.8914 -0.2016
 9936TIP3   OH251298   5.975   1.964   0.635 -0.5937 -1.0791  0.0676
 9936TIP3    H151299   5.895   2.011   0.660 -0.1373  0.1456 -0.6813
 9936TIP3    H251300   5.945   1.876   0.611 -1.7262 -0.6414 -0.1717
 9937TIP3   OH251301   5.117   5.615   3.111  0.2076 -0.0514  0.4917
 9937TIP3    H151302   5.183   5.676   3.144 -0.2458  0.8288 -0.1767
 9937TIP3    H251303   5.105   5.552   3.182  1.2324  0.1909  0.9075
 9938TIP3   OH251304   0.419   5.677  17.007 -0.1402 -0.0970 -1.0039
 9938TIP3    H151305   0.445   5.669  16.915 -1.1310  1.0007 -1.4118
 9938TIP3    H251306   0.496   5.652  17.057  1.3732  2.0275 -2.1362
 9939TIP3   OH251307   2.338   4.976  16.756  0.6216  0.9531 -0.3195
 9939TIP3    H151308   2.247   5.002  16.740 -0.2268 -0.8156  1.3541
 9939TIP3    H251309   2.348   4.894  16.709  2.0441  2.1182 -2.1936
 9940TIP3   OH251310   0.957   3.286   4.451  0.3589  0.4667 -0.4539
 9940TIP3    H151311   0.962   3.381   4.435 -0.2053  0.6968  0.6066
 9940TIP3    H251312   0.871   3.261   4.418 -1.8028  1.3642  3.8152
 9941TIP3   OH251313   1.865   2.267   2.018  0.3239 -0.9024 -0.6274
 9941TIP3    H151314   1.811   2.252   1.941 -0.6738 -0.4559 -0.0348
 9941TIP3    H251315   1.937   2.323   1.987 -1.5605  1.6774 -0.7306
 9942TIP3   OH251316   1.954   0.547  11.381 -1.0629 -0.2284 -0.6259
 9942TIP3    H151317   1.948   0.452  11.380 -1.3357 -0.2100 -1.5486
 9942TIP3    H251318   1.997   0.569  11.299  1.8633  0.2873  0.8819
 9943TIP3   OH251319   1.486   2.107  15.963  0.0142  0.3033 -0.1831
 9943TIP3    H151320   1.432   2.078  16.036 -1.4876 -1.4824 -1.9308
 9943TIP3    H251321   1.439   2.182  15.927 -1.6674 -1.5429 -2.0001
 9944TIP3   OH251322   3.502   5.162   5.562 -0.5576 -0.0661  0.2746
 9944TIP3    H151323   3.565   5.098   5.530 -0.7277 -0.2024  0.2122
 9944TIP3    H251324   3.438   5.169   5.492 -0.6336  0.0436  0.3556
 9945TIP3   OH251325   0.109   2.409   5.497  0.2359  0.5169 -0.1363
 9945TIP3    H151326   0.165   2.467   5.446  0.2905 -0.4554 -1.2162
 9945TIP3    H251327   0.026   2.407   5.450  0.5126 -0.9460 -0.6370
 9946TIP3   OH251328   2.935   6.544  13.298  0.1132 -0.0851 -0.9199
 9946TIP3    H151329   2.934   6.466  13.243  0.3188 -0.4990 -0.3473
 9946TIP3    H251330   3.005   6.528  13.361 -1.5133 -0.6309  0.8674
 9947TIP3   OH251331   3.849   5.147  13.580 -0.1384 -0.1764 -0.2391
 9947TIP3    H151332   3.756   5.132  13.595 -0.0096  0.2852  1.1475
 9947TIP3    H251333   3.853   5.183  13.492 -1.4583  1.3409  0.2640
 9948TIP3   OH251334   3.080   1.353  16.338  0.6989 -0.0007  0.1262
 9948TIP3    H151335   3.040   1.283  16.285 -0.6995 -0.9155  2.2543
 9948TIP3    H251336   3.092   1.313  16.424  1.3506  1.9182  0.9698
 9949TIP3   OH251337   4.165   0.456   4.151  0.5002  0.5652 -0.0903
 9949TIP3    H151338   4.205   0.373   4.176 -4.3447 -1.5937  1.9684
 9949TIP3    H251339   4.183   0.514   4.225  0.7214  0.0083  0.3061
 9950TIP3   OH251340   3.553   5.994   4.909  0.0379  0.0199 -0.0947
 9950TIP3    H151341   3.508   6.066   4.953 -1.9118 -0.8109 -0.5743
 9950TIP3    H251342   3.614   6.036   4.849 -1.1761  1.3035 -0.4942
 9951TIP3   OH251343   0.140   2.114   2.431  0.3960 -0.0796  0.4940
 9951TIP3    H151344   0.058   2.066   2.446 -0.1434  0.1542 -1.3620
 9951TIP3    H251345   0.131   2.194   2.481 -1.0514  0.4612 -0.5452
 9952TIP3   OH251346   4.757   3.758   1.031  0.0513  0.3436  0.2422
 9952TIP3    H151347   4.741   3.795   1.117  0.0811 -0.4999  0.6274
 9952TIP3    H251348   4.759   3.833   0.971 -0.9914  0.8583  0.8216
 9953TIP3   OH251349   1.250   2.210   5.494  0.0045 -0.0903 -0.4119
 9953TIP3    H151350   1.196   2.195   5.416 -0.7559  0.9903 -0.1153
 9953TIP3    H251351   1.196   2.179   5.567  0.4051 -0.3977 -0.2457
 9954TIP3   OH251352   5.972   0.332   6.602 -0.1400 -0.3896 -0.6272
 9954TIP3    H151353   5.933   0.314   6.687  0.5142 -1.6691 -0.5778
 9954TIP3    H251354   5.900   0.367   6.549 -0.6878 -0.1456  0.2588
 9955TIP3   OH251355   1.232   1.979   0.749  0.3190  0.3308 -0.6229
 9955TIP3    H151356   1.159   2.037   0.767  0.9464  1.1681 -0.6940
 9955TIP3    H251357   1.193   1.892   0.740 -0.5022  0.5503  0.6180
 9956TIP3   OH251358   1.680   0.045   4.021 -0.4279  0.7718 -0.3268
 9956TIP3    H151359   1.761   0.085   4.053 -0.8061  2.7345 -1.6161
 9956TIP3    H251360   1.698  -0.049   4.018  1.1998  0.9965  1.0116
 9957TIP3   OH251361   5.447   1.252   1.090 -0.3042 -0.5964  0.1687
 9957TIP3    H151362   5.530   1.256   1.138 -0.3370  1.0361  0.1358
 9957TIP3    H251363   5.438   1.160   1.066  2.6671 -0.5002 -1.8288
 9958TIP3   OH251364   0.368   4.043  12.429 -0.4258 -0.1429  0.5254
 9958TIP3    H151365   0.458   4.033  12.459 -0.6291 -1.1555  0.8400
 9958TIP3    H251366   0.375   4.048  12.334  0.1333  2.0081  0.6311
 9959TIP3   OH251367   6.795   4.031  15.572 -0.7897  0.6261 -0.2007
 9959TIP3    H151368   6.819   4.002  15.485  0.4314  1.5582 -0.1902
 9959TIP3    H251369   6.719   3.977  15.595 -0.5674 -0.2525 -1.4596
 9960TIP3   OH251370   3.265   0.040   0.483 -0.2687 -0.1361 -0.0566
 9960TIP3    H151371   3.323   0.036   0.559  1.6388  1.2734 -1.3552
 9960TIP3    H251372   3.215   0.120   0.495  0.5740  0.4919 -0.6105
 9961TIP3   OH251373   2.201   1.729  14.102 -0.4315  0.2509  0.4243
 9961TIP3    H151374   2.293   1.704  14.110  0.2573  2.4314 -0.2255
 9961TIP3    H251375   2.171   1.739  14.193  0.9139  2.5981  0.6914
 9962TIP3   OH251376   2.124   0.037  13.208 -0.0351  0.6757  0.0689
 9962TIP3    H151377   2.078   0.021  13.126 -0.1964 -1.2053  0.4752
 9962TIP3    H251378   2.058   0.078  13.264  0.1878  2.3200 -0.8267
 9963TIP3   OH251379   3.242   1.273  16.856 -0.6909 -0.2516 -0.6690
 9963TIP3    H151380   3.183   1.212  16.899  0.1580 -0.8311 -0.2923
 9963TIP3    H251381   3.286   1.221  16.788 -0.1093 -0.0216 -0.4810
 9964TIP3   OH251382   3.097   5.404   5.752 -0.0005  0.1797  0.1030
 9964TIP3    H151383   3.101   5.487   5.800 -2.0677  0.6950 -0.5375
 9964TIP3    H251384   3.152   5.344   5.803  0.1003  1.4537  1.5515
 9965TIP3   OH251385   2.942   0.314  14.355 -0.0022  0.2260  0.6187
 9965TIP3    H151386   2.974   0.378  14.292  0.5607  0.1253  0.7943
 9965TIP3    H251387   2.853   0.294  14.326  0.8037 -1.0792 -1.1354
 9966TIP3   OH251388   6.420   0.545  11.413 -0.6610 -0.1555 -0.6049
 9966TIP3    H151389   6.439   0.527  11.321 -0.1020  0.8024 -0.6886
 9966TIP3    H251390   6.420   0.640  11.419  1.8974 -0.1664  0.8931
 9967TIP3   OH251391   4.695   4.178  15.305  0.6751 -0.8354  0.2039
 9967TIP3    H151392   4.681   4.086  15.327 -1.7456 -1.1087 -1.9035
 9967TIP3    H251393   4.755   4.175  15.230 -2.1694 -1.1557 -2.2713
 9968TIP3   OH251394   2.622   3.676   4.467 -0.2360  0.2109 -0.5119
 9968TIP3    H151395   2.635   3.631   4.383 -0.0012  1.0789 -0.9554
 9968TIP3    H251396   2.599   3.765   4.442 -1.3352  0.1778  0.3491
 9969TIP3   OH251397   2.319   1.763  14.765 -0.7515 -0.4032  0.3986
 9969TIP3    H151398   2.277   1.844  14.737 -0.3589  0.4807  2.1976
 9969TIP3    H251399   2.318   1.768  14.861  0.7799 -1.7437  0.5188
 9970TIP3   OH251400   1.318   3.906  14.030  0.1058 -0.3124  0.1368
 9970TIP3    H151401   1.312   3.951  13.946  0.2391 -1.6189 -0.5940
 9970TIP3    H251402   1.227   3.882  14.050  0.0403  0.2165  0.5067
 9971TIP3   OH251403   1.523   4.514   4.217  0.3283  0.3728 -0.1334
 9971TIP3    H151404   1.540   4.573   4.290 -0.5457 -0.1058  0.4704
 9971TIP3    H251405   1.436   4.539   4.186  0.4455  0.1748 -0.6312
 9972TIP3   OH251406   3.426   3.945  14.165  0.3213  0.0426  0.0607
 9972TIP3    H151407   3.468   4.008  14.106  2.4005 -1.2252  0.0847
 9972TIP3    H251408   3.346   3.919  14.120  0.2894  1.4230 -0.7279
 9973TIP3   OH251409   3.767   4.864   4.003 -0.3006 -0.0970  0.8551
 9973TIP3    H151410   3.846   4.851   3.950 -1.3532  0.8963 -1.0805
 9973TIP3    H251411   3.724   4.778   4.002 -0.8090  0.1244 -0.8697
 9974TIP3   OH251412   3.730   4.441  10.775 -0.2692 -0.1165 -0.0510
 9974TIP3    H151413   3.712   4.349  10.760 -1.5252  0.3421 -1.6361
 9974TIP3    H251414   3.825   4.449  10.766  0.1463 -1.5481  2.1797
 9975TIP3   OH251415   6.437   3.507   3.303  0.1108 -0.4226  0.8835
 9975TIP3    H151416   6.396   3.514   3.217  1.0585 -0.2766  0.4259
 9975TIP3    H251417   6.471   3.595   3.320  0.8901 -0.7259  0.9052
 9976TIP3   OH251418   1.270   6.680   5.201 -0.2390 -0.0088 -0.2069
 9976TIP3    H151419   1.194   6.723   5.238 -0.6330  0.6479 -1.7117
 9976TIP3    H251420   1.247   6.664   5.109  0.9753 -0.8873 -0.3891
 9977TIP3   OH251421   3.217   1.343   4.627  0.7606 -0.1963 -0.1997
 9977TIP3    H151422   3.268   1.272   4.589  1.7366 -0.3017  1.2537
 9977TIP3    H251423   3.280   1.395   4.675 -0.3368  0.2678  0.7817
 9978TIP3   OH251424   2.923   2.921   2.971 -0.0688 -0.2195  0.1298
 9978TIP3    H151425   2.854   2.930   2.906 -1.9653  0.0148  2.0694
 9978TIP3    H251426   2.968   2.840   2.947  0.3368  0.6540 -2.3305
 9979TIP3   OH251427   0.631   0.860   6.271  0.0505  0.4043  0.1744
 9979TIP3    H151428   0.667   0.931   6.217  1.1255  0.1528  0.5502
 9979TIP3    H251429   0.706   0.807   6.295 -0.7576 -0.9500 -0.1926
 9980TIP3   OH251430   3.552   4.061  15.929 -0.2480 -0.1689  0.5146
 9980TIP3    H151431   3.470   4.023  15.898 -0.2934  0.1287  0.2584
 9980TIP3    H251432   3.563   4.140  15.877  1.0503 -1.0643 -0.6619
 9981TIP3   OH251433   2.214   3.378   0.799 -0.1801 -0.5809 -0.6499
 9981TIP3    H151434   2.143   3.373   0.735  0.6952 -0.9931 -1.6177
 9981TIP3    H251435   2.263   3.456   0.774 -0.9471  0.3976  0.7541
 9982TIP3   OH251436   0.393   5.882  15.851 -0.0809 -0.1048  0.0986
 9982TIP3    H151437   0.319   5.929  15.812 -0.7452 -0.5869  0.7592
 9982TIP3    H251438   0.390   5.905  15.944  0.2258 -0.6126  0.2361
 9983TIP3   OH251439   4.680   0.791   3.001 -0.6068  0.2201  0.2326
 9983TIP3    H151440   4.761   0.748   2.973  0.3668  0.8821  1.8655
 9983TIP3    H251441   4.671   0.865   2.942 -0.3844 -0.2183 -0.3697
 9984TIP3   OH251442   6.119   5.455   4.517 -0.0738 -0.2638  0.2652
 9984TIP3    H151443   6.118   5.395   4.443  0.4044 -0.4572  0.4118
 9984TIP3    H251444   6.033   5.497   4.516 -0.2010 -0.5377 -0.1747
 9985TIP3   OH251445   6.690   4.067  13.323 -0.1899  0.2456 -0.3143
 9985TIP3    H151446   6.711   3.981  13.285 -0.7796  0.4661 -1.1634
 9985TIP3    H251447   6.764   4.122  13.299  0.4815 -0.1656  0.7517
 9986TIP3   OH251448   1.592   2.803   4.317 -0.3399  0.4565 -0.0561
 9986TIP3    H151449   1.642   2.885   4.313 -1.0598  0.9093  0.0756
 9986TIP3    H251450   1.501   2.830   4.322 -0.6609 -0.3797 -1.0930
 9987TIP3   OH251451   5.126   1.727  12.780  0.2881 -0.0302 -0.3954
 9987TIP3    H151452   5.080   1.694  12.702 -0.6090 -0.3554  0.2614
 9987TIP3    H251453   5.081   1.687  12.854  0.7277  0.7750  0.3293
 9988TIP3   OH251454   2.398   1.399  16.906 -0.2767  0.3719  0.8030
 9988TIP3    H151455   2.353   1.383  16.989  1.4201 -0.1380  1.6807
 9988TIP3    H251456   2.446   1.481  16.921 -1.7343  1.5526 -0.5176
 9989TIP3   OH251457   1.750   3.279  11.237  0.3225 -0.5043  0.4002
 9989TIP3    H151458   1.729   3.265  11.145  2.0461  0.4038 -0.1799
 9989TIP3    H251459   1.842   3.306  11.237  0.7439 -1.6670  2.4990
 9990TIP3   OH251460   3.165   2.189  13.100 -0.0863 -0.2067 -0.4407
 9990TIP3    H151461   3.250   2.154  13.127  0.4495  0.5369 -1.1127
 9990TIP3    H251462   3.104   2.159  13.167  0.7006 -0.7894  0.0266
 9991TIP3   OH251463   3.254   1.584  16.651  0.0677  0.1633  0.8247
 9991TIP3    H151464   3.229   1.659  16.597 -0.7323  0.0402  1.0122
 9991TIP3    H251465   3.319   1.536  16.598 -0.0364  0.5328  0.3598
 9992TIP3   OH251466   1.951   0.760   3.630  0.2046 -0.0125  0.4923
 9992TIP3    H151467   1.997   0.775   3.547 -1.1154 -1.4491 -0.5631
 9992TIP3    H251468   1.869   0.810   3.621  0.2510  0.1845  1.1273
 9993TIP3   OH251469   0.120   4.875   2.683  0.2178 -0.2299 -0.2556
 9993TIP3    H151470   0.177   4.944   2.718  0.0345 -0.0609 -0.2835
 9993TIP3    H251471   0.140   4.798   2.735 -1.1040  0.3854  1.2554
 9994TIP3   OH251472   5.460   1.546   2.686  0.3409  0.1173 -0.6298
 9994TIP3    H151473   5.427   1.478   2.628 -0.6240 -0.0491  0.0949
 9994TIP3    H251474   5.382   1.585   2.724  0.9478  0.3600  0.4042
 9995TIP3   OH251475   2.713   2.787  14.610  0.0429  0.1745  0.3955
 9995TIP3    H151476   2.700   2.693  14.599 -1.4739  0.2493  1.2938
 9995TIP3    H251477   2.716   2.800  14.705  1.1659  0.9412  0.2830
 9996TIP3   OH251478   3.509   6.475   6.290 -0.6295 -0.0082  0.3119
 9996TIP3    H151479   3.503   6.564   6.327  1.7370 -0.0799  1.0321
 9996TIP3    H251480   3.463   6.420   6.353  1.7642  0.1422  2.3315
 9997TIP3   OH251481   1.066   2.737   5.671  0.2354  0.1408  0.2102
 9997TIP3    H151482   1.002   2.704   5.734 -0.6789 -0.0144 -0.7623
 9997TIP3    H251483   1.031   2.710   5.586  0.4685  1.9467 -0.4882
 9998TIP3   OH251484   0.439   5.973  15.058  0.0688 -0.1220  0.0964
 9998TIP3    H151485   0.406   6.026  14.986 -1.9800  0.3637  1.3124
 9998TIP3    H251486   0.448   5.885  15.022  0.6781  0.4365 -1.1616
 9999TIP3   OH251487   3.203   3.481   0.126  0.1853 -0.1725  0.2203
 9999TIP3    H151488   3.185   3.568   0.161  4.1447  1.0505 -0.2078
 9999TIP3    H251489   3.281   3.452   0.174 -1.2648 -3.8328  0.7201
10000TIP3   OH251490   6.251   2.938  12.115 -0.0414  0.2902 -0.6288
10000TIP3    H151491   6.346   2.947  12.125 -0.1142 -0.0329  0.4973
10000TIP3    H251492   6.224   3.019  12.071  0.7261  0.4868 -0.7583
10001TIP3   OH251493   0.153   6.467  16.694  0.1925  0.1383  0.6376
10001TIP3    H151494   0.083   6.410  16.725  0.2596  0.5591  1.6159
10001TIP3    H251495   0.227   6.447  16.752  1.2662 -1.1119 -1.0748
10002TIP3   OH251496   5.734   2.456   3.185 -0.3496  0.0133  0.0819
10002TIP3    H151497   5.677   2.381   3.171 -1.3911  0.6547  0.6896
10002TIP3    H251498   5.685   2.530   3.148 -0.3217  0.7134  1.4002
10003TIP3   OH251499   1.949   6.008   4.921 -0.3495  0.1883 -0.9697
10003TIP3    H151500   1.883   6.061   4.967  0.9218  0.4044  0.7431
10003TIP3    H251501   1.980   6.065   4.851  0.4125  1.4725  0.3406
10004TIP3   OH251502   5.300   0.132   1.875 -0.4170  0.0342 -0.0786
10004TIP3    H151503   5.304   0.198   1.805 -2.0943  0.4829  0.2122
10004TIP3    H251504   5.298   0.183   1.956 -3.5794 -0.2043  0.1078
10005TIP3   OH251505   3.470   6.080  10.406  0.3050  0.0117 -0.6693
10005TIP3    H151506   3.555   6.072  10.362  0.6848 -1.8158  0.3053
10005TIP3    H251507   3.467   6.171  10.436  0.6464  0.9132 -3.1605
10006TIP3   OH251508   0.761   6.083   3.030 -0.1231  0.6550 -0.2672
10006TIP3    H151509   0.782   6.020   2.960  2.5681  0.7242  0.3705
10006TIP3    H251510   0.719   6.030   3.097  1.8978 -0.5268  0.1694
10007TIP3   OH251511   4.347   5.646   0.571  0.2899  0.7223  0.4909
10007TIP3    H151512   4.374   5.569   0.520 -0.2808  1.4012 -0.8857
10007TIP3    H251513   4.263   5.621   0.608  0.1346  0.6529  0.0982
10008TIP3   OH251514   3.110   5.706   2.978  0.1397 -0.1303 -0.0586
10008TIP3    H151515   3.081   5.787   3.020 -1.4125 -0.2355 -0.8576
10008TIP3    H251516   3.196   5.689   3.016  1.7255  3.2732 -1.6680
10009TIP3   OH251517   2.986   4.656  12.525 -0.7468  0.7076  0.2764
10009TIP3    H151518   3.037   4.578  12.502 -2.7986  0.1644 -3.1304
10009TIP3    H251519   2.921   4.625  12.588 -0.8054 -0.0741 -0.1574
10010TIP3   OH251520   2.502   2.461   3.751  0.2245  0.0236  0.0263
10010TIP3    H151521   2.467   2.524   3.688 -3.9233 -0.7372  1.2623
10010TIP3    H251522   2.526   2.385   3.698  1.1299  0.9867 -1.0091
10011TIP3   OH251523   6.625   6.822  15.857  0.0602  0.0073 -0.0866
10011TIP3    H151524   6.577   6.889  15.906 -0.7387  0.0812 -0.9313
10011TIP3    H251525   6.637   6.751  15.920 -1.0167  0.0640  0.2064
10012TIP3   OH251526   1.090   5.733  15.657 -0.1536 -0.1862 -0.0632
10012TIP3    H151527   1.145   5.804  15.692 -0.5280  0.0356  0.0763
10012TIP3    H251528   1.071   5.678  15.733 -0.8908  0.2463  0.0789
10013TIP3   OH251529   2.056   6.403   4.555 -0.4569 -0.2018 -0.6063
10013TIP3    H151530   2.063   6.377   4.463  0.6845  0.1841 -0.6418
10013TIP3    H251531   2.091   6.492   4.557 -1.3785  0.1660  0.0457
10014TIP3   OH251532   6.810   2.829  16.382  0.2503 -0.4032 -0.1245
10014TIP3    H151533   6.882   2.772  16.408  0.9307  1.2555  1.8944
10014TIP3    H251534   6.737   2.803  16.439 -0.1702 -0.7461 -0.7963
10015TIP3   OH251535   5.048   4.875  12.428  0.5314 -0.6845 -0.1795
10015TIP3    H151536   4.975   4.817  12.449 -0.0968  0.7295  1.8278
10015TIP3    H251537   5.031   4.902  12.337 -1.6161 -0.2038  0.3074
10016TIP3   OH251538   2.550   5.433   3.495 -0.0443 -0.0748  0.1342
10016TIP3    H151539   2.614   5.468   3.432  0.1864  0.0299  0.4260
10016TIP3    H251540   2.580   5.464   3.580 -0.1820 -0.4743  0.3327
10017TIP3   OH251541   3.874   2.367   2.513  0.1072  0.2553 -0.0445
10017TIP3    H151542   3.878   2.356   2.418 -1.0395  1.2734 -0.2294
10017TIP3    H251543   3.902   2.457   2.529 -0.4221  0.3281  0.5158
10018TIP3   OH251544   5.357   4.815  12.700  0.6676  0.7016 -0.3811
10018TIP3    H151545   5.401   4.731  12.711  1.0562  1.1316  1.9001
10018TIP3    H251546   5.429   4.879  12.699  0.3516  1.0493 -1.6920
10019TIP3   OH251547   1.481   0.102  11.566  0.2045  0.4168 -0.2842
10019TIP3    H151548   1.541   0.108  11.492  1.2771  0.2883  0.5496
10019TIP3    H251549   1.538   0.086  11.642 -1.0611 -3.0917  0.1318
10020TIP3   OH251550   4.010   6.002  13.169 -0.7201 -0.1205  0.2424
10020TIP3    H151551   4.026   6.056  13.092 -1.8778  0.1754  0.1832
10020TIP3    H251552   3.950   6.054  13.222 -1.6482 -1.2233  0.3099
10021TIP3   OH251553   6.130   4.702   4.831 -0.2174 -0.3102 -0.1021
10021TIP3    H151554   6.098   4.728   4.918 -0.1835 -1.2376  0.1955
10021TIP3    H251555   6.101   4.612   4.821 -0.4116 -0.1385 -1.1621
10022TIP3   OH251556   5.034   2.403  14.033 -0.0436 -0.8630 -0.6301
10022TIP3    H151557   5.050   2.444  13.948  0.7089  0.8484  0.2810
10022TIP3    H251558   5.076   2.317  14.027 -0.0185 -0.7692 -1.9873
10023TIP3   OH251559   5.454   1.272  13.664  0.2177 -0.1131  0.1176
10023TIP3    H151560   5.537   1.294  13.623  0.4439 -0.6615  0.2679
10023TIP3    H251561   5.460   1.307  13.753  0.5383 -0.6848  0.3261
10024TIP3   OH251562   4.480   3.377  16.796  0.1530 -0.4533 -0.5257
10024TIP3    H151563   4.575   3.383  16.787  0.3826 -0.3417  1.6168
10024TIP3    H251564   4.446   3.437  16.729  1.6754  1.5648  0.3997
10025TIP3   OH251565   0.803   0.648  12.365 -0.4264 -0.9261 -0.4935
10025TIP3    H151566   0.860   0.571  12.359  0.4157 -0.5321  1.4344
10025TIP3    H251567   0.716   0.615  12.346  0.3810 -1.5292 -3.6798
10026TIP3   OH251568   5.122   5.149   0.332 -0.2361  0.0391 -0.0491
10026TIP3    H151569   5.047   5.202   0.305  0.0763  0.4158 -0.1845
10026TIP3    H251570   5.196   5.187   0.285  0.4699  1.2278  1.8918
10027TIP3   OH251571   2.971   0.070   3.492 -0.2337 -0.2846  0.2054
10027TIP3    H151572   2.938   0.027   3.413  0.7065 -0.3150 -0.1754
10027TIP3    H251573   2.989  -0.002   3.553  0.5340 -0.3846 -0.1272
10028TIP3   OH251574   4.079   1.634   4.265  0.3267  0.0237 -0.5735
10028TIP3    H151575   4.016   1.603   4.200 -0.4331  0.9953 -0.3205
10028TIP3    H251576   4.086   1.728   4.248 -1.0425  0.6057  1.7081
10029TIP3   OH251577   0.944   6.195  11.550 -0.0956  0.1616  0.6165
10029TIP3    H151578   1.027   6.236  11.525  1.5939 -1.8784  2.4614
10029TIP3    H251579   0.881   6.228  11.487  2.4561  0.4619 -1.9657
10030TIP3   OH251580   4.497   1.968   4.156  0.3200 -0.2105 -0.0576
10030TIP3    H151581   4.516   1.875   4.169 -1.7415 -0.5216  1.3309
10030TIP3    H251582   4.465   1.998   4.242 -0.9334  1.2569 -0.9759
10031TIP3   OH251583   3.659   3.827  15.736 -0.4246  0.0901 -0.0470
10031TIP3    H151584   3.597   3.766  15.775 -2.1735  1.7589 -0.0594
10031TIP3    H251585   3.683   3.886  15.808 -2.0482  1.9173 -0.9226
10032TIP3   OH251586   3.311   6.523   2.314 -0.8986 -0.5003  0.5486
10032TIP3    H151587   3.237   6.485   2.267 -1.8913  0.3473  1.3643
10032TIP3    H251588   3.317   6.612   2.280  1.6646 -1.4115 -1.6546
10033TIP3   OH251589   1.580   3.214   3.634 -0.1972  0.3884 -0.3048
10033TIP3    H151590   1.607   3.175   3.552  0.1336  0.3571 -0.1819
10033TIP3    H251591   1.617   3.158   3.702  0.3804  0.9663 -0.1262
10034TIP3   OH251592   4.775   5.675  16.037 -0.5679  0.0249 -0.4726
10034TIP3    H151593   4.684   5.646  16.037 -0.9062  1.0298  0.0837
10034TIP3    H251594   4.790   5.706  15.948 -0.6014 -0.6296 -0.7109
10035TIP3   OH251595   5.802   1.704   5.031 -0.3179 -0.4317  0.3180
10035TIP3    H151596   5.773   1.795   5.025 -1.0457 -0.4152  2.8380
10035TIP3    H251597   5.874   1.706   5.094  1.3626 -1.3095 -1.4780
10036TIP3   OH251598   4.919   2.434   3.349 -0.2245 -0.6665 -0.1815
10036TIP3    H151599   5.005   2.455   3.313  0.5849 -2.9901  0.3081
10036TIP3    H251600   4.876   2.520   3.357  0.7388  0.3188 -3.5393
10037TIP3   OH251601   2.998   0.968   3.614 -0.1051 -0.0369 -0.4602
10037TIP3    H151602   2.940   0.974   3.538 -0.4990  0.2192 -0.1375
10037TIP3    H251603   2.947   1.003   3.687  0.7281  0.9843 -0.3354
10038TIP3   OH251604   5.705   2.327   4.086  0.0056 -0.4078 -1.1124
10038TIP3    H151605   5.626   2.281   4.058  0.1979 -0.0187 -2.3225
10038TIP3    H251606   5.775   2.291   4.033  1.0195 -2.0359  1.1700
10039TIP3   OH251607   6.704   1.334   4.899  0.2811  0.0843 -0.7151
10039TIP3    H151608   6.617   1.322   4.937  1.6163 -2.6533  1.9171
10039TIP3    H251609   6.688   1.369   4.811 -3.3771  0.5821  0.0190
10040TIP3   OH251610   1.290   5.975  13.074  0.1913  0.0164 -0.2752
10040TIP3    H151611   1.198   5.999  13.061  0.0374 -0.6328 -0.4272
10040TIP3    H251612   1.301   5.893  13.025  0.7488 -0.1206  0.0611
10041TIP3   OH251613   5.364   0.149  16.329 -0.3903 -0.2519 -0.1620
10041TIP3    H151614   5.276   0.173  16.299  0.5443  1.5239 -1.7248
10041TIP3    H251615   5.420   0.163  16.253  1.0598 -3.0238  0.2690
10042TIP3   OH251616   6.473   0.686   6.155  0.1012 -0.8078 -0.0210
10042TIP3    H151617   6.407   0.619   6.171  0.2840 -0.7024  1.2947
10042TIP3    H251618   6.557   0.641   6.169  0.2086 -0.1067  1.8775
10043TIP3   OH251619   2.315   1.955   1.498 -0.2298 -0.1835 -0.2102
10043TIP3    H151620   2.386   2.020   1.505 -0.1207 -0.2969 -0.2480
10043TIP3    H251621   2.314   1.930   1.405  0.1756 -0.7275 -0.0777
10044TIP3   OH251622   2.707   2.967  11.962  0.0232  0.3225 -0.1141
10044TIP3    H151623   2.800   2.961  11.981  0.3598  0.7094 -1.4701
10044TIP3    H251624   2.663   2.950  12.045  1.2602 -1.3770  0.2358
10045TIP3   OH251625   6.473   4.851  17.196 -0.2711 -0.5747  0.4568
10045TIP3    H151626   6.558   4.863  17.155 -0.2776  0.5597  0.7521
10045TIP3    H251627   6.490   4.863  17.290 -0.9231  0.6409  0.4266
10046TIP3   OH251628   5.156   0.984  14.956  0.5732  0.0218 -0.5998
10046TIP3    H151629   5.251   0.982  14.961  0.5587  0.0203 -0.3278
10046TIP3    H251630   5.133   1.076  14.968  0.5739  0.1204 -1.3047
10047TIP3   OH251631   2.565   2.885   1.875  0.4222  0.4687  0.3777
10047TIP3    H151632   2.554   2.976   1.904  0.2177  0.1429  1.3651
10047TIP3    H251633   2.640   2.888   1.816 -0.3117  1.4782 -0.5686
10048TIP3   OH251634   1.733   6.677  15.919  0.2668  0.3147 -0.5616
10048TIP3    H151635   1.823   6.665  15.891  0.2379 -0.0122 -0.5294
10048TIP3    H251636   1.686   6.602  15.882  0.5981 -1.2408  1.9196
10049TIP3   OH251637   5.200   4.395   4.365 -0.0481  0.1733  0.5312
10049TIP3    H151638   5.108   4.424   4.368 -0.6312 -1.1853 -1.7031
10049TIP3    H251639   5.212   4.364   4.275  2.3869 -0.4286  1.0051
10050TIP3   OH251640   5.983   1.248  11.795  0.2721 -0.3339  0.1682
10050TIP3    H151641   5.919   1.224  11.728  2.1569 -0.7085 -1.5821
10050TIP3    H251642   5.979   1.176  11.858 -0.1666 -0.9592 -0.5542
10051TIP3   OH251643   5.121   6.543   2.707  0.1690  0.0044 -0.0753
10051TIP3    H151644   5.059   6.613   2.726  0.8167  0.4429  0.4822
10051TIP3    H251645   5.113   6.529   2.613 -2.0331 -1.1678  0.2193
10052TIP3   OH251646   2.361   4.507   2.047  0.1645 -0.0234 -0.1290
10052TIP3    H151647   2.296   4.577   2.042  0.4364  0.2372 -0.0306
10052TIP3    H251648   2.413   4.528   2.124  2.1430  1.3301 -1.7315
10053TIP3   OH251649   5.021   5.788  11.816  0.1991  0.0483 -0.4062
10053TIP3    H151650   4.987   5.752  11.898 -2.0403  1.5297 -0.5973
10053TIP3    H251651   5.023   5.883  11.830  1.7726  0.2102 -1.3999
10054TIP3   OH251652   1.274   2.498   2.043 -0.1536 -0.6906  0.6887
10054TIP3    H151653   1.241   2.583   2.072  0.1969 -0.6473  0.9684
10054TIP3    H251654   1.343   2.477   2.105  0.2240 -0.8628  0.2160
10055TIP3   OH251655   1.057   4.115   4.889  0.7486  0.3345  0.2711
10055TIP3    H151656   0.979   4.165   4.914  0.4198 -0.0341 -0.0197
10055TIP3    H251657   1.036   4.079   4.803  1.6599  1.1403 -0.3201
10056TIP3   OH251658   5.844   3.057  15.837 -0.8838 -0.3538 -0.5615
10056TIP3    H151659   5.834   3.028  15.928 -0.1523 -1.4824 -0.8339
10056TIP3    H251660   5.874   3.148  15.845  0.8718 -0.9800  0.3537
10057TIP3   OH251661   0.093   4.574   3.895 -0.2913  0.0496 -0.5663
10057TIP3    H151662   0.082   4.600   3.804  1.4440 -1.3346 -1.2384
10057TIP3    H251663   0.187   4.559   3.904 -0.6692 -1.9552  0.8220
10058TIP3   OH251664   4.928   2.477  17.041 -0.3095 -0.4000 -0.4525
10058TIP3    H151665   4.989   2.416  16.999  1.0596  0.4848  0.1905
10058TIP3    H251666   4.969   2.499  17.125 -1.3261  0.5414 -0.1656
10059TIP3   OH251667   3.204   0.852  12.142 -0.1482  0.0253  0.4559
10059TIP3    H151668   3.183   0.856  12.049 -0.0074  1.3604  0.4684
10059TIP3    H251669   3.248   0.935  12.161  1.4955 -0.9951  1.3224
10060TIP3   OH251670   5.787   5.635   6.314 -0.6677 -0.0199  0.0561
10060TIP3    H151671   5.877   5.630   6.282 -0.8484 -0.7818 -0.3550
10060TIP3    H251672   5.778   5.725   6.345  0.7625 -0.3721  1.6738
10061TIP3   OH251673   2.075   1.860  11.800  0.3625  0.2592 -0.5721
10061TIP3    H151674   2.027   1.792  11.847 -0.1420  0.5169 -0.7178
10061TIP3    H251675   2.057   1.845  11.708  0.9111  0.0934 -0.6567
10062TIP3   OH251676   3.959   1.356  15.171 -0.3510  0.0266 -0.7915
10062TIP3    H151677   3.919   1.361  15.085 -1.9118 -1.5115 -0.2137
10062TIP3    H251678   4.004   1.271  15.172  0.2543  0.3438 -0.3293
10063TIP3   OH251679   5.424   0.470   4.994  0.3602  0.0033 -0.4204
10063TIP3    H151680   5.450   0.562   4.996  1.9188 -0.3975 -1.1075
10063TIP3    H251681   5.404   0.452   4.902  0.6789 -0.4997 -0.3955
10064TIP3   OH251682   2.694   1.466   2.310  0.3411  0.0656 -0.0163
10064TIP3    H151683   2.649   1.388   2.344  2.2008 -1.3851 -0.7332
10064TIP3    H251684   2.659   1.538   2.363 -0.8372 -1.3509  1.2342
10065TIP3   OH251685   4.491   6.714   6.412 -0.3236 -0.2498 -0.5105
10065TIP3    H151686   4.535   6.793   6.443  0.1050 -0.6393 -0.1004
10065TIP3    H251687   4.398   6.736   6.414 -0.2250  0.1433 -0.1200
10066TIP3   OH251688   0.153   5.726   0.397 -0.0035 -0.2597 -0.4277
10066TIP3    H151689   0.142   5.805   0.450  0.2668  0.3442 -1.2709
10066TIP3    H251690   0.085   5.732   0.330 -1.7171 -2.0467  1.0360
10067TIP3   OH251691   3.929   1.677  17.064 -0.4628 -0.5650 -0.0943
10067TIP3    H151692   3.844   1.646  17.096 -0.7835  0.2229 -0.1605
10067TIP3    H251693   3.957   1.741  17.130  1.5959 -3.0672  1.6608
10068TIP3   OH251694   1.500   0.109  16.285  0.1063  0.2195 -0.4110
10068TIP3    H151695   1.426   0.053  16.306 -0.2558  0.9106  0.1933
10068TIP3    H251696   1.554   0.057  16.225  1.1484 -1.8265  2.1121
10069TIP3   OH251697   3.806   4.765  14.190 -0.1246  0.5019  0.3498
10069TIP3    H151698   3.834   4.816  14.267  1.1941 -1.9111  1.5905
10069TIP3    H251699   3.812   4.674  14.218 -2.0010 -0.4111 -1.8930
10070TIP3   OH251700   3.521   6.824  12.693  0.1427  0.6523  0.7034
10070TIP3    H151701   3.491   6.821  12.784  1.6928  0.2236  1.2306
10070TIP3    H251702   3.530   6.731  12.668  0.8222  0.7660  0.5029
10071TIP3   OH251703   2.338   6.180   1.374 -0.1431  0.6847  0.1460
10071TIP3    H151704   2.252   6.210   1.401 -0.8152 -1.1916  0.2067
10071TIP3    H251705   2.399   6.239   1.419 -1.3279  3.7376 -1.9038
10072TIP3   OH251706   2.754   2.111   0.291  0.5058  0.3135  0.4856
10072TIP3    H151707   2.734   2.033   0.240 -2.1945  0.2458  1.4546
10072TIP3    H251708   2.779   2.078   0.377 -0.4483  0.4587  0.8380
10073TIP3   OH251709   2.333   6.311  14.188 -0.0269  0.5110  0.3413
10073TIP3    H151710   2.366   6.348  14.270 -0.8215  0.6669  0.6023
10073TIP3    H251711   2.356   6.218  14.193 -3.7406 -0.5108  2.7684
10074TIP3   OH251712   6.342   6.811  13.693 -0.2052  0.2185 -0.2401
10074TIP3    H151713   6.330   6.718  13.712 -1.2416  0.4413  0.2940
10074TIP3    H251714   6.368   6.813  13.601  0.4295 -0.6248 -0.0975
10075TIP3   OH251715   3.014   6.582   1.879  0.2011 -0.2355 -0.1795
10075TIP3    H151716   2.960   6.647   1.836 -0.0415 -0.3851 -0.1021
10075TIP3    H251717   3.100   6.591   1.838  0.3198  0.5068  0.2162
10076TIP3   OH251718   4.415   2.980  12.979  0.1536 -0.5338 -0.1664
10076TIP3    H151719   4.449   3.005  13.065  1.3977  0.2220 -0.8428
10076TIP3    H251720   4.461   2.899  12.957  2.1081  0.8033 -1.3436
10077TIP3   OH251721   1.943   4.372  16.444 -0.5946 -0.4482 -0.5180
10077TIP3    H151722   1.961   4.461  16.414  0.8890  0.2903  2.2158
10077TIP3    H251723   2.018   4.321  16.412 -0.2150 -0.1697 -0.0947
10078TIP3   OH251724   2.267   4.566  16.003  0.2401  0.5367  0.1512
10078TIP3    H151725   2.184   4.592  15.963 -1.3770 -1.4444  1.9785
10078TIP3    H251726   2.285   4.480  15.965  1.3816  0.8532 -0.0588
10079TIP3   OH251727   4.445   2.038   0.869 -0.8630  0.2073 -0.3472
10079TIP3    H151728   4.373   2.086   0.909 -0.5899  0.2792  0.0569
10079TIP3    H251729   4.402   1.972   0.815 -1.2997 -1.5755  1.9964
10080TIP3   OH251730   4.995   3.733   4.125 -0.6495  0.1065 -0.7486
10080TIP3    H151731   5.064   3.679   4.086 -0.7104 -0.3220 -0.2611
10080TIP3    H251732   5.014   3.822   4.092  1.0861  0.3017  0.6102
10081TIP3   OH251733   1.364   5.313  13.850  0.0351  0.5982 -0.1570
10081TIP3    H151734   1.378   5.397  13.805  1.6774  0.2537 -0.3727
10081TIP3    H251735   1.424   5.316  13.925  0.0965 -0.3666 -0.1555
10082TIP3   OH251736   2.137   4.589  12.987  0.2016 -0.2408 -0.3449
10082TIP3    H151737   2.216   4.639  12.967  0.3329 -0.1638  0.3414
10082TIP3    H251738   2.166   4.521  13.047 -0.1713 -0.4900 -0.4448
10083TIP3   OH251739   0.713   3.348   2.116 -0.1688 -0.0428 -0.1939
10083TIP3    H151740   0.798   3.367   2.076 -0.2692  0.8555  0.0128
10083TIP3    H251741   0.678   3.274   2.064  0.0495  0.5929 -1.2727
10084TIP3   OH251742   3.395   3.319   2.964  0.8584  0.2077  0.7324
10084TIP3    H151743   3.339   3.387   2.928  1.4212  0.5107  0.4117
10084TIP3    H251744   3.382   3.324   3.058  0.5182  0.4250  0.6736
10085TIP3   OH251745   1.124   5.864   1.019  0.8416 -0.1559  0.2104
10085TIP3    H151746   1.070   5.819   0.954  0.4982  1.7742 -0.9070
10085TIP3    H251747   1.144   5.949   0.980  1.6443  0.6076  2.1340
10086TIP3   OH251748   3.832   2.005  15.147 -0.7623 -0.0462  0.0600
10086TIP3    H151749   3.890   1.935  15.117 -0.2293  0.3035  0.2546
10086TIP3    H251750   3.855   2.017  15.239 -0.0994  1.0979 -0.2312
10087TIP3   OH251751   2.219   3.383   1.877  0.5645 -0.3303 -0.6062
10087TIP3    H151752   2.248   3.420   1.794  3.2162  1.7721  1.0907
10087TIP3    H251753   2.290   3.325   1.904 -0.3756 -1.1875  0.1357
10088TIP3   OH251754   2.657   4.777   1.033 -0.4200  0.2022 -0.1272
10088TIP3    H151755   2.743   4.784   0.991  0.4054  2.3953  1.6768
10088TIP3    H251756   2.677   4.769   1.127 -2.1873 -0.1335  0.2590
10089TIP3   OH251757   3.500   6.674  17.097 -0.2542  0.1084  0.1570
10089TIP3    H151758   3.473   6.636  17.014  0.0879  2.0792 -0.9145
10089TIP3    H251759   3.433   6.738  17.118  0.6730  1.0493  0.3519
10090TIP3   OH251760   0.973   0.499  13.880 -0.4399 -0.0777 -0.5225
10090TIP3    H151761   0.962   0.487  13.785  0.3839  2.5230 -1.0439
10090TIP3    H251762   0.904   0.561  13.904 -0.5661 -0.6330  0.5642
10091TIP3   OH251763   0.047   5.714   4.028 -0.5359  0.1294  0.3707
10091TIP3    H151764   0.109   5.661   4.079  0.2158 -0.2023 -0.8301
10091TIP3    H251765   0.056   5.802   4.063  1.8985  0.4445 -0.8368
10092TIP3   OH251766   6.747   2.917  13.157 -0.5428  0.0523 -0.1872
10092TIP3    H151767   6.668   2.945  13.112  0.2166 -0.1916 -1.7285
10092TIP3    H251768   6.814   2.978  13.129  0.2132 -0.8256 -0.3146
10093TIP3   OH251769   5.995   4.721   5.684  0.6306  0.5891 -0.2584
10093TIP3    H151770   6.089   4.723   5.700  0.6738 -2.4294  0.5998
10093TIP3    H251771   5.986   4.736   5.590  2.0805 -0.0925 -0.5335
10094TIP3   OH251772   5.969   5.371   0.270 -0.1233  0.3212  0.4641
10094TIP3    H151773   5.977   5.389   0.364  0.2853  1.5314  0.2207
10094TIP3    H251774   6.008   5.448   0.228  0.3905 -0.5491 -0.6971
10095TIP3   OH251775   2.432   0.442   2.920  0.0709 -0.0763  0.6206
10095TIP3    H151776   2.460   0.365   2.969 -0.5480  0.5064  1.9719
10095TIP3    H251777   2.338   0.433   2.912  0.1509 -0.0963 -0.3841
10096TIP3   OH251778   1.608   3.908  13.608  0.3795 -0.6251  0.2196
10096TIP3    H151779   1.675   3.929  13.543  0.9515 -0.9098  0.7223
10096TIP3    H251780   1.564   3.831  13.572 -1.4562  1.0553 -1.4279
10097TIP3   OH251781   0.386   4.737   1.632 -0.2124  1.0155  0.4792
10097TIP3    H151782   0.415   4.760   1.544  0.8987  0.2929  0.6460
10097TIP3    H251783   0.414   4.646   1.644 -0.1497  1.1756  1.6638
10098TIP3   OH251784   6.773   3.184  16.574 -0.3179  0.5237 -0.3565
10098TIP3    H151785   6.830   3.194  16.498 -1.4163  0.5363 -1.1998
10098TIP3    H251786   6.800   3.255  16.633  1.3872 -0.2451 -0.1488
10099TIP3   OH251787   3.542   3.039  13.706 -0.2878  0.1350  0.6118
10099TIP3    H151788   3.611   3.102  13.685 -0.3838  0.3282  0.8692
10099TIP3    H251789   3.461   3.086  13.686 -0.3444 -0.1309  0.1985
10100TIP3   OH251790   0.696   0.131  13.010  0.2176  0.1849 -0.4305
10100TIP3    H151791   0.650   0.180  12.941  2.7977 -0.0832 -2.5185
10100TIP3    H251792   0.767   0.189  13.037  0.4647 -0.5534  0.5542
10101TIP3   OH251793   3.446   1.339   0.820 -0.0402 -0.2506  0.6099
10101TIP3    H151794   3.357   1.334   0.784  1.1765 -3.6082 -2.6002
10101TIP3    H251795   3.442   1.287   0.900 -0.9365 -0.6630  0.3216
10102TIP3   OH251796   5.717   6.770  12.578  0.2805  0.1746  0.1490
10102TIP3    H151797   5.700   6.695  12.521  0.9332 -0.0472  0.2409
10102TIP3    H251798   5.746   6.839  12.518 -2.0465  0.9670 -0.1800
10103TIP3   OH251799   5.305   3.608   4.680 -0.7704 -0.0811 -0.3611
10103TIP3    H151800   5.314   3.513   4.681 -0.8955 -0.1183  1.7063
10103TIP3    H251801   5.326   3.635   4.769 -2.5432  1.6480 -0.3892
10104TIP3   OH251802   1.802   5.901  15.012 -0.4132  0.1205  0.2182
10104TIP3    H151803   1.856   5.943  15.079 -0.9621 -0.4804  1.0469
10104TIP3    H251804   1.741   5.969  14.984  1.3061  1.1031 -1.3872
10105TIP3   OH251805   3.475   0.739  13.728 -0.2581 -0.3206  0.3517
10105TIP3    H151806   3.470   0.793  13.649  0.1385 -0.2897  0.3478
10105TIP3    H251807   3.487   0.650  13.696 -0.3972 -0.3474  0.3713
10106TIP3   OH251808   0.032   1.381   3.216  0.2816  0.0610 -0.3065
10106TIP3    H151809   0.035   1.340   3.303 -0.5250  0.8519  0.1094
10106TIP3    H251810  -0.058   1.413   3.208  0.2438 -0.3143 -1.5859
10107TIP3   OH251811   4.060   1.373  13.118  0.1862 -0.0972 -0.6591
10107TIP3    H151812   3.965   1.362  13.110  0.4086 -1.4399 -2.1527
10107TIP3    H251813   4.082   1.336  13.203 -0.1540 -4.2332 -2.1614
10108TIP3   OH251814   0.002   0.998   2.488  0.2567 -0.3916 -0.4835
10108TIP3    H151815   0.033   1.025   2.574  0.2971  0.1980 -0.6772
10108TIP3    H251816   0.076   1.016   2.429 -0.3452  0.8074 -0.9114
10109TIP3   OH251817   5.980   4.140  12.679 -0.2983  0.4076 -0.0358
10109TIP3    H151818   5.918   4.199  12.637 -1.9143  0.5894  2.4007
10109TIP3    H251819   5.926   4.078  12.728  1.4183 -1.1462  0.0218
10110TIP3   OH251820   4.868   1.192  13.615  0.0959 -0.1976 -0.2537
10110TIP3    H151821   4.797   1.130  13.594  0.5911 -1.5353  1.7277
10110TIP3    H251822   4.931   1.181  13.544 -1.0774  0.0951 -1.3815
10111TIP3   OH251823   6.063   5.806  12.332 -0.5868  0.0188  0.6836
10111TIP3    H151824   6.089   5.881  12.278 -0.3947  1.5559  2.7611
10111TIP3    H251825   6.142   5.783  12.380 -1.0410 -0.5051  1.1907
10112TIP3   OH251826   4.281   2.833   5.848 -0.5358 -0.4478  0.3520
10112TIP3    H151827   4.209   2.894   5.832 -0.8295 -0.8322  0.2285
10112TIP3    H251828   4.284   2.825   5.943 -1.7729 -1.7750  0.3024
10113TIP3   OH251829   1.655   5.405   0.302  0.6094 -0.0148 -0.3900
10113TIP3    H151830   1.743   5.369   0.311  0.5661 -0.4765 -1.5318
10113TIP3    H251831   1.637   5.448   0.385  1.7086 -0.3657  0.0438
10114TIP3   OH251832   6.165   4.527  11.928  0.0408 -0.0475 -0.3567
10114TIP3    H151833   6.164   4.509  12.022  1.1119 -1.0487 -0.5166
10114TIP3    H251834   6.201   4.615  11.922 -0.7193  0.3156  0.1982
10115TIP3   OH251835   3.677   3.499  11.417  0.4268  0.7148 -0.2168
10115TIP3    H151836   3.621   3.433  11.458 -1.1493  1.1181 -1.6284
10115TIP3    H251837   3.743   3.519  11.484 -0.7805 -0.1752  1.3093
10116TIP3   OH251838   5.096   4.119   5.178 -0.6538  0.3418  0.0457
10116TIP3    H151839   5.142   4.202   5.174  1.3254 -0.7478 -1.0453
10116TIP3    H251840   5.003   4.143   5.181 -0.1375  2.5551 -0.3017
10117TIP3   OH251841   2.052   2.629  13.358 -0.2941 -0.0383  0.0398
10117TIP3    H151842   2.142   2.656  13.337 -0.3356  1.3197  1.4692
10117TIP3    H251843   2.047   2.539  13.328  2.3002 -0.9477  1.9673
10118TIP3   OH251844   6.331   3.324  13.694 -0.2401 -0.8581  0.1984
10118TIP3    H151845   6.352   3.233  13.671 -2.7760 -1.1434 -1.4073
10118TIP3    H251846   6.385   3.377  13.636 -1.4206 -1.4640 -1.5092
10119TIP3   OH251847   0.547   3.522   1.900 -0.2243 -0.3015  0.6005
10119TIP3    H151848   0.462   3.566   1.896 -0.2033 -0.1935  1.2477
10119TIP3    H251849   0.528   3.431   1.877 -0.8628 -0.7232  2.6077
10120TIP3   OH251850   3.505   5.687  15.147  0.0760  0.3407  0.1533
10120TIP3    H151851   3.559   5.674  15.224 -1.7852 -1.2641  1.3051
10120TIP3    H251852   3.416   5.698  15.181 -0.4981  2.0087 -1.6738
10121TIP3   OH251853   3.461   4.232  15.715 -0.0284 -0.6184  0.7297
10121TIP3    H151854   3.411   4.222  15.796  0.5565 -0.3378  1.1348
10121TIP3    H251855   3.432   4.315  15.679  0.3664 -0.3051  1.1264
10122TIP3   OH251856   2.596   1.256  11.781  0.5794  0.1921  0.2760
10122TIP3    H151857   2.635   1.309  11.851  2.8633 -0.1643 -0.6309
10122TIP3    H251858   2.575   1.318  11.712 -0.0505  0.3243  0.5782
10123TIP3   OH251859   0.698   3.628   0.879  0.5837 -0.2612  0.0491
10123TIP3    H151860   0.789   3.634   0.911  0.3455  0.0837  0.6842
10123TIP3    H251861   0.700   3.556   0.817  1.0851 -0.9270  0.8087
10124TIP3   OH251862   3.481   1.594   5.260  0.0097  0.2564  0.7680
10124TIP3    H151863   3.440   1.658   5.318  2.1495  0.8412  1.7297
10124TIP3    H251864   3.565   1.573   5.302  0.8168 -0.7215 -1.1811
10125TIP3   OH251865   5.720   3.470  12.695 -0.5147  0.7324  0.0156
10125TIP3    H151866   5.743   3.456  12.787  0.4023  1.3867 -0.1024
10125TIP3    H251867   5.642   3.525  12.699 -0.0977  1.3134  0.4077
10126TIP3   OH251868   4.243   0.124  15.368  0.6250 -0.2789  0.3209
10126TIP3    H151869   4.232   0.160  15.280  0.6585 -1.0010  0.0039
10126TIP3    H251870   4.231   0.198  15.427 -0.5785 -0.0105 -0.2350
10127TIP3   OH251871   4.880   5.670   1.084  0.9815 -0.7066  0.0793
10127TIP3    H151872   4.832   5.623   1.153  1.4699 -1.6932 -0.2213
10127TIP3    H251873   4.923   5.742   1.129  1.2949 -1.3432  0.8182
10128TIP3   OH251874   4.058   2.998   5.792 -0.2985 -0.0535  0.5030
10128TIP3    H151875   3.992   2.978   5.726  0.0350 -2.3141  0.7704
10128TIP3    H251876   4.012   3.051   5.857 -0.9011  1.3195 -0.9701
10129TIP3   OH251877   4.180   2.221  14.551 -0.6023 -0.1569  0.5184
10129TIP3    H151878   4.242   2.262  14.611  1.1070  0.3309 -1.4850
10129TIP3    H251879   4.170   2.284  14.479 -2.0545 -1.0040 -0.0732
10130TIP3   OH251880   3.369   2.130   5.057 -0.3718  0.5014 -0.4878
10130TIP3    H151881   3.301   2.131   5.125 -1.2084  1.7536 -1.2993
10130TIP3    H251882   3.410   2.044   5.066 -2.2657 -0.4408 -0.1620
10131TIP3   OH251883   5.685   1.634   0.191  0.2678 -0.5467  0.1116
10131TIP3    H151884   5.626   1.568   0.228  0.1826 -0.9623 -0.7449
10131TIP3    H251885   5.762   1.584   0.162  0.7071 -0.1119  0.5128
10132TIP3   OH251886   2.864   0.888  12.511 -0.1272 -0.5698 -0.5044
10132TIP3    H151887   2.835   0.872  12.601 -1.8609  1.8788 -0.5317
10132TIP3    H251888   2.899   0.977  12.512 -0.1352 -0.5138 -2.2414
10133TIP3   OH251889   5.442   5.070  15.340  0.3938 -0.2139 -0.3103
10133TIP3    H151890   5.384   5.137  15.303 -0.1287 -2.1222 -3.2363
10133TIP3    H251891   5.510   5.120  15.385 -1.4885  2.1863  0.0912
10134TIP3   OH251892   5.549   4.512  16.299  0.2513  0.3929 -0.1374
10134TIP3    H151893   5.531   4.460  16.378  0.4883 -1.6540 -1.3737
10134TIP3    H251894   5.490   4.587  16.307  0.0928  0.1283  1.8623
10135TIP3   OH251895   3.040   0.307   5.510  0.2702 -0.4652 -0.4661
10135TIP3    H151896   3.047   0.355   5.593  3.2892 -0.0985 -0.7887
10135TIP3    H251897   2.951   0.323   5.480  0.7674  4.3350 -0.1293
10136TIP3   OH251898   1.812   2.190   2.895  0.5751  0.3090 -0.4206
10136TIP3    H151899   1.758   2.249   2.842 -0.2878 -0.0727  0.0182
10136TIP3    H251900   1.896   2.235   2.903  0.8121  0.2831 -2.3033
10137TIP3   OH251901   3.439   3.756   2.532  0.2467  0.1132  0.2287
10137TIP3    H151902   3.436   3.808   2.452 -0.5548 -0.9479 -0.4665
10137TIP3    H251903   3.529   3.766   2.564  0.4320  0.9520 -0.5296
10138TIP3   OH251904   1.958   0.195  15.567  0.3611  0.2109  0.4108
10138TIP3    H151905   1.877   0.176  15.614 -0.3508  2.0803  0.0014
10138TIP3    H251906   1.938   0.178  15.475  0.1704  1.3495  0.2209
10139TIP3   OH251907   1.682   4.769   2.858  0.4627  0.6220 -0.2058
10139TIP3    H151908   1.728   4.705   2.911  2.1330  1.7591 -0.1978
10139TIP3    H251909   1.603   4.724   2.827 -0.1758 -0.3133  2.5601
10140TIP3   OH251910   0.427   1.903  13.267 -0.2156 -0.3163  0.2305
10140TIP3    H151911   0.337   1.931  13.284 -0.0788  0.3446 -0.0899
10140TIP3    H251912   0.449   1.945  13.184  0.0739 -1.2231 -0.1627
10141TIP3   OH251913   0.500   5.450  16.149  0.0704 -0.0336 -0.0606
10141TIP3    H151914   0.530   5.394  16.222  2.7606 -1.3032 -1.9671
10141TIP3    H251915   0.429   5.502  16.187  0.5598 -1.4213  3.1392
10142TIP3   OH251916   4.714   5.401  13.444  0.1087 -0.0370  0.5860
10142TIP3    H151917   4.639   5.433  13.494  0.0155  0.9956 -0.1927
10142TIP3    H251918   4.701   5.436  13.356  1.1350 -0.4418  0.2607
10143TIP3   OH251919   4.943   3.825   0.371  0.1588 -0.5797  0.0201
10143TIP3    H151920   5.000   3.829   0.294  0.5943 -1.3528  0.2901
10143TIP3    H251921   4.993   3.869   0.439  0.1424 -0.6566  0.0815
10144TIP3   OH251922   4.774   3.521  13.554  0.4566 -0.1504 -0.4083
10144TIP3    H151923   4.747   3.540  13.464 -1.6787  1.1657  0.4249
10144TIP3    H251924   4.869   3.529  13.553  0.5186 -0.6785 -2.6431
10145TIP3   OH251925   2.341   3.573  12.066 -0.5721 -0.3465  0.1970
10145TIP3    H151926   2.418   3.602  12.018 -0.1172  1.1581  1.7569
10145TIP3    H251927   2.267   3.598  12.010 -0.0073 -0.7721 -0.7755
10146TIP3   OH251928   0.632   3.976   1.742 -0.3197 -0.3897 -0.4924
10146TIP3    H151929   0.657   3.896   1.789  2.2954  0.0412 -1.0099
10146TIP3    H251930   0.659   3.961   1.652 -1.0688  0.5748 -0.9000
10147TIP3   OH251931   3.948   4.497   5.841 -0.2249 -0.4409 -0.2868
10147TIP3    H151932   3.954   4.592   5.853 -5.3655 -0.0183  0.9775
10147TIP3    H251933   3.999   4.461   5.914 -0.6362  1.4597  1.0077
10148TIP3   OH251934   4.135   5.554   2.910 -0.0942  0.1434 -0.4636
10148TIP3    H151935   4.124   5.469   2.868 -0.1328 -0.3757  0.5741
10148TIP3    H251936   4.188   5.605   2.848  0.4802 -0.8558 -0.8057
10149TIP3   OH251937   3.668   0.206  12.111  0.3801 -0.2149 -0.4295
10149TIP3    H151938   3.674   0.275  12.045 -1.1633  1.5537  1.1473
10149TIP3    H251939   3.589   0.157  12.087  0.0348  0.1860 -0.1155
10150TIP3   OH251940   1.365   6.144   1.994  0.0473 -0.0922 -0.3747
10150TIP3    H151941   1.336   6.221   1.945 -2.0040 -0.5404  0.0397
10150TIP3    H251942   1.326   6.070   1.947  1.8471 -0.9000 -0.6694
10151TIP3   OH251943   2.223   1.503   4.479  0.1656  0.8679 -0.1666
10151TIP3    H151944   2.264   1.508   4.565 -1.4557 -0.0090  0.6918
10151TIP3    H251945   2.297   1.506   4.418  1.3920  0.8790  1.2501
10152TIP3   OH251946   5.041   2.825  13.758  0.0456  0.6459 -0.0518
10152TIP3    H151947   4.961   2.876  13.745  0.4025  0.9367 -1.2717
10152TIP3    H251948   5.065   2.797  13.670  2.1406  1.8629  0.0741
10153TIP3   OH251949   1.472   3.942   0.159  0.3227  0.0563  0.0692
10153TIP3    H151950   1.445   4.028   0.190  1.6426  0.2148  0.8541
10153TIP3    H251951   1.426   3.880   0.216 -0.6912  0.2144 -0.5495
10154TIP3   OH251952   5.608   3.403  17.157  0.5035 -0.2539 -0.3722
10154TIP3    H151953   5.521   3.416  17.118  0.6356 -0.8569 -0.8815
10154TIP3    H251954   5.650   3.488  17.148 -0.5002  0.4349  1.0903
10155TIP3   OH251955   6.490   5.097  10.598 -0.1290 -0.1112 -0.2808
10155TIP3    H151956   6.541   5.140  10.530 -0.4217  0.5931 -0.0622
10155TIP3    H251957   6.480   5.007  10.567 -0.6633  0.3162 -1.4150
10156TIP3   OH251958   2.760   5.963   6.270 -0.0042  0.4205  0.2324
10156TIP3    H151959   2.674   5.995   6.242  0.8818  1.1681 -1.8426
10156TIP3    H251960   2.745   5.871   6.293 -1.0696  0.0333 -1.7625
10157TIP3   OH251961   6.757   4.222   5.078  0.1546  0.0148  0.5963
10157TIP3    H151962   6.825   4.204   5.013  0.1815  0.6732  0.4261
10157TIP3    H251963   6.686   4.261   5.027 -0.7361 -1.5036  0.6296
10158TIP3   OH251964   6.292   1.699  17.182  0.2714 -0.1705  0.1581
10158TIP3    H151965   6.242   1.737  17.110 -2.3083 -1.0362  1.3883
10158TIP3    H251966   6.339   1.625  17.142 -2.8330 -2.0268 -0.3470
10159TIP3   OH251967   5.199   1.005   4.355  0.1972 -0.1397 -0.1770
10159TIP3    H151968   5.162   1.060   4.287  0.1132  0.5878  0.4481
10159TIP3    H251969   5.141   0.928   4.358  0.7048 -0.6044 -1.5113
10160TIP3   OH251970   1.651   5.149  11.481  0.3628 -0.3791 -0.5425
10160TIP3    H151971   1.560   5.169  11.460 -0.4920 -0.6437  2.3658
10160TIP3    H251972   1.670   5.068  11.433 -0.7319  0.0212 -1.6753
10161TIP3   OH251973   2.876   3.487  13.412  0.0400  0.5789 -0.2489
10161TIP3    H151974   2.951   3.444  13.371 -0.4813  1.4937 -2.2388
10161TIP3    H251975   2.897   3.487  13.506  1.5775 -0.9656 -0.5495
10162TIP3   OH251976   5.105   2.652   2.755 -0.2467 -0.1353  0.1127
10162TIP3    H151977   5.161   2.579   2.781  0.1681 -0.0742 -0.5914
10162TIP3    H251978   5.093   2.703   2.835  3.4296  1.7305 -0.3158
10163TIP3   OH251979   5.403   4.439  17.029  0.2624 -0.0462  0.8170
10163TIP3    H151980   5.497   4.424  17.027  0.5342  1.4798 -1.1810
10163TIP3    H251981   5.366   4.366  16.978  0.5967  0.4920 -0.2242
10164TIP3   OH251982   1.582   1.805   2.425  0.3789  0.0576 -0.4190
10164TIP3    H151983   1.573   1.766   2.338  0.9730 -1.5451  0.2015
10164TIP3    H251984   1.565   1.898   2.411  0.0205 -0.2272 -2.1659
10165TIP3   OH251985   0.244   4.972   5.035 -0.0309 -0.4704  0.1425
10165TIP3    H151986   0.167   5.013   4.996  0.3981  1.7640  1.4640
10165TIP3    H251987   0.248   4.885   4.995 -2.4570 -0.1636 -0.9415
10166TIP3   OH251988   0.330   3.945   2.733 -0.1822  0.3580 -0.5179
10166TIP3    H151989   0.259   3.986   2.782 -0.1446 -1.8249  1.5673
10166TIP3    H251990   0.338   3.998   2.654 -3.4698  1.2796 -0.3989
10167TIP3   OH251991   3.391   0.051   0.174 -0.0465  0.3723 -0.0095
10167TIP3    H151992   3.455   0.023   0.240 -0.8069 -1.4779 -0.0007
10167TIP3    H251993   3.417   0.141   0.153  2.2450 -0.1272  0.3561
10168TIP3   OH251994   3.940   3.666  15.465 -0.2923 -0.4725  0.1848
10168TIP3    H151995   4.008   3.700  15.523 -1.1238  0.0377  0.8997
10168TIP3    H251996   3.877   3.738  15.457 -0.2586 -0.5800 -1.2776
10169TIP3   OH251997   3.306   4.069   2.169  0.8822 -0.1228 -0.7884
10169TIP3    H151998   3.326   4.163   2.176 -0.4863  0.2506 -1.5834
10169TIP3    H251999   3.383   4.026   2.207  0.7182  1.3487  1.3683
10170TIP3   OH252000   0.363   3.165   4.996 -0.2025  0.5424  0.0109
10170TIP3    H152001   0.406   3.090   4.956 -1.3466 -1.2958  2.0271
10170TIP3    H252002   0.423   3.194   5.064 -1.2544 -0.8963  1.6300
10171TIP3   OH252003   0.848   3.490   2.707  0.1779  0.0308 -0.2812
10171TIP3    H152004   0.777   3.509   2.768 -0.0943  0.6833 -0.7907
10171TIP3    H252005   0.883   3.405   2.736  0.1920  0.4264  0.8996
10172TIP3   OH252006   0.995   6.056   5.716 -0.3887 -0.3124  0.0888
10172TIP3    H152007   1.089   6.075   5.715 -0.2372 -0.8932  1.3437
10172TIP3    H252008   0.985   5.980   5.659 -0.1137 -0.1907 -0.1253
10173TIP3   OH252009   5.452   5.278   2.503  0.4099  0.3752 -0.6228
10173TIP3    H152010   5.462   5.211   2.571 -0.8426  0.6001 -0.1818
10173TIP3    H252011   5.364   5.265   2.469  0.3803  1.3787 -0.9841
10174TIP3   OH252012   3.963   2.611  12.928 -0.4344  0.3037  0.0508
10174TIP3    H152013   3.871   2.593  12.946 -1.1064  2.3590 -0.9770
10174TIP3    H252014   3.985   2.553  12.855 -0.5869 -0.9463  0.9779
10175TIP3   OH252015   0.114   2.626  13.015  0.1834  0.1121 -0.4341
10175TIP3    H152016   0.028   2.618  12.975  0.4159 -1.3626 -0.6747
10175TIP3    H252017   0.097   2.658  13.104 -0.4225  2.1300 -1.2104
10176TIP3   OH252018   1.133   3.413  12.983  0.5177 -0.2858 -0.2756
10176TIP3    H152019   1.114   3.320  12.991 -0.2108 -0.0567  1.2236
10176TIP3    H252020   1.206   3.428  13.043  0.0205  0.2447  0.2204
10177TIP3   OH252021   5.402   5.088   1.647 -0.0955 -0.9308 -0.2257
10177TIP3    H152022   5.357   5.022   1.594  0.1336 -1.4316  0.2018
10177TIP3    H252023   5.348   5.097   1.725  0.0829 -0.9004 -0.1053
10178TIP3   OH252024   5.204   1.637  11.582 -0.3243 -0.3441  0.3828
10178TIP3    H152025   5.294   1.624  11.551 -0.4223 -0.7625  0.2648
10178TIP3    H252026   5.151   1.581  11.524 -0.4932 -1.3057  1.4226
10179TIP3   OH252027   0.029   2.699  12.689  0.3674  0.5984 -0.0557
10179TIP3    H152028   0.001   2.785  12.722 -0.3734 -0.2549  1.6855
10179TIP3    H252029  -0.034   2.638  12.726  0.8720 -0.7171 -1.2809
10180TIP3   OH252030   1.947   6.429   0.606 -0.7214  0.4461 -0.3607
10180TIP3    H152031   2.018   6.491   0.625 -1.4951  1.2219  0.0207
10180TIP3    H252032   1.989   6.362   0.551  0.2863  0.9374 -0.2218
10181TIP3   OH252033   5.985   1.768  16.335 -0.6002 -0.0754  0.4874
10181TIP3    H152034   5.968   1.751  16.243 -0.0492  1.5525  0.0569
10181TIP3    H252035   6.035   1.692  16.365  0.8762  0.2201 -1.0623
10182TIP3   OH252036   1.491   0.064   0.070  0.2856 -0.5509  0.3883
10182TIP3    H152037   1.568   0.007   0.073  0.4040 -0.3665  0.8755
10182TIP3    H252038   1.525   0.149   0.041 -0.1896 -1.2103 -2.3572
10183TIP3   OH252039   2.372   1.218   3.264  0.0371  0.5742  0.2962
10183TIP3    H152040   2.451   1.168   3.245 -0.3344 -0.9384  2.3757
10183TIP3    H252041   2.305   1.178   3.209  0.1648  0.0324  0.5232
10184TIP3   OH252042   3.553   1.098   0.446 -0.0055  0.0296 -0.3468
10184TIP3    H152043   3.545   1.030   0.513  0.6448 -0.8386 -1.1422
10184TIP3    H252044   3.463   1.112   0.416 -0.4740  1.2304  1.4640
10185TIP3   OH252045   6.793   5.952   0.921 -0.3234  0.0504  0.0347
10185TIP3    H152046   6.700   5.966   0.903 -0.3812 -2.5240 -2.2618
10185TIP3    H252047   6.816   5.874   0.870  3.5419  1.5995 -0.9323
10186TIP3   OH252048   5.477   1.613  15.064  0.3408  0.1735 -0.3020
10186TIP3    H152049   5.513   1.701  15.050  2.1923 -0.5822 -0.4880
10186TIP3    H252050   5.493   1.594  15.156  3.1298 -1.2510 -0.9623
10187TIP3   OH252051   0.516   0.073   4.391 -0.1476  0.8584 -0.0157
10187TIP3    H152052   0.564   0.028   4.461 -1.8370 -0.1979  0.5382
10187TIP3    H252053   0.440   0.016   4.374 -2.3891  3.4102  0.6859
10188TIP3   OH252054   5.842   3.573   2.634  0.6520  0.9562 -0.3320
10188TIP3    H152055   5.913   3.553   2.695  0.7528  0.8428 -0.4831
10188TIP3    H252056   5.887   3.592   2.551  0.4300 -1.2018 -0.9969
10189TIP3   OH252057   6.194   1.018  12.814 -0.4617  0.1736 -0.2288
10189TIP3    H152058   6.216   0.926  12.826  0.1607  0.1274 -1.5227
10189TIP3    H252059   6.269   1.054  12.767 -0.7567  1.3184  0.1432
10190TIP3   OH252060   3.371   0.990   3.752 -0.2285 -0.4735  0.3519
10190TIP3    H152061   3.308   0.925   3.720 -1.6474  0.6212  0.7922
10190TIP3    H252062   3.401   1.034   3.672 -2.0326  0.7193  0.2538
10191TIP3   OH252063   1.459   2.581   6.943  0.2347 -0.5011 -0.7077
10191TIP3    H152064   1.480   2.556   6.853  0.9433  0.8134 -0.9218
10191TIP3    H252065   1.433   2.673   6.938  1.5331 -0.0224  0.6014
10192TIP3   OH252066   0.912   5.689   5.726  0.4701  0.2956 -0.0238
10192TIP3    H152067   0.943   5.743   5.653  0.0610  2.2020  1.1565
10192TIP3    H252068   0.987   5.632   5.747  0.7007 -0.0711 -1.6896
10193TIP3   OH252069   4.861   5.902  14.869  0.4266 -0.1799 -0.5615
10193TIP3    H152070   4.898   5.974  14.920 -1.3450  0.3663  0.0436
10193TIP3    H252071   4.815   5.848  14.933 -1.4791  0.2867 -1.4611
10194TIP3   OH252072   5.035   6.409  15.172 -0.2788 -0.5351 -0.4382
10194TIP3    H152073   5.065   6.319  15.177  2.7731  0.1156 -3.2497
10194TIP3    H252074   5.002   6.419  15.083  0.8046  1.3968 -0.7003
10195TIP3   OH252075   3.977   1.369   6.042 -0.1388 -0.3870  0.2315
10195TIP3    H152076   3.930   1.287   6.027 -0.5497  0.1831 -1.9579
10195TIP3    H252077   4.063   1.355   6.001  0.0402  0.0365  0.4576
10196TIP3   OH252078   4.517   2.937  10.612  0.7336 -0.0560  1.0181
10196TIP3    H152079   4.552   3.022  10.637  0.1869 -0.6211  4.0919
10196TIP3    H252080   4.426   2.938  10.642 -0.8797 -0.0831 -3.1943
10197TIP3   OH252081   4.657   6.722  12.970  0.2283 -0.1235 -0.2325
10197TIP3    H152082   4.647   6.816  12.985  0.2720 -0.1699  0.0793
10197TIP3    H252083   4.668   6.684  13.057  1.3258 -0.2888 -0.4312
10198TIP3   OH252084   6.789   0.478  13.819 -0.0112 -0.8453  0.0177
10198TIP3    H152085   6.709   0.526  13.794  0.5337  0.0484 -0.0731
10198TIP3    H252086   6.765   0.431  13.898  0.2992  2.2187  2.1201
10199TIP3   OH252087   2.432   1.313  15.711  0.2813  0.1489  0.5371
10199TIP3    H152088   2.519   1.274  15.716  0.6336  1.0268  2.4781
10199TIP3    H252089   2.380   1.264  15.775  0.1967  1.4579  1.5386
10200TIP3   OH252090   5.299   4.925  16.851 -0.2663 -0.2154 -0.5442
10200TIP3    H152091   5.217   4.912  16.802 -1.7921  1.1526  1.4919
10200TIP3    H252092   5.332   4.836  16.865 -1.7320 -0.8568 -0.8868
10201TIP3   OH252093   1.371   1.749   0.077  0.3841 -0.4772 -0.2438
10201TIP3    H152094   1.333   1.810   0.013  0.1362 -1.1051 -0.7055
10201TIP3    H252095   1.359   1.793   0.161 -1.7864 -0.8165 -0.3016
10202TIP3   OH252096   6.019   2.512   4.911  0.2752  0.1624 -0.4115
10202TIP3    H152097   5.929   2.479   4.911  0.0704  0.7027 -0.4880
10202TIP3    H252098   6.020   2.575   4.984  0.6804 -0.0751 -0.2089
10203TIP3   OH252099   3.278   6.049   1.805  0.3244 -0.1814 -0.2362
10203TIP3    H152100   3.251   5.986   1.872 -0.2602  1.3248  1.0072
10203TIP3    H252101   3.196   6.071   1.760  0.3298  0.5131  0.0860
10204TIP3   OH252102   5.902   1.240  14.419 -0.3297 -0.5446  0.0955
10204TIP3    H152103   5.842   1.178  14.461  0.8895 -1.1347  1.0069
10204TIP3    H252104   5.848   1.284  14.353 -1.6840 -1.2766  0.6736
10205TIP3   OH252105   3.989   1.622  12.818 -0.3493  0.0902 -0.2209
10205TIP3    H152106   4.043   1.628  12.739 -1.6717  0.6956 -1.0996
10205TIP3    H252107   3.969   1.713  12.841  0.0344 -0.0718  0.8438
10206TIP3   OH252108   4.158   2.457   1.947  0.6151  0.2342  0.3663
10206TIP3    H152109   4.077   2.493   1.983  0.9455 -0.3019  1.7094
10206TIP3    H252110   4.162   2.491   1.857 -1.6057 -0.5539 -0.0942
10207TIP3   OH252111   0.329   5.425   1.572 -0.2562  0.0714  0.2863
10207TIP3    H152112   0.322   5.454   1.663 -2.0971  2.1633 -0.4019
10207TIP3    H252113   0.305   5.503   1.521 -0.3675 -1.3477 -1.9604
10208TIP3   OH252114   0.927   2.087   3.460 -0.0923 -0.1163  0.2988
10208TIP3    H152115   0.866   2.071   3.388  1.2017 -0.6138 -0.7287
10208TIP3    H252116   0.878   2.141   3.522 -1.2381  0.3360 -0.9583
10209TIP3   OH252117   3.272   2.906   6.392 -0.2210  0.2544  0.4466
10209TIP3    H152118   3.353   2.904   6.341 -0.0627 -0.6202  0.7319
10209TIP3    H252119   3.209   2.949   6.334 -0.4816 -2.1462 -1.1701
10210TIP3   OH252120   4.511   6.577   4.417 -0.4302  0.0965  0.2185
10210TIP3    H152121   4.459   6.627   4.354  0.9859  0.3446 -0.8047
10210TIP3    H252122   4.561   6.643   4.465 -2.5283  0.0318  2.6666
10211TIP3   OH252123   5.511   5.245  13.878  0.1104  0.1200 -0.4477
10211TIP3    H152124   5.547   5.309  13.940 -1.3041 -0.5445  1.1567
10211TIP3    H252125   5.552   5.162  13.903 -1.3589 -0.3841  0.5014
10212TIP3   OH252126   2.155   5.412   2.149 -0.1021  0.4689  0.1389
10212TIP3    H152127   2.244   5.394   2.117  0.9213  1.0513  2.4558
10212TIP3    H252128   2.166   5.483   2.212 -2.1132  0.0688  1.0091
10213TIP3   OH252129   5.294   5.794   3.225 -0.0327 -0.2205  0.1570
10213TIP3    H152130   5.245   5.875   3.213  0.8249  0.3859  0.6557
10213TIP3    H252131   5.329   5.799   3.314  0.2605 -1.0123  0.1029
10214TIP3   OH252132   1.853   6.030   0.517  0.1452 -0.6962  0.0167
10214TIP3    H152133   1.929   6.083   0.539 -0.4929  0.2855 -0.0980
10214TIP3    H252134   1.782   6.067   0.568 -0.4601 -1.0087 -0.5804
10215TIP3   OH252135   2.840   4.391   3.597 -0.7223 -0.3653  0.3797
10215TIP3    H152136   2.800   4.364   3.679 -1.9460 -0.7046 -0.2997
10215TIP3    H252137   2.931   4.360   3.603 -1.3228 -2.1914  0.7795
10216TIP3   OH252138   0.708   4.206  14.658 -0.1411 -0.4229 -0.0194
10216TIP3    H152139   0.616   4.177  14.659 -1.1763  2.5536  0.4712
10216TIP3    H252140   0.744   4.171  14.739 -1.0094 -1.1020  0.1006
10217TIP3   OH252141   1.526   4.830  14.625 -0.2039 -0.2430  0.3655
10217TIP3    H152142   1.451   4.822  14.567  0.6924 -2.6597 -0.5628
10217TIP3    H252143   1.496   4.890  14.694 -2.5756 -0.2568 -0.5564
10218TIP3   OH252144   4.780   2.821   5.181  0.0991 -0.3812 -0.3292
10218TIP3    H152145   4.873   2.822   5.200  0.0635 -3.4538  0.5571
10218TIP3    H252146   4.754   2.913   5.182  2.5154  0.4120  2.4904
10219TIP3   OH252147   2.035   4.192  16.087  0.4838  0.1305 -0.2553
10219TIP3    H152148   2.067   4.225  16.171  0.6589 -1.1215  0.1883
10219TIP3    H252149   1.940   4.189  16.097  0.5738 -1.5409  0.5284
10220TIP3   OH252150   3.618   2.314   5.998 -0.3464  0.1321 -0.6228
10220TIP3    H152151   3.657   2.360   6.072 -2.5941  0.2681  0.5649
10220TIP3    H252152   3.575   2.238   6.036 -2.9099  1.0298 -1.4737
10221TIP3   OH252153   4.627   2.878   4.512  0.3978 -0.1272  0.3269
10221TIP3    H152154   4.655   2.841   4.595  1.0117 -1.2828 -0.3547
10221TIP3    H252155   4.590   2.803   4.464  0.0479  0.5096 -0.4335
10222TIP3   OH252156   0.213   3.468  13.370  0.3390 -0.1598  0.4015
10222TIP3    H152157   0.218   3.375  13.391  0.4162 -0.5747 -1.3091
10222TIP3    H252158   0.202   3.511  13.455 -2.2493 -1.8959  1.0760
10223TIP3   OH252159   6.189   0.996  11.867  0.3508 -0.2719  0.0476
10223TIP3    H152160   6.245   0.972  11.794 -0.7995  2.1462 -1.7509
10223TIP3    H252161   6.238   1.063  11.914  0.2508 -0.3793  0.3086
10224TIP3   OH252162   3.908   5.447   1.541  0.1514 -0.0033  0.0514
10224TIP3    H152163   3.879   5.446   1.633  0.8400  0.3149  0.2787
10224TIP3    H252164   3.827   5.443   1.491 -0.3345  1.3553  0.6702
10225TIP3   OH252165   1.553   5.389   2.698  0.2298 -0.3019  0.3268
10225TIP3    H152166   1.460   5.411   2.693  0.4696  0.7546  0.2822
10225TIP3    H252167   1.569   5.373   2.791  0.2914  0.9230  0.5448
10226TIP3   OH252168   2.400   2.369   3.096 -0.1617 -0.1206 -0.4800
10226TIP3    H152169   2.483   2.410   3.070  0.0257  0.6050  1.1555
10226TIP3    H252170   2.336   2.404   3.034  0.4004  0.8855 -0.5216
10227TIP3   OH252171   0.507   2.499   6.232  0.1774  0.1066  0.0404
10227TIP3    H152172   0.481   2.523   6.320  0.4600  0.7629 -0.0515
10227TIP3    H252173   0.427   2.469   6.190  0.1035 -0.5101  0.6158
10228TIP3   OH252174   6.043   5.063   5.623  0.3772  0.4418  0.0316
10228TIP3    H152175   6.040   4.973   5.588 -1.2117  0.4343  0.1275
10228TIP3    H252176   6.025   5.053   5.716 -2.5944  1.0446 -0.3966
10229TIP3   OH252177   6.073   3.491  16.492 -0.0103 -0.5949 -0.3337
10229TIP3    H152178   6.036   3.540  16.566  0.5390 -2.6869  1.4426
10229TIP3    H252179   6.168   3.497  16.504  0.0821 -2.6731  0.4436
10230TIP3   OH252180   6.211   2.818  15.933 -0.3354 -0.3917  0.1136
10230TIP3    H152181   6.287   2.761  15.916  1.0709  1.4080  0.0489
10230TIP3    H252182   6.242   2.879  16.000 -0.0438  3.3096 -3.0747
10231TIP3   OH252183   5.453   3.207   1.014 -0.8945  0.3280  0.1331
10231TIP3    H152184   5.372   3.155   1.012 -0.1912 -0.8837  1.4568
10231TIP3    H252185   5.435   3.282   0.957 -3.4590  0.8627  1.5343
10232TIP3   OH252186   4.605   6.176  15.362  0.1299  0.1581 -0.5424
10232TIP3    H152187   4.552   6.112  15.315  0.0520  1.0238 -1.6818
10232TIP3    H252188   4.693   6.164  15.329  0.2996 -0.0106 -0.0391
10233TIP3   OH252189   5.839   5.183  15.291  0.2357 -0.1393  0.2766
10233TIP3    H152190   5.895   5.134  15.231  1.7370  0.5140  1.0692
10233TIP3    H252191   5.821   5.265  15.245  0.5044 -0.0735  0.2879
10234TIP3   OH252192   0.708   0.916  16.170 -0.1298 -0.3728  0.4413
10234TIP3    H152193   0.714   1.006  16.203  1.7368 -0.2494 -0.0832
10234TIP3    H252194   0.769   0.866  16.225 -2.7445 -1.8520  2.1670
10235TIP3   OH252195   1.894   4.866   1.778 -0.1728  0.0857  0.3862
10235TIP3    H152196   1.931   4.832   1.860  1.7452 -0.2668 -0.5707
10235TIP3    H252197   1.804   4.887   1.800  0.3719  0.3071  2.6878
10236TIP3   OH252198   6.516   6.372  15.823  0.5216 -0.5382  0.0909
10236TIP3    H152199   6.489   6.298  15.769 -0.6826 -0.3101  0.3515
10236TIP3    H252200   6.478   6.448  15.780  1.7107 -0.0653 -0.1478
10237TIP3   OH252201   6.215   4.236  10.947 -0.3199  1.0666 -0.0373
10237TIP3    H152202   6.239   4.247  11.039 -2.5656  0.0655  0.7447
10237TIP3    H252203   6.269   4.164  10.916  1.5613  2.3961 -0.0074
10238TIP3   OH252204   3.033   5.232  12.290  0.2478  0.0235  0.0554
10238TIP3    H152205   2.998   5.316  12.319  2.0560  0.4228  1.2169
10238TIP3    H252206   3.036   5.239  12.195 -2.8544 -0.1043 -0.1457
10239TIP3   OH252207   5.673   5.692  12.214 -0.1815 -0.3957 -0.0263
10239TIP3    H152208   5.737   5.643  12.267 -0.4032 -0.8781 -0.1959
10239TIP3    H252209   5.710   5.690  12.126  0.0290  0.1311  0.0485
10240TIP3   OH252210   6.086   6.810   0.980 -0.7475 -0.9274 -0.3705
10240TIP3    H152211   6.018   6.825   0.914  0.6290  1.5859 -1.3903
10240TIP3    H252212   6.111   6.898   1.008 -0.1650 -1.8900  2.3879
10241TIP3   OH252213   4.845   4.467   2.002 -0.0595 -0.5610 -0.0072
10241TIP3    H152214   4.861   4.562   2.003  0.1904 -0.5922 -0.6779
10241TIP3    H252215   4.750   4.458   2.012 -0.0134 -0.2660  0.7534
10242TIP3   OH252216   3.510   5.286  14.411 -0.1504  0.0543 -0.6053
10242TIP3    H152217   3.526   5.220  14.478  0.2161 -0.0643 -0.8063
10242TIP3    H252218   3.552   5.251  14.332  0.0653  0.5352 -0.7090
10243TIP3   OH252219   6.260   6.547  16.007 -0.0786 -0.2945 -0.5589
10243TIP3    H152220   6.271   6.555  16.102 -1.6038  0.1353 -0.3930
10243TIP3    H252221   6.301   6.626  15.971 -1.3371  0.6130 -0.0752
10244TIP3   OH252222   6.672   2.191   0.325  0.5395  0.2271  0.0939
10244TIP3    H152223   6.579   2.210   0.312  0.5117 -0.2011 -0.3695
10244TIP3    H252224   6.678   2.160   0.416  0.7739  3.5113  1.3511
10245TIP3   OH252225   5.067   2.901   1.415  0.5034 -0.1264 -0.1914
10245TIP3    H152226   5.010   2.950   1.473 -1.0206 -1.3326 -0.6243
10245TIP3    H252227   5.030   2.813   1.412  3.5842 -1.6197  1.1746
10246TIP3   OH252228   5.983   1.181   4.191  0.5709 -0.5514  0.1090
10246TIP3    H152229   5.957   1.225   4.110 -1.3038 -1.9497 -0.1096
10246TIP3    H252230   6.034   1.247   4.238  0.8597  0.6308 -1.7466
10247TIP3   OH252231   6.383   0.157  16.940 -0.1087 -0.5048  0.3712
10247TIP3    H152232   6.350   0.186  16.855 -0.8294 -1.0525  0.4516
10247TIP3    H252233   6.345   0.070  16.952 -1.0089  0.0366  1.7770
10248TIP3   OH252234   6.621   2.684   1.376 -0.3337 -0.6467 -0.0738
10248TIP3    H152235   6.593   2.769   1.408  0.9789 -0.1995 -0.0559
10248TIP3    H252236   6.541   2.643   1.343 -1.3665 -0.3021  1.8795
10249TIP3   OH252237   2.238   0.792  15.649 -0.2414  0.2786  0.2837
10249TIP3    H152238   2.210   0.752  15.731 -1.4963 -0.4452 -0.4622
10249TIP3    H252239   2.158   0.828  15.611  0.2947  0.5140 -0.6725
10250TIP3   OH252240   2.308   0.477  16.615  0.4487 -0.1177  0.1563
10250TIP3    H152241   2.273   0.543  16.675  1.0190 -0.0455  0.4166
10250TIP3    H252242   2.234   0.453  16.560 -0.2581 -0.6518  1.3085
10251TIP3   OH252243   5.735   2.208  16.591  0.0862 -0.0562 -0.7454
10251TIP3    H152244   5.761   2.265  16.519 -0.7131 -1.1671 -1.9672
10251TIP3    H252245   5.702   2.129  16.548  1.1223 -1.4411  0.8904
10252TIP3   OH252246   4.576   1.501  12.624 -0.0153 -0.2787  0.4294
10252TIP3    H152247   4.488   1.463  12.629 -0.9411  1.7103  0.3647
10252TIP3    H252248   4.596   1.503  12.531  0.7410 -2.0299  0.5244
10253TIP3   OH252249   2.375   1.873   2.535 -0.8297 -0.1213  0.3715
10253TIP3    H152250   2.368   1.869   2.631 -0.5593 -1.4516  0.3574
10253TIP3    H252251   2.285   1.865   2.504 -0.7607 -1.5406  0.4923
10254TIP3   OH252252   2.664   3.305   5.763  0.0348 -0.3699  0.1356
10254TIP3    H152253   2.674   3.295   5.858  2.9422 -0.1891 -0.0843
10254TIP3    H252254   2.712   3.385   5.742  1.6746 -1.7759 -1.7824
10255TIP3   OH252255   2.708   1.776  12.979 -0.6082  0.0922 -0.2968
10255TIP3    H152256   2.792   1.823  12.973  1.2894 -2.9410  0.1121
10255TIP3    H252257   2.722   1.696  12.929 -2.9821 -0.9436  0.5464
10256TIP3   OH252258   0.589   2.082   6.190 -0.0203 -0.5850  0.0860
10256TIP3    H152259   0.594   2.103   6.283  0.1710 -0.7543  0.1141
10256TIP3    H252260   0.517   2.019   6.182 -0.2511 -0.3206  0.0731
10257TIP3   OH252261   0.118   6.359  13.704 -0.2699 -0.3333  0.0032
10257TIP3    H152262   0.105   6.410  13.624  0.3739 -0.4722 -0.1981
10257TIP3    H252263   0.097   6.420  13.775  0.7307  0.3015 -0.2246
10258TIP3   OH252264   2.931   6.099   2.374  0.1956  0.7248 -0.2201
10258TIP3    H152265   2.995   6.167   2.351  0.2167  0.5900 -0.5729
10258TIP3    H252266   2.857   6.146   2.412  1.1273  0.7741  1.6708
10259TIP3   OH252267   2.168   5.870  11.418  0.4318  0.3379 -0.5540
10259TIP3    H152268   2.208   5.827  11.342 -0.3962 -1.7153  0.1230
10259TIP3    H252269   2.238   5.924  11.454  2.0891 -1.7303 -0.4756
10260TIP3   OH252270   1.783   0.529  15.246 -0.4600  0.0506  0.0737
10260TIP3    H152271   1.789   0.584  15.168  1.8215  0.4418  0.4345
10260TIP3    H252272   1.695   0.493  15.244 -0.6381  0.4463 -2.4099
10261TIP3   OH252273   2.888   1.724   4.244 -0.1682 -0.7216  0.0297
10261TIP3    H152274   2.942   1.664   4.296  1.1850  0.6905  0.3473
10261TIP3    H252275   2.812   1.740   4.299  0.0564 -1.1761  0.4856
10262TIP3   OH252276   1.178   5.948  11.062 -0.1818  0.8656 -0.1682
10262TIP3    H152277   1.140   6.001  11.132  0.1429  0.5268  0.2707
10262TIP3    H252278   1.260   5.915  11.099 -0.5932 -0.2991 -0.2722
10263TIP3   OH252279   6.712   0.747  13.974  0.2099 -0.5282 -0.3890
10263TIP3    H152280   6.653   0.806  14.023  0.4214 -1.5414  1.1521
10263TIP3    H252281   6.664   0.728  13.893 -0.9742 -0.2252  0.2119
10264TIP3   OH252282   5.112   2.564   0.263 -0.4043  0.2690  0.5066
10264TIP3    H152283   5.030   2.612   0.248 -1.6828 -1.5811  1.1492
10264TIP3    H252284   5.147   2.548   0.175 -0.8048  0.9238  0.2157
10265TIP3   OH252285   1.596   6.830   5.426 -0.3440 -0.4027 -0.3247
10265TIP3    H152286   1.650   6.907   5.411 -0.3315 -0.0851  1.2304
10265TIP3    H252287   1.585   6.791   5.339 -0.8634  1.6785 -1.2543
10266TIP3   OH252288   2.286   2.532   3.930  0.5141  0.2451  0.0079
10266TIP3    H152289   2.337   2.500   3.856  0.8687 -1.7352  1.0301
10266TIP3    H252290   2.282   2.458   3.990 -1.4646  1.1512  1.0963
10267TIP3   OH252291   3.428   3.650   3.076 -0.9931  0.1657  0.3902
10267TIP3    H152292   3.468   3.603   3.148 -2.1106 -0.5693  0.5586
10267TIP3    H252293   3.337   3.663   3.103 -2.2989 -2.7049 -1.9955
10268TIP3   OH252294   5.505   1.303   2.964 -0.2153  0.8717 -0.8022
10268TIP3    H152295   5.476   1.273   2.879 -0.6814  1.0627 -0.7124
10268TIP3    H252296   5.504   1.399   2.958 -0.4773  0.8900 -0.5077
10269TIP3   OH252297   6.016   3.003  15.613 -0.1890 -0.3975  0.2836
10269TIP3    H152298   5.993   3.021  15.705 -0.0706 -0.0363  0.2445
10269TIP3    H252299   5.936   2.967  15.575 -0.7916  1.0667  0.0867
10270TIP3   OH252300   0.225   6.647  13.676 -0.3204 -0.6422  0.1646
10270TIP3    H152301   0.241   6.661  13.582  1.2066 -1.0552  0.3317
10270TIP3    H252302   0.295   6.588  13.703  0.3535  0.8883  1.9416
10271TIP3   OH252303   4.539   3.015   4.829 -0.0693  0.2137  0.3842
10271TIP3    H152304   4.457   2.970   4.851 -0.5826 -0.1025 -1.9122
10271TIP3    H252305   4.513   3.081   4.765  1.4807  0.0935 -0.4067
10272TIP3   OH252306   1.181   2.459   2.521  0.1321  0.5177 -0.4697
10272TIP3    H152307   1.141   2.476   2.606  0.8511 -0.0651 -0.0067
10272TIP3    H252308   1.245   2.389   2.537 -0.9890 -0.8947 -1.8354
10273TIP3   OH252309   2.016   6.598  12.794 -0.0615 -0.0637 -0.2245
10273TIP3    H152310   2.051   6.686  12.788  1.1484 -0.5929 -1.3668
10273TIP3    H252311   1.994   6.587  12.886  1.5294  0.7797  0.2859
10274TIP3   OH252312   2.467   2.241   1.453 -0.1658  0.3400 -0.2202
10274TIP3    H152313   2.550   2.195   1.442 -0.3050 -0.0199  0.1913
10274TIP3    H252314   2.442   2.224   1.544 -2.3273 -2.3507 -1.1776
10275TIP3   OH252315   6.758   2.204   0.997  0.0456 -0.0692  0.3486
10275TIP3    H152316   6.785   2.126   1.045 -1.8525 -0.2798  1.1732
10275TIP3    H252317   6.712   2.170   0.920 -0.8231  0.2105  0.7319
10276TIP3   OH252318   4.528   1.256  17.015  0.3414  0.6823 -0.0944
10276TIP3    H152319   4.456   1.312  17.043 -0.1361 -0.5287  1.1929
10276TIP3    H252320   4.537   1.191  17.084  0.7627 -0.9554 -1.6068
10277TIP3   OH252321   3.878   6.244   2.513  0.1362 -0.3457  0.1763
10277TIP3    H152322   3.962   6.229   2.556  0.0106 -0.0174  0.5371
10277TIP3    H252323   3.822   6.282   2.581 -1.0264 -2.6697  0.6234
10278TIP3   OH252324   3.771   4.590  13.701 -0.0724  0.4753  0.0685
10278TIP3    H152325   3.718   4.669  13.693  0.7536  1.0253  0.0305
10278TIP3    H252326   3.822   4.587  13.621 -2.1721 -1.6674 -1.3555
10279TIP3   OH252327   3.938   6.407   4.863  0.1507 -0.0843  0.1123
10279TIP3    H152328   3.897   6.492   4.882 -1.2177  0.0424 -2.8600
10279TIP3    H252329   4.030   6.428   4.849  0.6085  0.2445  3.0453
10280TIP3   OH252330   1.989   5.101  15.349 -0.2416  0.1296  0.2967
10280TIP3    H152331   1.932   5.126  15.421 -0.8922  0.3425 -0.2763
10280TIP3    H252332   1.938   5.121  15.270  1.1273  1.6274 -0.2793
10281TIP3   OH252333   5.259   1.733  14.979 -0.4739 -0.2390 -0.2143
10281TIP3    H152334   5.256   1.698  14.890 -0.1317  1.5320 -0.9674
10281TIP3    H252335   5.335   1.691  15.018  0.3291  0.1530 -1.3093
10282TIP3   OH252336   2.397   1.296   1.569 -0.0736 -0.0659 -0.1600
10282TIP3    H152337   2.306   1.274   1.590  0.1419 -1.2400 -0.3608
10282TIP3    H252338   2.443   1.212   1.573  1.0192  0.5255  0.0007
10283TIP3   OH252339   0.368   1.414  15.286  0.0783 -0.2455  0.2835
10283TIP3    H152340   0.343   1.369  15.205 -1.7165 -1.7298  1.5784
10283TIP3    H252341   0.459   1.439  15.272  0.7325 -3.0449 -1.1027
10284TIP3   OH252342   1.312   0.888   0.230  0.5654 -0.0397 -0.1691
10284TIP3    H152343   1.231   0.840   0.246  0.8354 -0.6413 -0.5499
10284TIP3    H252344   1.351   0.843   0.155  1.7280 -0.3846  0.6112
10285TIP3   OH252345   6.430   5.461  13.380 -0.7091 -0.5746 -0.2884
10285TIP3    H152346   6.484   5.463  13.301  1.3166 -0.1267  1.0179
10285TIP3    H252347   6.434   5.551  13.413  0.0895 -1.1718  1.3124
10286TIP3   OH252348   4.476   1.021   4.040 -0.0771 -0.2583 -0.1091
10286TIP3    H152349   4.555   1.065   4.070 -0.6176  0.4485  0.2911
10286TIP3    H252350   4.461   0.952   4.105  1.0818 -1.4340 -1.0376
10287TIP3   OH252351   5.282   4.289   4.119  0.8236  0.4051 -0.1953
10287TIP3    H152352   5.292   4.372   4.073 -0.9465  0.2241 -0.9662
10287TIP3    H252353   5.274   4.224   4.049  1.3030 -0.3061  0.3970
10288TIP3   OH252354   2.384   5.100   0.263  0.4181 -0.0632 -0.0778
10288TIP3    H152355   2.461   5.062   0.218  1.1345  0.4739  0.6719
10288TIP3    H252356   2.313   5.038   0.244  1.4075 -1.4606  0.5778
10289TIP3   OH252357   3.663   1.868  14.951 -0.3824  0.4406 -0.2868
10289TIP3    H152358   3.733   1.925  14.922  0.2692 -1.1615 -2.1117
10289TIP3    H252359   3.708   1.794  14.994 -0.9795 -0.1875 -0.7152
10290TIP3   OH252360   6.597   5.018  13.760 -0.6843 -0.0856  0.0273
10290TIP3    H152361   6.552   5.100  13.742  0.9222  0.6938 -0.6082
10290TIP3    H252362   6.681   5.043  13.799 -0.6943 -1.4843  1.0601
10291TIP3   OH252363   4.175   0.666  11.390 -0.1123  0.3887 -0.6110
10291TIP3    H152364   4.221   0.619  11.321  1.8137  3.3900 -1.5854
10291TIP3    H252365   4.095   0.616  11.405 -0.0647 -1.0444 -4.2161
10292TIP3   OH252366   4.092   2.216  13.494 -0.4296  0.0530  0.8339
10292TIP3    H152367   4.037   2.138  13.482 -0.5229 -0.0192  1.6457
10292TIP3    H252368   4.102   2.252  13.406 -0.7799 -0.6118  0.5126
10293TIP3   OH252369   4.309   3.085  15.177 -0.8903  0.6316  0.4170
10293TIP3    H152370   4.395   3.123  15.160 -0.8301  0.5891  0.6297
10293TIP3    H252371   4.264   3.149  15.232 -0.8994  0.5329  0.5240
10294TIP3   OH252372   0.846   0.656   0.340  0.2235 -0.0991  0.3701
10294TIP3    H152373   0.925   0.624   0.383 -0.1265 -0.1658  0.9736
10294TIP3    H252374   0.878   0.705   0.264  0.7635 -2.2371 -0.8580
10295TIP3   OH252375   2.018   0.364   4.239  0.4048 -0.6177  0.0689
10295TIP3    H152376   1.968   0.424   4.294  0.9181  0.7063 -0.8516
10295TIP3    H252377   2.081   0.420   4.194  0.9168 -1.8610 -0.8199
10296TIP3   OH252378   4.147   1.207  11.594 -0.0437  0.2696 -0.3961
10296TIP3    H152379   4.239   1.210  11.568  0.6689 -1.6047  1.6394
10296TIP3    H252380   4.115   1.296  11.579  3.3289  2.3519  2.8617
10297TIP3   OH252381   3.398   2.331   0.674 -0.0862  0.2523  0.1184
10297TIP3    H152382   3.448   2.341   0.593 -0.7026  0.9897 -0.1884
10297TIP3    H252383   3.458   2.358   0.744 -0.0615  1.1794 -0.2496
10298TIP3   OH252384   0.367   1.216   0.146 -0.3267  0.2534 -0.3935
10298TIP3    H152385   0.299   1.262   0.194  0.5994  0.6333  0.5897
10298TIP3    H252386   0.432   1.193   0.212  0.1881 -0.6912 -1.2013
10299TIP3   OH252387   6.161   5.208  17.080  0.0447  0.0154  0.1802
10299TIP3    H152388   6.080   5.242  17.119  0.9313  1.0387  1.2006
10299TIP3    H252389   6.179   5.128  17.129 -0.0469  0.0949  0.3457
10300TIP3   OH252390   2.186   1.268  10.859 -0.2607  0.3276  0.5675
10300TIP3    H152391   2.110   1.291  10.806 -0.5009 -0.3349  0.6100
10300TIP3    H252392   2.150   1.231  10.939  0.1051  0.2828  0.7161
10301TIP3   OH252393   3.850   4.763   2.522 -0.0912 -0.6605 -0.2950
10301TIP3    H152394   3.824   4.794   2.435 -0.0341 -0.5432 -0.2704
10301TIP3    H252395   3.799   4.815   2.583  0.1588 -0.4694 -0.2484
10302TIP3   OH252396   3.628   6.677  12.372  0.4298 -0.3455 -0.3148
10302TIP3    H152397   3.710   6.721  12.395  0.1148 -1.3166  3.1977
10302TIP3    H252398   3.560   6.732  12.411 -0.4425 -0.7722 -1.1973
10303TIP3   OH252399   4.733   1.117  15.515  0.1905 -0.0762 -0.1101
10303TIP3    H152400   4.710   1.199  15.559 -0.6125 -0.4729  0.2464
10303TIP3    H252401   4.761   1.059  15.585  3.5186  0.7202 -0.6317
10304TIP3   OH252402   3.180   6.558  15.803 -0.7608 -0.0144  1.1767
10304TIP3    H152403   3.139   6.586  15.885  0.7333  1.3115  1.5302
10304TIP3    H252404   3.255   6.505  15.831 -0.5649 -0.0124  0.6666
10305TIP3   OH252405   4.008   3.366  15.626  0.1667 -0.0157  0.3665
10305TIP3    H152406   3.967   3.279  15.625  0.7197 -0.2766  0.1443
10305TIP3    H252407   4.009   3.393  15.534  0.2707  0.0991  0.4015
10306TIP3   OH252408   1.730   5.099  14.843 -0.2719  0.0184 -0.1289
10306TIP3    H152409   1.809   5.053  14.816 -0.3829  1.0985 -2.6167
10306TIP3    H252410   1.661   5.033  14.841  0.3254 -0.6588  0.8693
10307TIP3   OH252411   4.771   6.319   5.296 -0.9574  0.7184 -0.1675
10307TIP3    H152412   4.811   6.237   5.267 -1.2794  0.3487  0.4166
10307TIP3    H252413   4.770   6.313   5.392  0.8630  2.2758  0.0348
10308TIP3   OH252414   6.689   6.771   5.955 -0.0909 -0.1211  0.7733
10308TIP3    H152415   6.720   6.707   5.890  0.6170  0.8911  0.0945
10308TIP3    H252416   6.750   6.761   6.028  1.5326  1.4003 -0.2916
10309TIP3   OH252417   1.729   0.906   3.547 -0.0878 -0.6321  0.1389
10309TIP3    H152418   1.701   0.987   3.589  0.8062 -0.2098 -0.0592
10309TIP3    H252419   1.758   0.933   3.460 -1.2029 -1.3898 -0.4948
10310TIP3   OH252420   1.338   5.503   0.465  0.1366 -0.5716  0.5111
10310TIP3    H152421   1.309   5.475   0.552  1.8313 -1.0585  0.9574
10310TIP3    H252422   1.428   5.534   0.479 -0.2652  1.2648 -0.7200
10311TIP3   OH252423   4.529   5.410   3.359 -0.4848  0.0120 -0.2680
10311TIP3    H152424   4.470   5.484   3.344 -1.4253 -0.3721  1.2786
10311TIP3    H252425   4.600   5.422   3.295 -2.4442  0.2213 -2.5118
10312TIP3   OH252426   6.739   0.604   4.388  0.4916  0.4399 -0.8637
10312TIP3    H152427   6.731   0.672   4.322 -0.2098 -0.2470 -1.5077
10312TIP3    H252428   6.650   0.592   4.422  0.5394 -0.3515 -0.9816
10313TIP3   OH252429   6.171   0.809   0.501 -0.1443  0.2847 -0.6402
10313TIP3    H152430   6.206   0.880   0.554 -0.7076 -0.4764  0.8013
10313TIP3    H252431   6.080   0.799   0.530  0.3952 -2.1241  0.4728
10314TIP3   OH252432   3.615   6.572   3.159 -0.2516 -0.8495  0.3596
10314TIP3    H152433   3.707   6.558   3.135 -0.1058  2.4432 -1.4809
10314TIP3    H252434   3.566   6.532   3.088  0.0388  2.6300 -2.0269
10315TIP3   OH252435   2.668   4.990  15.010  0.1635 -0.0336  0.6093
10315TIP3    H152436   2.727   4.917  14.992 -0.4187 -0.5907  0.9306
10315TIP3    H252437   2.725   5.067  15.008  0.5463 -0.3122 -1.1990
10316TIP3   OH252438   2.575   3.393  16.802  0.4767  0.1466  0.1312
10316TIP3    H152439   2.519   3.342  16.860  1.1860 -0.3975  0.3478
10316TIP3    H252440   2.583   3.340  16.723  0.9002  0.0914  0.2083
10317TIP3   OH252441   5.815   0.920   0.342 -0.2623 -0.2619 -0.2870
10317TIP3    H152442   5.720   0.911   0.344 -0.3927  0.6925 -1.2217
10317TIP3    H252443   5.844   0.892   0.429 -1.4683  0.2062  0.2867
10318TIP3   OH252444   4.597   0.270   4.163  0.5268  0.5049  0.3056
10318TIP3    H152445   4.527   0.278   4.227  1.1766 -1.4009  1.3280
10318TIP3    H252446   4.551   0.256   4.080 -0.3045  1.7155  0.5317
10319TIP3   OH252447   5.407   0.173   0.344  0.1591  0.1301 -0.0338
10319TIP3    H152448   5.399   0.133   0.257 -0.9121 -0.8568  0.4856
10319TIP3    H252449   5.464   0.112   0.392  0.0286  0.2019  0.2120
10320TIP3   OH252450   4.415   2.913   2.338 -0.0499  0.6161 -0.1519
10320TIP3    H152451   4.441   3.005   2.341 -2.2798  1.4633 -2.4043
10320TIP3    H252452   4.340   2.912   2.278  0.4041 -2.8048 -0.8500
10321TIP3   OH252453   2.147   2.196   0.165 -0.1690  0.1516  0.2263
10321TIP3    H152454   2.053   2.182   0.166  0.0019 -2.1270 -2.7266
10321TIP3    H252455   2.184   2.113   0.136  2.5414  1.6340 -0.9729
10322TIP3   OH252456   6.694   0.299   4.070  0.2363 -0.6575  0.3727
10322TIP3    H152457   6.660   0.380   4.032  1.5744 -0.8682 -1.4029
10322TIP3    H252458   6.765   0.328   4.127  0.2034 -0.5191  0.3444
10323TIP3   OH252459   0.824   3.749   1.543  0.0509  0.6047  0.5530
10323TIP3    H152460   0.902   3.704   1.513  0.4865  1.3245  0.5689
10323TIP3    H252461   0.769   3.681   1.581  0.9359  0.1730  1.0873
10324TIP3   OH252462   1.489   5.892   0.321  0.1919  0.1170  0.4541
10324TIP3    H152463   1.485   5.950   0.245  0.4160  0.9094  1.0415
10324TIP3    H252464   1.403   5.851   0.324  1.0788 -2.2002 -1.9646
10325TIP3   OH252465   0.868   5.916   2.811  0.2267 -0.7012  0.4361
10325TIP3    H152466   0.842   5.964   2.732 -1.1813 -1.0486  0.6567
10325TIP3    H252467   0.961   5.937   2.822 -0.2463  1.7678  0.3812
10326TIP3   OH252468   0.253   0.176   2.631 -0.3990  0.1073  0.3822
10326TIP3    H152469   0.279   0.266   2.608 -0.1098 -0.0893 -0.0635
10326TIP3    H252470   0.336   0.129   2.638 -0.4509  0.1961  2.0195
10327TIP3   OH252471   4.053   0.265  15.955  0.1382 -0.4733 -0.0008
10327TIP3    H152472   4.036   0.206  15.881 -0.1621 -0.5939  0.1656
10327TIP3    H252473   4.077   0.348  15.914  0.8223 -0.7791 -0.2419
10328TIP3   OH252474   0.228   3.893  13.827  0.3569 -0.5481 -0.2866
10328TIP3    H152475   0.211   3.910  13.920  1.0029 -0.8907 -0.1060
10328TIP3    H252476   0.300   3.831  13.826  0.0517 -0.9027 -1.0150
10329TIP3   OH252477   3.412   2.964  12.402 -0.2006 -0.3801 -0.0968
10329TIP3    H152478   3.321   2.935  12.413 -0.0089 -1.3089 -0.8402
10329TIP3    H252479   3.443   2.918  12.324  0.8304  0.1271 -0.0057
10330TIP3   OH252480   1.163   0.202   2.074  0.6332  0.2947  0.1531
10330TIP3    H152481   1.199   0.148   2.144  1.1574  0.1930 -0.1937
10330TIP3    H252482   1.070   0.180   2.072  0.2846  1.4023  1.8319
10331TIP3   OH252483   2.770   6.510  16.980 -0.4566 -0.0179 -0.0317
10331TIP3    H152484   2.814   6.455  17.045  0.3306  0.0898 -0.4514
10331TIP3    H252485   2.833   6.516  16.908 -0.7187  1.0554 -0.1847
10332TIP3   OH252486   5.787   5.569  13.237 -0.3831  0.1924 -0.0447
10332TIP3    H152487   5.746   5.483  13.248  0.0267  0.0042  0.0032
10332TIP3    H252488   5.877   5.550  13.210 -0.3909  0.6092 -0.3764
10333TIP3   OH252489   0.295   3.642  11.602 -0.1771 -0.5988  0.6341
10333TIP3    H152490   0.371   3.600  11.642  0.7337 -0.3201 -0.7331
10333TIP3    H252491   0.283   3.594  11.519  0.1038  0.9773 -0.3569
10334TIP3   OH252492   0.017   2.085  10.834  0.0977  0.0266  0.3506
10334TIP3    H152493   0.034   2.013  10.773  2.8703  0.4548  0.4768
10334TIP3    H252494  -0.057   2.055  10.887 -1.4666 -0.9683 -2.2048
10335TIP3   OH252495   5.801   6.523   1.700 -0.1975  0.1352 -1.0585
10335TIP3    H152496   5.737   6.594   1.701 -0.5851 -0.2097 -1.0570
10335TIP3    H252497   5.792   6.485   1.612 -0.7953 -0.6295 -0.6740
10336TIP3   OH252498   0.774   6.704   0.454 -0.3778 -0.3096  0.6988
10336TIP3    H152499   0.790   6.787   0.498 -1.6542  0.7359 -0.6902
10336TIP3    H252500   0.783   6.638   0.522 -1.0677  1.1137  2.2407
10337TIP3   OH252501   2.991   4.928   4.459  0.5103 -0.0637  0.4025
10337TIP3    H152502   2.951   4.871   4.394  0.6324 -1.6824  1.6794
10337TIP3    H252503   3.080   4.943   4.427 -0.1560  1.1745 -0.9842
10338TIP3   OH252504   5.502   0.545   3.316  0.0435 -0.7600 -0.4326
10338TIP3    H152505   5.431   0.596   3.277  1.0655  2.6287  1.7212
10338TIP3    H252506   5.581   0.575   3.271  0.6421 -0.4874  0.7417
10339TIP3   OH252507   1.819   5.433   1.148  0.5304 -0.0275 -0.5783
10339TIP3    H152508   1.847   5.459   1.236 -0.2179  0.9864 -0.6182
10339TIP3    H252509   1.897   5.445   1.094  2.0337 -3.8402  0.4490
10340TIP3   OH252510   2.142   6.397  14.452 -0.0500 -0.3911  0.8935
10340TIP3    H152511   2.227   6.427  14.484  0.1338  0.0545  0.0440
10340TIP3    H252512   2.126   6.452  14.375 -0.5102 -1.3421  0.3014
10341TIP3   OH252513   5.829   2.708  13.848 -0.4175 -0.7032  0.0578
10341TIP3    H152514   5.899   2.773  13.838 -2.5711  1.5258 -1.5709
10341TIP3    H252515   5.790   2.728  13.933 -0.1892 -0.7767  0.1791
10342TIP3   OH252516   3.432   4.272   1.442  0.2749 -0.6738  0.0315
10342TIP3    H152517   3.517   4.239   1.471  0.5619  1.1266  1.4272
10342TIP3    H252518   3.449   4.362   1.414 -1.1588 -0.2689  0.3565
10343TIP3   OH252519   2.728   3.196   6.495 -0.2452  0.0077  0.6744
10343TIP3    H152520   2.771   3.150   6.423 -3.9620  0.4040 -2.1484
10343TIP3    H252521   2.799   3.234   6.546  2.6872 -1.2421 -2.1454
10344TIP3   OH252522   5.381   1.140   0.035 -1.0153  0.8018  0.2395
10344TIP3    H152523   5.290   1.156   0.010 -1.6864 -0.5498  1.6451
10344TIP3    H252524   5.407   1.063  -0.017 -0.5606  1.3406 -0.3560
10345TIP3   OH252525   5.725   0.295   2.521 -0.4236  0.5826 -0.1254
10345TIP3    H152526   5.810   0.337   2.535 -0.3703  0.2530  0.6074
10345TIP3    H252527   5.663   0.367   2.514 -0.1691  0.8126 -0.0333
10346TIP3   OH252528   3.689   2.312   1.203  0.1814 -1.0539 -0.6400
10346TIP3    H152529   3.637   2.233   1.213 -1.4812 -0.0939 -1.3221
10346TIP3    H252530   3.651   2.374   1.265 -0.0683 -0.0584 -1.7429
10347TIP3   OH252531   2.318   0.371   1.028 -0.3422  0.4510  0.2206
10347TIP3    H152532   2.311   0.432   0.954  2.8061 -0.1826 -0.7213
10347TIP3    H252533   2.316   0.427   1.106 -3.7928  1.1255 -0.1919
10348TIP3   OH252534   4.763   0.326  14.179  0.7291 -0.0411 -0.1705
10348TIP3    H152535   4.856   0.320  14.154  0.7457 -2.7161  0.2251
10348TIP3    H252536   4.718   0.270  14.116 -0.0611 -1.8663  1.8918
10349TIP3   OH252537   1.830   3.265   2.021 -1.3248  0.1460 -0.5501
10349TIP3    H152538   1.899   3.314   2.067  0.2177 -0.8796 -1.6949
10349TIP3    H252539   1.761   3.253   2.087 -0.1941  0.7362  0.7830
10350TIP3   OH252540   4.623   1.350  13.366  0.8902 -0.0520 -0.7177
10350TIP3    H152541   4.594   1.280  13.425  0.0706 -0.1842 -1.2609
10350TIP3    H252542   4.649   1.304  13.286  2.8972  0.0303 -0.1797
10351TIP3   OH252543   6.122   2.068   3.906  0.0390 -0.0003 -0.0419
10351TIP3    H152544   6.098   2.013   3.981 -1.8325 -0.3007 -0.7913
10351TIP3    H252545   6.075   2.028   3.832  0.5104  1.2551 -1.0450
10352TIP3   OH252546   4.294   2.323   2.883 -0.0340 -0.4051 -0.0304
10352TIP3    H152547   4.373   2.289   2.841  0.2382 -0.1086  0.2395
10352TIP3    H252548   4.320   2.340   2.973 -0.7815 -1.6512  0.4577
10353TIP3   OH252549   2.435   2.184  14.347  0.0968  0.0796  0.0672
10353TIP3    H152550   2.353   2.135  14.342  0.4651 -0.6636  1.0358
10353TIP3    H252551   2.469   2.184  14.257  0.2132 -1.6686  0.0779
10354TIP3   OH252552   3.603   2.198  14.008 -0.2238 -0.1685 -0.3234
10354TIP3    H152553   3.691   2.180  13.976 -0.2365 -1.2143  0.1666
10354TIP3    H252554   3.593   2.140  14.084 -1.4136 -0.2541 -0.5228
10355TIP3   OH252555   1.660   0.745  15.699  1.1679 -0.3708 -0.7473
10355TIP3    H152556   1.755   0.734  15.703  1.2364  0.4041  1.3988
10355TIP3    H252557   1.627   0.657  15.679  2.3375 -0.2720 -3.5637
10356TIP3   OH252558   1.601   3.986  16.489  0.4437  0.1077 -0.2226
10356TIP3    H152559   1.578   4.079  16.491  0.4523  0.1487 -1.4662
10356TIP3    H252560   1.696   3.986  16.478  0.3776 -0.0311 -0.8528
10357TIP3   OH252561   0.514   6.682   0.371 -0.3992  0.0191 -0.1936
10357TIP3    H152562   0.602   6.686   0.334 -0.7403  0.6705 -0.9556
10357TIP3    H252563   0.526   6.693   0.465  0.5186 -1.9724 -0.0282
10358TIP3   OH252564   5.624   6.514  16.192 -0.2723 -0.0171  0.4724
10358TIP3    H152565   5.678   6.592  16.207  0.4146 -0.1343 -1.2231
10358TIP3    H252566   5.560   6.541  16.127  0.0129 -0.8807 -0.1716
10359TIP3   OH252567   1.196   0.354  16.031 -0.1469 -0.4422  0.6666
10359TIP3    H152568   1.187   0.441  15.992  0.7152 -1.5325 -2.2387
10359TIP3    H252569   1.279   0.357  16.078 -0.4493  0.4891  1.1607
10360TIP3   OH252570   5.104   3.364  15.395 -0.0376  0.4002  0.0014
10360TIP3    H152571   5.110   3.370  15.300  1.4008  3.1976  0.1746
10360TIP3    H252572   5.163   3.432  15.428 -1.2801  0.2538  2.8852
10361TIP3   OH252573   2.250   3.709  16.176  0.2271  0.3977  0.3054
10361TIP3    H152574   2.269   3.652  16.101 -2.4301 -1.0541  0.6094
10361TIP3    H252575   2.199   3.781  16.138 -2.9794 -1.4084  0.8183
10362TIP3   OH252576   2.854   4.129   2.364 -0.1717 -0.0680 -0.3109
10362TIP3    H152577   2.946   4.112   2.344 -0.3050  0.2341 -1.2264
10362TIP3    H252578   2.824   4.050   2.409  0.9453  0.4679  1.4649
10363TIP3   OH252579   4.243   2.748  15.987  0.6698  0.4013  0.6116
10363TIP3    H152580   4.227   2.679  16.051  0.0078  0.8671  0.9651
10363TIP3    H252581   4.213   2.828  16.030 -3.5736  0.3093 -1.6612
10364TIP3   OH252582   5.455   1.988  10.789 -0.0811  0.2112 -0.0672
10364TIP3    H152583   5.408   2.055  10.839  2.4969  1.1779  1.2122
10364TIP3    H252584   5.521   2.037  10.740  0.8680 -1.2616 -0.3156
10365TIP3   OH252585   3.276   2.266  16.458  0.1359 -0.4121 -0.1635
10365TIP3    H152586   3.327   2.344  16.482  0.6727 -1.3738  2.1160
10365TIP3    H252587   3.336   2.193  16.471 -0.7547 -1.3304 -0.9830
10366TIP3   OH252588   1.405   6.699   3.974 -0.6098 -0.0682 -0.2187
10366TIP3    H152589   1.408   6.774   4.033 -0.3466  0.5601 -1.0178
10366TIP3    H252590   1.323   6.709   3.926 -0.2290  0.1187 -0.8448
10367TIP3   OH252591   0.518   5.882   5.391  0.2364 -0.1568  0.1595
10367TIP3    H152592   0.491   5.960   5.342  0.3681 -0.7187 -0.8241
10367TIP3    H252593   0.589   5.912   5.447  1.7596  0.0201 -1.7492
10368TIP3   OH252594   1.828   3.718  12.400 -0.5978 -0.4686 -0.1416
10368TIP3    H152595   1.919   3.745  12.411 -0.6799 -0.0770 -0.4176
10368TIP3    H252596   1.782   3.751  12.477 -0.3588 -1.3412  0.3876
10369TIP3   OH252597   4.991   1.987   0.890 -0.0775  0.3462  0.0707
10369TIP3    H152598   5.033   1.963   0.808 -0.1055 -0.8673  0.3953
10369TIP3    H252599   5.010   2.081   0.900  0.8872  0.2568 -0.7513
10370TIP3   OH252600   5.626   1.492  16.574 -0.4094  0.0230 -0.0302
10370TIP3    H152601   5.545   1.522  16.532 -0.5801 -0.4965 -0.0754
10370TIP3    H252602   5.598   1.422  16.633 -0.0334  0.0535  0.1893
10371TIP3   OH252603   3.065   3.908   4.849 -0.1609 -0.1739 -0.1068
10371TIP3    H152604   2.979   3.944   4.871 -0.2242 -1.0325  1.1623
10371TIP3    H252605   3.056   3.814   4.861  0.8112 -0.3353 -0.5043
10372TIP3   OH252606   3.388   3.429  15.994  0.5155  0.2642  0.4433
10372TIP3    H152607   3.400   3.336  16.017  0.2192  0.1856  0.2788
10372TIP3    H252608   3.339   3.466  16.067 -1.0775 -0.1522 -0.3725
10373TIP3   OH252609   6.630   6.030   3.123 -0.3304 -0.8241 -0.1520
10373TIP3    H152610   6.635   5.934   3.120  0.9791 -0.7956  0.5032
10373TIP3    H252611   6.706   6.060   3.074  0.8572 -0.1794  1.9316
10374TIP3   OH252612   1.625   5.862   1.582  0.1704 -0.1227  0.3943
10374TIP3    H152613   1.633   5.928   1.651  0.5603  1.1007 -0.7664
10374TIP3    H252614   1.548   5.889   1.533 -1.1761 -2.0179  1.3757
10375TIP3   OH252615   3.992   0.408  11.150  0.4392 -0.2459 -0.6349
10375TIP3    H152616   3.930   0.345  11.113 -0.2559  0.0787 -0.0382
10375TIP3    H252617   3.981   0.487  11.098  0.9281 -0.4386 -1.0387
10376TIP3   OH252618   1.070   1.762   4.982 -0.1465  0.1737 -0.1607
10376TIP3    H152619   1.049   1.792   4.894 -0.1001 -0.6452 -0.4678
10376TIP3    H252620   1.166   1.759   4.984 -0.1287  0.8544  0.1560
10377TIP3   OH252621   6.333   2.070  10.524  0.4567  0.1732  0.0734
10377TIP3    H152622   6.266   2.002  10.526  1.4436 -0.8302 -0.2362
10377TIP3    H252623   6.402   2.038  10.581  1.7381  0.0351 -1.4751
10378TIP3   OH252624   1.129   4.916   5.816 -0.3234 -0.5251  0.0601
10378TIP3    H152625   1.071   4.968   5.871  0.1635  0.2258 -0.1317
10378TIP3    H252626   1.170   4.979   5.757 -0.0326 -1.1767 -0.4488
10379TIP3   OH252627   5.203   0.871  12.179  0.3644  0.3769 -0.2751
10379TIP3    H152628   5.233   0.804  12.240  0.0054  0.2793 -0.2043
10379TIP3    H252629   5.166   0.822  12.106  1.0925  0.4922 -0.7222
10380TIP3   OH252630   4.928   5.087   0.873  0.1851  0.1843  0.5105
10380TIP3    H152631   4.839   5.066   0.899 -1.3490  3.2843 -1.5229
10380TIP3    H252632   4.978   5.087   0.954 -2.2756  0.8427  2.1451
10381TIP3   OH252633   6.329   4.532   1.347 -0.6397 -0.1740 -0.2025
10381TIP3    H152634   6.400   4.593   1.366  0.4133 -1.2936 -0.4339
10381TIP3    H252635   6.264   4.547   1.416  0.4666 -0.1126  0.8433
10382TIP3   OH252636   6.353   6.662  12.541  0.6815  0.1819  0.8474
10382TIP3    H152637   6.282   6.699  12.490 -0.8772  0.6630  3.2009
10382TIP3    H252638   6.428   6.718  12.522  0.1353  0.3974 -0.7668
10383TIP3   OH252639   0.042   1.464   5.054 -0.4091 -0.1923 -0.1075
10383TIP3    H152640  -0.027   1.427   4.999  0.2697  0.6136 -1.5750
10383TIP3    H252641  -0.004   1.511   5.123 -1.2865 -1.9027  0.5497
10384TIP3   OH252642   3.685   0.161   5.069 -0.2922  0.0195  0.0669
10384TIP3    H152643   3.640   0.240   5.039 -0.4984 -0.5383 -1.1290
10384TIP3    H252644   3.766   0.159   5.018  0.7107  0.5426  1.5736
10385TIP3   OH252645   0.219   6.296  15.081 -0.5748 -0.0054 -0.1988
10385TIP3    H152646   0.137   6.309  15.033 -0.5719 -3.4037 -1.3770
10385TIP3    H252647   0.195   6.237  15.153  0.6710 -0.5001 -0.1660
10386TIP3   OH252648   4.745   4.562  11.094 -0.3169 -0.2088 -0.5967
10386TIP3    H152649   4.678   4.497  11.117  0.2408 -1.2971 -1.8776
10386TIP3    H252650   4.727   4.583  11.002  0.4440  0.3056 -0.6358
10387TIP3   OH252651   4.449   4.961   0.939 -0.7306 -0.6924 -0.0419
10387TIP3    H152652   4.498   4.948   0.858 -1.1240 -1.5639 -0.1428
10387TIP3    H252653   4.363   4.922   0.923 -0.8590 -0.7556  0.7458
10388TIP3   OH252654   4.819   3.389  15.080 -0.0623  0.0633 -0.4176
10388TIP3    H152655   4.817   3.388  14.984  0.3664  1.0923 -0.4503
10388TIP3    H252656   4.764   3.463  15.105 -0.8792 -0.7226  0.1766
10389TIP3   OH252657   6.374   0.431  16.748  0.6261 -0.3862 -0.4757
10389TIP3    H152658   6.352   0.339  16.737 -0.4733 -0.0862 -0.9483
10389TIP3    H252659   6.366   0.468  16.660  0.1744  0.3403 -0.1378
10390TIP3   OH252660   2.182   0.070   2.973 -0.1296  0.6475  0.4329
10390TIP3    H152661   2.229   0.045   3.052 -1.2165  0.7154  1.1208
10390TIP3    H252662   2.109   0.123   3.004 -2.5928 -2.1146 -0.2389
10391TIP3   OH252663   1.683   3.982   1.631 -0.3170 -0.2147  0.1174
10391TIP3    H152664   1.713   4.070   1.652  1.7378 -0.7461 -0.4125
10391TIP3    H252665   1.739   3.954   1.559 -0.9711 -1.9416  0.2430
10392TIP3   OH252666   3.697   4.023  12.987  0.0785 -0.4580 -0.0276
10392TIP3    H152667   3.637   3.949  12.998 -0.0993 -0.3381 -0.1902
10392TIP3    H252668   3.768   3.988  12.932 -0.8925 -0.0219 -1.6321
10393TIP3   OH252669   6.153   2.419   3.698  0.6526 -0.3582  0.3564
10393TIP3    H152670   6.117   2.342   3.655  0.4057  0.4280 -0.8836
10393TIP3    H252671   6.105   2.493   3.660 -0.9735  0.2992  3.3415
10394TIP3   OH252672   3.778   3.752  14.527 -0.0834  0.0758 -0.4821
10394TIP3    H152673   3.690   3.718  14.509 -0.7834  0.4473  1.8143
10394TIP3    H252674   3.765   3.846  14.536  0.6597  0.1977 -0.6697
10395TIP3   OH252675   2.789   1.415  15.983 -0.0349  0.5390 -0.0094
10395TIP3    H152676   2.849   1.361  16.033 -0.1273 -0.6326 -1.1217
10395TIP3    H252677   2.702   1.386  16.010 -0.1025 -1.0421 -1.7473
10396TIP3   OH252678   2.986   5.416   0.979 -0.5258 -0.0895 -0.1485
10396TIP3    H152679   2.983   5.511   0.985 -1.5986 -0.0480 -0.9629
10396TIP3    H252680   3.000   5.398   0.886  0.1067 -0.7239  0.0618
10397TIP3   OH252681   5.681   4.576  11.199 -0.4616 -0.3674 -0.4002
10397TIP3    H152682   5.727   4.577  11.115  0.0837  0.2927 -0.0990
10397TIP3    H252683   5.670   4.668  11.222  1.7893 -0.4920  1.5371
10398TIP3   OH252684   5.019   1.645  16.639  0.2916 -0.1138  0.2631
10398TIP3    H152685   5.031   1.740  16.632  0.3614 -0.2424 -2.5895
10398TIP3    H252686   5.103   1.608  16.610 -0.6249 -0.9936 -1.4298
10399TIP3   OH252687   6.270   2.086  15.440 -0.4511  0.5661  0.3304
10399TIP3    H152688   6.293   2.081  15.533 -0.1273 -0.8085  0.1928
10399TIP3    H252689   6.344   2.132  15.400  0.0366 -0.0014  0.5622
10400TIP3   OH252690   4.403   2.868  11.842  0.4268  0.0340  0.4632
10400TIP3    H152691   4.407   2.810  11.918  0.7056 -0.9433 -0.2776
10400TIP3    H252692   4.320   2.913  11.851  0.1497 -0.5634  1.0019
10401TIP3   OH252693   2.431   2.655   5.761  0.1933  0.1370 -0.4034
10401TIP3    H152694   2.417   2.561   5.758 -2.3767  0.4619 -2.4254
10401TIP3    H252695   2.475   2.670   5.845 -0.3222 -2.7253  0.4924
10402TIP3   OH252696   0.937   4.166   2.984  0.0012 -0.5617  0.0851
10402TIP3    H152697   0.970   4.195   3.069  0.1609  0.8876 -0.4404
10402TIP3    H252698   0.968   4.233   2.923  0.0364 -1.6718 -1.1455
10403TIP3   OH252699   4.868   5.925   1.526  0.2640  0.1175  0.0444
10403TIP3    H152700   4.804   5.905   1.458  0.6983 -1.2289 -0.0100
10403TIP3    H252701   4.895   6.015   1.509 -0.0488 -0.0156 -1.2181
10404TIP3   OH252702   4.266   4.355   4.763 -0.1059  0.2709 -0.5202
10404TIP3    H152703   4.313   4.275   4.788 -1.8903 -1.1034 -1.2911
10404TIP3    H252704   4.334   4.422   4.756  1.4090 -1.0870  0.5132
10405TIP3   OH252705   3.962   4.869   2.228  0.2884  0.4318 -0.1813
10405TIP3    H152706   4.008   4.789   2.252 -0.4094  0.5526  1.8169
10405TIP3    H252707   4.013   4.906   2.157  1.5194 -0.9809 -0.0835
10406TIP3   OH252708   2.125   6.130  11.143  0.3113  0.1417 -0.0482
10406TIP3    H152709   2.116   6.043  11.106 -1.3010 -0.4311  1.5434
10406TIP3    H252710   2.178   6.119  11.221  1.5471  0.9148 -0.7348
10407TIP3   OH252711   6.395   2.660   4.813  0.0456 -0.1134  0.6844
10407TIP3    H152712   6.397   2.734   4.753  0.3680 -0.1550  0.6431
10407TIP3    H252713   6.303   2.653   4.840 -0.3419 -0.8716 -0.7597
10408TIP3   OH252714   2.834   6.487  12.628 -0.5666 -0.2756 -0.1566
10408TIP3    H152715   2.799   6.553  12.569 -0.6887 -1.5159 -1.5363
10408TIP3    H252716   2.761   6.427  12.644  0.0157 -1.0875 -0.4426
10409TIP3   OH252717   4.616   5.857   0.644  0.3497  0.4261  0.4702
10409TIP3    H152718   4.605   5.944   0.605 -0.2796 -0.0337 -0.3904
10409TIP3    H252719   4.694   5.866   0.699  0.8283  1.2855 -0.3226
10410TIP3   OH252720   1.549   0.468   4.982 -0.5259 -0.1456 -0.2255
10410TIP3    H152721   1.540   0.455   4.887 -0.0398 -2.0014 -0.0512
10410TIP3    H252722   1.586   0.556   4.991  3.2295 -1.3570 -1.9812
10411TIP3   OH252723   2.012   2.575   5.586 -0.1702  0.1827  0.1799
10411TIP3    H152724   2.034   2.668   5.582  0.7687 -0.0185  0.5829
10411TIP3    H252725   2.076   2.536   5.645 -0.8359 -0.6490  0.3864
10412TIP3   OH252726   2.225   3.279  16.836  0.3768  0.8008 -0.0686
10412TIP3    H152727   2.243   3.238  16.921 -0.3275  2.6725  1.0412
10412TIP3    H252728   2.193   3.207  16.782  0.9125 -0.4634  1.2077
10413TIP3   OH252729   4.184   2.659  12.034  0.0791 -0.9162  0.2936
10413TIP3    H152730   4.175   2.615  12.118 -0.2823 -1.2041  0.1063
10413TIP3    H252731   4.102   2.706  12.022 -0.2284 -1.5928 -0.3040
10414TIP3   OH252732   3.749   4.261   3.626 -0.5097  0.0951 -0.7337
10414TIP3    H152733   3.796   4.342   3.607 -0.1958  0.3165  0.8218
10414TIP3    H252734   3.790   4.196   3.569  1.1654  0.4580 -0.0160
10415TIP3   OH252735   0.968   0.589   1.403 -0.2482  0.2770  0.1297
10415TIP3    H152736   0.929   0.590   1.316 -0.0101 -0.3869  0.0108
10415TIP3    H252737   1.053   0.547   1.391  0.1998  1.0462  0.5171
10416TIP3   OH252738   2.412   5.779  16.067  0.0533 -0.3247 -0.5036
10416TIP3    H152739   2.493   5.742  16.032  0.4886 -1.3269  1.4292
10416TIP3    H252740   2.366   5.704  16.105 -0.2271  0.6958  1.3076
10417TIP3   OH252741   4.450   1.137  12.957  0.1545 -0.0662  0.1154
10417TIP3    H152742   4.386   1.137  12.886 -1.3533  0.5173  1.4117
10417TIP3    H252743   4.481   1.047  12.962 -1.8991 -0.8043  0.5686
10418TIP3   OH252744   6.333   2.950  13.201  0.0819 -0.3996  0.2019
10418TIP3    H152745   6.266   2.944  13.134 -0.2160 -0.0961  0.4709
10418TIP3    H252746   6.294   2.908  13.278 -1.1137  2.5734  1.3866
10419TIP3   OH252747   5.250   1.722  12.001 -0.2703 -0.1034 -0.2935
10419TIP3    H152748   5.255   1.807  12.044  1.5225  0.3645 -1.2852
10419TIP3    H252749   5.187   1.672  12.052  1.0382  0.7198  2.2772
10420TIP3   OH252750   2.272   4.173   3.563  0.3524  0.7042 -0.4441
10420TIP3    H152751   2.258   4.264   3.537 -0.6876  1.6307  2.9156
10420TIP3    H252752   2.355   4.174   3.610 -1.0846  0.6544  2.2711
10421TIP3   OH252753   3.217   4.637  13.667  0.0158 -0.2731 -0.1845
10421TIP3    H152754   3.279   4.568  13.692  1.2593  1.5727  2.2389
10421TIP3    H252755   3.131   4.596  13.675  0.7316 -1.6775  0.7195
10422TIP3   OH252756   0.849   5.524  15.613 -0.6514  0.3964  0.5967
10422TIP3    H152757   0.933   5.569  15.607  0.4341 -1.5052  0.9483
10422TIP3    H252758   0.790   5.576  15.557  1.3114  0.4775 -1.5173
10423TIP3   OH252759   3.852   2.638  13.813 -0.0802  0.1200 -0.2814
10423TIP3    H152760   3.820   2.549  13.804 -1.3959  0.4111  1.1789
10423TIP3    H252761   3.776   2.693  13.796  0.3013  0.9218  0.5279
10424TIP3   OH252762   4.803   3.867   3.119 -0.9316  0.1890 -0.6449
10424TIP3    H152763   4.887   3.873   3.164  0.1979 -0.8491 -2.4944
10424TIP3    H252764   4.769   3.957   3.119 -0.8939  0.2784  1.9635
10425TIP3   OH252765   1.838   5.124   0.921 -1.1366 -0.9035  0.1486
10425TIP3    H152766   1.852   5.163   1.007 -0.4498 -1.5445  0.3418
10425TIP3    H252767   1.926   5.113   0.885 -1.1626 -3.6702  0.7492
10426TIP3   OH252768   2.473   6.650  14.342  0.0014  0.3838 -0.1177
10426TIP3    H152769   2.470   6.557  14.322 -0.8650  0.4178 -0.1996
10426TIP3    H252770   2.408   6.662  14.411  1.0362  0.7233  0.8344
10427TIP3   OH252771   0.974   1.251   1.905 -0.3284  0.1572  0.2029
10427TIP3    H152772   0.959   1.306   1.827  0.5099 -0.1975 -0.2187
10427TIP3    H252773   1.064   1.221   1.896 -1.3100 -2.8673 -0.6014
10428TIP3   OH252774   1.454   1.258  11.848  0.3248 -0.4701  0.4745
10428TIP3    H152775   1.428   1.341  11.887 -1.6570 -0.7268 -0.1673
10428TIP3    H252776   1.458   1.197  11.923  1.0738  0.0194  0.8459
10429TIP3   OH252777   4.052   2.984  14.094 -0.2022  0.7517 -0.2854
10429TIP3    H152778   4.098   2.986  14.177  0.2800 -2.8125 -0.2819
10429TIP3    H252779   3.962   2.960  14.117  0.0232 -0.6373 -0.7200
10430TIP3   OH252780   0.573   5.164  13.351  0.6364 -0.0663  0.0982
10430TIP3    H152781   0.521   5.085  13.333  0.9325 -0.2829  0.1950
10430TIP3    H252782   0.515   5.219  13.403 -0.1554  0.4646 -1.2894
10431TIP3   OH252783   2.246   6.446  14.916 -0.0529 -0.0771  0.3367
10431TIP3    H152784   2.203   6.495  14.846  0.4939  0.3305  0.2895
10431TIP3    H252785   2.240   6.354  14.887 -0.0439  0.0647 -0.1278
10432TIP3   OH252786   3.922   5.351   2.962  0.5816 -0.4435  0.4727
10432TIP3    H152787   3.887   5.335   3.050  1.8156  4.7311  2.2634
10432TIP3    H252788   3.932   5.446   2.957  0.0205 -0.2981 -5.6287
10433TIP3   OH252789   0.493   0.592  15.294 -0.6443 -0.2163 -0.0656
10433TIP3    H152790   0.430   0.639  15.239  0.2406  0.2581 -0.7009
10433TIP3    H252791   0.526   0.522  15.238  0.4595  0.4318 -0.2505
10434TIP3   OH252792   1.573   0.985  11.223  0.1617 -0.0566  0.6614
10434TIP3    H152793   1.549   0.913  11.166  1.6179 -0.8468  1.0083
10434TIP3    H252794   1.528   0.966  11.306  0.0897 -0.2641  0.5759
10435TIP3   OH252795   5.383   4.121  16.801  0.3794 -0.2430 -0.0959
10435TIP3    H152796   5.433   4.195  16.766  0.1694 -1.3150 -2.8313
10435TIP3    H252797   5.312   4.107  16.739 -0.4315 -1.8895  1.1071
10436TIP3   OH252798   6.430   4.144  15.496 -0.1176 -0.2867 -0.3215
10436TIP3    H152799   6.423   4.063  15.446 -1.5889  0.1218 -0.8435
10436TIP3    H252800   6.469   4.118  15.579  0.0974 -1.4032 -0.7561
10437TIP3   OH252801   0.784   5.640  14.572 -0.1166 -0.4377 -0.3017
10437TIP3    H152802   0.751   5.678  14.653 -1.0629  0.8573 -1.2430
10437TIP3    H252803   0.828   5.713  14.528  0.7837 -1.2288 -0.7732
10438TIP3   OH252804   4.390   1.027  12.523  0.0715  0.1275 -0.2919
10438TIP3    H152805   4.401   0.966  12.450  3.3487  0.4507 -0.2303
10438TIP3    H252806   4.415   1.112  12.487 -0.8648  0.7995  0.5700
10439TIP3   OH252807   3.235   4.420  11.151 -0.2696 -0.3651 -0.3185
10439TIP3    H152808   3.152   4.406  11.105 -0.4746 -1.1258  0.2594
10439TIP3    H252809   3.260   4.510  11.130 -1.6826  0.1698  0.2186
10440TIP3   OH252810   2.894   3.638   3.125 -0.1449  0.1262 -0.2561
10440TIP3    H152811   2.845   3.710   3.163  0.7261  1.8582 -2.1972
10440TIP3    H252812   2.842   3.612   3.048  0.1716 -0.4684 -0.2725
10441TIP3   OH252813   3.631   5.979  14.717  0.1667  0.5474 -0.1465
10441TIP3    H152814   3.586   5.896  14.734 -0.8781  1.3616  1.2530
10441TIP3    H252815   3.692   5.988  14.789 -1.1309  1.9100  0.8367
10442TIP3   OH252816   1.613   6.686  12.995  0.2445  0.2570 -0.2037
10442TIP3    H152817   1.541   6.629  13.021 -0.7869  1.1330 -1.0235
10442TIP3    H252818   1.648   6.646  12.915 -0.5327  0.7905 -0.8263
10443TIP3   OH252819   5.704   0.028   3.115  0.4666 -0.6477  0.1859
10443TIP3    H152820   5.699  -0.057   3.159 -0.7867 -0.2261  0.9072
10443TIP3    H252821   5.726   0.090   3.185 -2.2182  0.1378  0.4275
10444TIP3   OH252822   6.219   3.566   2.180 -0.2512  0.0699  0.4162
10444TIP3    H152823   6.286   3.537   2.118  0.3098  2.1583 -0.0416
10444TIP3    H252824   6.139   3.521   2.151  0.2349  0.1410 -1.1593
10445TIP3   OH252825   1.873   6.535   1.118  1.0890  0.0803  0.0400
10445TIP3    H152826   1.838   6.482   1.189  2.6898  0.8681  1.4824
10445TIP3    H252827   1.867   6.479   1.041 -1.4982 -0.4804  0.5584
10446TIP3   OH252828   2.167   4.476   3.279  0.3802 -0.5389  0.3906
10446TIP3    H152829   2.254   4.510   3.261 -0.0217  0.2747 -0.0771
10446TIP3    H252830   2.128   4.463   3.192 -0.5893  0.7949  0.5976
10447TIP3   OH252831   5.868   4.049   1.103  0.0031  0.1651  0.0018
10447TIP3    H152832   5.877   4.142   1.082 -1.2847  0.1397 -0.7662
10447TIP3    H252833   5.893   4.004   1.022  0.5372 -0.1604  0.3416
10448TIP3   OH252834   5.756   2.098   0.034  0.2014  0.1724 -0.2041
10448TIP3    H152835   5.693   2.100   0.107 -0.7614 -1.3891 -0.9359
10448TIP3    H252836   5.836   2.135   0.071 -1.1314  2.3793  0.7382
10449TIP3   OH252837   0.017   2.206  11.478  0.1838 -0.3092  0.1592
10449TIP3    H152838  -0.041   2.209  11.553  2.0007  0.0355  1.6269
10449TIP3    H252839   0.038   2.113  11.468  1.7777 -0.1537  1.6299
10450TIP3   OH252840   4.992   2.861   5.506  0.3410 -0.2742  0.0344
10450TIP3    H152841   4.928   2.790   5.515 -0.1707  0.0520 -0.8971
10450TIP3    H252842   5.051   2.833   5.437 -0.2659  0.4796 -0.8158
10451TIP3   OH252843   2.155   0.561   5.975 -0.2727  0.0629 -0.2197
10451TIP3    H152844   2.158   0.655   5.993 -1.0009  0.1517 -0.4863
10451TIP3    H252845   2.093   0.526   6.039  0.8031 -0.4264  0.5847
10452TIP3   OH252846   6.015   5.762   1.567 -0.4838 -0.1525  0.9630
10452TIP3    H152847   5.956   5.837   1.564 -0.5317 -0.1124  2.2639
10452TIP3    H252848   6.076   5.782   1.639  0.4981 -0.6350  0.2903
10453TIP3   OH252849   4.475   5.627  11.274 -0.1232  0.0187  0.4013
10453TIP3    H152850   4.527   5.584  11.342 -0.8378 -2.0770 -0.2832
10453TIP3    H252851   4.404   5.670  11.322  0.9971  1.0873  1.1680
10454TIP3   OH252852   3.905   1.927   1.772  0.3120 -0.2680  0.3685
10454TIP3    H152853   3.821   1.947   1.729  1.7549  1.0544 -2.0704
10454TIP3    H252854   3.899   1.971   1.856 -1.5954 -0.5743  0.4410
10455TIP3   OH252855   0.045   2.429  12.345  0.0362  0.3838 -0.1960
10455TIP3    H152856   0.130   2.423  12.389  0.6503  1.7304 -1.1053
10455TIP3    H252857  -0.015   2.380  12.401  1.1514  0.5121  1.1652
10456TIP3   OH252858   5.483   1.350   0.201  0.4483  0.1102  0.5969
10456TIP3    H152859   5.554   1.312   0.149  0.0710  0.8034 -0.4657
10456TIP3    H252860   5.403   1.312   0.163  0.2097 -0.2284  1.4150
10457TIP3   OH252861   1.351   0.500   3.157  0.7776 -0.1578 -0.3589
10457TIP3    H152862   1.392   0.470   3.076 -0.3349  2.0042 -1.8337
10457TIP3    H252863   1.259   0.473   3.150 -0.0179  2.4435 -1.2679
10458TIP3   OH252864   4.596   1.712  16.665 -0.3919  0.2062  0.3186
10458TIP3    H152865   4.540   1.658  16.721 -0.8050 -0.7563 -1.0031
10458TIP3    H252866   4.535   1.755  16.605  0.0667  1.1528  0.5102
10459TIP3   OH252867   5.557   3.432  11.015  0.2755  0.2056 -0.8512
10459TIP3    H152868   5.608   3.396  10.942 -0.2597  0.2393 -1.2490
10459TIP3    H252869   5.555   3.362  11.080  1.1656  0.3461 -0.6562
10460TIP3   OH252870   5.449   1.298   5.340  0.6236 -0.0964 -0.1107
10460TIP3    H152871   5.415   1.387   5.336  0.4400 -0.2100 -1.1848
10460TIP3    H252872   5.490   1.283   5.255  0.1331 -1.2356 -0.1646
10461TIP3   OH252873   0.871   0.129  10.748  0.2095 -0.2676 -0.3351
10461TIP3    H152874   0.926   0.133  10.671  1.1503  0.2526  0.3392
10461TIP3    H252875   0.849   0.037  10.758  0.8611 -0.4631 -0.6809
10462TIP3   OH252876   5.495   1.061  16.565 -0.3689  1.0350  0.1313
10462TIP3    H152877   5.445   1.105  16.633 -0.1960  1.6251 -0.1233
10462TIP3    H252878   5.430   1.036  16.499 -0.2690  2.3015 -0.4667
10463TIP3   OH252879   2.041   0.339   5.248 -0.0984 -0.4175 -0.6518
10463TIP3    H152880   2.036   0.402   5.321 -1.9269 -0.7479 -0.4463
10463TIP3    H252881   2.132   0.310   5.249 -0.2994 -1.3426  2.3436
10464TIP3   OH252882   0.303   2.644   4.355 -0.1071  0.2204 -0.1526
10464TIP3    H152883   0.308   2.600   4.270  0.4998 -1.0877  0.5265
10464TIP3    H252884   0.380   2.701   4.356 -0.1151  0.2411 -0.4808
10465TIP3   OH252885   2.722   3.048  15.721 -0.3873  0.7944  0.1949
10465TIP3    H152886   2.783   3.122  15.725  0.3529  0.2490 -0.6480
10465TIP3    H252887   2.742   2.997  15.800  0.3171  0.5716 -0.1209
10466TIP3   OH252888   0.695   2.346  13.355  0.3867  0.0428  0.5576
10466TIP3    H152889   0.749   2.425  13.361  0.3856  0.2082 -1.0036
10466TIP3    H252890   0.753   2.276  13.385  1.5581  0.2042 -1.1520
10467TIP3   OH252891   5.976   6.184  12.743  0.2658 -0.7622  0.8841
10467TIP3    H152892   6.051   6.184  12.685 -0.7780  1.4364 -0.5741
10467TIP3    H252893   5.903   6.152  12.690 -0.8210  1.7813  0.6981
10468TIP3   OH252894   0.610   5.295   5.701  0.0826 -0.0727 -0.3120
10468TIP3    H152895   0.598   5.202   5.719 -0.5390  0.0083 -0.2800
10468TIP3    H252896   0.623   5.335   5.787 -2.3971  0.2453 -0.0171
10469TIP3   OH252897   2.596   3.765   5.617  0.3010 -0.1644 -0.2923
10469TIP3    H152898   2.579   3.674   5.595 -0.4612  0.2912 -1.8159
10469TIP3    H252899   2.688   3.778   5.596  0.3951 -0.5775 -0.1338
10470TIP3   OH252900   1.160   4.420   4.806  0.7169  0.4548 -0.4999
10470TIP3    H152901   1.078   4.375   4.825  0.8710 -1.0196 -3.0398
10470TIP3    H252902   1.133   4.501   4.763  0.5754  0.2380 -0.8212
10471TIP3   OH252903   1.334   5.019  15.942 -0.1197 -0.6253  0.3577
10471TIP3    H152904   1.251   4.976  15.921 -1.2056  0.7397  1.6544
10471TIP3    H252905   1.315   5.113  15.935  0.9301 -0.2537  1.9441
10472TIP3   OH252906   2.619   5.633  14.484 -0.1167 -0.5298  0.1622
10472TIP3    H152907   2.538   5.612  14.531 -0.5195 -0.2451 -0.3947
10472TIP3    H252908   2.689   5.598  14.540 -0.6170 -0.7046  0.6893
10473TIP3   OH252909   3.728   2.625  16.996  0.4984  0.5008  0.3875
10473TIP3    H152910   3.668   2.553  17.018 -0.3967  1.0291 -0.2566
10473TIP3    H252911   3.777   2.592  16.920  0.5766  0.3128  0.5178
10474TIP3   OH252912   5.274   4.282  12.031 -0.1130  0.2108  0.0138
10474TIP3    H152913   5.210   4.327  11.976  0.3132  0.7252 -0.0729
10474TIP3    H252914   5.223   4.217  12.079 -1.2685  2.4591  2.1116
10475TIP3   OH252915   3.770   1.018  15.850  0.0242 -0.1771  0.1418
10475TIP3    H152916   3.770   1.008  15.945 -0.3514  0.7990  0.2542
10475TIP3    H252917   3.848   1.068  15.830 -0.3380  0.3501  0.0254
10476TIP3   OH252918   2.999   3.110   4.160  0.1202 -0.1989  0.8348
10476TIP3    H152919   2.935   3.099   4.089  1.4825  0.6567 -0.6125
10476TIP3    H252920   3.056   3.033   4.152  0.0571 -0.2853  1.2361
10477TIP3   OH252921   3.351   0.651  12.974  0.3715  0.5557 -0.0888
10477TIP3    H152922   3.268   0.625  13.015 -0.3400 -1.4714 -2.5470
10477TIP3    H252923   3.418   0.613  13.030 -0.4917 -0.5363  0.2400
10478TIP3   OH252924   3.406   6.599  13.633  0.2447  0.0983 -0.7533
10478TIP3    H152925   3.367   6.564  13.713 -1.8613 -0.2174 -1.8263
10478TIP3    H252926   3.481   6.650  13.662 -0.0506 -0.5797  1.3420
10479TIP3   OH252927   4.509   1.731  14.647  0.3239 -0.7910 -0.5549
10479TIP3    H152928   4.446   1.802  14.647  0.4516 -0.6051 -2.7533
10479TIP3    H252929   4.586   1.767  14.603  1.2599 -1.6038  0.3465
10480TIP3   OH252930   5.560   5.994  13.960 -0.2628 -0.1306 -0.4032
10480TIP3    H152931   5.610   5.946  13.893  0.5390  1.4771 -1.0000
10480TIP3    H252932   5.504   6.053  13.911  0.1804  0.9272  0.3183
10481TIP3   OH252933   0.378   4.167   1.082  0.2081  0.0895  0.5588
10481TIP3    H152934   0.294   4.138   1.119  0.6796 -0.0070  1.5987
10481TIP3    H252935   0.443   4.112   1.125  1.0176  1.8486  1.6799
10482TIP3   OH252936   6.706   0.505  10.377  0.2753 -0.4539 -0.1608
10482TIP3    H152937   6.734   0.442  10.443  0.3883 -0.3279 -0.0895
10482TIP3    H252938   6.613   0.486  10.364  0.1293 -0.1293  0.4168
10483TIP3   OH252939   3.822   4.733  15.982  0.1821  0.3889 -0.2327
10483TIP3    H152940   3.901   4.684  15.958 -0.3535 -1.1347  0.9416
10483TIP3    H252941   3.845   4.778  16.063 -0.5078 -1.1669  0.8886
10484TIP3   OH252942   1.282   0.455   0.683 -0.0723 -0.5150  0.1893
10484TIP3    H152943   1.237   0.387   0.633 -1.6710  1.1641 -0.7582
10484TIP3    H252944   1.212   0.504   0.725  1.1127 -0.1029  1.7858
10485TIP3   OH252945   4.612   5.152   6.373  0.6884  0.3181 -0.2512
10485TIP3    H152946   4.529   5.196   6.392 -0.0359 -0.6367 -1.1021
10485TIP3    H252947   4.667   5.221   6.335  1.0803  1.4783  2.2047
10486TIP3   OH252948   0.960   4.623  14.409  0.4706 -0.5949  0.1347
10486TIP3    H152949   0.912   4.622  14.492 -1.8119 -2.2312 -1.0783
10486TIP3    H252950   1.003   4.537  14.405  0.0816 -0.7693 -0.5911
10487TIP3   OH252951   3.628   3.506  16.262  0.1971  0.0326  0.1658
10487TIP3    H152952   3.586   3.423  16.242  2.5602 -1.5176  1.1947
10487TIP3    H252953   3.654   3.499  16.354  0.9895  1.6477  0.1001
10488TIP3   OH252954   4.967   3.925   0.758  0.2580 -0.0916 -0.4982
10488TIP3    H152955   4.907   3.996   0.780  1.2501 -0.0150  2.4737
10488TIP3    H252956   5.013   3.956   0.680  0.3548  2.4250  0.4411
10489TIP3   OH252957   5.429   5.776  11.880  0.0870 -0.0927  0.4278
10489TIP3    H152958   5.512   5.805  11.919  0.6281 -1.4722  0.3277
10489TIP3    H252959   5.402   5.849  11.825  2.8395 -0.7807 -2.0343
10490TIP3   OH252960   0.205   5.902   4.753 -0.2190  0.3203 -0.0074
10490TIP3    H152961   0.155   5.862   4.824 -1.4797 -0.1643 -1.1243
10490TIP3    H252962   0.146   5.968   4.717 -0.2760 -0.5719 -1.6410
10491TIP3   OH252963   2.162   4.636   4.184 -0.1306  0.2041 -0.2264
10491TIP3    H152964   2.217   4.558   4.187  0.4530  0.6260  0.3962
10491TIP3    H252965   2.208   4.700   4.238 -1.5464  0.3687  0.8534
10492TIP3   OH252966   0.356   5.972  12.492 -0.0960  0.8327 -0.7644
10492TIP3    H152967   0.309   5.971  12.409  1.0317  0.4986 -1.4243
10492TIP3    H252968   0.300   6.021  12.551 -0.6819  1.5259 -1.8673
10493TIP3   OH252969   5.290   3.719   4.957  0.1219 -0.4721  0.3403
10493TIP3    H152970   5.227   3.647   4.963  0.1124 -0.4303  0.7805
10493TIP3    H252971   5.239   3.798   4.973  0.3120 -0.4540  0.8862
10494TIP3   OH252972   5.004   1.087   0.563  0.1573 -0.0873  0.2457
10494TIP3    H152973   4.973   1.059   0.477  1.3137 -1.5501  0.2754
10494TIP3    H252974   4.925   1.089   0.617  0.0137 -4.0930  0.4168
10495TIP3   OH252975   5.800   2.595  14.596 -0.2958  0.3117 -0.4637
10495TIP3    H152976   5.840   2.533  14.658 -0.5369  0.1536 -0.4616
10495TIP3    H252977   5.758   2.660  14.652 -2.3123 -0.9560 -0.3811
10496TIP3   OH252978   6.101   2.233  13.282 -0.5832  0.4192 -0.5353
10496TIP3    H152979   6.100   2.319  13.241  1.7676  1.1467  0.7234
10496TIP3    H252980   6.191   2.202  13.272 -0.7772 -0.8469  1.0551
10497TIP3   OH252981   4.458   5.122   3.126 -0.1673 -0.0263 -0.0565
10497TIP3    H152982   4.443   5.041   3.174  0.6568  0.1907  0.5964
10497TIP3    H252983   4.406   5.188   3.172  0.2718  0.0922  0.2757
10498TIP3   OH252984   0.062   4.183   5.903 -0.5117 -0.2114  0.2428
10498TIP3    H152985  -0.014   4.240   5.892 -0.4192 -0.4804 -2.1841
10498TIP3    H252986   0.024   4.095   5.910 -0.4788 -0.2023  0.5642
10499TIP3   OH252987   6.148   6.401   6.317 -0.1471 -0.2936 -0.3792
10499TIP3    H152988   6.109   6.479   6.278 -0.8006  0.0741  0.9644
10499TIP3    H252989   6.217   6.434   6.374 -0.2219 -0.7091 -0.0402
10500TIP3   OH252990   5.352   1.444  10.863  0.0083  1.2509 -0.2903
10500TIP3    H152991   5.278   1.452  10.802 -1.7208 -0.9687  1.3648
10500TIP3    H252992   5.365   1.533  10.896 -0.8777  1.9729 -1.7459
10501TIP3   OH252993   0.146   1.727  12.566 -0.1589 -0.4071 -0.2745
10501TIP3    H152994   0.233   1.766  12.555 -0.5035  1.1012  1.7268
10501TIP3    H252995   0.164   1.636  12.589  1.0091  0.1677  1.2895
10502TIP3   OH252996   2.856   1.225   4.652 -0.1161 -0.8780 -0.1783
10502TIP3    H152997   2.897   1.282   4.587 -2.1345  1.1253  0.1727
10502TIP3    H252998   2.852   1.139   4.609 -0.8850  0.2377 -2.5294
10503TIP3   OH252999   4.232   5.992  11.682 -0.3990  0.4027  0.0403
10503TIP3    H153000   4.281   6.073  11.673 -0.7489  0.4371 -1.8242
10503TIP3    H253001   4.299   5.925  11.695 -0.0414  0.8152  0.3754
10504TIP3   OH253002   2.345   4.378   2.558 -0.1509 -0.2465 -0.5589
10504TIP3    H153003   2.327   4.424   2.640  0.6933 -0.4100 -0.2686
10504TIP3    H253004   2.428   4.332   2.574  0.8868  1.0048 -2.0343
10505TIP3   OH253005   2.757   4.482  14.947  0.1146 -0.1300  0.4670
10505TIP3    H153006   2.680   4.518  14.992 -0.3662 -0.6655  0.0939
10505TIP3    H253007   2.769   4.538  14.870  0.2493  0.1042  0.6582
10506TIP3   OH253008   6.188   4.489  14.435  0.2274  0.3028  0.0403
10506TIP3    H153009   6.228   4.556  14.491  0.2565  0.4395 -0.1449
10506TIP3    H253010   6.122   4.536  14.385 -0.2435  0.0547  0.4290
10507TIP3   OH253011   5.787   5.486  15.950  0.1525  0.1740  0.3566
10507TIP3    H153012   5.855   5.434  15.907 -0.2324 -0.2322  0.2286
10507TIP3    H253013   5.738   5.422  16.002  0.6878  0.6680  1.5147
10508TIP3   OH253014   2.131   2.694   4.290  0.0583  0.0598 -0.6236
10508TIP3    H153015   2.099   2.605   4.276  0.0834 -0.0167 -0.2144
10508TIP3    H253016   2.070   2.750   4.242  1.0636 -0.2887 -2.3885
10509TIP3   OH253017   1.173   6.539   2.179  0.1806  0.1047  0.5929
10509TIP3    H153018   1.109   6.530   2.108  1.7224 -1.7655 -0.6292
10509TIP3    H253019   1.253   6.568   2.137  1.1701 -1.1554  1.5267
10510TIP3   OH253020   2.152   1.446   6.060 -0.0083  0.2053 -0.1866
10510TIP3    H153021   2.219   1.447   5.992 -0.6392  3.3708 -0.9575
10510TIP3    H253022   2.071   1.424   6.014  0.2664 -2.7005  0.5730
10511TIP3   OH253023   2.529   5.616   0.113 -0.2899  0.4358  0.3208
10511TIP3    H153024   2.595   5.551   0.089 -0.1115  1.4897 -2.4968
10511TIP3    H253025   2.579   5.694   0.138 -0.4210  0.8821 -0.7389
10512TIP3   OH253026   4.682   5.089  12.920  0.1485  0.3866  0.1372
10512TIP3    H153027   4.653   5.160  12.863  1.0095  0.1855 -0.5716
10512TIP3    H253028   4.751   5.045  12.870 -1.9624 -2.4565 -0.5021
10513TIP3   OH253029   4.076   6.026  15.452 -0.5208  0.0585  0.0929
10513TIP3    H153030   4.059   6.086  15.524 -2.2546  1.1240 -1.1339
10513TIP3    H253031   4.122   5.952  15.492  0.7160  1.6818  1.8419
10514TIP3   OH253032   0.082   2.981  12.509 -0.6344  0.1992  0.6392
10514TIP3    H153033   0.086   2.888  12.529 -0.7685  0.1344  0.3743
10514TIP3    H253034   0.092   3.025  12.593  0.9438 -0.0236  0.5953
10515TIP3   OH253035   4.325   1.238   5.070  0.0537 -0.2152 -0.2870
10515TIP3    H153036   4.349   1.227   5.162  0.6735  0.7388 -0.3170
10515TIP3    H253037   4.230   1.227   5.068 -0.4208  2.7529  1.0071
10516TIP3   OH253038   3.763   5.294  11.176 -0.1374 -0.1480 -0.2138
10516TIP3    H153039   3.750   5.383  11.143  1.5391  1.5955  3.1702
10516TIP3    H253040   3.679   5.270  11.215  0.2427  1.5827  1.9236
10517TIP3   OH253041   2.749   2.223   1.451 -0.2175  0.6393  0.2594
10517TIP3    H153042   2.791   2.290   1.397  1.4928 -1.2468 -0.8880
10517TIP3    H253043   2.817   2.194   1.511  0.2022 -2.2851 -1.4302
10518TIP3   OH253044   4.874   5.795   6.586  0.3556 -0.1571 -0.3034
10518TIP3    H153045   4.900   5.711   6.547 -0.0289  0.0720 -1.0659
10518TIP3    H253046   4.794   5.819   6.541  0.2796  0.4684  0.1456
10519TIP3   OH253047   2.967   6.654   1.038 -0.2718  0.4308  0.2774
10519TIP3    H153048   3.036   6.662   0.972 -1.8262  1.2163 -1.3427
10519TIP3    H253049   3.009   6.612   1.112  1.4484 -1.0131 -1.4124
10520TIP3   OH253050   2.960   1.350  13.091 -0.2796 -0.1812  0.4217
10520TIP3    H153051   3.029   1.314  13.036 -0.0637 -0.2340  0.7313
10520TIP3    H253052   2.983   1.442  13.101 -0.7675  0.0284 -0.2694
10521TIP3   OH253053   5.633   6.623   5.329 -0.0201  0.5358  0.0010
10521TIP3    H153054   5.694   6.567   5.376  1.7813  1.6746 -0.8674
10521TIP3    H253055   5.547   6.584   5.344  1.0247 -1.7326  0.3873
10522TIP3   OH253056   4.865   2.525  16.029 -0.3899  0.4566 -0.3960
10522TIP3    H153057   4.955   2.543  16.002 -0.4312  0.0986 -0.7774
10522TIP3    H253058   4.818   2.506  15.947 -0.4030 -1.1398 -0.0458
10523TIP3   OH253059   3.896   4.709   4.875 -0.0156 -0.2862  0.3753
10523TIP3    H153060   3.832   4.668   4.934  0.3434  0.1850  1.1098
10523TIP3    H253061   3.972   4.652   4.878  0.2322  0.0688  0.8601
10524TIP3   OH253062   5.399   5.666   2.490  0.0607  0.1484  0.3125
10524TIP3    H153063   5.344   5.632   2.561 -0.7362  1.0846  0.1654
10524TIP3    H253064   5.454   5.592   2.465  1.7060  0.2433  3.1200
10525TIP3   OH253065   1.762   1.609   5.473  0.6742  0.0487  0.5455
10525TIP3    H153066   1.853   1.631   5.450  0.6126 -0.3906 -0.1461
10525TIP3    H253067   1.732   1.684   5.525  0.3568  1.8807 -2.0551
10526TIP3   OH253068   4.503   3.244  15.113 -0.2881 -0.4989 -0.9285
10526TIP3    H153069   4.583   3.286  15.145 -0.8210  0.0020 -0.2057
10526TIP3    H253070   4.490   3.282  15.026 -0.1345 -0.0246 -0.7505
10527TIP3   OH253071   4.188   3.165   6.079 -0.0709 -0.1378  0.5924
10527TIP3    H153072   4.233   3.105   6.138  0.7977 -1.3813 -1.2542
10527TIP3    H253073   4.104   3.124   6.060 -2.0052  1.9587  3.6560
10528TIP3   OH253074   4.994   3.826   1.207  0.5841  0.1857  0.5848
10528TIP3    H153075   5.062   3.775   1.250  1.2411 -1.6315 -2.3602
10528TIP3    H253076   4.931   3.761   1.177  0.6660  1.1776 -1.9687
10529TIP3   OH253077   2.810   2.854   2.074  0.3297  0.0153 -0.1002
10529TIP3    H153078   2.718   2.836   2.055  0.6645 -0.4284 -1.3534
10529TIP3    H253079   2.812   2.948   2.092 -0.2399  0.1722 -0.8201
10530TIP3   OH253080   3.512   3.563   0.718  0.2051  0.6808  0.7953
10530TIP3    H153081   3.480   3.487   0.668 -0.4495  0.5040  1.4696
10530TIP3    H253082   3.600   3.538   0.744  0.3297  0.5255  0.2394
10531TIP3   OH253083   0.567   6.783  10.818  0.5040 -0.2772 -0.1905
10531TIP3    H153084   0.521   6.713  10.865  0.1331  1.3950  2.1284
10531TIP3    H253085   0.659   6.754  10.818  0.0006 -2.1239 -2.0018
10532TIP3   OH253086   3.834   2.290   0.416 -0.6484  0.6087 -0.1334
10532TIP3    H153087   3.813   2.255   0.502 -2.7894 -1.1595 -1.2699
10532TIP3    H253088   3.893   2.225   0.377 -0.7321  0.7340 -0.4774
10533TIP3   OH253089   1.658   4.832   0.340  0.4793  0.3595 -0.2911
10533TIP3    H153090   1.752   4.847   0.355  0.8654 -2.0045  0.0660
10533TIP3    H253091   1.648   4.835   0.245  1.6543 -2.6720 -0.6176
10534TIP3   OH253092   2.903   3.931   4.502  0.8279 -0.0923  0.1274
10534TIP3    H153093   2.925   3.859   4.561 -0.7012  0.4490  1.4222
10534TIP3    H253094   2.813   3.955   4.525  0.5789  0.8884 -1.6764
10535TIP3   OH253095   2.187   2.971  16.369 -0.7069  0.0587 -0.2952
10535TIP3    H153096   2.169   3.047  16.425 -2.1275  1.2142 -2.1815
10535TIP3    H253097   2.101   2.931  16.356 -0.1074 -1.3470 -0.1001
10536TIP3   OH253098   0.526   2.477   0.754 -0.3707 -0.0441  0.1107
10536TIP3    H153099   0.457   2.530   0.794  0.1098  0.6091  0.1000
10536TIP3    H253100   0.538   2.404   0.814 -0.4295  0.3352  0.5957
10537TIP3   OH253101   2.955   5.970   3.010  0.1412 -0.0870 -0.0248
10537TIP3    H153102   2.880   5.963   3.068  1.1847  0.4308  1.4394
10537TIP3    H253103   2.983   6.061   3.017  1.6145 -0.5402  0.3910
10538TIP3   OH253104   1.411   5.095   3.467 -0.2064 -0.6755  0.4150
10538TIP3    H153105   1.504   5.073   3.476 -0.3460 -0.7079  2.4644
10538TIP3    H253106   1.366   5.023   3.512 -1.1667 -0.3058  0.0571
10539TIP3   OH253107   2.141   3.775   4.560  0.1517 -0.0576 -0.7194
10539TIP3    H153108   2.166   3.834   4.632  1.2012 -1.6730  0.2861
10539TIP3    H253109   2.213   3.713   4.553 -1.3813 -1.8693 -1.0648
10540TIP3   OH253110   1.645   6.783  14.623  0.1136  0.0287  0.0714
10540TIP3    H153111   1.583   6.741  14.564 -0.2610 -0.9702  1.1361
10540TIP3    H253112   1.653   6.873  14.590 -0.5514 -0.3249 -1.1029
10541TIP3   OH253113   0.044   1.487   1.823 -0.0809  0.5178 -0.2486
10541TIP3    H153114   0.027   1.574   1.858 -0.5040 -0.2417  1.5740
10541TIP3    H253115  -0.033   1.435   1.849  0.8721 -0.7708  0.1267
10542TIP3   OH253116   0.990   2.330  13.408 -1.1745  0.0114  0.0994
10542TIP3    H153117   1.060   2.389  13.436 -1.9415 -0.5666  3.7275
10542TIP3    H253118   1.023   2.291  13.327  0.7165  2.9793 -0.7126
10543TIP3   OH253119   4.448   3.041   4.156 -0.4263  0.3826 -0.8130
10543TIP3    H153120   4.357   3.068   4.162 -1.1344 -1.2488 -2.9147
10543TIP3    H253121   4.486   3.065   4.241 -3.8277 -2.5431  1.8318
10544TIP3   OH253122   2.696   6.322  13.751  0.2024 -0.2037 -0.2682
10544TIP3    H153123   2.718   6.385  13.820 -1.9431  0.3697 -0.0088
10544TIP3    H253124   2.617   6.278  13.784 -0.8839  0.0709 -2.3250
10545TIP3   OH253125   1.047   0.461  11.324 -0.0150  0.2219  0.2401
10545TIP3    H153126   1.018   0.550  11.306  1.4971  0.6346 -0.2911
10545TIP3    H253127   0.966   0.413  11.345 -0.7801  1.8494  1.1981
10546TIP3   OH253128   0.456   5.492  11.726 -0.1934 -0.3048  0.4526
10546TIP3    H153129   0.402   5.542  11.664 -0.0056  0.1261  0.6353
10546TIP3    H253130   0.393   5.460  11.792 -0.5911 -1.8001 -0.6037
10547TIP3   OH253131   6.489   1.437   2.285  0.0007  0.1575  0.5421
10547TIP3    H153132   6.513   1.528   2.302 -0.4694 -0.1916  3.7587
10547TIP3    H253133   6.568   1.387   2.304  0.1139 -0.1783 -0.7169
10548TIP3   OH253134   0.902   0.340   3.216 -0.1233  0.2534 -0.6044
10548TIP3    H153135   0.924   0.247   3.213  0.3634  0.2711  1.2550
10548TIP3    H253136   0.836   0.351   3.147 -2.2051 -2.0477  0.8527
10549TIP3   OH253137   1.626   5.081   4.027  0.6327 -0.2013  0.4496
10549TIP3    H153138   1.714   5.118   4.023  1.2349 -1.6862 -2.7532
10549TIP3    H253139   1.585   5.107   3.945 -1.7109 -0.1713  1.5568
10550TIP3   OH253140   3.016   3.574  14.471  0.3114  0.2940  0.1685
10550TIP3    H153141   3.034   3.553  14.562  0.3423 -0.4519 -0.0008
10550TIP3    H253142   3.057   3.659  14.457  0.9931  0.0534  0.6412
10551TIP3   OH253143   6.522   3.968   2.515  0.2887 -0.4355  0.2756
10551TIP3    H153144   6.444   4.016   2.488 -0.0684 -0.4770  1.1967
10551TIP3    H253145   6.519   3.886   2.464  0.2178 -0.0567 -0.3421
10552TIP3   OH253146   1.741   4.899   5.778  0.4237  0.4602  0.1227
10552TIP3    H153147   1.760   4.908   5.685  0.9254 -0.0907  0.1700
10552TIP3    H253148   1.680   4.971   5.797 -1.4777 -0.7391 -1.1006
10553TIP3   OH253149   0.728   5.322   6.417 -0.4479 -0.8618  0.6491
10553TIP3    H153150   0.784   5.400   6.412 -1.2511 -0.1574  2.0703
10553TIP3    H253151   0.639   5.355   6.402 -0.9825 -1.2269  2.7319
10554TIP3   OH253152   4.868   3.865  14.782 -0.3150  0.3526  0.1559
10554TIP3    H153153   4.877   3.930  14.713 -0.4244 -1.1425 -1.3374
10554TIP3    H253154   4.951   3.868  14.829  0.1203  0.7677 -0.6253
10555TIP3   OH253155   3.543   0.529  11.624  0.4025 -0.2409 -0.0903
10555TIP3    H153156   3.599   0.452  11.629 -0.4767 -0.8375  1.1616
10555TIP3    H253157   3.467   0.500  11.572  0.1414 -0.1743  0.2514
10556TIP3   OH253158   4.774   3.654  15.853 -0.2725 -0.0400  0.4852
10556TIP3    H153159   4.689   3.642  15.810  0.1483  1.3788 -0.8421
10556TIP3    H253160   4.824   3.575  15.831 -0.2786  0.3926 -1.1808
10557TIP3   OH253161   2.365   5.604   0.580 -0.0602  0.5649  0.9914
10557TIP3    H153162   2.460   5.593   0.576 -0.1922 -0.8331  0.8917
10557TIP3    H253163   2.333   5.556   0.503 -0.7758  2.2252  0.2184
10558TIP3   OH253164   3.323   1.343  14.952 -0.4717 -0.0349  0.2090
10558TIP3    H153165   3.396   1.385  14.907 -0.7253  1.1104  0.8270
10558TIP3    H253166   3.251   1.406  14.947 -1.1460 -0.7627  0.3908
10559TIP3   OH253167   6.393   0.675  11.837  0.2184 -0.4891  0.0983
10559TIP3    H153168   6.396   0.754  11.782  1.7062  0.3286  1.2798
10559TIP3    H253169   6.315   0.686  11.890 -0.4228 -0.5792 -0.7932
10560TIP3   OH253170   3.866   6.562  10.545  0.0370 -0.3109  0.4514
10560TIP3    H153171   3.947   6.553  10.494  0.1546 -0.3473  0.6422
10560TIP3    H253172   3.796   6.563  10.479  0.3340  2.5265  0.0455
10561TIP3   OH253173   3.077   6.061   0.621 -0.1080  0.3438 -0.2156
10561TIP3    H153174   3.009   5.995   0.607 -0.5043  0.8583 -0.7694
10561TIP3    H253175   3.119   6.071   0.536 -0.7546  1.5624 -0.4188
10562TIP3   OH253176   1.475   2.285   5.280 -0.1305  0.5726 -0.0248
10562TIP3    H153177   1.386   2.309   5.255 -0.0301  1.5239  0.4668
10562TIP3    H253178   1.480   2.191   5.265 -0.6089  0.8097 -1.8827
10563TIP3   OH253179   0.562   5.292   1.509 -0.5586 -0.3673  0.3935
10563TIP3    H153180   0.644   5.341   1.498  0.2145 -0.8461  3.2314
10563TIP3    H253181   0.495   5.359   1.516 -0.4038  0.0446 -1.5359
10564TIP3   OH253182   3.064   1.761  13.717  0.1863 -0.0917  0.2722
10564TIP3    H153183   2.976   1.780  13.749  0.0233  2.2467 -1.3232
10564TIP3    H253184   3.122   1.806  13.779  0.3182 -1.6065  1.3051
10565TIP3   OH253185   0.140   3.157   4.021  0.2029  0.1453  0.3016
10565TIP3    H153186   0.195   3.234   4.005  0.4258 -0.4555 -2.3108
10565TIP3    H253187   0.050   3.188   4.008  0.3280 -0.1068 -1.5135
10566TIP3   OH253188   5.208   5.034   0.584 -0.4506  0.7153 -0.5516
10566TIP3    H153189   5.179   5.108   0.636 -0.4365  0.0566  0.4128
10566TIP3    H253190   5.189   5.059   0.493 -1.5566  1.3898 -0.1430
10567TIP3   OH253191   3.362   0.339  11.497 -0.3770  0.1585  0.1395
10567TIP3    H153192   3.342   0.250  11.466  2.0011  0.4698 -2.7399
10567TIP3    H253193   3.288   0.392  11.466 -0.9072 -0.5209  0.2238
10568TIP3   OH253194   6.168   4.000   4.655  0.1362  0.2003 -0.0129
10568TIP3    H153195   6.223   4.043   4.590  1.0475 -2.0866 -0.8361
10568TIP3    H253196   6.085   3.985   4.610  0.2135  0.0475 -0.1024
10569TIP3   OH253197   6.787   4.600   4.989  0.0888 -0.3847  0.3325
10569TIP3    H153198   6.704   4.589   5.035  0.3039 -0.5564  0.6842
10569TIP3    H253199   6.762   4.622   4.899 -0.3683  1.8477  0.9313
10570TIP3   OH253200   0.794   2.590   2.874 -0.1702 -0.1935  0.5140
10570TIP3    H153201   0.751   2.665   2.834 -0.4149 -0.3567  0.4709
10570TIP3    H253202   0.784   2.604   2.968 -0.4279 -0.2950  0.5023
10571TIP3   OH253203   1.994   5.283  12.139  0.3601  0.5177 -0.1017
10571TIP3    H153204   1.940   5.342  12.192 -0.5779 -0.8642  0.5412
10571TIP3    H253205   1.968   5.302  12.049  1.4612  2.3907 -0.0973
10572TIP3   OH253206   3.944   4.594   1.796 -0.2855 -0.3457 -0.6043
10572TIP3    H153207   4.007   4.579   1.725 -1.0661  1.2783 -1.6910
10572TIP3    H253208   3.905   4.678   1.776  1.4878  1.6726  3.2840
10573TIP3   OH253209   4.203   5.551   5.745 -0.6456 -0.2863  0.1265
10573TIP3    H153210   4.189   5.503   5.663 -0.4317 -2.3909  1.2488
10573TIP3    H253211   4.298   5.555   5.754 -0.6370  1.1428 -0.3528
10574TIP3   OH253212   1.785   2.421   4.697 -0.2066  0.0351  0.3593
10574TIP3    H153213   1.770   2.367   4.620  1.2273  0.3687 -0.1935
10574TIP3    H253214   1.760   2.510   4.671  0.4805  0.1860  0.1928
10575TIP3   OH253215   3.882   2.647   3.810 -0.4673  0.2343 -0.0382
10575TIP3    H153216   3.793   2.647   3.847 -1.6760  0.5895 -2.7482
10575TIP3    H253217   3.901   2.555   3.793  0.1575  0.0525  1.4807
10576TIP3   OH253218   3.557   2.400   3.559  0.2678 -0.1252 -0.1541
10576TIP3    H153219   3.472   2.387   3.600  0.6958  1.6159  1.4097
10576TIP3    H253220   3.589   2.312   3.542 -0.3996 -0.9232  2.3546
10577TIP3   OH253221   3.121   6.572   2.534 -0.3055 -0.1196  0.1845
10577TIP3    H153222   3.117   6.655   2.488  0.2569  0.2270  0.7376
10577TIP3    H253223   3.030   6.544   2.542 -0.3489 -1.5299 -3.4315
10578TIP3   OH253224   3.313   0.929   1.398 -0.3395  0.2362 -0.0855
10578TIP3    H153225   3.259   0.903   1.473 -0.1428 -0.8795 -0.3063
10578TIP3    H253226   3.339   1.019   1.417 -1.2150  0.3518  0.6443
10579TIP3   OH253227   6.321   2.831  12.877 -0.4106 -0.0707 -0.1601
10579TIP3    H153228   6.342   2.861  12.789  1.4783 -0.1872  0.2237
10579TIP3    H253229   6.250   2.889  12.905  0.2576  1.2287 -1.0462
10580TIP3   OH253230   6.457   3.634   0.049 -0.4729  0.5561  0.1379
10580TIP3    H153231   6.475   3.728   0.043  1.0514  0.2255 -1.5703
10580TIP3    H253232   6.528   3.599   0.103 -0.6162  0.2829  0.1534
10581TIP3   OH253233   4.142   0.943  11.248  0.4232  0.0161  0.5353
10581TIP3    H153234   4.199   0.866  11.251  0.3325 -0.0256  1.4928
10581TIP3    H253235   4.095   0.935  11.165  1.1879 -0.4013  0.1410
10582TIP3   OH253236   0.552   3.347   3.536 -0.0148 -0.0020  0.2655
10582TIP3    H153237   0.481   3.288   3.510 -0.2282 -0.2984  1.4361
10582TIP3    H253238   0.561   3.408   3.463 -1.3159 -0.1036 -0.0028
10583TIP3   OH253239   6.417   1.201   0.284 -0.5681 -0.7005 -0.3558
10583TIP3    H153240   6.490   1.188   0.344  0.9636  1.1020 -1.6940
10583TIP3    H253241   6.403   1.114   0.245  1.8873 -0.8352 -1.1237
10584TIP3   OH253242   3.922   0.638   3.600 -0.1477 -0.7212 -0.2967
10584TIP3    H153243   3.938   0.562   3.657 -1.7257 -0.1244  1.0293
10584TIP3    H253244   3.862   0.606   3.533  2.1011 -1.5591 -2.0519
10585TIP3   OH253245   1.793   5.584   5.982  0.1433  0.8298 -0.0101
10585TIP3    H153246   1.874   5.560   6.027 -0.0247  1.0231  0.4002
10585TIP3    H253247   1.754   5.651   6.038 -1.7510 -1.2785  1.3302
10586TIP3   OH253248   0.659   6.252  10.581 -0.4312 -0.1061  0.3826
10586TIP3    H153249   0.737   6.239  10.526 -0.4465 -0.3073  0.4091
10586TIP3    H253250   0.589   6.271  10.519 -0.1677  1.0249  0.4054
10587TIP3   OH253251   5.512   2.286  12.489  0.6244  0.1159  0.0849
10587TIP3    H153252   5.549   2.220  12.431  1.8965  1.6875 -0.9727
10587TIP3    H253253   5.423   2.256  12.505  0.9559 -1.5131 -0.8784
10588TIP3   OH253254   3.459   4.440   4.235 -0.3160 -0.1347 -0.1855
10588TIP3    H153255   3.473   4.529   4.203 -0.9544  0.5742  1.4339
10588TIP3    H253256   3.445   4.388   4.155  1.1112  0.9931 -1.2136
10589TIP3   OH253257   5.110   2.702   6.573  0.2746 -0.7710 -0.1267
10589TIP3    H153258   5.073   2.761   6.638  2.2327 -0.8074  1.1269
10589TIP3    H253259   5.165   2.759   6.518 -1.8053 -0.6382 -2.2120
10590TIP3   OH253260   1.086   6.412   1.282  0.9058  0.0943  0.0363
10590TIP3    H153261   1.072   6.502   1.310  1.8438  0.3714 -0.3539
10590TIP3    H253262   1.143   6.374   1.350  0.3813 -0.2623  0.2873
10591TIP3   OH253263   3.950   3.315  12.003  0.0782 -0.3598  0.4357
10591TIP3    H153264   4.044   3.301  12.004 -0.1581 -2.2643  0.6840
10591TIP3    H253265   3.925   3.310  11.911 -0.0376 -2.2248  0.5321
10592TIP3   OH253266   2.907   4.644  16.434 -0.0453  0.1926 -0.0931
10592TIP3    H153267   2.833   4.705  16.430  0.4658  0.7762 -1.6903
10592TIP3    H253268   2.972   4.682  16.375  1.7394 -0.0657  1.6177
10593TIP3   OH253269   5.847   0.214   1.285 -0.0656  0.1000  0.0214
10593TIP3    H153270   5.845   0.150   1.215  1.5433  0.3195 -0.2610
10593TIP3    H253271   5.937   0.211   1.318 -0.4162  1.0023  1.1297
10594TIP3   OH253272   0.808   5.501   1.477 -0.6434 -0.0868 -0.4241
10594TIP3    H153273   0.897   5.490   1.509 -0.3117 -1.0125 -1.5676
10594TIP3    H253274   0.812   5.475   1.385 -1.4065  3.0253 -1.4566
10595TIP3   OH253275   0.551   3.240   5.162  0.3707 -0.1619  0.2537
10595TIP3    H153276   0.615   3.297   5.119 -1.6218  0.5719 -2.0141
10595TIP3    H253277   0.525   3.288   5.241  0.2345  1.1326 -0.5519
10596TIP3   OH253278   1.645   2.308  10.500  0.1373  0.2946  0.7133
10596TIP3    H153279   1.644   2.395  10.541  0.0446  2.1064 -2.7153
10596TIP3    H253280   1.582   2.315  10.429  0.0371 -2.6959  0.4051
10597TIP3   OH253281   2.916   1.423  14.948  0.4516 -0.5473 -0.0519
10597TIP3    H153282   2.845   1.474  14.989 -0.3417 -0.0866 -1.8651
10597TIP3    H253283   2.996   1.455  14.990 -0.1644  1.1538 -0.0840
10598TIP3   OH253284   5.962   4.482   1.530 -1.1683  0.4196  0.4989
10598TIP3    H153285   6.030   4.550   1.524  1.3333 -1.8781  0.7913
10598TIP3    H253286   5.976   4.427   1.453 -2.4985 -0.3205  0.7475
10599TIP3   OH253287   1.744   5.147  12.898  0.2838 -0.1243  0.6715
10599TIP3    H153288   1.732   5.070  12.842 -2.0851  0.3201  0.4452
10599TIP3    H253289   1.838   5.152  12.912  0.6398 -2.2104 -0.5008
10600TIP3   OH253290   4.965   1.350  15.759  0.0533 -0.0782  0.1814
10600TIP3    H153291   4.986   1.386  15.673  0.4105  1.2388  0.7916
10600TIP3    H253292   5.033   1.384  15.817 -1.3627  0.8147  1.3937
10601TIP3   OH253293   1.368   6.677  14.232  0.5164  0.2556  0.3213
10601TIP3    H153294   1.361   6.770  14.210  0.5379  0.5135  1.3277
10601TIP3    H253295   1.458   6.654  14.208  0.7739  0.7133  0.8120
10602TIP3   OH253296   0.299   1.849  16.632 -0.2845 -0.1778 -0.2599
10602TIP3    H153297   0.223   1.882  16.680  0.0060  1.2886 -0.7597
10602TIP3    H253298   0.302   1.902  16.553  0.4196 -1.2052 -0.9470
10603TIP3   OH253299   1.363   3.121  14.741 -0.0301  0.3440  0.1513
10603TIP3    H153300   1.373   3.093  14.832  0.5801  0.7658  0.2217
10603TIP3    H253301   1.335   3.212  14.746 -0.0726  0.3450 -0.0797
10604TIP3   OH253302   6.177   4.460  12.213  0.4029  0.8761  0.1712
10604TIP3    H153303   6.263   4.503  12.220 -0.4869  2.5386  1.7487
10604TIP3    H253304   6.123   4.504  12.279 -1.4596 -0.6621 -0.2470
10605TIP3   OH253305   2.611   3.351  12.280  0.2545 -0.5770  0.3278
10605TIP3    H153306   2.647   3.380  12.196 -1.9560 -0.6471 -0.7193
10605TIP3    H253307   2.547   3.420  12.303 -0.2318 -1.2978  1.1925
10606TIP3   OH253308   4.229   1.999   6.251 -0.4088  0.2830  0.4252
10606TIP3    H153309   4.189   1.912   6.248 -0.2933  0.1343  2.1422
10606TIP3    H253310   4.229   2.023   6.344  1.5352  1.1901  0.2509
10607TIP3   OH253311   0.621   2.628   4.524  0.1887  0.1835  0.0610
10607TIP3    H153312   0.612   2.533   4.528  2.0386  0.0119  1.6546
10607TIP3    H253313   0.704   2.646   4.567  1.0428  2.3764 -2.2363
10608TIP3   OH253314   0.720   4.869   2.687  0.2499 -0.1245 -0.0770
10608TIP3    H153315   0.793   4.901   2.740 -0.2594 -1.2571  1.3591
10608TIP3    H253316   0.732   4.911   2.602  2.9103 -0.7123 -0.0769
10609TIP3   OH253317   3.288   5.540  15.693  0.0708 -0.3811  0.4895
10609TIP3    H153318   3.267   5.474  15.627  1.0413 -0.4202  0.2071
10609TIP3    H253319   3.222   5.528  15.762 -0.4177 -0.9143 -0.0616
10610TIP3   OH253320   3.036   1.959  13.971  0.1725  0.4907  0.3983
10610TIP3    H153321   3.002   1.957  14.060  0.4198 -2.4666  0.5400
10610TIP3    H253322   3.129   1.940  13.981  0.5216  1.6410 -0.4311
10611TIP3   OH253323   1.800   2.590  13.138 -0.0473  0.0511 -0.4219
10611TIP3    H153324   1.766   2.616  13.223  1.0603  1.9506 -0.4895
10611TIP3    H253325   1.761   2.504  13.121 -2.7865  1.0061  0.5416
10612TIP3   OH253326   1.721   3.685  14.963 -0.2970  0.2198  0.1384
10612TIP3    H153327   1.726   3.643  14.877 -1.2994 -0.2090  0.2685
10612TIP3    H253328   1.763   3.770  14.951  1.1820 -0.5399 -0.3008
10613TIP3   OH253329   3.535   3.927  13.287  0.4508 -0.0932  0.0478
10613TIP3    H153330   3.461   3.986  13.290  0.9783  0.6597 -1.2450
10613TIP3    H253331   3.572   3.930  13.376 -1.0551 -0.5315  0.7231
10614TIP3   OH253332   1.492   2.740   2.269 -0.1054  0.4881 -0.1842
10614TIP3    H153333   1.401   2.750   2.299 -0.1057 -0.7589  0.2794
10614TIP3    H253334   1.544   2.786   2.335 -0.4687  2.5781 -1.2690
10615TIP3   OH253335   2.891   6.231  11.888 -0.0120 -0.2733  0.2445
10615TIP3    H153336   2.856   6.285  11.959  0.5284  1.0902 -0.4861
10615TIP3    H253337   2.941   6.162  11.932 -0.3122  0.1013  1.1915
10616TIP3   OH253338   1.228   0.877   4.349  0.6140 -0.1750 -0.2133
10616TIP3    H153339   1.287   0.804   4.368  1.1276  0.5772  1.2307
10616TIP3    H253340   1.268   0.921   4.273  2.5699  0.9520  1.3730
10617TIP3   OH253341   6.380   5.432  14.787 -0.0925  0.1121 -0.1712
10617TIP3    H153342   6.401   5.352  14.739 -0.3374 -0.1801  0.2079
10617TIP3    H253343   6.465   5.474  14.802  0.3129 -1.2135  1.6210
10618TIP3   OH253344   4.409   0.437  15.773  0.1957 -0.3956 -0.0734
10618TIP3    H153345   4.462   0.506  15.734 -0.0132  0.6394  1.3952
10618TIP3    H253346   4.363   0.480  15.846  0.4607 -2.1744  1.2116
10619TIP3   OH253347   3.918   5.816   5.148 -0.6536  0.0881  0.3273
10619TIP3    H153348   3.948   5.863   5.070  0.0452 -0.1545  0.4458
10619TIP3    H253349   3.872   5.883   5.199  1.6193  1.0624  1.2069
10620TIP3   OH253350   0.860   5.677   3.183 -0.4198  0.4020 -0.0613
10620TIP3    H153351   0.891   5.766   3.198  2.0472 -0.2469 -0.8080
10620TIP3    H253352   0.931   5.635   3.134 -1.9145 -1.7134 -0.5555
10621TIP3   OH253353   6.241   6.019   1.498  0.3336  0.3884  0.0297
10621TIP3    H153354   6.274   5.930   1.485  0.0883 -0.0216  1.8922
10621TIP3    H253355   6.147   6.013   1.482  0.0950 -0.0242  1.4347
10622TIP3   OH253356   5.733   5.668   2.220  0.2203  0.1789  0.0589
10622TIP3    H153357   5.779   5.747   2.247 -0.9693  0.5838  0.9609
10622TIP3    H253358   5.690   5.636   2.299  1.0240 -1.6383 -0.1822
10623TIP3   OH253359   4.817   0.426  16.829  0.3565  0.1343  0.4047
10623TIP3    H153360   4.727   0.403  16.805  0.1633 -0.0249  1.2398
10623TIP3    H253361   4.863   0.343  16.831  0.1533  0.0316  1.4221
10624TIP3   OH253362   4.292   5.131   2.299  0.0183  0.6083  0.2735
10624TIP3    H153363   4.253   5.110   2.214 -1.0042 -0.2230  0.9235
10624TIP3    H253364   4.369   5.075   2.304 -0.5920 -0.2375  0.3913
10625TIP3   OH253365   5.436   2.901  12.411  0.4617 -0.2746 -0.4058
10625TIP3    H153366   5.498   2.923  12.341  3.1322 -3.2943  0.8009
10625TIP3    H253367   5.477   2.935  12.491 -0.1924 -1.0156  0.2515
10626TIP3   OH253368   4.289   2.068  16.441  0.9230  0.0748  0.5042
10626TIP3    H153369   4.380   2.091  16.423  0.5349  0.7804 -0.6679
10626TIP3    H253370   4.239   2.143  16.408 -0.1235 -0.5790  0.5782
10627TIP3   OH253371   2.140   1.741   2.552 -0.3650 -0.2375 -0.0303
10627TIP3    H153372   2.085   1.666   2.576  0.6770 -1.1713 -0.4638
10627TIP3    H253373   2.167   1.778   2.636  1.0714 -1.8458  0.2663
10628TIP3   OH253374   3.883   1.649   3.881  0.0009 -0.2576 -0.4225
10628TIP3    H153375   3.902   1.610   3.796  0.6200 -1.2934  0.1802
10628TIP3    H253376   3.793   1.682   3.872  0.3615  0.4355 -1.7455
10629TIP3   OH253377   0.577   3.648  12.169  0.5156 -0.0521  0.2753
10629TIP3    H153378   0.621   3.712  12.114  0.6290 -1.2621 -1.1255
10629TIP3    H253379   0.483   3.664  12.153  0.4733  1.0305  1.4794
10630TIP3   OH253380   5.126   5.413  14.439 -0.6212 -0.2109 -0.0952
10630TIP3    H153381   5.146   5.333  14.392 -0.1146 -0.6021  0.7782
10630TIP3    H253382   5.177   5.408  14.519 -0.3873  1.1017 -0.1395
10631TIP3   OH253383   3.760   0.611   3.389  0.1477 -0.0218  0.3980
10631TIP3    H153384   3.673   0.643   3.411 -0.0985 -0.2053 -0.3051
10631TIP3    H253385   3.746   0.543   3.323  0.7664 -0.5930  0.8374
10632TIP3   OH253386   6.309   3.459  16.638 -0.3700  0.2551  0.2419
10632TIP3    H153387   6.286   3.513  16.714  0.5076  0.8864  0.0846
10632TIP3    H253388   6.396   3.425  16.659  0.9246  2.3037 -1.4038
10633TIP3   OH253389   1.010   6.578  13.853 -0.1213 -0.0088 -0.4567
10633TIP3    H153390   1.061   6.587  13.934 -1.7978  0.2010  0.6108
10633TIP3    H253391   1.010   6.483  13.836  1.8443  0.0952 -1.3282
10634TIP3   OH253392   5.833   0.202   0.535  0.2581 -0.9845 -0.0699
10634TIP3    H153393   5.759   0.173   0.481 -0.3470  1.2755 -0.5689
10634TIP3    H253394   5.794   0.223   0.620  0.5845 -1.0996  0.1089
10635TIP3   OH253395   3.603   2.268   1.861  0.1435 -0.4614  0.4759
10635TIP3    H153396   3.585   2.280   1.768 -1.7018 -2.3060  0.5232
10635TIP3    H253397   3.534   2.318   1.905  1.5240  1.1422  0.9383
10636TIP3   OH253398   4.578   4.204   1.874 -0.3067 -0.5670  0.4841
10636TIP3    H153399   4.581   4.114   1.842 -1.3508 -0.1238 -0.9580
10636TIP3    H253400   4.666   4.237   1.860 -0.3899 -0.8108 -0.7230
10637TIP3   OH253401   2.192   1.526  12.916 -0.0002 -0.0980  0.2983
10637TIP3    H153402   2.255   1.525  12.844 -1.1436  2.7246 -0.8736
10637TIP3    H253403   2.230   1.586  12.981 -1.0539  1.0304 -0.0866
10638TIP3   OH253404   2.159   4.903   1.362 -0.0282  0.0976 -0.4755
10638TIP3    H153405   2.140   4.860   1.446 -0.2825  0.9586 -0.0761
10638TIP3    H253406   2.247   4.873   1.339  0.1015 -0.0424  0.1792
10639TIP3   OH253407   1.493   4.702   1.659  0.0982  0.2002 -0.9540
10639TIP3    H153408   1.548   4.730   1.733  1.4128 -0.5990 -1.5862
10639TIP3    H253409   1.426   4.770   1.652  0.9770  1.1967 -0.1057
10640TIP3   OH253410   6.463   2.352  15.557 -0.1543  0.0042  0.0869
10640TIP3    H153411   6.381   2.307  15.576 -0.1173 -0.5591 -0.9912
10640TIP3    H253412   6.477   2.337  15.463  1.5935 -0.6279  0.4090
10641TIP3   OH253413   5.573   3.974  16.924 -0.1014 -0.0774  0.2897
10641TIP3    H153414   5.577   3.986  17.019  0.1804  1.0851  0.1552
10641TIP3    H253415   5.508   4.039  16.895 -0.1977 -0.4330 -0.3165
10642TIP3   OH253416   5.637   5.972  11.940 -0.1097  0.0336 -0.3552
10642TIP3    H153417   5.728   5.942  11.951 -0.1012  0.8372  2.5447
10642TIP3    H253418   5.645   6.066  11.921 -0.3462 -0.3977 -3.0943
10643TIP3   OH253419   2.165   3.113  14.685 -0.3625 -0.4747 -0.2207
10643TIP3    H153420   2.118   3.109  14.768 -0.6296  1.4893 -0.2259
10643TIP3    H253421   2.249   3.153  14.707 -0.1175 -0.6732 -0.7791
10644TIP3   OH253422   0.349   5.328   3.870 -0.0620 -0.2975  0.0672
10644TIP3    H153423   0.420   5.390   3.884 -0.8535  0.4602  0.8885
10644TIP3    H253424   0.278   5.381   3.833 -0.0724 -1.1227 -1.1519
10645TIP3   OH253425   4.864   0.914   3.881  0.0449 -0.0886  0.1225
10645TIP3    H153426   4.914   0.934   3.802  0.4047 -2.1775 -0.2400
10645TIP3    H253427   4.831   0.825   3.867 -1.8977  0.3827  1.3212
10646TIP3   OH253428   4.002   4.239   5.122  0.5408  0.1054  0.1586
10646TIP3    H153429   3.918   4.209   5.156  1.3795 -0.3443  1.9516
10646TIP3    H253430   3.984   4.263   5.031 -1.2323 -1.2372  0.1042
10647TIP3   OH253431   0.971   5.614   4.975  0.2294  0.0092  0.6055
10647TIP3    H153432   1.024   5.629   4.897  0.7167 -1.3145  0.6488
10647TIP3    H253433   1.000   5.679   5.038  0.0436  0.8989 -0.2088
10648TIP3   OH253434   2.542   6.044  11.325  0.2854 -0.5355 -0.7910
10648TIP3    H153435   2.468   6.024  11.382  0.5776  0.1975 -0.1266
10648TIP3    H253436   2.610   5.983  11.352  1.1068  1.0711  1.0910
10649TIP3   OH253437   3.577   1.770  16.662  0.5028 -0.0557  1.6163
10649TIP3    H153438   3.631   1.732  16.731  0.9054 -2.7685 -0.0802
10649TIP3    H253439   3.545   1.695  16.611 -0.2269  1.7786 -0.8357
10650TIP3   OH253440   6.338   4.350  13.122 -0.3363  0.5461  0.2672
10650TIP3    H153441   6.248   4.319  13.109 -0.2927  0.3575  0.4115
10650TIP3    H253442   6.328   4.433  13.170 -0.3778 -0.2501  1.6858
10651TIP3   OH253443   5.096   2.446  12.268  0.2798 -0.6558  0.3930
10651TIP3    H153444   5.109   2.524  12.322 -1.3501 -0.6879  0.8615
10651TIP3    H253445   5.105   2.373  12.329 -0.5764 -0.7300  0.4406
10652TIP3   OH253446   1.582   2.409  13.069  0.1648  0.0667  0.8469
10652TIP3    H153447   1.511   2.413  13.133  0.1663 -0.5020  0.8904
10652TIP3    H253448   1.569   2.326  13.024 -1.6478  1.7677 -2.0221
10653TIP3   OH253449   5.070   0.971   3.689  0.2459 -0.8352  0.0707
10653TIP3    H153450   5.056   0.918   3.609  2.4966 -1.4379  0.0093
10653TIP3    H253451   5.138   1.033   3.664 -0.4063  0.2606  0.9885
10654TIP3   OH253452   5.749   5.330  11.424 -0.0446 -0.0804 -0.3147
10654TIP3    H153453   5.689   5.402  11.443 -0.7619 -0.5880 -0.6416
10654TIP3    H253454   5.703   5.276  11.360  0.7647 -0.4740 -0.5836
10655TIP3   OH253455   5.500   0.539  13.352  0.2147 -0.7096  0.1034
10655TIP3    H153456   5.413   0.524  13.389  0.2893  0.0531  0.6186
10655TIP3    H253457   5.550   0.578  13.424  1.1161 -1.5293 -0.0543
10656TIP3   OH253458   1.533   0.634  14.874  0.3561  0.1415 -0.2841
10656TIP3    H153459   1.501   0.546  14.894 -1.4950  0.9860  0.7016
10656TIP3    H253460   1.499   0.652  14.786  2.2111 -0.7387 -1.2359
10657TIP3   OH253461   6.198   3.090   5.243 -0.0267 -0.1122  0.2117
10657TIP3    H153462   6.213   3.141   5.323  1.9296  0.2120 -0.3069
10657TIP3    H253463   6.167   3.005   5.275  0.2591  0.1672  1.2948
10658TIP3   OH253464   2.611   6.033   1.809 -0.3976 -0.4908 -0.3464
10658TIP3    H153465   2.673   5.961   1.817 -0.1413 -0.1447  1.0300
10658TIP3    H253466   2.557   6.028   1.888 -1.9302 -0.5858 -1.3597
10659TIP3   OH253467   5.425   1.325  13.939 -0.2747  0.3349 -0.6632
10659TIP3    H153468   5.471   1.292  14.016  0.8324  0.6461 -1.1713
10659TIP3    H253469   5.377   1.402  13.970 -0.1169  0.2525 -0.2108
10660TIP3   OH253470   3.071   3.026  12.663 -0.0087  0.5426  0.1806
10660TIP3    H153471   3.166   3.023  12.673  0.2490  1.0141 -1.7295
10660TIP3    H253472   3.045   2.936  12.647  0.2002  0.5132  0.0097
10661TIP3   OH253473   0.706   2.784  16.384  0.1519  0.3235  0.3292
10661TIP3    H153474   0.757   2.760  16.307 -1.4677 -1.2158 -0.3391
10661TIP3    H253475   0.744   2.733  16.455 -0.0257 -0.3061 -0.0209
10662TIP3   OH253476   4.873   3.962  17.033 -0.1355 -0.2211 -0.4568
10662TIP3    H153477   4.874   3.989  17.125 -0.6790 -0.4361 -0.3866
10662TIP3    H253478   4.869   3.866  17.036  1.7471 -0.3422 -0.7131
10663TIP3   OH253479   2.024   3.296   6.332 -0.3402  0.2033 -0.3002
10663TIP3    H153480   1.934   3.271   6.353 -0.7752  1.1763 -0.9477
10663TIP3    H253481   2.020   3.331   6.244  0.7117  0.1410 -0.3955
10664TIP3   OH253482   3.118   4.859   5.477  0.1167 -0.3404 -0.7937
10664TIP3    H153483   3.108   4.890   5.567 -0.7045 -2.4049 -0.1209
10664TIP3    H253484   3.189   4.795   5.482  0.1283 -0.4045 -1.6604
10665TIP3   OH253485   5.745   3.463   6.449  0.0136 -0.6239  0.0957
10665TIP3    H153486   5.818   3.417   6.489 -0.1000  0.3611  1.5048
10665TIP3    H253487   5.683   3.394   6.426  1.0836 -1.4085 -0.5005
10666TIP3   OH253488   1.834   5.717  11.895 -0.2496  0.0436  0.2211
10666TIP3    H153489   1.751   5.695  11.939 -0.7147  2.6499  0.8002
10666TIP3    H253490   1.866   5.794  11.942  2.0190 -0.2923 -0.6585
10667TIP3   OH253491   0.367   3.058   3.661 -0.2123  0.0385 -0.4778
10667TIP3    H153492   0.458   3.089   3.653 -0.0087  0.2185  1.9144
10667TIP3    H253493   0.349   3.017   3.576  2.0199  0.1792 -1.1036
10668TIP3   OH253494   4.088   1.573   3.057 -0.6817  0.4551  0.0857
10668TIP3    H153495   4.145   1.517   3.109  0.8298  1.3836 -0.5294
10668TIP3    H253496   4.084   1.531   2.971 -1.2002  0.2367  0.2067
10669TIP3   OH253497   6.311   2.219   5.461  0.3992 -0.2487  0.4422
10669TIP3    H153498   6.288   2.142   5.513  1.4561 -0.4856  0.5829
10669TIP3    H253499   6.378   2.264   5.513  0.2932  0.3944  0.0356
10670TIP3   OH253500   0.918   5.354  12.027  0.7912  0.0453 -0.6228
10670TIP3    H153501   0.906   5.353  12.122 -0.8342  0.0889 -0.7888
10670TIP3    H253502   0.858   5.286  11.995 -0.4319  1.5871 -1.7501
10671TIP3   OH253503   2.632   1.962  15.879 -0.3569  0.0202 -0.6372
10671TIP3    H153504   2.653   1.994  15.791  0.1786  3.3380  0.5685
10671TIP3    H253505   2.571   1.890  15.864 -0.5438  0.6803 -3.7182
10672TIP3   OH253506   1.290   4.278  11.645 -0.1176  0.3936 -0.5502
10672TIP3    H153507   1.227   4.291  11.716  0.2893  0.6741 -0.2340
10672TIP3    H253508   1.283   4.357  11.592 -1.4600 -0.4213 -1.6678
10673TIP3   OH253509   3.023   5.701   4.153  0.2825  0.3834  0.0502
10673TIP3    H153510   3.053   5.647   4.080  2.6987  0.6614  0.7586
10673TIP3    H253511   3.019   5.640   4.227  0.6405  0.6823  0.3142
10674TIP3   OH253512   0.877   0.803   0.913 -0.7356  0.4840 -0.1008
10674TIP3    H153513   0.845   0.891   0.929  0.1864  0.8214 -0.0241
10674TIP3    H253514   0.873   0.760   0.998  0.7821  1.1355  0.3360
10675TIP3   OH253515   6.275   2.191  14.924 -0.1313 -0.0714 -0.5760
10675TIP3    H153516   6.367   2.208  14.904 -0.0112  0.1465  0.1528
10675TIP3    H253517   6.234   2.277  14.925 -0.4559 -0.2019 -1.3826
10676TIP3   OH253518   6.003   4.872   0.805 -0.0666  0.3180  0.1972
10676TIP3    H153519   6.002   4.941   0.871  0.0393  1.2731 -0.7816
10676TIP3    H253520   5.927   4.817   0.827  0.3500  0.2269  1.5024
10677TIP3   OH253521   1.658   5.507   0.893 -0.5045  0.0038  0.4494
10677TIP3    H153522   1.676   5.488   0.985  1.1926 -1.8037 -0.2093
10677TIP3    H253523   1.743   5.500   0.850 -1.2047  1.2438 -1.2137
10678TIP3   OH253524   0.119   4.694  11.107 -0.0981 -0.6096 -0.2968
10678TIP3    H153525   0.032   4.708  11.145 -0.1220 -0.6818 -0.3246
10678TIP3    H253526   0.180   4.710  11.179 -0.1142 -0.1727 -0.3740
10679TIP3   OH253527   4.390   2.065  11.790 -0.1786 -0.0850  0.2097
10679TIP3    H153528   4.300   2.068  11.759  0.0670 -1.0046 -0.6336
10679TIP3    H253529   4.391   1.995  11.855 -0.1429  0.1564  0.4709
10680TIP3   OH253530   2.990   0.120  12.599  0.5988  0.2375 -0.6191
10680TIP3    H153531   3.057   0.184  12.623  0.3091  0.3061  0.0373
10680TIP3    H253532   2.908   0.168  12.605  0.3316 -0.3234  0.3993
10681TIP3   OH253533   4.188   1.795  10.489 -0.3645 -0.2794  0.1168
10681TIP3    H153534   4.202   1.704  10.464 -2.7514 -0.6433 -0.1326
10681TIP3    H253535   4.094   1.809  10.478  0.0257  2.4222 -0.4911
10682TIP3   OH253536   5.585   4.439   2.215 -0.2404 -0.4027  0.9119
10682TIP3    H153537   5.584   4.356   2.263  0.8411 -0.8680  0.1740
10682TIP3    H253538   5.584   4.506   2.284  0.8619 -1.0466  1.6010
10683TIP3   OH253539   4.223   3.884  17.206 -0.3481  0.1439 -0.1937
10683TIP3    H153540   4.317   3.895  17.193 -0.3400  0.3136  0.0075
10683TIP3    H253541   4.210   3.789  17.208 -0.0331  0.1050  0.8205
10684TIP3   OH253542   0.925   6.578   4.778  0.0008 -0.2769  0.6262
10684TIP3    H153543   0.908   6.609   4.866  0.6196 -1.3499  1.1561
10684TIP3    H253544   1.009   6.617   4.754 -0.3593  0.3336  0.3470
10685TIP3   OH253545   2.601   5.038  16.820  0.1015 -0.3997 -0.7549
10685TIP3    H153546   2.509   5.061  16.806  0.1393 -0.5006 -1.1764
10685TIP3    H253547   2.636   5.110  16.871 -0.2255 -0.3874 -0.5382
10686TIP3   OH253548   2.167   2.304   3.440  0.2197 -0.0045  0.0734
10686TIP3    H153549   2.166   2.398   3.458 -1.3421 -0.2209  1.2949
10686TIP3    H253550   2.092   2.289   3.383 -0.0220 -0.6073  0.5325
10687TIP3   OH253551   5.465   3.257   2.356 -0.1417 -0.4009 -0.4317
10687TIP3    H153552   5.415   3.175   2.362 -2.0935  0.4895 -2.9222
10687TIP3    H253553   5.406   3.324   2.391  0.5979  0.2568 -0.4148
10688TIP3   OH253554   2.034   3.584   5.003  0.8915  0.2428 -0.6658
10688TIP3    H153555   1.959   3.525   4.998 -0.9416  2.3243  0.6793
10688TIP3    H253556   2.025   3.641   4.926  0.4155  1.1777  0.0532
10689TIP3   OH253557   0.523   5.434   2.889  0.5543  0.4238 -0.2316
10689TIP3    H153558   0.581   5.438   2.966 -1.4691  0.8535  1.3393
10689TIP3    H253559   0.505   5.526   2.869 -0.0391  0.2828 -0.3353
10690TIP3   OH253560   0.647   1.059   6.059  1.0605  0.0314  0.3810
10690TIP3    H153561   0.563   1.102   6.040  1.1700  0.1903  0.2430
10690TIP3    H253562   0.680   1.033   5.973 -0.3013 -2.8579  0.6319
10691TIP3   OH253563   1.227   4.235   5.956  0.0629 -0.3682 -0.0469
10691TIP3    H153564   1.149   4.202   5.913  1.3658 -0.4042 -2.6009
10691TIP3    H253565   1.265   4.159   6.000  0.0878 -1.0299 -1.1650
10692TIP3   OH253566   4.106   4.469  15.593  0.1028  0.3300  0.6718
10692TIP3    H153567   4.059   4.391  15.563  1.6889 -0.7675  0.9253
10692TIP3    H253568   4.037   4.532  15.615 -1.1987 -0.7961 -0.0719
10693TIP3   OH253569   6.429   4.730   4.160  0.2179  0.3447  0.3232
10693TIP3    H153570   6.461   4.750   4.248 -1.9201  0.2807  1.1643
10693TIP3    H253571   6.467   4.645   4.140 -1.5008 -1.0328  2.4243
10694TIP3   OH253572   4.927   1.378  14.726  0.7250 -0.5108  0.4401
10694TIP3    H153573   4.998   1.318  14.703  1.3669  0.3188  0.2413
10694TIP3    H253574   4.889   1.402  14.642  1.2386  0.2915  0.4310
10695TIP3   OH253575   5.773   4.284   5.262 -0.1343  0.1624  0.1400
10695TIP3    H153576   5.681   4.302   5.243 -0.3093  1.7752  2.1599
10695TIP3    H253577   5.771   4.228   5.340  0.6229 -1.2578 -0.8037
10696TIP3   OH253578   2.922   2.811  16.944  0.4035 -0.4221  0.3619
10696TIP3    H153579   2.903   2.786  16.854  1.7114 -0.9521  0.2151
10696TIP3    H253580   2.862   2.884  16.962 -0.2882 -0.7022 -0.7174
10697TIP3   OH253581   3.269   6.419   1.937  0.4334  0.4430  0.4302
10697TIP3    H153582   3.257   6.512   1.957  1.6490  0.3684  1.6208
10697TIP3    H253583   3.350   6.415   1.887  0.1222  0.0690 -0.0534
10698TIP3   OH253584   5.877   6.388  16.419  0.2134 -0.0637  0.2651
10698TIP3    H153585   5.835   6.462  16.375 -2.0578 -0.2134  1.9833
10698TIP3    H253586   5.940   6.355  16.356 -0.9274  1.3916 -1.7545
10699TIP3   OH253587   2.160   1.396  13.646  0.3483 -0.1553 -0.4422
10699TIP3    H153588   2.205   1.311  13.641 -0.4891 -0.5834 -1.2627
10699TIP3    H253589   2.186   1.432  13.730  1.0012 -1.0751 -0.2253
10700TIP3   OH253590   4.817   4.413  12.024 -0.5276  0.1232  0.4658
10700TIP3    H153591   4.864   4.406  11.941 -1.4594 -1.2668  0.0196
10700TIP3    H253592   4.847   4.495  12.062 -0.5540  1.1081 -1.5431
10701TIP3   OH253593   1.540   4.419   2.522 -0.3229  0.0513 -0.1874
10701TIP3    H153594   1.466   4.435   2.463 -2.7738  2.1929  3.1516
10701TIP3    H253595   1.536   4.325   2.540 -0.3292 -0.3981 -2.2525
10702TIP3   OH253596   6.337   5.732   3.267  0.4233  0.2646 -0.8471
10702TIP3    H153597   6.293   5.725   3.352  1.9326 -1.2145 -0.1276
10702TIP3    H253598   6.276   5.782   3.212 -0.8707  0.6989  0.9038
10703TIP3   OH253599   5.129   1.109  11.971  0.1403 -0.2332  0.2417
10703TIP3    H153600   5.103   1.038  12.029  0.0750 -0.3821  0.0319
10703TIP3    H253601   5.123   1.071  11.883  0.2640 -0.0182  0.1402
10704TIP3   OH253602   0.636   6.629  14.340  0.0490  0.5854 -0.3565
10704TIP3    H153603   0.624   6.551  14.285 -0.7001  2.0847 -2.4346
10704TIP3    H253604   0.677   6.596  14.420 -0.9568 -2.0527 -0.8254
10705TIP3   OH253605   5.660   3.502   0.642 -0.1588 -0.1741  0.4790
10705TIP3    H153606   5.741   3.539   0.677  0.4518 -1.0492  0.0491
10705TIP3    H253607   5.687   3.461   0.560 -0.9787 -0.7222  0.4734
10706TIP3   OH253608   3.024   2.577  12.004 -0.8396 -0.0425  0.0789
10706TIP3    H153609   3.045   2.664  11.972 -2.7045  0.1162 -0.7990
10706TIP3    H253610   3.058   2.517  11.937  0.5220 -0.0414  0.7261
10707TIP3   OH253611   3.605   4.150  14.015  0.4240  0.2539  0.0364
10707TIP3    H153612   3.637   4.102  14.091  3.8440  0.9586 -0.8063
10707TIP3    H253613   3.666   4.222  14.003  0.2352  0.0253 -3.5314
10708TIP3   OH253614   0.043   0.533   0.958  0.6610  0.0820 -0.7865
10708TIP3    H153615  -0.042   0.576   0.947  0.4101  0.2312  1.3537
10708TIP3    H253616   0.021   0.442   0.978  0.9150  0.3514  0.8522
10709TIP3   OH253617   3.839   6.186   1.722  0.0465 -0.2078  0.0192
10709TIP3    H153618   3.844   6.093   1.744  0.6565 -0.1890 -0.0074
10709TIP3    H253619   3.757   6.216   1.761 -0.5675 -0.9378 -0.6676
10710TIP3   OH253620   5.128   4.000   0.534  0.3077 -0.5595 -0.5971
10710TIP3    H153621   5.181   4.028   0.609  0.1050 -1.0554 -0.2622
10710TIP3    H253622   5.114   4.080   0.484 -2.0128  0.4676  1.4407
10711TIP3   OH253623   5.651   4.841  11.280  0.1279 -0.1565  0.3859
10711TIP3    H153624   5.679   4.879  11.197 -0.7298  0.0184  0.1622
10711TIP3    H253625   5.567   4.884  11.299  0.4806  0.0530  1.5185
10712TIP3   OH253626   5.989   1.795  15.356 -0.0401  0.3069  0.0790
10712TIP3    H153627   6.070   1.801  15.407  0.5093 -3.7234 -0.0182
10712TIP3    H253628   6.017   1.769  15.268 -1.3468  0.4539 -0.4098
10713TIP3   OH253629   3.900   2.730  14.705 -0.1971  0.2380  0.6086
10713TIP3    H153630   3.824   2.777  14.672 -0.4441 -0.7298 -0.2792
10713TIP3    H253631   3.972   2.793  14.699 -0.7559  0.8817  0.6061
10714TIP3   OH253632   5.080   0.149   0.042 -0.0421  0.0081 -0.0337
10714TIP3    H153633   5.079   0.196   0.125  1.0098 -0.6137  0.3492
10714TIP3    H253634   4.989   0.150   0.012 -0.6401 -0.7073  1.6642
10715TIP3   OH253635   4.342   5.852   0.407 -0.4245 -0.0589  0.5900
10715TIP3    H153636   4.424   5.896   0.385 -0.7368 -0.6160 -2.0257
10715TIP3    H253637   4.368   5.777   0.461  0.4543  1.2982  2.1067
10716TIP3   OH253638   3.074   3.184  17.040 -0.3773  0.2573 -0.4044
10716TIP3    H153639   3.097   3.234  16.962 -1.2267 -0.3215 -1.0409
10716TIP3    H253640   3.021   3.244  17.092  1.5521  1.2327  0.5724
10717TIP3   OH253641   2.293   0.068   2.414  0.4901 -0.4902  0.3210
10717TIP3    H153642   2.227   0.066   2.483 -0.1877 -1.6498 -0.3136
10717TIP3    H253643   2.333  -0.019   2.417  0.2956 -0.6428 -0.8675
10718TIP3   OH253644   5.004   5.261   5.029  0.2239 -0.2474 -0.0724
10718TIP3    H153645   5.004   5.257   5.124  1.2542  0.1289 -0.0370
10718TIP3    H253646   5.093   5.236   5.004  0.0475 -0.0686 -0.9214
10719TIP3   OH253647   0.990   6.512  14.789 -0.3225  0.1457 -0.0897
10719TIP3    H153648   1.005   6.604  14.771  3.8454 -0.3405 -0.1817
10719TIP3    H253649   0.954   6.510  14.878 -0.6675  1.8510 -0.1717
10720TIP3   OH253650   0.060   3.719   1.146  0.3090  0.1741 -0.4498
10720TIP3    H153651   0.008   3.793   1.178 -0.4210 -0.5521  0.0846
10720TIP3    H253652   0.083   3.743   1.056 -0.8168  0.5935 -0.6401
10721TIP3   OH253653   2.552   2.170   5.020  0.3595 -0.0133 -0.0835
10721TIP3    H153654   2.559   2.238   4.953  3.1335 -0.2785 -0.1656
10721TIP3    H253655   2.472   2.193   5.069  0.6661  2.7372 -0.7006
10722TIP3   OH253656   3.938   5.127   2.325 -0.2765 -0.4962  0.4741
10722TIP3    H153657   3.969   5.049   2.280  1.1918  1.5380 -2.3441
10722TIP3    H253658   3.846   5.135   2.298 -0.5309 -1.3713  1.0408
10723TIP3   OH253659   4.263   0.088  15.782  0.1776 -0.9550  0.0285
10723TIP3    H153660   4.335   0.055  15.836  2.1652 -0.0446 -1.9247
10723TIP3    H253661   4.266   0.036  15.702 -0.1937  0.2554 -0.8127
10724TIP3   OH253662   2.569   4.838  12.508 -0.3627  0.7312 -0.2028
10724TIP3    H153663   2.632   4.864  12.575  0.1751  0.8927 -0.7582
10724TIP3    H253664   2.525   4.761  12.545  0.0374  0.7191  0.2628
10725TIP3   OH253665   2.841   2.275   1.894 -0.4911  1.0882 -0.4727
10725TIP3    H153666   2.813   2.187   1.919 -1.8908  1.7770  0.5764
10725TIP3    H253667   2.789   2.333   1.950  1.2998  2.5591 -0.2511
10726TIP3   OH253668   4.950   1.070  14.635  0.5921  0.3064 -0.1398
10726TIP3    H153669   4.896   0.992  14.626 -1.7457  1.8432 -0.5057
10726TIP3    H253670   5.028   1.052  14.582  0.3063 -1.8839  0.1120
10727TIP3   OH253671   0.274   1.586   0.733  0.2910 -0.7038  0.5281
10727TIP3    H153672   0.287   1.573   0.827 -0.4798  1.4337  0.9822
10727TIP3    H253673   0.197   1.533   0.713  1.3925 -2.4572  0.7162
10728TIP3   OH253674   6.058   3.619   0.877  0.1691 -0.7983  0.2879
10728TIP3    H153675   6.060   3.541   0.932  0.7663 -1.3110 -0.4461
10728TIP3    H253676   6.088   3.590   0.791 -0.0427  0.1421 -0.1258
10729TIP3   OH253677   3.654   1.655   4.670 -0.5156  0.5464 -0.1596
10729TIP3    H153678   3.683   1.745   4.657 -0.7102  0.5583 -0.5347
10729TIP3    H253679   3.654   1.617   4.583 -1.6302  0.5587 -0.1905
10730TIP3   OH253680   3.956   6.673   5.778 -0.0750  0.3449  0.4015
10730TIP3    H153681   3.899   6.727   5.834 -0.8162 -0.2229  0.2115
10730TIP3    H253682   3.957   6.588   5.821 -2.1535 -0.6717 -1.3436
10731TIP3   OH253683   4.282   6.235   3.554  0.3933  0.4279 -0.2375
10731TIP3    H153684   4.364   6.214   3.598  0.0891 -0.3797 -0.0158
10731TIP3    H253685   4.250   6.150   3.522 -1.0571  0.4654  0.9515
10732TIP3   OH253686   1.619   4.914   4.603  0.2870 -0.1308  0.3234
10732TIP3    H153687   1.572   4.850   4.657  0.9995 -0.0305  1.0758
10732TIP3    H253688   1.671   4.965   4.666 -0.2331  1.1657 -0.2603
10733TIP3   OH253689   3.785   2.991   4.848 -0.0654  0.1160  0.1961
10733TIP3    H153690   3.774   3.047   4.771  0.6425  0.0579  0.0455
10733TIP3    H253691   3.724   2.919   4.835  1.4685 -0.9619 -1.3145
10734TIP3   OH253692   6.054   1.268   4.575 -0.2121 -0.0307 -0.0605
10734TIP3    H153693   6.066   1.174   4.586  0.1366  0.1179  0.9780
10734TIP3    H253694   5.982   1.290   4.634  0.5028  0.5305  0.6263
10735TIP3   OH253695   6.411   0.224  13.835 -0.1479 -0.0595  0.1301
10735TIP3    H153696   6.428   0.291  13.769 -0.9820  0.5549  0.5227
10735TIP3    H253697   6.398   0.143  13.785  0.6811  0.1046 -0.3566
10736TIP3   OH253698   6.678   2.323  12.746  0.0066  0.1506  0.6143
10736TIP3    H153699   6.732   2.249  12.775 -1.8183 -0.9592  1.3624
10736TIP3    H253700   6.675   2.315  12.651 -2.8177 -2.8948  0.7377
10737TIP3   OH253701   1.260   1.713   6.504  1.0825  0.9436 -0.6309
10737TIP3    H153702   1.312   1.680   6.578 -1.3080 -0.5453  0.5038
10737TIP3    H253703   1.233   1.633   6.457 -1.0089  1.5804 -0.5729
10738TIP3   OH253704   5.267   5.362  11.495  0.1075 -0.2036 -0.3263
10738TIP3    H153705   5.353   5.325  11.515  0.6205  0.1234 -1.8078
10738TIP3    H253706   5.261   5.440  11.549  0.1594 -0.9570  0.7921
10739TIP3   OH253707   1.360   4.459   1.709  0.6396  0.1288  0.1922
10739TIP3    H153708   1.293   4.510   1.754  0.9477  0.5129  0.2163
10739TIP3    H253709   1.442   4.505   1.726  0.6095  1.0496 -1.8485
10740TIP3   OH253710   3.429   1.128  11.173  0.1875 -0.0222  0.0407
10740TIP3    H153711   3.409   1.109  11.081  0.1683 -0.6321  0.1691
10740TIP3    H253712   3.428   1.223  11.178  0.1621  0.0155 -0.5879
10741TIP3   OH253713   2.071   5.361  15.889 -0.1479 -0.0804 -0.5482
10741TIP3    H153714   1.981   5.381  15.917 -0.0874  1.0594 -1.1182
10741TIP3    H253715   2.064   5.277  15.844 -1.1606  0.5588 -1.6496
10742TIP3   OH253716   3.389   4.872  14.839 -0.0873  0.1916  0.1792
10742TIP3    H153717   3.425   4.943  14.786 -2.2496  1.4488  0.2804
10742TIP3    H253718   3.433   4.793  14.807  1.4223  1.3826 -0.8373
10743TIP3   OH253719   2.808   3.290   3.038  0.1510  0.7478  0.5343
10743TIP3    H153720   2.847   3.272   2.953  1.4357  0.6635  1.1228
10743TIP3    H253721   2.752   3.366   3.023 -2.2009 -1.1698 -1.0748
10744TIP3   OH253722   2.018   0.042  14.872 -0.1978 -0.0160 -0.3086
10744TIP3    H153723   1.976  -0.034  14.833  1.1380 -0.6337 -0.5899
10744TIP3    H253724   1.992   0.115  14.815 -3.2540  0.1783  1.1898
10745TIP3   OH253725   5.305   3.822   0.403 -0.0246 -0.4609  0.1876
10745TIP3    H153726   5.243   3.873   0.455  0.0498 -2.3006  2.2441
10745TIP3    H253727   5.348   3.764   0.467  2.0125 -1.0126 -1.5546
10746TIP3   OH253728   4.740   1.524   4.253 -0.1061  0.4161  0.0177
10746TIP3    H153729   4.798   1.489   4.185  0.5965  0.9497  0.3314
10746TIP3    H253730   4.787   1.508   4.335 -0.0867  1.4505  0.2229
10747TIP3   OH253731   0.923   4.896  17.053 -0.0245 -0.8527  0.3287
10747TIP3    H153732   0.904   4.938  16.969 -0.7959 -0.3519  0.7366
10747TIP3    H253733   1.013   4.921  17.073 -0.9462  2.1666  1.3759
10748TIP3   OH253734   5.323   3.758  11.377  0.1467 -0.3806 -0.7043
10748TIP3    H153735   5.240   3.781  11.335  0.0316  0.3569 -0.1022
10748TIP3    H253736   5.368   3.703  11.312 -1.0066 -1.2043 -0.8377
10749TIP3   OH253737   3.071   0.521  12.685  0.6241 -0.6312 -0.0419
10749TIP3    H153738   3.067   0.585  12.614  0.8192  0.9111  1.2823
10749TIP3    H253739   3.038   0.440  12.646 -1.7993  0.8011 -1.1964
10750TIP3   OH253740   0.491   1.702  12.203 -0.9888 -0.2346  0.1633
10750TIP3    H153741   0.499   1.617  12.247  1.1939 -0.6174 -0.8246
10750TIP3    H253742   0.451   1.681  12.118 -2.5932  0.1061  0.7960
10751TIP3   OH253743   1.288   1.547   0.753 -1.2674  0.0908 -0.2057
10751TIP3    H153744   1.209   1.496   0.734 -0.7561 -0.7049 -0.2275
10751TIP3    H253745   1.342   1.488   0.806 -1.8568  1.5735  2.2235
10752TIP3   OH253746   3.500   2.280  13.598 -0.1492 -0.0423  0.3968
10752TIP3    H153747   3.433   2.323  13.545  1.4423  1.0952 -0.7945
10752TIP3    H253748   3.513   2.195  13.556  2.4314  1.5553 -2.3985
10753TIP3   OH253749   5.748   5.949   1.967 -0.3662  0.2467 -0.1506
10753TIP3    H153750   5.791   6.035   1.962 -0.9556  0.6707  1.3451
10753TIP3    H253751   5.670   5.965   2.020 -0.0754 -1.3704  0.8423
10754TIP3   OH253752   0.832   1.692  16.984 -0.4660  0.2931 -0.4812
10754TIP3    H153753   0.909   1.687  16.928 -0.4436  0.2327 -0.4440
10754TIP3    H253754   0.759   1.675  16.925 -0.4437  0.2476 -0.4959
10755TIP3   OH253755   2.838   3.708  16.454 -0.4034  0.0251 -0.5463
10755TIP3    H153756   2.856   3.794  16.416  0.7912  0.0721  0.0900
10755TIP3    H253757   2.840   3.723  16.549 -3.8385  0.0225 -0.3251
10756TIP3   OH253758   4.356   4.370   4.118 -0.3116 -0.2007 -0.5382
10756TIP3    H153759   4.396   4.287   4.092 -1.6095 -0.3188 -2.3128
10756TIP3    H253760   4.396   4.435   4.060 -2.6799 -0.3436 -2.4596
10757TIP3   OH253761   5.314   3.980  12.273  0.1580  0.4268 -0.2416
10757TIP3    H153762   5.338   3.889  12.255 -2.1864 -0.0687 -1.1363
10757TIP3    H253763   5.244   3.999  12.211 -0.7166  2.2501  1.2267
10758TIP3   OH253764   4.349   2.582  11.290  0.5208  0.3823  0.3472
10758TIP3    H153765   4.440   2.610  11.292  0.1871  1.6486 -0.7946
10758TIP3    H253766   4.319   2.602  11.201 -0.8903  0.0767  0.7190
10759TIP3   OH253767   0.164   5.794  11.400 -0.3496  0.5857 -0.7295
10759TIP3    H153768   0.219   5.733  11.449 -1.3649  0.4305  0.2861
10759TIP3    H253769   0.168   5.763  11.310  1.6455  0.9293 -0.8038
10760TIP3   OH253770   0.444   5.071  15.758  0.1751 -0.2768 -0.7032
10760TIP3    H153771   0.435   5.161  15.726 -1.3160  0.1147  0.6789
10760TIP3    H253772   0.515   5.075  15.822  0.9634 -0.3727 -1.5547
10761TIP3   OH253773   5.786   5.739   2.510 -0.2092  0.4798  0.0139
10761TIP3    H153774   5.809   5.805   2.445 -1.2660  0.6834 -0.1655
10761TIP3    H253775   5.847   5.754   2.582  0.2100  0.9967 -0.4439
10762TIP3   OH253776   3.779   2.886   3.583  0.1378  0.4627  0.6919
10762TIP3    H153777   3.824   2.802   3.574 -0.0939  0.4045  0.0111
10762TIP3    H253778   3.723   2.875   3.660 -0.8900 -0.4834 -0.1581
10763TIP3   OH253779   0.157   5.379   5.576 -0.0295 -0.0054 -0.5899
10763TIP3    H153780   0.199   5.461   5.549  0.0963  0.7150  1.6015
10763TIP3    H253781   0.200   5.356   5.658 -0.0712 -2.3136 -1.1573
10764TIP3   OH253782   4.313   4.058  16.475 -0.0677  0.0383 -0.1277
10764TIP3    H153783   4.285   3.970  16.450  0.7160 -0.7732  1.6120
10764TIP3    H253784   4.409   4.051  16.481 -0.0484  0.7975  0.6860
10765TIP3   OH253785   4.047   5.806  14.422  0.1786 -0.2840  0.2278
10765TIP3    H153786   3.956   5.793  14.448  0.3364 -0.1061  0.8914
10765TIP3    H253787   4.094   5.732  14.460  0.2266 -0.6941 -0.6097
10766TIP3   OH253788   1.937   0.967   2.072 -0.1352 -0.1951  0.1971
10766TIP3    H153789   1.982   0.917   2.004 -3.0617 -0.8223 -1.4547
10766TIP3    H253790   1.888   0.901   2.122  0.0807  0.5259  1.4113
10767TIP3   OH253791   0.721   4.302  16.657  0.0961  0.0298  0.6768
10767TIP3    H153792   0.737   4.278  16.748 -0.7689  0.7414  1.0304
10767TIP3    H253793   0.771   4.238  16.606  2.0157  0.6740  1.6567
10768TIP3   OH253794   3.248   4.003   3.969 -0.5987  0.3410  0.1171
10768TIP3    H153795   3.291   3.936   4.021 -1.8141 -1.1975 -0.7921
10768TIP3    H253796   3.180   3.957   3.920  0.1554  1.7979 -2.4583
10769TIP3   OH253797   2.479   6.096   4.082  0.0733 -0.1767 -0.1286
10769TIP3    H153798   2.530   6.076   4.160 -3.1125 -1.0321  1.9445
10769TIP3    H253799   2.454   6.010   4.047  0.0696  0.2179 -1.1446
10770TIP3   OH253800   5.404   0.676  14.102  0.6631 -0.0390 -0.1247
10770TIP3    H153801   5.309   0.669  14.107  0.5504  1.8339  2.0098
10770TIP3    H253802   5.430   0.604  14.044 -2.1142  0.1898 -1.8707
10771TIP3   OH253803   1.175   6.152  11.969 -0.2629  0.1927 -0.0964
10771TIP3    H153804   1.201   6.218  11.905 -0.4851 -0.6375 -1.0525
10771TIP3    H253805   1.089   6.122  11.939  0.6351 -1.8637 -0.7497
10772TIP3   OH253806   2.387   4.892  14.426  0.1031  0.2026 -0.3070
10772TIP3    H153807   2.354   4.966  14.374 -1.5782 -0.0221  0.3637
10772TIP3    H253808   2.411   4.827  14.360 -0.2889  0.5999 -0.8612
10773TIP3   OH253809   2.107   2.508  15.449  0.8804 -0.4240 -0.3320
10773TIP3    H153810   2.038   2.448  15.420  1.8201 -1.3228 -0.7420
10773TIP3    H253811   2.061   2.590  15.467 -0.1734 -0.7374 -1.4702
10774TIP3   OH253812   4.876   3.845   2.085 -0.2211  0.5135  0.0758
10774TIP3    H153813   4.838   3.869   2.001 -0.1299 -1.0679 -0.4519
10774TIP3    H253814   4.912   3.758   2.071 -0.6842 -0.0237  1.9067
10775TIP3   OH253815   2.319   5.914  13.271  0.0709  0.0737 -0.5621
10775TIP3    H153816   2.340   6.007  13.260  1.8472 -0.3156 -0.7506
10775TIP3    H253817   2.398   5.868  13.242  0.4921 -1.4012  2.5046
10776TIP3   OH253818   1.455   1.490   0.018 -0.1798 -0.1674  0.7806
10776TIP3    H153819   1.550   1.503   0.015 -0.1652 -0.4095 -0.1533
10776TIP3    H253820   1.419   1.579   0.027  0.1273 -0.0835  1.2301
10777TIP3   OH253821   5.611   6.299   4.515  0.3349  0.4563 -0.1848
10777TIP3    H153822   5.640   6.211   4.539  0.4613  0.6548  0.4102
10777TIP3    H253823   5.673   6.328   4.449 -0.8955 -0.6889 -1.9314
10778TIP3   OH253824   5.392   6.805  12.637 -0.2721  0.0397  0.4783
10778TIP3    H153825   5.420   6.814  12.728  1.0814 -1.6843  0.2592
10778TIP3    H253826   5.339   6.726  12.636 -0.6252  0.2771 -0.1788
10779TIP3   OH253827   4.675   1.382   0.490 -0.3506  0.1783 -0.2412
10779TIP3    H153828   4.638   1.354   0.407  0.2798  1.9130 -1.1713
10779TIP3    H253829   4.651   1.314   0.553 -3.0408  0.0867 -1.2747
10780TIP3   OH253830   6.807   1.788   1.149 -0.3250  0.1221  0.0461
10780TIP3    H153831   6.888   1.737   1.146  0.1467  0.8354 -3.8703
10780TIP3    H253832   6.759   1.750   1.223  2.7679 -1.4720  1.4712
10781TIP3   OH253833   3.529   4.375  15.357  0.8103  0.3657  0.0489
10781TIP3    H153834   3.486   4.458  15.337  1.9392  1.1472  0.7378
10781TIP3    H253835   3.465   4.308  15.334  0.9199  1.2629 -3.2782
10782TIP3   OH253836   0.928   2.768   4.160  0.3061 -0.1853  0.6902
10782TIP3    H153837   1.016   2.733   4.152  1.3058  1.7443  2.2588
10782TIP3    H253838   0.933   2.829   4.234 -1.9526  1.1443 -0.1474
10783TIP3   OH253839   6.812   5.569   6.033  0.8853 -0.3511 -0.1153
10783TIP3    H153840   6.794   5.477   6.015  1.5602 -0.6939  0.8538
10783TIP3    H253841   6.901   5.583   6.001  1.1001 -0.2660  0.5011
10784TIP3   OH253842   0.299   4.380   4.398  0.1183 -0.0240 -0.1966
10784TIP3    H153843   0.386   4.348   4.374 -1.0063 -1.3195 -3.0169
10784TIP3    H253844   0.294   4.468   4.360  0.5388  0.4910  0.9077
10785TIP3   OH253845   4.906   2.718  16.239 -0.0347  0.1311 -0.5574
10785TIP3    H153846   4.889   2.634  16.197 -1.6691  0.7599 -1.2440
10785TIP3    H253847   4.886   2.783  16.172  0.3301  1.0972  0.2435
10786TIP3   OH253848   4.928   4.780   0.515 -0.5222  0.0831  0.4964
10786TIP3    H153849   4.996   4.817   0.458  1.4839 -0.9796  2.0785
10786TIP3    H253850   4.893   4.855   0.562  1.5939  0.4218  1.6941
10787TIP3   OH253851   5.871   4.796  15.341 -0.9157  0.4619 -0.3035
10787TIP3    H153852   5.804   4.783  15.274 -0.6585  0.8801 -0.6512
10787TIP3    H253853   5.952   4.765  15.300 -0.4428  2.2822 -0.8460
10788TIP3   OH253854   1.780   2.125   3.140 -0.0654  0.3759 -0.1980
10788TIP3    H153855   1.685   2.118   3.152 -0.0230 -1.1513 -0.4995
10788TIP3    H253856   1.792   2.139   3.046  0.0217 -0.6600 -0.3591
10789TIP3   OH253857   2.751   2.501  16.307 -0.8853  0.1051  0.4432
10789TIP3    H153858   2.799   2.418  16.309 -1.7572 -0.4601 -0.6618
10789TIP3    H253859   2.797   2.554  16.242 -0.9428  0.0830  0.3831
10790TIP3   OH253860   5.009   0.218  13.099 -0.0328 -0.4518  0.4430
10790TIP3    H153861   4.964   0.223  13.183  0.1040  0.3789  0.4787
10790TIP3    H253862   5.102   0.213  13.122 -0.1029 -2.8599  0.3882
10791TIP3   OH253863   2.689   4.434  11.203  0.3904  0.8198  0.3274
10791TIP3    H153864   2.718   4.367  11.141  1.8786 -1.1036  2.8720
10791TIP3    H253865   2.607   4.467  11.166  1.3702  0.1064 -2.7763
10792TIP3   OH253866   2.524   2.790   6.301  0.0947  0.5294 -0.3224
10792TIP3    H153867   2.438   2.816   6.334  0.3544 -0.9300  1.6796
10792TIP3    H253868   2.585   2.853   6.340  0.5804 -1.9719  3.5585
10793TIP3   OH253869   5.504   2.606   2.740 -0.6702 -0.2819  0.0425
10793TIP3    H153870   5.485   2.677   2.801  2.8015  1.3006 -0.4194
10793TIP3    H253871   5.571   2.554   2.785 -2.4589 -2.8123 -0.0323
10794TIP3   OH253872   4.235   2.037   6.533 -0.2983  0.0353  0.0527
10794TIP3    H153873   4.265   1.996   6.614 -1.3713  0.8865  0.8980
10794TIP3    H253874   4.140   2.043   6.543 -0.4224  0.3352 -1.1893
10795TIP3   OH253875   6.545   3.772   5.838 -0.6058  0.0316  0.5869
10795TIP3    H153876   6.579   3.861   5.831  1.0783 -0.3560  2.9616
10795TIP3    H253877   6.574   3.729   5.757  0.9860  0.8924  0.6724
10796TIP3   OH253878   2.980   3.466   0.307 -0.3230  0.1913  0.2011
10796TIP3    H153879   2.979   3.519   0.227  0.0273 -0.7386 -0.4351
10796TIP3    H253880   2.996   3.377   0.277 -0.9992 -0.3098  1.2391
10797TIP3   OH253881   2.498   3.701   1.299  0.1476 -0.0012 -0.3494
10797TIP3    H153882   2.508   3.792   1.328 -1.4622 -0.5167  2.0447
10797TIP3    H253883   2.588   3.671   1.283  0.8160  1.5298  0.3321
10798TIP3   OH253884   1.364   2.916   3.251 -0.5958 -0.2302  0.4924
10798TIP3    H153885   1.422   2.848   3.216 -0.7418 -0.9761  1.6442
10798TIP3    H253886   1.292   2.921   3.189  1.1014  1.3968 -1.5204
10799TIP3   OH253887   5.930   4.313  11.949  0.3799 -0.3378  0.3359
10799TIP3    H153888   5.841   4.305  11.983 -0.3363  1.0555 -1.0996
10799TIP3    H253889   5.919   4.344  11.859  2.3260  0.5950  0.3617
10800TIP3   OH253890   1.596   6.701  11.272  0.3789 -0.0980 -0.3276
10800TIP3    H153891   1.582   6.790  11.307  0.8685  0.3016 -1.1209
10800TIP3    H253892   1.535   6.647  11.322  0.3191  0.6230  0.4174
10801TIP3   OH253893   0.682   1.923  11.918 -0.3328 -0.6422 -0.2196
10801TIP3    H153894   0.668   1.937  12.011 -2.3286  0.1972 -0.6045
10801TIP3    H253895   0.729   2.002  11.888 -1.1838 -0.1257 -0.2184
10802TIP3   OH253896   1.962   3.870   4.357 -0.6549  0.1733 -0.9337
10802TIP3    H153897   2.017   3.865   4.435 -1.8570  2.4907  0.1399
10802TIP3    H253898   1.920   3.784   4.351  0.4484 -0.4776  0.1648
10803TIP3   OH253899   4.762   3.795   1.505  0.4444  0.1124 -0.9156
10803TIP3    H153900   4.782   3.767   1.594  0.6751  0.8314 -0.7309
10803TIP3    H253901   4.833   3.856   1.483  0.8863 -0.7322 -1.9280
10804TIP3   OH253902   2.000   0.288  11.290  0.0562 -0.1317 -0.5606
10804TIP3    H153903   2.070   0.237  11.248 -0.2779  0.2085 -1.5487
10804TIP3    H253904   1.919   0.252  11.254 -0.1796  1.2043 -1.3999
10805TIP3   OH253905   4.335   5.596   4.820 -0.6558  0.1851 -0.8673
10805TIP3    H153906   4.325   5.511   4.775 -1.4623  0.5762 -1.4644
10805TIP3    H253907   4.255   5.605   4.872  0.4588 -0.4508  1.0300
10806TIP3   OH253908   3.955   3.718   5.694  0.6318  0.1351  0.4416
10806TIP3    H153909   3.967   3.796   5.747  0.1846 -0.3488  1.2815
10806TIP3    H253910   3.921   3.652   5.756  3.1281 -1.4118  0.3074
10807TIP3   OH253911   2.336   3.674  14.383  0.3256 -0.5918 -0.0408
10807TIP3    H153912   2.270   3.688  14.452 -0.7709 -1.5291 -0.8461
10807TIP3    H253913   2.389   3.753  14.384  1.0605 -1.0332  2.6301
10808TIP3   OH253914   1.060   1.128  11.653  0.1790 -0.4221 -0.3421
10808TIP3    H153915   1.143   1.142  11.608  0.0273 -0.6697 -0.7001
10808TIP3    H253916   1.004   1.084  11.589 -0.4252  0.2486 -0.3000
10809TIP3   OH253917   4.933   5.134   5.849 -0.0026 -0.4999 -0.5134
10809TIP3    H153918   4.995   5.067   5.879 -0.9716 -1.0721  0.3143
10809TIP3    H253919   4.937   5.129   5.754  0.5919 -1.1248 -0.4668
10810TIP3   OH253920   3.020   6.077   1.670 -0.0766  0.5488  0.0379
10810TIP3    H153921   3.040   6.166   1.642 -2.9291  0.7342 -1.8688
10810TIP3    H253922   3.009   6.028   1.588 -0.8232 -0.9704  0.9996
10811TIP3   OH253923   0.733   1.222  16.730 -0.0115 -0.4229 -0.2081
10811TIP3    H153924   0.797   1.155  16.756 -0.1080 -1.0924 -1.6229
10811TIP3    H253925   0.785   1.293  16.694 -0.0145 -0.6509 -0.6701
10812TIP3   OH253926   2.161   4.495   0.292  0.4351  0.5181  0.3179
10812TIP3    H153927   2.158   4.566   0.355 -0.2589  0.4928  0.3261
10812TIP3    H253928   2.158   4.539   0.207 -1.4529  0.4940  0.3142
10813TIP3   OH253929   5.328   4.934   2.463  0.3817 -0.5562  0.4486
10813TIP3    H153930   5.283   4.864   2.510  1.1260  0.7540  3.3926
10813TIP3    H253931   5.290   5.015   2.499  0.8704  0.5718 -1.4251
10814TIP3   OH253932   1.804   4.714  12.466 -0.4896  0.4334  0.0178
10814TIP3    H153933   1.801   4.705  12.370  1.2781 -3.0577  0.1048
10814TIP3    H253934   1.889   4.755  12.483 -0.5296  0.4758  0.1141
10815TIP3   OH253935   3.370   1.582  11.401  0.0062  0.3599  0.0291
10815TIP3    H153936   3.351   1.645  11.331 -1.5410  0.2374  0.3104
10815TIP3    H253937   3.413   1.509  11.356  0.4074  0.9432 -0.5517
10816TIP3   OH253938   3.375   6.486   2.615  0.1762  0.1697 -0.4563
10816TIP3    H153939   3.292   6.500   2.570  0.7778 -1.7374 -2.3219
10816TIP3    H253940   3.437   6.466   2.545  2.6538  3.0909  0.7002
10817TIP3   OH253941   6.694   4.757   2.862  0.3632  0.6607 -0.4246
10817TIP3    H153942   6.761   4.697   2.896 -2.2448 -1.6155  1.1103
10817TIP3    H253943   6.711   4.840   2.908  1.2848 -0.2684  0.9977
10818TIP3   OH253944   3.703   5.324  15.903 -0.7712 -0.3986 -0.2106
10818TIP3    H153945   3.632   5.383  15.929 -0.0857  0.5997 -0.5395
10818TIP3    H253946   3.666   5.272  15.832 -1.3631 -0.3116  0.0273
10819TIP3   OH253947   6.431   6.127  11.460 -0.5185  0.0479  0.1140
10819TIP3    H153948   6.497   6.187  11.495  0.0688 -1.3870  1.5541
10819TIP3    H253949   6.418   6.156  11.369  1.2821  1.0446  0.1363
10820TIP3   OH253950   4.008   1.198  15.850 -0.1849  0.6087 -0.7377
10820TIP3    H153951   4.097   1.165  15.840  0.3121  2.3590 -2.5671
10820TIP3    H253952   4.014   1.266  15.916 -0.6951 -0.9190  0.9717
10821TIP3   OH253953   1.218   2.983  10.927 -0.1811  0.7874 -0.6521
10821TIP3    H153954   1.177   3.064  10.898  2.1331  1.0863 -3.5955
10821TIP3    H253955   1.145   2.924  10.944 -1.8867  2.1725 -2.6424
10822TIP3   OH253956   6.137   5.151   1.908  0.2205  0.2385 -0.6482
10822TIP3    H153957   6.119   5.074   1.962 -1.4936  1.6409  0.9231
10822TIP3    H253958   6.227   5.175   1.930 -0.0368  0.0607  0.6574
10823TIP3   OH253959   2.726   6.259   2.424  0.0923 -0.0535 -0.7514
10823TIP3    H153960   2.712   6.299   2.338 -1.4558  3.6711  0.9715
10823TIP3    H253961   2.644   6.277   2.471  1.1803 -1.2453  1.7442
10824TIP3   OH253962   4.130   4.683   2.969  0.3039 -0.3248  0.0421
10824TIP3    H153963   4.144   4.737   2.890  1.5086 -0.5796  0.0630
10824TIP3    H253964   4.090   4.603   2.936  0.2391 -0.1822 -0.2341
10825TIP3   OH253965   3.197   5.588  14.083 -0.2247 -0.3435  0.4583
10825TIP3    H153966   3.202   5.564  13.991  1.6404  0.6031  0.2491
10825TIP3    H253967   3.223   5.509  14.130  1.8152 -0.0125 -0.0161
10826TIP3   OH253968   6.557   4.716   2.590 -0.0827  0.6247 -0.1982
10826TIP3    H153969   6.483   4.773   2.612  0.7614  1.0912  1.6064
10826TIP3    H253970   6.592   4.688   2.674 -0.0389 -2.0835 -1.0227
10827TIP3   OH253971   2.478   1.535   2.577 -0.1675  0.3352 -0.1424
10827TIP3    H153972   2.474   1.606   2.513  0.4443  0.1059 -0.4410
10827TIP3    H253973   2.514   1.577   2.656  2.5199 -0.1068 -1.0344
10828TIP3   OH253974   6.284   2.497  12.550 -0.1009 -0.5004  0.2477
10828TIP3    H153975   6.258   2.581  12.514  0.9361 -0.1526  0.2891
10828TIP3    H253976   6.324   2.450  12.476 -0.0876 -0.7011  0.3813
10829TIP3   OH253977   0.702   5.074  14.125 -0.2675 -0.0535  0.4008
10829TIP3    H153978   0.679   5.118  14.206 -1.0526  0.0099  0.1612
10829TIP3    H253979   0.746   4.993  14.152 -1.0246 -0.3067  0.9069
10830TIP3   OH253980   2.110   5.397   0.140 -0.1390  0.3591  0.2890
10830TIP3    H153981   2.080   5.319   0.187  2.0648  0.7924  2.6598
10830TIP3    H253982   2.169   5.364   0.073  0.4077 -0.0614  0.9694
10831TIP3   OH253983   2.839   4.588  17.048 -0.0863 -0.0490 -0.9096
10831TIP3    H153984   2.925   4.558  17.077 -0.6887 -1.9483 -0.9693
10831TIP3    H253985   2.831   4.557  16.958  0.3224  2.7268 -2.0040
10832TIP3   OH253986   5.873   2.860   1.846 -0.3652  0.0740  0.0339
10832TIP3    H153987   5.862   2.795   1.776  0.5678 -1.4083  1.1921
10832TIP3    H253988   5.789   2.861   1.891  0.1452 -1.8669  1.1923
10833TIP3   OH253989   5.398   2.675   1.979 -0.2471 -0.3771  0.0180
10833TIP3    H153990   5.405   2.582   2.000 -1.1425 -0.3892  0.3329
10833TIP3    H253991   5.343   2.678   1.901 -0.4281 -0.1062  0.1519
10834TIP3   OH253992   4.435   2.721  13.178 -0.5086 -0.2417  0.1541
10834TIP3    H153993   4.447   2.667  13.257 -1.7302 -1.4183 -0.4254
10834TIP3    H253994   4.380   2.667  13.121  1.3646  0.0612 -2.0435
10835TIP3   OH253995   2.083   2.453  15.733  0.4647  0.3484  0.3731
10835TIP3    H153996   2.021   2.515  15.772 -0.1713  0.0237 -0.1013
10835TIP3    H253997   2.098   2.487  15.644  0.2478 -0.0731  0.1711
10836TIP3   OH253998   2.392   5.724  14.874  0.4018 -0.0869  0.1858
10836TIP3    H153999   2.302   5.731  14.907  0.3980  0.9949 -0.0203
10836TIP3    H254000   2.445   5.707  14.952 -0.1346 -2.3852  0.1209
10837TIP3   OH254001   0.175   0.392  11.603  0.0415  0.6404  0.3209
10837TIP3    H154002   0.181   0.302  11.635  2.0381  0.8126  0.5774
10837TIP3    H254003   0.181   0.385  11.508  0.5610  0.5102  0.3607
10838TIP3   OH254004   2.655   1.048  11.601  0.2310 -0.0222 -0.1295
10838TIP3    H154005   2.634   1.052  11.508  2.7875 -0.1159 -0.8012
10838TIP3    H254006   2.624   1.131  11.637 -0.3497  0.2259 -1.1675
10839TIP3   OH254007   4.215   3.775  15.947 -0.0757 -0.1827  0.4301
10839TIP3    H154008   4.123   3.759  15.926  0.5123  0.2554 -3.1211
10839TIP3    H254009   4.223   3.870  15.952  0.1461 -0.2242  0.8968
10840TIP3   OH254010   1.247   3.737  16.354 -0.4206  0.2578  0.3811
10840TIP3    H154011   1.309   3.695  16.294  0.3407  1.5962  0.2015
10840TIP3    H254012   1.191   3.789  16.297  0.0502  1.2171  0.7690
10841TIP3   OH254013   2.583   0.702   0.797 -0.0545  0.3782 -0.0167
10841TIP3    H154014   2.606   0.790   0.824 -1.3743  1.2701 -1.6224
10841TIP3    H254015   2.659   0.671   0.747  0.5940  0.4088  0.9397
10842TIP3   OH254016   4.271   1.483   6.388 -0.0368  0.1743 -0.0582
10842TIP3    H154017   4.187   1.492   6.342 -0.0516  0.8580  0.0930
10842TIP3    H254018   4.285   1.568   6.429  1.2051  0.4037 -0.8871
10843TIP3   OH254019   6.291   6.479   1.731 -0.0117 -0.0539  0.7559
10843TIP3    H154020   6.244   6.396   1.733  0.8505 -0.5531  1.0687
10843TIP3    H254021   6.247   6.531   1.664 -0.2962 -0.9290  0.2558
10844TIP3   OH254022   5.589   1.358   2.461 -0.3833  0.2361 -0.0095
10844TIP3    H154023   5.627   1.446   2.469  1.2536 -0.2521 -1.6940
10844TIP3    H254024   5.494   1.373   2.464 -0.1490  1.7428  2.2055
10845TIP3   OH254025   2.158   5.981  16.597 -0.1180  0.6165 -0.0945
10845TIP3    H154026   2.131   5.966  16.687  0.3660  0.3406  0.0098
10845TIP3    H254027   2.189   5.896  16.567 -0.7072  0.6020 -0.6750
10846TIP3   OH254028   0.076   5.497  12.057  0.5027  0.2140  0.0907
10846TIP3    H154029   0.020   5.447  12.118  2.5004 -0.0285  1.8261
10846TIP3    H254030   0.046   5.587  12.066  0.2617  0.0665  0.8670
10847TIP3   OH254031   5.262   6.069   3.649 -0.2042 -0.3930  0.0632
10847TIP3    H154032   5.274   6.080   3.744 -2.2860  1.2728  0.1922
10847TIP3    H254033   5.168   6.072   3.636 -0.1707 -3.2656 -1.8485
10848TIP3   OH254034   3.703   0.656  15.121  0.0190  0.4336  0.5592
10848TIP3    H154035   3.773   0.693  15.176 -0.3266 -0.3986  1.5907
10848TIP3    H254036   3.679   0.728  15.062  0.2617  1.4396  1.6431
10849TIP3   OH254037   1.032   2.143  13.632 -0.3656 -0.0023  0.2527
10849TIP3    H154038   1.092   2.090  13.579 -1.2998  0.0280 -0.8853
10849TIP3    H254039   1.019   2.222  13.580  0.8291  1.2901  1.8217
10850TIP3   OH254040   3.496   3.896   0.532 -0.1221  0.4368  0.1459
10850TIP3    H154041   3.483   3.982   0.492 -0.4203  0.3638  0.0792
10850TIP3    H254042   3.475   3.908   0.624 -0.1871  0.4299  0.1319
10851TIP3   OH254043   1.264   1.383  12.490 -0.0460  0.5931 -0.0702
10851TIP3    H154044   1.221   1.382  12.575  1.2927 -1.6211  0.6515
10851TIP3    H254045   1.293   1.474  12.479 -0.7047  1.0381  1.5948
10852TIP3   OH254046   4.441   4.370  15.208 -0.0944  0.1250 -0.0250
10852TIP3    H154047   4.439   4.323  15.292 -1.3480 -0.9318 -0.6210
10852TIP3    H254048   4.377   4.326  15.154  0.5152  0.9561 -1.4860
10853TIP3   OH254049   5.784   5.072  13.964  0.1907 -0.0963  0.0846
10853TIP3    H154050   5.815   4.993  14.009 -2.2071 -1.3394 -0.2831
10853TIP3    H254051   5.721   5.112  14.024  0.4682  0.8743 -0.2480
10854TIP3   OH254052   0.566   2.210  14.850  0.2980 -0.3908  0.3265
10854TIP3    H154053   0.473   2.225  14.835  0.0637 -1.6745  0.3799
10854TIP3    H254054   0.574   2.200  14.945  0.6496  0.6432  0.4152
10855TIP3   OH254055   0.886   0.683  14.541  0.1335  0.2263  0.4181
10855TIP3    H154056   0.917   0.687  14.632  1.1223 -2.0547  0.2735
10855TIP3    H254057   0.963   0.653  14.492 -1.0908 -1.2096 -0.7024
10856TIP3   OH254058   0.240   6.288  16.203  0.3795  0.1233  0.9139
10856TIP3    H154059   0.322   6.280  16.155 -0.1097  1.8207 -0.2922
10856TIP3    H254060   0.180   6.228  16.159 -0.0193  1.5455 -0.6081
10857TIP3   OH254061   4.233   6.686  15.000 -0.3741 -0.4044  0.1257
10857TIP3    H154062   4.321   6.700  14.967 -0.6652  1.8590  0.1948
10857TIP3    H254063   4.242   6.614  15.064  1.3543 -0.3495 -0.0241
10858TIP3   OH254064   4.168   1.459   1.993  0.2517 -0.1021  0.0523
10858TIP3    H154065   4.176   1.364   1.986 -0.9216 -0.3104  1.0638
10858TIP3    H254066   4.076   1.473   2.016 -0.0499  1.4028 -1.8168
10859TIP3   OH254067   3.166   2.498  15.250  0.5412  0.2842  0.6483
10859TIP3    H154068   3.163   2.562  15.321 -0.9151  0.9550  0.0177
10859TIP3    H254069   3.078   2.499  15.212  0.8966 -1.0479 -0.3110
10860TIP3   OH254070   3.712   4.391   2.777  0.5586 -0.1584 -0.2159
10860TIP3    H154071   3.797   4.428   2.754  1.4453 -0.6166  2.1003
10860TIP3    H254072   3.723   4.296   2.768 -0.7846 -0.1558 -3.1167
10861TIP3   OH254073   3.276   5.961   0.399  0.0414  0.1195  0.6143
10861TIP3    H154074   3.238   5.916   0.475  0.5578 -0.7559  0.3600
10861TIP3    H254075   3.235   5.920   0.323 -0.9836  1.4547  0.4143
10862TIP3   OH254076   5.604   0.837  12.824 -0.0952 -0.1755  0.7802
10862TIP3    H154077   5.518   0.869  12.796  0.1042  0.1304  0.5141
10862TIP3    H254078   5.606   0.746  12.795  1.4427  0.9644 -3.4168
10863TIP3   OH254079   2.583   0.981  17.045  0.7627  0.3729 -0.4740
10863TIP3    H154080   2.556   1.056  17.099  0.3225 -1.0257  1.3617
10863TIP3    H254081   2.671   0.960  17.078  1.1024  0.3767 -1.3486
10864TIP3   OH254082   4.445   2.655  17.129  0.1115 -0.0412  0.2734
10864TIP3    H154083   4.464   2.563  17.114 -1.7035 -0.5774  0.9740
10864TIP3    H254084   4.530   2.695  17.146  0.8958 -1.6424  0.2805
10865TIP3   OH254085   5.384   1.363  16.718  0.3728 -0.2666 -0.1276
10865TIP3    H154086   5.299   1.325  16.695 -0.2689 -0.0342  1.7424
10865TIP3    H254087   5.374   1.456  16.701 -0.3616  0.0203  1.7004
10866TIP3   OH254088   5.873   5.314   2.629  0.0753  0.2026  0.0393
10866TIP3    H154089   5.898   5.221   2.630 -1.5107 -0.2444 -0.0740
10866TIP3    H254090   5.949   5.358   2.591  1.0043 -1.0003  0.4251
10867TIP3   OH254091   3.388   4.035   2.751  0.5662 -0.0389 -0.3469
10867TIP3    H154092   3.384   4.108   2.689  2.1975 -0.7135 -1.3339
10867TIP3    H254093   3.446   3.972   2.709  0.9830 -0.9446  1.4893
10868TIP3   OH254094   3.957   0.901  12.976 -0.7303 -0.3376  0.1809
10868TIP3    H154095   4.019   0.971  12.996  0.3176 -0.9168 -0.8828
10868TIP3    H254096   3.924   0.923  12.888 -0.7331 -0.9316  0.0287
10869TIP3   OH254097   2.172   3.180  14.153  0.2400 -0.2989  0.7477
10869TIP3    H154098   2.090   3.131  14.154 -0.8191  1.2415 -1.2259
10869TIP3    H254099   2.206   3.173  14.242 -0.1846 -3.8977  0.7398
10870TIP3   OH254100   5.119   1.949   5.513 -0.1332 -0.3959 -0.7530
10870TIP3    H154101   5.152   2.017   5.572 -1.5041 -0.5089  0.2012
10870TIP3    H254102   5.140   1.867   5.558 -1.5172 -0.4731 -0.1913
10871TIP3   OH254103   2.916   4.728   0.866  0.3046  0.4617  0.0852
10871TIP3    H154104   2.989   4.754   0.809 -1.1203  3.1324 -0.6690
10871TIP3    H254105   2.863   4.669   0.811 -0.0159  1.4617 -0.7213
10872TIP3   OH254106   6.622   5.160  15.943  0.4314  0.0677  0.0692
10872TIP3    H154107   6.607   5.245  15.986  0.1230  1.1040 -1.9793
10872TIP3    H254108   6.602   5.176  15.851 -1.3190 -2.6800 -0.1243
10873TIP3   OH254109   3.396   4.475  12.324 -0.3562 -0.2138 -0.1904
10873TIP3    H154110   3.432   4.561  12.301 -2.6233  1.0268  0.5499
10873TIP3    H254111   3.414   4.420  12.248 -0.6583  1.5074 -1.5603
10874TIP3   OH254112   5.461   0.447   0.819  0.2110 -0.4564 -0.7804
10874TIP3    H154113   5.434   0.482   0.734  0.3310  0.2512 -0.5300
10874TIP3    H254114   5.381   0.408   0.855 -0.0675  0.0808 -0.8061
10875TIP3   OH254115   4.486   3.593  12.094  0.2322  0.2804 -0.7174
10875TIP3    H154116   4.439   3.676  12.104  1.6223  1.1613 -1.0070
10875TIP3    H254117   4.505   3.588  12.000  0.1148 -0.4028 -0.7087
10876TIP3   OH254118   5.047   4.507   1.302  0.0823  0.1066  0.4967
10876TIP3    H154119   5.004   4.422   1.290  0.0904 -0.2479  2.6312
10876TIP3    H254120   4.982   4.561   1.347 -0.0132  1.3777 -1.0250
10877TIP3   OH254121   2.358   3.428  12.661  0.0186 -0.4624  0.1441
10877TIP3    H154122   2.400   3.343  12.674  2.4689  0.8342  1.3699
10877TIP3    H254123   2.366   3.445  12.567 -0.1717 -1.3867 -0.0524
10878TIP3   OH254124   3.898   5.727   0.917 -0.2155 -0.0963 -0.6394
10878TIP3    H154125   3.885   5.731   1.012  2.0067 -0.7436 -0.2351
10878TIP3    H254126   3.912   5.818   0.892 -0.6689  0.0660 -0.3267
10879TIP3   OH254127   4.654   1.699   0.095 -0.1169 -0.1991  0.1886
10879TIP3    H154128   4.699   1.722   0.015  1.0642  0.3929  1.0007
10879TIP3    H254129   4.693   1.616   0.122  0.4047  0.2424  0.8175
10880TIP3   OH254130   4.501   3.307  12.192 -0.6231  0.0542 -0.1329
10880TIP3    H154131   4.455   3.389  12.210  0.0180  0.1805  0.9760
10880TIP3    H254132   4.519   3.270  12.278  0.6928 -0.3537 -0.5690
10881TIP3   OH254133   6.478   6.247  16.227 -0.2720  0.0229  0.2879
10881TIP3    H154134   6.425   6.205  16.295 -1.2475  1.8424  0.7243
10881TIP3    H254135   6.438   6.218  16.145  0.2916 -1.4006  0.4938
10882TIP3   OH254136   3.490   1.274  12.946  0.0583 -0.3448 -0.2163
10882TIP3    H154137   3.496   1.238  13.035  1.7712 -0.9262 -0.5382
10882TIP3    H254138   3.532   1.208  12.890 -3.7921 -1.5615 -2.0067
10883TIP3   OH254139   4.302   2.604   1.530  0.0293  0.0512 -0.8735
10883TIP3    H154140   4.290   2.624   1.623 -0.9062 -0.7706 -0.7998
10883TIP3    H254141   4.369   2.666   1.501 -1.1018  1.7262 -0.1244
10884TIP3   OH254142   6.232   1.627  12.095  0.0826  0.4045 -0.8430
10884TIP3    H154143   6.156   1.680  12.116 -0.3486  0.0660 -1.5387
10884TIP3    H254144   6.196   1.549  12.054  0.6217 -0.8812  0.9697
10885TIP3   OH254145   6.701   6.380  16.022 -0.4050 -0.0790  0.4401
10885TIP3    H154146   6.626   6.377  15.963 -1.0313 -0.2294  1.2314
10885TIP3    H254147   6.714   6.474  16.040 -0.8132 -0.0926  0.8130
10886TIP3   OH254148   5.100   1.452   2.286  0.4152 -0.5970  0.2095
10886TIP3    H154149   5.024   1.396   2.302 -1.6449  2.6984  3.2540
10886TIP3    H254150   5.079   1.500   2.206  0.8144 -1.8703 -0.6970
10887TIP3   OH254151   0.532   3.029   3.046  0.0243 -0.1978 -0.0512
10887TIP3    H154152   0.500   2.947   3.008  0.2669 -0.0420 -0.6018
10887TIP3    H254153   0.593   3.063   2.981  1.3677 -0.5108  0.9819
10888TIP3   OH254154   6.096   2.684  16.877 -0.1236  0.4505  0.0575
10888TIP3    H154155   6.127   2.613  16.821  0.7113  1.2524 -0.5228
10888TIP3    H254156   6.036   2.733  16.821 -0.5090  0.3524  0.3811
10889TIP3   OH254157   3.589   5.533   3.131 -0.0683  0.4321 -0.7120
10889TIP3    H154158   3.588   5.538   3.035  2.3855  1.8250 -0.7397
10889TIP3    H254159   3.652   5.463   3.150 -0.3451  0.3423 -0.1074
10890TIP3   OH254160   6.383   5.969   1.179 -0.0912 -0.5082 -0.3804
10890TIP3    H154161   6.360   5.938   1.267  0.0396 -3.5295 -1.3011
10890TIP3    H254162   6.478   5.970   1.178 -0.0892  1.0850 -0.0250
10891TIP3   OH254163   1.652   2.721   5.566  0.1619  0.4064  0.1539
10891TIP3    H154164   1.659   2.797   5.509 -1.9711 -0.5648 -1.5491
10891TIP3    H254165   1.713   2.739   5.638  1.3467  2.6809 -1.2953
10892TIP3   OH254166   6.487   1.905  12.333 -0.2706 -0.2164 -0.4210
10892TIP3    H154167   6.579   1.913  12.359  0.4333 -0.6291 -2.6071
10892TIP3    H254168   6.460   1.995  12.315 -0.7145  0.0556  1.3925
10893TIP3   OH254169   1.613   0.137  15.473 -0.1075  0.6299  0.4864
10893TIP3    H154170   1.650   0.049  15.472 -0.5938  0.3967  1.6586
10893TIP3    H254171   1.685   0.194  15.448  0.9149  0.1274  2.1344
10894TIP3   OH254172   5.812   4.692   0.788  0.2674  0.3721  0.4607
10894TIP3    H154173   5.760   4.651   0.718 -2.1522  3.3669  0.2674
10894TIP3    H254174   5.790   4.642   0.866 -0.3779 -0.4097 -0.1964
10895TIP3   OH254175   0.557   4.580  14.233  0.8041  0.2397 -1.1452
10895TIP3    H154176   0.583   4.521  14.162  0.1262  0.6658 -1.7575
10895TIP3    H254177   0.592   4.539  14.312  2.8143  0.4752 -1.8443
10896TIP3   OH254178   3.712   4.487  14.234  0.0178 -0.6902  0.0059
10896TIP3    H154179   3.761   4.411  14.265  2.9874  0.8419 -0.6195
10896TIP3    H254180   3.712   4.478  14.139 -0.5342 -0.4461 -0.0201
10897TIP3   OH254181   1.480   4.031  14.525 -0.4355  0.2753  0.1223
10897TIP3    H154182   1.502   4.103  14.466  1.0719  2.0696  2.6781
10897TIP3    H254183   1.384   4.032  14.530 -0.4920  1.2331 -0.8915
10898TIP3   OH254184   4.544   2.142   4.937  0.5037 -0.3969  0.0683
10898TIP3    H154185   4.458   2.111   4.908  1.3421 -0.5855 -2.5559
10898TIP3    H254186   4.542   2.236   4.921  0.6695 -0.3442  0.3551
10899TIP3   OH254187   3.966   4.858  16.927 -0.0120 -0.5213 -0.2286
10899TIP3    H154188   4.018   4.844  16.847  1.1712 -1.8277  0.7202
10899TIP3    H254189   3.900   4.790  16.925 -0.1583 -0.3788 -0.2333
10900TIP3   OH254190   0.187   0.487   0.617  0.2634  0.2901  0.4236
10900TIP3    H154191   0.158   0.577   0.636 -0.4830  0.2257 -0.3856
10900TIP3    H254192   0.152   0.468   0.531  0.4367 -0.7859  0.5801
10901TIP3   OH254193   2.096   2.068   2.635  0.0503 -0.0955  0.3427
10901TIP3    H154194   2.099   2.163   2.624  1.2826 -0.1101  0.4147
10901TIP3    H254195   2.165   2.049   2.699  0.0042 -1.0662  0.1241
10902TIP3   OH254196   2.811   4.746   6.403  0.7499  0.5089 -0.1866
10902TIP3    H154197   2.786   4.822   6.455  1.1386 -0.0872  0.8976
10902TIP3    H254198   2.900   4.725   6.432 -0.0562 -1.5440  0.9821
10903TIP3   OH254199   3.257   5.510   1.447  0.0586 -0.7532  0.4048
10903TIP3    H154200   3.270   5.603   1.465  0.8775 -1.1710  2.0673
10903TIP3    H254201   3.184   5.509   1.384 -0.0769  0.9905  0.4764
10904TIP3   OH254202   1.387   1.552   4.776 -0.2031 -0.7596 -0.0285
10904TIP3    H154203   1.421   1.610   4.844 -2.5619  1.3416 -0.5004
10904TIP3    H254204   1.356   1.611   4.707 -0.1910 -2.7257 -1.8122
10905TIP3   OH254205   5.449   4.985  13.659 -0.0399 -0.0868 -0.6960
10905TIP3    H154206   5.543   5.002  13.652 -0.0282 -0.1701 -0.7425
10905TIP3    H254207   5.408   5.063  13.622 -0.0056  0.5283  0.5322
10906TIP3   OH254208   3.231   6.776  12.658 -0.2502  0.2855 -0.0675
10906TIP3    H154209   3.169   6.845  12.637 -0.9123 -0.4139 -0.4929
10906TIP3    H254210   3.314   6.821  12.671 -1.0731  1.3952  1.7959
10907TIP3   OH254211   6.643   6.268   2.146  0.3603  1.0314  0.6671
10907TIP3    H154212   6.633   6.334   2.216  1.6771  2.0618 -0.0744
10907TIP3    H254213   6.609   6.311   2.068 -0.1599  0.2595  0.4646
10908TIP3   OH254214   2.474   3.176   6.057  0.1437  0.0007  0.1327
10908TIP3    H154215   2.384   3.145   6.073 -0.0825 -0.3215 -1.5776
10908TIP3    H254216   2.487   3.245   6.122 -0.6549 -1.2010  1.6436
10909TIP3   OH254217   2.840   0.301   3.887 -0.1178 -0.2098 -0.1147
10909TIP3    H154218   2.835   0.348   3.970  1.8558  0.6679 -0.4366
10909TIP3    H254219   2.800   0.216   3.905 -0.8543  0.4181  1.3707
10910TIP3   OH254220   2.184   5.982  13.015  0.0613 -0.6378 -0.2974
10910TIP3    H154221   2.276   5.999  13.035  0.2606 -0.6137 -1.1812
10910TIP3    H254222   2.153   6.063  12.976 -0.6881 -0.2150  1.1340
10911TIP3   OH254223   4.391   1.282  11.842 -0.2939  0.3909  0.4944
10911TIP3    H154224   4.326   1.293  11.911  0.8774  0.2997  1.6557
10911TIP3    H254225   4.418   1.190  11.849 -1.7263 -0.2305 -1.5474
10912TIP3   OH254226   1.951   5.083  13.516 -0.0730 -0.1338 -0.0499
10912TIP3    H154227   1.873   5.029  13.503 -0.5089  0.9565 -2.2434
10912TIP3    H254228   2.013   5.052  13.450  0.4173  0.6943  0.0106
10913TIP3   OH254229   2.192   6.180  13.914 -0.0726  0.4492 -0.5386
10913TIP3    H154230   2.177   6.094  13.873  2.8255 -0.8384  0.7992
10913TIP3    H254231   2.157   6.170  14.003  0.2046  0.6293 -0.4059
10914TIP3   OH254232   2.198   0.761  10.924  0.5591 -0.4052  0.1091
10914TIP3    H154233   2.117   0.787  10.879  0.4557 -1.6284 -0.4445
10914TIP3    H254234   2.218   0.674  10.889  3.9009  1.0996 -2.2188
10915TIP3   OH254235   1.298   5.256   3.182  0.2432  0.2984 -0.1561
10915TIP3    H154236   1.320   5.187   3.244 -2.6134 -0.2678  0.3537
10915TIP3    H254237   1.338   5.335   3.218  0.5084 -0.4270  1.1926
10916TIP3   OH254238   1.429   1.535   1.048 -0.1113  0.4995 -0.0910
10916TIP3    H154239   1.368   1.468   1.019  0.8873  0.9737 -3.7816
10916TIP3    H254240   1.388   1.618   1.021  0.6921  1.0555  0.3489
10917TIP3   OH254241   3.173   6.048   2.216  0.7215 -0.0083  0.5078
10917TIP3    H154242   3.138   6.099   2.143 -0.8646 -0.6665  0.7704
10917TIP3    H254243   3.105   6.050   2.282  1.8439 -0.0227  1.7072
10918TIP3   OH254244   0.593   4.973   0.997  0.0210 -0.0130 -0.1473
10918TIP3    H154245   0.534   5.039   1.034  1.2900  0.7285  0.6410
10918TIP3    H254246   0.553   4.950   0.913 -1.6258  0.0955  0.5655
10919TIP3   OH254247   0.049   4.897  16.410  0.9189 -0.0644 -0.1999
10919TIP3    H154248   0.030   4.920  16.319  0.3608  1.4820  0.2770
10919TIP3    H254249   0.123   4.953  16.434  0.1332  0.6053  0.7220
10920TIP3   OH254250   1.948   1.366  14.606  0.5600  0.4217  0.1770
10920TIP3    H154251   1.884   1.294  14.612  1.0391  0.0412  0.9902
10920TIP3    H254252   2.027   1.324  14.571  0.7038  0.6472  0.2330
10921TIP3   OH254253   0.770   2.153  12.640  0.1531 -0.4237  0.5168
10921TIP3    H154254   0.753   2.084  12.704 -2.2799 -0.6961 -0.3168
10921TIP3    H254255   0.767   2.107  12.555 -1.7787  0.6671 -0.0663
10922TIP3   OH254256   2.862   6.776   4.186  0.0175  0.5014 -0.3212
10922TIP3    H154257   2.920   6.848   4.211  0.6574 -0.1844  0.1812
10922TIP3    H254258   2.810   6.758   4.264  1.1713 -0.8255  0.1778
10923TIP3   OH254259   4.832   0.181  13.313  0.1976  0.2690  0.4660
10923TIP3    H154260   4.864   0.215  13.397 -0.4541  0.8610  0.4852
10923TIP3    H254261   4.752   0.134  13.335  0.6886 -0.6457  0.3333
10924TIP3   OH254262   6.609   0.534   5.480 -0.2744 -0.5559 -0.2545
10924TIP3    H154263   6.649   0.619   5.460  0.8950 -1.2949 -1.1740
10924TIP3    H254264   6.637   0.514   5.569  0.5128 -0.5636 -0.5037
10925TIP3   OH254265   4.043   2.146   1.627 -0.2538 -0.1580 -0.4184
10925TIP3    H154266   4.036   2.122   1.534 -1.9618 -0.2627 -0.2963
10925TIP3    H254267   4.022   2.065   1.674  1.8032 -0.4479  0.1251
10926TIP3   OH254268   4.865   4.104   4.407 -0.4470  0.0304 -0.4979
10926TIP3    H154269   4.851   4.102   4.312 -2.0128 -0.2919 -0.2911
10926TIP3    H254270   4.884   4.013   4.431 -0.2882  0.0707 -0.4693
10927TIP3   OH254271   0.953   4.558  11.601 -0.4061  0.0693 -0.2079
10927TIP3    H154272   0.948   4.519  11.688  2.0958  3.1818  1.5193
10927TIP3    H254273   1.046   4.553  11.577 -0.8282  0.4872 -2.1287
10928TIP3   OH254274   2.921   4.362   4.800 -0.3063 -0.4207  0.2237
10928TIP3    H154275   2.882   4.376   4.714 -0.2403 -0.2496  0.2211
10928TIP3    H254276   2.861   4.301   4.844  0.3658 -1.5836 -0.4302
10929TIP3   OH254277   5.797   2.293   1.294 -0.0420 -0.2532 -0.1318
10929TIP3    H154278   5.723   2.233   1.303 -0.4438  0.1980 -0.4102
10929TIP3    H254279   5.835   2.297   1.382  0.1820 -1.1569 -0.1798
10930TIP3   OH254280   1.564   4.759  12.151  0.0781 -0.3799 -0.1903
10930TIP3    H154281   1.570   4.740  12.057  0.2548 -2.1120  0.1371
10930TIP3    H254282   1.567   4.673  12.193 -0.3953  0.3375  1.3939
10931TIP3   OH254283   2.495   0.506   4.863 -0.4242  0.1832 -0.2543
10931TIP3    H154284   2.528   0.416   4.870  0.3502  0.3747 -1.3312
10931TIP3    H254285   2.490   0.523   4.769  0.3959  1.6045 -0.0679
10932TIP3   OH254286   6.343   2.140  15.899  0.3611  0.3644 -0.0877
10932TIP3    H154287   6.435   2.114  15.906  0.8529  1.5248 -1.6742
10932TIP3    H254288   6.298   2.061  15.869  0.7931 -0.2592  0.8536
10933TIP3   OH254289   5.138   5.208  15.134 -0.1708 -0.2813 -0.6907
10933TIP3    H154290   5.135   5.113  15.125  0.1349 -0.4614  0.8297
10933TIP3    H254291   5.102   5.241  15.051  0.2376 -1.6944 -1.4740
10934TIP3   OH254292   1.491   5.493  13.324 -0.2024 -0.0937 -0.0590
10934TIP3    H154293   1.488   5.420  13.386 -2.8810  0.5579  0.6685
10934TIP3    H254294   1.510   5.570  13.378  1.2687 -0.0093 -0.6415
10935TIP3   OH254295   6.045   5.061  15.470 -0.3223  0.0448 -0.3323
10935TIP3    H154296   6.002   5.146  15.457 -1.5176 -0.4911 -0.1090
10935TIP3    H254297   6.059   5.027  15.382 -1.1386 -0.1211 -0.4124
10936TIP3   OH254298   1.567   2.058   2.523 -0.3623 -0.2241 -0.1282
10936TIP3    H154299   1.514   2.070   2.602  1.6017  0.9675  1.1155
10936TIP3    H254300   1.546   2.133   2.468  2.5369  2.3650  1.9870
10937TIP3   OH254301   4.323   5.554  14.892  0.2233  0.0760  0.5057
10937TIP3    H154302   4.275   5.491  14.947  0.2904 -0.2816  0.1591
10937TIP3    H254303   4.373   5.607  14.955 -0.5980  0.4349  0.8674
10938TIP3   OH254304   4.178   6.173  15.062  0.0237 -0.4691  0.4804
10938TIP3    H154305   4.262   6.188  15.018 -1.1266 -0.8027 -1.9686
10938TIP3    H254306   4.168   6.248  15.121  1.8887 -0.2849  0.6327
10939TIP3   OH254307   6.775   4.412  12.158  0.0696  0.1698  0.0011
10939TIP3    H154308   6.844   4.347  12.150 -0.5448 -0.5864  0.7519
10939TIP3    H254309   6.743   4.403  12.248  0.2125  1.7520  0.2473
10940TIP3   OH254310   2.273   1.448  16.285  0.4794 -0.4681 -0.1183
10940TIP3    H154311   2.328   1.526  16.280  1.3469 -1.0529  0.0621
10940TIP3    H254312   2.324   1.386  16.337 -1.3177 -0.2540  2.0232
10941TIP3   OH254313   6.469   6.487  16.768  0.8285  0.3909 -0.2337
10941TIP3    H154314   6.525   6.479  16.692 -1.0372  0.5043 -1.6995
10941TIP3    H254315   6.411   6.411  16.763 -0.4350  1.3002  0.0907
10942TIP3   OH254316   6.384   3.566   4.548 -1.0388 -0.1182  0.0607
10942TIP3    H154317   6.338   3.483   4.554 -2.1261  0.3173 -1.5289
10942TIP3    H254318   6.359   3.601   4.462  0.7156  1.0685 -0.0185
10943TIP3   OH254319   6.228   0.166   1.136  0.5444  0.3118 -0.3460
10943TIP3    H154320   6.215   0.242   1.193 -1.3336 -1.5676  1.9599
10943TIP3    H254321   6.282   0.106   1.189  1.4166 -0.2828 -1.8414
10944TIP3   OH254322   0.369   4.547  17.061  0.0105  0.0798  0.7330
10944TIP3    H154323   0.314   4.479  17.101  0.1088 -1.1142 -1.0680
10944TIP3    H254324   0.310   4.594  17.002  0.5997 -0.3729 -0.2383
10945TIP3   OH254325   2.135   3.668   7.082 -0.5299 -0.6299  0.0470
10945TIP3    H154326   2.119   3.762   7.071 -0.9433 -0.7220 -0.1419
10945TIP3    H254327   2.106   3.649   7.171 -1.9267 -0.8872 -0.4468
10946TIP3   OH254328   4.199   3.145   2.843 -0.0136  0.0503 -0.1547
10946TIP3    H154329   4.109   3.169   2.821 -0.2893 -0.5324  0.3062
10946TIP3    H254330   4.235   3.109   2.762 -0.3515 -0.1495 -0.2168
10947TIP3   OH254331   1.286   3.707  15.779  0.7128 -0.4346 -0.0332
10947TIP3    H154332   1.271   3.758  15.858  0.1585 -1.2399  0.3976
10947TIP3    H254333   1.348   3.759  15.728  0.2361  0.6100  0.4283
10948TIP3   OH254334   4.597   6.392  16.149 -0.2422  0.1847 -0.3423
10948TIP3    H154335   4.646   6.472  16.130  0.2747 -0.1828 -0.5889
10948TIP3    H254336   4.604   6.381  16.244 -2.3213  1.7034  0.0644
10949TIP3   OH254337   2.671   2.064  13.913  0.1014 -0.4959  0.7658
10949TIP3    H154338   2.625   2.088  13.832  0.1133  0.4022  1.0099
10949TIP3    H254339   2.735   2.135  13.926  0.9204 -1.2531  0.9265
10950TIP3   OH254340   4.822   5.371  16.266 -0.8203  0.8556 -0.0465
10950TIP3    H154341   4.899   5.330  16.306 -2.1720 -1.5684  0.3125
10950TIP3    H254342   4.810   5.323  16.183 -1.5032  1.7099 -0.4569
10951TIP3   OH254343   1.925   3.533  11.718 -0.1320  0.3461 -0.1191
10951TIP3    H154344   1.926   3.628  11.721 -1.4251  0.3553  0.9835
10951TIP3    H254345   1.845   3.508  11.764 -0.2653 -1.2496 -1.1199
10952TIP3   OH254346   1.362   1.244  10.811  0.7298 -0.1773  0.2321
10952TIP3    H154347   1.422   1.171  10.827  0.1620 -1.5114 -2.8738
10952TIP3    H254348   1.276   1.209  10.832  0.5343 -0.1769 -0.5321
10953TIP3   OH254349   0.086   3.386  12.210 -0.1388 -0.5994 -0.4871
10953TIP3    H154350   0.148   3.434  12.265  1.6498 -0.5650 -2.3961
10953TIP3    H254351   0.110   3.294  12.222  0.2065 -0.5974 -1.0982
10954TIP3   OH254352   2.751   3.946   3.975  0.0005  0.4867 -0.0202
10954TIP3    H154353   2.838   3.906   3.973  0.1890  0.7740  1.4005
10954TIP3    H254354   2.690   3.873   3.967  0.3546  0.2968 -1.1707
10955TIP3   OH254355   6.310   6.770   2.336  0.2125  0.5423  0.2901
10955TIP3    H154356   6.305   6.730   2.423  0.5754  0.4680  0.2774
10955TIP3    H254357   6.240   6.835   2.335  0.7026  1.0807  0.9087
10956TIP3   OH254358   5.560   3.139  12.783 -0.5697 -0.7594  0.3992
10956TIP3    H154359   5.638   3.122  12.836 -0.0429  0.2176 -0.0298
10956TIP3    H254360   5.543   3.057  12.737  0.1748 -0.9905  0.5288
10957TIP3   OH254361   2.163   3.845  17.021 -0.2422 -0.2498  0.0316
10957TIP3    H154362   2.191   3.845  16.930  2.7923  0.1610  0.8394
10957TIP3    H254363   2.216   3.914  17.062 -3.1431  1.1651  1.6959
10958TIP3   OH254364   2.496   1.720   4.135  0.0339 -0.4938 -0.0585
10958TIP3    H154365   2.522   1.790   4.194 -2.4494  1.9216 -1.5987
10958TIP3    H254366   2.538   1.741   4.052  0.2973 -1.6187 -0.2379
10959TIP3   OH254367   3.423   5.315  13.274 -0.3209 -0.3300  0.1639
10959TIP3    H154368   3.367   5.393  13.285  0.6313  0.0828  2.4913
10959TIP3    H254369   3.370   5.255  13.221 -2.1001  0.9000  0.4751
10960TIP3   OH254370   1.026   0.200  16.580 -0.6247  0.0921  0.6273
10960TIP3    H154371   0.960   0.191  16.648 -0.5601 -1.4379  0.5150
10960TIP3    H254372   1.025   0.116  16.533  1.9470 -0.3158  1.1474
10961TIP3   OH254373   4.574   3.103  17.037 -0.0389 -0.5042  0.3030
10961TIP3    H154374   4.648   3.079  17.092  2.5394  1.8248 -1.8157
10961TIP3    H254375   4.586   3.051  16.957 -0.4285  0.1708 -0.2112
10962TIP3   OH254376   2.756   1.244  12.489 -0.2616  0.2020 -0.2081
10962TIP3    H154377   2.818   1.185  12.533  0.4280 -0.4961 -2.0125
10962TIP3    H254378   2.808   1.321  12.468 -0.6253  0.5954  0.3247
10963TIP3   OH254379   1.258   6.033   6.477  0.7690 -0.3018  0.0533
10963TIP3    H154380   1.179   5.979   6.488  0.3209  0.7487  2.5610
10963TIP3    H254381   1.323   5.991   6.533  0.6442  1.2773  1.4239
10964TIP3   OH254382   1.108   4.130   5.464  0.5130 -0.1615  0.0984
10964TIP3    H154383   1.068   4.212   5.492  0.7937 -0.7963  2.6085
10964TIP3    H254384   1.105   4.133   5.368 -1.4032  1.7983  0.1453
10965TIP3   OH254385   4.002   3.503   2.469 -0.1928  0.0855 -0.1118
10965TIP3    H154386   4.027   3.565   2.538 -0.4502 -0.3190  0.3519
10965TIP3    H254387   3.950   3.437   2.514 -0.8357  0.1118 -0.7979
10966TIP3   OH254388   6.560   3.650   2.880 -0.2089  0.0359  0.0839
10966TIP3    H154389   6.530   3.740   2.864 -2.0859 -0.7690 -1.2711
10966TIP3    H254390   6.564   3.610   2.793  0.8739 -1.1474  0.6360
10967TIP3   OH254391   3.804   4.318  14.469 -0.3873 -0.3168 -0.0551
10967TIP3    H154392   3.733   4.377  14.494 -0.6309 -0.3971 -0.5423
10967TIP3    H254393   3.884   4.365  14.491 -0.5908 -0.4113  0.9219
10968TIP3   OH254394   3.104   0.364  11.321  0.4983  0.4355  0.2083
10968TIP3    H154395   3.131   0.307  11.249 -2.4753 -1.0432  0.1362
10968TIP3    H254396   3.117   0.453  11.287  2.3103 -0.1831 -0.8306
10969TIP3   OH254397   3.998   3.736  13.274  0.7467 -0.5353  0.3583
10969TIP3    H154398   4.075   3.682  13.255  0.7322 -0.1798 -0.7942
10969TIP3    H254399   4.011   3.816  13.223  0.1940  0.0540  1.1089
10970TIP3   OH254400   6.801   3.704   5.967  0.0598  0.3894  0.3377
10970TIP3    H154401   6.820   3.610   5.970  0.1730  0.2607 -2.2649
10970TIP3    H254402   6.716   3.710   5.924  0.4524  1.5117 -0.3240
10971TIP3   OH254403   3.389   4.462  14.875  0.0915 -0.3619 -0.0511
10971TIP3    H154404   3.427   4.382  14.910 -1.0413 -0.3700  1.2292
10971TIP3    H254405   3.350   4.506  14.950 -0.0135  1.0103 -0.8583
10972TIP3   OH254406   6.495   1.647   4.828  0.1631 -0.2640  0.4624
10972TIP3    H154407   6.415   1.686   4.793  0.0999 -1.3913 -0.7193
10972TIP3    H254408   6.465   1.567   4.872  0.5562 -0.3092  0.6507
10973TIP3   OH254409   0.451   0.265  14.832 -0.3110  0.4342  0.5877
10973TIP3    H154410   0.510   0.198  14.798  1.7864  1.0868  2.6473
10973TIP3    H254411   0.365   0.225  14.830  0.8123 -2.2349  1.4297
10974TIP3   OH254412   5.169   5.941  10.980  0.5440 -0.2611 -0.1604
10974TIP3    H154413   5.202   6.028  11.002 -1.1347  0.2889  0.3574
10974TIP3    H254414   5.074   5.952  10.974  0.4830 -1.4259 -3.0726
10975TIP3   OH254415   1.446   0.562  13.130  0.1181  0.5036 -0.0664
10975TIP3    H154416   1.526   0.526  13.091 -0.7708  0.3373 -1.8627
10975TIP3    H254417   1.407   0.488  13.175  0.5820  0.3891  0.1572
10976TIP3   OH254418   2.131   5.920   3.949  0.3271  0.2478  0.0604
10976TIP3    H154419   2.072   5.963   3.886  0.3889  1.8165  1.0161
10976TIP3    H254420   2.192   5.870   3.894 -1.0235 -0.2994 -1.0060
10977TIP3   OH254421   3.932   0.728   2.669  0.3173  0.2953  0.4180
10977TIP3    H154422   3.967   0.739   2.758 -1.5627  1.0350  1.1295
10977TIP3    H254423   4.009   0.716   2.614  1.5299 -0.4232  2.1818
10978TIP3   OH254424   1.016   2.775   3.601  0.3525  0.5733  0.4150
10978TIP3    H154425   1.105   2.793   3.633  0.4581  0.4895  0.1711
10978TIP3    H254426   0.960   2.790   3.677  0.5074  1.2749  0.3955
10979TIP3   OH254427   0.675   3.881  11.215  0.5546  0.4151 -0.0529
10979TIP3    H154428   0.758   3.918  11.185  0.7291 -0.4077 -0.6410
10979TIP3    H254429   0.636   3.843  11.136  1.1388 -2.0408  0.7463
10980TIP3   OH254430   6.727   5.985   3.876  0.0315  0.3799  0.1507
10980TIP3    H154431   6.744   6.069   3.833 -1.2671  0.7303  0.2953
10980TIP3    H254432   6.766   5.920   3.817 -0.8516  0.9275 -1.0824
10981TIP3   OH254433   4.607   3.989   4.473 -0.0438  0.8230 -0.5172
10981TIP3    H154434   4.650   3.905   4.491 -1.3160  0.4946  1.2800
10981TIP3    H254435   4.679   4.051   4.460  0.9191 -0.4939 -1.7822
10982TIP3   OH254436   4.449   2.331   1.974  0.7421  0.0278  0.1610
10982TIP3    H154437   4.419   2.350   1.885  2.3813  1.2262 -0.1836
10982TIP3    H254438   4.369   2.319   2.024 -0.2853  1.7954 -0.9595
10983TIP3   OH254439   3.587   5.953  14.223 -0.2551 -0.7615 -0.0716
10983TIP3    H154440   3.614   5.867  14.254  2.8156  0.1126  0.0899
10983TIP3    H254441   3.562   6.001  14.302 -1.4539 -1.3201 -0.1016
10984TIP3   OH254442   1.029   6.752  14.677 -0.5989 -0.0836  0.2276
10984TIP3    H154443   0.969   6.746  14.602  1.1638 -0.4272 -1.2238
10984TIP3    H254444   1.104   6.802  14.644  0.3412 -0.4642  1.6858
10985TIP3   OH254445   6.741   4.380  16.219  0.3541  0.1650 -0.4168
10985TIP3    H154446   6.651   4.410  16.212 -0.1364 -1.5980 -3.3024
10985TIP3    H254447   6.791   4.440  16.165  0.1818 -1.1421 -2.1044
10986TIP3   OH254448   5.395   2.412   1.177  0.1348 -0.3373  0.0307
10986TIP3    H154449   5.334   2.354   1.223  0.2062 -1.4212 -1.2049
10986TIP3    H254450   5.458   2.438   1.244 -0.0622 -1.4640  0.6831
10987TIP3   OH254451   1.042   5.451   1.736  0.1849 -0.2093 -0.0491
10987TIP3    H154452   1.069   5.512   1.668  1.9934 -0.4497  0.4106
10987TIP3    H254453   1.120   5.438   1.790 -1.3509  0.5970  2.5811
10988TIP3   OH254454   0.567   0.685   0.893  0.0513 -0.3880  0.6692
10988TIP3    H154455   0.479   0.664   0.925  0.5330 -0.4022  2.0657
10988TIP3    H254456   0.579   0.628   0.818 -0.3732 -1.8956  1.6892
10989TIP3   OH254457   5.368   1.546  17.042 -0.8185 -0.2294  0.4011
10989TIP3    H154458   5.280   1.508  17.037 -0.8566 -0.0045 -1.2447
10989TIP3    H254459   5.360   1.631  17.000  0.0405  0.1139  0.9072
10990TIP3   OH254460   2.704   4.909  12.733 -0.5568 -0.7782 -0.2443
10990TIP3    H154461   2.730   4.850  12.803  0.6342  0.2177  0.1895
10990TIP3    H254462   2.667   4.985  12.778  3.0713  1.3040 -0.3800
10991TIP3   OH254463   2.893   4.007   5.965  0.3717 -0.1753 -0.3673
10991TIP3    H154464   2.945   4.083   5.989  0.2296 -0.3143  0.4486
10991TIP3    H254465   2.812   4.043   5.930  0.2026  0.0545  0.2495
10992TIP3   OH254466   0.859   2.728   4.605 -0.1485  0.0095 -0.3063
10992TIP3    H154467   0.835   2.820   4.596 -0.7227 -0.0995  0.0371
10992TIP3    H254468   0.953   2.729   4.622 -0.1942  0.5528 -0.0606
10993TIP3   OH254469   2.032   0.348   1.662 -0.2523 -0.0065  0.2827
10993TIP3    H154470   2.093   0.280   1.634 -0.0649  0.3275 -0.1448
10993TIP3    H254471   2.066   0.428   1.621 -0.2300  0.4179  1.1136
10994TIP3   OH254472   1.130   6.101   5.388  0.1636 -0.1599  0.4161
10994TIP3    H154473   1.182   6.122   5.311  0.4545  0.3047  0.7389
10994TIP3    H254474   1.156   6.165   5.454 -0.2375 -0.4190  0.8362
10995TIP3   OH254475   6.455   1.857   0.767  0.0196 -0.4736 -0.4056
10995TIP3    H154476   6.388   1.859   0.698 -0.7000  0.1805  0.2933
10995TIP3    H254477   6.406   1.841   0.848  0.5142  1.3627  0.3049
10996TIP3   OH254478   2.090   6.098  15.124  0.0884 -0.2299  0.0604
10996TIP3    H154479   2.167   6.154  15.131  0.1526 -0.1279 -1.2600
10996TIP3    H254480   2.123   6.017  15.086  0.1064 -1.4447  2.4807
10997TIP3   OH254481   2.731   2.156  11.681  0.3007  0.0904 -0.0051
10997TIP3    H154482   2.775   2.214  11.619 -0.4695  1.3743  0.6024
10997TIP3    H254483   2.745   2.197  11.766  0.4443 -1.0781  0.5386
10998TIP3   OH254484   0.644   5.545   3.100  0.3962  0.3787 -0.0840
10998TIP3    H154485   0.600   5.507   3.176  0.8227 -1.2938 -0.6371
10998TIP3    H254486   0.698   5.616   3.136  0.9722 -0.7067  1.2529
10999TIP3   OH254487   0.543   4.636   1.177 -0.1772  0.0855  0.5895
10999TIP3    H154488   0.469   4.581   1.202  1.5464 -2.5066  0.3997
10999TIP3    H254489   0.569   4.681   1.257  0.0645 -1.5882  1.4918
11000TIP3   OH254490   4.995   3.047   1.688  0.0887 -0.7869 -0.0780
11000TIP3    H154491   4.968   3.102   1.761 -0.6614  2.6566 -2.7225
11000TIP3    H254492   5.088   3.067   1.676  0.1126 -1.0533 -0.3377
11001TIP3   OH254493   1.477   0.892  15.040  0.1026  0.1695  0.0801
11001TIP3    H154494   1.490   0.935  15.124  0.1546 -0.8428  0.6005
11001TIP3    H254495   1.435   0.808  15.061  0.5171 -0.2934 -0.8574
11002TIP3   OH254496   1.152   2.773   1.236  0.1445  0.8013 -0.0667
11002TIP3    H154497   1.132   2.865   1.223 -2.1335  0.2028 -1.4825
11002TIP3    H254498   1.162   2.738   1.147  0.0134 -0.4702  0.3928
11003TIP3   OH254499   4.015   2.815  13.104  0.1151  0.3742  0.3037
11003TIP3    H154500   4.073   2.785  13.174  0.9376  1.9347  0.3541
11003TIP3    H254501   3.988   2.735  13.059  3.4545 -0.4269 -0.6061
11004TIP3   OH254502   0.375   4.065   0.244 -0.0212 -0.4296  0.1416
11004TIP3    H154503   0.308   4.058   0.176 -0.7496  0.0748  0.7833
11004TIP3    H254504   0.333   4.116   0.314  0.9357 -0.3572  0.6850
11005TIP3   OH254505   2.980   3.218   4.778  0.4840  0.4690  0.5071
11005TIP3    H154506   2.977   3.204   4.684  1.9410 -0.5706  0.5856
11005TIP3    H254507   3.053   3.163   4.809 -1.0021 -0.5540  2.4591
11006TIP3   OH254508   3.542   5.688   6.263  0.1180 -0.3556  0.1531
11006TIP3    H154509   3.488   5.736   6.326  1.1647 -0.6541  1.3161
11006TIP3    H254510   3.555   5.602   6.303  1.4850 -0.2750 -0.0619
11007TIP3   OH254511   5.250   6.615   4.714  0.6650 -0.2265 -0.1464
11007TIP3    H154512   5.197   6.621   4.635 -3.1995  2.5063  2.3031
11007TIP3    H254513   5.251   6.522   4.736 -1.5694 -0.5857 -1.3387
11008TIP3   OH254514   4.459   6.059  11.940  0.2886  0.5265  0.4911
11008TIP3    H154515   4.531   6.057  12.003 -0.6082 -0.0564  1.5433
11008TIP3    H254516   4.404   6.132  11.968 -0.7263 -0.4490  1.1219
11009TIP3   OH254517   2.134   1.984   2.358  0.5850 -0.1548 -0.7445
11009TIP3    H154518   2.053   1.991   2.307 -0.2939 -1.8215  0.3480
11009TIP3    H254519   2.110   2.015   2.445  0.9265 -1.2522 -0.2428
11010TIP3   OH254520   2.604   0.032  11.818 -0.1251  0.1481  0.0878
11010TIP3    H154521   2.682  -0.003  11.776 -0.1575  0.1563  0.0203
11010TIP3    H254522   2.624   0.125  11.832 -0.4922  0.3725 -0.8066
11011TIP3   OH254523   4.901   3.119  16.558  0.2104  0.1355  0.1145
11011TIP3    H154524   4.878   3.031  16.528 -0.6902  0.4530 -0.1909
11011TIP3    H254525   4.842   3.176  16.508  0.0319  0.8251  1.0948
11012TIP3   OH254526   1.214   1.107  17.018  0.2306  0.4804  0.1200
11012TIP3    H154527   1.261   1.102  17.101 -1.0962 -0.4275  0.8546
11012TIP3    H254528   1.261   1.174  16.968  1.4752  0.5520  1.3192
11013TIP3   OH254529   0.619   5.872   1.828  0.1411  0.0275  0.5391
11013TIP3    H154530   0.586   5.830   1.907 -0.5033 -1.6888 -0.5864
11013TIP3    H254531   0.687   5.813   1.796  1.0323  1.1572  0.2597
11014TIP3   OH254532   6.665   4.607   4.321 -0.7188  0.5409 -0.2284
11014TIP3    H154533   6.643   4.516   4.301 -0.5832  0.6941 -1.1002
11014TIP3    H254534   6.736   4.628   4.261 -0.5907  1.1499  0.1337
11015TIP3   OH254535   6.097   2.144   2.588  0.2679  0.3824 -0.0528
11015TIP3    H154536   6.008   2.172   2.608  0.5927  0.0385  2.1026
11015TIP3    H254537   6.096   2.050   2.604  0.3339 -0.1745 -2.8408
11016TIP3   OH254538   6.471   6.459  14.412 -0.4227  0.0473  0.1107
11016TIP3    H154539   6.384   6.497  14.400 -0.1452  0.2965 -1.3004
11016TIP3    H254540   6.517   6.478  14.330 -0.5438 -4.0827 -1.0985
11017TIP3   OH254541   3.154   5.584   5.289  0.4962 -0.2452 -0.1822
11017TIP3    H154542   3.195   5.552   5.369  0.1085 -0.7918 -0.1984
11017TIP3    H254543   3.069   5.541   5.286  0.6649 -0.5387 -1.0909
11018TIP3   OH254544   1.083   1.579  16.370 -0.8404 -0.3166 -0.3118
11018TIP3    H154545   1.150   1.536  16.316 -0.3160  0.6059 -0.4118
11018TIP3    H254546   1.125   1.592  16.455 -1.8284 -2.2137  0.5275
11019TIP3   OH254547   5.230   4.902  15.838 -0.4879 -0.0836 -0.2246
11019TIP3    H154548   5.299   4.965  15.864 -0.3147  0.0457 -0.9809
11019TIP3    H254549   5.155   4.957  15.817 -1.2311 -0.2857  1.7469
11020TIP3   OH254550   6.178   2.881  15.391 -0.5103  0.3064  0.0396
11020TIP3    H154551   6.125   2.955  15.419 -0.6818  0.6978 -1.2749
11020TIP3    H254552   6.269   2.912  15.395 -0.5407  0.3925  0.0477
11021TIP3   OH254553   4.639   1.412  11.966  0.0305 -0.6317  0.2473
11021TIP3    H154554   4.569   1.347  11.955  1.3754 -2.1645  0.5010
11021TIP3    H254555   4.653   1.447  11.878 -2.0084  0.8001  0.4006
11022TIP3   OH254556   1.908   1.977   2.177 -0.0517  0.3522  0.1893
11022TIP3    H154557   1.847   2.027   2.232 -1.2902 -0.7806 -0.1012
11022TIP3    H254558   1.860   1.961   2.096  0.5872 -0.6617 -0.0062
11023TIP3   OH254559   1.173   5.300  11.818  0.3711  0.0804  0.5262
11023TIP3    H154560   1.164   5.205  11.812 -1.3527  0.2118  0.5049
11023TIP3    H254561   1.153   5.331  11.729  1.1323  0.4552  0.4820
11024TIP3   OH254562   3.279   0.187  15.862  0.3481 -0.0385 -0.1956
11024TIP3    H154563   3.251   0.244  15.934  1.6445  0.9221 -0.4107
11024TIP3    H254564   3.218   0.206  15.792 -0.3768 -0.3093  0.3557
11025TIP3   OH254565   3.078   5.684  12.931  0.0322 -0.1166 -0.3105
11025TIP3    H154566   3.022   5.724  12.997 -0.6681 -0.6835 -0.5488
11025TIP3    H254567   3.115   5.758  12.883 -1.0039  0.2617 -0.5494
11026TIP3   OH254568   1.643   2.347   0.325  0.2690 -0.5830  0.0669
11026TIP3    H154569   1.561   2.311   0.358  0.0765 -0.6598 -0.4868
11026TIP3    H254570   1.683   2.388   0.401  0.2137 -1.4485  0.5755
11027TIP3   OH254571   0.542   2.112   0.812  0.0549  0.2275 -0.0296
11027TIP3    H154572   0.567   2.031   0.856  1.5784  1.4637  1.4894
11027TIP3    H254573   0.529   2.175   0.882 -2.1926  1.0761 -1.1048
11028TIP3   OH254574   2.871   4.066  14.150  0.0974  0.2331  1.3893
11028TIP3    H154575   2.859   4.130  14.080  0.0700 -0.5803  0.6366
11028TIP3    H254576   2.802   4.001  14.135 -0.5694  0.5869  2.7951
11029TIP3   OH254577   5.537   1.542  15.327  0.1226  0.1607 -0.2221
11029TIP3    H154578   5.532   1.623  15.376 -0.7285  0.2011 -0.3644
11029TIP3    H254579   5.630   1.519  15.327  0.3305  0.9952  0.0349
11030TIP3   OH254580   3.280   6.482   1.242 -0.1163 -0.1725 -0.6265
11030TIP3    H154581   3.253   6.405   1.191  1.6150 -1.7244  0.6268
11030TIP3    H254582   3.303   6.446   1.328  3.7766  1.2007 -0.9176
11031TIP3   OH254583   6.224   3.747  13.221 -0.1584 -0.0939  0.0290
11031TIP3    H154584   6.145   3.762  13.273  0.2971  2.7675  0.0185
11031TIP3    H254585   6.272   3.681  13.271 -0.9397  0.6749  1.8875
11032TIP3   OH254586   3.861   4.972   0.439  0.2137 -0.4697 -0.1730
11032TIP3    H154587   3.944   4.934   0.468 -0.2480 -0.2216  1.6009
11032TIP3    H254588   3.818   5.000   0.520 -0.1682  2.3996 -1.2583
11033TIP3   OH254589   0.975   3.630   0.011 -0.5075  0.1151  0.4563
11033TIP3    H154590   0.928   3.658  -0.067  0.4968 -0.1139 -0.2510
11033TIP3    H254591   1.060   3.601  -0.021 -1.0322 -2.6505  1.2527
11034TIP3   OH254592   0.274   0.068  17.068 -0.2529  0.2134 -0.1748
11034TIP3    H154593   0.362   0.059  17.104 -0.2348 -0.5653 -0.3783
11034TIP3    H254594   0.287   0.112  16.984 -0.4799  3.7911  1.4773
11035TIP3   OH254595   2.691   4.124   5.563  0.0237  0.4269 -0.4170
11035TIP3    H154596   2.636   4.194   5.527  0.2606  1.0280  0.3482
11035TIP3    H254597   2.765   4.118   5.502 -1.1817 -0.8524 -1.8263
11036TIP3   OH254598   6.131   1.871  12.667  0.4175  0.0562 -0.4105
11036TIP3    H154599   6.200   1.937  12.673 -0.0047  0.3729  1.9108
11036TIP3    H254600   6.094   1.883  12.580  1.5696  1.6148 -0.7286
11037TIP3   OH254601   5.167   5.799  14.658  0.6508  0.6677 -0.3256
11037TIP3    H154602   5.210   5.816  14.742  0.8363 -1.5780  0.0963
11037TIP3    H254603   5.090   5.747  14.681  0.9134 -0.3092 -1.5662
11038TIP3   OH254604   3.448   0.740  16.903  0.1956  0.7341 -0.2316
11038TIP3    H154605   3.474   0.654  16.868  0.0749  0.5138  0.2085
11038TIP3    H254606   3.353   0.738  16.900  0.2080  1.1637 -0.9504
11039TIP3   OH254607   5.922   5.596  14.977  0.0891  0.1568 -0.4063
11039TIP3    H154608   5.877   5.649  15.043  0.7089 -0.2918  0.3833
11039TIP3    H254609   5.868   5.606  14.898  1.0948  3.3658 -0.8093
11040TIP3   OH254610   2.870   0.367  13.149  0.3666 -1.0837 -0.0500
11040TIP3    H154611   2.877   0.357  13.244  0.7193  0.5699  0.1370
11040TIP3    H254612   2.802   0.433  13.137  1.7391  0.2665 -0.8086
11041TIP3   OH254613   3.888   3.064  11.674 -0.2826  0.3986  0.7173
11041TIP3    H154614   3.797   3.054  11.649  0.2401  0.7522 -1.4961
11041TIP3    H254615   3.899   3.158  11.688 -0.2475  0.3561  0.9861
11042TIP3   OH254616   2.546   0.440  14.042 -0.2245 -0.3507  0.4630
11042TIP3    H154617   2.539   0.401  13.955 -2.1396  0.5117  0.1879
11042TIP3    H254618   2.514   0.372  14.101 -1.1472 -0.1268  0.2367
11043TIP3   OH254619   2.538   4.545  17.162  0.1713 -0.2320  0.0867
11043TIP3    H154620   2.606   4.598  17.120  1.4779 -2.6038 -0.9320
11043TIP3    H254621   2.464   4.606  17.172  2.1793  2.2776  0.7311
11044TIP3   OH254622   4.697   4.792   5.237  0.1849 -0.1018 -0.2113
11044TIP3    H154623   4.767   4.727   5.231 -0.9949 -1.3750 -0.8162
11044TIP3    H254624   4.735   4.864   5.289  1.7172 -1.0073 -0.0135
11045TIP3   OH254625   2.040   2.120  12.488 -0.5147  0.6174  0.0343
11045TIP3    H154626   2.112   2.058  12.494 -1.2269 -0.1693  0.8173
11045TIP3    H254627   2.026   2.132  12.394 -2.2153 -2.7259 -0.3016
11046TIP3   OH254628   4.569   6.159  13.681  0.1788 -0.0349 -0.4515
11046TIP3    H154629   4.610   6.135  13.765 -1.1366  1.4788  0.7024
11046TIP3    H254630   4.638   6.204  13.633  0.2275  1.5810  1.0317
11047TIP3   OH254631   1.006   3.078  12.117 -0.2115 -0.0953  0.1946
11047TIP3    H154632   0.975   3.004  12.065 -1.3009 -0.2945  1.0979
11047TIP3    H254633   1.100   3.082  12.100 -0.6210  0.3251 -2.4175
11048TIP3   OH254634   1.190   2.521   5.532 -0.1643  0.5723  0.0406
11048TIP3    H154635   1.186   2.567   5.448 -0.7847 -0.3304 -0.4424
11048TIP3    H254636   1.207   2.429   5.508 -1.2398  0.1498  0.8460
11049TIP3   OH254637   6.525   2.237  14.864  0.2203 -0.3229  0.3856
11049TIP3    H154638   6.592   2.171  14.881 -0.3696 -1.2584 -0.7623
11049TIP3    H254639   6.540   2.264  14.774 -2.1137 -2.0298 -0.6181
11050TIP3   OH254640   4.017   3.648   4.642 -0.2899  0.2648  0.0119
11050TIP3    H154641   4.087   3.601   4.689 -1.4406 -0.3081  1.2285
11050TIP3    H254642   4.062   3.719   4.597  1.3788 -1.3466 -1.0181
11051TIP3   OH254643   3.990   4.904  14.370 -0.2426 -0.3934 -0.3617
11051TIP3    H154644   4.070   4.955  14.384  0.6329 -1.6919 -0.3998
11051TIP3    H254645   3.933   4.928  14.443  1.2956 -1.4994  1.2816
11052TIP3   OH254646   3.103   2.796   4.007 -0.1348  0.2276 -0.5229
11052TIP3    H154647   3.110   2.857   3.934 -0.2377  0.7581 -0.0915
11052TIP3    H254648   3.137   2.713   3.972  1.2716  0.8592 -0.7058
11053TIP3   OH254649   1.004   0.270   5.065 -0.0323  0.3880 -0.0919
11053TIP3    H154650   0.987   0.307   4.978 -0.8291 -1.8801 -0.9867
11053TIP3    H254651   1.095   0.239   5.061 -0.2456 -0.2304 -0.3550
11054TIP3   OH254652   1.264   4.937   3.649 -0.0339 -0.4099  0.3393
11054TIP3    H154653   1.200   4.873   3.616  0.0409 -0.2461 -0.1256
11054TIP3    H254654   1.297   4.897   3.729 -0.7185 -0.5007  0.5889
11055TIP3   OH254655   2.784   0.521  11.702 -0.0913 -0.2862  0.3312
11055TIP3    H154656   2.802   0.611  11.673  1.5439  0.0053  2.0144
11055TIP3    H254657   2.747   0.532  11.790 -0.1139 -1.2504  0.4467
11056TIP3   OH254658   4.454   6.765  14.884 -0.2482 -0.0962  0.9194
11056TIP3    H154659   4.519   6.833  14.901  1.4422 -1.2424 -0.6052
11056TIP3    H254660   4.421   6.785  14.797 -0.7068 -0.4927  1.0005
11057TIP3   OH254661   4.310   5.937   1.163 -0.2486 -0.1976  0.6227
11057TIP3    H154662   4.341   5.899   1.080 -0.0718  0.1150  0.5434
11057TIP3    H254663   4.388   5.976   1.202 -0.1496 -1.1474  1.3854
11058TIP3   OH254664   5.397   4.456   4.872  0.1056  0.0414 -0.0057
11058TIP3    H154665   5.420   4.485   4.784 -2.8843  1.0715 -0.5694
11058TIP3    H254666   5.379   4.536   4.921 -2.5667 -0.5479  0.1505
11059TIP3   OH254667   4.534   4.364   5.530  0.7895 -0.1224 -0.4657
11059TIP3    H154668   4.496   4.430   5.473  0.7433  1.9458  1.7971
11059TIP3    H254669   4.627   4.387   5.537  0.0704  2.5939  3.6705
11060TIP3   OH254670   0.130   6.124  10.957 -0.1853  0.8229  0.6858
11060TIP3    H154671   0.128   6.055  11.023  0.7689  1.0664  0.9838
11060TIP3    H254672   0.052   6.108  10.903 -0.1515 -0.2861  0.9417
11061TIP3   OH254673   1.042   4.520   3.820  0.2891 -0.0478  0.4616
11061TIP3    H154674   1.045   4.603   3.774  2.7716 -0.8453 -1.0130
11061TIP3    H254675   1.079   4.457   3.758 -0.4880 -2.0530  1.9312
11062TIP3   OH254676   2.361   0.042   4.236  0.5619 -0.0810  0.4748
11062TIP3    H154677   2.315   0.124   4.257 -0.6596 -0.7132  0.3212
11062TIP3    H254678   2.454   0.063   4.250  0.3101  1.4491  0.0388
11063TIP3   OH254679   2.154   6.533  11.654 -0.5436  0.3223 -0.4013
11063TIP3    H154680   2.067   6.513  11.618 -1.2081 -0.2420  1.4359
11063TIP3    H254681   2.144   6.619  11.695 -0.0568  0.5275 -0.6986
11064TIP3   OH254682   2.888   1.161   2.979 -0.5701 -0.3340  0.0148
11064TIP3    H154683   2.882   1.079   2.929 -1.4330  0.3080 -0.9870
11064TIP3    H254684   2.913   1.134   3.067  1.5059 -1.4921 -0.8483
11065TIP3   OH254685   1.859   6.195  12.294  0.1398  0.0080  0.3036
11065TIP3    H154686   1.767   6.223  12.288 -0.2733 -1.2127  0.6482
11065TIP3    H254687   1.877   6.194  12.388  0.9144  1.4377  0.1994
11066TIP3   OH254688   2.127   2.029   0.776 -0.3883  0.0285  0.3609
11066TIP3    H154689   2.130   1.984   0.691 -2.2221 -0.9176  0.7562
11066TIP3    H254690   2.205   2.085   0.776 -0.4302  0.1840 -2.0208
11067TIP3   OH254691   5.264   6.252  13.967  0.1951  0.5054 -0.4421
11067TIP3    H154692   5.227   6.164  13.961 -0.8636  0.8223  0.7952
11067TIP3    H254693   5.192   6.311  13.942  0.9575  1.0175 -1.4782
11068TIP3   OH254694   4.609   1.341   5.816 -0.3971 -0.1970  0.3045
11068TIP3    H154695   4.666   1.319   5.742 -0.4446  0.3508  0.0976
11068TIP3    H254696   4.665   1.332   5.893  0.4489  1.7997  0.0034
11069TIP3   OH254697   6.495   6.560   0.751  0.4392  0.0735  0.6714
11069TIP3    H154698   6.503   6.566   0.655  0.6454 -1.8350  0.5210
11069TIP3    H254699   6.507   6.649   0.782 -1.8869  1.1695 -1.2188
11070TIP3   OH254700   3.834   4.300   7.101 -0.2779  0.6863 -0.2342
11070TIP3    H154701   3.825   4.225   7.158  1.5153  0.0921 -0.6453
11070TIP3    H254702   3.929   4.316   7.097 -0.3024  0.6320 -3.0856
11071TIP3   OH254703   2.886   1.188   2.024  0.6217 -0.2624 -0.4711
11071TIP3    H154704   2.823   1.260   2.025 -0.3834 -1.1137  1.0223
11071TIP3    H254705   2.963   1.224   2.067  0.3614  0.1208 -0.3151
11072TIP3   OH254706   0.828   2.724  16.134 -0.3425 -0.4836  0.3465
11072TIP3    H154707   0.774   2.646  16.120  0.3203 -0.6404 -1.7149
11072TIP3    H254708   0.912   2.691  16.165 -1.1769 -0.2784  3.0138
11073TIP3   OH254709   4.198   2.330   4.548 -0.0165 -0.4754  0.0996
11073TIP3    H154710   4.105   2.346   4.560 -0.2221 -0.5595 -1.2515
11073TIP3    H254711   4.233   2.413   4.515  0.4415 -0.3768  0.7957
11074TIP3   OH254712   5.288   3.850  16.093  0.0110  0.4367  0.0352
11074TIP3    H154713   5.282   3.903  16.172  1.6406  3.3824 -1.6289
11074TIP3    H254714   5.220   3.885  16.035  0.3977 -0.0452 -0.7313
11075TIP3   OH254715   0.956   3.658   1.936  0.3337  0.0303 -0.2387
11075TIP3    H154716   0.907   3.593   1.886  2.5413  0.0293 -2.6697
11075TIP3    H254717   0.909   3.740   1.921 -1.5739 -0.6743  1.5337
11076TIP3   OH254718   2.939   5.027   3.386 -0.4984  0.2084  0.3704
11076TIP3    H154719   2.931   5.080   3.465  0.9356 -1.9356  2.0617
11076TIP3    H254720   2.854   5.038   3.341 -1.0693  2.0645  1.7599
11077TIP3   OH254721   4.734   6.313  13.549 -0.0697 -0.2133 -0.1508
11077TIP3    H154722   4.755   6.301  13.457  0.7180 -0.7156  0.0858
11077TIP3    H254723   4.754   6.405  13.567  1.0053 -0.4297 -0.1811
11078TIP3   OH254724   5.182   5.166   3.403  0.4146 -0.3596 -0.0053
11078TIP3    H154725   5.118   5.099   3.429  1.0621 -0.8952  0.2421
11078TIP3    H254726   5.244   5.170   3.475  1.4647 -0.8745 -0.8455
11079TIP3   OH254727   2.246   0.199  11.204  0.0245  0.0836  0.0296
11079TIP3    H154728   2.294   0.116  11.194 -1.8923 -1.1854  0.7207
11079TIP3    H254729   2.291   0.260  11.146  0.8596 -1.7391 -1.3489
11080TIP3   OH254730   6.769   3.011   4.780  1.2062  0.1691  0.2844
11080TIP3    H154731   6.689   2.981   4.822  0.2384 -0.5293 -1.9543
11080TIP3    H254732   6.809   3.068   4.845 -0.7560  0.0103  1.7274
11081TIP3   OH254733   0.884   2.637   1.308 -0.2458 -0.0810 -0.1061
11081TIP3    H154734   0.963   2.690   1.300 -0.5862  0.2363 -1.9486
11081TIP3    H254735   0.915   2.551   1.338  0.4162  0.8436  2.0050
11082TIP3   OH254736   2.347   3.163  13.615  0.6425  0.1267 -0.5993
11082TIP3    H154737   2.397   3.231  13.661  0.3965  0.5502 -0.9448
11082TIP3    H254738   2.296   3.120  13.683  1.1165  0.0055 -0.3121
11083TIP3   OH254739   4.835   1.548   2.481  0.9786 -0.1122 -0.1317
11083TIP3    H154740   4.867   1.630   2.519 -0.0669 -0.3180  1.2370
11083TIP3    H254741   4.757   1.573   2.431  0.8437 -0.2233  0.0224
11084TIP3   OH254742   0.991   3.542  14.505 -0.3150 -0.2048  0.1493
11084TIP3    H154743   1.024   3.608  14.443 -0.0348  0.3024  0.8229
11084TIP3    H254744   0.974   3.591  14.585  0.6426 -1.0856  0.9114
11085TIP3   OH254745   1.851   3.363   5.034 -0.0628  0.5108  0.1914
11085TIP3    H154746   1.891   3.277   5.045  2.2402  1.4496 -0.2696
11085TIP3    H254747   1.783   3.349   4.968 -0.6800 -1.1794  1.1069
11086TIP3   OH254748   6.286   6.269   5.547  0.8465  0.2478  0.2008
11086TIP3    H154749   6.239   6.236   5.470 -0.4752  2.0265  0.1935
11086TIP3    H254750   6.218   6.304   5.603  2.0959  2.7044  0.3159
11087TIP3   OH254751   0.245   3.565  14.631  0.7763 -0.1527  0.6076
11087TIP3    H154752   0.274   3.476  14.607 -0.6571 -0.6326  0.5753
11087TIP3    H254753   0.211   3.556  14.720  0.6490  0.3713  0.6135
11088TIP3   OH254754   1.465   6.206  13.919  0.5026 -0.8484 -0.1972
11088TIP3    H154755   1.502   6.211  14.007  0.0209  0.4778 -0.0457
11088TIP3    H254756   1.384   6.156  13.930  0.0311 -0.0062  0.2778
11089TIP3   OH254757   5.298   0.400  12.346 -0.3433 -0.4779 -0.1575
11089TIP3    H154758   5.360   0.467  12.377 -1.5365  0.1614  0.9788
11089TIP3    H254759   5.344   0.317  12.358  1.5916  0.1361 -2.6181
11090TIP3   OH254760   2.082   6.068  17.150  0.4947  0.0410 -0.2143
11090TIP3    H154761   2.150   6.026  17.202  0.0043 -0.4084  0.0752
11090TIP3    H254762   2.000   6.038  17.189  0.1253  0.0241 -0.9917
11091TIP3   OH254763   0.551   0.373  13.118 -0.0387 -0.1674 -0.3067
11091TIP3    H154764   0.644   0.355  13.108 -0.2169 -1.7939  0.6147
11091TIP3    H254765   0.508   0.302  13.070 -0.8404  1.1303 -1.6086
11092TIP3   OH254766   3.445   4.628   1.697  0.2710 -0.5638 -0.0390
11092TIP3    H154767   3.472   4.713   1.663  0.3585 -0.5180  0.1440
11092TIP3    H254768   3.472   4.566   1.629  0.2517 -0.4511 -0.1499
11093TIP3   OH254769   2.947   5.003   0.956  0.4675  0.3013  0.0838
11093TIP3    H154770   2.934   4.926   0.902  0.3312  0.9786 -0.8791
11093TIP3    H254771   3.034   5.035   0.933  0.4408  0.5520  0.3172
11094TIP3   OH254772   6.100   2.724  11.641 -0.0643 -0.6132  0.1586
11094TIP3    H154773   6.094   2.629  11.627 -0.7993 -0.5266 -0.1817
11094TIP3    H254774   6.058   2.762  11.564  0.4778 -0.0002  0.1564
11095TIP3   OH254775   6.086   4.434  16.614 -0.4379  0.5078  0.6900
11095TIP3    H154776   6.118   4.449  16.703 -1.5040  0.8216  1.0336
11095TIP3    H254777   6.155   4.383  16.572 -0.9401 -1.7489  2.4115
11096TIP3   OH254778   0.594   1.151  14.885 -0.2739  0.1542  0.3773
11096TIP3    H154779   0.551   1.066  14.891  0.2200 -0.0883  0.5084
11096TIP3    H254780   0.686   1.131  14.868  0.1642  0.6213  2.0774
11097TIP3   OH254781   5.715   6.602   3.241 -0.0059 -0.4989  0.5791
11097TIP3    H154782   5.788   6.638   3.290  0.5310 -0.7597 -0.0114
11097TIP3    H254783   5.746   6.517   3.210  0.2834  0.2998 -1.5272
11098TIP3   OH254784   1.539   5.578   5.824  0.4356 -0.4570  0.0628
11098TIP3    H154785   1.497   5.572   5.910  0.2598  0.8360  0.0931
11098TIP3    H254786   1.632   5.563   5.841  0.4997  0.4508  0.6042
11099TIP3   OH254787   6.633   3.263  10.891 -0.4592  0.1333 -0.0126
11099TIP3    H154788   6.560   3.220  10.846  0.1185 -1.4715  0.5249
11099TIP3    H254789   6.659   3.201  10.959 -0.5263  1.9723  1.7775
11100TIP3   OH254790   2.562   2.620  12.549 -0.3765 -0.1037  0.1425
11100TIP3    H154791   2.485   2.599  12.496 -1.1413  0.8798  0.8259
11100TIP3    H254792   2.587   2.537  12.588 -0.0818 -0.7597 -1.3471
11101TIP3   OH254793   2.490   1.315  12.757  0.3799  0.2781 -0.5680
11101TIP3    H154794   2.450   1.290  12.841 -0.8475  1.3234 -0.8189
11101TIP3    H254795   2.543   1.239  12.733 -0.4747 -0.6568  0.3908
11102TIP3   OH254796   2.381   6.252   6.316  0.2482 -0.2314 -0.2295
11102TIP3    H154797   2.322   6.306   6.264  0.1750 -0.2606 -0.1771
11102TIP3    H254798   2.366   6.279   6.407 -0.2130 -0.7396 -0.1445
11103TIP3   OH254799   4.926   3.405  15.799 -0.3012 -0.2306  0.5086
11103TIP3    H154800   4.933   3.320  15.842  1.8120 -0.1223  0.4828
11103TIP3    H254801   5.016   3.432  15.784 -0.9257  1.9009  0.2532
11104TIP3   OH254802   3.772   5.255   4.970 -0.0496  0.2770  0.0327
11104TIP3    H154803   3.707   5.240   5.039 -0.3370  0.3758 -0.2155
11104TIP3    H254804   3.792   5.167   4.937 -1.6229  0.3734 -1.3202
11105TIP3   OH254805   5.019   2.277  13.223  0.3017  0.1642  0.1478
11105TIP3    H154806   5.028   2.296  13.129 -0.5836 -1.2033 -0.2474
11105TIP3    H254807   5.015   2.182  13.227 -1.4979  0.2567  1.3886
11106TIP3   OH254808   1.492   2.638  16.395  0.2528 -0.5712 -0.1873
11106TIP3    H154809   1.446   2.581  16.333  1.0082 -0.8771 -0.4774
11106TIP3    H254810   1.473   2.600  16.481 -0.6366 -0.2636 -0.2406
11107TIP3   OH254811   1.906   0.715  11.871  0.6379  0.0705 -0.2681
11107TIP3    H154812   1.882   0.807  11.868 -1.0499 -0.3513 -1.0599
11107TIP3    H254813   1.986   0.709  11.819 -0.5648  0.7672 -2.3588
11108TIP3   OH254814   0.901   0.110   2.049  0.2372  0.3327 -0.0507
11108TIP3    H154815   0.821   0.155   2.020  1.0359  1.9278  0.0959
11108TIP3    H254816   0.917   0.045   1.981  0.2446  1.7696 -1.4863
11109TIP3   OH254817   6.191   3.211   5.502  0.6123 -0.2382 -0.1650
11109TIP3    H154818   6.193   3.174   5.590  0.3441 -0.4035 -0.2281
11109TIP3    H254819   6.104   3.249   5.494  0.7219 -0.0109 -0.2731
11110TIP3   OH254820   6.277   5.179   4.953  0.0831 -1.0977 -0.4535
11110TIP3    H154821   6.258   5.178   4.859  0.0321 -0.4068 -0.4537
11110TIP3    H254822   6.220   5.111   4.989 -0.5859 -0.7288 -0.7999
11111TIP3   OH254823   1.758   4.881  12.697 -0.7776  0.0363  0.5677
11111TIP3    H154824   1.812   4.924  12.631 -1.4566 -0.5909 -0.4268
11111TIP3    H254825   1.668   4.896  12.667 -1.1326  0.2965  1.7074
11112TIP3   OH254826   3.978   4.523   5.560 -0.1508  0.1130 -0.4588
11112TIP3    H154827   3.946   4.503   5.648 -1.2724  0.1861 -0.8375
11112TIP3    H254828   4.057   4.470   5.552  0.7212  1.1127  1.0711
11113TIP3   OH254829   2.275   0.854  12.767 -0.0107  0.5640 -0.0911
11113TIP3    H154830   2.213   0.881  12.835 -1.1805  0.1606 -0.9560
11113TIP3    H254831   2.223   0.852  12.687  1.0226 -0.2513 -0.7714
11114TIP3   OH254832   3.526   5.205  15.709 -0.5467 -0.3760 -0.2610
11114TIP3    H154833   3.533   5.111  15.726  0.9788  0.0506  1.9046
11114TIP3    H254834   3.472   5.239  15.780  0.5345  0.6228  0.1303
11115TIP3   OH254835   5.626   0.666  12.240 -0.3221  0.0109  0.2495
11115TIP3    H154836   5.561   0.728  12.273 -0.4742 -1.3231  2.7127
11115TIP3    H254837   5.705   0.687  12.290  0.4445  0.0163 -0.9453
11116TIP3   OH254838   2.480   3.727  13.108 -0.1450  0.1700 -0.0742
11116TIP3    H154839   2.416   3.709  13.176  0.2775 -0.1163  0.2591
11116TIP3    H254840   2.447   3.804  13.062  0.0095  0.9033  1.0207
11117TIP3   OH254841   5.277   6.782  13.606  0.6045  1.3719  0.2310
11117TIP3    H154842   5.284   6.694  13.642  0.6493 -0.4601 -3.8287
11117TIP3    H254843   5.188   6.811  13.629  0.2811 -0.0590  0.8642
11118TIP3   OH254844   6.133   0.975  13.465 -0.1827  0.5749  0.3441
11118TIP3    H154845   6.140   0.934  13.379  0.7926 -0.8485  1.0600
11118TIP3    H254846   6.055   1.031  13.459 -0.9633 -0.5947 -1.0169
11119TIP3   OH254847   1.704   0.893  14.464  0.2092 -0.2591 -0.8007
11119TIP3    H154848   1.615   0.857  14.462  0.0141  0.2359 -1.6573
11119TIP3    H254849   1.749   0.842  14.530 -1.1717  0.5051  0.8182
11120TIP3   OH254850   3.339   5.891  11.964  0.1154 -0.3338 -0.4848
11120TIP3    H154851   3.308   5.932  11.883 -1.1387 -0.1235  0.0808
11120TIP3    H254852   3.435   5.893  11.957  0.0542  1.2196 -1.1960
11121TIP3   OH254853   0.770   0.521  16.542 -0.2536 -0.1528 -0.5042
11121TIP3    H154854   0.769   0.431  16.509  0.8686 -0.6539  0.7195
11121TIP3    H254855   0.719   0.517  16.623  1.6889 -0.2625  0.7900
11122TIP3   OH254856   2.724   1.125  10.897  0.3189  0.0992  0.0588
11122TIP3    H154857   2.726   1.086  10.810  2.5267 -0.3687  0.2559
11122TIP3    H254858   2.636   1.107  10.930 -1.0009  1.3424 -2.4880
11123TIP3   OH254859   4.467   4.204   2.673  0.0058 -0.3252 -0.2609
11123TIP3    H154860   4.456   4.294   2.705 -1.6250 -0.0886 -1.3486
11123TIP3    H254861   4.536   4.210   2.607 -0.0405  0.1185 -0.2721
11124TIP3   OH254862   1.139   6.804   4.322 -0.9563 -0.2043 -0.0792
11124TIP3    H154863   1.212   6.821   4.383 -0.5917 -0.0575 -0.5526
11124TIP3    H254864   1.094   6.888   4.316  1.4481  1.0473 -3.2185
11125TIP3   OH254865   6.306   3.937   1.878 -0.2474  0.2960 -0.1440
11125TIP3    H154866   6.219   3.915   1.845  0.6776 -4.3988 -0.1969
11125TIP3    H254867   6.362   3.938   1.801  0.1347  1.1964  0.1259
11126TIP3   OH254868   1.254   4.186   4.352  0.1969 -0.0450  0.5193
11126TIP3    H154869   1.313   4.173   4.277  0.3601 -0.4582  0.7187
11126TIP3    H254870   1.186   4.244   4.318  1.1677  1.1365  0.5174
11127TIP3   OH254871   1.621   3.837   5.850  0.2113 -0.0860 -0.5656
11127TIP3    H154872   1.671   3.917   5.832  2.3676 -1.1639  0.3153
11127TIP3    H254873   1.554   3.835   5.782  0.0503  2.4815 -0.5804
11128TIP3   OH254874   2.961   6.619   0.105  0.2842  0.1576 -0.0788
11128TIP3    H154875   2.932   6.694   0.054  3.0587  1.7961  0.5573
11128TIP3    H254876   3.036   6.584   0.057  1.6078  0.4108  1.6903
11129TIP3   OH254877   2.448   0.705   1.313 -0.0616  0.3353  0.1708
11129TIP3    H154878   2.531   0.744   1.339  0.3442 -0.2725 -0.1858
11129TIP3    H254879   2.443   0.722   1.218 -1.1518  1.8474  0.4548
11130TIP3   OH254880   5.526   5.191  13.440  0.1851  0.6863 -0.0033
11130TIP3    H154881   5.610   5.216  13.401 -0.1635  0.4069 -0.9472
11130TIP3    H254882   5.506   5.262  13.501  2.2516 -0.3390  2.0543
11131TIP3   OH254883   5.392   0.697  15.915 -0.2524  0.3803 -0.4464
11131TIP3    H154884   5.353   0.714  15.830  0.7040  2.8249 -0.4837
11131TIP3    H254885   5.458   0.766  15.926 -0.2904  0.1165  2.2360
11132TIP3   OH254886   3.551   3.708  14.075  0.2415 -0.0155 -0.1015
11132TIP3    H154887   3.566   3.767  14.149  1.5046  1.0895 -1.1950
11132TIP3    H254888   3.475   3.656  14.102 -0.1661  1.2627  1.4100
11133TIP3   OH254889   5.547   3.473   2.896 -0.6156 -0.5438  0.0610
11133TIP3    H154890   5.589   3.426   2.968 -0.4521 -0.2888  0.1316
11133TIP3    H254891   5.612   3.471   2.826  0.8905  2.6347  1.1921
11134TIP3   OH254892   3.119   1.033  11.211 -0.1725  0.6432  0.2418
11134TIP3    H154893   3.077   1.099  11.157  1.2689  0.2065 -1.5207
11134TIP3    H254894   3.213   1.051  11.204  0.1362 -0.2590  1.5255
11135TIP3   OH254895   3.123   4.795  15.352  0.5230  0.4082  0.2644
11135TIP3    H154896   3.214   4.768  15.367  0.9171  1.1575 -0.6691
11135TIP3    H254897   3.119   4.885  15.385 -0.1653  0.0475  1.2228
11136TIP3   OH254898   4.696   3.865   6.422  0.5671  0.3330  0.2261
11136TIP3    H154899   4.787   3.837   6.415  0.1967 -1.4646  1.8177
11136TIP3    H254900   4.647   3.803   6.368  0.1317  0.2757  0.6743
11137TIP3   OH254901   2.777   4.610  12.774 -0.1674 -0.2869  0.1580
11137TIP3    H154902   2.691   4.638  12.741 -0.5544 -0.0367  1.3256
11137TIP3    H254903   2.775   4.514  12.766 -0.0395 -0.1979 -1.0183
11138TIP3   OH254904   6.400   4.309   6.146  0.0444  0.1490 -0.4949
11138TIP3    H154905   6.340   4.296   6.073 -1.3596 -0.0037  0.6361
11138TIP3    H254906   6.436   4.223   6.164  1.9760  0.5096 -2.2434
11139TIP3   OH254907   5.072   0.643  14.671 -0.4814 -0.2234  0.1729
11139TIP3    H154908   5.018   0.696  14.731 -0.9770 -1.3510  0.7557
11139TIP3    H254909   5.159   0.683  14.676 -0.9954  0.9495  0.0735
11140TIP3   OH254910   1.062   1.717  15.788  0.4437 -0.4753 -0.0640
11140TIP3    H154911   1.122   1.792  15.792  1.9633 -1.5295 -1.7106
11140TIP3    H254912   1.008   1.725  15.867  1.2082  1.7915  0.3026
11141TIP3   OH254913   0.400   1.485   1.385  0.3730  0.2466  0.1162
11141TIP3    H154914   0.468   1.460   1.447  1.1173  0.2237 -0.6955
11141TIP3    H254915   0.404   1.580   1.381 -1.5466  0.4845  2.1732
11142TIP3   OH254916   3.883   2.243  14.606 -0.1623  0.2898  0.1075
11142TIP3    H154917   3.846   2.241  14.517 -1.5126  1.5047  0.6084
11142TIP3    H254918   3.853   2.326  14.643  1.5968  0.4708  1.2166
11143TIP3   OH254919   3.475   4.430   3.286 -0.4114  0.1343 -0.5755
11143TIP3    H154920   3.389   4.389   3.295 -0.3330 -0.2045 -1.3363
11143TIP3    H254921   3.501   4.413   3.196  0.2275  0.6883 -0.5067
11144TIP3   OH254922   0.238   5.699  14.433  0.7400 -0.1466 -0.5329
11144TIP3    H154923   0.258   5.716  14.525  0.2018  1.1695 -0.6365
11144TIP3    H254924   0.145   5.678  14.432  0.7572 -0.2177 -0.7785
11145TIP3   OH254925   3.159   1.885   3.270 -0.0454 -0.1105  0.2185
11145TIP3    H154926   3.118   1.966   3.299 -0.1098  0.3434 -1.0726
11145TIP3    H254927   3.184   1.840   3.351 -2.6664 -0.2138  1.0473
11146TIP3   OH254928   3.627   1.815   1.984  0.8656 -0.1854 -0.0964
11146TIP3    H154929   3.534   1.811   1.965  1.0815 -0.4274 -1.1286
11146TIP3    H254930   3.638   1.898   2.031  0.1422 -0.1429  0.0032
11147TIP3   OH254931   0.011   0.880   5.702 -0.1268  0.4587 -0.5002
11147TIP3    H154932  -0.054   0.838   5.757  1.3918 -1.2778  0.0542
11147TIP3    H254933   0.052   0.945   5.759  1.5523 -1.4436  0.5849
11148TIP3   OH254934   5.366   6.525  12.398 -0.2803  0.0080 -0.2497
11148TIP3    H154935   5.336   6.553  12.485 -1.5270  1.9481 -1.2367
11148TIP3    H254936   5.299   6.464  12.368  0.9794 -1.9783  0.7332
11149TIP3   OH254937   3.526   2.432   2.985  0.3570  0.1714  0.0424
11149TIP3    H154938   3.545   2.393   3.070  0.3959  0.4121  0.1468
11149TIP3    H254939   3.467   2.371   2.942  1.4945 -0.6889 -0.3576
11150TIP3   OH254940   5.228   5.237  14.228 -0.0966 -0.3833 -0.9707
11150TIP3    H154941   5.264   5.153  14.200 -0.2914  0.0838 -2.7419
11150TIP3    H254942   5.164   5.259  14.161  0.3719  1.4602 -0.8691
11151TIP3   OH254943   1.301   0.325  13.221 -0.2576 -0.1303 -0.2376
11151TIP3    H154944   1.205   0.322  13.225 -0.2442 -0.8273 -0.2599
11151TIP3    H254945   1.329   0.241  13.257  0.3839  0.4521  0.6538
11152TIP3   OH254946   4.556   6.560  13.886  0.4248 -0.2183  0.0178
11152TIP3    H154947   4.487   6.618  13.918 -0.3140  0.0747 -2.0074
11152TIP3    H254948   4.617   6.618  13.841 -1.1770 -1.0190 -3.5309
11153TIP3   OH254949   3.037   5.467   4.310  0.0279 -0.3574 -0.0352
11153TIP3    H154950   3.079   5.392   4.268 -2.0098 -3.4322  2.9035
11153TIP3    H254951   3.087   5.481   4.390 -0.4350  0.6209  0.0993
11154TIP3   OH254952   5.567   4.619  12.655 -0.0218 -0.2859  0.6734
11154TIP3    H154953   5.591   4.545  12.599  0.4867 -1.8614  2.8492
11154TIP3    H254954   5.633   4.686  12.637 -0.3077 -0.4199 -1.0997
11155TIP3   OH254955   1.727   0.753   2.889  0.1934  0.2402  0.6538
11155TIP3    H154956   1.681   0.807   2.825  0.7928  2.5588  2.0609
11155TIP3    H254957   1.658   0.727   2.951  0.2561  1.4513  1.2722
11156TIP3   OH254958   1.213   3.728   5.346 -0.9947 -0.0175  0.1150
11156TIP3    H154959   1.185   3.779   5.270 -0.3167  1.7407  0.9835
11156TIP3    H254960   1.276   3.785   5.391  0.0015 -1.7554  1.0119
11157TIP3   OH254961   4.633   2.370   1.619 -0.2157 -0.3729  0.1208
11157TIP3    H154962   4.540   2.384   1.639  0.2669 -0.0388  2.3153
11157TIP3    H254963   4.644   2.275   1.618 -0.8343 -0.4781 -1.6874
11158TIP3   OH254964   1.960   6.331   4.793  0.1909  0.1939  0.2741
11158TIP3    H154965   2.013   6.362   4.719  0.4918  1.0021  0.8222
11158TIP3    H254966   1.882   6.386   4.792 -0.0216 -0.0995  0.2949
11159TIP3   OH254967   6.540   0.146   5.370 -0.4364 -0.1691 -0.2858
11159TIP3    H154968   6.601   0.073   5.354 -0.3426 -0.3250  0.6973
11159TIP3    H254969   6.590   0.207   5.424 -0.3249  0.9201 -1.5765
11160TIP3   OH254970   6.602   4.522  16.847  0.3298  0.0138  0.5611
11160TIP3    H154971   6.570   4.610  16.826  0.6671 -0.4388 -2.2432
11160TIP3    H254972   6.582   4.510  16.940 -2.3084  1.9558  0.3278
11161TIP3   OH254973   5.921   0.662  13.720  0.1055 -0.3863  0.1600
11161TIP3    H154974   5.977   0.638  13.646 -0.2153  2.1203 -1.0107
11161TIP3    H254975   5.982   0.684  13.790  0.4661 -1.1709  0.1016
11162TIP3   OH254976   2.439   5.316   3.923  0.0230  0.2624 -0.0768
11162TIP3    H154977   2.373   5.291   3.859  0.3682 -1.7842  0.2759
11162TIP3    H254978   2.389   5.351   3.997 -0.7347 -1.3446  0.2246
11163TIP3   OH254979   1.575   1.869   0.937 -0.0378  0.1421  0.5139
11163TIP3    H154980   1.663   1.898   0.912 -0.2205 -0.1644 -0.5253
11163TIP3    H254981   1.547   1.813   0.865 -0.5861 -0.8060  1.4409
11164TIP3   OH254982   3.555   3.979   3.999 -0.4517  0.0821  0.3489
11164TIP3    H154983   3.642   3.940   4.011  0.1868  1.2856 -0.1850
11164TIP3    H254984   3.523   3.996   4.087 -0.5522 -1.1920  0.5815
11165TIP3   OH254985   4.769   4.491   5.966 -0.5736  0.1068 -0.4346
11165TIP3    H154986   4.862   4.503   5.946 -0.2198  0.6492  1.4176
11165TIP3    H254987   4.740   4.424   5.904  0.6028  1.1441 -2.2161
11166TIP3   OH254988   2.609   4.800  13.061 -0.0068 -0.3720  0.2582
11166TIP3    H154989   2.595   4.849  13.142  0.5296 -2.1047  1.4694
11166TIP3    H254990   2.698   4.766  13.068 -0.0179 -0.7153 -0.9760
11167TIP3   OH254991   3.013   2.684   2.833 -0.2911 -0.4853 -0.2467
11167TIP3    H154992   2.961   2.723   2.762 -0.7446 -0.6522 -0.0142
11167TIP3    H254993   3.097   2.663   2.793 -1.1682 -2.3172 -1.2509
11168TIP3   OH254994   6.798   0.860   0.858 -0.0144  0.2464  0.6891
11168TIP3    H154995   6.856   0.854   0.934  1.2977  1.8454 -0.1111
11168TIP3    H254996   6.849   0.823   0.786 -0.4393  0.6205  0.1899
11169TIP3   OH254997   5.055   4.204   5.696  0.0214 -0.3954  0.1769
11169TIP3    H154998   5.041   4.164   5.610  0.2106  1.0966 -0.5762
11169TIP3    H254999   5.088   4.132   5.751  0.2724 -1.2863 -1.1040
11170TIP3   OH255000   6.478   6.363   3.984 -0.0542 -0.0647 -0.1551
11170TIP3    H155001   6.386   6.377   4.006  0.8705  1.5477  3.2828
11170TIP3    H255002   6.502   6.282   4.028  0.4710  0.1545 -0.0308
11171TIP3   OH255003   1.105   6.358   5.979  0.0485 -0.6723 -0.1705
11171TIP3    H155004   1.082   6.437   5.929 -0.8418 -1.1905 -0.6023
11171TIP3    H255005   1.182   6.384   6.030  0.4164  0.1583 -1.1030
11172TIP3   OH255006   1.766   2.624  12.045 -1.2120  0.2408  0.1424
11172TIP3    H155007   1.836   2.686  12.066  0.1046 -0.6948 -1.3028
11172TIP3    H255008   1.810   2.553  11.998 -3.1158 -0.4552 -0.6694
11173TIP3   OH255009   3.376   4.345   5.774  0.2727  0.2571 -0.2843
11173TIP3    H155010   3.418   4.267   5.810  0.4265  1.0585  1.3527
11173TIP3    H255011   3.301   4.361   5.832 -0.7244  0.4017 -1.5714
11174TIP3   OH255012   3.595   0.399  15.235  0.1766  0.9938  0.2952
11174TIP3    H155013   3.513   0.409  15.283 -0.5226  0.7439 -0.8209
11174TIP3    H255014   3.616   0.487  15.204  0.2390  1.0273  0.4332
11175TIP3   OH255015   2.056   5.087  15.801  0.4143 -0.0491 -0.4239
11175TIP3    H155016   2.032   5.044  15.883  2.0211 -0.9583 -0.3822
11175TIP3    H255017   2.040   5.021  15.734 -0.4957  0.5488 -0.8139
11176TIP3   OH255018   2.808   4.451  14.317  0.0580 -0.0229  0.4802
11176TIP3    H155019   2.872   4.521  14.335 -1.4548  1.6673 -0.4326
11176TIP3    H255020   2.842   4.376  14.366  1.9106  1.2424  1.2913
11177TIP3   OH255021   2.509   0.806   5.411  0.5101 -0.3392 -0.1473
11177TIP3    H155022   2.579   0.840   5.467  0.4523 -0.6693  0.1289
11177TIP3    H255023   2.555   0.763   5.339  0.5825  0.9497 -0.8892
11178TIP3   OH255024   6.777   1.757   0.006 -0.0509 -0.0074 -0.3269
11178TIP3    H155025   6.746   1.746  -0.084  0.0039  2.8470 -0.7746
11178TIP3    H255026   6.872   1.770  -0.003 -0.2484  1.8264 -0.0611
11179TIP3   OH255027   0.774   0.399  11.619  0.0475 -0.4062 -0.3191
11179TIP3    H155028   0.760   0.404  11.713 -1.0438  0.1434 -0.4960
11179TIP3    H255029   0.688   0.416  11.581  0.9459  2.1999 -1.4537
11180TIP3   OH255030   2.773   6.489  14.460  0.4254  0.0646  0.4005
11180TIP3    H155031   2.766   6.395  14.444  0.2350  0.0544  0.5424
11180TIP3    H255032   2.688   6.513  14.497 -0.1602  0.6040 -1.2147
11181TIP3   OH255033   3.359   0.978  14.043  0.3253  0.2177  0.1465
11181TIP3    H155034   3.372   1.038  14.117  0.0409  1.5873 -0.8716
11181TIP3    H255035   3.363   0.891  14.082  1.1742  0.8746  1.6203
11182TIP3   OH255036   5.847   2.912   4.333 -0.1153  0.3188  0.1637
11182TIP3    H155037   5.894   2.868   4.404  0.5276  1.6072  0.5672
11182TIP3    H255038   5.907   2.909   4.259 -0.2658  0.1132  0.0479
11183TIP3   OH255039   3.077   5.185  13.257 -0.1946 -0.0767  0.1501
11183TIP3    H155040   3.122   5.177  13.173  1.5856 -3.6959  1.2533
11183TIP3    H255041   3.104   5.270  13.291  0.0655  0.9075 -2.3561
11184TIP3   OH255042   4.328   4.128  14.709 -0.0917  0.1201  0.1931
11184TIP3    H155043   4.395   4.061  14.724 -0.0284  0.2870  0.6579
11184TIP3    H255044   4.247   4.079  14.697  0.1118 -0.0860 -0.3871
11185TIP3   OH255045   0.237   6.387  12.773 -0.1673  0.3565 -0.2905
11185TIP3    H155046   0.284   6.437  12.707  0.6821 -0.0446 -0.0042
11185TIP3    H255047   0.268   6.423  12.857 -0.1017 -0.1434 -0.0954
11186TIP3   OH255048   3.590   1.107  13.465 -0.1306  0.2724  0.5852
11186TIP3    H155049   3.648   1.142  13.532 -1.0349  3.1290  0.0039
11186TIP3    H255050   3.649   1.069  13.400  1.0561  1.8409  0.6900
11187TIP3   OH255051   4.179   6.270   6.066 -0.3506 -0.0296  0.0663
11187TIP3    H155052   4.152   6.297   6.154  2.9325 -1.1459  1.5944
11187TIP3    H255053   4.268   6.238   6.078 -0.7218 -2.8190 -3.2369
11188TIP3   OH255054   4.667   6.429  11.602 -0.4001 -0.1075 -0.4038
11188TIP3    H155055   4.587   6.449  11.554 -2.2551 -1.6189  1.8115
11188TIP3    H255056   4.693   6.342  11.570 -0.9737 -0.6066  0.4532
11189TIP3   OH255057   2.772   3.580  14.690 -0.3439 -0.1770  0.2689
11189TIP3    H155058   2.805   3.605  14.604  2.9631 -0.3717  1.3319
11189TIP3    H255059   2.781   3.659  14.744  1.5903 -1.0716  1.3829
11190TIP3   OH255060   3.871   2.080  11.778 -0.4084 -0.1040  0.6178
11190TIP3    H155061   3.847   1.993  11.748 -1.4992  0.3111  0.2553
11190TIP3    H255062   3.801   2.105  11.838  0.3294  0.1934  1.3672
11191TIP3   OH255063   1.840   6.385  14.137 -0.6014  0.0370 -0.6221
11191TIP3    H155064   1.849   6.372  14.042  0.5837 -0.5875 -0.4341
11191TIP3    H255065   1.920   6.349  14.174 -0.2269  1.8673  0.4838
11192TIP3   OH255066   3.091   4.243   0.592 -0.7460 -0.1818 -0.1849
11192TIP3    H155067   3.161   4.265   0.653 -2.0349  0.5895  1.0718
11192TIP3    H255068   3.089   4.148   0.590 -1.8860 -0.2862  2.5060
11193TIP3   OH255069   3.385   4.107  13.860  0.3697 -0.3843  0.6725
11193TIP3    H155070   3.422   4.112  13.772  1.6221 -1.4919  1.1077
11193TIP3    H255071   3.458   4.130  13.918 -0.1476 -0.7139  1.4702
11194TIP3   OH255072   6.730   3.363  13.789 -0.5884  0.0147  0.2709
11194TIP3    H155073   6.702   3.314  13.712  1.0723  0.5968 -0.7700
11194TIP3    H255074   6.695   3.451  13.775 -1.4210 -0.2179  0.8652
11195TIP3   OH255075   3.983   2.273   4.845 -0.6417 -0.3503  0.2508
11195TIP3    H155076   3.930   2.252   4.768  0.5358 -0.6757 -0.4857
11195TIP3    H255077   4.025   2.356   4.824  0.1170 -0.7138  0.3102
11196TIP3   OH255078   1.655   4.781   6.696 -0.4776  0.1429  0.1298
11196TIP3    H155079   1.690   4.861   6.657 -1.2002 -0.0726 -1.0151
11196TIP3    H255080   1.732   4.724   6.706 -0.3863 -0.1768 -1.9687
11197TIP3   OH255081   3.825   5.300  15.063  0.1952 -0.0685 -0.0292
11197TIP3    H155082   3.812   5.389  15.031  0.8229  0.0386  0.0160
11197TIP3    H255083   3.766   5.247  15.010 -2.4559  0.7374  1.8927
11198TIP3   OH255084   1.055   6.369   3.900 -0.4731 -0.0005 -0.4237
11198TIP3    H155085   1.132   6.407   3.858 -1.3726  0.6964 -1.5185
11198TIP3    H255086   0.981   6.415   3.860 -1.5006 -1.2979 -0.0952
11199TIP3   OH255087   0.693   0.138   3.315 -0.1564 -0.3274  0.3023
11199TIP3    H155088   0.618   0.185   3.278 -1.9379 -2.9957  0.2959
11199TIP3    H255089   0.742   0.107   3.239  0.4588  0.5844  0.3059
11200TIP3   OH255090   0.621   4.950  12.221 -0.7916 -0.0392  0.4588
11200TIP3    H155091   0.592   4.907  12.301 -0.2918 -0.6108  0.3476
11200TIP3    H255092   0.593   5.041  12.230  1.3056  0.5139  2.3665
11201TIP3   OH255093   0.572   0.308   3.611 -0.3747 -0.0293 -0.5729
11201TIP3    H155094   0.543   0.390   3.572  0.0753  0.1270 -0.5869
11201TIP3    H255095   0.632   0.335   3.681  1.3299 -0.3735 -1.8305
11202TIP3   OH255096   2.388   5.712   3.486  1.4175  0.1228 -0.2140
11202TIP3    H155097   2.481   5.719   3.504  1.4309  2.7575 -0.7969
11202TIP3    H255098   2.345   5.735   3.569  1.3360  0.6741 -0.4021
11203TIP3   OH255099   3.492   4.666   5.267  0.4790 -0.3254  0.1267
11203TIP3    H155100   3.422   4.628   5.214  0.8076  0.9520 -1.3081
11203TIP3    H255101   3.455   4.747   5.301  0.8847 -0.2041  0.2912
11204TIP3   OH255102   3.608   1.881   4.190  0.2774 -0.2762  0.4189
11204TIP3    H155103   3.554   1.880   4.111  0.8807 -0.6737  0.0046
11204TIP3    H255104   3.545   1.868   4.262 -0.4125  1.1019  0.1077
11205TIP3   OH255105   5.933   2.676   0.605 -0.0874  0.2141  0.3287
11205TIP3    H155106   6.011   2.638   0.646 -2.0171 -1.8165  2.4576
11205TIP3    H255107   5.956   2.685   0.512  2.4524 -0.8608  0.7773
11206TIP3   OH255108   6.419   5.863  16.119 -0.3517 -0.2095 -0.0802
11206TIP3    H155109   6.324   5.872  16.124 -0.3864 -0.1799 -0.6419
11206TIP3    H255110   6.445   5.827  16.203 -0.8586 -0.1844  0.0880
11207TIP3   OH255111   0.905   1.708  11.660 -0.1175 -0.4512 -0.0110
11207TIP3    H155112   0.833   1.694  11.599 -0.6248 -0.5883  0.6117
11207TIP3    H255113   0.865   1.750  11.736  0.8226  1.6213 -0.5524
11208TIP3   OH255114   6.648   0.445   3.136 -0.3790  0.0940 -0.4720
11208TIP3    H155115   6.595   0.521   3.113  2.5201  1.6810 -2.4777
11208TIP3    H255116   6.735   0.481   3.157  0.7843 -2.5654 -0.2624
11209TIP3   OH255117   5.989   4.708   0.293  0.0224 -0.0921 -0.4744
11209TIP3    H155118   6.031   4.663   0.219 -1.6724 -2.0205 -0.3304
11209TIP3    H255119   5.977   4.641   0.359  0.8608  1.4572  1.3673
11210TIP3   OH255120   0.487   4.843  10.706  0.3297  0.5816 -0.2883
11210TIP3    H155121   0.414   4.856  10.646  0.1995 -0.5410 -0.4005
11210TIP3    H255122   0.560   4.816  10.650 -0.4723 -3.0921  0.1853
11211TIP3   OH255123   5.409   4.341   3.706 -0.0588 -0.3292 -0.0890
11211TIP3    H155124   5.434   4.401   3.777 -0.8671 -1.7136  1.4297
11211TIP3    H255125   5.486   4.338   3.650  0.5380  0.9630  0.5960
11212TIP3   OH255126   2.241   0.158   1.826 -0.0984  0.6378  0.0312
11212TIP3    H155127   2.289   0.103   1.887 -1.0558 -0.3940 -0.1182
11212TIP3    H255128   2.305   0.224   1.798  1.3920 -1.0055 -0.5956
11213TIP3   OH255129   3.902   1.156   2.155  0.8811 -0.7996  0.0024
11213TIP3    H155130   3.920   1.250   2.151  2.9566 -0.9619  2.4110
11213TIP3    H255131   3.887   1.130   2.064 -1.2394  2.0589 -0.5941
11214TIP3   OH255132   4.430   2.464  14.369 -0.7383  0.4870 -0.2158
11214TIP3    H155133   4.474   2.463  14.284 -1.5199  0.8693 -0.6303
11214TIP3    H255134   4.338   2.450  14.349 -0.8608  0.0704  0.6168
11215TIP3   OH255135   3.289   6.182  12.827  0.0132 -0.5625 -0.3803
11215TIP3    H155136   3.326   6.142  12.748 -1.1945  0.9176 -1.7667
11215TIP3    H255137   3.211   6.229  12.796 -0.2782  0.3909  1.6355
11216TIP3   OH255138   0.088   3.538   4.254  0.2323  0.6785  0.2731
11216TIP3    H155139   0.078   3.542   4.159  0.4474  0.4511  0.2399
11216TIP3    H255140   0.114   3.627   4.279  1.3933  0.4355 -0.0282
11217TIP3   OH255141   3.840   2.013  13.503  0.8265  0.0379 -0.4797
11217TIP3    H155142   3.758   1.970  13.527  1.1604 -0.0335  0.5763
11217TIP3    H255143   3.847   1.999  13.409  0.4573 -1.3921 -0.3138
11218TIP3   OH255144   1.392   2.429   3.337  0.2849 -0.0499  0.1838
11218TIP3    H155145   1.356   2.348   3.374 -0.8133 -0.2841 -1.3105
11218TIP3    H255146   1.316   2.476   3.304  0.9421  1.4993  0.7829
11219TIP3   OH255147   0.971   6.377  13.181  0.0074 -0.1021 -0.3647
11219TIP3    H155148   1.046   6.430  13.157  2.1476 -2.1717  1.2578
11219TIP3    H255149   0.997   6.334  13.262 -2.9858 -0.8912  0.3014
11220TIP3   OH255150   4.282   3.425  13.908  0.3526 -0.1859 -0.3056
11220TIP3    H155151   4.194   3.455  13.927  0.2389 -0.9673  0.4768
11220TIP3    H255152   4.322   3.410  13.994  1.1176 -0.2062 -0.6503
11221TIP3   OH255153   0.522   6.434   0.791  0.0599  0.1848  0.1633
11221TIP3    H155154   0.569   6.500   0.843 -0.1212 -0.2198  0.8487
11221TIP3    H255155   0.456   6.484   0.744  0.7573  0.6740 -0.3260
11222TIP3   OH255156   5.743   4.615   1.031 -0.0528 -0.5502 -0.2503
11222TIP3    H155157   5.735   4.539   1.089 -0.8571 -0.3611 -0.1078
11222TIP3    H255158   5.691   4.683   1.074  0.9933  0.2176 -0.1602
11223TIP3   OH255159   0.780   1.751   4.812  0.3531 -0.3882 -0.0598
11223TIP3    H155160   0.791   1.662   4.845 -2.0565 -0.7697 -0.0896
11223TIP3    H255161   0.782   1.741   4.716 -1.5317 -0.7167 -0.0979
11224TIP3   OH255162   6.480   4.432  16.136  0.3267  0.0279 -0.3992
11224TIP3    H155163   6.447   4.342  16.136 -0.4373  0.2966  0.2689
11224TIP3    H255164   6.420   4.479  16.194  1.4827  0.6815  0.2940
11225TIP3   OH255165   4.820   3.201  12.043 -0.3729 -0.0970  0.6770
11225TIP3    H155166   4.815   3.294  12.023 -0.5040 -0.2872 -0.2339
11225TIP3    H255167   4.806   3.195  12.137 -1.3157  0.7264  0.6012
11226TIP3   OH255168   5.946   0.658   1.733  0.0976  0.7069  0.3183
11226TIP3    H155169   5.975   0.749   1.730  0.1121  0.7383  1.1398
11226TIP3    H255170   6.022   0.608   1.703  0.8029  0.8413  1.7794
11227TIP3   OH255171   3.234   3.483   1.893  0.6103 -1.0463 -0.7146
11227TIP3    H155172   3.203   3.567   1.858  1.3028 -1.4486 -2.3584
11227TIP3    H255173   3.203   3.483   1.984  1.0958  1.2464 -0.4844
11228TIP3   OH255174   2.827   3.834  12.372 -0.1569 -0.5595  0.4849
11228TIP3    H155175   2.861   3.745  12.363  0.1141 -0.4124  0.0059
11228TIP3    H255176   2.732   3.823  12.367 -0.1174 -0.8016  0.2322
11229TIP3   OH255177   5.687   5.153  12.024  0.8887 -0.1483 -0.0296
11229TIP3    H155178   5.657   5.218  11.961  0.4041 -0.9598 -0.6607
11229TIP3    H255179   5.713   5.203  12.101  0.8665  0.8090 -0.6348
11230TIP3   OH255180   2.187   4.348  14.952 -0.2673  0.8435 -0.5076
11230TIP3    H155181   2.170   4.415  15.018  1.3109 -0.2089  1.0601
11230TIP3    H255182   2.199   4.397  14.870  0.6153  2.4609  0.5446
11231TIP3   OH255183   3.870   4.329  17.010  0.1051 -0.1120  0.5356
11231TIP3    H155184   3.869   4.350  17.103  0.7112 -1.3509  0.8434
11231TIP3    H255185   3.943   4.268  17.000 -0.7172 -0.9548 -0.5185
11232TIP3   OH255186   5.940   1.527  11.732  0.2981 -0.1479  0.7516
11232TIP3    H155187   5.943   1.432  11.742  0.8570 -0.4341 -1.5105
11232TIP3    H255188   5.883   1.541  11.656 -0.5192  1.4028  1.6011
11233TIP3   OH255189   5.084   5.706  15.441  0.1386 -0.3982 -0.4564
11233TIP3    H155190   5.155   5.744  15.494  0.2285  0.5740 -1.2411
11233TIP3    H255191   5.004   5.745  15.477  0.1368 -0.3097 -0.5552
11234TIP3   OH255192   4.481   0.429  14.191 -0.2045 -0.2227  0.2979
11234TIP3    H155193   4.554   0.378  14.224 -0.2814 -0.0926  0.6732
11234TIP3    H255194   4.405   0.397  14.240 -0.4619 -0.5925 -0.3204
11235TIP3   OH255195   3.086   3.829  16.755  0.0813 -0.6432 -0.2965
11235TIP3    H155196   3.000   3.800  16.725  0.1418  1.0929 -2.4594
11235TIP3    H255197   3.139   3.749  16.761 -1.0574 -1.4866 -1.1645
11236TIP3   OH255198   1.248   4.381  10.994 -0.5049 -0.3759 -0.2927
11236TIP3    H155199   1.281   4.416  10.911 -1.6440  1.3606 -0.0541
11236TIP3    H255200   1.157   4.357  10.976 -1.2931  1.5705  0.8284
11237TIP3   OH255201   1.292   6.543   5.682 -0.0280 -0.4669 -0.3843
11237TIP3    H155202   1.244   6.472   5.639  0.6766 -1.1606 -0.0542
11237TIP3    H255203   1.355   6.498   5.738  1.7382  0.3898 -1.6036
11238TIP3   OH255204   1.206   5.683  13.436 -0.2092 -0.0930  0.4975
11238TIP3    H155205   1.147   5.734  13.380 -1.1380  0.9718  2.3403
11238TIP3    H255206   1.284   5.738  13.444  0.4438 -0.7920 -0.6515
11239TIP3   OH255207   6.505   4.820  16.847 -0.1774 -0.2315 -0.0425
11239TIP3    H155208   6.579   4.836  16.906 -0.7181  0.4810  0.4553
11239TIP3    H255209   6.521   4.879  16.773  0.6772 -1.3659 -0.7988
11240TIP3   OH255210   2.569   0.524  14.345 -0.2147  0.1930  0.3383
11240TIP3    H155211   2.630   0.450  14.349 -0.0293  0.3224 -0.0515
11240TIP3    H255212   2.504   0.498  14.280 -0.7179 -0.0458  0.9234
11241TIP3   OH255213   5.206   0.775  13.845 -0.2994  0.1246  0.0665
11241TIP3    H155214   5.175   0.701  13.896  1.2758  0.7539  2.0508
11241TIP3    H255215   5.200   0.850  13.904  1.3709  0.9311 -0.7098
11242TIP3   OH255216   5.042   4.571   0.091 -0.0711  0.2896 -0.1261
11242TIP3    H155217   5.031   4.609   0.178 -1.7688 -0.0783 -0.1488
11242TIP3    H255218   4.964   4.598   0.042  0.5649 -0.0045 -1.3512
11243TIP3   OH255219   2.330   6.548  10.202  0.6673  0.2870 -0.5060
11243TIP3    H155220   2.310   6.491  10.276 -0.6614  0.3332 -0.8025
11243TIP3    H255221   2.362   6.629  10.242  0.5709  0.0837 -0.0075
11244TIP3   OH255222   1.022   5.184  14.785  0.4626  0.1365  0.5564
11244TIP3    H155223   0.939   5.215  14.748  1.3098  0.9965 -0.7093
11244TIP3    H255224   1.049   5.113  14.727  1.3152  0.8407  0.0625
11245TIP3   OH255225   0.341   6.271  10.747  0.1738 -0.3383 -0.0020
11245TIP3    H155226   0.329   6.280  10.842  0.8619 -1.9378  0.2824
11245TIP3    H255227   0.432   6.298  10.732  0.3006 -0.7963 -0.0780
11246TIP3   OH255228   3.444   4.872  15.753 -0.5523 -0.2879 -0.7896
11246TIP3    H155229   3.492   4.790  15.767 -1.2413 -0.5927 -0.2170
11246TIP3    H255230   3.464   4.925  15.830 -0.5870 -0.1410 -0.8811
11247TIP3   OH255231   4.568   4.235   1.451 -0.4215  0.1628 -0.0660
11247TIP3    H155232   4.622   4.302   1.408 -0.4958  1.0585  1.1838
11247TIP3    H255233   4.496   4.283   1.490  0.2012 -0.4502  1.9484
11248TIP3   OH255234   1.098   6.167  13.010  0.3279 -0.4750  0.0400
11248TIP3    H155235   1.055   6.215  13.081  0.4809 -0.6266  0.2346
11248TIP3    H255236   1.029   6.156  12.944 -0.0793 -1.1561  0.5665
11249TIP3   OH255237   3.299   2.912   0.560 -0.0641 -0.3984 -0.5877
11249TIP3    H155238   3.357   2.837   0.573 -0.6926 -0.8007 -0.0810
11249TIP3    H255239   3.237   2.884   0.492  1.0792  0.4775 -2.0721
11250TIP3   OH255240   6.710   4.899   5.144  0.4326 -0.3821  0.4225
11250TIP3    H155241   6.620   4.910   5.176 -0.3335 -1.9428 -1.0395
11250TIP3    H255242   6.760   4.871   5.221 -0.3514  0.3236  1.2143
11251TIP3   OH255243   2.182   3.511  16.345  0.5023  0.0235  0.1996
11251TIP3    H155244   2.186   3.563  16.265  2.4757  0.3574  0.4764
11251TIP3    H255245   2.107   3.548  16.393 -1.0534 -0.5454 -1.6619
11252TIP3   OH255246   4.426   5.998  15.266  0.4411  0.2311  0.0403
11252TIP3    H155247   4.337   5.981  15.234  0.7054  0.4481 -0.8374
11252TIP3    H255248   4.480   5.933  15.221  0.9624  1.1649 -0.7166
11253TIP3   OH255249   4.295   1.183   5.346 -0.7499  0.2722 -0.1724
11253TIP3    H155250   4.377   1.137   5.363 -0.0525  0.1829 -3.1780
11253TIP3    H255251   4.228   1.115   5.353 -0.6122  0.3017  2.1002
11254TIP3   OH255252   0.548   4.769   3.198  0.5043  0.1889  0.4007
11254TIP3    H155253   0.583   4.845   3.244  0.3470  0.6801 -0.2844
11254TIP3    H255254   0.502   4.805   3.122  1.2538 -0.6264 -0.4719
11255TIP3   OH255255   5.958   2.102  13.519  0.0219  0.0019 -0.6939
11255TIP3    H155256   5.889   2.162  13.548 -0.2260 -0.6416  0.1025
11255TIP3    H255257   5.975   2.127  13.428 -0.6459  0.7401 -0.6292
11256TIP3   OH255258   4.136   2.235  13.128  0.4147  0.2179  0.2015
11256TIP3    H155259   4.147   2.149  13.169  0.8697  0.1909  0.0367
11256TIP3    H255260   4.139   2.217  13.034  0.1849  0.3741  0.1667
11257TIP3   OH255261   4.929   1.890  13.050 -0.1891 -0.5103 -0.2889
11257TIP3    H155262   4.997   1.923  12.992 -0.6007 -0.5685 -0.8049
11257TIP3    H255263   4.962   1.909  13.138  0.0762  0.2702 -0.5536
11258TIP3   OH255264   4.058   1.854  13.120  0.2348  0.4141  0.4642
11258TIP3    H155265   4.097   1.779  13.076  0.2375 -0.1334  1.3953
11258TIP3    H255266   4.132   1.905  13.152  0.2175  0.3169  0.6601
11259TIP3   OH255267   1.685   2.339  16.734  0.0871 -0.6907  0.0292
11259TIP3    H155268   1.719   2.368  16.819 -1.8041  2.5074 -0.1448
11259TIP3    H255269   1.607   2.288  16.755 -1.1520  1.2194  0.2841
11260TIP3   OH255270   5.492   0.646  13.084 -0.7073  0.1108  0.7117
11260TIP3    H155271   5.454   0.632  13.170 -1.3030  0.5612  0.5268
11260TIP3    H255272   5.574   0.693  13.101 -0.6879 -0.0426  1.0457
11261TIP3   OH255273   1.170   2.025  12.852  0.2941 -0.1995  0.3672
11261TIP3    H155274   1.148   1.945  12.898 -1.2730  0.2645  0.4756
11261TIP3    H255275   1.224   2.074  12.914  0.7262 -0.8808  0.5400
11262TIP3   OH255276   0.177   2.239   0.612  0.0234 -0.0441 -0.4991
11262TIP3    H155277   0.203   2.331   0.601 -0.6882  0.0316 -1.7289
11262TIP3    H255278   0.195   2.220   0.704  1.5839  0.8815 -0.5778
11263TIP3   OH255279   1.233   5.066  14.075 -0.8665  0.6083  0.6044
11263TIP3    H155280   1.197   5.150  14.104 -0.8133  0.3132  1.5614
11263TIP3    H255281   1.160   5.023  14.029 -1.2103  0.7517  1.0070
11264TIP3   OH255282   6.690   1.743  16.957 -0.4830 -0.3345  0.0948
11264TIP3    H155283   6.598   1.747  16.931 -0.6219 -0.3148  0.5851
11264TIP3    H255284   6.739   1.753  16.875 -0.9276 -2.5760 -0.5083
11265TIP3   OH255285   0.039   4.700   4.164 -0.1016  0.1796  0.1754
11265TIP3    H155286   0.127   4.732   4.182  0.0529 -0.8248  1.3155
11265TIP3    H255287   0.052   4.626   4.104 -0.2781  0.7812 -0.6211
11266TIP3   OH255288   4.634   3.246   1.864  0.3951  0.0878  0.0177
11266TIP3    H155289   4.607   3.189   1.793 -1.9114  1.2984 -0.1667
11266TIP3    H255290   4.558   3.252   1.922  0.9848  1.9370  0.6976
11267TIP3   OH255291   3.266   1.754   3.048 -0.1257  0.2875  0.1307
11267TIP3    H155292   3.239   1.801   3.126  1.3740 -0.9154  1.4384
11267TIP3    H255293   3.353   1.789   3.027 -0.1118 -0.0566 -0.4290
11268TIP3   OH255294   1.566   6.804   0.509 -0.3685 -0.1740  0.0940
11268TIP3    H155295   1.516   6.813   0.427 -0.3733  0.3793  0.1527
11268TIP3    H255296   1.640   6.863   0.498  0.6465 -1.4715 -0.2534
11269TIP3   OH255297   1.824   0.130  16.000 -0.3511  0.2637  0.4099
11269TIP3    H155298   1.865   0.050  15.969  0.8784  1.1058 -0.2311
11269TIP3    H255299   1.769   0.103  16.073 -0.1018 -1.1731  0.0835
11270TIP3   OH255300   2.833   0.704   0.283 -0.2034 -0.9164 -0.2439
11270TIP3    H155301   2.912   0.669   0.241  1.1825 -0.5869  1.9427
11270TIP3    H255302   2.805   0.636   0.343 -0.1959 -0.1151  0.6892
11271TIP3   OH255303   4.782   0.820  15.067  0.1910 -0.6134  0.1757
11271TIP3    H155304   4.783   0.738  15.117 -0.6879 -0.8665 -0.1987
11271TIP3    H255305   4.812   0.887  15.129  1.1590 -1.2532  0.4099
11272TIP3   OH255306   1.746   6.429   4.963 -0.6890  0.2531 -0.2720
11272TIP3    H155307   1.662   6.401   5.000 -0.2239 -0.1881  0.4558
11272TIP3    H255308   1.807   6.359   4.984  0.1302  1.0846  0.1902
11273TIP3   OH255309   2.088   3.779   0.951 -0.1985  0.3845 -0.4476
11273TIP3    H155310   2.171   3.737   0.973  0.4912  1.3702 -1.1044
11273TIP3    H255311   2.023   3.734   1.006  0.7274 -0.5367 -0.0803
11274TIP3   OH255312   6.688   2.235   3.942  0.5200 -0.2411 -0.3738
11274TIP3    H155313   6.638   2.310   3.911  2.1685  0.6258 -1.1090
11274TIP3    H255314   6.674   2.168   3.875  2.1849  0.8293 -1.9261
11275TIP3   OH255315   3.413   1.103   3.481 -0.3277 -0.4943  0.0588
11275TIP3    H155316   3.342   1.167   3.485  0.4238  0.5269 -1.7280
11275TIP3    H255317   3.373   1.026   3.439 -0.0868  0.6666 -2.5187
11276TIP3   OH255318   1.651   6.046   1.781 -0.0163  0.2992  0.2237
11276TIP3    H155319   1.658   5.995   1.862  1.2707 -0.1640 -0.1558
11276TIP3    H255320   1.675   6.135   1.807  0.8610  0.0592  0.2789
11277TIP3   OH255321   2.091   6.614   5.222 -0.2511 -0.5549  0.2856
11277TIP3    H155322   2.020   6.615   5.286 -1.7304  2.2112 -1.2276
11277TIP3    H255323   2.063   6.674   5.153  1.4627 -2.9700 -2.8103
11278TIP3   OH255324   5.706   4.897   4.762  0.3166  0.2634 -0.2287
11278TIP3    H155325   5.788   4.849   4.760 -0.3442 -0.8898 -0.8064
11278TIP3    H255326   5.709   4.947   4.844  1.4727  0.0422 -0.1284
11279TIP3   OH255327   5.105   2.787   5.187  0.4422 -0.4067 -0.0346
11279TIP3    H155328   5.165   2.852   5.225 -0.4354 -0.1139  0.9165
11279TIP3    H255329   5.156   2.707   5.182  1.2162  0.0857 -0.1871
11280TIP3   OH255330   0.106   5.074  16.892 -0.1389 -0.0574  0.1167
11280TIP3    H155331   0.152   5.157  16.907 -0.1532 -0.0559  0.1507
11280TIP3    H255332   0.129   5.020  16.967  0.5725 -0.3910 -0.3304
11281TIP3   OH255333   5.817   1.179   2.293 -0.1945  0.1309  0.9279
11281TIP3    H155334   5.859   1.119   2.232  1.4603  0.1840  1.9569
11281TIP3    H255335   5.853   1.156   2.378  0.3581  2.4361  1.3916
11282TIP3   OH255336   1.674   6.348   5.475  0.1773 -0.1651  0.7512
11282TIP3    H155337   1.723   6.352   5.558 -1.0051 -1.2716  1.5548
11282TIP3    H255338   1.739   6.368   5.408  1.2617  0.4033  1.9138
11283TIP3   OH255339   3.582   3.223  11.886 -0.1646 -0.1459  0.3363
11283TIP3    H155340   3.551   3.171  11.961  0.1670 -2.5412 -1.0980
11283TIP3    H255341   3.641   3.165  11.839 -0.2454  1.3315 -1.7253
11284TIP3   OH255342   0.745   5.540  16.521  0.3131 -0.4215  0.3427
11284TIP3    H155343   0.788   5.556  16.605 -0.5744  0.3605  0.6777
11284TIP3    H255344   0.690   5.618  16.507 -0.2408 -0.9451 -0.5184
11285TIP3   OH255345   3.969   0.863  17.083  0.1921 -0.3910 -0.0295
11285TIP3    H155346   3.999   0.850  17.173  1.2031  0.4773 -0.2210
11285TIP3    H255347   3.874   0.871  17.090  0.3036  0.1117  1.0162
11286TIP3   OH255348   2.461   5.373  16.610 -0.0839  0.3922 -0.3144
11286TIP3    H155349   2.535   5.353  16.667  1.3654  1.7209 -1.6194
11286TIP3    H255350   2.482   5.331  16.527 -0.9559  0.5283 -0.6179
11287TIP3   OH255351   2.050   1.361   5.799  0.6272 -0.2655 -0.0698
11287TIP3    H155352   2.103   1.369   5.720 -0.8667  1.1631 -0.9884
11287TIP3    H255353   1.962   1.341   5.767  0.1066 -0.2108  1.2601
11288TIP3   OH255354   3.237   3.311  12.299 -0.2818  0.0626  0.1474
11288TIP3    H155355   3.245   3.379  12.232 -1.7538 -0.3936 -0.5475
11288TIP3    H255356   3.324   3.305  12.338  0.0858  1.7570 -0.3376
11289TIP3   OH255357   2.526   4.224  12.403 -0.5004  0.3618  0.2299
11289TIP3    H155358   2.498   4.266  12.485 -1.1129  1.0583 -0.3194
11289TIP3    H255359   2.470   4.147  12.395 -0.6865  0.4920  0.2833
11290TIP3   OH255360   3.006   6.566   6.283 -0.0430  0.0203  0.0102
11290TIP3    H155361   3.071   6.497   6.292 -2.1283 -2.0115  0.5233
11290TIP3    H255362   3.020   6.623   6.359  0.8757 -0.5961  0.3181
11291TIP3   OH255363   1.563   0.323   4.323 -0.3505  0.0173  0.4015
11291TIP3    H155364   1.556   0.296   4.231  0.9325  2.0545 -0.3505
11291TIP3    H255365   1.638   0.274   4.356  1.7848  2.2270 -0.8678
11292TIP3   OH255366   0.567   1.094   2.640  0.2984  0.2351 -0.3803
11292TIP3    H155367   0.607   1.175   2.671 -0.3681  1.5178 -2.6750
11292TIP3    H255368   0.639   1.047   2.597  0.1992  0.7288 -1.1039
11293TIP3   OH255369   6.798   0.416  12.228  0.2960  0.1012 -0.4642
11293TIP3    H155370   6.831   0.505  12.241  0.2579  0.2187 -1.1355
11293TIP3    H255371   6.867   0.372  12.178 -0.3833  0.2390 -1.5572
11294TIP3   OH255372   0.284   0.496  14.884 -0.1867  0.0201 -0.5542
11294TIP3    H155373   0.293   0.566  14.819 -0.8293 -0.6113 -1.3342
11294TIP3    H255374   0.333   0.422  14.847 -0.7731 -0.4282 -0.4420
11295TIP3   OH255375   4.011   1.364  10.518 -0.5394 -0.6947 -0.1465
11295TIP3    H155376   3.977   1.313  10.445 -0.4912  1.4932 -1.8262
11295TIP3    H255377   3.944   1.431  10.534 -0.3385 -0.8411  1.5282
11296TIP3   OH255378   1.915   3.411  14.718 -0.7094 -0.3402  0.3303
11296TIP3    H155379   2.004   3.406  14.750  0.0288 -0.5806 -1.6099
11296TIP3    H255380   1.900   3.504  14.700 -0.3988 -0.4391 -0.4796
11297TIP3   OH255381   4.512   1.880   3.906  0.2992  0.0480 -0.2903
11297TIP3    H155382   4.537   1.898   3.997  0.9533 -1.0454 -0.2303
11297TIP3    H255383   4.519   1.964   3.862 -2.5168  1.1778  1.1856
11298TIP3   OH255384   5.957   5.394   0.546 -0.0910 -0.5504 -0.2192
11298TIP3    H155385   6.051   5.407   0.563 -0.5484  1.6998  0.9107
11298TIP3    H255386   5.915   5.471   0.583 -2.2672 -0.6733 -2.1954
11299TIP3   OH255387   5.492   3.312  13.973  0.4464 -0.2554 -0.4465
11299TIP3    H155388   5.512   3.326  13.880 -1.0808 -0.8746 -0.8929
11299TIP3    H255389   5.403   3.343  13.983 -0.0428 -1.8381  0.3986
11300TIP3   OH255390   0.243   1.039  16.665 -0.2050  0.6008 -0.7044
11300TIP3    H155391   0.289   0.970  16.617 -1.0875  1.0447 -2.2328
11300TIP3    H255392   0.304   1.113  16.664  0.8365 -0.1454  1.1256
11301TIP3   OH255393   6.782   3.037   4.247  0.3357 -0.6197  0.1471
11301TIP3    H155394   6.764   2.945   4.262  1.6912 -0.9405 -0.1271
11301TIP3    H255395   6.747   3.082   4.324  1.1859 -1.5366  1.0833
11302TIP3   OH255396   2.160   0.811   4.047  0.1656  0.2170 -0.5007
11302TIP3    H155397   2.082   0.773   4.008  1.8014 -2.9222 -1.0777
11302TIP3    H255398   2.142   0.905   4.052 -3.7543 -0.3783 -0.1780
11303TIP3   OH255399   5.295   4.570   1.330 -0.0192 -0.2751 -0.4097
11303TIP3    H155400   5.210   4.527   1.321 -0.2888  0.0012  0.6205
11303TIP3    H255401   5.312   4.608   1.244 -0.9190 -0.3890 -0.6487
11304TIP3   OH255402   2.355   2.560   4.889 -0.1116  0.0135  0.3570
11304TIP3    H155403   2.401   2.639   4.861 -2.8002  1.3991 -0.4354
11304TIP3    H255404   2.275   2.592   4.930 -0.8950 -2.2971  0.7572
11305TIP3   OH255405   2.195   1.635  13.835  0.9942 -0.1544 -0.4384
11305TIP3    H155406   2.181   1.669  13.923 -0.4189 -1.8296  0.0351
11305TIP3    H255407   2.123   1.671  13.783  1.2499  0.0301 -0.6653
11306TIP3   OH255408   2.871   6.467   1.589  0.4065 -0.0347  0.6740
11306TIP3    H155409   2.966   6.479   1.594  0.5867 -0.8411 -0.4705
11306TIP3    H255410   2.860   6.385   1.541 -0.8679 -0.1151  1.0811
11307TIP3   OH255411   4.270   4.476  13.994  0.0110 -0.2666  0.1927
11307TIP3    H155412   4.240   4.565  14.013 -0.6316 -0.6692  1.1690
11307TIP3    H255413   4.218   4.448  13.919  0.6683  0.3926 -0.5276
11308TIP3   OH255414   1.098   1.212  14.605  0.1450  0.6864  0.2993
11308TIP3    H155415   1.062   1.224  14.517  3.8433  1.5863 -1.2968
11308TIP3    H255416   1.114   1.118  14.611  0.7697  0.7329 -0.4403
11309TIP3   OH255417   3.401   1.159  14.254 -0.5007  0.3327  0.0258
11309TIP3    H155418   3.461   1.214  14.303  0.3388 -2.2609  2.0884
11309TIP3    H255419   3.321   1.212  14.247  0.9962  2.6850 -0.1959
11310TIP3   OH255420   6.113   6.660  17.151 -0.3022 -0.3708  0.7635
11310TIP3    H155421   6.196   6.686  17.110 -0.6148 -0.8420 -0.1943
11310TIP3    H255422   6.117   6.698  17.239  1.2720 -1.0593  1.0145
11311TIP3   OH255423   6.083   2.949   3.664  0.7001 -0.4145  0.3956
11311TIP3    H155424   6.141   3.025   3.668 -0.1291  0.2002  1.2993
11311TIP3    H255425   6.050   2.948   3.575  0.6941  0.3149  0.3811
11312TIP3   OH255426   1.043   6.389   0.579 -0.3278  0.1353 -0.1302
11312TIP3    H155427   1.125   6.358   0.541  0.5824  0.3986  1.4919
11312TIP3    H255428   0.987   6.311   0.585  0.9325 -0.7148  1.4279
11313TIP3   OH255429   5.934   3.363   4.970  0.6871 -0.4566 -0.2310
11313TIP3    H155430   5.867   3.369   5.038 -0.0391  0.6483 -1.0127
11313TIP3    H255431   6.007   3.415   5.004  0.2574  0.2426 -0.3660
11314TIP3   OH255432   1.855   5.385   5.665  0.3357 -0.0593 -0.3492
11314TIP3    H155433   1.846   5.357   5.574  0.2559 -0.0711 -0.3379
11314TIP3    H255434   1.822   5.475   5.666  2.3186  0.7239 -0.7677
11315TIP3   OH255435   5.359   4.884  12.051  1.0566 -0.1830 -0.6927
11315TIP3    H155436   5.303   4.815  12.088  2.1979 -1.9849 -2.1618
11315TIP3    H255437   5.448   4.859  12.076  1.3764  2.0578  0.6749
11316TIP3   OH255438   3.824   1.316  15.709  0.4286 -0.3898 -0.2470
11316TIP3    H155439   3.854   1.309  15.618  2.7686  0.6601  0.3646
11316TIP3    H255440   3.868   1.245  15.754  1.3217  0.6125  0.5089
11317TIP3   OH255441   6.221   0.165  12.824 -0.4077  0.2604  0.3287
11317TIP3    H155442   6.164   0.229  12.866 -0.3810  3.0552 -3.3723
11317TIP3    H255443   6.161   0.102  12.785 -1.0986  2.4062 -2.3587
11318TIP3   OH255444   5.170   2.226   4.870  0.6720  0.3938 -0.5995
11318TIP3    H155445   5.083   2.265   4.874 -0.0805 -1.2110 -0.7475
11318TIP3    H255446   5.203   2.232   4.960  0.4070  0.9857 -0.5368
11319TIP3   OH255447   0.846   1.087  11.096 -0.5158 -0.3508 -0.2042
11319TIP3    H155448   0.778   1.053  11.154 -0.1649 -0.1078  0.3499
11319TIP3    H255449   0.912   1.019  11.093 -0.6457 -0.4685 -0.5240
11320TIP3   OH255450   5.218   5.541   2.713  0.2327 -0.0666 -0.3228
11320TIP3    H155451   5.162   5.499   2.778  0.7014 -0.7814 -0.3714
11320TIP3    H255452   5.159   5.560   2.640  0.0353 -0.7956 -0.3671
11321TIP3   OH255453   2.354   3.938  11.756 -0.2845  0.2285 -0.6816
11321TIP3    H155454   2.385   3.958  11.667  1.7359 -0.2680 -0.1326
11321TIP3    H255455   2.305   3.857  11.747 -0.2585  0.2849 -1.3759
11322TIP3   OH255456   6.001   5.517  11.619 -0.2594 -0.4775 -0.2061
11322TIP3    H155457   5.985   5.434  11.574 -1.7749 -1.3929  1.8655
11322TIP3    H255458   5.928   5.573  11.593  0.3712 -0.0062 -1.0239
11323TIP3   OH255459   2.353   6.416  15.954 -0.3509 -0.8282  0.4141
11323TIP3    H155460   2.403   6.397  15.874 -0.9209  0.4436 -0.2613
11323TIP3    H255461   2.415   6.462  16.011 -0.6525  0.5763 -0.3482
11324TIP3   OH255462   0.732   0.759  11.368 -0.0520 -0.0736  0.2984
11324TIP3    H155463   0.780   0.700  11.426 -0.7440 -0.3959  0.5573
11324TIP3    H255464   0.748   0.724  11.280  1.0561  0.4572  0.2687
11325TIP3   OH255465   2.768   6.750  14.689  0.2748 -0.5641  0.2152
11325TIP3    H155466   2.839   6.742  14.754 -0.0736  0.5016  0.7611
11325TIP3    H255467   2.802   6.812  14.625 -0.3665  0.4128  0.7939
11326TIP3   OH255468   5.912   6.388   3.218  0.0183 -0.9447 -0.1691
11326TIP3    H155469   5.899   6.297   3.244 -0.2740 -0.5672  1.0682
11326TIP3    H255470   6.006   6.401   3.223  0.0547 -1.1470 -0.2851
11327TIP3   OH255471   2.616   0.872   2.520  0.5614  0.2765 -0.3440
11327TIP3    H155472   2.606   0.842   2.430  1.8717  0.8467 -0.6908
11327TIP3    H255473   2.657   0.957   2.513 -0.5131  0.9222  0.7590
11328TIP3   OH255474   4.674   4.471   0.122  0.0441 -0.1357 -0.7629
11328TIP3    H155475   4.677   4.473   0.026  0.1302  0.7983 -0.7577
11328TIP3    H255476   4.735   4.540   0.148 -0.2136 -0.1778 -0.0382
11329TIP3   OH255477   3.440   3.966  14.808 -0.0824  0.2391 -0.0855
11329TIP3    H155478   3.395   3.882  14.793 -0.6544  0.5690 -0.2557
11329TIP3    H255479   3.434   4.011  14.724 -0.0309  0.5694  0.0880
11330TIP3   OH255480   5.763   5.953  16.578 -0.3432 -0.2950  0.8362
11330TIP3    H155481   5.727   6.010  16.645 -2.4604 -0.3367 -0.1995
11330TIP3    H255482   5.747   5.998  16.496 -2.4979 -2.4848 -0.0706
11331TIP3   OH255483   0.313   2.958  15.614  0.2272 -0.0790 -0.4143
11331TIP3    H155484   0.397   2.974  15.569  0.7423 -1.3873  0.0045
11331TIP3    H255485   0.276   2.883  15.567  0.5437 -1.1603  0.9744
11332TIP3   OH255486   4.701   3.896  11.307  0.2946 -0.8292 -0.2852
11332TIP3    H155487   4.615   3.854  11.304 -0.0889 -0.1741  0.9744
11332TIP3    H255488   4.707   3.944  11.225 -1.3728  0.6763  0.4227
11333TIP3   OH255489   4.639   0.720   5.197 -0.2741  0.4675  0.2227
11333TIP3    H155490   4.675   0.730   5.109 -0.5333  0.8303  0.1589
11333TIP3    H255491   4.544   0.714   5.183 -0.2076 -1.6332  0.2767
11334TIP3   OH255492   0.427   2.628  14.377 -0.1093  0.0007  0.0244
11334TIP3    H155493   0.448   2.537  14.356 -0.9980 -0.1901 -0.0787
11334TIP3    H255494   0.341   2.623  14.419  0.0261  0.7515  0.3908
11335TIP3   OH255495   2.241   5.964   1.526  0.6323  0.2450  0.2030
11335TIP3    H155496   2.221   6.049   1.567  2.5537  0.6074  0.5010
11335TIP3    H255497   2.276   5.987   1.440  1.2732 -0.2458  0.3329
11336TIP3   OH255498   0.593   2.981  15.546  0.3845  0.2246  0.1377
11336TIP3    H155499   0.591   2.913  15.478  0.0092  0.1882  0.1812
11336TIP3    H255500   0.675   2.965  15.593  0.7690  0.4095 -0.4637
11337TIP3   OH255501   0.783   1.516  13.891 -0.3198 -0.3820  0.2015
11337TIP3    H155502   0.866   1.513  13.843  0.3061 -0.2854  1.2435
11337TIP3    H255503   0.716   1.521  13.823  0.5148 -0.6655 -0.6678
11338TIP3   OH255504   2.043   3.996   6.272  0.0426  0.6521  0.1282
11338TIP3    H155505   2.028   4.045   6.353  2.3834  0.4058  0.7966
11338TIP3    H255506   2.134   3.966   6.279 -0.8263 -2.6118 -0.8763
11339TIP3   OH255507   2.971   4.349   5.189 -0.3847 -0.3427 -0.1105
11339TIP3    H155508   2.989   4.442   5.174 -1.7168 -0.1837 -0.9095
11339TIP3    H255509   3.025   4.303   5.125  2.0072 -0.2990  1.7519
11340TIP3   OH255510   0.851   2.023   4.713 -0.6247  0.1736 -0.2733
11340TIP3    H155511   0.939   2.022   4.675 -0.5205  0.7381 -0.0554
11340TIP3    H255512   0.834   1.931   4.736  0.2096  0.1680  0.3862
11341TIP3   OH255513   6.640   0.352  14.602 -0.5932  0.0557  0.0537
11341TIP3    H155514   6.613   0.320  14.516 -1.2617  0.5739  0.0641
11341TIP3    H255515   6.733   0.370  14.592 -0.2274 -1.6859 -0.0085
11342TIP3   OH255516   3.262   0.609   3.246 -0.0411 -0.1254  0.3428
11342TIP3    H155517   3.280   0.544   3.314 -2.5464 -1.1562  0.1513
11342TIP3    H255518   3.173   0.588   3.216  0.3218  1.3614 -2.0673
11343TIP3   OH255519   4.622   6.158  14.292 -0.4163 -0.3148  0.3529
11343TIP3    H155520   4.566   6.233  14.274 -0.7987 -0.3185  1.4991
11343TIP3    H255521   4.578   6.110  14.361  0.5481 -0.8121  0.6433
11344TIP3   OH255522   5.656   3.876  16.539  0.1044  0.2263 -0.3292
11344TIP3    H155523   5.605   3.945  16.495 -0.6764  0.5777  1.0729
11344TIP3    H255524   5.634   3.797  16.490  0.0054  0.7526 -1.1694
11345TIP3   OH255525   6.813   1.592   0.917 -0.7561 -0.2852  0.3090
11345TIP3    H155526   6.802   1.685   0.938  0.2733 -0.0600 -0.1007
11345TIP3    H255527   6.906   1.583   0.897 -0.4040 -1.7898  2.2726
11346TIP3   OH255528   2.004   1.018   5.642  0.2746  0.4509 -0.2113
11346TIP3    H155529   1.915   1.003   5.672  0.4519  1.8229  1.1048
11346TIP3    H255530   2.001   0.999   5.548 -0.6227 -2.5434  0.3136
11347TIP3   OH255531   3.930   3.815   2.909  0.2598 -0.2532  0.7352
11347TIP3    H155532   3.956   3.749   2.845  1.1645 -0.2871  1.1231
11347TIP3    H255533   3.843   3.788   2.937 -0.7510  0.5064 -1.4496
11348TIP3   OH255534   5.592   5.509   5.750  0.2395  0.1071 -0.4386
11348TIP3    H155535   5.670   5.491   5.803  0.5219 -0.1986 -0.9515
11348TIP3    H255536   5.588   5.437   5.688  0.9949  1.4150 -2.0934
11349TIP3   OH255537   0.633   5.944  15.297  0.2022 -0.7113 -0.0808
11349TIP3    H155538   0.705   6.003  15.275 -2.2402  2.2500 -0.8967
11349TIP3    H255539   0.592   5.924  15.212 -1.1917 -0.4923  0.5060
11350TIP3   OH255540   0.195   3.231   1.917  0.8689  0.5859 -0.0790
11350TIP3    H155541   0.180   3.203   2.007 -1.8277 -1.1253 -0.9340
11350TIP3    H255542   0.122   3.290   1.898 -0.1485 -1.1314 -1.8653
11351TIP3   OH255543   2.827   1.640   5.931  0.3701 -0.0384 -0.2824
11351TIP3    H155544   2.917   1.611   5.917  0.6817  0.2244  1.0488
11351TIP3    H255545   2.809   1.621   6.023 -1.1507 -0.6200 -0.6618
11352TIP3   OH255546   3.154   0.117  12.043  0.1528  0.5945 -0.1797
11352TIP3    H155547   3.142   0.144  12.134 -0.5548 -0.6981  0.1378
11352TIP3    H255548   3.138   0.023  12.044  0.0094  0.5827 -1.6687
11353TIP3   OH255549   2.709   6.621   5.034  0.8806  0.4029 -0.5187
11353TIP3    H155550   2.650   6.681   5.080 -0.3283 -2.2309  1.6636
11353TIP3    H255551   2.782   6.608   5.094 -0.8703 -3.3394  1.1229
11354TIP3   OH255552   5.556   5.400   3.381  0.0071 -0.0401 -0.2706
11354TIP3    H155553   5.631   5.456   3.401  0.9442 -0.5960 -2.0077
11354TIP3    H255554   5.512   5.444   3.308 -1.0048 -0.0658  0.2990
11355TIP3   OH255555   4.969   4.312   0.781  0.0225  0.5840 -0.2765
11355TIP3    H155556   4.966   4.405   0.802  2.5431  0.5968  0.4130
11355TIP3    H255557   5.033   4.305   0.710 -0.1336 -0.6026 -0.3261
11356TIP3   OH255558   3.250   5.969   2.675 -0.1153  0.1300  0.2634
11356TIP3    H155559   3.183   6.035   2.658 -1.1459 -1.1850 -1.0028
11356TIP3    H255560   3.290   5.952   2.590  0.4837 -0.5095  0.6589
11357TIP3   OH255561   2.380   5.720  17.130 -0.5034  0.0616  0.3956
11357TIP3    H155562   2.451   5.688  17.185 -0.2775 -3.5479 -1.6709
11357TIP3    H255563   2.424   5.766  17.058 -0.2633 -1.0753 -0.2138
11358TIP3   OH255564   3.146   3.994  13.403 -0.1433 -0.0068  0.5533
11358TIP3    H155565   3.144   3.976  13.309 -2.4360  0.5885  0.4302
11358TIP3    H255566   3.091   3.927  13.442 -0.2319  0.4979  1.3219
11359TIP3   OH255567   2.285   2.243  13.332 -0.0690  0.2212  0.1368
11359TIP3    H155568   2.317   2.164  13.288 -0.4925  0.6016 -0.8878
11359TIP3    H255569   2.289   2.311  13.265 -2.0995  0.5013  0.2517
11360TIP3   OH255570   1.657   6.578   4.594 -0.4681 -0.3233 -0.0457
11360TIP3    H155571   1.716   6.585   4.518 -1.8112  3.2604 -0.9783
11360TIP3    H255572   1.570   6.572   4.555 -1.2905  2.7353  1.0085
11361TIP3   OH255573   3.168   0.739   3.979  0.3016  0.3365  0.2252
11361TIP3    H155574   3.137   0.679   4.047 -2.0886 -0.9487 -1.8056
11361TIP3    H255575   3.263   0.727   3.979  0.4920  0.7854  3.5696
11362TIP3   OH255576   5.417   5.246  16.268 -0.1403  0.3469 -0.3327
11362TIP3    H155577   5.422   5.287  16.355  2.2335 -1.9901  0.7654
11362TIP3    H255578   5.330   5.207  16.266  0.3096 -0.9735  1.7913
11363TIP3   OH255579   5.769   6.509  14.642  0.2754 -0.0906  0.5044
11363TIP3    H155580   5.836   6.448  14.611 -0.4320 -0.4309 -0.3935
11363TIP3    H255581   5.819   6.585  14.672  1.0915 -0.5299  0.3020
11364TIP3   OH255582   0.782   0.247   4.442  0.0373 -0.3653 -0.1172
11364TIP3    H155583   0.791   0.341   4.453 -0.5998 -0.4320  1.2635
11364TIP3    H255584   0.755   0.235   4.351 -1.8016  0.9377  0.2014
11365TIP3   OH255585   3.690   2.944   3.168 -0.6346 -0.2195  0.1425
11365TIP3    H155586   3.723   2.990   3.245 -0.3908 -0.1319 -0.0116
11365TIP3    H255587   3.767   2.898   3.134 -0.1903  1.4641 -1.2932
11366TIP3   OH255588   4.459   0.890  14.076 -0.2065 -0.1235  0.9362
11366TIP3    H155589   4.505   0.849  14.003 -1.3569 -0.4298  0.3519
11366TIP3    H255590   4.504   0.973  14.089 -0.7848  0.5672 -1.0428
11367TIP3   OH255591   5.029   0.092   2.026 -0.2822 -0.5141 -0.0978
11367TIP3    H155592   5.085   0.080   1.950 -0.1413 -2.2684  0.2236
11367TIP3    H255593   5.015   0.186   2.032 -0.1686 -0.3208 -2.1813
11368TIP3   OH255594   5.574   5.854  12.552  0.1533 -0.2691 -0.3708
11368TIP3    H155595   5.662   5.823  12.528  1.3429 -0.0730  3.0822
11368TIP3    H255596   5.518   5.777  12.541  1.0200 -0.7885 -1.3565
11369TIP3   OH255597   4.912   1.849  14.723 -0.3894  0.1511 -0.7664
11369TIP3    H155598   4.935   1.785  14.790 -0.7405  1.0152  0.2057
11369TIP3    H255599   4.985   1.848  14.662  0.1360 -0.3464 -0.1335
11370TIP3   OH255600   5.224   0.370  10.565 -0.5520  0.1896  0.0212
11370TIP3    H155601   5.253   0.285  10.532  0.1993  0.4407  0.0158
11370TIP3    H255602   5.192   0.353  10.653 -1.8231 -0.3511 -0.5105
11371TIP3   OH255603   2.897   3.665  13.672 -0.5848  0.3959  0.7293
11371TIP3    H155604   2.858   3.610  13.740  0.1334 -0.1897  0.6785
11371TIP3    H255605   2.914   3.749  13.716 -3.8062  1.4579  0.2367
11372TIP3   OH255606   3.014   5.688   1.030  0.2009  0.1818  0.5985
11372TIP3    H155607   3.049   5.728   0.951  0.5542  0.5461  0.9305
11372TIP3    H255608   2.940   5.744   1.054  0.1050  0.0821  0.5333
11373TIP3   OH255609   0.965   5.343   0.758 -0.1599 -0.0421  0.0807
11373TIP3    H155610   0.989   5.253   0.780  1.5452  0.2656 -0.3692
11373TIP3    H255611   0.907   5.335   0.682 -0.8902 -0.7852  0.6962
11374TIP3   OH255612   1.562   1.180  15.015 -0.3815  0.0127 -0.1211
11374TIP3    H155613   1.492   1.121  15.045 -1.3500  0.8415 -0.7011
11374TIP3    H255614   1.577   1.155  14.923 -0.9359  0.7768 -0.4316
11375TIP3   OH255615   6.829   0.037  11.802 -0.2065  0.1801  0.4465
11375TIP3    H155616   6.917   0.047  11.766 -1.0594 -0.1247 -1.9255
11375TIP3    H255617   6.777   0.104  11.758 -1.5328 -0.8407  0.3750
11376TIP3   OH255618   6.528   5.850   4.238 -0.0653 -0.2243  0.4264
11376TIP3    H155619   6.530   5.767   4.286 -0.2882 -0.2895  0.3227
11376TIP3    H255620   6.452   5.843   4.180  1.1145 -0.7978 -1.1185
11377TIP3   OH255621   6.200   5.136   2.343  0.0986  0.2213 -0.5285
11377TIP3    H155622   6.230   5.212   2.293  1.3280 -0.8036 -1.4194
11377TIP3    H255623   6.233   5.060   2.295  0.7246 -0.8479  1.4366
11378TIP3   OH255624   5.569   5.318  15.463  0.2053  0.5076  0.0656
11378TIP3    H155625   5.663   5.306  15.456 -0.0928 -2.1804 -0.4490
11378TIP3    H255626   5.555   5.412  15.448  2.8737  1.2486  1.5645
11379TIP3   OH255627   6.112   0.498  13.904 -0.2899 -0.5624  0.0461
11379TIP3    H155628   6.073   0.444  13.836 -0.3774 -0.4238 -0.0134
11379TIP3    H255629   6.089   0.454  13.986 -1.5500  0.1309  0.0862
11380TIP3   OH255630   5.312   1.221   6.568  0.3321  0.1158  0.7230
11380TIP3    H155631   5.318   1.310   6.533 -0.5161  0.7970  2.2102
11380TIP3    H255632   5.234   1.222   6.623 -0.6661 -2.0350 -0.5008
11381TIP3   OH255633   2.264   5.395  14.621  0.4662  0.0902 -0.0697
11381TIP3    H155634   2.178   5.416  14.584  0.8236  0.0151 -0.9841
11381TIP3    H255635   2.315   5.475  14.608  0.0377  0.7834  2.1189
11382TIP3   OH255636   5.028   5.981  14.159 -0.8130  0.0759 -0.0304
11382TIP3    H155637   5.042   6.002  14.067 -1.0408 -0.1809 -0.1253
11382TIP3    H255638   5.076   6.049  14.207 -0.0191 -0.2465 -0.3448
11383TIP3   OH255639   2.969   5.797   3.315 -0.1232  0.2119  0.4010
11383TIP3    H155640   3.047   5.848   3.294  0.1193 -0.6192 -0.7941
11383TIP3    H255641   2.955   5.812   3.408  1.7565 -0.0364  0.7606
11384TIP3   OH255642   2.913   3.073   1.030  0.2765 -0.4279 -0.2514
11384TIP3    H155643   2.853   3.000   1.044 -0.1335  0.0239  0.4346
11384TIP3    H255644   2.961   3.051   0.950 -1.7823 -0.1692 -1.6345
11385TIP3   OH255645   3.003   6.282   0.774 -0.4613  0.0234 -0.4444
11385TIP3    H155646   2.916   6.308   0.741 -1.0238 -1.7708 -0.4760
11385TIP3    H255647   3.029   6.209   0.719  0.5218 -0.2719  0.3774
11386TIP3   OH255648   2.609   6.118  15.773 -0.0884  0.1012 -0.1880
11386TIP3    H155649   2.615   6.213  15.777  1.3905  0.0206  0.3051
11386TIP3    H255650   2.696   6.088  15.799 -0.1641 -1.3570 -1.4534
11387TIP3   OH255651   2.675   1.589  10.684  0.0989  0.1351  0.0754
11387TIP3    H155652   2.623   1.512  10.709 -0.8618  1.7045  3.3381
11387TIP3    H255653   2.761   1.573  10.722  0.8369 -0.5512 -1.7547
11388TIP3   OH255654   4.161   1.234  14.304  0.0429  0.3851  0.1054
11388TIP3    H155655   4.239   1.197  14.346  0.6632  1.9955  0.4324
11388TIP3    H255656   4.117   1.158  14.266  1.6673 -0.6043  0.0799
11389TIP3   OH255657   0.993   3.682  11.932  0.5112  0.1271 -0.0697
11389TIP3    H155658   0.988   3.659  12.024  1.4702  0.2976  0.0266
11389TIP3    H255659   1.085   3.673  11.909  0.7556  2.5563 -0.3548
11390TIP3   OH255660   1.392   6.785   4.722  0.4628 -0.2199 -0.3189
11390TIP3    H155661   1.304   6.751   4.737 -0.3800  2.7176  2.4012
11390TIP3    H255662   1.387   6.831   4.638 -0.4227 -0.5531 -0.4554
11391TIP3   OH255663   0.939   1.898  17.189 -0.3252  0.4905 -0.6261
11391TIP3    H155664   0.867   1.888  17.251  0.6645 -5.6089  0.1441
11391TIP3    H255665   0.903   1.871  17.105  0.3192  0.2731 -0.8397
11392TIP3   OH255666   1.024   6.287  11.217  0.2183 -0.8496  0.4446
11392TIP3    H155667   1.110   6.328  11.215 -0.3298  0.2770 -0.6582
11392TIP3    H255668   0.985   6.305  11.131 -1.1083 -1.3664  0.8980
11393TIP3   OH255669   4.187   3.703   4.020 -0.0940 -0.0846  0.0246
11393TIP3    H155670   4.259   3.642   4.005  0.5684  0.2190  1.8133
11393TIP3    H255671   4.130   3.659   4.083 -0.2724  0.6185  0.3702
11394TIP3   OH255672   0.699   2.606  15.690  0.2929  0.1366 -0.2116
11394TIP3    H155673   0.621   2.648  15.727  0.9528  1.5907 -0.4214
11394TIP3    H255674   0.718   2.535  15.751  0.7436  1.8340  1.7417
11395TIP3   OH255675   5.775   6.314  16.080 -0.2589  0.2495  0.2668
11395TIP3    H155676   5.702   6.339  16.137 -0.8762  0.6108 -0.6604
11395TIP3    H255677   5.773   6.378  16.009 -1.0757 -1.6309 -1.4868
11396TIP3   OH255678   6.152   6.610   2.896  0.2207 -0.3192  0.3441
11396TIP3    H155679   6.145   6.526   2.850  3.1540 -0.5494  0.1444
11396TIP3    H255680   6.095   6.599   2.973 -2.7242 -0.8723 -1.7495
11397TIP3   OH255681   1.330   2.269  10.530 -0.2167  0.3897  0.7107
11397TIP3    H155682   1.369   2.234  10.449 -0.9571  1.2013 -0.0230
11397TIP3    H255683   1.237   2.251  10.521 -0.4045  1.1979  1.0170
11398TIP3   OH255684   5.980   5.700   4.722 -0.0303 -0.1822 -0.2965
11398TIP3    H155685   6.000   5.745   4.640 -1.5739  0.0573 -0.5794
11398TIP3    H255686   5.890   5.725   4.742  0.1167 -0.7043  1.1738
11399TIP3   OH255687   3.776   1.111  13.259 -0.6478 -0.2438 -0.9544
11399TIP3    H155688   3.799   1.023  13.229 -0.8505 -0.4939 -0.3844
11399TIP3    H255689   3.859   1.150  13.286 -0.7756 -0.8879  0.4282
11400TIP3   OH255690   4.046   0.647  14.957 -0.0498  0.3150 -0.5514
11400TIP3    H155691   4.053   0.612  15.046  0.9328 -1.1165 -1.1546
11400TIP3    H255692   3.982   0.589  14.915 -0.6374  1.0916 -0.7475
11401TIP3   OH255693   0.538   3.326  14.808 -0.3317 -0.0921  0.1238
11401TIP3    H155694   0.560   3.234  14.794 -0.2388 -0.1623  0.7156
11401TIP3    H255695   0.552   3.340  14.901  0.2371  0.6844 -0.0751
11402TIP3   OH255696   3.957   5.637  16.814 -0.1170  0.6331  0.1273
11402TIP3    H155697   4.026   5.595  16.763 -1.3353  0.8624 -1.8203
11402TIP3    H255698   3.938   5.575  16.884  0.9246 -0.1730 -0.2774
11403TIP3   OH255699   1.264   6.442  17.047  0.2578 -0.2201 -0.2092
11403TIP3    H155700   1.259   6.535  17.070 -0.0498  0.1579 -1.6648
11403TIP3    H255701   1.357   6.428  17.025  0.1733 -0.0503 -0.7034
11404TIP3   OH255702   2.341   3.876  11.082 -0.0056 -0.7790  0.3927
11404TIP3    H155703   2.270   3.853  11.143 -1.5846  1.5115 -0.4343
11404TIP3    H255704   2.320   3.826  11.002 -0.9197  0.0892  0.0580
11405TIP3   OH255705   2.256   6.011  10.851  0.2392  0.6923 -0.8949
11405TIP3    H155706   2.316   5.981  10.919 -0.8814 -1.5490 -0.7977
11405TIP3    H255707   2.249   6.105  10.865 -0.5846  0.2339  2.6534
11406TIP3   OH255708   4.546   2.046  15.612  0.4484  0.5685  0.2551
11406TIP3    H155709   4.548   2.086  15.525 -0.4705 -0.3943 -0.2374
11406TIP3    H255710   4.482   1.975  15.604 -0.9588  1.5274  2.1928
11407TIP3   OH255711   4.028   6.371   0.995 -0.1324 -0.4833 -0.7317
11407TIP3    H155712   4.030   6.467   1.000  0.9971 -0.4863 -0.8121
11407TIP3    H255713   4.039   6.342   1.086 -0.1420 -0.5302 -0.7453
11408TIP3   OH255714   3.191   4.348   1.330 -0.4842 -0.0574  0.1712
11408TIP3    H155715   3.211   4.441   1.335 -0.7161 -0.0047  0.1315
11408TIP3    H255716   3.266   4.305   1.371  0.8314  0.0126 -1.9888
11409TIP3   OH255717   4.552   4.831  15.919 -0.2812  0.4556  0.7159
11409TIP3    H155718   4.601   4.752  15.942  0.5131  1.2487  1.8458
11409TIP3    H255719   4.619   4.899  15.910 -0.8445  0.8175 -1.2708
11410TIP3   OH255720   5.506   4.246   3.200 -0.6771 -0.1514  0.2166
11410TIP3    H155721   5.586   4.295   3.181 -0.9182  0.3844  0.5570
11410TIP3    H255722   5.528   4.155   3.181 -0.1083  0.0424 -0.0685
11411TIP3   OH255723   2.820   4.694  13.798 -0.4613 -0.3171  0.0178
11411TIP3    H155724   2.798   4.718  13.888  3.2682 -0.2304  1.0737
11411TIP3    H255725   2.882   4.761  13.770  1.8006 -2.6625 -0.9603
11412TIP3   OH255726   6.666   2.937  14.573  0.4327  0.4900  0.0654
11412TIP3    H155727   6.604   2.872  14.541  0.6513  0.1842  0.2549
11412TIP3    H255728   6.752   2.904  14.544  0.5571  0.6239  0.2793
11413TIP3   OH255729   6.487   2.279   2.226 -0.1023 -0.0384 -0.3724
11413TIP3    H155730   6.418   2.238   2.279  1.6175 -0.1489  1.9360
11413TIP3    H255731   6.526   2.207   2.178 -0.4876 -0.2483 -0.3789
11414TIP3   OH255732   2.338   4.373   1.248 -0.0297 -0.4515 -0.0725
11414TIP3    H155733   2.354   4.293   1.198  0.4031  0.9377 -2.2921
11414TIP3    H255734   2.422   4.417   1.251 -0.2218 -0.1220  1.3001
11415TIP3   OH255735   2.155   3.536   2.091  0.2624  0.1412 -0.3759
11415TIP3    H155736   2.196   3.474   2.031  2.1782  1.2772 -0.3407
11415TIP3    H255737   2.063   3.538   2.065  0.8597 -0.0565 -2.7239
11416TIP3   OH255738   5.598   4.134  11.654  0.2591 -0.6230  0.9223
11416TIP3    H155739   5.592   4.165  11.745 -0.1593 -3.1386  1.8256
11416TIP3    H255740   5.691   4.136  11.634  0.4672 -1.0484  1.8002
11417TIP3   OH255741   2.730   4.045   1.317 -0.0936 -0.0880  0.1681
11417TIP3    H155742   2.807   4.101   1.326  1.2814 -1.9437  0.5079
11417TIP3    H255743   2.757   3.975   1.258 -1.1827 -1.3040  1.0374
11418TIP3   OH255744   0.898   2.970   2.982 -0.2526  0.8000  0.4093
11418TIP3    H155745   0.832   3.011   2.927 -0.2921  1.9433  1.2781
11418TIP3    H255746   0.864   2.977   3.071 -0.0768 -0.7967  0.6305
11419TIP3   OH255747   0.015   2.751   4.674  0.2746  0.2408 -0.0347
11419TIP3    H155748  -0.011   2.837   4.709 -1.4301  0.2092 -1.1056
11419TIP3    H255749  -0.046   2.735   4.602  1.1244 -1.4924 -0.4215
11420TIP3   OH255750   4.324   2.808   6.122 -0.5658 -0.1454  0.3031
11420TIP3    H155751   4.419   2.819   6.118 -0.7985  1.9816 -0.2243
11420TIP3    H255752   4.306   2.790   6.215  0.3685 -1.1172  0.3156
11421TIP3   OH255753   4.148   2.100   2.335  0.2037  0.6452 -0.1997
11421TIP3    H155754   4.200   2.170   2.375 -0.1696  1.1731 -0.6041
11421TIP3    H255755   4.112   2.141   2.256  2.2833 -0.8289 -2.0274
11422TIP3   OH255756   4.446   4.495   5.324 -0.0378  0.0088 -0.0054
11422TIP3    H155757   4.452   4.463   5.233  0.2675 -1.2957  0.4447
11422TIP3    H255758   4.418   4.586   5.316  1.2852  0.3251 -1.4583
11423TIP3   OH255759   4.452   3.626  15.986  0.3509  0.0384 -0.0288
11423TIP3    H155760   4.484   3.609  15.898 -0.2572 -0.5333 -0.1425
11423TIP3    H255761   4.368   3.670  15.973  0.5136  0.4470  0.2694
11424TIP3   OH255762   2.354   6.610   1.891 -0.3858  0.0171  0.2697
11424TIP3    H155763   2.391   6.688   1.931  0.7894  0.1814 -1.0660
11424TIP3    H255764   2.338   6.634   1.800 -0.7876 -1.0431  0.0418
11425TIP3   OH255765   1.578   2.098   4.293  0.1964  0.0001 -0.0096
11425TIP3    H155766   1.637   2.035   4.335  0.5438  0.8648  0.8187
11425TIP3    H255767   1.620   2.183   4.305 -0.1224  0.3713 -1.3819
11426TIP3   OH255768   6.668   5.624   3.495  0.5423  0.1625 -0.3160
11426TIP3    H155769   6.686   5.715   3.520 -1.2724  0.1665  1.1884
11426TIP3    H255770   6.745   5.598   3.444  2.9009  1.3014  2.3831
11427TIP3   OH255771   6.196   3.379   1.047 -0.0946 -0.1913 -0.0610
11427TIP3    H155772   6.241   3.435   1.110 -1.4685  1.0826 -0.1409
11427TIP3    H255773   6.149   3.315   1.101  0.7178 -0.6951  0.0709
11428TIP3   OH255774   3.703   6.361   4.588 -0.5024 -0.2034 -0.0084
11428TIP3    H155775   3.611   6.382   4.602 -0.6910 -2.0248  2.0801
11428TIP3    H255776   3.751   6.424   4.642 -0.4820  0.8270 -1.1961
11429TIP3   OH255777   5.620   0.329   4.571 -0.0466  0.0754  0.1659
11429TIP3    H155778   5.670   0.410   4.563 -0.2939  0.1150 -1.1628
11429TIP3    H255779   5.614   0.295   4.482 -0.2995 -1.1985  0.6441
11430TIP3   OH255780   5.930   3.329  14.581  0.2712 -0.0772 -0.2058
11430TIP3    H155781   6.002   3.365  14.530  1.1072  0.8359  1.5236
11430TIP3    H255782   5.879   3.405  14.608 -0.1103 -0.5204  0.3515
11431TIP3   OH255783   2.561   5.562  11.838  0.0095  0.4502  0.5404
11431TIP3    H155784   2.613   5.570  11.758 -1.2833  0.9082 -0.2865
11431TIP3    H255785   2.577   5.643  11.885 -0.7818  1.0743 -0.2391
11432TIP3   OH255786   4.861   2.113  12.304 -0.2104 -0.7726  0.0328
11432TIP3    H155787   4.791   2.178  12.292 -0.1577 -0.8197 -0.5513
11432TIP3    H255788   4.888   2.090  12.215 -0.5071 -1.8959  0.2149
11433TIP3   OH255789   4.411   3.167   0.777  0.1467  0.4518 -0.1679
11433TIP3    H155790   4.355   3.168   0.854  0.3413 -0.7243  0.0044
11433TIP3    H255791   4.351   3.163   0.703 -0.0270  1.0024 -0.0620
11434TIP3   OH255792   4.490   6.355  16.656  0.4001  0.2011 -0.2717
11434TIP3    H155793   4.458   6.420  16.719  0.6828  0.3641 -0.2937
11434TIP3    H255794   4.452   6.273  16.686 -0.7334  0.5167 -0.7899
11435TIP3   OH255795   4.533   2.019  13.870  0.1121  0.5188 -0.0351
11435TIP3    H155796   4.609   2.072  13.846 -0.0085  0.5696 -0.3073
11435TIP3    H255797   4.566   1.929  13.869  0.3430  0.5935  0.5308
11436TIP3   OH255798   3.257   5.338   1.777 -0.4426 -0.2426  0.2993
11436TIP3    H155799   3.261   5.249   1.812 -3.9511 -0.9688 -0.8145
11436TIP3    H255800   3.312   5.335   1.698  1.1590 -0.7508  1.3753
11437TIP3   OH255801   2.493   2.913   2.384 -0.4760  0.3538  0.4069
11437TIP3    H155802   2.569   2.962   2.353 -0.7489  0.0722 -0.7710
11437TIP3    H255803   2.427   2.927   2.317 -0.3999 -2.0284 -0.2665
11438TIP3   OH255804   1.359   3.990   0.736  0.5214 -0.4230  0.0244
11438TIP3    H155805   1.421   3.919   0.725  2.2054  0.9580  0.1978
11438TIP3    H255806   1.273   3.950   0.721  1.4448 -2.3531 -0.3490
11439TIP3   OH255807   0.339   2.267  12.997  0.4542  0.4404  0.1391
11439TIP3    H155808   0.312   2.270  13.088 -0.4533 -2.2074  0.0363
11439TIP3    H255809   0.370   2.356  12.978 -1.0785  1.5608  2.4448
11440TIP3   OH255810   6.355   3.497   1.318 -0.4692  0.2100 -0.0281
11440TIP3    H155811   6.427   3.434   1.313  0.4142  1.2121 -0.1285
11440TIP3    H255812   6.297   3.461   1.385  0.2995 -0.4265  0.3184
11441TIP3   OH255813   4.392   4.916   2.560  0.0046 -0.1450  0.1310
11441TIP3    H155814   4.347   4.833   2.545 -1.3699  0.9218 -2.1741
11441TIP3    H255815   4.446   4.928   2.482  2.1310  0.0242  1.5458
11442TIP3   OH255816   5.253   1.069   2.887  0.3549  0.3405  0.3004
11442TIP3    H155817   5.284   0.980   2.872  1.1428  0.8049 -0.9000
11442TIP3    H255818   5.269   1.115   2.805  1.2616  1.9614  1.3161
11443TIP3   OH255819   5.438   0.598  12.589  0.4933 -0.5875 -0.0495
11443TIP3    H155820   5.379   0.534  12.629 -0.7503  0.4175 -0.2064
11443TIP3    H255821   5.524   0.577  12.626  0.1167 -2.2724 -0.0237
11444TIP3   OH255822   3.292   4.131  16.200  0.0052 -0.7310  0.3257
11444TIP3    H155823   3.277   4.062  16.136  2.0271 -0.8678 -0.0634
11444TIP3    H255824   3.371   4.175  16.169 -0.0881  0.4482  1.6851
11445TIP3   OH255825   1.551   5.341  14.076  0.5149  0.3314 -0.1725
11445TIP3    H155826   1.523   5.409  14.137  0.0198  1.8730 -2.0124
11445TIP3    H255827   1.575   5.267  14.132  0.5613  1.8088  1.8905
11446TIP3   OH255828   4.067   4.258  11.834  0.6920  0.1289  0.0921
11446TIP3    H155829   4.075   4.323  11.903  0.9224 -0.0187  0.2068
11446TIP3    H255830   4.097   4.176  11.874  1.3241  0.1442 -0.3341
11447TIP3   OH255831   0.206   2.071  15.936 -1.0777  0.1592  0.2060
11447TIP3    H155832   0.248   2.153  15.961  1.9748 -0.5089 -2.1479
11447TIP3    H255833   0.257   2.003  15.980 -0.2325 -0.6381 -1.8609
11448TIP3   OH255834   1.021   5.692  16.311  0.3119  0.0970  0.2022
11448TIP3    H155835   1.058   5.780  16.316  0.3101  0.1123 -0.0516
11448TIP3    H255836   0.935   5.700  16.353 -1.1357  1.0001 -2.6308
11449TIP3   OH255837   0.435   4.459   5.580  0.1664  0.1373  0.3361
11449TIP3    H155838   0.440   4.424   5.669  1.0243  0.8616  0.5861
11449TIP3    H255839   0.522   4.446   5.543  0.3327  1.4333  0.2298
11450TIP3   OH255840   3.163   3.879  14.954 -0.1039  0.1996 -0.6949
11450TIP3    H155841   3.181   3.967  14.988 -0.5573  0.1732 -0.3728
11450TIP3    H255842   3.205   3.877  14.868 -0.6881  0.9833 -1.0101
11451TIP3   OH255843   3.840   0.763  11.230  0.3049  0.4192  0.0518
11451TIP3    H155844   3.771   0.828  11.217  1.5052  2.8398  3.8798
11451TIP3    H255845   3.795   0.687  11.267 -0.5672  1.3329  0.9417
11452TIP3   OH255846   1.412   2.604  14.486  0.3045 -0.4212 -0.4744
11452TIP3    H155847   1.341   2.667  14.481  1.1483  0.7273  1.0250
11452TIP3    H255848   1.381   2.537  14.548  0.5950  0.2016  0.3591
11453TIP3   OH255849   6.425   2.308   0.192  0.0460 -0.0073 -0.6288
11453TIP3    H155850   6.403   2.234   0.249  1.0217 -0.8039 -1.2421
11453TIP3    H255851   6.421   2.271   0.104  1.5570  0.3741 -0.8853
11454TIP3   OH255852   6.200   3.632   5.358 -0.5174 -0.0223 -0.2904
11454TIP3    H155853   6.243   3.711   5.326  0.2489 -0.3534 -0.0970
11454TIP3    H255854   6.271   3.577   5.390 -0.8215 -1.5097 -1.9656
11455TIP3   OH255855   4.019   6.392   5.139  0.2931 -0.3219 -0.6623
11455TIP3    H155856   4.008   6.424   5.049  1.4376 -0.1268 -0.7568
11455TIP3    H255857   3.991   6.465   5.194  0.2764 -0.1705 -0.8697
11456TIP3   OH255858   2.903   0.740  16.581  0.5343 -0.0097  0.0949
11456TIP3    H155859   2.877   0.771  16.494  1.8077 -0.7861 -0.5878
11456TIP3    H255860   2.849   0.663  16.597  0.6245 -0.1351 -0.2065
11457TIP3   OH255861   4.730   6.627  16.037  0.9427 -0.5602  0.0933
11457TIP3    H155862   4.780   6.709  16.040  1.5937 -0.4814 -4.5842
11457TIP3    H255863   4.788   6.565  15.992 -0.8157 -2.4876  0.3193
11458TIP3   OH255864   3.825   1.811  11.675 -0.3463 -0.0545 -0.5256
11458TIP3    H155865   3.796   1.806  11.584  1.9234 -2.8713 -1.2364
11458TIP3    H255866   3.785   1.735  11.717  1.6317 -0.9801 -0.2105
11459TIP3   OH255867   4.310   1.900  13.525 -0.7306  0.3840 -0.1205
11459TIP3    H155868   4.232   1.862  13.484 -1.3503  1.2840  0.1770
11459TIP3    H255869   4.374   1.829  13.526 -1.4223 -0.2675 -0.7081
11460TIP3   OH255870   3.744   4.129  12.595 -0.9467 -0.1845 -0.1136
11460TIP3    H155871   3.755   4.179  12.676 -1.5457 -1.2198  0.6269
11460TIP3    H255872   3.691   4.187  12.539 -1.6550  0.0193  0.7362
11461TIP3   OH255873   3.815   4.411   3.100 -0.0556 -0.4648  0.0493
11461TIP3    H155874   3.747   4.344   3.110  2.0011 -3.0062 -1.6186
11461TIP3    H255875   3.813   4.433   3.006  0.5393  0.4287  0.2390
11462TIP3   OH255876   2.761   3.848   6.160  0.0979  0.0034  0.7235
11462TIP3    H155877   2.812   3.923   6.129  0.6803  0.3596  2.4037
11462TIP3    H255878   2.756   3.861   6.255 -1.2900 -1.1818  0.8410
11463TIP3   OH255879   4.288   2.714  14.786  0.4539 -0.4371 -0.4898
11463TIP3    H155880   4.234   2.777  14.739  0.1181 -0.5207 -0.2137
11463TIP3    H255881   4.377   2.750  14.781  0.2759  0.0024 -0.4168
11464TIP3   OH255882   6.779   6.407   5.992 -0.4427 -0.5105 -0.3573
11464TIP3    H155883   6.700   6.446   5.956 -0.0504 -0.3135 -1.0349
11464TIP3    H255884   6.760   6.313   5.998 -1.1690 -0.3111  0.6997
11465TIP3   OH255885   4.175   1.817   4.721  0.2213  0.5667 -0.2534
11465TIP3    H155886   4.207   1.901   4.688  0.9769  0.7559  0.9021
11465TIP3    H255887   4.142   1.837   4.809  1.3789 -0.5120  0.4570
11466TIP3   OH255888   2.339   5.317  13.976 -0.3281 -0.5889  0.7150
11466TIP3    H155889   2.322   5.409  13.956  0.0798 -0.5544  0.5175
11466TIP3    H255890   2.309   5.307  14.066  0.0444 -0.1439  0.8959
11467TIP3   OH255891   3.419   2.358  13.000  0.3258 -0.1478 -0.9489
11467TIP3    H155892   3.373   2.318  13.074 -0.1403  2.2234  0.1456
11467TIP3    H255893   3.349   2.393  12.944  0.7186 -0.7135 -1.8128
11468TIP3   OH255894   1.568   5.010   1.464 -0.0620  0.0442 -0.2699
11468TIP3    H155895   1.528   4.980   1.545  0.3360  0.2382  0.0056
11468TIP3    H255896   1.499   5.003   1.398 -0.5856  0.4966  0.2209
11469TIP3   OH255897   4.248   3.070  15.524  0.5577  0.5464 -0.1768
11469TIP3    H155898   4.188   3.136  15.489 -0.7394  0.8548  2.4351
11469TIP3    H255899   4.335   3.109  15.513 -0.0925  2.1729  0.1766
11470TIP3   OH255900   6.516   1.775  11.373  0.7373  0.1886 -0.7076
11470TIP3    H155901   6.480   1.856  11.407  0.7608 -0.3186  0.5707
11470TIP3    H255902   6.596   1.760  11.424  1.0152 -0.3589 -1.2877
11471TIP3   OH255903   6.814   3.044  11.555 -0.2061 -0.1378  0.6218
11471TIP3    H155904   6.822   3.096  11.635 -1.5147  0.1133  0.6136
11471TIP3    H255905   6.848   3.102  11.486  0.1946 -0.0637  0.8737
11472TIP3   OH255906   4.812   2.405  13.022 -0.2049 -0.2270  0.6130
11472TIP3    H155907   4.764   2.432  12.944  2.5463 -0.3138 -1.2614
11472TIP3    H255908   4.872   2.477  13.040  1.7559 -1.6969  0.3337
11473TIP3   OH255909   1.505   3.718  14.058  0.2115  0.3099 -0.1589
11473TIP3    H155910   1.540   3.717  13.969  1.4568 -0.5084  0.3110
11473TIP3    H255911   1.456   3.800  14.064  1.9024  1.4350 -0.9333
11474TIP3   OH255912   0.180   1.190  11.097 -0.5155 -0.3443  0.4164
11474TIP3    H155913   0.125   1.199  11.020 -1.3628 -0.7191  0.9544
11474TIP3    H255914   0.125   1.223  11.169  0.0649 -0.4775  0.9252
11475TIP3   OH255915   0.274   2.515   0.020 -0.4983 -0.0438  0.9629
11475TIP3    H155916   0.328   2.511  -0.059  0.8243  1.7579  1.7137
11475TIP3    H255917   0.198   2.461  -0.000 -0.7206  1.1862 -1.9244
11476TIP3   OH255918   4.453   1.256  10.709  0.0589 -0.5440 -0.5663
11476TIP3    H155919   4.544   1.227  10.714  0.4345  0.7211  0.6542
11476TIP3    H255920   4.459   1.352  10.705 -1.2160 -0.4469 -0.5197
11477TIP3   OH255921   6.458   2.674   4.278 -1.0009  0.4390 -0.3233
11477TIP3    H155922   6.446   2.619   4.200 -0.7261 -1.7679  1.1296
11477TIP3    H255923   6.374   2.671   4.323 -0.2139 -1.0153  1.1178
11478TIP3   OH255924   1.729   5.871   3.136  0.2767  0.2139 -0.2184
11478TIP3    H155925   1.664   5.848   3.070 -1.9141 -0.7487  2.1187
11478TIP3    H255926   1.776   5.789   3.154  1.7786  0.7611 -1.4314
11479TIP3   OH255927   5.344   3.759  15.029 -0.6878 -1.0303  0.5883
11479TIP3    H155928   5.346   3.730  14.937 -0.8672 -0.8874  0.5390
11479TIP3    H255929   5.259   3.800  15.039 -0.0811  0.3574  0.3924
11480TIP3   OH255930   4.665   6.087   3.038 -0.3171 -0.1342  0.0181
11480TIP3    H155931   4.722   6.158   3.007 -0.6161  0.2427  0.3215
11480TIP3    H255932   4.711   6.007   3.014 -0.2802  0.1553 -0.9063
11481TIP3   OH255933   2.540   2.228  12.956  0.2862 -0.4897  0.0562
11481TIP3    H155934   2.621   2.187  12.925 -0.9935 -1.3925 -2.2606
11481TIP3    H255935   2.491   2.249  12.877 -1.5948  0.4297  1.3868
11482TIP3   OH255936   5.925   0.717   4.129  0.2918 -0.6316 -0.5673
11482TIP3    H155937   5.971   0.801   4.125  0.2432 -0.5518  0.3009
11482TIP3    H255938   5.972   0.667   4.196 -0.1019 -1.0346 -0.5841
11483TIP3   OH255939   1.852   3.175  12.130  0.0165  0.1791 -0.6302
11483TIP3    H155940   1.942   3.156  12.105 -0.0715 -0.8165 -0.2478
11483TIP3    H255941   1.854   3.177  12.225 -0.2322  0.8853 -0.6369
11484TIP3   OH255942   5.853   5.656  13.525 -0.3284  0.2301  0.1885
11484TIP3    H155943   5.829   5.711  13.450  0.0655 -0.8743 -0.7894
11484TIP3    H255944   5.780   5.662  13.585 -0.3785  1.6508  0.0070
11485TIP3   OH255945   1.238   3.151  13.270 -0.1869 -0.0044  0.2066
11485TIP3    H155946   1.200   3.222  13.322 -0.8756 -0.5298  0.4261
11485TIP3    H255947   1.184   3.148  13.191  0.4308  0.3337 -0.2412
11486TIP3   OH255948   6.129   5.044  13.172 -0.1343 -0.3400  0.3830
11486TIP3    H155949   6.123   5.013  13.262 -0.5111 -1.4657 -0.0186
11486TIP3    H255950   6.117   4.966  13.119 -0.6354  0.4270 -0.6570
11487TIP3   OH255951   3.605   1.429  12.713 -0.0639  0.0838 -0.3173
11487TIP3    H155952   3.556   1.368  12.767 -0.8711  0.7479 -0.2867
11487TIP3    H255953   3.543   1.458  12.646  0.2967  0.8848 -0.3216
11488TIP3   OH255954   3.720   1.598   2.198 -0.3862  0.4122  0.0234
11488TIP3    H155955   3.630   1.605   2.229 -1.2945 -1.5944 -1.9022
11488TIP3    H255956   3.727   1.662   2.127 -0.2717  0.6079  0.2104
11489TIP3   OH255957   6.062   1.369   0.610  0.4709  0.9228  0.2052
11489TIP3    H155958   6.046   1.365   0.516 -0.3412  0.0905  0.3691
11489TIP3    H255959   5.978   1.345   0.650  0.7931  1.3052  1.1459
11490TIP3   OH255960   2.739   6.217  14.091  0.5398  0.6083  0.1466
11490TIP3    H155961   2.668   6.179  14.039  0.1230 -0.2518  1.2833
11490TIP3    H255962   2.735   6.310  14.073  1.0463  0.2580 -2.0921
11491TIP3   OH255963   6.303   5.568  16.069  0.2884 -0.3883  0.3280
11491TIP3    H155964   6.232   5.513  16.101 -0.7936  0.7746 -0.0055
11491TIP3    H255965   6.306   5.641  16.132  0.9194 -0.2231  0.1102
11492TIP3   OH255966   5.355   4.987  17.101  0.2971 -0.2497  0.2536
11492TIP3    H155967   5.320   4.988  17.012 -0.9537  0.8517  0.7273
11492TIP3    H255968   5.287   4.945  17.153 -0.2264  1.5892  1.1340
11493TIP3   OH255969   1.277   0.569   2.509  0.2971 -0.3513  0.7732
11493TIP3    H155970   1.263   0.617   2.428 -1.1089  0.1382  1.2659
11493TIP3    H255971   1.330   0.493   2.484 -0.6648 -0.5576 -0.7272
11494TIP3   OH255972   4.718   5.556   3.521  0.1415 -0.2565 -0.6172
11494TIP3    H155973   4.801   5.520   3.489  0.1696  0.2725 -1.1690
11494TIP3    H255974   4.655   5.486   3.507  0.1466 -0.0371 -1.9155
11495TIP3   OH255975   6.374   6.116   2.308 -0.3359 -0.9741 -0.1711
11495TIP3    H155976   6.285   6.116   2.343 -0.3688 -1.7299 -0.2488
11495TIP3    H255977   6.365   6.081   2.220  0.0362 -1.0297 -0.1882
11496TIP3   OH255978   4.174   2.269   4.039 -0.0303 -0.0160 -0.6629
11496TIP3    H155979   4.226   2.255   4.118  0.6682  0.9331 -0.9400
11496TIP3    H255980   4.084   2.272   4.070 -0.0291 -2.3142 -0.2521
11497TIP3   OH255981   2.310   3.326  12.992  0.2657  0.1315 -0.2410
11497TIP3    H155982   2.287   3.238  13.023 -0.4517 -0.1992 -1.6513
11497TIP3    H255983   2.227   3.366  12.968  0.8619 -0.4154 -3.6927
11498TIP3   OH255984   6.549   4.600   3.176 -0.0462  0.3808 -0.1096
11498TIP3    H155985   6.562   4.655   3.253  3.0688  3.1196 -2.2739
11498TIP3    H255986   6.462   4.623   3.143 -1.3309 -0.6864  2.3083
11499TIP3   OH255987   5.691   0.953   1.236  0.8144 -0.6960  0.4310
11499TIP3    H155988   5.721   0.934   1.147 -1.1829 -0.8434 -0.2715
11499TIP3    H255989   5.616   0.895   1.249 -0.8291  1.4388  1.0489
11500TIP3   OH255990   4.544   0.906   0.689  0.5074  0.4970 -0.0561
11500TIP3    H155991   4.478   0.843   0.659  1.2360  0.4423 -1.6584
11500TIP3    H255992   4.587   0.936   0.609 -0.1094  3.4252  0.5861
11501TIP3   OH255993   4.892   2.263   1.659  0.3937 -0.2327 -0.4071
11501TIP3    H155994   4.919   2.315   1.583  1.1963 -2.0826 -1.4609
11501TIP3    H255995   4.825   2.317   1.702  1.4990  1.8419 -1.1377
11502TIP3   OH255996   5.270   6.382  16.167 -0.1515  0.6539  0.1221
11502TIP3    H155997   5.257   6.475  16.148 -0.1137  0.2870 -1.9296
11502TIP3    H255998   5.181   6.346  16.171 -0.1572  0.3826 -1.5367
11503TIP3   OH255999   0.676   3.812   2.698 -0.2361 -0.1236  0.0519
11503TIP3    H156000   0.730   3.777   2.627 -0.1186  1.0553 -0.4739
11503TIP3    H256001   0.676   3.744   2.765 -0.0392 -1.1131 -0.9277
11504TIP3   OH256002   1.983   1.386  15.164  0.5035  0.1820 -0.8332
11504TIP3    H156003   2.023   1.300  15.156 -1.2172 -0.6252 -1.2510
11504TIP3    H256004   1.889   1.369  15.159  0.0604  1.9291  0.5614
11505TIP3   OH256005   2.764   4.805  16.740 -0.1703 -0.0730  0.1511
11505TIP3    H156006   2.844   4.845  16.775  0.1857 -1.2265  0.7053
11505TIP3    H256007   2.705   4.879  16.724  1.0790  0.8264 -0.4950
11506TIP3   OH256008   2.928   0.876  11.342 -0.0993  0.0849  0.2510
11506TIP3    H156009   3.001   0.928  11.308 -1.8492  2.1691 -0.6023
11506TIP3    H256010   2.851   0.909  11.294 -1.4278 -3.0486 -0.0283
11507TIP3   OH256011   6.334   5.051  15.251  0.5724  0.2808  0.1232
11507TIP3    H156012   6.239   5.040  15.259  0.4577  0.8544 -0.4768
11507TIP3    H256013   6.345   5.134  15.207  1.2621 -1.2895 -2.9332
11508TIP3   OH256014   5.668   2.815   2.653 -0.0948 -0.0374 -0.1177
11508TIP3    H156015   5.594   2.753   2.654  1.0726 -1.4844  0.5892
11508TIP3    H256016   5.693   2.820   2.561 -0.5090 -0.2421 -0.2450
11509TIP3   OH256017   5.699   1.182   4.204 -0.9133 -0.4643  0.0946
11509TIP3    H156018   5.695   1.264   4.253 -1.2034  0.4116 -1.3621
11509TIP3    H256019   5.786   1.146   4.224  0.1062  1.2879 -0.9281
11510TIP3   OH256020   0.632   5.321   1.021  0.2069 -0.1625 -0.4187
11510TIP3    H156021   0.630   5.331   0.926 -0.5799  0.9131 -0.3171
11510TIP3    H256022   0.550   5.276   1.042  1.2912 -2.2318 -0.3914
11511TIP3   OH256023   2.317   1.427  12.187  0.7424 -0.1798  0.4744
11511TIP3    H156024   2.308   1.491  12.258 -0.8670  0.9623 -0.6734
11511TIP3    H256025   2.373   1.470  12.123 -0.8340  0.4361 -0.5771
11512TIP3   OH256026   3.418   2.319  15.982 -0.2212  0.1850 -0.8777
11512TIP3    H156027   3.457   2.356  16.061 -1.7044 -0.7303  0.3324
11512TIP3    H256028   3.426   2.389  15.916 -1.0837  1.8922  0.7486
11513TIP3   OH256029   2.901   1.427   5.362 -0.5915  0.7733  0.3204
11513TIP3    H156030   2.849   1.362   5.315 -0.8264  1.6630 -0.6920
11513TIP3    H256031   2.860   1.432   5.449  0.1309 -1.2214  0.8340
11514TIP3   OH256032   6.282   1.582   1.542 -0.3596  0.6473 -0.5692
11514TIP3    H156033   6.364   1.573   1.493 -0.8005 -2.1517 -0.9566
11514TIP3    H256034   6.233   1.649   1.494  1.9216  3.0176  0.1449
11515TIP3   OH256035   4.639   4.456  14.289 -0.2605 -0.0313 -0.2773
11515TIP3    H156036   4.613   4.433  14.200 -1.4841  0.6571 -0.1092
11515TIP3    H256037   4.606   4.545  14.302 -0.7227 -0.3803  1.1049
11516TIP3   OH256038   1.177   5.278   2.326 -0.3549 -0.3049  0.1328
11516TIP3    H156039   1.245   5.329   2.281 -0.2025 -3.0232 -3.1146
11516TIP3    H256040   1.122   5.244   2.255 -0.8183 -4.0465  2.0557
11517TIP3   OH256041   0.526   2.338   5.075 -0.3189 -0.1615 -0.0389
11517TIP3    H156042   0.579   2.302   5.004  1.1276  0.8346  0.4934
11517TIP3    H256043   0.446   2.285   5.074 -0.1514 -0.4584 -2.1061
11518TIP3   OH256044   2.019   1.951  14.935  0.1515  0.0652 -0.4525
11518TIP3    H156045   1.929   1.985  14.932 -0.4591 -1.1713  1.6760
11518TIP3    H256046   2.058   1.980  14.853 -2.5065 -0.2184 -1.9440
11519TIP3   OH256047   2.915   1.262   1.371 -0.0198  0.2880 -0.1053
11519TIP3    H156048   2.927   1.206   1.448 -1.4925 -3.4149 -2.3287
11519TIP3    H256049   2.843   1.320   1.395  0.4004  0.1285  1.7206
11520TIP3   OH256050   4.574   2.985   2.979 -0.0977  0.3204  0.7692
11520TIP3    H156051   4.638   2.927   2.937 -1.8499 -1.3788  0.3009
11520TIP3    H256052   4.519   2.926   3.030 -1.8649  1.5995  0.4236
11521TIP3   OH256053   2.112   4.565  11.383  0.0791  0.1128 -0.4019
11521TIP3    H156054   2.094   4.599  11.296 -2.3368 -0.0327 -0.0197
11521TIP3    H256055   2.124   4.471  11.370 -0.5586  0.0493 -0.5581
11522TIP3   OH256056   4.023   5.014  11.931 -0.0321  0.1880 -0.6157
11522TIP3    H156057   3.962   5.073  11.975  0.2058  0.2239 -0.3296
11522TIP3    H256058   4.109   5.055  11.943  0.0801  0.0050 -0.7907
11523TIP3   OH256059   4.416   0.162   2.317 -0.1218  0.2385  0.0162
11523TIP3    H156060   4.454   0.122   2.395  0.6670  0.4420 -0.2508
11523TIP3    H256061   4.478   0.142   2.247  0.3380  1.9639 -0.1189
11524TIP3   OH256062   0.333   1.639   0.161 -0.0114 -0.3346  0.6482
11524TIP3    H156063   0.370   1.599   0.083  1.1477 -0.0882  1.0599
11524TIP3    H256064   0.407   1.679   0.206 -0.8901  0.9398  1.0453
11525TIP3   OH256065   6.794   3.262  14.300 -0.3714  0.0348  0.0419
11525TIP3    H156066   6.882   3.266  14.337  0.1148 -1.4030 -0.9302
11525TIP3    H256067   6.741   3.224  14.370  0.3584 -1.7680 -0.3364
11526TIP3   OH256068   3.377   0.356   5.879 -0.2386 -0.5601 -0.3454
11526TIP3    H156069   3.339   0.373   5.966  0.3155 -0.8283 -0.0504
11526TIP3    H256070   3.304   0.370   5.819 -0.2397  1.2060  0.0203
11527TIP3   OH256071   1.195   4.764   1.343  0.2263 -0.1513 -0.4636
11527TIP3    H156072   1.215   4.674   1.368 -1.7398 -0.7382 -0.8971
11527TIP3    H256073   1.165   4.758   1.253  0.9325  1.0856 -0.8077
11528TIP3   OH256074   4.190   0.927  14.458  0.5043  0.0341  0.1463
11528TIP3    H156075   4.182   0.993  14.526  1.5610  1.6454 -1.1948
11528TIP3    H256076   4.110   0.875  14.465  1.3695 -1.0653  3.7271
11529TIP3   OH256077   4.779   6.472  14.654 -0.1023 -0.0917  0.1591
11529TIP3    H156078   4.690   6.475  14.691  1.1728 -0.7696  3.7354
11529TIP3    H256079   4.812   6.386  14.681  3.2109  1.9349  3.4135
11530TIP3   OH256080   4.952   2.038  12.048  0.4719  0.0783 -0.1645
11530TIP3    H156081   4.891   1.969  12.022 -1.1852  1.9176 -1.3435
11530TIP3    H256082   4.920   2.117  12.006  1.8221  1.7936  1.8035
11531TIP3   OH256083   4.032   5.709  17.162  0.5054  0.2371 -0.5391
11531TIP3    H156084   4.112   5.746  17.200  3.1408 -3.3150 -2.0535
11531TIP3    H256085   4.015   5.630  17.214 -0.7484 -0.1935 -1.5523
11532TIP3   OH256086   1.928   6.161   3.955 -0.4789 -0.7025  0.3289
11532TIP3    H156087   1.903   6.237   3.903  0.3861 -0.0631  0.8196
11532TIP3    H256088   2.023   6.169   3.964 -0.5169 -1.2600  1.2906
11533TIP3   OH256089   2.395   4.262   4.947 -0.1040 -0.2844 -1.3314
11533TIP3    H156090   2.424   4.317   4.875 -0.4122  0.9924 -0.5202
11533TIP3    H256091   2.336   4.198   4.906 -0.7791  0.8142 -2.1364
11534TIP3   OH256092   3.202   1.617  14.748  0.2462 -0.1397  0.1680
11534TIP3    H156093   3.286   1.628  14.792  0.2917 -1.1434  0.3574
11534TIP3    H256094   3.161   1.704  14.751  0.0738 -0.2396  2.5500
11535TIP3   OH256095   4.962   3.003   2.201 -0.5707  0.7032  0.1366
11535TIP3    H156096   5.012   2.928   2.232  1.5598  1.5442 -1.0876
11535TIP3    H256097   4.875   2.968   2.184 -0.0376 -1.1500  0.9649
11536TIP3   OH256098   6.322   6.048   2.702  0.8787 -0.7879  0.7792
11536TIP3    H156099   6.369   6.067   2.783  1.0045  1.4644  0.2304
11536TIP3    H256100   6.360   6.107   2.637 -3.0331  1.7444  0.4431
11537TIP3   OH256101   3.281   1.075   4.509 -0.2369 -0.1980  0.5241
11537TIP3    H156102   3.366   1.041   4.480 -0.4841 -1.0821  0.8268
11537TIP3    H256103   3.218   1.038   4.447 -0.1762  2.4650 -1.2888
11538TIP3   OH256104   6.352   4.585  14.974 -0.2324  0.2512 -0.1607
11538TIP3    H156105   6.340   4.540  14.890 -0.2224  0.1220 -0.0932
11538TIP3    H256106   6.415   4.531  15.022  0.0769  0.5436 -0.2301
11539TIP3   OH256107   3.549   1.458   4.448 -0.0416 -0.3168 -0.2029
11539TIP3    H156108   3.604   1.477   4.372 -0.5552  0.4539 -0.3997
11539TIP3    H256109   3.459   1.469   4.416 -0.4801 -3.5770 -0.4619
11540TIP3   OH256110   4.500   0.324   0.422  0.4104 -0.5256 -0.0258
11540TIP3    H156111   4.506   0.234   0.391  1.6842 -0.1031 -1.0759
11540TIP3    H256112   4.531   0.320   0.513  0.4231 -1.1448 -0.0523
11541TIP3   OH256113   6.801   0.649   1.319 -0.8648 -0.2063 -0.4625
11541TIP3    H156114   6.784   0.743   1.321 -0.1918  0.0054 -2.4146
11541TIP3    H256115   6.719   0.610   1.287 -0.1285  0.1022 -2.9189
11542TIP3   OH256116   1.103   3.050  14.969  0.0199  0.3146  0.2173
11542TIP3    H156117   1.059   3.097  15.040  1.1455  0.5041  0.8075
11542TIP3    H256118   1.195   3.076  14.976 -0.0334  1.3717 -2.1339
11543TIP3   OH256119   0.785   6.723  13.202 -0.2744 -0.1116  0.1464
11543TIP3    H156120   0.769   6.632  13.180 -1.2450  0.5308 -2.0556
11543TIP3    H256121   0.740   6.773  13.134  2.7194  2.0095 -0.4666
11544TIP3   OH256122   2.905   6.320   3.297 -0.4766 -0.2716 -0.1231
11544TIP3    H156123   2.908   6.409   3.332 -2.6325 -0.5452  0.8854
11544TIP3    H256124   2.893   6.264   3.373  1.8278 -1.5814 -0.6238
11545TIP3   OH256125   0.676   4.634   5.038 -0.2599  0.3759 -0.1109
11545TIP3    H156126   0.754   4.670   4.997  0.5760 -0.0920  1.0457
11545TIP3    H256127   0.648   4.564   4.979  0.7656 -0.1064 -0.0458
11546TIP3   OH256128   4.236   4.680  11.163 -0.0294 -0.0855  0.2196
11546TIP3    H156129   4.183   4.630  11.101 -1.0203 -0.5286  1.3834
11546TIP3    H256130   4.173   4.738  11.207  1.0221  1.9429 -0.8102
11547TIP3   OH256131   5.171   4.068   1.142 -0.3662  0.3050  0.5611
11547TIP3    H156132   5.113   4.132   1.101 -0.6567  0.4223  1.1588
11547TIP3    H256133   5.113   4.007   1.186 -0.0975 -0.4405 -0.0873
11548TIP3   OH256134   3.002   3.177   0.708 -0.6834 -0.0067  0.1532
11548TIP3    H156135   3.018   3.094   0.752 -1.5594 -0.7944 -0.9806
11548TIP3    H256136   2.915   3.168   0.669 -0.6190  1.2779 -0.3479
11549TIP3   OH256137   1.972   2.773   5.119  0.0020 -0.0069  0.0379
11549TIP3    H156138   1.881   2.744   5.114 -0.5974  1.5575  1.0037
11549TIP3    H256139   2.018   2.720   5.054 -1.6901 -0.4978 -0.8168
11550TIP3   OH256140   2.818   2.888  10.917 -0.6378 -0.4624 -0.4232
11550TIP3    H156141   2.819   2.806  10.968  0.7538 -0.1709  0.0724
11550TIP3    H256142   2.764   2.868  10.841 -1.6857 -1.3276  0.5008
11551TIP3   OH256143   3.046   1.312  15.649 -0.6777 -0.3325 -0.4758
11551TIP3    H156144   2.956   1.319  15.619 -0.8121  2.1474  0.3296
11551TIP3    H256145   3.096   1.368  15.589  0.8211 -3.3433 -2.3303
11552TIP3   OH256146   3.933   4.566  13.165 -0.5335  0.1341  0.1055
11552TIP3    H156147   3.981   4.491  13.201 -1.8469  0.1466  2.0764
11552TIP3    H256148   4.001   4.631  13.147  0.5507 -1.2095 -0.9340
11553TIP3   OH256149   0.468   5.161  11.496 -0.4614 -0.0176 -0.1287
11553TIP3    H156150   0.501   5.088  11.548  0.5970  0.0125 -0.7419
11553TIP3    H256151   0.488   5.138  11.406 -3.0079 -0.4510 -0.6542
11554TIP3   OH256152   2.910   3.105  11.715  0.0232 -0.3688 -0.3873
11554TIP3    H156153   2.909   3.095  11.620 -0.5218 -0.6873 -0.3546
11554TIP3    H256154   2.831   3.157  11.734  0.4593  0.2211 -0.1630
11555TIP3   OH256155   1.563   5.149   0.388 -0.1578 -0.3453  0.1825
11555TIP3    H156156   1.571   5.224   0.329  1.7931  0.3590  1.2823
11555TIP3    H256157   1.651   5.134   0.421 -0.7262 -2.3681  0.9543
11556TIP3   OH256158   6.785   0.300  15.368  0.0154  0.9785 -0.3976
11556TIP3    H156159   6.750   0.230  15.423  2.5842 -0.0736  0.0732
11556TIP3    H256160   6.852   0.257  15.314 -0.0055  2.6518 -1.8716
11557TIP3   OH256161   6.696   1.039  16.990  0.1265  0.3713  0.1842
11557TIP3    H156162   6.699   1.042  17.086 -1.3852  0.1309  0.2647
11557TIP3    H256163   6.782   1.007  16.964 -0.1043 -1.5111  1.5601
11558TIP3   OH256164   3.260   0.654  11.264  0.1551  0.3503  0.5545
11558TIP3    H156165   3.166   0.667  11.252  0.1007  0.3327  0.9486
11558TIP3    H256166   3.281   0.702  11.345  0.0916 -1.3487  1.6382
11559TIP3   OH256167   4.732   0.473  15.875 -0.0097 -0.4246  0.1192
11559TIP3    H156168   4.661   0.411  15.891 -0.0572 -0.4668 -0.2408
11559TIP3    H256169   4.751   0.511  15.960  0.2721 -1.2049  0.4144
11560TIP3   OH256170   2.723   0.211  15.974 -0.2393  0.4167  0.5139
11560TIP3    H156171   2.722   0.214  16.070 -1.2352  1.1464  0.4915
11560TIP3    H256172   2.814   0.189  15.952 -0.0756 -0.1172  1.6257
11561TIP3   OH256173   2.359   1.224  10.659  0.3810 -0.7083 -0.3752
11561TIP3    H156174   2.309   1.241  10.739  0.3475  0.3231 -0.6017
11561TIP3    H256175   2.342   1.132  10.639  0.0503 -0.8639  0.5658
11562TIP3   OH256176   2.351   1.396   2.166  0.1230  0.1696  0.5957
11562TIP3    H156177   2.337   1.348   2.084  0.0664  0.5976  0.3572
11562TIP3    H256178   2.285   1.465   2.166 -0.8316 -0.6984  1.6826
11563TIP3   OH256179   1.112   2.819  11.207 -0.2748  0.2604  0.9108
11563TIP3    H156180   1.094   2.801  11.115 -0.6870 -0.5894  1.1458
11563TIP3    H256181   1.207   2.805  11.216  0.1317  2.1949  0.2319
11564TIP3   OH256182   0.679   1.783  11.493 -0.8196 -0.0377 -0.0405
11564TIP3    H156183   0.642   1.843  11.558  1.2735  0.7599  0.5103
11564TIP3    H256184   0.682   1.834  11.413  1.0430  0.6930  0.4493
11565TIP3   OH256185   6.681   1.300  12.608 -0.0856  0.1184 -0.4445
11565TIP3    H156186   6.711   1.213  12.635  0.7393  0.8712  1.1688
11565TIP3    H256187   6.718   1.312  12.521  0.3744 -0.8748 -0.3966
11566TIP3   OH256188   2.638   4.438   5.141 -0.5416 -0.6053 -0.6640
11566TIP3    H156189   2.640   4.345   5.119 -0.0100 -0.8022  0.1829
11566TIP3    H256190   2.649   4.441   5.236  0.2026  0.3532 -0.7639
11567TIP3   OH256191   2.369   1.156  11.470 -0.2697  1.0405  0.2309
11567TIP3    H156192   2.415   1.119  11.395 -3.4518  0.1538 -1.4690
11567TIP3    H256193   2.383   1.093  11.540 -0.7124 -0.3523 -0.8901
11568TIP3   OH256194   4.348   3.714  16.721 -0.0255  0.3239  0.4027
11568TIP3    H156195   4.397   3.794  16.741 -0.6647  1.2320 -1.4400
11568TIP3    H256196   4.266   3.745  16.683 -0.3290 -1.2154 -0.2783
11569TIP3   OH256197   4.011   6.191  15.912  0.0272  0.2322 -0.2022
11569TIP3    H156198   4.065   6.133  15.966 -0.1709  2.6500  2.8722
11569TIP3    H256199   4.056   6.275  15.914 -0.4127  0.6451 -3.3266
11570TIP3   OH256200   3.157   2.330  11.526  0.0310 -0.4471 -0.1951
11570TIP3    H156201   3.068   2.318  11.495  0.1228 -0.8970 -0.2875
11570TIP3    H256202   3.210   2.273  11.470  0.1301 -1.7211  1.1404
11571TIP3   OH256203   4.061   4.238   0.212  0.1383  0.0977 -0.1031
11571TIP3    H156204   4.145   4.196   0.234  0.3882 -0.0044 -1.1936
11571TIP3    H256205   4.007   4.225   0.290  0.3355 -1.9236 -0.2415
11572TIP3   OH256206   5.657   4.109   5.476  0.0193 -0.5037 -0.6696
11572TIP3    H156207   5.660   4.045   5.548  3.0642  0.2511 -0.0110
11572TIP3    H256208   5.647   4.194   5.520  0.0854 -0.1751 -1.2868
11573TIP3   OH256209   3.418   1.442   6.663 -0.1121  0.3212 -0.2120
11573TIP3    H156210   3.441   1.517   6.718 -0.1983 -0.3319  0.7355
11573TIP3    H256211   3.323   1.450   6.650  0.0509  1.0170 -1.1134
11574TIP3   OH256212   0.267   6.322  13.948  0.3734  0.4927 -0.0131
11574TIP3    H156213   0.321   6.400  13.932  3.6784 -1.3520  1.2367
11574TIP3    H256214   0.253   6.285  13.861 -2.0775  2.8066 -0.7600
11575TIP3   OH256215   2.381   1.467   1.801 -0.6058 -0.2509 -0.2538
11575TIP3    H156216   2.464   1.509   1.823 -0.7264 -0.2195  0.1661
11575TIP3    H256217   2.404   1.394   1.744 -0.4411  0.7191 -1.4748
11576TIP3   OH256218   1.417   0.592  12.414 -0.4736 -0.7928  0.1149
11576TIP3    H156219   1.407   0.662  12.478  0.5849  0.0091 -0.5713
11576TIP3    H256220   1.492   0.618  12.361 -1.7007 -1.1080 -1.8705
11577TIP3   OH256221   4.005   2.540  10.793  0.7919  0.3664 -0.7804
11577TIP3    H156222   4.062   2.591  10.736  2.0329  0.0676  0.1650
11577TIP3    H256223   4.064   2.483  10.842 -0.2189  0.7076  0.9055
11578TIP3   OH256224   1.737   5.406  12.170  0.1534  0.2852  0.0099
11578TIP3    H156225   1.652   5.440  12.200  0.4273  2.6921 -1.6136
11578TIP3    H256226   1.801   5.471  12.200  1.0752 -0.1171 -1.0282
11579TIP3   OH256227   4.070   3.757  15.232  0.0208  0.9954  0.1736
11579TIP3    H156228   4.157   3.788  15.258  0.6174 -0.3734 -0.0750
11579TIP3    H256229   4.035   3.715  15.310 -0.4901  1.6714  0.3144
11580TIP3   OH256230   4.893   4.838   5.725 -0.0054  0.3534  0.2656
11580TIP3    H156231   4.864   4.836   5.816  1.1480 -2.4611  0.6797
11580TIP3    H256232   4.978   4.881   5.728 -0.2506  0.8447  0.3823
11581TIP3   OH256233   2.893   4.288   2.166 -0.4704 -0.3094  0.3112
11581TIP3    H156234   2.822   4.348   2.145 -0.6539 -0.5854  0.1346
11581TIP3    H256235   2.853   4.223   2.224 -0.2467 -0.2035  0.5898
11582TIP3   OH256236   4.202   0.542   3.297 -0.3343  0.5853  0.1532
11582TIP3    H156237   4.126   0.506   3.251  0.0874 -0.1956  0.0539
11582TIP3    H256238   4.212   0.487   3.374  1.3201 -0.5909 -0.8546
11583TIP3   OH256239   5.893   1.048   4.954 -0.1715 -0.0471 -0.2794
11583TIP3    H156240   5.958   0.993   4.911  0.6178  1.1921 -0.7490
11583TIP3    H256241   5.910   1.036   5.048  1.0216  0.5415 -0.3917
11584TIP3   OH256242   6.635   0.189   2.485 -0.7872 -0.1005  0.1745
11584TIP3    H156243   6.714   0.243   2.490 -1.9393  1.6050  1.1602
11584TIP3    H256244   6.665   0.107   2.447  1.1828  0.9847 -0.7989
11585TIP3   OH256245   6.527   0.148   2.145 -0.1011 -0.1140  0.2079
11585TIP3    H156246   6.494   0.069   2.187 -1.9097 -0.2663 -1.3238
11585TIP3    H256247   6.524   0.215   2.213 -0.4672 -0.9253  1.0057
11586TIP3   OH256248   5.633   1.586  12.133 -0.3379  0.7340  0.4344
11586TIP3    H156249   5.667   1.650  12.072 -0.4378  0.6598  0.2988
11586TIP3    H256250   5.607   1.637  12.210  1.1669  0.6515  1.0193
11587TIP3   OH256251   4.452   3.368  11.926  0.5855 -0.2213  0.7302
11587TIP3    H156252   4.429   3.283  11.887  1.8609  0.2400 -1.1401
11587TIP3    H256253   4.500   3.345  12.006  0.1657 -1.2483  0.7057
11588TIP3   OH256254   5.513   3.981  15.970 -0.0781  0.2554 -0.4121
11588TIP3    H156255   5.528   3.929  15.891  1.8564 -0.8164  0.5641
11588TIP3    H256256   5.430   3.949  16.004  0.9939 -2.2519  0.0873
11589TIP3   OH256257   3.173   3.204  14.264  0.2178  0.4779 -0.0346
11589TIP3    H156258   3.098   3.260  14.283  0.0735 -0.1629  1.4525
11589TIP3    H256259   3.144   3.148  14.192  0.1666  1.8748 -1.1447
11590TIP3   OH256260   0.997   2.140   0.768 -0.0621 -0.0526  0.0192
11590TIP3    H156261   0.995   2.228   0.805  0.1150  0.0856 -0.2935
11590TIP3    H256262   0.911   2.104   0.788 -0.2301  0.2879 -0.0788
11591TIP3   OH256263   1.492   5.692   3.853  0.3358  0.6641  0.4472
11591TIP3    H156264   1.472   5.654   3.939  2.0849  0.8491  0.9782
11591TIP3    H256265   1.527   5.779   3.874  0.7816  0.7072 -0.4392
11592TIP3   OH256266   2.617   1.685   3.846 -0.1840  0.6119 -0.3689
11592TIP3    H156267   2.597   1.602   3.888  0.5011 -0.1625 -1.5290
11592TIP3    H256268   2.546   1.699   3.784  0.4738  0.1254 -1.2492
11593TIP3   OH256269   5.691   3.146   2.926 -0.2088  0.2359 -0.0741
11593TIP3    H156270   5.751   3.155   2.852 -0.6467  0.5091 -0.3925
11593TIP3    H256271   5.692   3.052   2.945  1.2940  0.3708  0.7387
11594TIP3   OH256272   3.561   4.762   5.979 -0.2506  0.2001 -0.9756
11594TIP3    H156273   3.620   4.756   6.054 -0.3875  1.1354 -0.7797
11594TIP3    H256274   3.558   4.673   5.943 -1.4454 -0.6801  1.0892
11595TIP3   OH256275   2.854   2.111  14.323 -0.3513 -0.0147  0.4651
11595TIP3    H156276   2.846   2.035  14.264  1.1301 -0.2888  0.5817
11595TIP3    H256277   2.907   2.174  14.274  0.4796 -0.0474  1.3125
11596TIP3   OH256278   5.279   4.297   2.821  0.1821 -0.4396 -0.8650
11596TIP3    H156279   5.361   4.248   2.829  1.3726  1.5748 -0.1044
11596TIP3    H256280   5.248   4.276   2.732  0.4458 -2.7496 -0.4887
11597TIP3   OH256281   4.041   3.590  13.962 -0.1500 -0.1967  0.3964
11597TIP3    H156282   4.018   3.523  14.027  0.6210  0.9413  1.9026
11597TIP3    H256283   3.958   3.617  13.924 -0.5246 -1.6066  0.1457
11598TIP3   OH256284   2.038   5.389   3.150  0.2240 -0.7069  0.1894
11598TIP3    H156285   2.104   5.458   3.145  0.5320 -1.0560 -0.8661
11598TIP3    H256286   2.029   5.358   3.060 -3.5545  1.3327 -0.3528
11599TIP3   OH256287   6.217   2.703   1.626  0.0510 -0.4681 -0.3763
11599TIP3    H156288   6.250   2.685   1.714 -0.3914  1.1770  0.1627
11599TIP3    H256289   6.286   2.755   1.584  0.6198 -1.9209 -1.3298
11600TIP3   OH256290   5.269   4.249  14.625 -0.1100  0.0609 -0.2139
11600TIP3    H156291   5.220   4.254  14.543  1.4945  2.9007 -1.1596
11600TIP3    H256292   5.354   4.213  14.599  0.6761  1.6834 -0.0375
11601TIP3   OH256293   4.777   2.476   5.608 -0.1339  0.2974  0.1614
11601TIP3    H156294   4.741   2.525   5.534 -0.2248  1.4502  0.9502
11601TIP3    H256295   4.700   2.436   5.649 -0.1384  0.0803 -0.0529
11602TIP3   OH256296   1.272   5.366   3.486 -0.4125 -0.2698  0.3314
11602TIP3    H156297   1.320   5.305   3.431 -1.0747  0.2305 -0.8428
11602TIP3    H256298   1.222   5.311   3.546  0.6833 -0.8144  0.7492
11603TIP3   OH256299   0.916   1.199  15.431  0.6755 -0.3666  0.3164
11603TIP3    H156300   0.912   1.228  15.522 -1.5212 -1.0484  0.4918
11603TIP3    H256301   0.971   1.265  15.388  0.5824  0.7713  1.8366
11604TIP3   OH256302   1.792   4.375  10.858  0.4769 -0.5352  0.7205
11604TIP3    H156303   1.748   4.460  10.851 -1.6556 -1.6511 -0.7044
11604TIP3    H256304   1.883   4.396  10.879 -0.1301  2.0420  1.0898
11605TIP3   OH256305   0.503   2.160  12.775  0.2480  0.4684 -0.4115
11605TIP3    H156306   0.425   2.193  12.819  0.0649  1.1424 -1.2119
11605TIP3    H256307   0.572   2.222  12.799  0.9571 -0.9968  1.5898
11606TIP3   OH256308   1.765   5.057  13.277  0.1141  0.0543  1.0752
11606TIP3    H156309   1.803   5.144  13.291 -0.1833  0.2010  0.9796
11606TIP3    H256310   1.726   5.034  13.361 -1.9716  1.0812  0.4508
11607TIP3   OH256311   5.825   1.776  16.769  0.8929  0.2572 -0.5670
11607TIP3    H156312   5.899   1.718  16.788  1.0857  1.0565  1.2798
11607TIP3    H256313   5.864   1.862  16.754  0.3199  1.0267  1.9082
11608TIP3   OH256314   5.931   2.834  11.836 -0.1838  0.4438  0.0923
11608TIP3    H156315   6.005   2.793  11.793 -0.1160  0.2961  0.3430
11608TIP3    H256316   5.860   2.831  11.772  0.9279  3.6853 -1.4798
11609TIP3   OH256317   6.496   1.929   2.792  0.9007  0.2227  0.7360
11609TIP3    H156318   6.400   1.922   2.792  0.9083  0.1159  0.6964
11609TIP3    H256319   6.526   1.841   2.815  0.9928  0.1854  0.4776
11610TIP3   OH256320   4.463   0.423   2.388  0.1138  0.0942  0.0869
11610TIP3    H156321   4.447   0.343   2.338 -0.5643  0.4496 -0.2851
11610TIP3    H256322   4.466   0.492   2.322  0.6597  0.3842  0.4088
11611TIP3   OH256323   2.167   1.386  14.891 -0.3270  0.1642  0.3920
11611TIP3    H156324   2.167   1.302  14.845 -0.2730  0.4723 -0.1754
11611TIP3    H256325   2.260   1.407  14.902 -0.2836  1.3525 -1.7131
11612TIP3   OH256326   2.613   6.090  15.110  0.2681  0.2292 -0.4713
11612TIP3    H156327   2.628   6.145  15.188  1.4241  0.0770 -0.5707
11612TIP3    H256328   2.622   6.150  15.036 -2.2923  0.7050 -0.5086
11613TIP3   OH256329   4.851   3.479   4.512 -0.6347  0.3052  0.0614
11613TIP3    H156330   4.903   3.559   4.504  1.6084 -1.2007 -1.6024
11613TIP3    H256331   4.819   3.461   4.423  0.7168 -1.7196 -0.0848
11614TIP3   OH256332   3.531   6.640  10.794 -0.3030  0.2835 -0.0233
11614TIP3    H156333   3.598   6.576  10.817  0.6268  1.0830 -0.4179
11614TIP3    H256334   3.501   6.614  10.707  1.9151  1.7564 -1.3572
11615TIP3   OH256335   6.323   4.562  16.320 -0.1520 -0.6541 -0.2940
11615TIP3    H156336   6.271   4.638  16.295  1.5920  0.5926 -0.3613
11615TIP3    H256337   6.347   4.577  16.411  0.2658 -1.0859 -0.3244
11616TIP3   OH256338   4.741   6.315   3.603 -0.0466  0.1790 -0.4584
11616TIP3    H156339   4.831   6.317   3.572  0.0947  0.9035 -0.0313
11616TIP3    H256340   4.701   6.393   3.567 -0.7766 -0.6038 -1.3994
11617TIP3   OH256341   4.433   5.632  15.496  0.1118  0.6372 -0.1611
11617TIP3    H156342   4.498   5.578  15.540 -0.3283 -0.2443 -0.5839
11617TIP3    H256343   4.431   5.600  15.406 -1.3999  0.1845  0.0202
11618TIP3   OH256344   4.532   6.058   1.256  0.0246  0.0952 -0.3681
11618TIP3    H156345   4.514   6.101   1.340  0.4018  0.3705 -0.4283
11618TIP3    H256346   4.549   6.129   1.195 -1.4643 -0.0325 -0.9959
11619TIP3   OH256347   5.267   2.298   2.624  0.4758 -0.1120  1.0865
11619TIP3    H156348   5.189   2.339   2.662  1.4973  1.9195  1.1206
11619TIP3    H256349   5.269   2.210   2.662 -1.8219 -0.2478  1.0197
11620TIP3   OH256350   5.868   2.195   4.276  0.0183 -0.0151 -0.1482
11620TIP3    H156351   5.791   2.236   4.238 -0.3029 -0.5027 -0.0376
11620TIP3    H256352   5.940   2.219   4.218  0.0932  1.8096  0.6254
11621TIP3   OH256353   3.132   2.197   5.617 -0.3017  0.0952 -0.8894
11621TIP3    H156354   3.038   2.214   5.626 -0.2587 -0.1588  0.1892
11621TIP3    H256355   3.147   2.195   5.523 -0.9050  2.7306 -1.1211
11622TIP3   OH256356   1.784   3.306  16.857  0.4724 -0.7888 -0.3424
11622TIP3    H156357   1.752   3.389  16.821 -0.4649 -0.1587  1.7815
11622TIP3    H256358   1.860   3.285  16.803 -0.1197  0.6807 -1.8722
11623TIP3   OH256359   4.241   4.106  13.459  0.2699 -0.2927  0.1524
11623TIP3    H156360   4.278   4.019  13.477  0.1348 -0.2638  0.5711
11623TIP3    H256361   4.301   4.167  13.501 -1.0642 -0.3112  2.2589
11624TIP3   OH256362   0.105   3.868   1.915  0.7085 -0.1702  0.4686
11624TIP3    H156363   0.158   3.945   1.938  0.6839  0.4511 -1.3335
11624TIP3    H256364   0.016   3.902   1.909  0.6243 -0.4440  0.1446
11625TIP3   OH256365   4.359   0.666   1.145 -0.1462  0.4846 -0.1903
11625TIP3    H156366   4.300   0.596   1.120 -0.3688  0.7435 -0.4014
11625TIP3    H256367   4.420   0.675   1.072  0.6110 -0.2675  0.3403
11626TIP3   OH256368   4.055   5.270  17.205 -0.2285 -0.5943  0.4536
11626TIP3    H156369   3.971   5.232  17.229 -0.3433 -0.4083  0.3506
11626TIP3    H256370   4.065   5.248  17.112 -0.2298 -0.4871  0.4298
11627TIP3   OH256371   1.099   6.754  11.158 -0.2742 -0.7746  0.1693
11627TIP3    H156372   1.072   6.778  11.247  2.0465 -0.8828  0.9504
11627TIP3    H256373   1.097   6.837  11.110 -3.6389 -1.0105 -0.3906
11628TIP3   OH256374   3.639   6.052  16.937  0.1528  0.0788  0.3327
11628TIP3    H156375   3.662   5.959  16.942 -2.5895 -0.6021  1.8010
11628TIP3    H256376   3.657   6.075  16.846  0.1104 -2.1300 -0.3049
11629TIP3   OH256377   4.804   0.729  16.713 -0.2433 -0.2245 -0.4115
11629TIP3    H156378   4.764   0.751  16.797  0.3920  1.9023 -0.6049
11629TIP3    H256379   4.887   0.688  16.735 -0.6100 -0.7655 -0.0191
11630TIP3   OH256380   5.415   4.474   0.248  0.0145  0.5946  0.4883
11630TIP3    H156381   5.463   4.455   0.168  0.8793 -0.9591  1.3299
11630TIP3    H256382   5.325   4.445   0.230  0.3875 -0.5238  0.3246
11631TIP3   OH256383   1.642   0.482  14.424  0.0294 -0.2359 -0.3416
11631TIP3    H156384   1.655   0.535  14.345  0.0334 -1.3972 -1.1520
11631TIP3    H256385   1.548   0.468  14.428 -0.5944  3.3139  2.2766
11632TIP3   OH256386   2.094   6.749   4.837 -0.1328 -0.2748  0.9301
11632TIP3    H156387   2.090   6.840   4.809  0.8053 -1.0514 -2.0222
11632TIP3    H256388   2.008   6.712   4.815 -0.2488 -0.3034  1.4154
11633TIP3   OH256389   1.166   3.072  14.506 -0.0703  0.2047 -0.3320
11633TIP3    H156390   1.231   3.008  14.477 -0.5270 -0.7245  0.6381
11633TIP3    H256391   1.210   3.123  14.574  0.5988  1.5817 -1.7273
11634TIP3   OH256392   6.427   1.564   6.054  0.6815  0.1941  1.0971
11634TIP3    H156393   6.522   1.557   6.043  1.1032  0.9110  3.6401
11634TIP3    H256394   6.406   1.504   6.126 -0.8662 -0.1426  0.4163
11635TIP3   OH256395   4.023   3.549   0.940  0.4328  0.6841 -0.2434
11635TIP3    H156396   4.107   3.595   0.953  0.6233 -0.0113  1.1389
11635TIP3    H256397   4.027   3.475   1.000 -0.7286  0.0021 -0.9742
11636TIP3   OH256398   6.234   2.245  16.258  0.1187  0.0370 -0.1088
11636TIP3    H156399   6.200   2.262  16.346 -0.0102 -0.3095 -0.0870
11636TIP3    H256400   6.156   2.243  16.202  0.3775  3.0788 -0.7507
11637TIP3   OH256401   4.800   1.672  16.091 -0.3004 -0.0961  0.2771
11637TIP3    H156402   4.838   1.662  16.178 -1.6935  0.6581  0.9992
11637TIP3    H256403   4.722   1.617  16.092 -0.4419  0.0778 -0.4219
11638TIP3   OH256404   1.071   0.205  16.965 -0.2618  0.3308  0.4811
11638TIP3    H156405   1.059   0.111  16.951 -1.4503  0.5681 -0.2457
11638TIP3    H256406   1.000   0.245  16.915  0.4227  1.6313  0.5290
11639TIP3   OH256407   1.322   0.709  14.019 -0.0069 -0.0310  0.0692
11639TIP3    H156408   1.249   0.760  13.985 -1.5524 -0.9936  1.7769
11639TIP3    H256409   1.386   0.708  13.948 -1.1797  1.7289 -1.0868
11640TIP3   OH256410   4.575   1.011   2.372  0.1309  0.3391  0.1726
11640TIP3    H156411   4.625   1.052   2.443 -1.8051 -2.0844  3.2385
11640TIP3    H256412   4.484   1.033   2.391 -0.4349  0.1168 -2.0184
11641TIP3   OH256413   6.077   2.629   2.442 -0.0890  0.2088 -0.6591
11641TIP3    H156414   6.009   2.583   2.489 -1.8277  1.2962 -1.9675
11641TIP3    H256415   6.086   2.581   2.359  2.4239 -1.2681  0.3543
11642TIP3   OH256416   0.799   0.099  13.462 -0.1981  0.3872 -0.1380
11642TIP3    H156417   0.843   0.050  13.392 -0.9280 -0.6136  0.0870
11642TIP3    H256418   0.806   0.043  13.539  0.3674  1.3674  0.5417
11643TIP3   OH256419   2.828   1.133   4.967 -0.5069  0.1453 -0.3732
11643TIP3    H156420   2.773   1.055   4.974 -1.6139  0.8244 -1.2052
11643TIP3    H256421   2.908   1.102   4.924 -0.7764 -0.5894 -0.3659
11644TIP3   OH256422   1.898   4.934   6.578 -0.5140  0.1103  0.2087
11644TIP3    H156423   1.851   5.001   6.629  0.4984  1.0038  0.0103
11644TIP3    H256424   1.879   4.955   6.487 -1.2333 -0.6732  0.1656
11645TIP3   OH256425   5.668   4.722  11.803  0.1087  0.1373 -0.0116
11645TIP3    H156426   5.664   4.738  11.897 -2.0534  0.2151 -0.0798
11645TIP3    H256427   5.698   4.631  11.796 -0.8737 -0.2720  0.8140
11646TIP3   OH256428   0.840   1.885  15.622  0.3005  0.2567  0.5254
11646TIP3    H156429   0.754   1.859  15.589  0.6587 -1.7792  1.0768
11646TIP3    H256430   0.832   1.979  15.636 -3.2018 -0.3216  4.3368
11647TIP3   OH256431   2.619   4.023   4.526 -0.9383  0.2434 -0.0724
11647TIP3    H156432   2.646   4.115   4.517 -0.6912  0.1453 -0.3524
11647TIP3    H256433   2.546   4.013   4.466 -0.5026  0.0734 -0.5781
11648TIP3   OH256434   2.253   1.493  17.153 -0.7545 -0.1297  0.0729
11648TIP3    H156435   2.338   1.494  17.197  0.5161  1.2777 -2.2274
11648TIP3    H256436   2.231   1.400  17.145  0.2983 -0.5011  1.1588
11649TIP3   OH256437   5.491   4.501   2.988 -0.4273  0.8014  0.0330
11649TIP3    H156438   5.406   4.464   2.966 -0.9451  0.8817  1.7463
11649TIP3    H256439   5.546   4.425   3.009 -0.8299  0.8376  1.3324
11650TIP3   OH256440   1.819   6.765  14.201  0.2211  0.2949  0.0269
11650TIP3    H156441   1.783   6.693  14.254  1.2899 -0.3833 -0.1404
11650TIP3    H256442   1.745   6.794  14.147 -0.2666 -0.5997  0.1858
11651TIP3   OH256443   2.571   1.796  14.615 -0.5991 -0.0023 -0.2806
11651TIP3    H156444   2.506   1.750  14.668 -0.5446 -0.0730 -0.2764
11651TIP3    H256445   2.534   1.794  14.526  0.0546 -1.2516 -0.5381
11652TIP3   OH256446   0.482   3.750  16.199 -0.1825 -0.4246 -0.2330
11652TIP3    H156447   0.406   3.798  16.233  0.8381 -0.1433  1.7617
11652TIP3    H256448   0.558   3.796  16.234  0.8776 -2.0383 -0.3031
11653TIP3   OH256449   0.584   2.362   5.896  0.4523 -0.3665 -0.3980
11653TIP3    H156450   0.527   2.436   5.879  0.6644 -0.5200 -1.9481
11653TIP3    H256451   0.532   2.302   5.950 -0.9700 -0.6078 -1.9549
11654TIP3   OH256452   3.569   0.026   1.116  0.2823 -0.3015  0.2851
11654TIP3    H156453   3.629   0.012   1.189  0.3536 -1.5979  0.0016
11654TIP3    H256454   3.553   0.121   1.115  0.5338 -0.2250  1.7697
11655TIP3   OH256455   4.974   5.196   5.325 -0.0868 -0.0621 -0.3593
11655TIP3    H156456   4.937   5.116   5.287 -1.3556 -0.0828  0.8766
11655TIP3    H256457   4.907   5.228   5.384  1.2888  0.7367  0.8234
11656TIP3   OH256458   6.426   4.599  15.928  0.2462  0.1805  0.3428
11656TIP3    H156459   6.494   4.656  15.964 -0.4030  1.1933  0.0291
11656TIP3    H256460   6.427   4.521  15.984 -0.6071  1.6114  2.4943
11657TIP3   OH256461   4.000   5.073  13.185  0.1441 -0.7064 -0.3476
11657TIP3    H156462   3.952   5.062  13.103  1.3089  2.0580 -1.5127
11657TIP3    H256463   3.934   5.101  13.248 -0.0684  2.1792 -1.6999
11658TIP3   OH256464   0.567   0.096   1.098 -0.1454 -0.4625 -0.3978
11658TIP3    H156465   0.516   0.174   1.076 -0.7513 -1.0207 -1.0338
11658TIP3    H256466   0.528   0.063   1.179  1.2220  0.8415  0.8413
11659TIP3   OH256467   3.241   4.869   3.615  0.3178  0.7801 -0.0259
11659TIP3    H156468   3.176   4.936   3.637 -0.1207 -0.0469  1.3513
11659TIP3    H256469   3.191   4.787   3.615  1.0813  0.3049 -0.4765
11660TIP3   OH256470   4.123   0.630   2.200  0.5239  0.6967 -0.2826
11660TIP3    H156471   4.160   0.616   2.287  2.0593  0.4942 -0.9304
11660TIP3    H256472   4.066   0.706   2.209 -0.3565 -0.0759  1.1580
11661TIP3   OH256473   5.630   4.861  12.458 -0.2427  0.7101 -0.2531
11661TIP3    H156474   5.558   4.807  12.425 -0.0276  0.7902 -0.8702
11661TIP3    H256475   5.597   4.951  12.454 -0.1822  0.7285 -0.3469
11662TIP3   OH256476   1.644   0.680  12.282  0.3306  0.8182 -0.0496
11662TIP3    H156477   1.677   0.767  12.304 -0.1747  1.0367 -0.1430
11662TIP3    H256478   1.681   0.662  12.196  0.0029  1.1742 -0.2712
11663TIP3   OH256479   2.947   3.407  17.153 -0.0898 -0.1859 -0.0943
11663TIP3    H156480   2.943   3.434  17.061  1.4702 -0.3773 -0.2510
11663TIP3    H256481   3.036   3.430  17.181  0.0292 -1.6778  0.8800
11664TIP3   OH256482   6.828   4.512  14.349  0.1740  0.1361 -0.1298
11664TIP3    H156483   6.857   4.468  14.269 -0.5721 -0.6162  0.0018
11664TIP3    H256484   6.910   4.535  14.394  0.5890 -0.2732 -0.6551
11665TIP3   OH256485   4.589   6.568  14.252 -0.0675  0.1373  0.1801
11665TIP3    H156486   4.508   6.557  14.204 -0.8930  1.2314  1.2579
11665TIP3    H256487   4.565   6.622  14.328  1.0133 -2.0423  2.2212
11666TIP3   OH256488   3.151   0.896   2.694 -0.1193 -0.0928  0.3563
11666TIP3    H156489   3.117   0.875   2.606 -2.4648  3.5497  0.2051
11666TIP3    H256490   3.240   0.927   2.678 -0.5071  0.5042 -0.7606
11667TIP3   OH256491   2.993   4.607   3.942 -0.0964  0.4563 -0.3259
11667TIP3    H156492   3.056   4.543   3.973 -1.6393 -0.7495  0.4777
11667TIP3    H256493   2.944   4.633   4.020 -0.4993  1.4692 -0.8976
11668TIP3   OH256494   3.973   6.763  14.183 -0.2585  0.1140  0.4925
11668TIP3    H156495   3.923   6.819  14.124 -0.8549 -0.0775  0.8088
11668TIP3    H256496   3.915   6.690  14.202  0.6302 -0.8090 -0.1812
11669TIP3   OH256497   1.400   3.785   4.297 -0.4515  0.6630  0.1542
11669TIP3    H156498   1.420   3.810   4.207 -1.7678 -1.2154 -0.7055
11669TIP3    H256499   1.463   3.835   4.350  0.3297  1.8262 -1.7674
11670TIP3   OH256500   6.164   5.288   0.781  0.2566  0.3376  0.3752
11670TIP3    H156501   6.249   5.279   0.737  0.0405  0.1028  0.0042
11670TIP3    H256502   6.103   5.237   0.728  0.3166 -1.4594  1.9199
11671TIP3   OH256503   2.259   1.399   2.544  0.2950 -0.2236  0.3439
11671TIP3    H156504   2.353   1.414   2.548  0.1946  0.6034 -0.0587
11671TIP3    H256505   2.229   1.409   2.634  0.5376 -0.0324  0.4048
11672TIP3   OH256506   4.776   5.287  15.071  0.6253  0.2549 -0.3605
11672TIP3    H156507   4.729   5.204  15.060 -0.4914  0.9850 -1.3285
11672TIP3    H256508   4.808   5.285  15.161 -0.7469 -0.5430  0.1283
11673TIP3   OH256509   3.719   5.739   3.566  0.5039  0.4610  0.2027
11673TIP3    H156510   3.758   5.766   3.649  1.5730  1.4753 -0.6088
11673TIP3    H256511   3.681   5.820   3.531  1.4804  0.3926 -1.0443
11674TIP3   OH256512   1.575   0.236   3.257  0.3842  0.1116  0.5996
11674TIP3    H156513   1.537   0.193   3.334 -0.5841  0.2441  0.2021
11674TIP3    H256514   1.607   0.320   3.291 -1.7421  1.0067  0.5267
11675TIP3   OH256515   2.070   4.387  15.313  0.2954  0.0145  0.1173
11675TIP3    H156516   2.044   4.463  15.366 -2.2000  0.3408 -1.4180
11675TIP3    H256517   2.096   4.425  15.229 -2.7102 -0.7828 -1.3129
11676TIP3   OH256518   3.222   0.957   1.884 -0.3866  0.2508 -0.0310
11676TIP3    H156519   3.262   0.989   1.964  1.5089 -1.8231 -0.0523
11676TIP3    H256520   3.220   0.862   1.895 -0.6996 -0.0310 -2.1627
11677TIP3   OH256521   4.749   3.838  13.956  0.9631 -0.0434 -0.5979
11677TIP3    H156522   4.710   3.782  13.889 -0.2140  0.9132 -0.7506
11677TIP3    H256523   4.766   3.780  14.030  1.4335 -0.9348 -1.3788
11678TIP3   OH256524   0.910   1.660  16.068  0.6107  0.1757 -0.7762
11678TIP3    H156525   0.915   1.566  16.082  1.7167  0.2458 -0.6013
11678TIP3    H256526   0.952   1.698  16.145 -1.0658  0.8710 -0.1694
11679TIP3   OH256527   6.359   5.168  13.045  0.0429  0.0356 -0.2026
11679TIP3    H156528   6.281   5.124  13.078  0.4182 -0.3665  0.1737
11679TIP3    H256529   6.428   5.102  13.053  0.7521  0.8646  0.9420
11680TIP3   OH256530   5.483   0.168  12.439  0.3163 -0.1310  0.1195
11680TIP3    H156531   5.503   0.099  12.503  1.5737 -0.7883 -0.9469
11680TIP3    H256532   5.502   0.129  12.354  0.7781  1.4426 -0.5396
11681TIP3   OH256533   4.114   6.099   0.438 -0.3872  0.5304 -0.1679
11681TIP3    H156534   4.195   6.147   0.422 -0.1367  0.0961 -0.2004
11681TIP3    H256535   4.091   6.060   0.354 -0.3569  0.2356 -0.0412
11682TIP3   OH256536   5.226   1.867   4.095  0.2841  0.5053 -0.3685
11682TIP3    H156537   5.225   1.771   4.103  0.2618  0.5863  0.6744
11682TIP3    H256538   5.315   1.892   4.120  0.3021  0.7596 -0.6768
11683TIP3   OH256539   6.584   1.122  14.890 -0.1288 -0.4078 -0.3038
11683TIP3    H156540   6.591   1.129  14.985 -0.2877 -1.0990 -0.2337
11683TIP3    H256541   6.584   1.028  14.873 -2.4702 -0.3727 -0.7909
11684TIP3   OH256542   2.983   3.983   0.466  0.1520  0.3985 -0.0483
11684TIP3    H156543   3.043   3.913   0.490 -0.2848 -1.1312 -2.9625
11684TIP3    H256544   2.897   3.952   0.495 -0.0387 -0.3194 -1.3216
11685TIP3   OH256545   3.822   6.599  15.778 -0.4558 -0.2403  0.2222
11685TIP3    H156546   3.745   6.637  15.821 -0.1651 -0.1996  0.7124
11685TIP3    H256547   3.785   6.543  15.709 -0.9111  0.1182  0.1655
11686TIP3   OH256548   3.725   4.661  12.517 -0.4582 -0.4895  0.1562
11686TIP3    H156549   3.669   4.673  12.594  0.8279  1.0030  0.9300
11686TIP3    H256550   3.676   4.702  12.445 -0.7782 -0.0441  0.6212
11687TIP3   OH256551   5.307   2.200  13.205 -0.2880 -0.4881  0.3296
11687TIP3    H156552   5.287   2.110  13.180  0.5619 -0.2688 -1.2627
11687TIP3    H256553   5.231   2.228  13.257 -1.8448 -1.2423 -1.4096
11688TIP3   OH256554   2.143   1.054  13.890  0.3533  0.2200 -0.2134
11688TIP3    H156555   2.187   1.138  13.874  1.0536 -0.0370  0.3223
11688TIP3    H256556   2.195   1.013  13.959  0.5805 -1.0687 -1.1192
11689TIP3   OH256557   3.990   3.401  14.158  0.1713  0.0955 -0.2235
11689TIP3    H156558   3.961   3.330  14.216 -0.2135 -0.4531 -1.0545
11689TIP3    H256559   3.995   3.478  14.214  2.5244 -0.9571  1.1641
11690TIP3   OH256560   1.151   3.214   0.881  0.6953 -0.4760 -0.1395
11690TIP3    H156561   1.095   3.182   0.810  0.3634 -0.3207  0.0532
11690TIP3    H256562   1.093   3.262   0.938  0.6725 -1.8068  1.0086
11691TIP3   OH256563   5.871   3.125   1.037 -0.1949 -0.5071  0.3964
11691TIP3    H156564   5.791   3.072   1.041 -0.7742  0.3620  0.4647
11691TIP3    H256565   5.840   3.215   1.034  0.7909 -0.1583  0.4597
11692TIP3   OH256566   1.037   6.687   5.558 -0.7124  0.8239  0.5806
11692TIP3    H156567   0.943   6.698   5.573 -0.5832  1.2820  1.0942
11692TIP3    H256568   1.078   6.742   5.625 -0.0820  1.8505 -0.6245
11693TIP3   OH256569   6.194   6.384   0.101 -0.1051 -0.0145 -0.7571
11693TIP3    H156570   6.118   6.439   0.119 -0.0969 -0.1485 -0.2993
11693TIP3    H256571   6.209   6.393   0.007 -0.7281 -0.0458 -0.8584
11694TIP3   OH256572   0.124   4.306   3.488  0.1258  0.3367  0.0229
11694TIP3    H156573   0.046   4.347   3.450  0.0428  0.2678  0.1190
11694TIP3    H256574   0.166   4.376   3.538  0.2179  0.4193 -0.1719
11695TIP3   OH256575   5.406   3.908   5.639 -0.5624  0.2735 -0.1034
11695TIP3    H156576   5.374   3.878   5.724 -0.8962  1.2812  0.1446
11695TIP3    H256577   5.328   3.936   5.592 -0.1845  1.7492  0.0962
11696TIP3   OH256578   6.624   6.811   3.627  0.0630  0.3694  0.2816
11696TIP3    H156579   6.617   6.879   3.694 -0.1696  1.3649 -0.7214
11696TIP3    H256580   6.551   6.752   3.646  0.5951  0.0659  1.4967
11697TIP3   OH256581   4.435   0.850  12.307  0.2732  0.2842  0.7163
11697TIP3    H156582   4.524   0.838  12.273  0.3912  0.3550  1.0019
11697TIP3    H256583   4.392   0.904  12.241  0.5336  0.5115  0.7286
11698TIP3   OH256584   0.388   0.592  11.776  0.0125 -0.1084 -0.3584
11698TIP3    H156585   0.447   0.627  11.709 -2.3456  2.7220 -1.1175
11698TIP3    H256586   0.323   0.542  11.727 -1.1150  1.0840 -0.1057
11699TIP3   OH256587   4.535   0.194   5.460  0.3282  0.0505 -0.2910
11699TIP3    H156588   4.592   0.117   5.466  0.6621  0.3095 -0.0517
11699TIP3    H256589   4.495   0.201   5.547  0.3304  0.1690 -0.2996
11700TIP3   OH256590   3.079   3.720  13.400  0.0396 -0.1057  0.4353
11700TIP3    H156591   3.004   3.670  13.433 -0.6384  1.3026  1.1399
11700TIP3    H256592   3.156   3.673  13.431 -0.5538 -1.1090  0.4273
11701TIP3   OH256593   1.789   2.619  13.433 -0.4389 -0.1887 -0.0604
11701TIP3    H156594   1.877   2.628  13.396 -1.3541 -2.8092 -3.3300
11701TIP3    H256595   1.800   2.559  13.507  0.3240 -2.6164 -2.0108
11702TIP3   OH256596   1.567   1.455   3.835  0.2590 -0.1495  0.4575
11702TIP3    H156597   1.602   1.489   3.917  0.3683  2.2709 -0.5132
11702TIP3    H256598   1.472   1.460   3.845  0.2248 -1.4117  0.9965
11703TIP3   OH256599   6.700   4.293  15.933 -0.0241 -0.1485  0.0957
11703TIP3    H156600   6.729   4.205  15.956  3.7084  1.2483  1.6006
11703TIP3    H256601   6.673   4.332  16.015  0.3203  0.7083 -0.1852
11704TIP3   OH256602   6.302   0.559  16.490 -0.1561  0.1854 -0.4987
11704TIP3    H156603   6.242   0.534  16.419 -0.6602  0.4798 -0.1828
11704TIP3    H256604   6.268   0.643  16.521  1.6807  1.4927 -1.7654
11705TIP3   OH256605   1.610   3.490  12.423 -0.6034  0.2908 -0.2258
11705TIP3    H156606   1.544   3.519  12.486 -1.2885 -0.3101 -0.6479
11705TIP3    H256607   1.578   3.522  12.339  0.4036  1.2568 -0.2594
11706TIP3   OH256608   6.477   0.599  14.350  0.0766  0.1095  0.5697
11706TIP3    H156609   6.446   0.612  14.260  1.0646 -0.3473  0.1553
11706TIP3    H256610   6.399   0.615  14.404 -0.4686  0.6308 -0.3441
11707TIP3   OH256611   3.714   1.015  12.181 -0.1628 -0.2328 -0.1632
11707TIP3    H156612   3.642   1.073  12.157  1.0643  2.0092  1.2062
11707TIP3    H256613   3.792   1.058  12.146  0.9423 -0.2237  2.0917
11708TIP3   OH256614   1.538   4.729   4.400 -0.5522 -0.0352  0.1504
11708TIP3    H156615   1.584   4.773   4.471 -0.5976 -0.3027  0.3474
11708TIP3    H256616   1.532   4.795   4.330 -0.6142  0.2652  0.4394
11709TIP3   OH256617   4.401   6.422  12.487 -0.4674  0.2638 -0.2123
11709TIP3    H156618   4.326   6.412  12.429  0.2609  0.8011 -1.2845
11709TIP3    H256619   4.399   6.514  12.514 -0.5366  0.1296  0.2551
11710TIP3   OH256620   2.782   5.873   1.089 -0.1984 -0.1123 -0.0795
11710TIP3    H156621   2.725   5.876   1.166 -1.0556 -1.0300 -0.6623
11710TIP3    H256622   2.778   5.962   1.054  0.5474  0.4410  1.1580
11711TIP3   OH256623   2.007   3.127  15.379  0.0979  0.2861 -0.0847
11711TIP3    H156624   2.041   3.134  15.469 -0.4055  0.8867  0.0706
11711TIP3    H256625   2.059   3.058  15.339  0.3517  0.0272  0.6668
11712TIP3   OH256626   2.506   0.281   1.977  0.2800  0.0127  0.3567
11712TIP3    H156627   2.553   0.359   1.948  2.0274 -1.4568 -0.9864
11712TIP3    H256628   2.459   0.309   2.056  0.4471  2.5091 -0.3532
11713TIP3   OH256629   5.797   3.993  12.488 -0.0920 -0.2646  0.1365
11713TIP3    H156630   5.845   4.008  12.407 -0.9221 -0.8149 -0.4720
11713TIP3    H256631   5.862   3.954  12.547  0.7450  0.9531  0.0496
11714TIP3   OH256632   6.419   6.552  13.929 -0.0442  0.0582 -0.3976
11714TIP3    H156633   6.474   6.532  13.854 -0.9407  1.8742 -1.5971
11714TIP3    H256634   6.332   6.569  13.892 -0.7237  0.1212  1.1408
11715TIP3   OH256635   2.029   0.484   3.701 -0.7422  0.1866  0.0626
11715TIP3    H156636   1.949   0.468   3.750 -1.0252  0.3362 -0.3472
11715TIP3    H256637   2.005   0.548   3.634 -0.0765  0.8762  0.4625
11716TIP3   OH256638   1.339   4.827   5.123 -0.0553 -0.2432  0.2646
11716TIP3    H156639   1.346   4.739   5.088 -0.8239 -0.5234  0.7930
11716TIP3    H256640   1.428   4.849   5.151  0.0513 -1.0334  0.5641
11717TIP3   OH256641   4.721   2.293   3.786 -0.3688  0.0110 -0.2965
11717TIP3    H156642   4.771   2.339   3.719 -0.9067  0.3085 -0.4998
11717TIP3    H256643   4.661   2.237   3.738 -0.7144  0.1800 -0.0637
11718TIP3   OH256644   4.657   5.837  16.520 -0.8188 -0.3878 -0.2251
11718TIP3    H156645   4.682   5.750  16.488 -0.0049  0.3764 -1.7552
11718TIP3    H256646   4.638   5.887  16.441 -0.1766  1.1578  0.5556
11719TIP3   OH256647   6.428   5.464  12.348 -0.0121 -0.0412 -0.0866
11719TIP3    H156648   6.482   5.519  12.291 -1.0488  0.6401 -0.4358
11719TIP3    H256649   6.415   5.384  12.299 -0.3854  0.2998 -0.5517
11720TIP3   OH256650   5.080   1.721   0.709 -0.2657  0.5157 -0.3134
11720TIP3    H156651   5.086   1.718   0.804 -0.8402 -2.4269 -0.2784
11720TIP3    H256652   4.986   1.725   0.690 -0.3388 -1.4798 -0.6630
11721TIP3   OH256653   2.149   4.951   4.426 -0.2274  0.0334 -0.1762
11721TIP3    H156654   2.199   4.905   4.358 -2.1469  0.3517 -1.9176
11721TIP3    H256655   2.215   4.995   4.479  1.4014 -0.7920 -1.4351
11722TIP3   OH256656   3.735   4.407   2.166 -0.0910  0.7052 -0.5041
11722TIP3    H156657   3.737   4.489   2.117 -0.3822  1.9002  1.3511
11722TIP3    H256658   3.644   4.397   2.194  0.0700  0.1038 -0.1657
11723TIP3   OH256659   3.985   1.870   0.022 -0.0819  0.3318 -0.3625
11723TIP3    H156660   4.028   1.827   0.097  0.8748  2.8270  0.6097
11723TIP3    H256661   4.029   1.954   0.014 -1.7883  1.1155 -2.2631
11724TIP3   OH256662   3.501   1.763  10.734  0.1926 -0.0766  0.1227
11724TIP3    H156663   3.559   1.749  10.809  2.0634  0.0735 -1.2263
11724TIP3    H256664   3.519   1.852  10.706 -1.0414  0.1257 -0.0738
11725TIP3   OH256665   6.648   1.746   1.366 -1.2043 -0.1836 -0.3185
11725TIP3    H156666   6.689   1.681   1.422  0.2028  0.9407  0.0002
11725TIP3    H256667   6.562   1.760   1.405 -0.9720 -0.7900  0.4459
11726TIP3   OH256668   3.848   6.077   5.241  0.4286 -0.6499 -0.1044
11726TIP3    H156669   3.861   6.149   5.303  1.8648  0.2407 -1.3879
11726TIP3    H256670   3.839   6.120   5.156  0.2505 -1.9472 -0.7644
11727TIP3   OH256671   2.515   1.232  13.360 -0.2675  0.2517 -0.7177
11727TIP3    H156672   2.496   1.153  13.308  0.0208  0.2532 -0.8243
11727TIP3    H256673   2.468   1.302  13.315  0.2996  0.3261 -1.2087
11728TIP3   OH256674   6.628   1.842  15.380  0.6948  0.1516 -0.7453
11728TIP3    H156675   6.620   1.931  15.345  1.9181  0.8024  0.5242
11728TIP3    H256676   6.707   1.807  15.339  0.2096 -0.3714 -1.2491
11729TIP3   OH256677   0.425   5.181   6.023 -0.2526 -0.8715  0.2311
11729TIP3    H156678   0.417   5.269   6.059 -0.7629 -1.0714  0.6073
11729TIP3    H256679   0.443   5.125   6.098  0.5559 -1.0292 -0.0652
11730TIP3   OH256680   5.293   6.142   3.948  0.0931 -0.1953  0.0252
11730TIP3    H156681   5.250   6.061   3.977 -1.3665  0.7413  0.5806
11730TIP3    H256682   5.349   6.167   4.022  1.0638 -1.0117 -0.4031
11731TIP3   OH256683   5.497   1.984   2.032  0.1541  0.2641  0.2419
11731TIP3    H156684   5.513   1.910   2.090  2.2527 -0.2231 -0.8622
11731TIP3    H256685   5.556   2.052   2.063 -0.0837  0.6505 -0.1514
11732TIP3   OH256686   6.558   0.510  15.057  0.2634 -0.0370  0.1318
11732TIP3    H156687   6.556   0.604  15.038  0.0299 -0.0584  0.0519
11732TIP3    H256688   6.642   0.497  15.103  0.3539  0.1866  0.0322
11733TIP3   OH256689   5.111   6.328  11.490  0.1673  0.0295 -0.3035
11733TIP3    H156690   5.193   6.375  11.506  0.0153  0.2576 -0.1918
11733TIP3    H256691   5.065   6.329  11.574  1.7750 -3.5464  0.8223
11734TIP3   OH256692   0.183   3.841  12.130 -0.3512  0.2784 -0.2446
11734TIP3    H156693   0.137   3.774  12.182 -0.1678 -0.7994 -1.4171
11734TIP3    H256694   0.113   3.893  12.091 -0.4888  1.1829  1.1559
11735TIP3   OH256695   3.914   1.330  17.151 -0.1171  0.1044  0.4642
11735TIP3    H156696   3.953   1.416  17.162 -2.7979  1.2250  2.3856
11735TIP3    H256697   3.973   1.270  17.197  0.9109  1.1662  0.5647
11736TIP3   OH256698   2.868   4.433  14.676  0.3742 -0.5451  0.5749
11736TIP3    H156699   2.874   4.363  14.611  0.7055  0.0525 -0.0583
11736TIP3    H256700   2.951   4.481  14.667  0.4510 -0.4918  1.4884
11737TIP3   OH256701   2.181   1.758  12.615 -0.8363 -0.0827 -0.1886
11737TIP3    H156702   2.217   1.843  12.644 -2.3820  0.2259  0.9873
11737TIP3    H256703   2.144   1.720  12.695 -2.0181 -0.9147 -1.1030
11738TIP3   OH256704   6.229   3.927   6.624 -0.8528  0.0607 -0.2897
11738TIP3    H156705   6.274   3.982   6.560 -0.1041  0.5284  0.6062
11738TIP3    H256706   6.271   3.842   6.615 -0.4941  0.2208 -0.1815
11739TIP3   OH256707   6.700   4.163   6.397  0.2296  0.0276 -0.2815
11739TIP3    H156708   6.762   4.111   6.346 -1.0183 -0.6281 -1.1844
11739TIP3    H256709   6.638   4.099   6.432  1.0257  0.4635  2.0670
11740TIP3   OH256710   2.239   2.412   2.741 -0.4428  0.6749 -0.3616
11740TIP3    H156711   2.285   2.371   2.668  1.3415  1.3023  0.3702
11740TIP3    H256712   2.192   2.486   2.702 -0.1653  0.5116 -1.0041
11741TIP3   OH256713   1.465   2.575   0.432 -0.3842  0.6969 -0.1272
11741TIP3    H156714   1.510   2.610   0.509  0.3483  0.8260 -0.6087
11741TIP3    H256715   1.378   2.616   0.435 -0.4719  0.4571  0.7989
11742TIP3   OH256716   0.134   2.721   0.142  0.0068 -0.2603  0.0384
11742TIP3    H156717   0.185   2.650   0.103 -0.5865  1.1543 -3.7812
11742TIP3    H256718   0.043   2.695   0.130 -0.2666 -0.5139  2.2276
11743TIP3   OH256719   6.376   5.132   5.462  0.2946  0.5615  0.1225
11743TIP3    H156720   6.338   5.166   5.381 -1.5993 -1.9060 -0.1545
11743TIP3    H256721   6.449   5.078   5.432 -0.8663 -0.9680 -0.1090
11744TIP3   OH256722   5.226   6.678  11.639 -0.1576  0.6317 -0.3834
11744TIP3    H156723   5.179   6.682  11.723 -0.8786 -0.2566 -0.7290
11744TIP3    H256724   5.164   6.711  11.575 -1.0895 -2.3031 -1.1307
11745TIP3   OH256725   6.088   2.490   6.279 -0.4348 -0.0350 -0.7060
11745TIP3    H156726   6.107   2.406   6.237 -1.2535  0.1605 -1.4967
11745TIP3    H256727   6.042   2.467   6.360 -0.1678 -0.3648 -0.6468
11746TIP3   OH256728   0.648   4.264   5.485  0.3851  0.6004 -0.2725
11746TIP3    H156729   0.618   4.222   5.405  0.6204  1.8028 -1.0300
11746TIP3    H256730   0.590   4.232   5.553  0.0597 -0.2998 -0.9610
11747TIP3   OH256731   0.065   5.767  12.104 -0.4241 -0.1481  0.1342
11747TIP3    H156732  -0.003   5.805  12.159 -1.0530 -0.1915 -0.5917
11747TIP3    H256733   0.072   5.828  12.030  0.1951 -0.2436  0.1106
11748TIP3   OH256734   5.946   2.725  15.185 -0.1779 -0.0993 -0.5177
11748TIP3    H156735   5.867   2.742  15.133 -0.2844  0.6367 -0.1261
11748TIP3    H256736   5.994   2.807  15.183 -0.1977 -0.0438  0.5691
11749TIP3   OH256737   4.288   0.955   4.298  0.8172  0.1650 -0.2146
11749TIP3    H156738   4.247   0.978   4.382 -0.9706  0.9841 -1.2475
11749TIP3    H256739   4.381   0.947   4.318  0.3620 -0.3154  1.9678
11750TIP3   OH256740   1.984   2.048  16.260  0.1075 -0.1711 -0.7256
11750TIP3    H156741   1.944   2.057  16.346 -1.9216 -1.1761 -1.4756
11750TIP3    H256742   2.077   2.035  16.277  0.1005  1.7810  1.1694
11751TIP3   OH256743   2.784   5.830   3.804  0.8000  0.2503 -0.2292
11751TIP3    H156744   2.720   5.888   3.844  1.1155  0.2776  0.2348
11751TIP3    H256745   2.769   5.745   3.846  0.5187  0.0575 -0.7121
11752TIP3   OH256746   0.379   5.577   2.559 -0.3210 -0.5944 -0.2114
11752TIP3    H156747   0.322   5.603   2.486 -1.1075 -1.4119  0.0949
11752TIP3    H256748   0.420   5.496   2.530  0.6465 -0.0510 -0.3966
11753TIP3   OH256749   6.489   5.734   5.195 -0.1396 -0.0999  0.0128
11753TIP3    H156750   6.560   5.686   5.238 -0.3329 -0.6942 -0.3169
11753TIP3    H256751   6.492   5.821   5.234  0.2931 -0.3451  0.5419
11754TIP3   OH256752   6.143   3.349  13.167 -0.4532 -0.3208 -0.1220
11754TIP3    H156753   6.100   3.395  13.239 -0.8738  0.8100 -1.0703
11754TIP3    H256754   6.235   3.377  13.173 -0.4451 -0.3903  0.0954
11755TIP3   OH256755   1.007   5.991   0.515  0.1912 -0.3841  0.0191
11755TIP3    H156756   1.089   6.025   0.551  0.3472 -1.7087  0.9601
11755TIP3    H256757   0.947   6.065   0.519  1.4092  0.7145 -0.9916
11756TIP3   OH256758   2.147   5.087   2.884  0.6549  0.0478  0.1693
11756TIP3    H156759   2.064   5.121   2.917  1.3074  1.9774 -0.0943
11756TIP3    H256760   2.193   5.056   2.962  0.1641  0.0379  0.4568
11757TIP3   OH256761   4.543   2.202  16.332  0.3393 -0.0780 -0.1487
11757TIP3    H156762   4.563   2.192  16.239  1.2173  2.9887 -0.3882
11757TIP3    H256763   4.629   2.212  16.374 -0.1360  1.9922  0.4407
11758TIP3   OH256764   0.764   4.747  16.588 -0.3150 -0.0415  0.1835
11758TIP3    H156765   0.754   4.680  16.521  0.8889  0.5474 -0.6067
11758TIP3    H256766   0.835   4.804  16.556 -0.6366  1.0358  1.2997
11759TIP3   OH256767   5.182   3.445  14.406  0.0077 -0.4104  0.3131
11759TIP3    H156768   5.154   3.411  14.491  0.5992  0.9584  1.0968
11759TIP3    H256769   5.195   3.367  14.352  0.2359 -1.3568  1.6790
11760TIP3   OH256770   4.115   1.194  13.341 -0.2137 -0.2032  0.0266
11760TIP3    H156771   4.121   1.125  13.275  0.0157  1.0466 -1.3077
11760TIP3    H256772   4.061   1.156  13.411 -0.0856 -1.7156 -0.6603
11761TIP3   OH256773   0.911   5.017   4.274  0.3546  0.0106  0.3752
11761TIP3    H156774   0.841   4.996   4.213  0.1041 -1.2391  1.0507
11761TIP3    H256775   0.935   4.933   4.313  2.1471  0.4221  0.2608
11762TIP3   OH256776   4.444   6.680   3.289  0.3652 -0.8655 -0.6982
11762TIP3    H156777   4.404   6.607   3.335 -0.2877 -0.3404 -0.4181
11762TIP3    H256778   4.494   6.639   3.218 -0.0706 -1.5744 -0.6063
11763TIP3   OH256779   2.281   1.268   5.141  0.1174  0.6807  0.2655
11763TIP3    H156780   2.348   1.294   5.205 -0.4838  3.4518 -0.1355
11763TIP3    H256781   2.201   1.260   5.192  0.5095 -2.0122  0.6282
11764TIP3   OH256782   2.369   0.800   4.265  0.0502  0.4041 -0.4762
11764TIP3    H156783   2.304   0.792   4.195  0.1722  0.5835 -0.6109
11764TIP3    H256784   2.325   0.853   4.332 -0.3416 -0.4049 -0.0840
11765TIP3   OH256785   6.565   4.404  15.714 -0.6307  0.5000  0.9714
11765TIP3    H156786   6.589   4.383  15.804 -1.9805 -1.3582  0.9319
11765TIP3    H256787   6.488   4.460  15.721  0.0565  1.4765  0.9658
11766TIP3   OH256788   2.443   4.283  15.854 -0.2577 -0.0411  0.1482
11766TIP3    H156789   2.359   4.276  15.808  0.0219 -0.1719 -0.3593
11766TIP3    H256790   2.485   4.360  15.815  1.7092 -2.3357 -2.7836
11767TIP3   OH256791   4.770   5.109   2.524 -0.2640 -0.6676  0.0826
11767TIP3    H156792   4.801   5.198   2.544  1.5453 -1.0956 -0.6930
11767TIP3    H256793   4.766   5.066   2.609 -0.4795 -0.0622  0.3904
11768TIP3   OH256794   1.541   3.710  16.580  0.0110  0.2356  0.2072
11768TIP3    H156795   1.568   3.788  16.531  0.9632  0.2922  0.8030
11768TIP3    H256796   1.578   3.637  16.531 -0.1107  0.2143  0.1470
11769TIP3   OH256797   2.719   2.596  15.553 -0.0786  0.1252 -0.0564
11769TIP3    H156798   2.756   2.596  15.641  1.3018  0.0288 -0.6139
11769TIP3    H256799   2.746   2.679  15.515 -0.4467  0.0543 -0.4881
11770TIP3   OH256800   0.793   1.134  10.803 -0.2430  0.5116  0.3654
11770TIP3    H156801   0.764   1.223  10.782  0.0269  0.9274  1.6779
11770TIP3    H256802   0.848   1.144  10.881 -1.1509 -0.9309  1.2454
11771TIP3   OH256803   2.808   2.399  17.185 -0.2206  0.0442 -0.4409
11771TIP3    H156804   2.729   2.371  17.230 -0.5385 -0.2660 -1.1816
11771TIP3    H256805   2.801   2.362  17.097  1.5059 -1.3288 -0.0492
11772TIP3   OH256806   1.867   1.516  11.052  0.1123  0.0707 -0.3021
11772TIP3    H156807   1.810   1.593  11.050 -2.0331 -1.4107 -2.0758
11772TIP3    H256808   1.916   1.521  10.969 -0.9053 -1.0159 -0.9971
11773TIP3   OH256809   5.352   5.824   2.280  0.0406 -0.1781  0.0282
11773TIP3    H156810   5.368   5.774   2.199  0.0607 -1.9936  1.0977
11773TIP3    H256811   5.386   5.768   2.349 -2.6783 -0.0505  1.5953
11774TIP3   OH256812   4.358   3.139   3.063  0.3965 -0.2731 -0.4254
11774TIP3    H156813   4.437   3.116   3.014 -0.2031 -1.0392 -1.0645
11774TIP3    H256814   4.288   3.138   2.998 -0.1049  0.6572  0.0810
11775TIP3   OH256815   5.054   2.204   0.032  0.3622  0.2431 -0.1609
11775TIP3    H156816   4.960   2.186   0.042  0.2185  1.0237 -0.0445
11775TIP3    H256817   5.091   2.121   0.002 -0.4689  0.1041 -0.8541
11776TIP3   OH256818   2.407   3.463   4.335  0.6802  0.9825  0.1377
11776TIP3    H156819   2.364   3.469   4.421 -1.3208 -0.0653 -0.7254
11776TIP3    H256820   2.424   3.555   4.311 -2.6585  1.6512 -0.1494
11777TIP3   OH256821   1.000   2.032  11.736 -0.0691 -0.4164  0.0565
11777TIP3    H156822   0.922   2.070  11.776 -0.3694  0.1407 -1.0363
11777TIP3    H256823   1.023   1.959  11.794  0.0770  0.9224  1.7579
11778TIP3   OH256824   1.587   6.470  14.830 -0.0268 -0.0321  0.2944
11778TIP3    H156825   1.621   6.516  14.906  0.6662  0.3140 -0.2153
11778TIP3    H256826   1.496   6.501  14.822 -0.0319  0.0924  0.8479
11779TIP3   OH256827   1.506   4.048   1.038 -0.0524  0.2172  1.2134
11779TIP3    H156828   1.545   3.962   1.024 -1.4965 -0.5963  2.0640
11779TIP3    H256829   1.450   4.038   1.115 -0.2154  1.9308  1.3629
11780TIP3   OH256830   1.234   3.841  14.665 -0.2223 -0.0903  0.7217
11780TIP3    H156831   1.162   3.890  14.705 -2.8131 -2.8194 -0.1293
11780TIP3    H256832   1.221   3.852  14.570  1.4538  0.5953  0.5507
11781TIP3   OH256833   6.159   1.196  15.231  0.1438  0.3511 -0.0063
11781TIP3    H156834   6.171   1.112  15.188  1.0471  0.0369  0.8340
11781TIP3    H256835   6.217   1.193  15.307 -0.1109  1.5746  0.2580
11782TIP3   OH256836   6.810   2.420   6.108 -0.6303 -0.7695  0.3546
11782TIP3    H156837   6.758   2.392   6.183  2.3769  0.1935  2.9995
11782TIP3    H256838   6.833   2.338   6.063  0.3909 -1.7847  2.5841
11783TIP3   OH256839   1.288   6.511  13.733  0.5882 -1.0348 -0.0619
11783TIP3    H156840   1.313   6.601  13.752  1.4832 -1.2727 -0.0410
11783TIP3    H256841   1.198   6.517  13.700  0.9024 -0.0507 -0.7880
11784TIP3   OH256842   2.019   4.442   5.973 -0.0021  0.0623  0.4453
11784TIP3    H156843   2.001   4.379   6.043  1.2290  0.1563  0.8789
11784TIP3    H256844   1.949   4.506   5.981 -1.3426 -1.2738 -0.0698
11785TIP3   OH256845   5.892   0.711   2.419  0.2456  0.1810  0.1975
11785TIP3    H156846   5.984   0.726   2.395  0.2201  0.4465  0.2622
11785TIP3    H256847   5.842   0.768   2.360 -0.0742 -2.1092 -1.8717
11786TIP3   OH256848   0.416   6.282   3.409 -0.8610 -0.4788 -0.0254
11786TIP3    H156849   0.436   6.368   3.373  0.3735 -0.8387 -0.2326
11786TIP3    H256850   0.471   6.221   3.360  1.2790 -0.9504  2.6919
11787TIP3   OH256851   6.615   6.680   5.185 -0.1802  1.1338  0.2842
11787TIP3    H156852   6.622   6.766   5.145  1.4276  0.7194 -0.4196
11787TIP3    H256853   6.562   6.629   5.123  1.0191  0.9222 -0.5972
11788TIP3   OH256854   0.227   4.553   5.458  0.1235 -0.0887 -0.4370
11788TIP3    H156855   0.171   4.475   5.452  0.9368 -0.5828 -2.2348
11788TIP3    H256856   0.304   4.524   5.507 -1.1774  0.6505  2.2421
11789TIP3   OH256857   2.855   3.010   3.886  0.1136 -0.4721  0.2148
11789TIP3    H156858   2.852   3.079   3.820  1.7455  0.8335  1.4325
11789TIP3    H256859   2.913   2.943   3.849  0.4596 -0.0763  0.0352
11790TIP3   OH256860   2.622   0.669  14.744  0.0792  0.3884  0.1349
11790TIP3    H156861   2.597   0.757  14.774  1.7284  0.7162  0.6641
11790TIP3    H256862   2.562   0.650  14.671 -2.4756  0.5618  2.0683
11791TIP3   OH256863   0.906   3.861   5.929 -0.0622  0.7093 -0.1078
11791TIP3    H156864   0.967   3.873   6.002 -0.3691  1.9964 -0.0240
11791TIP3    H256865   0.828   3.823   5.969  0.0190  0.7828  0.1260
11792TIP3   OH256866   0.643   6.167  12.362  0.3649 -0.0168  0.4115
11792TIP3    H156867   0.594   6.195  12.440  0.7450 -0.7651  0.9246
11792TIP3    H256868   0.733   6.192  12.380  0.4215  0.0056  0.1059
11793TIP3   OH256869   3.387   1.157   1.775 -0.0283 -0.1968 -0.2888
11793TIP3    H156870   3.397   1.143   1.681 -0.9075 -2.0096 -0.1454
11793TIP3    H256871   3.344   1.078   1.807  0.9082  0.0559  1.7663
11794TIP3   OH256872   1.887   4.562   3.717  0.4370 -0.7452  0.1129
11794TIP3    H156873   1.922   4.585   3.803  0.0399  0.3143  0.0066
11794TIP3    H256874   1.862   4.646   3.679 -1.2815 -1.3724 -0.2111
11795TIP3   OH256875   0.708   5.853   0.135  0.5787 -0.2123 -0.0613
11795TIP3    H156876   0.715   5.922   0.069  1.5009  0.1445  0.3933
11795TIP3    H256877   0.757   5.886   0.210  1.3027 -1.4999  0.0628
11796TIP3   OH256878   0.550   1.425  14.798 -0.0153  0.7736 -0.5083
11796TIP3    H156879   0.604   1.487  14.846  2.1449  0.0138 -1.8413
11796TIP3    H256880   0.589   1.339  14.815 -0.0996  0.3149 -2.3493
11797TIP3   OH256881   3.702   4.959   4.384  0.0070  0.1520 -0.7820
11797TIP3    H156882   3.767   4.931   4.448  0.2993  0.4370 -0.9512
11797TIP3    H256883   3.719   5.053   4.373  0.8334 -0.1539 -2.2851
11798TIP3   OH256884   5.997   3.877   0.932 -0.2500 -0.2493  0.1272
11798TIP3    H156885   6.030   3.802   0.882  1.6999  0.1574  0.7045
11798TIP3    H256886   5.993   3.846   1.022 -1.2533 -0.2003  0.1083
11799TIP3   OH256887   6.312   4.432   4.636 -0.1527  0.3030 -0.3867
11799TIP3    H156888   6.239   4.439   4.574 -0.8537  1.5627  0.5418
11799TIP3    H256889   6.274   4.453   4.721  1.4599  1.8881 -0.0044
11800TIP3   OH256890   2.821   0.457  15.825 -0.0469 -0.1843 -0.4524
11800TIP3    H156891   2.810   0.401  15.748  1.2741  0.6434 -1.3032
11800TIP3    H256892   2.910   0.493  15.815  0.9533 -1.5727  2.4880
11801TIP3   OH256893   3.358   5.079   2.688 -0.0900 -0.8837  0.6034
11801TIP3    H156894   3.430   5.139   2.704 -0.1358 -0.9690  1.1783
11801TIP3    H256895   3.364   5.057   2.595 -1.3753  1.6759 -0.1750
11802TIP3   OH256896   2.108   5.020  16.619  0.0432 -0.1876 -0.5160
11802TIP3    H156897   2.156   5.060  16.547 -0.3842  1.1835 -0.0608
11802TIP3    H256898   2.071   4.940  16.581  0.1102  0.3374 -1.7252
11803TIP3   OH256899   0.222   2.388   3.642 -0.5309  0.6045  0.0520
11803TIP3    H156900   0.136   2.346   3.634 -0.4633  0.3963  0.4084
11803TIP3    H256901   0.272   2.330   3.700 -0.2106  0.8191 -0.0089
11804TIP3   OH256902   4.982   1.790   2.213  0.2957 -0.0848  0.1721
11804TIP3    H156903   4.920   1.725   2.245  0.4943  0.2264  1.2284
11804TIP3    H256904   4.927   1.864   2.186  0.1501 -0.2223  0.0856
11805TIP3   OH256905   1.233   0.034   0.183  0.2204 -0.3902  0.7277
11805TIP3    H156906   1.321   0.055   0.153  0.2245 -1.1984  0.1379
11805TIP3    H256907   1.199   0.116   0.219  1.8046 -0.4495  2.5010
11806TIP3   OH256908   1.514   3.559  15.119 -0.4083 -0.7025  0.6518
11806TIP3    H156909   1.582   3.594  15.061 -1.2586 -0.4469 -0.2336
11806TIP3    H256910   1.521   3.611  15.199 -0.2892  0.0884  0.1395
11807TIP3   OH256911   5.178   6.050  16.260  0.4281 -0.5462 -0.0145
11807TIP3    H156912   5.259   6.020  16.218  0.0231  0.4918 -1.6046
11807TIP3    H256913   5.120   5.974  16.258  1.5746 -1.5702  1.8983
11808TIP3   OH256914   6.449   6.125   2.957  0.2549 -0.2239  0.0241
11808TIP3    H156915   6.432   6.207   3.004  0.4472 -0.2286  0.1047
11808TIP3    H256916   6.500   6.073   3.018  0.4195 -0.2715 -0.1518
11809TIP3   OH256917   3.958   2.482  15.979  0.2018  0.2444  0.0968
11809TIP3    H156918   3.888   2.514  15.922 -1.4532 -0.5106  1.6045
11809TIP3    H256919   3.985   2.399  15.939  1.1532  1.1476 -1.1862
11810TIP3   OH256920   4.807   5.878   3.603  0.1748  0.4647 -0.2506
11810TIP3    H156921   4.754   5.852   3.528  0.3878  2.2289 -1.0518
11810TIP3    H256922   4.896   5.852   3.579  0.0813 -0.0374 -0.0768
11811TIP3   OH256923   5.329   6.746   2.049 -0.0082 -0.3802  0.0620
11811TIP3    H156924   5.354   6.780   1.963 -0.6125 -1.1134 -0.4154
11811TIP3    H256925   5.249   6.696   2.033 -1.7376  1.7347  1.4932
11812TIP3   OH256926   6.350   0.419  11.650 -0.0333 -0.3009 -0.3550
11812TIP3    H156927   6.366   0.490  11.711  0.8946 -0.0358 -0.8752
11812TIP3    H256928   6.346   0.461  11.564  1.5162 -0.9406 -0.7915
11813TIP3   OH256929   1.050   5.066  12.886 -0.1852  0.3051  0.3320
11813TIP3    H156930   1.123   5.016  12.849 -1.0264 -2.1426  1.7554
11813TIP3    H256931   1.081   5.156  12.887  0.7761  0.2353 -3.9611
11814TIP3   OH256932   3.614   1.175   3.010 -0.3133 -0.4976  0.2744
11814TIP3    H156933   3.698   1.182   3.055 -1.4363  1.0625  2.3213
11814TIP3    H256934   3.588   1.084   3.022  1.7467 -1.4675 -1.8288
11815TIP3   OH256935   3.816   1.863   0.725  0.1703 -0.1883 -0.3062
11815TIP3    H156936   3.794   1.956   0.734 -0.2802 -0.2877 -0.3989
11815TIP3    H256937   3.912   1.861   0.735  0.0662  0.1225  1.0380
11816TIP3   OH256938   1.061   3.159   2.905  0.0087  0.2496 -0.0166
11816TIP3    H156939   1.062   3.213   2.983  1.7646  0.9588 -0.4742
11816TIP3    H256940   1.026   3.075   2.934  2.0035 -0.0148  1.9321
11817TIP3   OH256941   3.583   1.385   0.559 -0.5267 -0.2534  0.1111
11817TIP3    H156942   3.645   1.318   0.531 -0.7294 -0.5003  0.2590
11817TIP3    H256943   3.534   1.345   0.631 -0.9722 -0.1210 -0.1131
11818TIP3   OH256944   6.700   4.804  17.060  0.5002  0.0690  0.0410
11818TIP3    H156945   6.731   4.720  17.092  1.2660 -0.3101 -1.5536
11818TIP3    H256946   6.749   4.818  16.979 -1.8913  0.5341 -1.4330
11819TIP3   OH256947   2.392   4.497  13.396 -0.6736  0.9473  0.3061
11819TIP3    H156948   2.407   4.436  13.468 -1.2117  0.0173 -0.3488
11819TIP3    H256949   2.480   4.518  13.364 -0.5083 -0.4090 -0.1981
11820TIP3   OH256950   3.322   2.302  12.280 -0.1106 -0.2418  0.6510
11820TIP3    H156951   3.303   2.342  12.365  0.4505  0.2728  0.5373
11820TIP3    H256952   3.403   2.344  12.251  1.2005 -2.2717  1.0798
11821TIP3   OH256953   3.332   1.878  14.562 -0.3432  0.1582  0.0613
11821TIP3    H156954   3.402   1.869  14.497 -1.6300  1.5170 -1.6178
11821TIP3    H256955   3.377   1.874  14.646  1.5333 -0.6090 -0.9106
11822TIP3   OH256956   4.926   1.052  12.200 -0.0291 -0.3708 -0.5182
11822TIP3    H156957   4.880   1.135  12.186  0.4113  0.1904  1.1790
11822TIP3    H256958   4.864   0.998  12.249  1.4350  0.8895  3.0493
11823TIP3   OH256959   0.413   3.786   0.327 -0.2079 -0.1867 -0.1256
11823TIP3    H156960   0.435   3.788   0.420  1.5958  3.0376 -0.4569
11823TIP3    H256961   0.399   3.878   0.304 -0.0609 -0.8162 -3.1640
11824TIP3   OH256962   0.190   4.228  15.053 -0.2629 -0.1890  0.6080
11824TIP3    H156963   0.235   4.184  14.981 -1.3864 -1.8574  0.8682
11824TIP3    H256964   0.230   4.192  15.132 -0.8039 -0.3116  0.8286
11825TIP3   OH256965   0.800   6.008  17.122 -0.1611 -0.3282  0.3420
11825TIP3    H156966   0.818   6.094  17.158  0.0719  0.0359 -0.6140
11825TIP3    H256967   0.883   5.980  17.084 -0.3940 -0.7111  0.1079
11826TIP3   OH256968   4.689   0.981   2.755 -0.0460 -0.6232  0.1348
11826TIP3    H156969   4.737   0.901   2.732 -1.0306 -1.1585 -0.1191
11826TIP3    H256970   4.597   0.957   2.746 -0.3981  0.1037  1.5349
11827TIP3   OH256971   5.722   4.759  13.669  0.1660  0.4727  0.5345
11827TIP3    H156972   5.638   4.721  13.695  1.4607 -1.9382  1.4643
11827TIP3    H256973   5.705   4.853  13.664 -2.6977  0.0297  0.1888
11828TIP3   OH256974   3.504   1.533  16.508  0.2756 -0.3796  0.2548
11828TIP3    H156975   3.466   1.446  16.517 -0.6151  0.0518  0.8098
11828TIP3    H256976   3.555   1.529  16.428 -1.5779 -0.7746 -0.9736
11829TIP3   OH256977   3.210   4.000   5.834  0.0537  0.2665 -0.6750
11829TIP3    H156978   3.195   3.952   5.753  1.4603 -0.9451 -0.2652
11829TIP3    H256979   3.156   4.079   5.826 -1.7624 -1.0043 -1.6933
11830TIP3   OH256980   3.112   0.038   1.908  0.3380  0.0682  0.3474
11830TIP3    H156981   3.166   0.014   1.833 -1.2329 -0.2615 -0.7374
11830TIP3    H256982   3.133   0.129   1.925 -1.1148  0.9896 -2.2097
11831TIP3   OH256983   6.438   3.848   5.551 -0.1648 -0.3868  0.2107
11831TIP3    H156984   6.395   3.931   5.531 -0.5540 -0.5434  0.3722
11831TIP3    H256985   6.479   3.820   5.469  0.8922  0.4989  0.4265
11832TIP3   OH256986   6.428   2.880  13.936  0.3656 -0.0110 -0.5272
11832TIP3    H156987   6.346   2.928  13.927  0.1481 -0.5603 -1.6530
11832TIP3    H256988   6.495   2.948  13.945 -0.0356  0.4841 -1.2214
11833TIP3   OH256989   0.239   5.979   3.879  0.0373 -0.4023 -0.0405
11833TIP3    H156990   0.241   6.063   3.924  2.6723 -0.1903 -0.4202
11833TIP3    H256991   0.301   5.924   3.928 -1.0509 -1.9090 -0.2619
11834TIP3   OH256992   6.171   0.831  16.581  0.2051  0.6765  0.4202
11834TIP3    H156993   6.189   0.827  16.486  0.7477 -0.1480  0.5402
11834TIP3    H256994   6.258   0.836  16.621  0.0466 -0.3010  0.9150
11835TIP3   OH256995   4.518   0.426   4.954  0.0048 -0.5482 -0.0594
11835TIP3    H156996   4.584   0.494   4.939  0.0877 -0.6433 -0.1269
11835TIP3    H256997   4.568   0.351   4.986 -0.4018  0.4894  3.4839
11836TIP3   OH256998   6.328   0.884   3.233  0.3721 -0.0625  0.1478
11836TIP3    H156999   6.327   0.978   3.253 -0.1317  0.6262 -2.6691
11836TIP3    H257000   6.245   0.869   3.187  0.6815 -1.7867  0.1051
11837TIP3   OH257001   1.276   1.352  15.142  0.3404 -0.0298  0.2624
11837TIP3    H157002   1.255   1.292  15.070 -0.6354 -0.4761  0.8955
11837TIP3    H257003   1.252   1.438  15.109 -0.2097 -0.2440  0.0895
11838TIP3   OH257004   6.642   4.525   2.393  0.1900  0.7856  0.0920
11838TIP3    H157005   6.582   4.574   2.337  0.5432 -0.4474 -1.4417
11838TIP3    H257006   6.628   4.560   2.480 -4.4042 -0.9149  0.2772
11839TIP3   OH257007   4.136   4.808  13.555  0.2733  0.1060 -0.5979
11839TIP3    H157008   4.102   4.870  13.619  3.6745  0.3364  1.2186
11839TIP3    H257009   4.154   4.861  13.477 -0.4115  0.6038 -0.4204
11840TIP3   OH257010   6.234   1.893   6.155 -0.3683 -0.2124 -0.6320
11840TIP3    H157011   6.203   1.830   6.221  0.4311 -1.7094 -1.6330
11840TIP3    H257012   6.166   1.961   6.154 -0.1832  0.1522  2.0671
11841TIP3   OH257013   5.243   5.569   4.950 -0.2164 -0.3076 -0.4042
11841TIP3    H157014   5.271   5.536   5.036 -1.7730 -0.2806  0.1445
11841TIP3    H257015   5.247   5.492   4.893  1.1731 -0.2481 -0.4182
11842TIP3   OH257016   6.029   4.734  14.322  0.3435 -0.6285  0.0975
11842TIP3    H157017   6.085   4.796  14.274  3.1639 -3.8414 -1.2624
11842TIP3    H257018   5.958   4.714  14.260  1.0575 -0.8748 -0.6706
11843TIP3   OH257019   4.000   0.897   5.994  0.0536 -0.1026 -0.4334
11843TIP3    H157020   4.046   0.933   6.069  0.0619  0.1495 -0.5567
11843TIP3    H257021   4.010   0.802   6.002  0.8733 -0.0370 -0.6337
11844TIP3   OH257022   6.823   6.248  16.804 -0.3564 -0.2928 -0.2572
11844TIP3    H157023   6.879   6.219  16.876 -0.5437  2.9767  1.4196
11844TIP3    H257024   6.734   6.229  16.835 -0.4397  1.1675  0.4721
11845TIP3   OH257025   3.049   5.124  14.227 -0.2120  0.1311 -0.6415
11845TIP3    H157026   3.127   5.079  14.195  0.1681  0.1324  0.2423
11845TIP3    H257027   3.014   5.168  14.150  0.7830  0.3118 -1.0137
11846TIP3   OH257028   2.858   2.785  11.650 -0.3221 -0.2667 -0.6253
11846TIP3    H157029   2.871   2.856  11.588 -0.3538 -1.1946 -1.7256
11846TIP3    H257030   2.914   2.714  11.617 -0.0631 -0.6614  0.6092
11847TIP3   OH257031   1.168   0.277  12.518  0.1455  0.0033  0.1195
11847TIP3    H157032   1.099   0.338  12.493  0.2535 -0.3943 -1.2572
11847TIP3    H257033   1.170   0.281  12.614 -1.0437  0.8222  0.1397
11848TIP3   OH257034   3.833   4.695   0.044  0.6533 -0.0187  0.1898
11848TIP3    H157035   3.801   4.785   0.045 -1.0028 -0.5692  0.7725
11848TIP3    H257036   3.836   4.670   0.137  1.2999 -0.4987  0.0459
11849TIP3   OH257037   6.250   1.557  15.690 -0.3888 -0.2507  0.3609
11849TIP3    H157038   6.338   1.522  15.677  0.0255  0.4658  1.1557
11849TIP3    H257039   6.230   1.537  15.781 -1.0976 -0.5099  0.1495
11850TIP3   OH257040   2.314   2.736  14.345  0.2019  0.3466 -0.1209
11850TIP3    H157041   2.318   2.815  14.399 -1.0479  2.8631 -3.3864
11850TIP3    H257042   2.220   2.715  14.342  0.2455  0.2332 -1.1633
11851TIP3   OH257043   0.925   4.733   4.911  0.5371  0.2982  0.3046
11851TIP3    H157044   0.965   4.694   4.833 -1.6391  0.2100 -0.8296
11851TIP3    H257045   0.902   4.822   4.885 -0.6540  0.1133  0.6578
11852TIP3   OH257046   2.229   1.600   2.303 -0.8508 -0.2347 -0.3304
11852TIP3    H157047   2.313   1.563   2.328 -0.1095  1.6228  0.1476
11852TIP3    H257048   2.192   1.633   2.385 -1.7054 -0.3560 -0.6536
11853TIP3   OH257049   5.873   4.671  15.610  0.6659 -0.0535 -0.2668
11853TIP3    H157050   5.863   4.718  15.527 -3.8132 -1.2697 -0.6782
11853TIP3    H257051   5.839   4.731  15.676  1.1405 -0.2945  0.2079
11854TIP3   OH257052   3.419   2.824   3.500 -0.5103 -0.2385  0.3362
11854TIP3    H157053   3.435   2.788   3.587  3.6661  1.6521  0.6252
11854TIP3    H257054   3.469   2.766   3.441 -0.6936  0.2717 -0.3397
11855TIP3   OH257055   2.590   0.481   0.104 -0.3933  0.3993 -0.5628
11855TIP3    H157056   2.602   0.569   0.140 -1.1989  0.2613  0.0761
11855TIP3    H257057   2.496   0.466   0.109 -0.1965 -0.7394 -0.0962
11856TIP3   OH257058   0.757   1.130   0.289 -0.1768  0.8049 -0.5538
11856TIP3    H157059   0.846   1.141   0.255 -0.5591 -0.4002 -2.0503
11856TIP3    H257060   0.705   1.194   0.240 -0.5266 -0.1569 -1.4947
11857TIP3   OH257061   5.788   0.584  14.136 -0.0854  0.0416  0.2777
11857TIP3    H157062   5.770   0.572  14.043 -0.7027  2.2330  0.0730
11857TIP3    H257063   5.723   0.529  14.181 -0.2266 -0.4869 -0.5557
11858TIP3   OH257064   4.547   5.872  13.419 -0.3989 -0.0228  0.7427
11858TIP3    H157065   4.636   5.899  13.440 -0.2850 -0.9314  1.5163
11858TIP3    H257066   4.530   5.908  13.332  0.7476  0.1062  0.5609
11859TIP3   OH257067   3.249   4.638   0.260 -0.4179  0.4667  0.2620
11859TIP3    H157068   3.240   4.727   0.296  0.1207  0.7841 -0.3811
11859TIP3    H257069   3.160   4.603   0.260 -0.4035  0.3047  2.2813
11860TIP3   OH257070   3.579   0.040  10.456  0.1045  0.2979 -0.0904
11860TIP3    H157071   3.565  -0.051  10.481 -2.0742  0.1031 -1.6944
11860TIP3    H257072   3.506   0.087  10.496 -0.9392  0.6697 -2.2982
11861TIP3   OH257073   0.290   1.465  12.592  0.2683  0.2579  0.1952
11861TIP3    H157074   0.222   1.400  12.574  0.8507 -0.4799  0.5708
11861TIP3    H257075   0.366   1.413  12.618  0.7234  1.1034  0.6002
11862TIP3   OH257076   4.742   6.680  12.430 -0.7020  0.1267  0.6333
11862TIP3    H157077   4.754   6.707  12.339 -3.1991 -1.3644 -0.2177
11862TIP3    H257078   4.766   6.758  12.481  0.4225  1.0993 -1.2714
11863TIP3   OH257079   0.235   3.063  15.852  0.0692  0.1279 -0.2602
11863TIP3    H157080   0.284   3.145  15.849  0.2270  0.0222 -0.7547
11863TIP3    H257081   0.230   3.035  15.761  0.1076 -0.4660 -0.0840
11864TIP3   OH257082   3.240   0.020   0.964  0.1459  0.2116  1.2317
11864TIP3    H157083   3.268  -0.030   0.887 -1.2163  1.0864  0.1043
11864TIP3    H257084   3.284  -0.022   1.037  0.5587 -1.4178  0.1108
11865TIP3   OH257085   2.785   1.484   5.015  0.3535  0.0218  0.0737
11865TIP3    H157086   2.763   1.571   4.983  0.9807  0.1090 -0.1363
11865TIP3    H257087   2.773   1.489   5.109 -1.1276 -0.1198 -0.0775
11866TIP3   OH257088   2.206   4.975  15.460  0.2448 -0.6113 -0.2506
11866TIP3    H157089   2.167   5.028  15.390  0.3325 -2.6265 -1.9595
11866TIP3    H257090   2.134   4.923  15.493  0.8987 -2.6281 -1.7718
11867TIP3   OH257091   4.291   3.440   1.398  0.3173 -0.1729  0.0440
11867TIP3    H157092   4.336   3.468   1.478 -0.9976  2.0149  0.0928
11867TIP3    H257093   4.219   3.502   1.387 -0.4708 -1.3303 -2.0346
11868TIP3   OH257094   0.490   6.171  16.092 -0.0662  0.1360  0.5313
11868TIP3    H157095   0.574   6.141  16.129 -0.2921 -0.4822  0.5558
11868TIP3    H257096   0.501   6.160  15.997 -0.4637 -0.8860  0.5902
11869TIP3   OH257097   5.617   1.105   4.853  0.4833  1.2879  0.2478
11869TIP3    H157098   5.627   1.088   4.760  2.8227  0.2796  0.6120
11869TIP3    H257099   5.706   1.098   4.888 -0.5779 -0.7006  2.9038
11870TIP3   OH257100   2.107   0.708  14.950 -0.0848  0.0633  0.0808
11870TIP3    H157101   2.190   0.753  14.961  0.3007 -0.4091 -0.7640
11870TIP3    H257102   2.051   0.773  14.906  0.4823 -0.2568 -1.1720
11871TIP3   OH257103   5.057   1.687   4.395 -0.1879 -0.3298 -0.2551
11871TIP3    H157104   5.079   1.669   4.304  0.3799 -3.2337  0.3839
11871TIP3    H257105   5.141   1.705   4.437 -0.4191  0.6986 -0.1984
11872TIP3   OH257106   3.238   0.442  11.822 -0.2273  0.6043  0.2836
11872TIP3    H157107   3.223   0.497  11.746  1.9113  1.6186  0.5409
11872TIP3    H257108   3.150   0.422  11.855 -1.1557  0.8999 -1.8735
11873TIP3   OH257109   0.289   0.993   1.252 -0.1206 -0.4520  0.7511
11873TIP3    H157110   0.207   0.965   1.291 -0.3000 -0.1021  0.6290
11873TIP3    H257111   0.290   1.088   1.262 -0.7404 -0.1933 -1.1364
11874TIP3   OH257112   1.378   3.097  15.019  0.2010  0.0824 -0.1542
11874TIP3    H157113   1.460   3.047  15.016 -0.3216 -0.7258 -1.5248
11874TIP3    H257114   1.387   3.153  15.097  2.4644  0.7469 -0.8213
11875TIP3   OH257115   3.266   2.284   0.940 -0.7949 -0.0333 -0.1041
11875TIP3    H157116   3.254   2.277   0.846 -2.0795 -0.9615  0.1045
11875TIP3    H257117   3.289   2.376   0.955 -1.6080  0.3629 -1.2022
11876TIP3   OH257118   6.718   4.001  12.784 -0.6341 -0.9161  0.8828
11876TIP3    H157119   6.706   3.914  12.822  0.7734 -0.4360  2.5584
11876TIP3    H257120   6.644   4.052  12.817 -0.7549 -1.1334  0.9496
11877TIP3   OH257121   4.823   5.841   0.098  0.4642 -0.2874 -0.0798
11877TIP3    H157122   4.759   5.883   0.155 -1.4724 -2.0248 -0.8558
11877TIP3    H257123   4.878   5.790   0.157 -1.4787 -2.0118  0.3710
11878TIP3   OH257124   0.295   0.507   0.059  0.5371  0.3754  0.0927
11878TIP3    H157125   0.276   0.599   0.035 -0.8701 -0.4107 -2.2334
11878TIP3    H257126   0.299   0.507   0.154  0.4752  2.8438  0.1616
11879TIP3   OH257127   6.527   4.879   3.132 -0.1969 -0.0394  0.3255
11879TIP3    H157128   6.465   4.808   3.114 -0.5303  0.1949  0.5390
11879TIP3    H257129   6.493   4.954   3.083 -0.2432  0.1707  0.6743
11880TIP3   OH257130   3.162   1.909   2.383 -0.4305 -0.6046  0.4002
11880TIP3    H157131   3.107   1.849   2.333 -0.9608 -1.0633  1.4809
11880TIP3    H257132   3.200   1.968   2.318 -2.7781  0.1893 -0.3303
11881TIP3   OH257133   5.048   0.268   3.946 -0.7044 -0.2900 -0.9984
11881TIP3    H157134   5.015   0.205   3.882  1.4477 -3.3753  0.6434
11881TIP3    H257135   4.989   0.260   4.021 -0.3261 -0.4976 -0.7194
11882TIP3   OH257136   1.420   3.746   2.216 -0.3206  0.0623  0.1790
11882TIP3    H157137   1.505   3.752   2.174 -0.5096 -0.3693 -0.2717
11882TIP3    H257138   1.373   3.824   2.186 -0.3329 -0.0663 -0.1368
11883TIP3   OH257139   0.802   1.853   3.750 -0.9982 -0.2388  0.0157
11883TIP3    H157140   0.803   1.814   3.837 -2.2504  0.7311  0.5033
11883TIP3    H257141   0.823   1.946   3.765  0.8474 -0.4334 -0.9792
11884TIP3   OH257142   0.535   6.075   2.218 -0.3987 -0.2161  0.2628
11884TIP3    H157143   0.613   6.029   2.250  2.0747  3.3762 -0.0520
11884TIP3    H257144   0.504   6.125   2.293  0.7977  2.3039 -0.8225
11885TIP3   OH257145   0.630   6.779   5.384  0.4755  0.0998 -0.2193
11885TIP3    H157146   0.618   6.780   5.289  0.5514  0.2205 -0.2291
11885TIP3    H257147   0.624   6.872   5.409 -2.2681 -0.1277  0.2576
11886TIP3   OH257148   5.173   5.382  15.377 -0.3113  0.1357 -0.0557
11886TIP3    H157149   5.151   5.335  15.296 -1.9739  0.3845  0.2182
11886TIP3    H257150   5.205   5.467  15.347  0.0062 -0.1293 -0.4768
11887TIP3   OH257151   3.510   5.878  16.727  0.4784  0.5900 -0.3187
11887TIP3    H157152   3.523   5.929  16.646 -1.3991  0.8325 -0.4922
11887TIP3    H257153   3.425   5.905  16.760 -0.4174 -2.1199 -0.1665
11888TIP3   OH257154   1.831   3.286  14.241 -0.0256  0.1667 -0.0177
11888TIP3    H157155   1.922   3.264  14.261 -0.4003  0.1299  1.7992
11888TIP3    H257156   1.798   3.327  14.321 -1.9531 -0.8764 -0.2232
11889TIP3   OH257157   1.630   5.003  13.787 -0.6526  0.4625  0.3855
11889TIP3    H157158   1.549   5.030  13.743 -1.9290 -1.2679  1.5523
11889TIP3    H257159   1.608   5.004  13.880  1.3631  2.0186  0.9307
11890TIP3   OH257160   4.115   1.198  11.294 -0.1621  0.5551 -0.2211
11890TIP3    H157161   4.151   1.109  11.286 -1.1727 -0.2275  2.5715
11890TIP3    H257162   4.190   1.251  11.322  0.1009  0.2156 -0.2672
11891TIP3   OH257163   4.242   5.405   1.614  0.2403 -0.0106  0.0015
11891TIP3    H157164   4.155   5.444   1.623 -0.6119 -0.4538 -4.1397
11891TIP3    H257165   4.302   5.480   1.611 -0.7241  0.7668 -2.3079
11892TIP3   OH257166   5.509   6.525  15.475  0.1668  0.1018 -0.0602
11892TIP3    H157167   5.578   6.501  15.414 -0.1205 -4.1272  0.9168
11892TIP3    H257168   5.554   6.545  15.557  0.3610  0.3402 -0.2271
11893TIP3   OH257169   3.867   6.018   2.038  0.0488  0.0146 -0.5376
11893TIP3    H157170   3.946   6.061   2.072  0.2485 -0.9468  0.2539
11893TIP3    H257171   3.892   5.991   1.949  0.1733  0.8417 -0.7640
11894TIP3   OH257172   6.020   0.800  12.623  0.3153 -0.0691  0.1627
11894TIP3    H157173   6.071   0.794  12.704 -2.6439  0.0548  2.2115
11894TIP3    H257174   5.976   0.716  12.616 -0.3967  0.3514 -0.6543
11895TIP3   OH257175   3.952   2.594  16.232  0.3689 -0.1306  0.4193
11895TIP3    H157176   4.045   2.584  16.252  0.3995 -2.0122 -0.4642
11895TIP3    H257177   3.944   2.565  16.142 -1.3910 -2.0309  1.1284
11896TIP3   OH257178   6.310   6.644   3.932  0.5265  0.2778 -0.3074
11896TIP3    H157179   6.250   6.571   3.916  0.7289  0.7089 -3.7942
11896TIP3    H257180   6.397   6.608   3.920  0.6176  1.0811 -2.4357
11897TIP3   OH257181   2.431   0.606  14.561 -0.4749 -0.5925  0.6784
11897TIP3    H157182   2.487   0.577  14.490 -0.2548 -2.2269  1.4672
11897TIP3    H257183   2.361   0.655  14.518  2.3998  3.2260 -0.2301
11898TIP3   OH257184   4.456   0.692   2.753 -0.2020 -0.3328  0.2188
11898TIP3    H157185   4.540   0.693   2.707 -0.8113 -0.7914 -0.9444
11898TIP3    H257186   4.402   0.631   2.703 -1.1822 -0.1682  1.0419
11899TIP3   OH257187   2.875   4.837  14.606 -0.0037  0.3844  0.0291
11899TIP3    H157188   2.963   4.845  14.643 -0.7335  1.7093  1.6148
11899TIP3    H257189   2.839   4.926  14.612 -0.9087  0.2201 -2.0974
11900TIP3   OH257190   6.081   1.943  12.388  0.1370  0.0695  0.2574
11900TIP3    H157191   6.146   1.888  12.345  1.2412  0.3117  1.5346
11900TIP3    H257192   6.108   2.032  12.369 -0.4598  0.1842 -0.0917
11901TIP3   OH257193   3.237   5.675  15.321 -0.3028 -0.4531 -0.1476
11901TIP3    H157194   3.263   5.606  15.382  0.6104 -0.7666 -0.8714
11901TIP3    H257195   3.143   5.664  15.312 -0.3195 -0.9552  0.5314
11902TIP3   OH257196   3.198   6.522   0.503 -0.4884 -0.2088  0.3571
11902TIP3    H157197   3.118   6.469   0.511 -0.1286 -0.6720  1.0366
11902TIP3    H257198   3.265   6.459   0.472 -0.2321  0.0249  0.4355
11903TIP3   OH257199   5.968   3.182   3.127  0.0724 -0.2024  0.1578
11903TIP3    H157200   6.036   3.241   3.159  0.1683 -1.1480  1.7964
11903TIP3    H257201   6.016   3.104   3.098 -0.1424  0.0390 -0.8647
11904TIP3   OH257202   4.433   3.392  17.098 -0.0159  0.1071 -0.3582
11904TIP3    H157203   4.474   3.383  17.011 -1.0614  0.1624 -0.8743
11904TIP3    H257204   4.434   3.303  17.134 -0.2984 -0.0706 -0.7709
11905TIP3   OH257205   3.606   1.425  16.266  0.1665  0.1505  0.2633
11905TIP3    H157206   3.665   1.362  16.308 -0.4724 -0.7193 -0.1322
11905TIP3    H257207   3.584   1.386  16.182 -0.5856  0.7041  0.1901
11906TIP3   OH257208   6.181   5.035   2.654  0.5062 -0.2762 -0.3048
11906TIP3    H157209   6.091   5.006   2.639 -0.6812  2.2254  1.2967
11906TIP3    H257210   6.225   5.019   2.570 -1.9874  0.3039 -1.8552
11907TIP3   OH257211   6.147   0.807   3.552  0.2784  0.1876 -1.2332
11907TIP3    H157212   6.149   0.842   3.640 -0.5256 -2.2511 -0.1447
11907TIP3    H257213   6.057   0.775   3.540  1.1780 -2.5491 -1.5616
11908TIP3   OH257214   6.650   0.670   0.576 -0.2174 -0.2668  0.4782
11908TIP3    H157215   6.719   0.684   0.512  0.7031 -0.6161  1.3785
11908TIP3    H257216   6.582   0.734   0.552 -0.8350 -1.7136 -2.0782
11909TIP3   OH257217   2.325   1.269   0.995  0.0489 -0.7192 -0.3150
11909TIP3    H157218   2.395   1.204   0.992  0.4433 -0.4345  1.2190
11909TIP3    H257219   2.303   1.275   1.088  0.2086  1.4858 -0.3495
11910TIP3   OH257220   0.897   6.334  16.750 -0.1776  0.0797  0.0536
11910TIP3    H157221   0.968   6.355  16.811  0.5699 -0.2850 -0.6663
11910TIP3    H257222   0.903   6.239  16.739  0.4261  0.2717 -1.4421
11911TIP3   OH257223   5.049   1.964   0.598  0.0647 -0.3154  0.3647
11911TIP3    H157224   5.052   1.970   0.503 -1.2613 -0.4285  0.3028
11911TIP3    H257225   5.098   1.884   0.618 -0.1227 -0.5944 -0.2651
11912TIP3   OH257226   6.149   1.264  15.578  0.2758 -0.3850 -0.7781
11912TIP3    H157227   6.062   1.231  15.599 -0.4694  0.6192 -2.1129
11912TIP3    H257228   6.141   1.359  15.585  0.8997 -0.2073 -2.0893
11913TIP3   OH257229   5.970   2.770  16.033  0.0137 -0.0082 -0.2644
11913TIP3    H157230   6.061   2.794  16.012  0.3422 -0.2112  0.8374
11913TIP3    H257231   5.948   2.825  16.108 -0.3646 -0.8043  0.2170
11914TIP3   OH257232   6.643   4.101   6.042 -0.0047 -0.6162  0.4772
11914TIP3    H157233   6.631   4.179   5.989  1.3102 -0.4769  0.3433
11914TIP3    H257234   6.557   4.084   6.081  0.2367  2.4838  2.6802
11915TIP3   OH257235   6.192   3.711   5.024 -0.0070 -0.1425 -0.3513
11915TIP3    H157236   6.145   3.633   5.054 -0.4748  0.7313  1.3399
11915TIP3    H257237   6.206   3.696   4.931 -2.9737 -0.8116 -0.8056
11916TIP3   OH257238   0.731   3.229  16.668 -0.3189 -0.8696 -0.2056
11916TIP3    H157239   0.724   3.181  16.586  1.9434 -0.4761 -0.6861
11916TIP3    H257240   0.759   3.163  16.732  1.6803 -0.4701 -0.6220
11917TIP3   OH257241   3.281   1.221   0.413 -0.0410  0.6469  0.3741
11917TIP3    H157242   3.273   1.298   0.358 -3.1568  0.0620 -0.1877
11917TIP3    H257243   3.220   1.157   0.375  3.0969 -2.5640  0.1909
11918TIP3   OH257244   1.966   3.751   1.401  0.1569  0.1808 -0.2023
11918TIP3    H157245   1.899   3.804   1.357  0.4937  1.1070  0.3792
11918TIP3    H257246   2.049   3.796   1.381  0.9332 -2.0318 -2.6213
11919TIP3   OH257247   0.606   3.269   2.645  0.2407 -0.1002  0.0786
11919TIP3    H157248   0.540   3.336   2.667  0.1517  1.0191 -3.0868
11919TIP3    H257249   0.562   3.213   2.581  1.8824 -0.1852 -1.0129
11920TIP3   OH257250   2.916   5.951   5.070  0.5445  0.6420 -0.2306
11920TIP3    H157251   2.914   5.981   5.161 -0.2215 -0.9642  0.3172
11920TIP3    H257252   2.985   5.885   5.068 -1.2691 -1.3473 -0.1040
11921TIP3   OH257253   2.658   1.228  13.591  0.1773  0.3286  0.4656
11921TIP3    H157254   2.592   1.199  13.528 -1.2139  0.0549  1.9702
11921TIP3    H257255   2.726   1.160  13.587  0.7019  0.9079 -1.5164
11922TIP3   OH257256   0.091   4.308   0.943 -0.4789 -0.2784 -0.0645
11922TIP3    H157257   0.095   4.376   0.876  2.0498  1.7493  1.8874
11922TIP3    H257258   0.159   4.245   0.918 -1.9759 -1.4952 -1.2142
11923TIP3   OH257259   0.105   5.884   1.954 -0.6692 -0.3849  0.2632
11923TIP3    H157260   0.191   5.867   1.915  1.0492  1.0987  3.0359
11923TIP3    H257261   0.068   5.797   1.970 -0.4009 -1.0380 -2.3093
11924TIP3   OH257262   1.787   0.931   5.845  0.3714  0.3574 -0.8619
11924TIP3    H157263   1.805   0.844   5.809  3.7412  0.3204  0.5392
11924TIP3    H257264   1.695   0.928   5.872  0.1463 -2.4375 -1.6352
11925TIP3   OH257265   6.083   2.453  11.972  0.1389  0.4614 -0.4153
11925TIP3    H157266   6.050   2.363  11.971 -2.9004  1.4753 -1.5034
11925TIP3    H257267   6.147   2.456  11.900 -0.2474 -0.6567 -0.8251
11926TIP3   OH257268   1.119   2.081   1.964  0.6139  0.6917  0.1849
11926TIP3    H157269   1.183   2.078   2.036 -0.8620 -0.9878  1.5345
11926TIP3    H257270   1.134   1.999   1.916 -0.5925  0.1919  0.6227
11927TIP3   OH257271   1.554   4.855   4.163  0.0967  0.5648  0.0535
11927TIP3    H157272   1.578   4.927   4.104 -0.6828 -0.0302 -1.0191
11927TIP3    H257273   1.601   4.779   4.129  0.3210  0.3935  0.7303
11928TIP3   OH257274   4.882   4.079   4.027  0.1122  0.8421  0.4018
11928TIP3    H157275   4.969   4.039   4.028 -0.3892 -0.4525  3.2390
11928TIP3    H257276   4.899   4.173   4.024  1.5246  0.5834 -0.6448
11929TIP3   OH257277   4.665   1.434   1.762 -0.5900  0.5739 -0.4385
11929TIP3    H157278   4.657   1.468   1.851  2.6909 -1.8778  1.0105
11929TIP3    H257279   4.606   1.359   1.759  0.8012 -0.6181  0.5115
11930TIP3   OH257280   2.267   4.706  13.289  0.2914  0.1744  0.0435
11930TIP3    H157281   2.303   4.625  13.325 -0.1361  0.4576  1.1644
11930TIP3    H257282   2.343   4.764  13.281  0.1452  0.9233  2.8200
11931TIP3   OH257283   1.818   4.026   5.971 -0.4238  0.5635 -0.3226
11931TIP3    H157284   1.751   3.958   5.982 -0.8906  0.7520 -1.7754
11931TIP3    H257285   1.822   4.069   6.056 -0.9004 -0.5826  0.3022
11932TIP3   OH257286   4.203   4.892  16.626 -0.1248  0.5323 -0.1261
11932TIP3    H157287   4.151   4.829  16.677  0.1049  0.8465  0.5152
11932TIP3    H257288   4.250   4.838  16.562  0.4634 -0.0280  0.7521
11933TIP3   OH257289   1.953   0.648  14.034 -0.3065  0.1308 -0.0992
11933TIP3    H157290   1.951   0.605  14.120 -0.3476 -0.7757 -0.5420
11933TIP3    H257291   2.046   0.654  14.012 -0.2070  1.5466  0.5637
11934TIP3   OH257292   2.144   0.582   1.595 -0.3913  0.2626 -0.3056
11934TIP3    H157293   2.218   0.581   1.656  0.6705  0.8109 -1.5247
11934TIP3    H257294   2.168   0.648   1.530 -2.2881  0.9461 -0.3671
11935TIP3   OH257295   0.052   0.568  15.333  0.4018 -1.1112 -0.1860
11935TIP3    H157296   0.066   0.557  15.239 -0.1371  0.0915 -0.4269
11935TIP3    H257297   0.015   0.485  15.362  1.0523 -1.6698 -0.9299
11936TIP3   OH257298   6.822   6.414  14.552  0.1566 -0.2436  0.7131
11936TIP3    H157299   6.874   6.368  14.618 -1.4957 -2.9345  0.3323
11936TIP3    H257300   6.736   6.372  14.556 -0.1885 -0.1661 -2.7223
11937TIP3   OH257301   4.933   0.504  12.540 -0.1293 -0.1248 -0.3216
11937TIP3    H157302   4.985   0.554  12.603 -0.7186 -1.2032  1.0764
11937TIP3    H257303   4.847   0.495  12.581 -1.4264  1.4248 -2.4803
11938TIP3   OH257304   5.653   6.442  14.987  0.4716 -0.5092  0.3176
11938TIP3    H157305   5.692   6.475  15.068  0.1528 -1.3404  0.8283
11938TIP3    H257306   5.619   6.520  14.943  2.4383  0.2110 -0.0295
11939TIP3   OH257307   3.553   5.079   3.088  0.1810 -0.0655  0.0467
11939TIP3    H157308   3.564   5.138   3.013  0.8804  0.2803  0.4002
11939TIP3    H257309   3.542   4.992   3.050  0.2182  0.1525 -0.4631
11940TIP3   OH257310   3.652   0.059  11.438 -0.6525 -0.1909  0.2530
11940TIP3    H157311   3.563   0.024  11.441 -0.1712 -1.6997 -1.1531
11940TIP3    H257312   3.684   0.034  11.351  0.3803  2.2851 -0.1489
11941TIP3   OH257313   1.691   6.479  11.849  0.1630 -0.3232 -0.0106
11941TIP3    H157314   1.637   6.471  11.770 -0.2105 -0.2908  0.2406
11941TIP3    H257315   1.698   6.573  11.865 -0.5899 -0.3615  0.5602
11942TIP3   OH257316   3.786   3.704   0.938 -0.0973  0.1531 -0.5098
11942TIP3    H157317   3.801   3.631   0.998 -3.0952 -1.0738 -1.0607
11942TIP3    H257318   3.802   3.667   0.851  0.9301  0.9396 -0.6642
11943TIP3   OH257319   1.707   2.104   4.755 -0.3056 -0.7169 -0.1412
11943TIP3    H157320   1.621   2.135   4.783 -0.3628 -1.1529  0.1720
11943TIP3    H257321   1.702   2.009   4.761  0.1235 -0.7576 -0.3512
11944TIP3   OH257322   6.592   2.853   1.785 -0.6390 -0.0956  0.5158
11944TIP3    H157323   6.636   2.937   1.769 -0.1462 -0.5058 -0.3423
11944TIP3    H257324   6.530   2.872   1.856 -1.4087  1.3008 -0.4827
11945TIP3   OH257325   5.742   5.136   2.859 -0.4181  0.4108  0.5689
11945TIP3    H157326   5.765   5.221   2.822 -1.1892 -0.3769 -1.9232
11945TIP3    H257327   5.660   5.112   2.816 -0.2341 -1.5953  1.2276
11946TIP3   OH257328   6.093   1.500   5.376  0.2390 -0.7434 -0.2931
11946TIP3    H157329   6.164   1.456   5.423  0.9218 -0.1530 -0.7499
11946TIP3    H257330   6.126   1.511   5.287  0.7656  2.0660  0.1466
11947TIP3   OH257331   5.864   1.110   5.327  0.3574  0.0240  0.3090
11947TIP3    H157332   5.857   1.098   5.422  1.2771  1.2857  0.5527
11947TIP3    H257333   5.784   1.069   5.292 -1.5867  2.2220  1.8673
11948TIP3   OH257334   5.908   5.140   0.638 -0.3294 -0.4407  0.0749
11948TIP3    H157335   5.924   5.227   0.601  2.3998 -0.1442  1.6547
11948TIP3    H257336   5.830   5.151   0.692 -1.7376  0.2116 -1.9797
11949TIP3   OH257337   4.402   2.394  16.957  0.5272 -0.2069  0.0154
11949TIP3    H157338   4.333   2.328  16.967  1.6173 -1.6791 -1.5640
11949TIP3    H257339   4.482   2.349  16.984  1.4319  0.1033 -1.9296
11950TIP3   OH257340   2.804   0.301  13.983  0.1939  0.0492  0.3420
11950TIP3    H157341   2.877   0.337  13.932 -0.8412  0.5185 -0.8927
11950TIP3    H257342   2.827   0.209  13.998  0.1464 -0.3815 -1.8515
11951TIP3   OH257343   0.348   4.468  15.053  0.2027 -0.4697 -0.1936
11951TIP3    H157344   0.380   4.434  15.136  0.1999 -0.5308 -0.2174
11951TIP3    H257345   0.257   4.439  15.048 -0.4056  1.1692  0.6777
11952TIP3   OH257346   1.904   0.662   1.693  0.1131  0.2655  0.7791
11952TIP3    H157347   1.879   0.641   1.783  1.4163  0.3055  1.1590
11952TIP3    H257348   1.975   0.602   1.672 -1.6638 -1.3925 -1.0851
11953TIP3   OH257349   0.416   1.479  16.525  0.7248  0.1219 -0.6429
11953TIP3    H157350   0.386   1.433  16.447 -1.0771  0.3039 -0.1023
11953TIP3    H257351   0.344   1.538  16.547  2.8182  3.0862 -1.1661
11954TIP3   OH257352   4.510   3.924  16.761  0.1579  0.1341 -0.4540
11954TIP3    H157353   4.513   3.979  16.683 -2.9776  0.0284 -0.7688
11954TIP3    H257354   4.467   3.979  16.827 -0.6469 -1.0501  0.0382
11955TIP3   OH257355   4.884   5.722  11.281  0.1337  0.1534 -0.1238
11955TIP3    H157356   4.889   5.744  11.188 -0.8856  0.2403 -0.1643
11955TIP3    H257357   4.817   5.654  11.286  0.9148 -0.6014  0.4252
11956TIP3   OH257358   5.288   3.757  16.622  0.3264 -0.2978  0.3861
11956TIP3    H157359   5.196   3.740  16.645  0.4238 -0.7724  0.4379
11956TIP3    H257360   5.336   3.739  16.703  0.6510 -1.8279 -0.1104
11957TIP3   OH257361   1.195   3.735  12.360  0.0599  0.5286 -0.3034
11957TIP3    H157362   1.263   3.685  12.405  3.5290  3.0328 -2.2755
11957TIP3    H257363   1.186   3.691  12.275 -0.5702  0.3869 -0.1649
11958TIP3   OH257364   6.690   5.034   0.215  0.5729  0.6048 -0.4809
11958TIP3    H157365   6.639   5.113   0.198  1.5050  1.4386  0.4405
11958TIP3    H257366   6.779   5.066   0.234  0.9632 -0.6559 -0.0605
11959TIP3   OH257367   6.149   3.159   3.450 -0.1301 -0.0564 -0.2121
11959TIP3    H157368   6.131   3.227   3.384  0.0351  0.0160 -0.1825
11959TIP3    H257369   6.225   3.192   3.497  0.2586 -0.5003 -0.5249
11960TIP3   OH257370   6.489   2.883   3.033  1.0235 -0.4181  0.6706
11960TIP3    H157371   6.563   2.934   3.000 -0.7062  1.4417 -0.5608
11960TIP3    H257372   6.479   2.811   2.971  1.6123 -0.5097  0.6815
11961TIP3   OH257373   2.726   6.315  12.324  0.3696 -0.8377  0.6784
11961TIP3    H157374   2.641   6.354  12.342  0.5034 -0.0987 -0.1635
11961TIP3    H257375   2.732   6.313  12.228  1.4984 -0.3600  0.7100
11962TIP3   OH257376   6.599   2.681   4.537 -0.5541  0.1187  0.3567
11962TIP3    H157377   6.527   2.719   4.587 -1.5538 -1.6967  0.4061
11962TIP3    H257378   6.591   2.721   4.450 -1.4456  0.1841  0.4513
11963TIP3   OH257379   3.255   3.931   1.254 -0.2468 -0.2278  0.1490
11963TIP3    H157380   3.190   3.941   1.324  1.3015 -0.1991  1.6421
11963TIP3    H257381   3.270   3.836   1.248 -0.1882 -0.2119  0.0374
11964TIP3   OH257382   6.249   0.878  17.191 -0.0522  0.0140  0.2947
11964TIP3    H157383   6.251   0.784  17.209  1.5013 -0.1738 -0.6396
11964TIP3    H257384   6.264   0.885  17.097 -2.6815  1.1408 -0.1178
11965TIP3   OH257385   5.711   0.810   1.775 -0.3159 -0.2208 -0.0717
11965TIP3    H157386   5.775   0.738   1.779  0.1295  0.1784  0.0449
11965TIP3    H257387   5.718   0.842   1.685  0.3642  0.4605  0.2103
11966TIP3   OH257388   3.748   3.460   4.256  0.0609  0.4033  0.0994
11966TIP3    H157389   3.803   3.509   4.317 -0.8325  0.2720  1.0294
11966TIP3    H257390   3.767   3.368   4.276 -0.0606  0.3577  0.0081
11967TIP3   OH257391   1.793   0.674  14.621  0.8189  0.8521 -0.5584
11967TIP3    H157392   1.764   0.611  14.555  0.6067  2.2490 -1.8659
11967TIP3    H257393   1.733   0.662  14.695  1.1191 -0.8105 -0.5379
11968TIP3   OH257394   0.539   2.013   5.116 -0.0059  0.0896 -0.1973
11968TIP3    H157395   0.486   2.078   5.162  0.3758  0.3532 -0.1322
11968TIP3    H257396   0.478   1.973   5.054 -0.1629  0.7535 -0.4873
11969TIP3   OH257397   5.421   2.060   1.790 -0.2980 -0.7054  0.6485
11969TIP3    H157398   5.443   2.027   1.877 -0.4763  1.3899  1.5684
11969TIP3    H257399   5.328   2.083   1.796 -0.1158  0.2042  0.1883
11970TIP3   OH257400   6.658   5.680  16.550 -0.1755 -0.3919 -0.3181
11970TIP3    H157401   6.596   5.695  16.479  2.2648 -0.6223 -2.6768
11970TIP3    H257402   6.729   5.629  16.510  1.3124 -0.5795  2.3139
11971TIP3   OH257403   2.439   0.247   5.842 -0.8123 -0.4061  0.0266
11971TIP3    H157404   2.426   0.153   5.836 -1.7001 -0.2325 -1.2994
11971TIP3    H257405   2.486   0.269   5.761  0.8309  0.0863  1.0712
11972TIP3   OH257406   3.783   0.799   0.376  0.3809 -0.4258 -0.3262
11972TIP3    H157407   3.754   0.863   0.441  0.8762 -0.7911  0.2615
11972TIP3    H257408   3.719   0.807   0.305 -0.2601 -0.1293  0.2682
11973TIP3   OH257409   6.811   0.997  14.399  0.3436 -0.2238  0.5625
11973TIP3    H157410   6.728   0.991  14.353  1.4695 -0.5945 -1.5461
11973TIP3    H257411   6.864   0.925  14.364  0.7589 -1.6407  3.7235
11974TIP3   OH257412   5.950   1.615   1.731 -0.0634  0.7396  0.1729
11974TIP3    H157413   6.004   1.635   1.808 -0.7387  0.2455  0.7833
11974TIP3    H257414   6.011   1.571   1.671  0.1896  0.0148  0.9305
11975TIP3   OH257415   2.530   2.032   5.524  0.1745  0.3493  0.5608
11975TIP3    H157416   2.562   2.013   5.435 -0.8492 -1.0939  0.4642
11975TIP3    H257417   2.456   1.972   5.536 -0.4887  1.3831  1.9404
11976TIP3   OH257418   1.449   3.301  16.971 -0.5054 -0.6185  0.4568
11976TIP3    H157419   1.434   3.393  16.994 -2.3009 -0.7308 -0.0710
11976TIP3    H257420   1.528   3.276  17.019  0.9398  1.6184 -0.5749
11977TIP3   OH257421   5.930   4.492   3.808 -0.2018 -0.1846 -0.3217
11977TIP3    H157422   5.982   4.431   3.755 -1.3003  0.0477 -1.7211
11977TIP3    H257423   5.943   4.577   3.766  0.4619  0.3820  0.9775
11978TIP3   OH257424   6.645   0.125   5.104  0.3351 -0.2082 -0.3521
11978TIP3    H157425   6.595   0.170   5.172 -0.4778 -0.8873 -0.4741
11978TIP3    H257426   6.661   0.192   5.038  1.1051  0.4491  0.4814
11979TIP3   OH257427   6.365   4.732  15.311 -0.2809 -0.3795  0.1270
11979TIP3    H157428   6.440   4.674  15.303 -0.5139 -0.7560  0.6036
11979TIP3    H257429   6.402   4.820  15.302  0.2316 -0.5563  0.4497
11980TIP3   OH257430   5.146   5.116   2.594 -0.1061 -0.0704 -0.1583
11980TIP3    H157431   5.175   5.159   2.674  0.2951 -0.2413 -0.2117
11980TIP3    H257432   5.151   5.184   2.527  0.5127 -0.1909 -0.2396
11981TIP3   OH257433   0.792   3.832   4.571  0.1890  0.1385  0.1628
11981TIP3    H157434   0.799   3.832   4.476 -0.0437  1.8709  0.0990
11981TIP3    H257435   0.775   3.741   4.595 -1.9221 -0.0044 -1.6275
11982TIP3   OH257436   0.629   4.883   2.091 -0.2317  0.4037 -0.2817
11982TIP3    H157437   0.648   4.870   1.998  0.6118 -1.1547  0.0721
11982TIP3    H257438   0.535   4.868   2.099 -0.0538 -1.1075 -0.6631
11983TIP3   OH257439   4.203   0.793   3.186  0.3421 -0.4642  0.1837
11983TIP3    H157440   4.210   0.713   3.239 -0.3053 -0.7891 -0.2113
11983TIP3    H257441   4.282   0.843   3.208 -0.1698 -0.3354  1.8701
11984TIP3   OH257442   2.896   5.647  11.318 -0.7477  0.3091 -0.1999
11984TIP3    H157443   2.858   5.648  11.231 -0.4985 -0.0962 -0.3126
11984TIP3    H257444   2.916   5.555  11.336  2.4113  0.6886 -1.1477
11985TIP3   OH257445   1.547   1.004  14.155  0.6818 -0.6436  0.2755
11985TIP3    H157446   1.641   0.993  14.167  0.4232 -3.5502  0.4273
11985TIP3    H257447   1.507   0.944  14.219 -1.2153 -0.4658 -0.6603
11986TIP3   OH257448   5.968   4.503   5.251  0.0208 -0.0461 -0.1468
11986TIP3    H157449   5.894   4.444   5.237  0.3950 -0.2776 -1.2482
11986TIP3    H257450   6.044   4.454   5.221  0.5166  0.4982  0.1999
11987TIP3   OH257451   2.314   5.369   4.481 -0.6052  0.3421  0.2688
11987TIP3    H157452   2.390   5.326   4.442 -1.8388 -0.0973 -1.8299
11987TIP3    H257453   2.323   5.461   4.456 -1.0799  0.1744 -0.5220
11988TIP3   OH257454   0.505   2.788   2.903  0.1736 -0.0958 -0.1686
11988TIP3    H157455   0.506   2.755   2.993  0.2226  1.6301  0.5010
11988TIP3    H257456   0.465   2.718   2.852 -0.9842 -0.6348  1.4009
11989TIP3   OH257457   6.669   3.143  14.975  0.1361 -0.0161  0.4217
11989TIP3    H157458   6.576   3.124  14.960 -0.0120  1.7985 -1.4550
11989TIP3    H257459   6.714   3.063  14.947 -0.7582 -0.1005 -0.8687
11990TIP3   OH257460   0.082   6.354   1.101  0.2774  0.0154  0.3110
11990TIP3    H157461   0.060   6.423   1.164 -0.2813  0.5277 -0.4234
11990TIP3    H257462   0.172   6.373   1.075 -0.2782  1.2504 -0.8311
11991TIP3   OH257463   1.618   1.822  15.916 -0.6812  0.3753 -0.0446
11991TIP3    H157464   1.532   1.782  15.928  0.5538 -3.2845 -1.7839
11991TIP3    H257465   1.667   1.796  15.995 -0.0448 -1.2436 -0.9214
11992TIP3   OH257466   5.540   3.444  16.785 -0.3332 -0.0605  0.1847
11992TIP3    H157467   5.545   3.519  16.844  0.0625 -0.0537  0.1517
11992TIP3    H257468   5.485   3.473  16.712  0.3770  0.4457 -0.1680
11993TIP3   OH257469   5.256   0.072   4.171 -0.4558  0.3424  0.1608
11993TIP3    H157470   5.339   0.093   4.128 -0.5308  0.6251  0.1498
11993TIP3    H257471   5.213   0.011   4.111  0.8339 -1.8298  1.3384
11994TIP3   OH257472   3.240   1.999  12.763 -0.6709  0.1944  0.1018
11994TIP3    H157473   3.175   1.955  12.818 -0.2102  0.8673  1.2097
11994TIP3    H257474   3.312   2.020  12.822 -0.2113  1.0401 -0.7264
11995TIP3   OH257475   1.642   4.695  16.055  0.7348 -0.3242  0.0487
11995TIP3    H157476   1.584   4.742  15.996  1.7110 -1.4145 -1.8989
11995TIP3    H257477   1.655   4.754  16.129 -0.8630  0.9436 -0.6260
11996TIP3   OH257478   6.015   2.229  16.104 -0.7803 -0.4259 -0.6097
11996TIP3    H157479   5.937   2.179  16.127 -2.2208  1.2430 -1.5679
11996TIP3    H257480   6.010   2.240  16.009  0.0342  0.6171 -0.5572
11997TIP3   OH257481   3.545   5.951   6.824  0.1516  0.2546 -0.2039
11997TIP3    H157482   3.600   5.874   6.813  0.5766  0.7624 -2.0044
11997TIP3    H257483   3.464   5.929   6.779 -0.4081  0.2284  0.7901
11998TIP3   OH257484   2.257   5.385   0.737 -0.1518  0.1767 -0.8837
11998TIP3    H157485   2.282   5.452   0.673  0.7517 -0.2569 -0.9926
11998TIP3    H257486   2.309   5.404   0.814 -1.3589  0.7943 -0.1943
11999TIP3   OH257487   2.501   4.372   4.718  0.4040 -0.1850  0.1387
11999TIP3    H157488   2.504   4.468   4.712  1.7284 -0.2214 -0.0596
11999TIP3    H257489   2.524   4.342   4.630  0.6105 -0.6908  0.3631
12000TIP3   OH257490   2.122   1.706  15.021 -0.4457  0.2558  0.0136
12000TIP3    H157491   2.091   1.779  14.967 -0.3161 -0.3580 -0.9121
12000TIP3    H257492   2.209   1.732  15.050 -0.7331  0.8235  0.3927
12001TIP3   OH257493   1.895   0.285  12.280  0.2704  0.3113 -0.1280
12001TIP3    H157494   1.806   0.318  12.275  0.2843  0.4248  0.4112
12001TIP3    H257495   1.887   0.192  12.259  0.1849  0.5613 -1.2777
12002TIP3   OH257496   4.723   3.620  11.826  0.0082  0.3339 -0.5302
12002TIP3    H157497   4.658   3.653  11.765 -1.8760  0.3421  1.3810
12002TIP3    H257498   4.795   3.683  11.821 -0.3231  0.6250 -2.2847
12003TIP3   OH257499   5.403   1.100   3.430 -0.4510 -0.0318 -0.2010
12003TIP3    H157500   5.348   1.152   3.489 -3.7620 -0.7982 -2.3238
12003TIP3    H257501   5.387   1.139   3.344  2.3727 -0.4073 -0.9807
12004TIP3   OH257502   4.920   6.466  13.723 -0.5417 -0.0927 -0.3578
12004TIP3    H157503   4.983   6.398  13.699 -0.1494  0.5394 -1.1856
12004TIP3    H257504   4.936   6.537  13.660 -0.4188  1.0861  0.9334
12005TIP3   OH257505   5.422   6.052  15.228  0.1901 -0.0862 -0.4524
12005TIP3    H157506   5.432   6.020  15.318 -0.4808  0.0617 -0.3228
12005TIP3    H257507   5.462   6.140  15.230  1.3639 -0.5958 -0.6294
12006TIP3   OH257508   1.049   4.767   3.640  0.0280  0.1011  0.2664
12006TIP3    H157509   1.035   4.713   3.562 -0.3137  0.8907 -0.2198
12006TIP3    H257510   0.965   4.810   3.655 -0.2372 -0.8386  1.6942
12007TIP3   OH257511   2.075   4.187   3.216 -0.1792  0.5538  0.1850
12007TIP3    H157512   2.045   4.102   3.249 -0.5569  0.6278  0.0392
12007TIP3    H257513   2.043   4.250   3.280  1.2055  0.4824  0.9873
12008TIP3   OH257514   1.052   4.851  12.486  0.5058 -0.3250 -0.0280
12008TIP3    H157515   1.024   4.773  12.533  2.0490 -0.8529  0.0937
12008TIP3    H257516   0.982   4.914  12.499  1.2794 -0.0105  3.9777
12009TIP3   OH257517   1.863   2.257  16.535 -0.3046 -0.5160  0.0684
12009TIP3    H157518   1.839   2.164  16.539 -2.7044 -0.0931 -2.0937
12009TIP3    H257519   1.796   2.302  16.585  0.0298  0.1677 -0.0866
12010TIP3   OH257520   2.430   5.051   4.208  0.5222  0.0400 -0.2351
12010TIP3    H157521   2.473   5.035   4.125  0.8258 -3.1442  0.4072
12010TIP3    H257522   2.490   5.109   4.256  2.4825 -1.5306 -0.6694
12011TIP3   OH257523   0.530   1.842  15.671  0.2651  0.3588 -0.4612
12011TIP3    H157524   0.505   1.785  15.599 -0.8154  1.9229 -1.3890
12011TIP3    H257525   0.585   1.788  15.728 -2.8164 -2.4157  0.1447
12012TIP3   OH257526   0.425   6.687  16.730  0.3223 -0.3183 -0.3003
12012TIP3    H157527   0.347   6.730  16.694  2.4957  0.7002 -4.3771
12012TIP3    H257528   0.397   6.596  16.745 -2.4848  0.7411  1.9431
12013TIP3   OH257529   2.503   0.216  15.648 -0.3456 -0.0811  0.4700
12013TIP3    H157530   2.591   0.252  15.658  0.1236 -1.0997  0.0698
12013TIP3    H257531   2.490   0.211  15.553 -1.2066  0.9336  0.5141
12014TIP3   OH257532   5.361   5.802   5.192  0.5421 -0.1624  0.1094
12014TIP3    H157533   5.293   5.736   5.205  0.1540  0.0147 -0.9274
12014TIP3    H257534   5.443   5.754   5.199  0.2762 -0.6283  0.0573
12015TIP3   OH257535   5.471   4.080   1.874 -0.1300 -0.0227  0.2967
12015TIP3    H157536   5.494   4.036   1.956  0.4035  0.4484  0.3996
12015TIP3    H257537   5.505   4.169   1.884  1.0780 -0.3295 -0.9625
12016TIP3   OH257538   3.540   4.533  16.812 -0.0120  0.6281 -0.0473
12016TIP3    H157539   3.581   4.472  16.751 -1.7417 -1.6923  0.9153
12016TIP3    H257540   3.461   4.563  16.766  0.6868  1.9988 -0.4039
12017TIP3   OH257541   0.309   4.341   4.054  0.5477 -0.7909  0.6197
12017TIP3    H157542   0.307   4.431   4.086 -1.2738 -0.0265 -1.3529
12017TIP3    H257543   0.218   4.312   4.061  0.9923 -2.2599  0.5922
12018TIP3   OH257544   2.300   0.271  12.460 -0.9531  0.1783 -0.4349
12018TIP3    H157545   2.300   0.327  12.383 -2.5211  1.1351  0.2217
12018TIP3    H257546   2.383   0.222  12.454 -0.3887  1.2540 -1.9533
12019TIP3   OH257547   6.617   1.368  11.475  0.4557  0.0865 -0.3027
12019TIP3    H157548   6.696   1.422  11.467  0.0888  0.6503 -0.1857
12019TIP3    H257549   6.582   1.389  11.561  0.0992 -0.0496 -0.4136
12020TIP3   OH257550   0.225   2.031   1.542  0.6770 -0.6497  0.1804
12020TIP3    H157551   0.163   2.096   1.576  1.9284 -0.0419  1.3847
12020TIP3    H257552   0.177   1.948   1.548 -0.4207 -0.0487 -0.0022
12021TIP3   OH257553   3.078   4.415  13.367 -0.0737  0.0292  0.1294
12021TIP3    H157554   3.168   4.399  13.338  0.2709 -1.2480  1.7299
12021TIP3    H257555   3.023   4.377  13.299  0.6175 -0.1792 -0.3226
12022TIP3   OH257556   5.961   2.352  12.346 -0.2514 -0.1891  0.2447
12022TIP3    H157557   5.941   2.435  12.303 -4.1730 -0.4901  1.1085
12022TIP3    H257558   5.965   2.374  12.439  0.7277 -0.7043  0.3419
12023TIP3   OH257559   2.554   2.585   5.103 -0.4693 -0.2906  0.2437
12023TIP3    H157560   2.495   2.521   5.063  0.0084 -1.1538  0.8671
12023TIP3    H257561   2.624   2.597   5.038 -1.4701  1.0066 -0.6487
12024TIP3   OH257562   5.902   3.789   2.896  0.4410  0.0249 -0.4387
12024TIP3    H157563   5.937   3.788   2.986  3.2333  1.0982 -1.3875
12024TIP3    H257564   5.949   3.718   2.852 -0.0864  0.2090 -1.3161
12025TIP3   OH257565   6.254   1.572  13.393  0.7024 -0.1599 -0.0606
12025TIP3    H157566   6.177   1.562  13.336 -0.6523  2.4226  1.1332
12025TIP3    H257567   6.318   1.512  13.357 -1.4919 -1.6424 -1.8026
12026TIP3   OH257568   4.160   3.278   3.598  0.1287  0.1149 -0.1993
12026TIP3    H157569   4.192   3.190   3.621 -0.1344  0.1050  0.1320
12026TIP3    H257570   4.182   3.288   3.505  0.4446 -0.1777 -0.1581
12027TIP3   OH257571   0.531   0.644  12.273 -0.1747  0.4757 -0.0310
12027TIP3    H157572   0.446   0.609  12.302  0.4843 -3.5530 -2.2672
12027TIP3    H257573   0.508   0.717  12.216 -1.9798  0.9492  1.2066
12028TIP3   OH257574   6.374   4.818   4.880 -0.9193  0.0226  0.1410
12028TIP3    H157575   6.287   4.796   4.847 -0.3868 -1.2015 -0.5007
12028TIP3    H257576   6.376   4.781   4.969 -0.9660 -0.1581  0.0662
12029TIP3   OH257577   0.730   4.503   0.088  0.9476  0.6809 -0.2653
12029TIP3    H157578   0.676   4.579   0.110  2.0728  1.4628 -0.1184
12029TIP3    H257579   0.766   4.475   0.172  1.1246  0.4462 -0.4187
12030TIP3   OH257580   1.033   6.181   3.254  0.1912 -0.7348  0.1107
12030TIP3    H157581   1.083   6.155   3.331  1.1404  1.1950  0.2008
12030TIP3    H257582   1.093   6.166   3.181 -0.2360 -1.3153 -0.1334
12031TIP3   OH257583   1.939   6.093   1.450 -0.6911 -0.4060 -0.4786
12031TIP3    H157584   1.868   6.058   1.396 -1.1611 -2.4364  1.2726
12031TIP3    H257585   2.018   6.056   1.412 -0.8219 -0.2491 -0.9096
12032TIP3   OH257586   2.842   5.486   0.227  0.4596  0.1556 -0.6544
12032TIP3    H157587   2.864   5.504   0.136  0.0411  0.0681 -0.7725
12032TIP3    H257588   2.825   5.392   0.229  0.0274  0.2362 -0.5743
12033TIP3   OH257589   3.203   2.572   4.755 -0.2622  0.8495  0.2226
12033TIP3    H157590   3.208   2.480   4.783  1.5026  0.6133 -0.6923
12033TIP3    H257591   3.116   2.601   4.783 -0.9813 -1.1786  0.2784
12034TIP3   OH257592   6.682   3.595  16.851  0.4736  0.4175 -0.0070
12034TIP3    H157593   6.698   3.672  16.907 -0.6970  0.3812  0.3982
12034TIP3    H257594   6.639   3.631  16.774 -0.5294  0.1242  0.4014
12035TIP3   OH257595   3.009   4.560   4.954  0.1144 -0.1868 -0.3344
12035TIP3    H157596   3.005   4.618   4.878 -0.1033 -2.2671 -2.0476
12035TIP3    H257597   2.991   4.473   4.917  1.5684 -1.5082  1.8593
12036TIP3   OH257598   3.598   2.036  11.241  0.0678  0.4393 -0.1717
12036TIP3    H157599   3.636   1.962  11.289 -0.3353  0.7687  0.6657
12036TIP3    H257600   3.584   2.002  11.153  1.0273 -0.1101 -0.1349
12037TIP3   OH257601   5.312   4.303  15.280  0.4384  0.3236  0.5476
12037TIP3    H157602   5.349   4.387  15.310  1.9650 -0.0620 -0.1709
12037TIP3    H257603   5.386   4.257  15.242 -0.5440 -1.0703  0.2704
12038TIP3   OH257604   0.868   3.708  13.828  0.5475 -0.0671  0.2864
12038TIP3    H157605   0.938   3.731  13.767 -0.2129  0.4613 -0.4073
12038TIP3    H257606   0.899   3.627  13.870  1.2171 -0.2819 -0.5840
12039TIP3   OH257607   2.940   6.174  14.952  0.2189  0.1849  0.3118
12039TIP3    H157608   3.027   6.161  14.989  0.1754  0.5408  0.5417
12039TIP3    H257609   2.957   6.216  14.867  0.2746  0.2442  0.3517
12040TIP3   OH257610   2.292   1.836   2.808  0.5458 -0.5170  0.0256
12040TIP3    H157611   2.330   1.916   2.844  1.9428 -1.1198 -0.0451
12040TIP3    H257612   2.293   1.774   2.881  0.0071 -0.6402 -0.0725
12041TIP3   OH257613   1.942   5.374  12.398 -0.0933  0.0835 -0.1801
12041TIP3    H157614   2.031   5.407  12.382 -0.4731  0.1029 -2.5782
12041TIP3    H257615   1.885   5.445  12.369 -0.8850 -1.2591 -2.1161
12042TIP3   OH257616   2.593   2.885  16.330 -0.2097  0.1330  0.1559
12042TIP3    H157617   2.626   2.817  16.389 -1.3329 -0.6015 -0.0318
12042TIP3    H257618   2.547   2.946  16.388 -3.0445 -1.6151 -0.0494
12043TIP3   OH257619   3.982   2.787   0.592 -0.5478  0.3544 -0.4505
12043TIP3    H157620   3.982   2.801   0.497 -0.5808 -2.2135 -0.9136
12043TIP3    H257621   4.065   2.743   0.609 -0.0648  1.7114  0.9226
12044TIP3   OH257622   4.892   5.187  12.355 -0.4739 -0.0243  0.3529
12044TIP3    H157623   4.856   5.240  12.285 -1.2149 -0.7600  0.1597
12044TIP3    H257624   4.953   5.127  12.312  0.1813  0.4988  0.5382
12045TIP3   OH257625   2.592   1.270  16.158 -0.3025 -0.1802 -0.0724
12045TIP3    H157626   2.636   1.298  16.239 -1.2144 -2.2531  1.2286
12045TIP3    H257627   2.611   1.176  16.152 -1.3981 -0.3386 -1.5362
12046TIP3   OH257628   2.750   5.437   2.786  0.8024 -0.5072  0.0464
12046TIP3    H157629   2.789   5.491   2.855  1.5729  0.3342 -1.0130
12046TIP3    H257630   2.670   5.483   2.762  0.6866 -0.6430  0.1698
12047TIP3   OH257631   4.320   0.744   5.931  0.3864 -0.2019  0.1132
12047TIP3    H157632   4.333   0.684   5.857  2.1680 -0.6219  0.7271
12047TIP3    H257633   4.274   0.691   5.996  1.2241 -0.6801  0.3321
12048TIP3   OH257634   5.393   2.896   4.184 -0.6651 -0.5386  0.1023
12048TIP3    H157635   5.301   2.870   4.180 -0.8253  0.0846 -0.5215
12048TIP3    H257636   5.391   2.991   4.174  0.0903 -0.5930 -0.6495
12049TIP3   OH257637   2.148   4.950  13.379 -0.0121 -0.3919 -0.6225
12049TIP3    H157638   2.214   5.012  13.346 -0.3860 -0.1310 -0.8793
12049TIP3    H257639   2.184   4.864  13.358  1.4890 -0.3747  1.4928
12050TIP3   OH257640   4.380   4.121   4.538  0.1007  0.1997  0.4513
12050TIP3    H157641   4.459   4.076   4.506  1.2356  2.4446 -0.1151
12050TIP3    H257642   4.340   4.058   4.598  1.3377 -1.7086 -0.6016
12051TIP3   OH257643   4.392   0.673  10.358  0.1845 -0.3413 -0.4039
12051TIP3    H157644   4.361   0.586  10.334 -0.7347 -0.5844  1.4882
12051TIP3    H257645   4.476   0.658  10.401 -0.6872 -0.5287  1.3458
12052TIP3   OH257646   3.436   4.442   1.889  0.2271  0.7594  0.6800
12052TIP3    H157647   3.501   4.374   1.874 -0.0393  0.4473  0.9424
12052TIP3    H257648   3.446   4.502   1.815 -2.0196 -1.4612 -1.6154
12053TIP3   OH257649   0.567   6.400  16.999 -0.2428  0.6713 -0.2533
12053TIP3    H157650   0.557   6.305  16.995 -2.0859  0.8246 -0.0607
12053TIP3    H257651   0.545   6.430  16.911 -0.5801  0.9788 -0.0669
12054TIP3   OH257652   6.251   2.964  10.872  0.1901 -0.4025 -0.0807
12054TIP3    H157653   6.230   3.057  10.873 -1.3526 -0.7428  0.7173
12054TIP3    H257654   6.309   2.954  10.795 -1.5413  0.8036 -1.6281
12055TIP3   OH257655   5.303   0.919  16.923  0.4779 -0.4812 -0.0723
12055TIP3    H157656   5.371   0.986  16.917  0.2532 -0.2637 -0.1965
12055TIP3    H257657   5.221   0.965  16.904  0.3115 -0.7715 -0.0721
12056TIP3   OH257658   6.469   0.977  13.061  0.6115  0.1098  0.3975
12056TIP3    H157659   6.412   0.900  13.065  0.3421  0.2606 -0.3241
12056TIP3    H257660   6.492   0.995  13.152  0.6474 -0.8002  0.5788
12057TIP3   OH257661   4.904   5.037   3.803  0.1793  0.5280  0.2886
12057TIP3    H157662   4.989   5.013   3.767  0.9534  0.6958  1.9099
12057TIP3    H257663   4.860   4.953   3.819 -0.0010  0.4431 -0.6277
12058TIP3   OH257664   4.922   5.443  16.956 -0.4086 -0.4034 -0.2772
12058TIP3    H157665   4.942   5.460  17.048 -2.2300 -0.9422  0.2702
12058TIP3    H257666   4.938   5.349  16.945 -1.3450 -0.5872 -0.1610
12059TIP3   OH257667   5.083   4.371  13.682  0.7192 -0.4305 -0.2201
12059TIP3    H157668   5.110   4.282  13.704 -0.5584 -0.8167 -0.1053
12059TIP3    H257669   4.994   4.378  13.716  1.1584  1.2636  0.7254
12060TIP3   OH257670   5.629   0.733   2.051  0.3083  0.5204  0.3116
12060TIP3    H157671   5.646   0.768   1.964  0.6996  0.7168  0.4628
12060TIP3    H257672   5.551   0.678   2.041  0.9917 -0.3594 -0.4072
12061TIP3   OH257673   0.611   3.594  16.760 -0.1511  0.5852  0.6031
12061TIP3    H157674   0.692   3.618  16.715  0.3228 -1.3492  0.3323
12061TIP3    H257675   0.637   3.528  16.824 -1.5235 -0.1632  0.4392
12062TIP3   OH257676   2.421   5.744   3.028  0.1938 -0.0998  0.3178
12062TIP3    H157677   2.435   5.827   2.982  0.0561  0.7075  1.6874
12062TIP3    H257678   2.452   5.760   3.117 -1.0083 -1.1111  0.9488
12063TIP3   OH257679   3.493   0.511   2.763 -0.0818  0.4051 -0.1035
12063TIP3    H157680   3.456   0.548   2.843  1.3916  0.1496  0.7256
12063TIP3    H257681   3.526   0.588   2.715 -0.3874  0.5026 -0.1576
12064TIP3   OH257682   3.127   4.379  16.496  0.2070 -0.2892 -0.3893
12064TIP3    H157683   3.106   4.374  16.590  2.6985 -2.0022  0.1712
12064TIP3    H257684   3.184   4.456  16.489 -0.0256 -0.1281 -0.5157
12065TIP3   OH257685   1.662   6.561  14.303  0.4707 -0.0827  0.3447
12065TIP3    H157686   1.696   6.498  14.239 -0.7259  0.3478 -0.7593
12065TIP3    H257687   1.628   6.507  14.374  0.5115 -0.6383 -0.0476
12066TIP3   OH257688   2.763   4.489  14.040 -0.0804 -0.0510 -0.0597
12066TIP3    H157689   2.741   4.578  14.070  1.2415  0.2437  0.1077
12066TIP3    H257690   2.789   4.444  14.120  3.0094  0.5908 -0.5800
12067TIP3   OH257691   2.533   4.978   0.855 -0.1337  0.0481  0.3869
12067TIP3    H157692   2.474   4.939   0.791  0.0252  0.3964  0.0191
12067TIP3    H257693   2.554   4.907   0.915 -1.3667  0.0690  0.8520
12068TIP3   OH257694   4.065   0.070  13.084 -0.6028 -0.1648  0.7653
12068TIP3    H157695   4.150   0.091  13.124 -0.6590  0.0034  0.7988
12068TIP3    H257696   4.031  -0.003  13.137  0.0673 -1.0586 -0.0015
12069TIP3   OH257697   1.079   2.855   4.605  0.2121  0.3700  0.0276
12069TIP3    H157698   1.049   2.904   4.682 -1.9059 -0.4152 -0.2297
12069TIP3    H257699   1.073   2.917   4.533  1.5037  0.8932  0.3408
12070TIP3   OH257700   5.924   4.052   0.706 -0.1162  0.5325  0.5997
12070TIP3    H157701   5.980   4.020   0.777 -0.3149  0.9635  0.9540
12070TIP3    H257702   5.984   4.064   0.632  0.7712  3.3460  1.6569
12071TIP3   OH257703   2.646   5.814  11.937 -0.0694  0.6822 -0.2326
12071TIP3    H157704   2.736   5.791  11.962  0.5804  0.5284 -2.5143
12071TIP3    H257705   2.629   5.895  11.985  0.9353  0.2433  0.9369
12072TIP3   OH257706   4.355   4.615   0.446 -0.2226  0.7640  0.3656
12072TIP3    H157707   4.324   4.526   0.462 -1.1271  0.9728 -0.1788
12072TIP3    H257708   4.376   4.650   0.533 -2.1924  0.8579  0.8376
12073TIP3   OH257709   4.182   0.670  17.093 -0.0763  0.1049  0.2313
12073TIP3    H157710   4.200   0.636  17.005  1.3836  1.4249 -0.0194
12073TIP3    H257711   4.105   0.725  17.082 -0.9817 -1.1361  0.1587
12074TIP3   OH257712   2.831   0.273   1.421 -0.7579  0.3792  0.9628
12074TIP3    H157713   2.781   0.202   1.460 -1.3299 -1.5352 -2.7603
12074TIP3    H257714   2.840   0.248   1.329 -0.3040  4.7842 -0.4360
12075TIP3   OH257715   0.501   1.239  11.824 -0.3649  0.2043 -0.0342
12075TIP3    H157716   0.474   1.274  11.739  2.0898  0.0817 -0.9722
12075TIP3    H257717   0.596   1.255  11.826 -0.0676 -1.4951  1.8772
12076TIP3   OH257718   5.053   0.444   4.790 -0.8309  0.2342  0.2835
12076TIP3    H157719   5.027   0.385   4.860 -0.1053 -0.7546 -0.2448
12076TIP3    H257720   5.066   0.387   4.714  1.4575  0.8182  0.1553
12077TIP3   OH257721   3.926   4.625  13.460 -0.0327  0.2977 -0.6890
12077TIP3    H157722   3.917   4.660  13.371  0.1537 -1.1138 -1.2809
12077TIP3    H257723   4.006   4.666  13.494  0.5815 -0.0849 -1.6311
12078TIP3   OH257724   4.568   2.541   2.118  0.1032  0.6048  0.2985
12078TIP3    H157725   4.504   2.491   2.067  0.7828  0.7732 -0.7463
12078TIP3    H257726   4.652   2.518   2.080  0.5328  1.5901  0.6198
12079TIP3   OH257727   2.336   1.270  16.050 -0.0628 -0.1469 -0.4988
12079TIP3    H157728   2.427   1.253  16.070 -0.4155 -1.1806  0.3173
12079TIP3    H257729   2.304   1.323  16.123  0.2005  1.3186 -1.4240
12080TIP3   OH257730   0.254   4.658  15.735 -0.3630  0.6606 -0.6571
12080TIP3    H157731   0.257   4.736  15.791 -0.1687  0.6299 -0.6219
12080TIP3    H257732   0.162   4.632  15.734 -0.5222  1.2281 -1.1331
12081TIP3   OH257733   4.914   4.509  16.796 -0.3103  0.3812 -0.3368
12081TIP3    H157734   4.991   4.475  16.752 -0.6362 -1.0732  0.1666
12081TIP3    H257735   4.855   4.535  16.726 -0.5871 -1.3614 -0.7868
12082TIP3   OH257736   1.045   1.403  17.048  0.0582  0.3825 -0.1298
12082TIP3    H157737   1.014   1.447  16.969 -1.3651 -1.2814 -0.5663
12082TIP3    H257738   1.129   1.365  17.022 -0.6229 -0.5583 -1.0257
12083TIP3   OH257739   0.213   2.430  14.420 -0.2296  0.0060 -0.2710
12083TIP3    H157740   0.163   2.511  14.431 -0.3224 -0.2071  1.1565
12083TIP3    H257741   0.169   2.384  14.348 -0.8114  0.7635 -0.4130
12084TIP3   OH257742   1.522   6.781   4.250  0.4737  0.2796  0.2821
12084TIP3    H157743   1.576   6.702   4.257  2.9118  1.9499  1.6491
12084TIP3    H257744   1.570   6.836   4.188 -1.3301  0.6464 -0.8481
12085TIP3   OH257745   4.480   5.941  14.073 -0.8117 -0.2442 -0.4408
12085TIP3    H157746   4.423   5.864  14.062  0.4823 -1.0194 -2.2607
12085TIP3    H257747   4.551   5.910  14.129 -2.1036  0.7368  1.8681
12086TIP3   OH257748   1.024   3.467  15.215 -0.2570  0.1598 -0.2054
12086TIP3    H157749   1.029   3.522  15.293  1.0706 -0.9830  0.5607
12086TIP3    H257750   1.072   3.515  15.148  1.1458 -0.1542  0.5366
12087TIP3   OH257751   1.265   1.669  16.569  0.1002  0.3395 -0.2910
12087TIP3    H157752   1.239   1.738  16.630 -0.9129  2.2861 -2.7463
12087TIP3    H257753   1.358   1.655  16.587 -0.3105  0.3703  2.0677
12088TIP3   OH257754   3.007   4.701  11.848  0.5288 -0.0103 -0.5513
12088TIP3    H157755   2.996   4.720  11.941  0.3312  0.9515 -0.7598
12088TIP3    H257756   2.919   4.685  11.815  0.6617 -0.9894 -0.4487
12089TIP3   OH257757   2.340   3.664   1.035  0.1272 -0.1054 -0.2035
12089TIP3    H157758   2.429   3.692   1.056  0.5443 -0.9594 -0.7707
12089TIP3    H257759   2.313   3.611   1.110 -0.0130  0.3600  0.0838
12090TIP3   OH257760   2.416   3.156   1.712 -0.1119  0.4791  0.1244
12090TIP3    H157761   2.400   3.176   1.620 -2.2404  0.8415  0.5254
12090TIP3    H257762   2.345   3.096   1.737 -0.4017  1.4683  1.8595
12091TIP3   OH257763   6.074   5.156  12.861  0.7107  0.0974 -0.0230
12091TIP3    H157764   6.096   5.233  12.808 -1.0423  0.6300 -0.0460
12091TIP3    H257765   6.008   5.188  12.923 -0.7317 -1.5485 -0.6119
12092TIP3   OH257766   4.591   2.525  14.756 -0.5250  0.2975  0.4199
12092TIP3    H157767   4.682   2.499  14.744 -0.3631  0.9940  0.0548
12092TIP3    H257768   4.593   2.590  14.826 -0.5542  1.2345 -0.4156
12093TIP3   OH257769   6.677   3.087  13.608  0.2292 -0.2985 -0.5125
12093TIP3    H157770   6.730   3.008  13.618 -0.5489 -0.8108 -0.3719
12093TIP3    H257771   6.706   3.126  13.525  1.4113 -0.1086 -0.0285
12094TIP3   OH257772   0.023   2.445   0.890 -0.2639  0.2842 -0.4533
12094TIP3    H157773  -0.012   2.444   0.801 -1.1764 -0.6246 -0.1082
12094TIP3    H257774  -0.006   2.362   0.928 -1.8923  1.6198  1.4434
12095TIP3   OH257775   6.498   1.971  14.627 -0.0565 -0.3363  0.3217
12095TIP3    H157776   6.593   1.984  14.637  0.8231 -1.5883 -4.1403
12095TIP3    H257777   6.468   2.053  14.587 -0.1705 -1.0839 -1.1789
12096TIP3   OH257778   3.242   2.813  11.614 -0.1177 -0.0818  0.0528
12096TIP3    H157779   3.295   2.866  11.555 -1.9047  0.4919 -1.1130
12096TIP3    H257780   3.265   2.722  11.593 -1.1238  0.0907 -1.9938
12097TIP3   OH257781   2.915   3.487   3.361 -0.4739 -0.0471  0.0785
12097TIP3    H157782   2.890   3.548   3.291 -0.8633  0.8680  0.9927
12097TIP3    H257783   2.984   3.433   3.321 -1.9624 -0.7999 -1.6003
12098TIP3   OH257784   0.066   6.212  14.711  0.0181  0.8445  0.2808
12098TIP3    H157785   0.066   6.217  14.806 -0.1336 -1.8057  0.4961
12098TIP3    H257786  -0.012   6.161  14.689  1.1069 -0.3292 -1.0808
12099TIP3   OH257787   1.372   1.508   5.674  0.6766  0.6978  0.8500
12099TIP3    H157788   1.300   1.478   5.618  0.8234  0.8653  0.5707
12099TIP3    H257789   1.364   1.455   5.754  0.2044  0.7573  0.8490
12100TIP3   OH257790   3.689   6.261   1.957 -0.2739 -0.0545  0.1285
12100TIP3    H157791   3.751   6.198   1.992  0.4836  0.4116 -0.3422
12100TIP3    H257792   3.655   6.307   2.034 -0.6660 -0.8684  0.4541
12101TIP3   OH257793   6.777   1.125  10.502  0.1526  0.1019  0.2646
12101TIP3    H157794   6.748   1.071  10.428  0.0953  0.2606  0.1705
12101TIP3    H257795   6.870   1.104  10.512 -0.3590 -1.7058  1.6779
12102TIP3   OH257796   4.539   5.449   5.416 -0.0927  0.1967  0.3624
12102TIP3    H157797   4.479   5.485   5.351 -0.2862 -0.2375  0.2986
12102TIP3    H257798   4.490   5.378   5.457 -0.1003  0.6817  1.2229
12103TIP3   OH257799   1.355   5.282  14.852 -0.3764 -0.5465  0.9015
12103TIP3    H157800   1.434   5.323  14.888 -0.6217 -0.5139  1.4082
12103TIP3    H257801   1.285   5.308  14.911 -1.1471  1.0434 -0.6131
12104TIP3   OH257802   3.616   6.332  12.949  0.3861 -0.4886  0.1052
12104TIP3    H157803   3.656   6.384  13.019 -1.1618 -0.4517  1.0257
12104TIP3    H257804   3.527   6.314  12.981 -0.8115  0.5160 -2.3586
12105TIP3   OH257805   5.564   0.262  15.371 -0.1034  0.1560  0.6242
12105TIP3    H157806   5.543   0.211  15.450  1.3626 -1.0672  0.2794
12105TIP3    H257807   5.644   0.220  15.337 -0.1522  1.2908 -0.9574
12106TIP3   OH257808   0.105   0.115   4.059  0.3822 -0.6292 -0.6026
12106TIP3    H157809   0.037   0.064   4.103  1.1663 -1.0010  0.2132
12106TIP3    H257810   0.101   0.201   4.100 -0.3128 -0.3021 -1.3241
12107TIP3   OH257811   2.527   4.966   2.898 -0.4639  0.1226 -0.2044
12107TIP3    H157812   2.534   4.913   2.818 -1.2539  0.4765 -0.5091
12107TIP3    H257813   2.608   4.946   2.945 -0.3857 -0.7658 -0.6752
12108TIP3   OH257814   5.999   3.379  11.192 -0.0225 -0.1223 -0.1267
12108TIP3    H157815   5.927   3.438  11.168  0.3860 -0.0480 -1.2161
12108TIP3    H257816   6.066   3.395  11.127  0.3481 -1.3507 -0.0716
12109TIP3   OH257817   0.695   4.426  12.753  0.3313 -0.0456  0.3992
12109TIP3    H157818   0.660   4.482  12.821 -0.5930 -1.9857  1.6027
12109TIP3    H257819   0.757   4.368  12.798 -0.1905 -1.2749 -0.3905
12110TIP3   OH257820   0.025   4.848  13.263 -0.0523 -0.0678  0.4982
12110TIP3    H157821   0.006   4.856  13.356  1.5119  0.8370  0.7790
12110TIP3    H257822   0.094   4.781  13.258 -0.1731 -0.1626 -0.0143
12111TIP3   OH257823   4.792   0.846  14.621 -0.0220 -0.6835 -0.0144
12111TIP3    H157824   4.709   0.801  14.610 -0.4088 -0.5116  1.9393
12111TIP3    H257825   4.824   0.819  14.707  1.2096  0.4232 -0.0756
12112TIP3   OH257826   5.150   6.185   4.642  0.0300  0.3576 -0.1328
12112TIP3    H157827   5.152   6.154   4.552 -0.0123 -0.5112  0.1527
12112TIP3    H257828   5.091   6.124   4.687 -0.5505  1.2248  0.3246
12113TIP3   OH257829   4.439   5.851   4.247 -0.1335 -0.3791 -0.3597
12113TIP3    H157830   4.417   5.870   4.339 -0.8358 -0.4637 -0.5023
12113TIP3    H257831   4.374   5.786   4.221 -0.3895  0.1793 -1.1316
12114TIP3   OH257832   0.258   3.808   5.182 -0.8522  0.1983 -0.3751
12114TIP3    H157833   0.323   3.862   5.138 -0.5606 -0.3270 -0.5975
12114TIP3    H257834   0.241   3.736   5.121  1.7286 -2.2059  1.4528
12115TIP3   OH257835   6.723   1.608  11.292  0.3165  0.0009  0.3954
12115TIP3    H157836   6.715   1.702  11.305 -0.2912 -0.2441  2.0178
12115TIP3    H257837   6.818   1.592  11.290  0.4283  0.5619  0.9261
12116TIP3   OH257838   1.497   2.167   3.132 -0.4643 -0.0594 -1.0067
12116TIP3    H157839   1.404   2.174   3.153 -0.8790  1.5373 -3.0074
12116TIP3    H257840   1.530   2.256   3.137  0.9596 -0.5908 -0.4187
12117TIP3   OH257841   4.674   0.447  11.963 -1.1344  0.0325  0.7226
12117TIP3    H157842   4.619   0.518  11.930 -2.3805 -0.9480  0.5764
12117TIP3    H257843   4.752   0.448  11.908 -2.9573 -1.2933 -2.1369
12118TIP3   OH257844   2.269   2.702  14.781 -0.5184  0.2288 -0.4496
12118TIP3    H157845   2.198   2.720  14.719 -0.0159 -0.1697 -1.1645
12118TIP3    H257846   2.307   2.788  14.800 -3.2738  0.9484  2.6126
12119TIP3   OH257847   6.675   1.779  16.324 -0.0447  0.1605 -0.0841
12119TIP3    H157848   6.744   1.806  16.264  0.9886 -0.0614  0.9733
12119TIP3    H257849   6.717   1.777  16.410 -0.8075 -1.9444  0.3101
12120TIP3   OH257850   3.360   5.027   1.108  0.4072 -0.5256  0.5975
12120TIP3    H157851   3.399   4.969   1.043  0.5699 -2.3527  2.2117
12120TIP3    H257852   3.268   5.035   1.081  0.1475 -2.3327  0.8000
12121TIP3   OH257853   6.723   0.741   5.903  0.2670  0.1252 -0.4145
12121TIP3    H157854   6.688   0.687   5.974 -0.7732 -0.2420 -1.1895
12121TIP3    H257855   6.810   0.767   5.934  0.0449 -0.4623  0.7625
12122TIP3   OH257856   5.149   3.789  11.685  0.4704 -0.4704  0.4574
12122TIP3    H157857   5.114   3.770  11.597 -0.1057  0.7678  0.3939
12122TIP3    H257858   5.235   3.747  11.686  0.2558 -0.9651 -0.5070
12123TIP3   OH257859   0.007   0.744  10.652  0.5045 -0.3584  0.2985
12123TIP3    H157860   0.010   0.776  10.562  0.4251 -1.0465  0.0385
12123TIP3    H257861  -0.012   0.821  10.705 -3.0603 -0.4248 -0.6164
12124TIP3   OH257862   3.229   4.961  15.596  0.0624  0.6299 -0.2387
12124TIP3    H157863   3.300   4.932  15.653  0.3577  0.0796 -0.8737
12124TIP3    H257864   3.272   5.019  15.533 -0.5855  2.8983  1.2805
12125TIP3   OH257865   3.160   1.853  11.246  0.3540 -0.3505 -0.0426
12125TIP3    H157866   3.189   1.920  11.185  0.5539 -0.4603 -0.0668
12125TIP3    H257867   3.104   1.900  11.308 -0.0144 -0.2777 -0.4273
12126TIP3   OH257868   0.190   3.343  16.653 -0.1807 -0.7517  0.2531
12126TIP3    H157869   0.284   3.352  16.666  0.0766 -1.6087 -0.8619
12126TIP3    H257870   0.152   3.367  16.737  1.0026  0.0342  0.5888
12127TIP3   OH257871   3.069   0.642  13.405  0.5822  0.1854  0.6556
12127TIP3    H157872   3.005   0.597  13.460 -0.1962 -0.4771 -0.7168
12127TIP3    H257873   3.064   0.733  13.432 -1.7931  0.3757 -0.1165
12128TIP3   OH257874   1.901   2.108   0.537 -0.0911 -0.4986 -0.1856
12128TIP3    H157875   1.935   2.145   0.618  0.7527  0.5697 -0.9973
12128TIP3    H257876   1.884   2.016   0.558 -0.0845 -0.1989  1.2469
12129TIP3   OH257877   6.431   2.622  15.939 -0.4030  0.6979  0.1572
12129TIP3    H157878   6.407   2.544  15.989  2.6430 -0.8256 -0.4818
12129TIP3    H257879   6.410   2.599  15.848  1.2659  0.1902 -0.1373
12130TIP3   OH257880   1.656   4.615  14.279 -0.1363 -0.3104 -0.7716
12130TIP3    H157881   1.596   4.671  14.229 -1.2465 -1.1937 -0.4712
12130TIP3    H257882   1.735   4.668  14.288 -0.8067  0.8427 -1.3077
12131TIP3   OH257883   6.831   5.340  15.052  0.1703  0.2369  0.2736
12131TIP3    H157884   6.905   5.280  15.041 -0.4032 -0.5633  0.7142
12131TIP3    H257885   6.846   5.408  14.986  0.8244 -0.3916 -0.2499
12132TIP3   OH257886   4.688   3.839   5.049 -0.2043  0.0317  0.7708
12132TIP3    H157887   4.730   3.915   5.089 -0.4892  2.0386 -2.4664
12132TIP3    H257888   4.761   3.782   5.023  0.3251  1.2739 -0.5985
12133TIP3   OH257889   0.212   2.074  11.234 -0.6245  0.0867  0.0110
12133TIP3    H157890   0.240   2.084  11.143 -0.0316  0.8697  0.2654
12133TIP3    H257891   0.279   2.019  11.274 -0.9201 -0.3122 -0.0418
12134TIP3   OH257892   0.630   4.173  11.036  0.0520 -0.0375 -0.1982
12134TIP3    H157893   0.543   4.165  11.074  1.0088  1.6088  2.6148
12134TIP3    H257894   0.628   4.256  10.987  0.4413  0.8419  1.2246
12135TIP3   OH257895   5.554   2.123   1.115 -0.1011 -0.0325 -0.2128
12135TIP3    H157896   5.573   2.029   1.115 -0.2539 -0.0746 -0.8669
12135TIP3    H257897   5.526   2.142   1.204  1.4225 -0.2933  0.3528
12136TIP3   OH257898   0.516   3.207  13.031 -0.0244  0.4914 -0.2955
12136TIP3    H157899   0.536   3.275  13.096 -3.0060  0.7865  0.4699
12136TIP3    H257900   0.532   3.125  13.077 -0.9652  0.7068  0.4490
12137TIP3   OH257901   3.500   4.917   4.033  0.1511 -0.3737  0.0532
12137TIP3    H157902   3.593   4.930   4.053 -0.0148 -1.0039  1.3435
12137TIP3    H257903   3.461   5.003   4.047  0.3887 -0.3252  0.4269
12138TIP3   OH257904   4.337   5.575   5.266  0.2738  0.1837 -0.3254
12138TIP3    H157905   4.332   5.646   5.330  0.2075  0.0070 -0.1329
12138TIP3    H257906   4.368   5.617   5.186  0.0213  0.4699 -0.2752
12139TIP3   OH257907   1.445   0.645  12.799 -0.4601 -0.4344 -0.2268
12139TIP3    H157908   1.500   0.631  12.876 -0.7031  0.9293  0.2188
12139TIP3    H257909   1.462   0.569  12.743  0.7924 -0.7434  0.5352
12140TIP3   OH257910   2.298   5.195   1.248  0.4924 -0.0257 -0.2114
12140TIP3    H157911   2.349   5.161   1.321  0.5431  1.5811  0.5475
12140TIP3    H257912   2.350   5.175   1.171  0.8375 -1.0241  0.2602
12141TIP3   OH257913   5.713   6.740   1.412 -0.5166  0.2197  0.5187
12141TIP3    H157914   5.715   6.765   1.505 -0.6329  0.6317  0.4120
12141TIP3    H257915   5.723   6.645   1.413  0.7639  0.3344  0.8969
12142TIP3   OH257916   3.622   0.591   4.703 -0.2829 -0.1798 -0.4824
12142TIP3    H157917   3.715   0.591   4.679 -0.7747  0.7741 -2.6496
12142TIP3    H257918   3.594   0.501   4.690  0.6445 -0.8902  1.8380
12143TIP3   OH257919   2.856   2.752   4.285 -0.1500 -0.3095  0.2990
12143TIP3    H157920   2.811   2.698   4.350 -1.5648 -0.4384 -0.7550
12143TIP3    H257921   2.927   2.793   4.334  1.0567 -3.1483  1.1461
12144TIP3   OH257922   6.280   4.780  11.968 -0.5005  0.2674  0.0300
12144TIP3    H157923   6.259   4.857  11.916 -0.6878 -0.2609 -0.6826
12144TIP3    H257924   6.348   4.810  12.029  0.0886  0.7489 -0.8558
12145TIP3   OH257925   1.320   6.179  11.244  0.5587  0.0392 -0.3288
12145TIP3    H157926   1.357   6.159  11.158  0.0733  1.3624 -0.8611
12145TIP3    H257927   1.360   6.114  11.302  3.4936  1.1405 -0.9340
12146TIP3   OH257928   6.059   3.995   3.551  0.0874  0.6694  0.0234
12146TIP3    H157929   6.082   3.954   3.468 -0.0401  1.4740 -0.4275
12146TIP3    H257930   5.975   3.956   3.576  1.0481 -1.0053  0.7891
12147TIP3   OH257931   1.893   3.507   4.725  0.3890  0.1536  0.3007
12147TIP3    H157932   1.806   3.484   4.692  0.5792 -0.8936  0.4930
12147TIP3    H257933   1.891   3.602   4.734 -0.7003  0.1503  0.2043
12148TIP3   OH257934   1.456   5.774  16.421  0.3354  0.1521  0.2067
12148TIP3    H157935   1.530   5.772  16.482  0.6680  1.1517 -0.1400
12148TIP3    H257936   1.402   5.700  16.447  1.1841 -0.2738  0.8144
12149TIP3   OH257937   1.707   4.340  13.873 -0.0408 -0.1533 -0.0467
12149TIP3    H157938   1.696   4.250  13.904  4.8975 -0.0796  3.0161
12149TIP3    H257939   1.714   4.392  13.953  2.5084  1.9921 -1.5030
12150TIP3   OH257940   1.241   3.827  14.333  0.7255  0.7023 -0.1183
12150TIP3    H157941   1.314   3.815  14.272  1.1405  1.0112  0.3108
12150TIP3    H257942   1.185   3.751  14.318  1.7985 -0.2454  0.4780
12151TIP3   OH257943   4.969   4.595   0.711  0.5741 -0.7088 -0.2219
12151TIP3    H157944   4.954   4.645   0.792 -1.7277 -0.9680 -0.4336
12151TIP3    H257945   4.942   4.654   0.641 -4.9011 -2.8146 -0.3956
12152TIP3   OH257946   5.131   5.304  10.540 -0.3493 -0.2680  0.0913
12152TIP3    H157947   5.103   5.366  10.606  0.9636 -0.4671  0.8747
12152TIP3    H257948   5.050   5.270  10.502 -1.0958  0.6962  0.7949
12153TIP3   OH257949   1.969   2.855   4.102 -0.1833  0.1315  0.1337
12153TIP3    H157950   2.005   2.941   4.122  1.4743 -0.3287 -0.6637
12153TIP3    H257951   1.973   2.849   4.006  0.4814 -1.1223  0.2153
12154TIP3   OH257952   2.943   2.684  16.698  0.0267  0.3111  0.3879
12154TIP3    H157953   2.905   2.597  16.711 -0.3001  0.5129  0.8510
12154TIP3    H257954   3.033   2.676  16.728  0.0548  0.0820  0.2428
12155TIP3   OH257955   6.166   4.687   1.519  0.5710  0.2437 -0.0832
12155TIP3    H157956   6.113   4.732   1.585  1.2903 -0.6686  1.1570
12155TIP3    H257957   6.219   4.756   1.480 -0.6360  0.9731 -0.4918
12156TIP3   OH257958   4.589   3.063  13.192 -0.0718 -0.1789 -0.3980
12156TIP3    H157959   4.580   3.157  13.182  0.5653  0.0182  0.7246
12156TIP3    H257960   4.579   3.048  13.286 -0.2152 -1.2370 -0.5704
12157TIP3   OH257961   3.895   6.254  11.865  0.1549  0.1938 -0.1229
12157TIP3    H157962   3.979   6.289  11.833  0.4339 -0.2011  0.1653
12157TIP3    H257963   3.829   6.304  11.817  0.5540  0.5205 -0.3452
12158TIP3   OH257964   3.081   3.410  15.233  0.7969 -0.2624 -0.2429
12158TIP3    H157965   3.102   3.496  15.197 -0.3381 -0.0936 -0.5433
12158TIP3    H257966   3.078   3.423  15.327  1.2885 -0.1243 -0.2463
12159TIP3   OH257967   4.765   4.244  16.994  0.4832  0.5969  0.0450
12159TIP3    H157968   4.676   4.218  17.018 -0.6896  0.8273 -3.4406
12159TIP3    H257969   4.809   4.162  16.973  0.1694  0.6444 -0.8501
12160TIP3   OH257970   0.862   4.655  16.236 -0.1431  0.1117 -0.3717
12160TIP3    H157971   0.933   4.635  16.174  0.0208 -0.6391  0.0521
12160TIP3    H257972   0.864   4.583  16.299 -1.0397  0.2858 -0.1358
12161TIP3   OH257973   3.476   4.099   0.140  0.6671 -0.2349  0.1068
12161TIP3    H157974   3.555   4.135   0.101  0.8722  0.4524  1.1090
12161TIP3    H257975   3.491   4.105   0.235 -0.7145  0.2523  0.3248
12162TIP3   OH257976   6.270   5.999  12.392  0.4585  0.4300 -0.3541
12162TIP3    H157977   6.246   5.970  12.304  0.0133  1.5637 -0.6283
12162TIP3    H257978   6.363   6.019  12.387  0.8759 -1.3017 -0.0428
12163TIP3   OH257979   2.091   1.850   1.021 -0.6490  0.4544 -0.6978
12163TIP3    H157980   2.113   1.769   1.067 -1.6603  0.7874  0.4261
12163TIP3    H257981   2.122   1.836   0.932  0.2820 -0.6898 -0.2238
12164TIP3   OH257982   5.548   0.711   4.235  0.8107 -0.1401 -0.1285
12164TIP3    H157983   5.519   0.795   4.198 -1.7509 -0.7752  0.2038
12164TIP3    H257984   5.581   0.734   4.322 -0.5777  0.4783  0.2668
12165TIP3   OH257985   0.556   3.826   2.418 -0.4625 -0.4309 -0.3814
12165TIP3    H157986   0.520   3.756   2.472 -1.5166 -1.1701 -1.9350
12165TIP3    H257987   0.606   3.780   2.350 -1.1640  0.2921 -1.4238
12166TIP3   OH257988   6.505   0.747  12.351  0.3470 -0.0542 -0.1084
12166TIP3    H157989   6.529   0.660  12.318  2.8611 -0.1555  1.6624
12166TIP3    H257990   6.427   0.732  12.403  1.9320 -1.7628  1.9441
12167TIP3   OH257991   1.756   4.186   0.395 -0.2154 -0.3615  0.0661
12167TIP3    H157992   1.772   4.232   0.478 -1.2631  2.0383 -0.9684
12167TIP3    H257993   1.690   4.120   0.417  0.1458 -0.3452  1.2874
12168TIP3   OH257994   6.763   0.909   3.294  0.0980 -0.1727  0.1337
12168TIP3    H157995   6.837   0.961   3.264  1.5083 -2.8586 -1.4191
12168TIP3    H257996   6.707   0.900   3.217 -0.6145 -0.2020  0.6428
12169TIP3   OH257997   4.127   3.680   1.301 -0.1698  0.3269  0.2453
12169TIP3    H157998   4.173   3.752   1.344  1.4128 -0.0638 -0.6949
12169TIP3    H257999   4.044   3.717   1.273  0.1111  1.4510  0.8418
12170TIP3   OH258000   4.230   1.732   1.223 -0.3861  0.2327  0.6630
12170TIP3    H158001   4.279   1.777   1.292 -1.6041  0.0872  1.6640
12170TIP3    H258002   4.235   1.791   1.148  1.9816 -0.1496  0.4541
12171TIP3   OH258003   3.942   5.459  12.046 -0.6290  0.1721 -0.0512
12171TIP3    H158004   4.008   5.454  12.116 -1.3659 -1.8179  0.5511
12171TIP3    H258005   3.887   5.533  12.071  1.6663  2.3582 -0.9211
12172TIP3   OH258006   1.020   6.582   1.937  0.4190  0.2460 -0.8190
12172TIP3    H158007   0.925   6.585   1.944  0.3949 -1.7809  0.6991
12172TIP3    H258008   1.036   6.520   1.866  0.6480  1.6277 -2.0113
12173TIP3   OH258009   0.669   1.659  11.843 -0.0246 -1.1203  0.0270
12173TIP3    H158010   0.716   1.649  11.926 -0.6595 -0.6020  0.4605
12173TIP3    H258011   0.640   1.750  11.843 -1.2613 -1.5078 -0.1110
12174TIP3   OH258012   3.220   4.058   0.189 -0.0072  0.3887  0.2562
12174TIP3    H158013   3.196   4.131   0.246 -1.6885  2.1962 -2.5548
12174TIP3    H258014   3.301   4.087   0.146  0.3885 -0.2828  0.5339
12175TIP3   OH258015   1.598   1.521  12.856 -0.1318  0.3553 -0.1907
12175TIP3    H158016   1.532   1.454  12.878 -0.8973  0.5820 -1.6943
12175TIP3    H258017   1.548   1.592  12.818  0.9539  0.6830 -1.0425
12176TIP3   OH258018   0.702   2.953   6.363  0.1930 -0.0585 -0.4792
12176TIP3    H158019   0.734   3.004   6.289  0.6526  0.8625  0.3243
12176TIP3    H258020   0.725   3.005   6.440  1.4962 -1.8723  0.4532
12177TIP3   OH258021   1.480   5.814   2.653  0.3293 -0.7158 -1.3035
12177TIP3    H158022   1.494   5.886   2.590 -0.7269  0.2289 -0.4965
12177TIP3    H258023   1.504   5.735   2.604  1.3751  0.1587 -2.2680
12178TIP3   OH258024   2.251   1.384  11.530  0.2394  0.2538  0.1115
12178TIP3    H158025   2.246   1.401  11.624  1.6485  3.0605 -0.2323
12178TIP3    H258026   2.305   1.305  11.523  0.3185  0.1416  1.6309
12179TIP3   OH258027   5.845   3.239  12.075  0.1212 -0.2372 -0.5873
12179TIP3    H158028   5.857   3.321  12.027  0.5240 -0.5251 -0.9851
12179TIP3    H258029   5.772   3.196  12.031 -1.3877  0.7658  0.8145
12180TIP3   OH258030   6.691   4.865  12.165  0.5993 -0.8228 -0.7641
12180TIP3    H158031   6.724   4.946  12.205  1.6101 -1.3424 -0.5159
12180TIP3    H258032   6.701   4.799  12.233  0.5082 -1.3123 -1.2225
12181TIP3   OH258033   5.386   3.686  11.648  0.3864  0.1884 -0.1729
12181TIP3    H158034   5.443   3.609  11.658 -0.7559 -0.4583  2.2308
12181TIP3    H258035   5.381   3.700  11.554  0.4443 -2.8734 -0.7487
12182TIP3   OH258036   1.726   0.291  16.303  0.0844  0.4094  0.0194
12182TIP3    H158037   1.784   0.218  16.328  0.1368 -0.1171 -1.5685
12182TIP3    H258038   1.638   0.259  16.323  0.1028 -0.1305 -0.7239
12183TIP3   OH258039   3.638   3.298  14.465  0.0924 -0.1998 -0.5086
12183TIP3    H158040   3.708   3.295  14.400  0.2443 -0.5305 -0.3358
12183TIP3    H258041   3.569   3.242  14.429 -0.7274  1.3018 -1.3944
12184TIP3   OH258042   0.159   6.785  16.698  0.1953 -0.0104 -0.3306
12184TIP3    H158043   0.089   6.723  16.719 -0.4167  0.6019 -0.5379
12184TIP3    H258044   0.114   6.857  16.654  0.6143  1.4703  1.5706
12185TIP3   OH258045   2.153   5.841  15.078 -0.3524 -0.1441  0.6788
12185TIP3    H158046   2.203   5.760  15.089  0.6605 -0.0706 -2.3602
12185TIP3    H258047   2.112   5.857  15.163  1.0287 -2.7546  1.9230
12186TIP3   OH258048   3.897   4.592   3.662  0.6203  0.0086  0.0928
12186TIP3    H158049   3.832   4.660   3.645  1.0190  0.5886  0.8454
12186TIP3    H258050   3.964   4.605   3.595  0.6012  0.2396  0.1186
12187TIP3   OH258051   2.436   1.569  11.962 -0.2695 -0.3611 -0.2440
12187TIP3    H158052   2.451   1.663  11.953 -0.1858 -0.3446  0.0495
12187TIP3    H258053   2.517   1.528  11.931 -1.3162 -0.4685 -3.1497
12188TIP3   OH258054   2.915   1.488   3.848 -0.3770  0.0089 -0.4058
12188TIP3    H158055   3.001   1.449   3.862 -0.3315  0.2877  0.1227
12188TIP3    H258056   2.855   1.430   3.895 -0.5387 -0.4309 -1.1406
12189TIP3   OH258057   2.166   1.040  12.400  0.0428 -0.4456 -0.9138
12189TIP3    H158058   2.073   1.047  12.381  0.0156 -0.7503 -0.8897
12189TIP3    H258059   2.171   0.993  12.483  0.1776  0.5099 -0.3630
12190TIP3   OH258060   1.218   6.206  13.742 -0.5415  0.1639  1.3288
12190TIP3    H158061   1.280   6.277  13.757  1.0293 -1.5249  3.2489
12190TIP3    H258062   1.137   6.236  13.783 -0.4244  1.5077  0.6423
12191TIP3   OH258063   4.586   2.631  12.106  0.4183  0.6527  0.4989
12191TIP3    H158064   4.666   2.627  12.054  1.0960  0.7211  1.5034
12191TIP3    H258065   4.615   2.614  12.196 -1.1265 -2.8338  0.5024
12192TIP3   OH258066   0.172   2.744   5.569 -0.0586  0.3300  0.0356
12192TIP3    H158067   0.080   2.726   5.552  0.3768 -2.5345  0.2986
12192TIP3    H258068   0.182   2.731   5.664  0.6449  0.4552 -0.0117
12193TIP3   OH258069   2.318   0.956  15.076 -0.2443  0.4354  0.1905
12193TIP3    H158070   2.370   0.879  15.100 -0.4016 -0.0038 -0.8426
12193TIP3    H258071   2.369   0.999  15.008 -1.8386 -0.8000 -1.9281
12194TIP3   OH258072   4.043   2.610   5.047 -0.3527 -0.1589  0.1592
12194TIP3    H158073   4.012   2.594   4.958 -1.7826  4.0774 -0.3148
12194TIP3    H258074   3.987   2.554   5.102 -0.6821 -1.4679 -1.4307
12195TIP3   OH258075   5.876   0.442   3.076 -0.1769  0.1548  0.4348
12195TIP3    H158076   5.889   0.349   3.057  2.1332  0.2679  1.2072
12195TIP3    H258077   5.924   0.488   3.007 -0.4265  0.7559  0.6535
12196TIP3   OH258078   3.031   0.176  12.978 -0.2473  0.2494 -0.6909
12196TIP3    H158079   2.995   0.087  12.976  0.8597 -0.2010 -1.8015
12196TIP3    H258080   2.976   0.222  13.042 -0.3213 -1.4392  0.5401
12197TIP3   OH258081   5.817   6.134  13.156 -0.0881 -0.2790  0.1758
12197TIP3    H158082   5.778   6.221  13.152  0.0671 -0.2244 -0.2051
12197TIP3    H258083   5.815   6.111  13.249  1.3028  0.7810  0.5045
12198TIP3   OH258084   0.081   3.168   3.167  0.2877  0.6233  0.1817
12198TIP3    H158085   0.007   3.224   3.146  0.0291  0.5694  0.9040
12198TIP3    H258086   0.044   3.100   3.223  0.4305 -0.7492 -1.3194
12199TIP3   OH258087   4.579   1.257   0.188 -0.4348 -0.2820 -0.1296
12199TIP3    H158088   4.531   1.322   0.137  0.0327  1.0963  1.1319
12199TIP3    H258089   4.578   1.179   0.133 -3.1468  0.0002 -0.6407
12200TIP3   OH258090   5.683   3.273   0.800  0.2946  0.0743  0.4214
12200TIP3    H158091   5.663   3.327   0.724  1.2161  0.7352  0.6281
12200TIP3    H258092   5.701   3.186   0.763 -0.2480  0.1393 -0.0081
12201TIP3   OH258093   5.213   3.672  14.220  0.6270  0.4493 -0.5668
12201TIP3    H158094   5.141   3.714  14.267 -1.3439 -0.7066 -2.3578
12201TIP3    H258095   5.220   3.585  14.259  1.3196  0.6927 -0.1437
12202TIP3   OH258096   0.053   4.470  12.497 -0.5696 -0.0885  0.2874
12202TIP3    H158097  -0.004   4.477  12.574  0.4315  2.1578  0.9194
12202TIP3    H258098   0.026   4.389  12.455 -1.7421 -0.9696  2.5269
12203TIP3   OH258099   1.745   2.242   1.415  0.3508 -0.2516 -0.0197
12203TIP3    H158100   1.790   2.202   1.490  0.2984  0.0509  0.1729
12203TIP3    H258101   1.686   2.306   1.454  0.8161  0.3882 -0.3556
12204TIP3   OH258102   2.789   3.726   2.788  0.5648 -0.3064  0.0027
12204TIP3    H158103   2.873   3.748   2.828  0.5981  0.2821 -0.3849
12204TIP3    H258104   2.762   3.645   2.833  1.7831 -1.0450 -0.5465
12205TIP3   OH258105   4.448   5.014   0.032 -0.1415  0.4027 -0.1527
12205TIP3    H158106   4.489   5.099   0.017 -1.1966  1.1334  0.8982
12205TIP3    H258107   4.358   5.035   0.056 -0.3772 -1.0084  0.3107
12206TIP3   OH258108   6.429   1.033   1.554  0.0196 -0.2635 -0.5056
12206TIP3    H158109   6.344   1.015   1.513 -0.6298  1.6112 -0.0502
12206TIP3    H258110   6.491   1.028   1.482 -0.5066 -1.3033 -0.9154
12207TIP3   OH258111   6.698   5.598   5.289  0.2803  0.2170  0.2345
12207TIP3    H158112   6.704   5.532   5.220  1.1791  0.4186  0.1063
12207TIP3    H258113   6.783   5.641   5.289 -0.1330  1.0730  0.6242
12208TIP3   OH258114   1.355   2.430   1.425 -0.6726 -0.1546  0.1420
12208TIP3    H158115   1.267   2.402   1.399 -1.0024 -0.2117  1.2400
12208TIP3    H258116   1.345   2.522   1.449 -0.2580  0.0555 -0.4599
12209TIP3   OH258117   3.806   5.693  13.291 -0.1322 -0.2406  0.3543
12209TIP3    H158118   3.809   5.619  13.231 -0.3766  0.0250  0.0145
12209TIP3    H258119   3.898   5.714  13.307 -0.0082  1.0782 -1.6640
12210TIP3   OH258120   4.369   5.923   3.959  0.1860 -0.1026 -0.2534
12210TIP3    H158121   4.402   6.010   3.933 -1.4626  0.6994  0.1744
12210TIP3    H258122   4.319   5.940   4.039  0.9899 -1.7095  0.6418
12211TIP3   OH258123   4.494   2.749   1.961  0.1336 -0.6837  0.5427
12211TIP3    H158124   4.517   2.679   2.021 -0.7478 -1.0082  0.5214
12211TIP3    H258125   4.494   2.828   2.015 -1.9427 -1.1437  1.3227
12212TIP3   OH258126   4.794   1.163   5.367  0.1427  0.2842  0.2946
12212TIP3    H158127   4.725   1.141   5.305  1.2036  0.1995 -0.8941
12212TIP3    H258128   4.762   1.243   5.409  0.1902  1.4381 -1.7135
12213TIP3   OH258129   1.611   6.442   0.244 -0.2164  0.2625  0.0319
12213TIP3    H158130   1.624   6.534   0.221  1.9478 -0.3641 -1.5950
12213TIP3    H258131   1.634   6.437   0.337  2.2752  0.9898 -0.4497
12214TIP3   OH258132   1.316   6.197  16.054 -0.2738  0.2160  0.1043
12214TIP3    H158133   1.338   6.126  16.114 -0.9674  1.1090  1.4605
12214TIP3    H258134   1.231   6.173  16.019  0.5650 -0.8005 -1.3482
12215TIP3   OH258135   2.134   4.509   1.333  0.3894 -0.3684 -0.3023
12215TIP3    H158136   2.207   4.456   1.302  0.2059  0.1511 -1.7356
12215TIP3    H258137   2.086   4.531   1.253  1.1235  2.9467  0.0464
12216TIP3   OH258138   3.283   1.433  11.072  0.2021 -0.1523 -0.0336
12216TIP3    H158139   3.352   1.446  11.137 -1.3139 -0.6286  1.7763
12216TIP3    H258140   3.329   1.420  10.990  2.2372 -0.1099  1.0410
12217TIP3   OH258141   1.847   5.019  11.965 -0.6168  0.6366 -0.0266
12217TIP3    H158142   1.825   4.969  11.887 -0.1501  1.2626 -0.5727
12217TIP3    H258143   1.783   5.090  11.967 -0.6767  0.5766  0.2026
12218TIP3   OH258144   3.808   5.495   5.573 -0.3116  0.7372 -0.1489
12218TIP3    H158145   3.759   5.436   5.630  1.7880  0.5002  1.5309
12218TIP3    H258146   3.834   5.442   5.498 -1.5618  0.5537 -0.4627
12219TIP3   OH258147   5.625   3.094   1.537 -1.0398 -0.2762 -1.1295
12219TIP3    H158148   5.595   3.134   1.456 -0.3736 -0.3468 -1.4179
12219TIP3    H258149   5.716   3.072   1.520  1.0338  4.7445  1.4500
12220TIP3   OH258150   3.557   5.937  11.082  0.5766 -0.0158  0.1951
12220TIP3    H158151   3.613   5.918  11.007  0.9580  0.0380  0.4671
12220TIP3    H258152   3.524   5.851  11.109  1.7885 -0.2427  1.0198
12221TIP3   OH258153   4.782   6.404   2.637 -0.0549 -0.2722 -0.0521
12221TIP3    H158154   4.822   6.430   2.554 -1.2709  0.8093 -0.3371
12221TIP3    H258155   4.827   6.323   2.661  0.9671 -0.1070 -1.2818
12222TIP3   OH258156   5.719   3.464  15.214 -0.3868  0.2368  0.3733
12222TIP3    H158157   5.788   3.412  15.173 -2.4163 -1.2110 -1.4588
12222TIP3    H258158   5.758   3.550  15.228  1.7776 -0.5343 -0.5208
12223TIP3   OH258159   3.612   2.081   1.357  0.2266 -0.1742 -0.1165
12223TIP3    H158160   3.648   2.012   1.413  1.9252  0.3086 -0.5561
12223TIP3    H258161   3.517   2.076   1.371  0.4088 -1.7351  0.8384
12224TIP3   OH258162   2.119   1.927  15.982 -0.2677  0.0268 -0.5040
12224TIP3    H158163   2.203   1.948  15.940  0.6109  0.2084  1.2365
12224TIP3    H258164   2.130   1.837  16.012 -0.8874 -0.1057 -0.6743
12225TIP3   OH258165   5.916   5.723   1.998  0.3215  0.2348  0.7758
12225TIP3    H158166   5.885   5.675   2.075 -3.0466  0.6965 -0.0994
12225TIP3    H258167   5.867   5.805   2.000  1.1095  0.8073 -1.1965
12226TIP3   OH258168   0.360   6.545  11.698  0.4532 -0.6613 -0.4564
12226TIP3    H158169   0.413   6.490  11.755 -2.0030 -2.5535  0.1750
12226TIP3    H258170   0.280   6.562  11.748 -0.0368  1.1664 -1.7568
12227TIP3   OH258171   3.170   1.444   3.223  0.1849  0.5644  0.1039
12227TIP3    H158172   3.265   1.438   3.225  0.2267 -2.4757 -2.4744
12227TIP3    H258173   3.150   1.480   3.136 -0.9933 -0.2098  0.0229
12228TIP3   OH258174   0.615   2.919   5.496 -0.0030 -0.1810  0.1717
12228TIP3    H158175   0.679   2.983   5.527 -3.0423  2.5465  1.4322
12228TIP3    H258176   0.610   2.854   5.566  1.2456 -0.3114  0.1438
12229TIP3   OH258177   6.290   1.569  15.328  0.0515 -0.1504 -0.2605
12229TIP3    H158178   6.288   1.645  15.270  2.1059  0.0439 -0.1543
12229TIP3    H258179   6.305   1.606  15.415 -0.5731 -0.5854  0.0332
12230TIP3   OH258180   6.489   5.502   1.605 -0.4036  0.2352 -0.1628
12230TIP3    H158181   6.399   5.475   1.625 -0.7744  0.0708 -1.9205
12230TIP3    H258182   6.522   5.538   1.687 -1.7812 -0.4944  0.7447
12231TIP3   OH258183   1.651   0.744   0.390 -0.1868 -0.1007  0.1402
12231TIP3    H158184   1.577   0.711   0.440  0.2014  0.1250  0.8862
12231TIP3    H258185   1.642   0.839   0.394 -0.5807 -0.0824 -0.8942
12232TIP3   OH258186   4.559   1.013   0.049 -0.0149 -0.1294  0.6464
12232TIP3    H158187   4.477   0.962   0.042  0.5932 -0.9950 -0.6821
12232TIP3    H258188   4.619   0.955   0.096 -0.0753  0.4037  1.3935
12233TIP3   OH258189   2.180   1.733  15.357 -0.1626  0.6648 -0.1789
12233TIP3    H158190   2.159   1.739  15.264 -0.8800 -1.5713 -0.2333
12233TIP3    H258191   2.116   1.790  15.399  1.3363  3.1774 -1.1039
12234TIP3   OH258192   2.724   5.748   4.766  0.3686  0.0272 -0.2000
12234TIP3    H158193   2.664   5.722   4.696 -0.5158 -0.5239  0.7342
12234TIP3    H258194   2.797   5.687   4.758 -0.2083 -0.7108 -0.0291
12235TIP3   OH258195   5.795   6.107   5.093 -0.0935  0.0186 -0.1007
12235TIP3    H158196   5.767   6.112   5.184  1.8768  2.8422  0.4849
12235TIP3    H258197   5.788   6.014   5.071 -2.1841 -0.5191  2.3696
12236TIP3   OH258198   3.103   4.629   3.667  0.0036 -0.2546 -0.1976
12236TIP3    H158199   3.065   4.557   3.617 -0.7247  0.5486 -0.8377
12236TIP3    H258200   3.083   4.608   3.758 -2.5323  0.3964 -0.5271
12237TIP3   OH258201   2.085   4.435  14.300 -0.2132 -0.0575  0.2171
12237TIP3    H158202   2.060   4.343  14.294 -0.2419 -0.0704  0.4981
12237TIP3    H258203   2.162   4.435  14.358  1.3265 -0.1715 -1.7132
12238TIP3   OH258204   3.297   3.658   1.238  0.6335 -1.0715  0.0049
12238TIP3    H158205   3.364   3.616   1.184 -0.3432 -1.5469 -0.8682
12238TIP3    H258206   3.237   3.587   1.261 -1.1255 -0.1762 -1.6148
12239TIP3   OH258207   1.356   6.651   3.541 -0.3897 -0.1821  0.2860
12239TIP3    H158208   1.393   6.695   3.465 -0.1175  1.8769  1.5337
12239TIP3    H258209   1.376   6.558   3.527  0.3567  0.2294 -1.7341
12240TIP3   OH258210   4.302   1.435  17.070  0.0996  0.6905 -0.8263
12240TIP3    H158211   4.260   1.453  16.985 -1.0505  0.8769 -0.2426
12240TIP3    H258212   4.235   1.458  17.134  0.9796  0.5971  0.1391
12241TIP3   OH258213   0.286   2.426  16.697  0.6317 -0.6481  0.2634
12241TIP3    H158214   0.209   2.371  16.713 -0.1331  0.1292 -0.5579
12241TIP3    H258215   0.288   2.486  16.771 -1.3110  1.2078 -1.0710
12242TIP3   OH258216   4.433   1.979   2.172  0.0300  0.2403  0.6949
12242TIP3    H158217   4.377   2.017   2.239 -0.4764  0.7295  0.0042
12242TIP3    H258218   4.379   1.979   2.093  0.5979 -0.3853  0.2959
12243TIP3   OH258219   1.182   4.579   5.296 -0.0725 -0.2968  0.3662
12243TIP3    H158220   1.242   4.523   5.246  0.4641 -0.5410  1.2657
12243TIP3    H258221   1.109   4.594   5.236  0.1793 -1.2414 -0.2091
12244TIP3   OH258222   0.558   6.444  15.232  0.6410 -0.3805 -0.1276
12244TIP3    H158223   0.514   6.526  15.254 -0.4627 -1.0832  0.3519
12244TIP3    H258224   0.586   6.455  15.141  0.6182  0.5708 -0.0267
12245TIP3   OH258225   0.987   4.113  15.275 -0.1067 -0.3814 -0.7287
12245TIP3    H158226   0.952   4.195  15.241  1.7010  0.8638  0.2331
12245TIP3    H258227   0.965   4.114  15.368  1.0986 -0.2809 -0.4199
12246TIP3   OH258228   1.690   3.824  12.632  0.6996 -0.3265  0.1239
12246TIP3    H158229   1.693   3.920  12.639  2.7134 -0.3500  0.2495
12246TIP3    H258230   1.725   3.793  12.715 -0.3789 -1.2046  0.2666
12247TIP3   OH258231   5.182   1.953   3.398  0.5884  0.1171 -0.4400
12247TIP3    H158232   5.179   1.871   3.445 -2.1616  0.8905  0.9315
12247TIP3    H258233   5.193   1.928   3.306 -1.7321 -1.9114 -0.2485
12248TIP3   OH258234   3.416   3.286   1.769 -0.1726  0.2695  0.9503
12248TIP3    H158235   3.361   3.358   1.803  0.8806  0.7260  1.7365
12248TIP3    H258236   3.505   3.322   1.768  0.4708 -1.2086  1.9169
12249TIP3   OH258237   0.225   6.649  15.781  0.0177 -0.3256  0.3007
12249TIP3    H158238   0.300   6.621  15.730  0.3901  2.5820 -0.9589
12249TIP3    H258239   0.234   6.604  15.865  1.3988 -2.4266 -0.8969
12250TIP3   OH258240   2.456   5.135  12.176  0.7932  0.2624  0.2301
12250TIP3    H158241   2.368   5.152  12.142  0.7843 -0.3968 -0.0782
12250TIP3    H258242   2.466   5.197  12.248  0.9482  1.9419 -1.1618
12251TIP3   OH258243   4.231   4.869   0.821  0.3767 -0.8746  0.2548
12251TIP3    H158244   4.184   4.931   0.764  0.8108  0.7632  1.5953
12251TIP3    H258245   4.165   4.807   0.849 -0.6007  0.2591  0.5633
12252TIP3   OH258246   0.728   1.030   0.946 -0.5312  0.2561 -0.1198
12252TIP3    H158247   0.682   1.021   0.863 -2.8922  0.5880  1.0410
12252TIP3    H258248   0.705   1.118   0.977 -0.7406 -0.2995  1.4186
12253TIP3   OH258249   3.297   1.076  16.657  0.3758  0.2211 -0.3892
12253TIP3    H158250   3.215   1.028  16.654  1.7673 -2.6753  2.4650
12253TIP3    H258251   3.363   1.011  16.682  2.8487  3.1374  1.5119
12254TIP3   OH258252   3.780   3.520  15.619 -0.1037  0.1495 -0.0060
12254TIP3    H158253   3.862   3.478  15.648  0.0267 -0.6992 -1.5100
12254TIP3    H258254   3.803   3.564  15.537 -1.0312  0.3445 -0.1699
12255TIP3   OH258255   1.913   2.399  16.237 -0.0954 -0.5037  0.1769
12255TIP3    H158256   1.972   2.360  16.172  1.1974 -0.7723  1.4557
12255TIP3    H258257   1.926   2.347  16.315 -0.0594  1.0551  1.2604
12256TIP3   OH258258   3.313   2.341  12.678 -0.3064  0.0612 -0.1291
12256TIP3    H158259   3.339   2.262  12.630 -1.7962  0.3520 -1.5000
12256TIP3    H258260   3.258   2.390  12.616 -4.1420 -0.5515  2.4358
12257TIP3   OH258261   2.145   6.481   3.928  0.4203 -0.4065  0.5934
12257TIP3    H158262   2.192   6.442   3.855  0.5299  0.0979  0.3928
12257TIP3    H258263   2.055   6.491   3.897  0.8783  1.6177 -0.1922
12258TIP3   OH258264   0.309   2.795   6.031  0.5276 -0.4506  0.0198
12258TIP3    H158265   0.289   2.783   6.124  0.4475  1.8012  0.3494
12258TIP3    H258266   0.395   2.838   6.031  0.3707 -0.1235 -0.9308
12259TIP3   OH258267   3.148   0.234  13.595  0.4685 -0.4011 -0.1519
12259TIP3    H158268   3.187   0.209  13.679  2.0307 -0.6211 -0.9082
12259TIP3    H258269   3.201   0.188  13.529 -0.2732  0.3279 -1.2925
12260TIP3   OH258270   0.990   5.566  17.079 -0.3472  0.2956 -0.2344
12260TIP3    H158271   0.959   5.651  17.048 -0.7257  0.1829 -0.1573
12260TIP3    H258272   0.978   5.569  17.174 -1.7578 -0.4042 -0.3698
12261TIP3   OH258273   1.168   1.103   2.897 -0.3975 -0.3065 -0.4449
12261TIP3    H158274   1.187   1.016   2.931 -0.7058  0.2216  1.1844
12261TIP3    H258275   1.073   1.113   2.908 -0.0405  1.2248  2.0282
12262TIP3   OH258276   0.454   5.267   1.818 -0.0332  0.1325  0.1347
12262TIP3    H158277   0.524   5.206   1.840 -0.5635 -0.4303  0.2838
12262TIP3    H258278   0.463   5.281   1.723 -0.0784 -0.3932  0.0522
12263TIP3   OH258279   2.172   6.285   4.972  0.2408 -0.2857 -0.5998
12263TIP3    H158280   2.085   6.298   4.932 -0.0189 -2.2871 -0.7863
12263TIP3    H258281   2.154   6.240   5.054  1.1024 -0.8156 -0.6896
12264TIP3   OH258282   5.256   6.421  15.475 -0.1880  0.2026  0.7585
12264TIP3    H158283   5.230   6.474  15.401  0.6800 -1.1424 -0.5716
12264TIP3    H258284   5.330   6.468  15.514 -0.4376  0.7575  0.5640
12265TIP3   OH258285   3.040   1.597  11.269  0.0843 -0.6590  0.1657
12265TIP3    H158286   3.090   1.673  11.239 -0.2585 -0.7668 -0.7082
12265TIP3    H258287   2.992   1.627  11.345 -0.2865  0.0889 -0.3586
12266TIP3   OH258288   3.656   0.349   3.664  0.7143  0.2552  0.2358
12266TIP3    H158289   3.691   0.407   3.731 -0.3178  0.8524  0.2787
12266TIP3    H258290   3.561   0.353   3.676  0.5528 -0.2347 -0.7560
12267TIP3   OH258291   1.249   0.577   1.315 -0.4192  0.0160 -0.4630
12267TIP3    H158292   1.298   0.554   1.236 -0.8473 -1.3575 -0.3407
12267TIP3    H258293   1.297   0.652   1.351  1.6527 -1.3091 -0.3031
12268TIP3   OH258294   5.729   2.817   2.930  0.3624 -0.1028 -0.4225
12268TIP3    H158295   5.821   2.840   2.914  0.2076  0.6066 -0.3258
12268TIP3    H258296   5.688   2.822   2.844  0.0969  1.0859 -0.2401
12269TIP3   OH258297   6.794   2.665  14.016 -0.0714 -0.4278 -0.0930
12269TIP3    H158298   6.766   2.692  13.928  0.3721  0.7859  0.1153
12269TIP3    H258299   6.738   2.715  14.075 -1.8018 -2.7550  0.3839
12270TIP3   OH258300   6.190   4.225  12.034  0.4912 -0.7262 -0.1409
12270TIP3    H158301   6.197   4.294  12.100 -0.2532  0.2629 -1.0431
12270TIP3    H258302   6.106   4.242  11.990  1.3728 -0.7688 -1.9413
12271TIP3   OH258303   1.033   5.118  15.377  0.3711  0.2583 -0.1888
12271TIP3    H158304   0.951   5.111  15.328 -0.6406  0.5781  1.3738
12271TIP3    H258305   1.057   5.210  15.371 -0.4664  0.5717  0.9682
12272TIP3   OH258306   1.173   5.484   0.261  0.1680 -0.2539  0.5300
12272TIP3    H158307   1.218   5.509   0.342  0.8857  1.2869 -0.2867
12272TIP3    H258308   1.185   5.559   0.203 -2.0476 -0.4901 -0.3372
12273TIP3   OH258309   6.504   0.225  14.803 -0.3085 -0.2981  0.7220
12273TIP3    H158310   6.452   0.164  14.750 -1.7095  1.3086  0.1732
12273TIP3    H258311   6.566   0.263  14.741 -0.7917  0.2990  0.5904
12274TIP3   OH258312   6.394   4.085  14.878  0.5590 -0.2421 -1.0750
12274TIP3    H158313   6.348   4.162  14.846  0.4357 -0.0284 -0.3787
12274TIP3    H258314   6.487   4.108  14.872  0.5087  0.1148 -0.4729
12275TIP3   OH258315   2.648   6.120   3.861 -0.6831  0.8220  0.0363
12275TIP3    H158316   2.712   6.188   3.882  0.4337 -0.2542  0.2082
12275TIP3    H258317   2.590   6.118   3.936  0.3835  0.3479  0.8758
12276TIP3   OH258318   4.797   3.498   0.450  0.3012  0.0206 -0.1618
12276TIP3    H158319   4.778   3.456   0.534  1.0066 -0.3954 -0.1992
12276TIP3    H258320   4.892   3.508   0.450  0.4708 -1.3350 -1.5320
12277TIP3   OH258321   3.062   4.847   0.305  0.4655 -0.4722  0.0307
12277TIP3    H158322   2.969   4.826   0.317  0.9684 -1.9195  1.8281
12277TIP3    H258323   3.068   4.880   0.215 -1.7831 -0.2907 -0.1005
12278TIP3   OH258324   2.852   4.442   4.545  0.7628  0.1554  0.1497
12278TIP3    H158325   2.795   4.505   4.589  0.7172 -0.5296  1.1005
12278TIP3    H258326   2.930   4.493   4.521  1.6689  0.1831  2.7690
12279TIP3   OH258327   0.973   4.998   4.786 -0.2507 -0.2073 -0.2230
12279TIP3    H158328   0.991   5.043   4.703  0.3703 -1.4660 -0.8035
12279TIP3    H258329   0.880   5.016   4.803 -0.8856 -1.3434 -2.1357
12280TIP3   OH258330   5.980   0.761  11.123  0.6220  0.0717  0.5120
12280TIP3    H158331   5.939   0.770  11.036  1.4057  0.6720  0.1925
12280TIP3    H258332   6.057   0.817  11.119  0.8175 -0.1064  1.5175
12281TIP3   OH258333   3.571   6.281  14.988  0.0927  0.2717 -0.0441
12281TIP3    H158334   3.624   6.209  14.953  0.7047  0.8209 -0.2777
12281TIP3    H258335   3.481   6.252  14.975  0.2889  0.3086 -1.8307
12282TIP3   OH258336   1.519   3.265  12.873  0.5448 -0.3989  0.4154
12282TIP3    H158337   1.532   3.238  12.782  1.8002 -1.9757  0.9983
12282TIP3    H258338   1.482   3.187  12.916 -2.8995  1.2429  0.7091
12283TIP3   OH258339   5.570   4.225   2.809  0.1840  0.4993  0.4853
12283TIP3    H158340   5.599   4.284   2.740  0.9536 -0.7323 -0.2807
12283TIP3    H258341   5.625   4.147   2.799 -0.1771  0.0086  2.0399
12284TIP3   OH258342   4.533   3.539   3.664 -0.2209 -0.6176 -0.1349
12284TIP3    H158343   4.441   3.535   3.689  0.0786 -1.1273  0.9235
12284TIP3    H258344   4.579   3.563   3.744  0.4736  0.7848 -0.9148
12285TIP3   OH258345   6.665   3.188   0.645 -0.3009 -0.2664  0.4794
12285TIP3    H158346   6.695   3.204   0.555 -0.9387 -1.7598 -0.0174
12285TIP3    H258347   6.746   3.182   0.696  0.1404 -1.1854 -0.3072
12286TIP3   OH258348   3.514   3.049  17.144  0.3564  0.1974 -0.1579
12286TIP3    H158349   3.479   3.006  17.222 -0.6397 -0.0484 -0.7223
12286TIP3    H258350   3.564   2.980  17.099  0.5935  0.2308  0.0528
12287TIP3   OH258351   4.924   5.465   3.293 -0.1294 -0.3562  0.7309
12287TIP3    H158352   5.013   5.437   3.312 -0.6463 -1.6817  1.3342
12287TIP3    H258353   4.886   5.391   3.244  0.3762  1.8517 -3.5022
12288TIP3   OH258354   6.356   1.889   3.874  0.3701  0.5568 -0.0334
12288TIP3    H158355   6.313   1.930   3.949  1.3842  3.8188 -1.0592
12288TIP3    H258356   6.326   1.798   3.875 -1.2945  1.0174  3.0399
12289TIP3   OH258357   1.732   1.511   0.647 -0.2767 -0.1510 -0.3830
12289TIP3    H158358   1.724   1.562   0.566  1.8694 -0.2342 -0.7053
12289TIP3    H258359   1.818   1.536   0.683 -0.4260 -1.4116  0.9568
12290TIP3   OH258360   5.031   0.816  11.390 -0.2372 -0.9550  0.0722
12290TIP3    H158361   4.999   0.726  11.398  1.9014 -1.6421  1.4748
12290TIP3    H258362   5.008   0.858  11.473  0.0737 -0.6245 -0.0045
12291TIP3   OH258363   1.768   4.494   4.419  0.3132  0.8030  0.1889
12291TIP3    H158364   1.772   4.589   4.406 -0.2732  1.0303  1.5317
12291TIP3    H258365   1.829   4.458   4.354 -0.7202  1.9794 -1.5214
12292TIP3   OH258366   1.527   3.196  13.311 -0.0242  0.0078 -0.2450
12292TIP3    H158367   1.479   3.155  13.238 -2.0231 -0.1804  1.0919
12292TIP3    H258368   1.472   3.271  13.335  0.6134  0.0755  1.0534
12293TIP3   OH258369   5.848   1.723  11.537  0.4360 -0.0196 -0.2455
12293TIP3    H158370   5.782   1.676  11.588  0.2263 -0.6070 -1.0316
12293TIP3    H258371   5.799   1.792  11.492  0.3875 -0.3544 -0.7052
12294TIP3   OH258372   2.177   1.545   1.494  0.0804  0.0387  0.2581
12294TIP3    H158373   2.139   1.627   1.464  1.5113  0.6904  0.1305
12294TIP3    H258374   2.271   1.564   1.502  0.1878 -1.0264  2.0549
12295TIP3   OH258375   1.001   4.105  16.028  0.1403  0.4898 -0.4300
12295TIP3    H158376   0.944   4.040  15.985 -0.0004  1.2745 -1.4690
12295TIP3    H258377   0.980   4.097  16.121 -1.4661  0.5391 -0.7492
12296TIP3   OH258378   5.416   6.540   2.562  0.0265  0.1912  0.0533
12296TIP3    H158379   5.400   6.602   2.634  1.8685 -1.5671  2.1294
12296TIP3    H258380   5.351   6.563   2.495 -0.9626  2.7248  1.7472
12297TIP3   OH258381   4.692   3.046  12.797  0.2159  0.2297 -0.3774
12297TIP3    H158382   4.737   3.065  12.879 -0.7777 -0.1091  0.2630
12297TIP3    H258383   4.673   3.132  12.760  0.8663  0.3824 -0.3833
12298TIP3   OH258384   4.387   1.318  13.709 -0.4420 -0.0561  0.1433
12298TIP3    H158385   4.372   1.248  13.645 -2.5012  1.3068 -0.9889
12298TIP3    H258386   4.372   1.276  13.794 -0.0852 -1.3270 -0.3901
12299TIP3   OH258387   1.022   1.121  16.260  0.0517  0.6137 -0.5114
12299TIP3    H158388   1.084   1.130  16.188 -0.3947  1.2042 -0.8277
12299TIP3    H258389   0.944   1.167  16.231 -0.2695  0.5319  0.1962
12300TIP3   OH258390   3.424   2.959   1.898 -0.1646  0.3936 -0.2940
12300TIP3    H158391   3.385   2.953   1.811  0.1664 -1.4715 -0.3525
12300TIP3    H258392   3.514   2.988   1.882 -0.3560  0.8753 -0.5006
12301TIP3   OH258393   3.880   2.288  16.905  0.0008 -0.1979 -0.5347
12301TIP3    H158394   3.892   2.343  16.982 -1.5045 -0.4079 -0.1341
12301TIP3    H258395   3.818   2.221  16.932 -1.2342  0.2331 -2.1660
12302TIP3   OH258396   0.551   0.975   1.628 -0.1467  0.0099  0.1759
12302TIP3    H158397   0.611   1.018   1.689 -0.6421 -0.4789  1.0308
12302TIP3    H258398   0.554   1.029   1.549  0.8670  0.3887  0.4581
12303TIP3   OH258399   3.138   5.940  15.853 -0.0425 -0.5996  0.0667
12303TIP3    H158400   3.211   5.959  15.794  1.1261  0.2560  1.7418
12303TIP3    H258401   3.176   5.889  15.924 -0.1361  2.9185  2.9259
12304TIP3   OH258402   4.639   6.295  12.925 -0.0583 -0.1704 -0.1667
12304TIP3    H158403   4.694   6.370  12.901 -0.2208  0.0252  0.0612
12304TIP3    H258404   4.618   6.252  12.842  0.3517 -0.1849 -0.2644
12305TIP3   OH258405   2.863   4.893  13.274  0.3817  0.0684  0.3368
12305TIP3    H158406   2.940   4.839  13.259 -0.6630 -1.2644 -0.5652
12305TIP3    H258407   2.828   4.863  13.358  0.6024  0.3671  0.5360
12306TIP3   OH258408   0.501   2.049   2.588  0.1492 -0.4607  0.3762
12306TIP3    H158409   0.577   2.065   2.532  0.1033 -0.8604  0.1930
12306TIP3    H258410   0.465   1.967   2.555 -0.4002 -0.2386  0.4233
12307TIP3   OH258411   6.504   5.758   4.874  0.4630 -0.3854  0.0505
12307TIP3    H158412   6.415   5.769   4.839  0.5911 -1.5696 -0.7304
12307TIP3    H258413   6.497   5.779   4.967 -1.0133 -2.0033  0.3557
12308TIP3   OH258414   5.017   5.442   0.977 -0.6101  0.0429  0.0804
12308TIP3    H158415   4.954   5.476   1.040 -1.7229  0.0335 -0.9906
12308TIP3    H258416   5.097   5.491   0.995 -1.4224  1.3480  0.3195
12309TIP3   OH258417   6.439   2.007  11.493  0.4229  0.0317 -0.4108
12309TIP3    H158418   6.370   2.019  11.557 -1.1468 -0.2663 -1.9765
12309TIP3    H258419   6.419   2.068  11.423  1.9841  0.2213 -0.7312
12310TIP3   OH258420   4.444   0.301  11.290  0.0717 -1.0350  0.1993
12310TIP3    H158421   4.357   0.325  11.320  0.2450 -1.3030  0.9436
12310TIP3    H258422   4.486   0.385  11.270 -0.2346 -0.8837  0.1898
12311TIP3   OH258423   3.675   5.929   2.602  0.3577  0.1070 -0.0314
12311TIP3    H158424   3.630   5.846   2.615 -0.7749  0.2368 -2.5100
12311TIP3    H258425   3.768   5.908   2.607  0.0989 -1.4186 -1.0045
12312TIP3   OH258426   6.221   5.164   3.473  0.0368 -0.3153 -0.0253
12312TIP3    H158427   6.282   5.235   3.496 -0.9834  0.2974  0.9358
12312TIP3    H258428   6.271   5.107   3.415  0.6806  1.5614 -1.4222
12313TIP3   OH258429   3.875   3.733   5.387  0.0452  0.1799 -0.1708
12313TIP3    H158430   3.870   3.694   5.474  0.7255 -2.0949 -1.0925
12313TIP3    H258431   3.800   3.792   5.384  0.4863  0.9957  2.2300
12314TIP3   OH258432   5.930   5.646  12.099 -0.2160  0.4130 -0.3672
12314TIP3    H158433   5.992   5.599  12.043 -1.2725 -0.2372 -1.0190
12314TIP3    H258434   5.984   5.684  12.168  0.8456 -0.5254 -0.6603
12315TIP3   OH258435   6.799   5.555   4.286 -0.0172  0.0543 -0.3170
12315TIP3    H158436   6.850   5.580   4.363  0.9258 -1.0792 -0.5377
12315TIP3    H258437   6.743   5.630   4.269 -0.6209  0.1587  1.7794
12316TIP3   OH258438   5.623   0.062  12.164 -0.2150  0.0762 -0.0929
12316TIP3    H158439   5.689   0.011  12.116  1.2917 -0.4197  2.3332
12316TIP3    H258440   5.540   0.019  12.144  0.3657 -0.3288 -1.8755
12317TIP3   OH258441   3.380   2.092  15.755  0.6756 -0.0411  0.3437
12317TIP3    H158442   3.379   2.188  15.757  0.9744 -0.0145 -0.2631
12317TIP3    H258443   3.288   2.067  15.763  0.6264  0.2850  0.8311
12318TIP3   OH258444   1.285   1.788   3.449 -0.2752 -0.3908  0.4695
12318TIP3    H158445   1.277   1.693   3.459 -0.0970 -0.3601  0.9105
12318TIP3    H258446   1.199   1.822   3.473 -0.0505 -0.3691  1.2667
12319TIP3   OH258447   5.919   5.935   5.857  0.5544 -0.2408  0.2192
12319TIP3    H158448   5.889   5.865   5.800  0.4131 -0.0586  0.0679
12319TIP3    H258449   5.963   5.890   5.929  1.4545 -0.4467 -0.4428
12320TIP3   OH258450   0.027   2.049   1.194  0.0258  0.3113 -0.2560
12320TIP3    H158451   0.016   1.955   1.181  1.3994  0.0338  0.3616
12320TIP3    H258452   0.038   2.059   1.288  1.0379  0.9373 -0.4248
12321TIP3   OH258453   0.641   2.755  12.109 -0.2903 -0.1669  0.3191
12321TIP3    H158454   0.570   2.717  12.161 -0.8484  0.3254 -0.0735
12321TIP3    H258455   0.718   2.701  12.131 -0.2981  0.5568  2.3262
12322TIP3   OH258456   3.313   1.535  16.915  0.6448 -0.1293 -0.1843
12322TIP3    H158457   3.310   1.561  16.823 -0.8422 -0.0109 -0.1343
12322TIP3    H258458   3.293   1.441  16.913 -4.5719  0.6502  0.2002
12323TIP3   OH258459   1.485   0.571  15.525 -0.2278  0.0553 -0.0165
12323TIP3    H158460   1.500   0.515  15.449 -3.4474  0.1163 -0.8324
12323TIP3    H258461   1.482   0.511  15.600 -1.4775 -0.6028 -0.5831
12324TIP3   OH258462   5.157   1.968   1.179 -0.2183 -0.1750  0.6564
12324TIP3    H158463   5.224   1.982   1.112 -0.5568 -1.0837  0.0945
12324TIP3    H258464   5.094   2.038   1.166 -1.1955 -1.3103 -1.1843
12325TIP3   OH258465   6.048   3.100  16.706 -0.2248 -0.3053  0.6142
12325TIP3    H158466   6.091   3.043  16.770 -0.4046 -0.0305  0.9820
12325TIP3    H258467   6.120   3.147  16.663 -0.1369 -0.0668  1.0185
12326TIP3   OH258468   5.945   2.360   4.598 -0.4783  0.2327 -0.1869
12326TIP3    H158469   5.889   2.424   4.641 -1.1568  0.7353 -1.7486
12326TIP3    H258470   5.895   2.278   4.601  0.6191 -0.4467  2.2953
12327TIP3   OH258471   5.475   3.865   2.736  0.2951  0.1564 -0.2166
12327TIP3    H158472   5.533   3.800   2.696 -2.2683 -2.0553 -0.5436
12327TIP3    H258473   5.482   3.848   2.830  1.6134  1.2686 -0.0656
12328TIP3   OH258474   5.913   2.484  15.680 -0.0306 -0.7050 -0.0735
12328TIP3    H158475   5.978   2.552  15.699 -1.1078 -0.4394  3.2968
12328TIP3    H258476   5.901   2.489  15.585  0.9044  2.9234 -0.1710
12329TIP3   OH258477   0.229   3.758  16.483 -0.0919  0.1294  0.0448
12329TIP3    H158478   0.248   3.686  16.423  0.5762  0.8952 -0.6908
12329TIP3    H258479   0.283   3.740  16.560  0.9455  0.4106 -0.5883
12330TIP3   OH258480   4.947   5.019   2.321  0.0213 -0.1724  0.0825
12330TIP3    H158481   4.978   4.938   2.360 -2.7738 -1.9179 -1.0164
12330TIP3    H258482   4.873   5.046   2.376  0.4939  1.2931  0.0500
12331TIP3   OH258483   4.446   5.389   1.349  0.1900  0.5402  0.1935
12331TIP3    H158484   4.359   5.411   1.318  0.0849  0.5899  0.5191
12331TIP3    H258485   4.471   5.462   1.407  0.5930  0.7039 -0.1768
12332TIP3   OH258486   4.549   1.109  12.169  0.3410 -0.0434 -0.2597
12332TIP3    H158487   4.638   1.130  12.197  0.4461 -1.4163  0.5152
12332TIP3    H258488   4.560   1.067  12.083  0.6392 -1.7415  0.5606
12333TIP3   OH258489   5.832   5.783  11.287  0.0205 -0.4916 -0.5453
12333TIP3    H158490   5.914   5.739  11.311  2.3849  3.8401  0.3358
12333TIP3    H258491   5.802   5.823  11.369 -1.8728 -0.2840 -1.3080
12334TIP3   OH258492   0.500   4.574  11.909 -0.2513 -0.0720 -0.0771
12334TIP3    H158493   0.471   4.521  11.984 -3.1060  1.2360 -0.1321
12334TIP3    H258494   0.585   4.608  11.936 -0.6111 -0.6724  2.0351
12335TIP3   OH258495   6.567   4.112  15.751  0.0332 -0.3695  0.0268
12335TIP3    H158496   6.605   4.199  15.758  1.6307 -0.6968 -3.0154
12335TIP3    H258497   6.626   4.056  15.802  0.5106 -0.0661 -0.1868
12336TIP3   OH258498   6.824   1.561  14.970 -0.5150  0.5314  0.2513
12336TIP3    H158499   6.850   1.558  15.062  0.0122 -0.4281  0.0814
12336TIP3    H258500   6.743   1.511  14.967  0.2059 -0.6486 -0.0287
12337TIP3   OH258501   1.455   4.322  12.889  0.1743  0.5137 -0.1951
12337TIP3    H158502   1.407   4.390  12.936 -2.4455 -0.5335 -1.1677
12337TIP3    H258503   1.404   4.306  12.810  2.2585 -0.6117 -1.4099
12338TIP3   OH258504   0.877   6.156  10.967 -0.2266 -0.4685 -0.1063
12338TIP3    H158505   0.789   6.186  10.948 -0.3313 -0.7748 -0.1190
12338TIP3    H258506   0.934   6.226  10.938 -0.6065  1.6168  3.5408
12339TIP3   OH258507   2.046   0.082  14.030 -0.2845  0.1306  0.1379
12339TIP3    H158508   2.131   0.078  14.074  1.1381 -0.0150 -2.4409
12339TIP3    H258509   1.983   0.080  14.101  1.8654  1.5517  2.2627
12340TIP3   OH258510   3.800   5.212   4.379  0.1681  0.3545  0.2190
12340TIP3    H158511   3.835   5.280   4.437 -0.5280  2.0971 -1.3183
12340TIP3    H258512   3.869   5.197   4.315 -0.7744  1.8363 -1.2123
12341TIP3   OH258513   3.669   0.805  16.409  0.5546  0.0694 -0.2387
12341TIP3    H158514   3.722   0.796  16.330 -1.8116 -0.6551 -1.8812
12341TIP3    H258515   3.732   0.807  16.481  2.7874  0.1446 -2.0811
12342TIP3   OH258516   4.671   0.089  13.667  0.1546 -0.0406 -0.1776
12342TIP3    H158517   4.580   0.114  13.680 -0.3234 -0.5909 -2.2322
12342TIP3    H258518   4.694   0.040  13.747 -0.3261  2.6971  1.7656
12343TIP3   OH258519   1.796   5.123   2.098 -0.7441 -0.5061 -0.7709
12343TIP3    H158520   1.861   5.172   2.047 -1.5969  1.5261 -0.0101
12343TIP3    H258521   1.713   5.146   2.057 -1.2697 -0.3611  0.3673
12344TIP3   OH258522   0.136   4.221  12.184  0.5368  0.0593 -0.3028
12344TIP3    H158523   0.155   4.168  12.106 -0.4053  0.7820 -1.0330
12344TIP3    H258524   0.212   4.206  12.240  2.1933  1.0341 -2.1488
12345TIP3   OH258525   1.784   4.791   4.961 -0.6943  0.0240 -0.3937
12345TIP3    H158526   1.801   4.874   4.917 -1.9033  0.6077  0.1852
12345TIP3    H258527   1.725   4.813   5.033 -0.6266 -1.2616  0.0915
12346TIP3   OH258528   1.201   4.287  13.115 -0.0977 -0.4880  0.0621
12346TIP3    H158529   1.119   4.309  13.160 -1.1058 -1.1535 -1.3843
12346TIP3    H258530   1.233   4.371  13.081  0.0768 -0.1590  0.9946
12347TIP3   OH258531   3.580   5.138  12.964  0.1821 -0.4769  0.0377
12347TIP3    H158532   3.530   5.076  13.017 -0.3498  1.0850  1.4549
12347TIP3    H258533   3.514   5.196  12.926  0.7419  0.0558 -0.1440
12348TIP3   OH258534   2.589   1.472  11.615 -0.1823  0.6247 -0.0844
12348TIP3    H158535   2.668   1.486  11.667 -0.6238  1.1097  0.4637
12348TIP3    H258536   2.563   1.560  11.588 -2.9805  1.0265  3.3562
12349TIP3   OH258537   4.796   0.286  15.122  0.4317  0.2611  0.2974
12349TIP3    H158538   4.821   0.348  15.053  0.5169 -0.0318  0.0637
12349TIP3    H258539   4.873   0.280  15.178  1.4415 -1.7115 -1.2037
12350TIP3   OH258540   5.464   5.359  13.629 -0.5086  0.1541  0.0927
12350TIP3    H158541   5.370   5.360  13.650 -0.0725  1.1052  2.3251
12350TIP3    H258542   5.503   5.313  13.703  0.7297 -1.2619 -1.3648
12351TIP3   OH258543   5.511   5.911   2.563  0.2319  0.3836  0.0728
12351TIP3    H158544   5.598   5.880   2.589  0.7843  1.7744 -0.0169
12351TIP3    H258545   5.469   5.834   2.525  2.2776  0.1901 -2.0497
12352TIP3   OH258546   2.908   2.144   1.638  0.3171  0.3490 -0.2859
12352TIP3    H158547   2.833   2.131   1.696  0.4245  0.0208 -0.2196
12352TIP3    H258548   2.984   2.140   1.696  0.4101  0.2767 -0.4130
12353TIP3   OH258549   2.306   4.939   3.065  0.1456  0.5105  0.3116
12353TIP3    H158550   2.288   4.845   3.059 -1.1826  0.8343 -1.2450
12353TIP3    H258551   2.382   4.953   3.009  0.7089  0.3059  1.0010
12354TIP3   OH258552   1.270   0.525   3.908 -0.6511  0.0263  0.1841
12354TIP3    H158553   1.248   0.588   3.841 -0.2124 -2.1689 -2.1826
12354TIP3    H258554   1.318   0.456   3.862  0.5840 -1.1429  2.9439
12355TIP3   OH258555   6.698   6.674   1.812  0.0743 -0.1582  0.4431
12355TIP3    H158556   6.791   6.692   1.795 -0.3934  1.2303 -0.8531
12355TIP3    H258557   6.666   6.635   1.731 -0.2678 -1.6401  1.2592
12356TIP3   OH258558   2.956   4.295   6.045  0.0539  0.0865 -0.3446
12356TIP3    H158559   2.902   4.352   5.991 -0.9819  0.8118  1.3588
12356TIP3    H258560   2.896   4.264   6.114  0.7533 -2.5136 -0.7859
12357TIP3   OH258561   1.404   6.534  11.420  0.0808  0.3070 -0.0504
12357TIP3    H158562   1.363   6.509  11.337 -0.5856 -0.0445  0.3764
12357TIP3    H258563   1.422   6.450  11.464  0.7229  0.4778  0.0325
12358TIP3   OH258564   3.031   2.907  16.165 -0.4211  0.3374 -0.2466
12358TIP3    H158565   3.053   2.973  16.231  1.5565 -1.1925  0.7455
12358TIP3    H258566   3.040   2.823  16.211  0.2058 -0.7502 -2.2104
12359TIP3   OH258567   3.301   0.785  11.474  0.2127 -0.0431  0.4838
12359TIP3    H158568   3.335   0.784  11.563  1.4615  0.9713  0.0583
12359TIP3    H258569   3.351   0.854  11.430 -0.4270 -0.4648 -0.9833
12360TIP3   OH258570   4.255   2.077   4.664  0.8904 -0.2855 -0.4455
12360TIP3    H158571   4.276   2.090   4.757  2.4392 -0.8406 -0.6885
12360TIP3    H258572   4.238   2.165   4.631 -0.6106 -0.1730  0.5569
12361TIP3   OH258573   2.289   6.227   2.950  0.0769 -0.3047 -0.5104
12361TIP3    H158574   2.222   6.161   2.934 -0.8155  0.3239  0.4511
12361TIP3    H258575   2.244   6.311   2.936  0.3879  0.1516  0.9643
12362TIP3   OH258576   1.493   0.719   4.354  0.3424 -0.1992 -0.2860
12362TIP3    H158577   1.499   0.662   4.277  0.8396 -0.3995 -0.1033
12362TIP3    H258578   1.568   0.779   4.345 -1.2410  1.7072 -1.4836
12363TIP3   OH258579   1.069   0.344  14.898  0.7629  0.1664 -0.7621
12363TIP3    H158580   0.980   0.343  14.932  0.4159  0.4152 -1.6511
12363TIP3    H258581   1.121   0.301  14.967  0.1759  1.1257  0.3076
12364TIP3   OH258582   2.848   0.360   4.190 -0.3273 -0.2907 -0.5932
12364TIP3    H158583   2.843   0.389   4.281 -3.2418 -1.6727 -0.2032
12364TIP3    H258584   2.933   0.316   4.184  0.1553  0.2701  1.3119
12365TIP3   OH258585   3.208   3.460  11.776  0.5016 -0.5281 -0.3486
12365TIP3    H158586   3.200   3.523  11.848 -1.9581 -0.0022 -0.9978
12365TIP3    H258587   3.264   3.391  11.812 -0.8731 -0.4378  2.2287
12366TIP3   OH258588   0.474   2.564  12.235  0.1139 -0.6115  0.3616
12366TIP3    H158589   0.456   2.475  12.206 -0.4382 -0.6130  0.7004
12366TIP3    H258590   0.517   2.553  12.320  0.6103 -0.5671  0.1231
12367TIP3   OH258591   4.779   4.711   3.430  0.2915 -0.1800  0.3946
12367TIP3    H158592   4.728   4.786   3.400  0.4207  0.3797  1.5539
12367TIP3    H258593   4.719   4.661   3.485  0.6959 -0.0270  0.9861
12368TIP3   OH258594   0.815   6.631   3.162 -0.5873 -0.1729 -0.0952
12368TIP3    H158595   0.759   6.560   3.193  0.0013 -0.6886 -0.1820
12368TIP3    H258596   0.898   6.588   3.140  0.1581  0.6909  0.8815
12369TIP3   OH258597   1.200   2.087  15.199  0.1910 -0.2847  0.1561
12369TIP3    H158598   1.127   2.056  15.251 -0.2791  0.3069 -0.1394
12369TIP3    H258599   1.166   2.162  15.151  1.1965  0.4691  0.5797
12370TIP3   OH258600   1.965   1.805  14.550 -0.7803  0.0587  0.4462
12370TIP3    H158601   2.043   1.774  14.504  0.7278  1.6859  1.7458
12370TIP3    H258602   1.893   1.752  14.515  0.9316 -1.6800 -0.6200
12371TIP3   OH258603   0.695   2.329   1.948 -0.0171 -0.6051 -0.1273
12371TIP3    H158604   0.646   2.320   2.030 -0.3648  0.2645 -0.2343
12371TIP3    H258605   0.784   2.300   1.971 -0.2706 -1.0160  0.3762
12372TIP3   OH258606   2.523   5.941  16.339  0.1122  0.4442 -0.1470
12372TIP3    H158607   2.470   6.016  16.365 -2.3349 -1.6322  1.4453
12372TIP3    H258608   2.466   5.893  16.278  0.9085 -0.9221  0.1536
12373TIP3   OH258609   5.048   4.040   2.909 -0.2112  0.0094 -0.2384
12373TIP3    H158610   5.100   3.999   2.978 -0.3395  0.2078 -0.0231
12373TIP3    H258611   5.041   4.132   2.935 -0.8828 -0.0667 -0.1350
12374TIP3   OH258612   2.477   0.180   0.382 -0.1297  0.2753  0.1641
12374TIP3    H158613   2.400   0.166   0.327 -0.4272 -0.4318  0.7576
12374TIP3    H258614   2.442   0.202   0.468  0.3347  0.6521  0.2589
12375TIP3   OH258615   5.820   5.941   4.056  0.7250  0.1662  0.2168
12375TIP3    H158616   5.824   6.009   4.123  3.3127  0.6057 -0.2662
12375TIP3    H258617   5.752   5.970   3.996  0.0233  0.9904  1.3844
12376TIP3   OH258618   5.792   6.831  11.230 -0.0076  0.0902  0.1629
12376TIP3    H158619   5.763   6.876  11.309 -0.0624 -0.9843  0.7678
12376TIP3    H258620   5.860   6.887  11.194 -1.2749  1.5453 -0.0766
12377TIP3   OH258621   6.322   4.399   2.987 -0.3114 -0.0715 -0.2262
12377TIP3    H158622   6.340   4.492   3.002  1.0859 -0.5564  1.5037
12377TIP3    H258623   6.357   4.355   3.065 -0.1423 -2.1380 -1.3890
12378TIP3   OH258624   5.409   4.460   5.474  0.2485  0.5466  0.7371
12378TIP3    H158625   5.478   4.484   5.536  2.0703 -2.6798  0.1554
12378TIP3    H258626   5.374   4.378   5.508  1.1926 -1.2674 -2.3342
12379TIP3   OH258627   6.774   6.735  13.350  0.2794 -0.1029 -0.0467
12379TIP3    H158628   6.756   6.783  13.431 -1.2622 -0.2671 -0.2693
12379TIP3    H258629   6.754   6.797  13.280 -2.3086 -1.1543 -0.3507
12380TIP3   OH258630   4.286   2.023  13.181 -0.0206  0.1571 -0.0143
12380TIP3    H158631   4.324   2.017  13.094 -0.9379  0.2286 -0.4302
12380TIP3    H258632   4.361   2.040  13.239  0.8105 -1.4015 -0.5770
12381TIP3   OH258633   4.366   4.896   2.087 -0.0959  0.3370  0.2210
12381TIP3    H158634   4.374   4.830   2.156 -1.1577 -0.5847 -0.5120
12381TIP3    H258635   4.445   4.885   2.034 -1.0983 -1.6269 -0.9581
12382TIP3   OH258636   1.607   6.559   3.780 -0.2355 -0.2921  0.1649
12382TIP3    H158637   1.589   6.563   3.686 -1.3180 -2.3296  0.2216
12382TIP3    H258638   1.523   6.582   3.821 -0.0573 -0.4334  0.6106
12383TIP3   OH258639   6.778   6.334   6.483 -0.2928 -0.1188 -0.2219
12383TIP3    H158640   6.802   6.245   6.457 -0.5888  0.1528 -1.5013
12383TIP3    H258641   6.779   6.384   6.401  0.5702  1.2273  0.5715
12384TIP3   OH258642   5.609   4.288  12.859  0.3954 -0.2479  0.3364
12384TIP3    H158643   5.642   4.269  12.771 -0.4890  2.4644 -0.6966
12384TIP3    H258644   5.514   4.289  12.849  0.2968  0.5857  1.1927
12385TIP3   OH258645   3.545   2.752  16.195  0.5909 -0.3201  0.0475
12385TIP3    H158646   3.554   2.733  16.288 -0.7952  2.8488  0.9633
12385TIP3    H258647   3.627   2.795  16.171  0.7871 -0.7814 -0.1310
12386TIP3   OH258648   1.908   5.724   4.863 -0.6404  0.5650  0.9505
12386TIP3    H158649   1.977   5.695   4.923  1.5909 -0.2480 -1.7644
12386TIP3    H258650   1.929   5.816   4.846 -1.8732  1.0904  2.1087
12387TIP3   OH258651   2.005   5.239   1.978  0.1493  0.0438  0.2974
12387TIP3    H158652   2.062   5.233   1.902  1.8097  0.4043  1.4717
12387TIP3    H258653   2.048   5.300   2.037 -0.7369 -0.7346  1.8335
12388TIP3   OH258654   3.260   3.731  16.247  0.1056  0.4217 -0.3757
12388TIP3    H158655   3.203   3.785  16.302  0.7302  0.3880  0.3225
12388TIP3    H258656   3.328   3.791  16.217  1.9091 -0.3195  1.9696
12389TIP3   OH258657   1.197   3.544  15.576 -0.4813  0.6602  0.2284
12389TIP3    H158658   1.178   3.592  15.495  1.0887  4.2814  1.8091
12389TIP3    H258659   1.213   3.611  15.641 -1.9936 -2.0719  3.7607
12390TIP3   OH258660   2.250   1.355   1.238  0.1902  0.1283 -0.2088
12390TIP3    H158661   2.193   1.294   1.284  0.2714  0.4275  0.2903
12390TIP3    H258662   2.289   1.409   1.307  0.3384  0.5550 -0.6193
12391TIP3   OH258663   1.023   5.734  15.219  0.5013 -0.4434  0.3867
12391TIP3    H158664   1.020   5.786  15.300  2.0435 -0.5750  0.5473
12391TIP3    H258665   1.099   5.767  15.172 -0.8211  0.1958 -1.4372
12392TIP3   OH258666   1.283   5.323   4.123 -0.2415 -0.0504 -0.0307
12392TIP3    H158667   1.239   5.363   4.198  0.7709  1.3355 -0.1163
12392TIP3    H258668   1.374   5.314   4.151 -0.1207 -0.7813 -0.6231
12393TIP3   OH258669   3.062   3.242  15.890 -0.3590 -0.3196  0.7333
12393TIP3    H158670   3.078   3.185  15.816 -1.7556 -0.0821  0.2102
12393TIP3    H258671   3.115   3.205  15.961 -0.2618 -1.5100  0.0690
12394TIP3   OH258672   2.330   2.374   0.208 -0.0890  0.6880 -0.6373
12394TIP3    H158673   2.375   2.363   0.124 -0.1553  0.2954 -0.6240
12394TIP3    H258674   2.253   2.317   0.201  0.5423 -0.3002  0.1489
12395TIP3   OH258675   4.839   6.670   2.025  0.4510 -0.1822  0.3146
12395TIP3    H158676   4.853   6.646   1.934 -0.3379 -0.4326  0.2532
12395TIP3    H258677   4.860   6.764   2.028  0.5443 -0.1878 -0.1077
12396TIP3   OH258678   1.892   4.226  14.301 -0.4714 -0.1940  0.4796
12396TIP3    H158679   1.895   4.142  14.348 -1.0010 -0.6883 -0.3256
12396TIP3    H258680   1.802   4.232  14.269 -0.1304  0.1126 -0.4682
12397TIP3   OH258681   3.027   2.948   1.863 -0.1487 -0.5282 -0.3527
12397TIP3    H158682   2.941   2.962   1.901 -0.8792 -0.3041 -2.0098
12397TIP3    H258683   3.080   3.021   1.896 -1.2144  0.6076 -1.0419
12398TIP3   OH258684   1.783   5.368  15.899  0.2681  0.3511  0.8549
12398TIP3    H158685   1.791   5.325  15.813  2.5469  0.4977  0.9318
12398TIP3    H258686   1.711   5.322  15.942 -0.4067 -0.2501 -0.8350
12399TIP3   OH258687   0.023   4.909  11.355 -0.5542 -0.1317 -0.1127
12399TIP3    H158688   0.039   5.002  11.345 -0.2711 -0.1859 -0.1870
12399TIP3    H258689   0.111   4.869  11.355 -0.6774 -0.4090 -0.2207
12400TIP3   OH258690   4.821   0.238   3.190  0.1587 -0.0435 -0.1615
12400TIP3    H158691   4.809   0.225   3.284 -0.2780  0.2009 -0.1789
12400TIP3    H258692   4.736   0.270   3.160  0.2225 -0.3614 -0.6815
12401TIP3   OH258693   1.341   0.520   3.449  0.5429  0.2346  0.2474
12401TIP3    H158694   1.335   0.525   3.354 -1.5857  1.6367  0.3988
12401TIP3    H258695   1.399   0.592   3.473  0.9502 -0.0204  0.0424
12402TIP3   OH258696   3.271   6.086   3.044 -0.1869 -0.2612  0.2768
12402TIP3    H158697   3.185   6.120   3.066 -0.4873 -1.2206  0.6336
12402TIP3    H258698   3.304   6.145   2.977 -1.4077 -0.2661 -0.3569
12403TIP3   OH258699   2.835   2.271  10.405 -0.3942  0.0754  0.5227
12403TIP3    H158700   2.788   2.274  10.322  1.4322 -0.5583 -0.5851
12403TIP3    H258701   2.772   2.233  10.467 -1.7702  0.5274 -0.5572
12404TIP3   OH258702   3.938   3.649  11.336  0.0612  0.3257  0.5554
12404TIP3    H158703   3.903   3.722  11.284  0.5196  0.1027 -0.0906
12404TIP3    H258704   3.931   3.678  11.427  0.3328  1.2190  0.2974
12405TIP3   OH258705   3.551   1.848  15.224  0.5288 -0.2678 -0.2525
12405TIP3    H158706   3.561   1.814  15.313 -2.9355 -2.0921 -0.3900
12405TIP3    H258707   3.585   1.779  15.168 -2.5478 -1.8733 -0.3784
12406TIP3   OH258708   5.653   3.082   0.447  0.4165 -0.6442 -0.6039
12406TIP3    H158709   5.707   3.048   0.376  1.6810  0.2743 -0.1315
12406TIP3    H258710   5.570   3.105   0.406  1.6138  1.2849 -2.1428
12407TIP3   OH258711   0.984   6.695  14.252 -0.1831 -0.1088  0.7444
12407TIP3    H158712   1.045   6.641  14.202 -1.5324  0.2716 -1.4071
12407TIP3    H258713   1.023   6.782  14.251 -0.4712  0.0181 -0.1629
12408TIP3   OH258714   6.152   0.373   4.078 -0.0161  0.2162  0.0376
12408TIP3    H158715   6.135   0.446   4.019 -0.2896  0.7980  0.8155
12408TIP3    H258716   6.241   0.387   4.109  0.0658  0.0095 -0.1025
12409TIP3   OH258717   2.859   5.920  13.356 -0.0810  0.1818  0.0774
12409TIP3    H158718   2.871   5.976  13.433 -0.4576  0.4350 -0.0416
12409TIP3    H258719   2.769   5.889  13.364 -0.7539  1.6594 -1.1874
12410TIP3   OH258720   0.202   2.450   1.379  0.0880  0.1304  0.4271
12410TIP3    H158721   0.111   2.422   1.383  0.2850 -0.7382 -0.8148
12410TIP3    H258722   0.244   2.408   1.454 -0.0672 -1.2797 -0.2544
12411TIP3   OH258723   3.948   4.737  11.566 -0.0745  0.2472 -0.0822
12411TIP3    H158724   3.888   4.704  11.498 -1.1100  0.2070  0.8162
12411TIP3    H258725   3.940   4.673  11.636  0.2693  0.7866  0.4508
12412TIP3   OH258726   1.577   0.127  12.902  0.3154 -0.0304 -0.1090
12412TIP3    H158727   1.515   0.057  12.882 -1.8412  1.8693 -0.6064
12412TIP3    H258728   1.642   0.087  12.959  0.3875 -2.9127 -2.0335
12413TIP3   OH258729   5.168   3.011  16.644  0.2592  0.4256  0.2438
12413TIP3    H158730   5.091   3.058  16.613  0.4891  0.2131 -0.6745
12413TIP3    H258731   5.240   3.073  16.632  0.5097 -0.0229 -0.6504
12414TIP3   OH258732   2.132   3.542  15.468  0.1901 -0.3630  0.1093
12414TIP3    H158733   2.045   3.535  15.429  0.1768  1.0044 -0.1692
12414TIP3    H258734   2.171   3.619  15.426  1.1152 -0.3079  1.0321
12415TIP3   OH258735   1.372   3.689  12.787 -0.4308  0.2278 -0.1037
12415TIP3    H158736   1.390   3.779  12.813 -0.7802  0.1737  0.3407
12415TIP3    H258737   1.286   3.670  12.825 -1.0628  0.2209 -1.4865
12416TIP3   OH258738   3.946   1.481   5.711 -0.1412  0.0437 -0.3484
12416TIP3    H158739   4.025   1.482   5.765 -0.6881  0.5867  0.4732
12416TIP3    H258740   3.978   1.475   5.621  0.7856 -1.2063  0.0391
12417TIP3   OH258741   2.398   1.283  16.456 -0.0902  0.0264  0.2740
12417TIP3    H158742   2.460   1.274  16.529  2.0216 -0.4662 -1.4695
12417TIP3    H258743   2.376   1.193  16.432  1.2958  0.0741 -1.3079
12418TIP3   OH258744   3.264   5.832   1.977  0.1129  0.3071 -0.3723
12418TIP3    H158745   3.217   5.794   2.051  2.6872  1.5205  2.0711
12418TIP3    H258746   3.357   5.828   2.002  0.8698  4.1038 -1.8194
12419TIP3   OH258747   3.613   0.038  14.205 -0.4151 -0.0388  0.4312
12419TIP3    H158748   3.577  -0.027  14.266 -0.9532 -0.1434  0.0013
12419TIP3    H258749   3.708   0.033  14.219 -0.4110 -1.2037  0.1219
12420TIP3   OH258750   3.990   4.781  15.217 -0.3962 -0.1035  0.3615
12420TIP3    H158751   3.950   4.700  15.186 -1.5563  0.3329  0.6611
12420TIP3    H258752   4.083   4.760  15.226 -0.8644 -1.8365  1.8153
12421TIP3   OH258753   2.222   4.282   1.644 -0.0922  0.3094 -0.1717
12421TIP3    H158754   2.245   4.241   1.561  1.5080  1.4211 -0.3276
12421TIP3    H258755   2.226   4.210   1.708  1.9631  0.0110 -0.5465
12422TIP3   OH258756   1.832   1.788  14.220 -0.4254 -0.0475 -0.2239
12422TIP3    H158757   1.847   1.709  14.271  2.3317 -0.9283 -2.1699
12422TIP3    H258758   1.768   1.763  14.154 -0.6010 -0.2193  0.0107
12423TIP3   OH258759   1.960   6.561  15.487  0.0348  0.3015 -0.3028
12423TIP3    H158760   2.024   6.568  15.415 -2.2329 -0.3366 -2.5421
12423TIP3    H258761   1.949   6.467  15.500  1.1308  0.3884  1.6824
12424TIP3   OH258762   3.737   2.085  17.056 -1.0018 -0.4326 -0.9234
12424TIP3    H158763   3.679   2.010  17.050  1.0050 -2.3095  1.0577
12424TIP3    H258764   3.709   2.131  17.135  0.1381 -1.3856  0.0802
12425TIP3   OH258765   4.628   2.037  16.110  0.5361 -0.0871  0.1772
12425TIP3    H158766   4.628   1.954  16.158  2.0788 -0.6481 -0.7221
12425TIP3    H258767   4.538   2.046  16.079  0.2478 -1.2332  0.6093
12426TIP3   OH258768   0.936   6.635  11.745  0.0122 -0.2224  0.7927
12426TIP3    H158769   0.969   6.651  11.656  0.8069 -0.6748  0.9954
12426TIP3    H258770   0.930   6.723  11.784 -1.0287  0.0392  0.0609
12427TIP3   OH258771   2.957   4.739  12.122 -0.3901  0.0893 -0.2102
12427TIP3    H158772   2.935   4.830  12.101 -0.4679  0.0618 -0.2485
12427TIP3    H258773   3.018   4.746  12.195  1.2949  0.2564 -1.5826
12428TIP3   OH258774   1.411   3.331  14.376  0.4009 -0.3460 -0.0017
12428TIP3    H158775   1.479   3.266  14.394 -1.0665 -2.6103 -2.0498
12428TIP3    H258776   1.352   3.326  14.451 -0.6826 -2.8418 -0.9158
12429TIP3   OH258777   4.359   4.792  15.045  0.0629 -0.4047  0.1959
12429TIP3    H158778   4.298   4.737  15.095  0.9572 -1.1119  0.5283
12429TIP3    H258779   4.429   4.732  15.019  0.5844  0.3845 -0.2396
12430TIP3   OH258780   3.718   6.582   0.972  0.0694 -0.3822  0.3875
12430TIP3    H158781   3.748   6.501   0.931  0.5799 -0.3636  0.7076
12430TIP3    H258782   3.625   6.566   0.992 -0.4089 -0.0946 -1.4696
12431TIP3   OH258783   2.253   0.574   2.489 -0.2507  0.2054  0.4788
12431TIP3    H158784   2.226   0.511   2.423  0.8654 -1.4814  1.5719
12431TIP3    H258785   2.174   0.626   2.506 -0.8422 -0.0226 -1.3672
12432TIP3   OH258786   6.512   5.929  13.627 -0.2105  0.0280  0.3783
12432TIP3    H158787   6.607   5.939  13.635  0.0465  1.5113 -2.6472
12432TIP3    H258788   6.499   5.839  13.597  0.4249  0.1903 -0.4354
12433TIP3   OH258789   4.571   4.069   5.258  0.5349  0.1846 -0.3477
12433TIP3    H158790   4.532   3.985   5.232 -1.5533  0.2584  2.1893
12433TIP3    H258791   4.511   4.135   5.225  0.6026  0.5342  0.2323
12434TIP3   OH258792   4.723   4.410   5.005  0.4250  0.0266 -0.3961
12434TIP3    H158793   4.682   4.496   4.992 -0.2260 -0.4652 -1.6932
12434TIP3    H258794   4.727   4.371   4.918  0.7474 -1.2587  0.1676
12435TIP3   OH258795   0.650   3.889  13.829 -0.0589  0.1344 -0.4478
12435TIP3    H158796   0.717   3.826  13.803 -0.2020  0.4391 -1.5945
12435TIP3    H258797   0.573   3.836  13.849 -0.1400 -0.0621 -1.2824
12436TIP3   OH258798   3.282   1.436  15.494  0.2280 -0.5518  0.9790
12436TIP3    H158799   3.354   1.398  15.544  1.7243  0.9710  0.1205
12436TIP3    H258800   3.294   1.402  15.405  0.6410  0.6056  0.5661
12437TIP3   OH258801   3.656   6.137  14.484  0.2359  0.3154 -0.3923
12437TIP3    H158802   3.614   6.220  14.504  0.4478  0.5616 -0.9600
12437TIP3    H258803   3.645   6.085  14.564 -1.2700  0.3091 -0.5833
12438TIP3   OH258804   5.551   0.440  10.342 -0.4349  0.7796  0.1389
12438TIP3    H158805   5.593   0.496  10.276 -2.5138  1.4625 -0.6931
12438TIP3    H258806   5.587   0.353  10.325  0.7437  1.3452 -0.4129
12439TIP3   OH258807   0.110   3.904   1.614 -0.5378  0.0551 -0.0967
12439TIP3    H158808   0.127   3.877   1.704 -0.1957 -0.5067 -0.3267
12439TIP3    H258809   0.082   3.996   1.622 -1.9430 -0.4081  0.7159
12440TIP3   OH258810   3.986   1.276  14.711 -0.7008 -0.4047  0.4963
12440TIP3    H158811   4.077   1.253  14.689 -0.3714  0.8759  0.4618
12440TIP3    H258812   3.934   1.212  14.663  0.1777 -1.2713  0.6459
12441TIP3   OH258813   4.254   2.094   4.929  0.5319 -0.7420  0.0642
12441TIP3    H158814   4.168   2.052   4.930  0.9114 -1.5632  1.4357
12441TIP3    H258815   4.263   2.132   5.016  1.2979 -0.1085 -0.2781
12442TIP3   OH258816   3.239   4.263   6.690  0.2956  0.6620 -0.0134
12442TIP3    H158817   3.263   4.172   6.702 -2.4918 -0.4148 -1.5938
12442TIP3    H258818   3.274   4.308   6.767 -0.0437 -2.0985  1.8966
12443TIP3   OH258819   4.410   3.802   5.316 -0.2206 -0.4989 -0.0271
12443TIP3    H158820   4.478   3.736   5.302 -1.2001 -2.2314  2.6085
12443TIP3    H258821   4.385   3.792   5.408 -1.6817  2.4107  0.0236
12444TIP3   OH258822   4.265   1.445   1.557 -0.0596 -0.6723  0.8112
12444TIP3    H158823   4.229   1.363   1.524 -0.4102 -0.1493 -0.1360
12444TIP3    H258824   4.233   1.512   1.496 -1.2251  0.4068  2.5142
12445TIP3   OH258825   5.499   3.407  11.797  0.3402 -0.5540 -0.5841
12445TIP3    H158826   5.523   3.358  11.876 -0.7563 -0.5287 -0.2212
12445TIP3    H258827   5.582   3.425  11.754  0.7762 -3.4174 -1.1501
12446TIP3   OH258828   2.469   3.172  16.374  0.1393  0.4330  0.0540
12446TIP3    H158829   2.384   3.204  16.406  0.2416  1.2566 -0.4806
12446TIP3    H258830   2.449   3.136  16.287  0.1147 -0.5432  0.4511
12447TIP3   OH258831   6.801   1.678  15.727 -0.2333 -0.1832  0.1272
12447TIP3    H158832   6.891   1.702  15.749  0.1085 -1.0206 -0.3372
12447TIP3    H258833   6.801   1.583  15.725 -0.6732 -0.1901 -1.7080
12448TIP3   OH258834   2.777   1.228   4.018  0.0647 -0.0298 -0.3274
12448TIP3    H158835   2.792   1.240   4.111 -1.9684 -1.2677  0.2320
12448TIP3    H258836   2.755   1.135   4.009  0.7889 -0.0662 -2.1338
12449TIP3   OH258837   2.795   5.424   5.065 -0.1863 -0.4403 -0.5716
12449TIP3    H158838   2.858   5.457   5.128 -1.4325  1.3290 -0.1518
12449TIP3    H258839   2.803   5.483   4.990 -2.8813  1.4131  0.4292
12450TIP3   OH258840   1.298   4.294   0.723  0.3069 -0.1925  0.4223
12450TIP3    H158841   1.250   4.376   0.738  3.0725  1.2658  2.2900
12450TIP3    H258842   1.340   4.306   0.638  0.3194  0.1444  0.4742
12451TIP3   OH258843   2.288   4.497  12.468  0.0802 -0.4593  0.4397
12451TIP3    H158844   2.345   4.510  12.393  0.5863 -3.2736  0.2399
12451TIP3    H258845   2.347   4.484  12.542 -0.3699 -0.4441  0.8084
12452TIP3   OH258846   6.571   1.548   1.576  0.2959  0.1136 -0.7893
12452TIP3    H158847   6.664   1.560   1.594  0.8323 -1.7239 -2.0323
12452TIP3    H258848   6.530   1.544   1.662  1.0048  2.9861 -0.2262
12453TIP3   OH258849   5.784   3.403   5.185 -0.5641 -0.3583 -0.0846
12453TIP3    H158850   5.691   3.416   5.171 -0.7575 -0.1447  1.2856
12453TIP3    H258851   5.816   3.487   5.218 -0.3064 -1.0211  1.4336
12454TIP3   OH258852   3.157   5.313  17.039  0.0822  0.0250 -0.0056
12454TIP3    H158853   3.148   5.346  17.128  1.1135  2.4307 -0.7045
12454TIP3    H258854   3.168   5.218  17.049 -1.7381 -0.0122  2.2431
12455TIP3   OH258855   5.830   1.392  16.123  0.0741  0.1278  0.0488
12455TIP3    H158856   5.739   1.387  16.153  0.2553 -0.9547  0.4560
12455TIP3    H258857   5.850   1.486  16.124 -0.4627  0.2694  1.7773
12456TIP3   OH258858   6.249   4.572  10.924  0.4039 -0.4308 -0.3562
12456TIP3    H158859   6.214   4.615  11.002  1.0659 -0.8145  0.1632
12456TIP3    H258860   6.235   4.478  10.940 -0.5076 -0.4554 -1.2218
12457TIP3   OH258861   2.113   4.421   3.553 -0.3427  0.1308 -0.1616
12457TIP3    H158862   2.055   4.480   3.602  0.1056  2.0384 -1.7817
12457TIP3    H258863   2.097   4.443   3.461  0.3309 -1.8764 -0.8095
12458TIP3   OH258864   3.846   1.407  14.928  0.0036  0.1635  0.2032
12458TIP3    H158865   3.863   1.496  14.897 -2.6498  0.1272 -1.6355
12458TIP3    H258866   3.910   1.353  14.881  1.4712  1.0248  1.1492
12459TIP3   OH258867   0.983   3.962  13.959 -0.2011 -0.2798 -0.3093
12459TIP3    H158868   0.890   3.944  13.968 -0.0903 -0.7939 -0.1730
12459TIP3    H258869   1.002   3.946  13.867 -0.6506  1.7752 -0.8132
12460TIP3   OH258870   0.878   3.048  15.170 -0.4688 -0.2898 -0.1423
12460TIP3    H158871   0.824   3.010  15.100 -0.4849 -1.1869  0.3437
12460TIP3    H258872   0.892   2.976  15.231  0.0445  0.3309  0.4852
12461TIP3   OH258873   1.071   3.886   5.086  0.0997 -0.0338 -0.2736
12461TIP3    H158874   0.987   3.886   5.132  0.3217  0.3809  0.1441
12461TIP3    H258875   1.064   3.958   5.023  0.7052  1.0801  0.8591
12462TIP3   OH258876   0.153   1.214   4.914 -0.2458 -0.3816 -0.1190
12462TIP3    H158877   0.241   1.244   4.894 -0.4816 -0.0353 -0.6773
12462TIP3    H258878   0.106   1.293   4.941 -0.4184 -0.5382  0.0416
12463TIP3   OH258879   0.651   5.268   3.469  0.3063 -0.4049  0.2671
12463TIP3    H158880   0.597   5.327   3.522 -0.1848 -1.1770  0.6377
12463TIP3    H258881   0.726   5.322   3.444 -1.4348  1.2756 -1.7491
12464TIP3   OH258882   6.184   4.972  12.714 -0.0441 -0.0934  0.1509
12464TIP3    H158883   6.192   5.021  12.633  1.5244 -1.0499 -0.3179
12464TIP3    H258884   6.161   5.038  12.780 -2.1090  0.5669 -1.1637
12465TIP3   OH258885   5.562   1.208  14.119 -0.0430 -0.0063  0.5593
12465TIP3    H158886   5.656   1.198  14.102 -0.1366  0.8193 -0.5274
12465TIP3    H258887   5.531   1.118  14.133  0.8424 -0.3146  0.6646
12466TIP3   OH258888   6.821   3.671   6.749  0.5903 -0.1298 -0.2752
12466TIP3    H158889   6.726   3.670   6.740  0.5373 -0.1845  0.2444
12466TIP3    H258890   6.852   3.597   6.697  0.3769  0.0861 -0.7136
12467TIP3   OH258891   6.016   2.888   5.515 -0.0685  0.5665  0.1713
12467TIP3    H158892   5.936   2.928   5.479  0.0359  2.2045  1.6008
12467TIP3    H258893   6.022   2.923   5.604 -0.3671 -3.3482  1.9296
12468TIP3   OH258894   4.005   0.064  11.265 -0.2557 -0.1749 -0.4313
12468TIP3    H158895   4.072   0.083  11.331 -0.6610 -1.7876  0.4951
12468TIP3    H258896   4.031  -0.021  11.229 -1.2806 -0.3725 -0.7181
12469TIP3   OH258897   5.180   0.356   0.796  0.4561 -0.0227  0.1829
12469TIP3    H158898   5.107   0.417   0.793 -0.0361 -0.6032 -0.0174
12469TIP3    H258899   5.207   0.346   0.705  1.3127  0.7949  0.3343
12470TIP3   OH258900   6.323   4.564   6.185  0.0499 -0.0910 -0.2594
12470TIP3    H158901   6.353   4.606   6.104 -0.6943 -0.8181 -0.9210
12470TIP3    H258902   6.344   4.471   6.173 -0.5490 -0.2806  0.1614
12471TIP3   OH258903   5.178   2.237  14.418  0.3425  0.0440  0.2122
12471TIP3    H158904   5.228   2.272  14.345  0.2673  1.5652  0.8585
12471TIP3    H258905   5.091   2.219  14.381 -0.2954  2.5654  0.2707
12472TIP3   OH258906   5.965   0.772  14.896  0.4981 -0.3153 -0.2547
12472TIP3    H158907   6.022   0.774  14.973 -1.9588  2.4810  1.7475
12472TIP3    H258908   6.010   0.825  14.831  0.5356  1.4542  1.1172
12473TIP3   OH258909   4.252   2.291   5.605 -0.5481  0.2881 -0.1978
12473TIP3    H158910   4.173   2.275   5.552  0.5049  1.0962 -2.1273
12473TIP3    H258911   4.234   2.374   5.649 -1.6358 -0.6318  1.2050
12474TIP3   OH258912   4.131   0.389  12.824 -0.5936  0.0156  0.3908
12474TIP3    H158913   4.139   0.431  12.738  0.4526  0.9179  0.8959
12474TIP3    H258914   4.054   0.431  12.864  0.4289  1.5202  0.8818
12475TIP3   OH258915   0.951   2.374  11.370 -0.1100  0.3990 -0.2620
12475TIP3    H158916   1.028   2.402  11.322 -0.6728  2.4437 -0.0739
12475TIP3    H258917   0.982   2.364  11.460  0.0816  0.5872 -0.3045
12476TIP3   OH258918   1.186   1.723  13.571 -0.1674  0.3141  0.1297
12476TIP3    H158919   1.161   1.708  13.480  0.1513 -0.1995  0.1266
12476TIP3    H258920   1.250   1.794  13.566  0.0193  0.1309 -0.0630
12477TIP3   OH258921   3.297   0.436  13.584 -0.6081  0.2247  0.6789
12477TIP3    H158922   3.265   0.515  13.540 -0.4550 -0.2058 -0.2300
12477TIP3    H258923   3.224   0.375  13.580  0.2182 -0.7153 -1.2877
12478TIP3   OH258924   1.212   5.748  13.925  0.2993  0.7202  0.1318
12478TIP3    H158925   1.138   5.761  13.866 -0.5880  1.3768  1.3529
12478TIP3    H258926   1.193   5.667  13.971  0.6853  0.5356 -0.0256
12479TIP3   OH258927   3.064   3.336   1.086 -0.1826  0.3349 -0.3520
12479TIP3    H158928   3.042   3.249   1.120 -0.2111  0.3933 -0.2229
12479TIP3    H258929   3.099   3.319   0.998 -2.3706  0.3741 -1.2841
12480TIP3   OH258930   3.464   3.118   6.142  0.5557  0.3970  0.1001
12480TIP3    H158931   3.549   3.143   6.106  1.8050  0.1832  2.6748
12480TIP3    H258932   3.433   3.196   6.188  0.5063 -0.2246  1.1550
12481TIP3   OH258933   6.096   5.913  13.411 -0.4919  0.3015  0.1569
12481TIP3    H158934   6.139   5.964  13.479  0.6314  0.3557 -0.5687
12481TIP3    H258935   6.115   5.960  13.330 -0.0298 -0.8805 -0.4369
12482TIP3   OH258936   2.439   1.924   0.357  0.4989  0.7389 -0.0315
12482TIP3    H158937   2.522   1.886   0.382 -0.5654 -1.1335  0.8498
12482TIP3    H258938   2.378   1.850   0.353 -0.7539  1.7743 -2.3727
12483TIP3   OH258939   0.903   2.675  14.098  0.2509  0.0670 -0.2216
12483TIP3    H158940   0.839   2.615  14.138 -0.6152  1.1988  0.1558
12483TIP3    H258941   0.942   2.625  14.027  0.5912 -1.4272  0.9584
12484TIP3   OH258942   2.688   1.770   0.718  0.0121  0.1712  0.1918
12484TIP3    H158943   2.704   1.825   0.795 -2.6315  0.1027  0.8664
12484TIP3    H258944   2.605   1.802   0.682  1.1566  0.2084 -2.7123
12485TIP3   OH258945   2.149   1.036   6.412 -0.0180 -0.5011  0.5145
12485TIP3    H158946   2.184   1.087   6.339 -0.1133 -1.0962  0.0510
12485TIP3    H258947   2.206   1.059   6.486 -0.3973  0.7000  0.4611
12486TIP3   OH258948   2.391   4.148  11.016 -0.5422 -0.4806  0.4475
12486TIP3    H158949   2.309   4.180  10.977 -0.3596  0.0286  0.4711
12486TIP3    H258950   2.382   4.052  11.015 -0.3689 -0.5155 -1.2650
12487TIP3   OH258951   1.604   1.759   2.698 -0.4035 -0.4328  0.5985
12487TIP3    H158952   1.586   1.763   2.604  1.0552 -3.8678  0.0266
12487TIP3    H258953   1.685   1.808   2.708 -0.0421 -0.8577 -0.1344
12488TIP3   OH258954   4.541   1.695  13.446  0.0943 -0.6085 -0.0919
12488TIP3    H158955   4.498   1.661  13.368  1.0804  1.8941 -1.8735
12488TIP3    H258956   4.621   1.738  13.413 -1.2303  3.8441  1.6418
12489TIP3   OH258957   5.538   5.151  10.730  0.3254  0.8449  0.6130
12489TIP3    H158958   5.559   5.061  10.706  0.1889  0.8865  0.3239
12489TIP3    H258959   5.543   5.199  10.647 -2.6479  0.5385  0.1441
12490TIP3   OH258960   0.600   2.692  14.966  0.1751 -0.1821 -0.4616
12490TIP3    H158961   0.611   2.685  14.871 -0.1127  1.7255 -0.6741
12490TIP3    H258962   0.511   2.725  14.978 -0.8725 -3.1052  0.6586
12491TIP3   OH258963   6.282   6.562   5.656  0.3082 -0.3854 -0.0248
12491TIP3    H158964   6.315   6.587   5.569  1.2758  0.4364  0.5522
12491TIP3    H258965   6.290   6.467   5.658 -0.2281 -0.4590 -1.0337
12492TIP3   OH258966   4.163   1.762   3.664  0.2948  0.4559 -0.2667
12492TIP3    H158967   4.086   1.706   3.670  0.8816 -0.4533 -0.8894
12492TIP3    H258968   4.197   1.767   3.754  1.0446 -1.4069 -0.4030
12493TIP3   OH258969   2.782   1.444   3.316 -0.7299 -0.5612  0.6866
12493TIP3    H158970   2.800   1.535   3.290 -2.0146  0.0475  1.8025
12493TIP3    H258971   2.767   1.398   3.234 -1.2385  0.5207  0.1514
12494TIP3   OH258972   2.825   3.473   1.063  0.1628  0.3298  0.0540
12494TIP3    H158973   2.911   3.436   1.084  0.7567  0.9368 -1.2056
12494TIP3    H258974   2.811   3.451   0.971 -0.4019  1.4376 -0.1383
12495TIP3   OH258975   3.470   4.896   0.897  0.0470 -0.4347 -0.7162
12495TIP3    H158976   3.464   4.803   0.874 -1.7697  0.0078 -2.3062
12495TIP3    H258977   3.473   4.941   0.812 -0.3702  1.0188  0.0109
12496TIP3   OH258978   1.986   3.184   0.589 -0.4775  0.2691  0.1171
12496TIP3    H158979   1.969   3.267   0.633  1.0982 -0.3363  2.0767
12496TIP3    H258980   1.916   3.126   0.618 -0.2635  0.2891  0.6906
12497TIP3   OH258981   6.383   5.897  13.175  0.3801  0.7852 -0.2956
12497TIP3    H158982   6.347   5.970  13.227  0.0048 -0.5959  1.4732
12497TIP3    H258983   6.311   5.835  13.169  2.0691 -1.7567  2.7440
12498TIP3   OH258984   2.079   0.214  15.091  0.0734 -0.2961 -0.2373
12498TIP3    H158985   2.058   0.301  15.056  1.7998  0.1504 -0.2344
12498TIP3    H258986   2.032   0.154  15.034 -1.6069  0.6358  0.0932
12499TIP3   OH258987   6.011   1.207   6.063 -0.6646 -0.0375  0.5246
12499TIP3    H158988   6.001   1.280   6.002  0.2066  0.4400  0.9386
12499TIP3    H258989   5.940   1.219   6.126 -1.2906 -0.2761 -0.1075
12500TIP3   OH258990   3.349   6.750   1.516 -0.1794  0.3011 -0.2493
12500TIP3    H158991   3.402   6.793   1.583 -0.6198 -0.7310  0.7894
12500TIP3    H258992   3.413   6.700   1.464  0.1056  0.7263 -0.3142
12501TIP3   OH258993   3.133   2.291  16.180 -0.5562  0.0086  0.1882
12501TIP3    H158994   3.196   2.247  16.237  1.3381  0.4503 -1.4464
12501TIP3    H258995   3.167   2.380  16.171 -0.2229 -0.2878 -2.3075
12502TIP3   OH258996   2.166   1.125  14.777  0.4461  0.1657 -0.7841
12502TIP3    H158997   2.124   1.098  14.858  1.8754  0.8610  0.2379
12502TIP3    H258998   2.229   1.056  14.757 -0.8945 -0.7332 -2.1535
12503TIP3   OH258999   6.507   2.907  16.001  0.9700 -0.1464  0.1766
12503TIP3    H159000   6.483   2.984  15.950  0.8502  0.1034  0.6046
12503TIP3    H259001   6.574   2.940  16.062  0.3265 -0.1895  0.9159
12504TIP3   OH259002   3.926   4.905   5.701  0.0830  0.4222  0.3536
12504TIP3    H159003   3.838   4.906   5.740 -0.0807 -0.5048  0.0285
12504TIP3    H259004   3.938   4.995   5.669  0.2317  1.2339  2.5016
12505TIP3   OH259005   2.505   0.667   5.704  0.6724  0.1002 -0.0404
12505TIP3    H159006   2.577   0.722   5.737  0.8381  0.0276 -0.2758
12505TIP3    H259007   2.470   0.625   5.782 -0.6099  1.8777  0.3934
12506TIP3   OH259008   5.904   3.834  10.242  0.7315  0.0083 -0.3724
12506TIP3    H159009   5.988   3.800  10.211  0.4197  0.8322 -2.2912
12506TIP3    H259010   5.874   3.770  10.306  2.4988 -0.6543 -0.1652
12507TIP3   OH259011   2.933   1.448   1.037  0.1269 -0.3682  0.0208
12507TIP3    H159012   2.943   1.463   0.943 -0.7444 -1.2245 -0.2236
12507TIP3    H259013   2.895   1.360   1.043  0.7652 -0.5826  1.1997
12508TIP3   OH259014   4.867   0.473  14.944  0.0211  0.3830 -0.1463
12508TIP3    H159015   4.939   0.460  14.882 -0.7202  2.1469 -1.4878
12508TIP3    H259016   4.789   0.480  14.889 -0.8647  0.7258  1.1017
12509TIP3   OH259017   6.441   0.185  12.000  0.0939 -0.1896  0.1473
12509TIP3    H159018   6.372   0.211  12.062 -0.4320 -0.4234 -0.3372
12509TIP3    H259019   6.523   0.210  12.044 -0.1294 -2.3024  1.9086
12510TIP3   OH259020   5.555   4.718   5.588 -0.5884 -0.2260 -0.2432
12510TIP3    H159021   5.569   4.666   5.667 -0.2573 -1.0071 -0.8081
12510TIP3    H259022   5.533   4.806   5.621  0.3410 -0.3334  0.7167
12511TIP3   OH259023   2.145   0.783  13.176  0.1648 -0.2508  0.0092
12511TIP3    H159024   2.204   0.712  13.153  1.9225  0.3254  2.3827
12511TIP3    H259025   2.085   0.745  13.239  1.3941  0.4056  1.6333
12512TIP3   OH259026   0.465   4.954   6.187 -0.1776  0.4717 -0.3876
12512TIP3    H159027   0.481   4.870   6.143 -1.4226 -0.5020  0.8784
12512TIP3    H259028   0.550   4.982   6.219  0.2878 -0.2226 -0.9967
12513TIP3   OH259029   0.205   5.440  13.780  0.3954  0.0813  0.0331
12513TIP3    H159030   0.279   5.461  13.836  0.5843 -0.2702 -0.0815
12513TIP3    H259031   0.144   5.393  13.837  0.5488 -0.1992 -0.0332
12514TIP3   OH259032   5.782   2.161   3.432  0.4026  0.4450  0.1622
12514TIP3    H159033   5.757   2.246   3.397 -0.5693 -0.4142 -1.4063
12514TIP3    H259034   5.833   2.120   3.361  0.1326 -0.5837  0.5392
12515TIP3   OH259035   3.831   3.332  14.930  0.1108  0.2945  0.1143
12515TIP3    H159036   3.838   3.245  14.891  0.4796 -0.1054  1.0339
12515TIP3    H259037   3.801   3.316  15.020 -1.0477  1.2110 -0.0916
12516TIP3   OH259038   3.627   4.587  14.465 -0.7493 -0.3016 -0.0084
12516TIP3    H159039   3.653   4.590  14.373 -1.3845 -2.1945 -0.2911
12516TIP3    H259040   3.644   4.676  14.498 -0.4550  0.3956 -1.9187
12517TIP3   OH259041   3.339   3.936   4.960 -0.1059 -0.0531 -0.3235
12517TIP3    H159042   3.281   3.942   4.885  1.5708 -1.0610 -1.7780
12517TIP3    H259043   3.418   3.983   4.934 -0.1699  1.2246  1.5693
12518TIP3   OH259044   4.996   5.304  14.912  0.2243 -0.8630  0.4216
12518TIP3    H159045   4.915   5.323  14.960  0.8339 -0.5808  1.3803
12518TIP3    H259046   4.973   5.317  14.820 -0.9945 -1.4537  0.6194
12519TIP3   OH259047   0.771   5.131   2.860 -0.0269 -0.3975 -0.0082
12519TIP3    H159048   0.854   5.093   2.830 -0.4277 -1.7005  0.4882
12519TIP3    H259049   0.793   5.173   2.943 -0.0693 -1.6909  0.6733
12520TIP3   OH259050   4.145   2.766  10.666  0.0180  0.0235  0.6099
12520TIP3    H159051   4.155   2.818  10.745  0.6155 -1.2237  1.3830
12520TIP3    H259052   4.109   2.827  10.601  2.6019  1.9548  0.8521
12521TIP3   OH259053   0.715   5.953   5.605 -0.4251  0.1678  0.0594
12521TIP3    H159054   0.698   5.905   5.686  2.2792  0.2479  0.7711
12521TIP3    H259055   0.788   5.905   5.564 -1.3916  0.4182 -2.1003
12522TIP3   OH259056   0.831   3.914   0.330  0.1021  0.3594  0.3815
12522TIP3    H159057   0.742   3.949   0.334 -0.2760 -0.4846 -0.3323
12522TIP3    H259058   0.857   3.906   0.422 -0.6883  0.2828  0.6108
12523TIP3   OH259059   3.368   3.468  12.092  0.1368 -0.6251  0.3373
12523TIP3    H159060   3.443   3.457  12.150 -0.8599 -0.5583  1.7017
12523TIP3    H259061   3.378   3.556  12.055  0.1473 -0.1416  1.4330
12524TIP3   OH259062   1.844   3.450   2.659 -0.2083  0.4323 -0.3196
12524TIP3    H159063   1.814   3.482   2.744  0.9552 -0.2551  0.3804
12524TIP3    H259064   1.938   3.471   2.657 -0.3050  0.8173 -1.6234
12525TIP3   OH259065   0.648   4.141  12.388  0.9510  0.2851 -0.3109
12525TIP3    H159066   0.640   4.127  12.294  0.3369  3.2125 -0.7919
12525TIP3    H259067   0.735   4.178  12.400  0.2256  2.0857 -0.1383
12526TIP3   OH259068   4.002   6.533  12.303  0.0845  0.1350  0.1866
12526TIP3    H159069   4.041   6.453  12.340  0.4527 -0.9020 -2.2516
12526TIP3    H259070   3.951   6.569  12.375 -0.4931 -2.5662  1.2792
12527TIP3   OH259071   6.820   1.175   4.359 -0.4567 -0.3218  0.2554
12527TIP3    H159072   6.748   1.218   4.313  0.2171  0.7956  0.1912
12527TIP3    H259073   6.854   1.111   4.296  1.0438  1.8084 -1.2498
12528TIP3   OH259074   1.931   2.174  13.970  0.3711 -0.8170 -0.2276
12528TIP3    H159075   1.919   2.217  14.055  1.5293 -1.1211  0.1011
12528TIP3    H259076   1.964   2.087  13.992 -0.3783 -1.2948 -0.9571
12529TIP3   OH259077   1.613   5.907  17.139  0.2061 -0.2516  0.1149
12529TIP3    H159078   1.544   5.865  17.088 -0.7928  1.5542 -0.0767
12529TIP3    H259079   1.569   5.972  17.192  1.2139 -1.9731  3.3688
12530TIP3   OH259080   1.613   3.592   1.616  0.5926  0.1265 -0.3275
12530TIP3    H159081   1.637   3.527   1.681  0.9993  0.4142 -0.1825
12530TIP3    H259082   1.606   3.544   1.534 -0.9303 -0.4250  0.0987
12531TIP3   OH259083   4.373   4.423  12.368 -0.4319  0.1116 -0.0278
12531TIP3    H159084   4.415   4.362  12.308 -1.2019  2.1188 -2.7900
12531TIP3    H259085   4.279   4.405  12.358 -0.5412 -0.6783  1.9737
12532TIP3   OH259086   1.555   4.581  13.197  0.4544 -0.2254  0.5448
12532TIP3    H159087   1.505   4.579  13.278 -0.0893  2.4612  0.3640
12532TIP3    H259088   1.608   4.660  13.203  1.5360 -0.7774 -1.0831
12533TIP3   OH259089   5.176   5.728  13.978 -0.0768 -0.0263  0.0146
12533TIP3    H159090   5.090   5.720  13.935  0.7452 -1.5381 -1.4483
12533TIP3    H259091   5.237   5.743  13.906  1.3325 -2.5411  0.5738
12534TIP3   OH259092   6.787   0.630   2.573 -0.4269  0.8420  0.4420
12534TIP3    H159093   6.780   0.722   2.599 -0.3191  0.3747  2.2861
12534TIP3    H259094   6.834   0.588   2.645 -1.8605 -0.9518  0.4083
12535TIP3   OH259095   0.415   2.341   5.626 -0.2373 -0.4655 -0.4985
12535TIP3    H159096   0.417   2.401   5.551 -0.0668  0.1125 -0.0411
12535TIP3    H259097   0.384   2.395   5.699  2.6395 -0.1558  0.5968
12536TIP3   OH259098   3.385   3.487   2.467 -0.3354  0.4306  0.0555
12536TIP3    H159099   3.451   3.427   2.503 -1.5672 -0.0228  1.6870
12536TIP3    H259100   3.400   3.569   2.515 -0.0338  0.7814 -0.6286
12537TIP3   OH259101   4.375   4.463   1.411 -0.1169 -0.6416 -0.3469
12537TIP3    H159102   4.392   4.546   1.367  0.8790 -0.9646 -0.5964
12537TIP3    H259103   4.339   4.407   1.343  1.6598 -1.2214 -0.8509
12538TIP3   OH259104   3.323   5.319   5.208 -0.3752  0.0132  0.3810
12538TIP3    H159105   3.274   5.384   5.259 -1.7965 -0.6654 -0.0750
12538TIP3    H259106   3.306   5.236   5.253  0.5842 -0.2044  0.3570
12539TIP3   OH259107   1.596   3.788   1.219 -0.8655  0.2219  0.1349
12539TIP3    H159108   1.585   3.797   1.313 -0.2178 -1.5562  0.4074
12539TIP3    H259109   1.533   3.721   1.193 -1.5381  1.1802 -0.8444
12540TIP3   OH259110   2.191   3.139   0.109 -0.3091  0.1320 -0.2678
12540TIP3    H159111   2.191   3.151   0.204 -0.3404 -0.4399 -0.1919
12540TIP3    H259112   2.100   3.119   0.088 -0.1285 -0.7013 -0.2882
12541TIP3   OH259113   2.929   3.945  13.865 -0.4327  0.2603 -0.1386
12541TIP3    H159114   2.962   3.944  13.955  1.8957  1.3002 -0.9029
12541TIP3    H259115   2.880   4.027  13.859 -2.0980 -0.6274  0.6098
12542TIP3   OH259116   5.953   1.205  13.778  0.5101 -0.6109 -0.1455
12542TIP3    H159117   5.955   1.291  13.735  1.3115 -0.5362  0.0134
12542TIP3    H259118   5.961   1.142  13.707  2.1215 -0.4795 -0.1158
12543TIP3   OH259119   2.269   5.067  16.403 -0.0315  1.0645 -0.4784
12543TIP3    H159120   2.326   5.112  16.341  1.0206  0.6072  0.1378
12543TIP3    H259121   2.321   4.993  16.434 -1.3987 -0.0697 -0.7985
12544TIP3   OH259122   5.609   1.696  15.723 -0.5093 -0.2549  0.0953
12544TIP3    H159123   5.654   1.644  15.657 -1.7399 -1.6607  0.3011
12544TIP3    H259124   5.537   1.738  15.675 -1.0923 -0.8695  0.4071
12545TIP3   OH259125   4.805   0.598   0.311  0.2320 -0.0663 -0.5942
12545TIP3    H159126   4.876   0.662   0.316  1.5347 -1.5432  0.4999
12545TIP3    H259127   4.734   0.645   0.267  0.5524  2.6483  1.5366
12546TIP3   OH259128   5.980   2.139  14.427 -0.1013  0.0688  1.2423
12546TIP3    H159129   5.917   2.099  14.368 -0.7805 -0.0540  2.0318
12546TIP3    H259130   5.953   2.111  14.514  0.6466  0.5637  1.6471
12547TIP3   OH259131   2.084   1.620   3.075 -0.6638 -0.3867 -0.3466
12547TIP3    H159132   2.092   1.535   3.032  0.5131 -0.6689  0.3787
12547TIP3    H259133   1.998   1.653   3.048 -0.8221 -1.4640 -1.2300
12548TIP3   OH259134   2.213   3.737  15.002 -0.3762  0.1924 -0.6611
12548TIP3    H159135   2.272   3.712  15.074 -2.2278 -0.2897  0.7764
12548TIP3    H259136   2.264   3.721  14.923  1.7306  0.6657  0.5190
12549TIP3   OH259137   3.518   1.331   3.686 -0.1908 -0.3593  0.1825
12549TIP3    H159138   3.524   1.295   3.598  2.3668  0.0334  0.1199
12549TIP3    H259139   3.576   1.277   3.739  0.0761  0.7947  1.1182
12550TIP3   OH259140   4.534   0.889  10.555  0.4063  0.1176 -0.5815
12550TIP3    H159141   4.613   0.939  10.575  0.0825 -0.4244  2.5908
12550TIP3    H259142   4.553   0.845  10.473  2.9650  0.8321 -0.4491
12551TIP3   OH259143   5.719   5.062   4.986  0.0948 -0.3950 -0.7210
12551TIP3    H159144   5.657   5.135   4.977  1.4025  1.5566  3.5789
12551TIP3    H259145   5.804   5.099   4.960  0.8966  0.0270  2.1549
12552TIP3   OH259146   3.484   5.285   1.088  0.3330  0.4430 -0.1100
12552TIP3    H159147   3.408   5.343   1.094  1.0328  1.2841  0.9185
12552TIP3    H259148   3.445   5.197   1.088 -0.7661  0.8672 -2.3812
12553TIP3   OH259149   2.102   1.946   4.217  0.4288 -0.5135 -0.2075
12553TIP3    H159150   2.164   1.909   4.154  1.2193 -0.3401  0.4545
12553TIP3    H259151   2.024   1.892   4.208  0.6309 -0.6667 -1.1328
12554TIP3   OH259152   0.028   3.236   0.048 -0.0405  0.0921 -0.2744
12554TIP3    H159153  -0.000   3.219  -0.042  1.4921  2.1668 -1.2209
12554TIP3    H259154   0.049   3.149   0.082  0.6610 -0.6413 -2.3911
12555TIP3   OH259155   6.070   6.145   4.543 -0.4891  0.0786  0.1452
12555TIP3    H159156   6.001   6.107   4.597 -0.0328  1.2186  1.6100
12555TIP3    H259157   6.138   6.170   4.605 -0.6041  2.9180 -0.7000
12556TIP3   OH259158   4.679   5.064  14.490  0.5507  0.0316  0.2787
12556TIP3    H159159   4.650   5.079  14.580 -0.3473  0.1165 -0.0183
12556TIP3    H259160   4.761   5.113  14.483  0.5613  0.1286  1.0121
12557TIP3   OH259161   5.141   0.541  11.684  0.0641 -0.7165 -0.1020
12557TIP3    H159162   5.227   0.528  11.725 -0.0007  1.5456  0.9205
12557TIP3    H259163   5.160   0.556  11.592  0.8134  0.0868  0.1758
12558TIP3   OH259164   6.014   2.574  12.217 -0.4625  0.2966  0.1083
12558TIP3    H159165   6.041   2.538  12.132  1.2296  1.7780 -0.0342
12558TIP3    H259166   6.018   2.669  12.206 -3.0119  0.5854  1.0350
12559TIP3   OH259167   6.274   5.839  15.725 -0.1847  0.0841  0.1020
12559TIP3    H159168   6.339   5.884  15.780  1.1851  1.5804 -2.5561
12559TIP3    H259169   6.314   5.755  15.705  0.9709  0.9335 -1.3867
12560TIP3   OH259170   1.712   1.163   1.640 -0.1281 -0.1862  0.3182
12560TIP3    H159171   1.747   1.250   1.659  2.1368 -1.0991  0.6147
12560TIP3    H259172   1.745   1.108   1.711 -0.6648 -1.5030 -0.4183
12561TIP3   OH259173   5.805   5.019  12.950  0.3397  0.3262  0.4628
12561TIP3    H159174   5.863   5.055  12.883  0.7042  1.3480  1.3053
12561TIP3    H259175   5.724   5.069  12.940 -0.6472 -1.4748 -1.0807
12562TIP3   OH259176   0.003   1.246   5.659  0.0738  0.1529 -0.1373
12562TIP3    H159177   0.005   1.295   5.742  0.9211 -0.7746  0.4211
12562TIP3    H259178  -0.082   1.203   5.659  0.4011 -0.5122  0.6705
12563TIP3   OH259179   2.170   1.070   3.142 -0.3261 -0.3421 -0.7310
12563TIP3    H159180   2.183   0.987   3.096  0.2418 -0.7374  0.1195
12563TIP3    H259181   2.167   1.046   3.235 -1.0446  0.4879 -0.5281
12564TIP3   OH259182   5.860   0.819   2.167  0.6855  0.0178 -0.4288
12564TIP3    H159183   5.805   0.770   2.106  2.4896 -2.0436 -0.5221
12564TIP3    H259184   5.940   0.838   2.117  0.5357  2.1005  0.0056
12565TIP3   OH259185   0.869   2.682  16.594  0.2795  0.0682 -0.2737
12565TIP3    H159186   0.912   2.728  16.522  1.4065 -1.7258 -0.8112
12565TIP3    H259187   0.906   2.593  16.592 -0.4143 -0.3459  1.8723
12566TIP3   OH259188   6.630   2.487   3.851  0.2751 -0.2621 -0.1829
12566TIP3    H159189   6.633   2.526   3.764  0.1331  0.3771  0.0914
12566TIP3    H259190   6.541   2.505   3.882  0.3668 -0.3610  0.1429
12567TIP3   OH259191   0.667   0.450   5.331 -0.7355  0.3212 -0.4070
12567TIP3    H159192   0.661   0.534   5.287 -1.5798  0.0147 -0.8870
12567TIP3    H259193   0.728   0.399   5.277 -0.0918  0.6636 -0.0245
12568TIP3   OH259194   2.106   3.261   4.670  0.5569 -0.0948 -0.2320
12568TIP3    H159195   2.027   3.313   4.678  0.4669  0.1074 -2.1544
12568TIP3    H259196   2.136   3.249   4.761 -1.6985 -0.2669  0.5439
12569TIP3   OH259197   0.875   6.175   0.932 -0.0757  0.5950 -0.3293
12569TIP3    H159198   0.875   6.081   0.912 -1.8189  0.1209  1.5629
12569TIP3    H259199   0.949   6.210   0.883 -1.1279 -1.2191 -3.4585
12570TIP3   OH259200   5.296   6.172   0.008 -0.1686  0.2578  0.4177
12570TIP3    H159201   5.377   6.127   0.033 -0.7488 -0.1539  1.6980
12570TIP3    H259202   5.228   6.106   0.024 -0.6233 -0.0938 -2.5151
12571TIP3   OH259203   3.634   5.209   1.608 -0.6489 -0.2912  0.6436
12571TIP3    H159204   3.633   5.260   1.689  0.4811 -0.1605  0.5933
12571TIP3    H259205   3.550   5.229   1.566  0.3941  2.9546 -0.2376
12572TIP3   OH259206   3.490   0.351  15.743 -0.1498 -0.4463  0.2392
12572TIP3    H159207   3.453   0.264  15.758 -2.3978  0.7059  1.9515
12572TIP3    H259208   3.415   0.410  15.745  1.4655  1.7073  0.6498
12573TIP3   OH259209   4.751   6.836   5.731 -0.0868 -0.4035  0.0276
12573TIP3    H159210   4.676   6.812   5.784 -0.9789  1.0541 -0.5292
12573TIP3    H259211   4.772   6.925   5.758  1.2819 -0.6837 -0.0301
12574TIP3   OH259212   3.882   5.565  14.564 -0.6215 -0.0386 -0.8404
12574TIP3    H159213   3.913   5.594  14.650  1.6806  0.6833 -1.8112
12574TIP3    H259214   3.889   5.470  14.567  2.0130  0.0710 -1.0061
12575TIP3   OH259215   3.978   0.623  16.049  0.1733 -0.2545  0.0723
12575TIP3    H159216   3.940   0.701  16.091  1.2633  0.9663 -1.0906
12575TIP3    H259217   3.926   0.550  16.082 -1.6637  1.0866  0.3011
12576TIP3   OH259218   0.801   6.026   6.059 -0.3923 -0.2525 -0.0267
12576TIP3    H159219   0.797   6.117   6.091  1.4536 -0.1431 -0.0034
12576TIP3    H259220   0.825   6.035   5.967  1.7277 -0.7030  0.4232
12577TIP3   OH259221   1.842   2.902  11.495  0.8576 -0.2474  0.6189
12577TIP3    H159222   1.924   2.874  11.535  1.4353  0.4069 -0.0528
12577TIP3    H259223   1.780   2.908  11.568  1.1634 -1.5757  1.0104
12578TIP3   OH259224   4.282   3.222  12.880  0.0674  0.0746  0.5390
12578TIP3    H159225   4.321   3.142  12.914 -0.9895  0.7254  3.5983
12578TIP3    H259226   4.334   3.292  12.918  0.1599  0.8876 -1.0190
12579TIP3   OH259227   0.201   5.915   2.684  0.3142  0.3294 -0.7842
12579TIP3    H159228   0.155   5.836   2.712  0.6144 -0.2364 -1.8115
12579TIP3    H259229   0.136   5.985   2.690 -0.6060 -0.3905 -1.8879
12580TIP3   OH259230   6.117   3.472   5.144 -0.0116 -0.3521  0.8153
12580TIP3    H159231   6.109   3.534   5.217 -0.8054  1.4815 -0.7386
12580TIP3    H259232   6.211   3.463   5.130  0.1170  0.1702  1.3220
12581TIP3   OH259233   5.761   1.891  12.306 -0.1237 -0.1154 -0.1278
12581TIP3    H159234   5.681   1.933  12.336  1.9623  1.4057  4.0946
12581TIP3    H259235   5.761   1.805  12.347  0.8164  0.3105  0.8191
12582TIP3   OH259236   2.254   2.858   0.077 -0.2028  0.7785 -0.2921
12582TIP3    H159237   2.299   2.828   0.156 -2.1637 -0.0554  0.5705
12582TIP3    H259238   2.223   2.946   0.099 -0.4897  0.6671 -0.2529
12583TIP3   OH259239   6.123   6.671  10.774  0.4059 -0.2339 -0.5075
12583TIP3    H159240   6.075   6.618  10.711  2.4315 -1.0947 -1.4492
12583TIP3    H259241   6.209   6.685  10.733  2.1878 -1.6115  2.3518
12584TIP3   OH259242   6.068   1.189   3.180 -0.4219  0.0376 -0.2468
12584TIP3    H159243   6.078   1.165   3.088  0.5248  0.0441 -0.1553
12584TIP3    H259244   6.058   1.284   3.179 -0.4800  0.0305 -0.3508
12585TIP3   OH259245   2.902   0.009   2.301  0.1653 -0.2577  0.4841
12585TIP3    H159246   2.830   0.014   2.364 -0.3318  1.8478 -0.1645
12585TIP3    H259247   2.887   0.083   2.242  0.7921 -1.9305 -1.9405
12586TIP3   OH259248   2.584   1.373   3.502 -0.1336 -0.0994 -0.0737
12586TIP3    H159249   2.603   1.438   3.569  0.1503  0.9663 -1.1600
12586TIP3    H259250   2.650   1.387   3.434 -1.0131 -0.4539 -1.0464
12587TIP3   OH259251   1.311   5.203  13.348  0.4929 -0.1414  0.2291
12587TIP3    H159252   1.263   5.166  13.273  0.9955 -1.0267  0.3281
12587TIP3    H259253   1.403   5.185  13.329  0.7908  1.4160  0.1187
12588TIP3   OH259254   5.869   0.324   5.697 -0.1906  0.3580 -0.7217
12588TIP3    H159255   5.864   0.407   5.649  1.5629  0.0804 -1.4453
12588TIP3    H259256   5.902   0.349   5.784 -0.4828  0.5020 -0.6491
12589TIP3   OH259257   5.024   5.509  10.713  0.4531 -0.1174  0.2416
12589TIP3    H159258   4.940   5.523  10.671  0.3320 -1.9000 -0.2180
12589TIP3    H259259   5.003   5.493  10.805 -0.1252 -3.4668 -0.3381
12590TIP3   OH259260   1.884   3.739  13.438  0.9917  0.4476 -0.0893
12590TIP3    H159261   1.850   3.711  13.523  2.2970 -0.3465  0.1963
12590TIP3    H259262   1.944   3.670  13.413  0.1002  0.3228 -2.0168
12591TIP3   OH259263   6.581   0.995  15.167 -0.1278  0.1798  0.0448
12591TIP3    H159264   6.629   0.994  15.249 -0.6862 -0.0159  0.3794
12591TIP3    H259265   6.622   0.928  15.113  0.1626  0.2246  0.2131
12592TIP3   OH259266   1.773   3.044  12.564  0.0899 -0.3399  0.0348
12592TIP3    H159267   1.679   3.026  12.570  0.2041 -0.5408  1.5278
12592TIP3    H259268   1.779   3.119  12.506 -1.1903  0.9938  1.5318
12593TIP3   OH259269   5.632   1.086   2.061 -0.2892 -0.3705  0.5126
12593TIP3    H159270   5.646   0.993   2.076  0.2514 -0.4970 -0.6287
12593TIP3    H259271   5.566   1.090   1.992 -1.6386  0.1416  1.7905
12594TIP3   OH259272   0.567   2.848  16.763 -0.5425 -0.3703 -0.2329
12594TIP3    H159273   0.643   2.906  16.763 -0.9346  0.1893 -1.9301
12594TIP3    H259274   0.602   2.762  16.787  0.6079 -0.0901 -0.8533
12595TIP3   OH259275   1.219   5.920  11.499  0.5322 -0.4297 -0.1670
12595TIP3    H159276   1.297   5.971  11.477 -0.2078  0.1498 -1.5896
12595TIP3    H259277   1.149   5.960  11.447 -0.4047 -1.8775 -0.0694
12596TIP3   OH259278   1.844   2.780  12.752 -0.0743 -0.2235  0.0254
12596TIP3    H159279   1.918   2.780  12.813 -1.3400 -0.5807  1.6523
12596TIP3    H259280   1.772   2.818  12.803 -0.9199  0.4774 -1.6327
12597TIP3   OH259281   5.280   6.387   0.880 -0.5450 -0.4221  0.0090
12597TIP3    H159282   5.278   6.354   0.790 -0.0322 -1.1141  0.2406
12597TIP3    H259283   5.288   6.308   0.934 -3.1779 -0.2265  0.8229
12598TIP3   OH259284   1.976   0.355  11.958  0.0253  0.3149 -0.0434
12598TIP3    H159285   2.029   0.309  12.024  0.1382  1.4488  0.6682
12598TIP3    H259286   1.893   0.308  11.958  0.0332  0.2797  0.8908
12599TIP3   OH259287   2.348   3.003   2.176 -0.1524 -0.0917  0.2151
12599TIP3    H159288   2.268   2.999   2.124  0.0385 -3.6387 -0.0218
12599TIP3    H259289   2.410   3.050   2.119 -1.8676  2.6035  0.3576
12600TIP3   OH259290   2.911   2.186   4.977  0.3611 -0.1561  0.1651
12600TIP3    H159291   2.875   2.228   5.055 -0.8694 -1.6393  0.4425
12600TIP3    H259292   2.964   2.114   5.011  3.5428  1.7795 -0.2391
12601TIP3   OH259293   3.654   5.433  13.384  0.1592  0.5933  0.2194
12601TIP3    H159294   3.641   5.524  13.357  1.7563  0.8043  0.0394
12601TIP3    H259295   3.576   5.387  13.354 -0.6716  1.9008  0.3127
12602TIP3   OH259296   1.953   2.208  15.650  0.2850  0.0851 -0.7041
12602TIP3    H159297   1.997   2.283  15.689  1.8560 -0.0813 -2.0667
12602TIP3    H259298   1.937   2.149  15.723 -0.2082  1.3360  0.2490
12603TIP3   OH259299   0.987   2.283   2.346 -0.3626  0.1005  0.0483
12603TIP3    H159300   0.967   2.352   2.408 -0.3677  0.6066 -0.5099
12603TIP3    H259301   1.052   2.228   2.390 -0.7134  0.1886  0.6750
12604TIP3   OH259302   0.997   3.455   1.472  0.4279 -0.6253  0.4512
12604TIP3    H159303   0.906   3.447   1.503 -0.2059  0.3328 -1.0888
12604TIP3    H259304   1.044   3.490   1.547 -0.7305  0.0543  0.8876
12605TIP3   OH259305   1.629   6.696   1.162 -0.5499 -0.5102  0.2711
12605TIP3    H159306   1.712   6.648   1.158 -0.1515 -0.1687  2.7814
12605TIP3    H259307   1.573   6.643   1.218 -0.1635  1.6743  2.9873
12606TIP3   OH259308   1.781   5.145   6.715  0.0971 -0.3198  0.1810
12606TIP3    H159309   1.840   5.141   6.790  0.4839 -2.8502 -0.1925
12606TIP3    H259310   1.818   5.215   6.660  1.2107 -0.0924  1.1813
12607TIP3   OH259311   4.049   3.426   2.921 -0.3705  0.2973 -0.1799
12607TIP3    H159312   4.021   3.452   3.009  0.1991  1.2218 -0.2549
12607TIP3    H259313   3.980   3.368   2.890 -1.9969  2.0962 -0.1656
12608TIP3   OH259314   3.394   2.527   1.086 -0.5188 -0.4156  0.1089
12608TIP3    H159315   3.428   2.582   1.015 -1.1952 -1.2560 -0.9157
12608TIP3    H259316   3.299   2.544   1.085 -0.8336 -2.0127 -0.6536
12609TIP3   OH259317   2.584   6.030   3.588 -0.4810 -0.3840  0.3644
12609TIP3    H159318   2.493   6.012   3.567 -0.4237  1.1652 -1.4641
12609TIP3    H259319   2.586   6.040   3.684 -1.6587 -3.1455  0.7564
12610TIP3   OH259320   1.630   5.471  10.576  0.5023 -0.1623  0.0657
12610TIP3    H159321   1.561   5.409  10.599 -0.2714  0.6502 -0.0516
12610TIP3    H259322   1.609   5.498  10.486  1.2897 -0.3334 -0.1807
12611TIP3   OH259323   0.996   5.454  14.580 -0.1680  1.1078  0.0469
12611TIP3    H159324   0.931   5.405  14.630 -0.2023  1.3063  0.2008
12611TIP3    H259325   0.948   5.528  14.544 -0.3200  0.5387 -0.9542
12612TIP3   OH259326   3.156   3.661  14.141 -0.1564  0.4684  0.0445
12612TIP3    H159327   3.174   3.726  14.073  0.0018 -0.0023 -0.3751
12612TIP3    H259328   3.067   3.631  14.121 -0.4870  1.0431  0.6463
12613TIP3   OH259329   2.582   0.903   1.855  0.5415  0.4098  0.4143
12613TIP3    H159330   2.558   0.855   1.934  1.1285 -0.2948  0.1771
12613TIP3    H259331   2.537   0.857   1.784 -1.5565  2.1673  0.4856
12614TIP3   OH259332   4.122   1.448  13.463 -0.3066 -0.6060  0.4451
12614TIP3    H159333   4.208   1.467  13.499  0.1849  0.3236 -1.1109
12614TIP3    H259334   4.134   1.367  13.414 -0.1027 -0.0525 -0.4324
12615TIP3   OH259335   0.497   3.805   3.146 -0.3360 -0.1908 -0.2085
12615TIP3    H159336   0.462   3.875   3.201 -0.8250 -1.5053  1.2016
12615TIP3    H259337   0.500   3.843   3.058 -0.5444  1.6034  0.5184
12616TIP3   OH259338   0.018   1.809  12.956 -0.2383 -0.1838  0.0508
12616TIP3    H159339  -0.021   1.802  13.043  1.2187 -1.9904  0.6212
12616TIP3    H259340   0.106   1.772  12.966  1.1041  2.2643 -1.5239
12617TIP3   OH259341   3.886   6.325  11.373 -0.5221 -0.0620 -0.1523
12617TIP3    H159342   3.797   6.328  11.408 -0.7562  0.7120 -0.7931
12617TIP3    H259343   3.894   6.238  11.334 -0.9624 -0.1630 -0.0249
12618TIP3   OH259344   5.274   1.034  14.685 -0.2472  0.3727 -0.2953
12618TIP3    H159345   5.281   0.939  14.673  1.1977  0.3465  0.4704
12618TIP3    H259346   5.206   1.044  14.752  1.5231 -0.3611  1.7477
12619TIP3   OH259347   3.498   3.634   1.561  0.1688 -0.2458  0.8544
12619TIP3    H159348   3.555   3.656   1.634 -0.3064  0.8739  0.9110
12619TIP3    H259349   3.410   3.642   1.597 -0.0653  0.2246  0.1947
12620TIP3   OH259350   3.821   4.661  11.102 -0.0646  0.0695  0.0339
12620TIP3    H159351   3.873   4.694  11.029 -2.8021  0.9022 -1.6949
12620TIP3    H259352   3.849   4.570  11.112  2.4385  0.7607 -0.0146
12621TIP3   OH259353   6.251   2.468   3.062  0.1487 -0.2110  0.3068
12621TIP3    H159354   6.230   2.436   2.974  3.1837 -2.1842  0.1755
12621TIP3    H259355   6.171   2.453   3.113 -0.5861 -2.1736 -1.3091
12622TIP3   OH259356   6.203   6.759  12.341  0.2068  0.4430  0.4330
12622TIP3    H159357   6.225   6.751  12.248  0.5686 -0.3991  0.5872
12622TIP3    H259358   6.110   6.781  12.342 -0.4460 -2.0209 -0.0826
12623TIP3   OH259359   1.378   2.122   1.547 -0.5013  0.4263 -0.1341
12623TIP3    H159360   1.371   2.215   1.525  1.0768  0.2930 -1.3557
12623TIP3    H259361   1.336   2.077   1.474 -1.3282  0.1558  0.4904
12624TIP3   OH259362   2.194   4.926   0.517  0.0893 -0.4762 -0.1312
12624TIP3    H159363   2.259   4.882   0.574  0.9082 -1.2366 -1.5982
12624TIP3    H259364   2.230   4.917   0.429 -0.4739  1.8900 -0.6665
12625TIP3   OH259365   0.994   4.107   5.878 -0.0086 -0.3937 -0.4031
12625TIP3    H159366   0.919   4.163   5.858 -0.5532  0.1612  2.5820
12625TIP3    H259367   0.957   4.018   5.881 -0.6678 -0.1185  1.1141
12626TIP3   OH259368   4.330   5.248  12.775 -0.0929 -0.9811  0.5057
12626TIP3    H159369   4.320   5.285  12.863 -1.0557  1.6364 -0.6088
12626TIP3    H259370   4.255   5.189  12.765 -0.9711  0.0363  0.8536
12627TIP3   OH259371   4.680   3.094  15.608 -0.5647  0.4935 -0.0309
12627TIP3    H159372   4.621   3.027  15.643 -0.3836 -0.0561 -0.7649
12627TIP3    H259373   4.655   3.104  15.516 -0.3402  1.1604 -0.0268
12628TIP3   OH259374   4.230   5.156   0.174  1.0479  0.6125  0.1789
12628TIP3    H159375   4.193   5.068   0.180  0.7096  0.7323 -0.1270
12628TIP3    H259376   4.161   5.209   0.134  1.4049  0.9257 -0.0275
12629TIP3   OH259377   0.701   6.533  13.965  0.2003 -0.3576  0.3189
12629TIP3    H159378   0.796   6.546  13.965  0.2819 -0.6864 -1.3960
12629TIP3    H259379   0.683   6.488  14.047  1.4527  0.1465  0.9006
12630TIP3   OH259380   2.128   2.434  12.942  0.1592 -0.2201  0.3960
12630TIP3    H159381   2.207   2.410  12.989  0.2820  1.3969  1.0923
12630TIP3    H259382   2.075   2.354  12.941  1.5185 -1.1585  0.4421
12631TIP3   OH259383   6.271   2.630  13.091  0.0099 -0.0462 -0.7668
12631TIP3    H159384   6.324   2.710  13.088  0.9468 -0.6057  0.3136
12631TIP3    H259385   6.301   2.580  13.015  2.4821 -1.1911  0.8213
12632TIP3   OH259386   3.649   2.449   4.486 -0.2198  0.6999  0.4737
12632TIP3    H159387   3.696   2.367   4.467 -0.0403  0.6215  1.2360
12632TIP3    H259388   3.569   2.421   4.529 -0.6837  0.8709 -0.2654
12633TIP3   OH259389   5.777   2.880  14.732  0.5049 -0.5826  0.5325
12633TIP3    H159390   5.720   2.954  14.708  0.6079 -0.5161  0.4939
12633TIP3    H259391   5.865   2.916  14.729  0.9130 -1.5218 -2.7790
12634TIP3   OH259392   2.004   4.602   4.558  0.0864  0.1443 -0.1056
12634TIP3    H159393   1.972   4.667   4.496 -0.2719 -0.5323 -0.6455
12634TIP3    H259394   1.925   4.564   4.596  0.2591 -0.5796 -0.4427
12635TIP3   OH259395   2.063   0.148  12.542  0.0634 -0.8391 -0.2236
12635TIP3    H159396   2.054   0.090  12.466  1.0488 -2.1332  0.6166
12635TIP3    H259397   2.137   0.205  12.520  0.5067 -1.3762 -0.1343
12636TIP3   OH259398   3.246   1.234   5.143  0.7776 -0.6154 -0.3495
12636TIP3    H159399   3.188   1.200   5.075  0.2000 -1.1015  0.3715
12636TIP3    H259400   3.195   1.304   5.184  0.8589 -0.7711  0.0159
12637TIP3   OH259401   2.838   1.159   0.507 -0.1042 -0.0120 -0.0069
12637TIP3    H159402   2.861   1.249   0.531 -2.1773  0.5974 -0.0467
12637TIP3    H259403   2.849   1.109   0.588 -1.0261  0.7577  0.6210
12638TIP3   OH259404   4.121   1.105  13.017 -0.5533  0.3568  0.3488
12638TIP3    H159405   4.195   1.112  12.956 -1.1704 -0.5628 -0.5420
12638TIP3    H259406   4.096   1.196  13.035  2.3618  0.8277  2.7272
12639TIP3   OH259407   5.268   0.667   4.213 -0.0472 -0.7599  0.0712
12639TIP3    H159408   5.251   0.681   4.120 -0.4547 -3.4794 -0.3339
12639TIP3    H259409   5.363   0.663   4.221  0.0721  1.2269  0.1228
12640TIP3   OH259410   5.906   0.884  16.095  0.6231 -0.0569 -0.2807
12640TIP3    H159411   5.960   0.806  16.083 -1.5854 -1.3249 -3.1085
12640TIP3    H259412   5.952   0.952  16.046  2.0972  0.3128  1.4719
12641TIP3   OH259413   1.372   3.428  11.321  0.2811 -0.0115  0.2857
12641TIP3    H159414   1.328   3.343  11.307 -0.5180  0.4285  0.0356
12641TIP3    H259415   1.357   3.476  11.240  0.8635  0.3201  0.3676
12642TIP3   OH259416   3.143   4.054   2.403  0.5166 -0.0454  0.2763
12642TIP3    H159417   3.185   4.022   2.323 -0.4626 -2.0607  0.4997
12642TIP3    H259418   3.208   4.111   2.444  1.7088 -0.4117 -1.0511
12643TIP3   OH259419   5.501   5.168   0.035 -0.0176  0.1519 -0.0242
12643TIP3    H159420   5.515   5.094   0.094 -0.4557  0.3377  0.3231
12643TIP3    H259421   5.451   5.132  -0.038  0.7817 -0.1441 -0.4402
12644TIP3   OH259422   1.905   6.499  11.565 -0.0218 -0.2458  0.0314
12644TIP3    H159423   1.888   6.489  11.471 -0.9505  1.7526 -0.0598
12644TIP3    H259424   1.855   6.428  11.606  0.0060 -0.8446 -0.9410
12645TIP3   OH259425   5.929   5.301   3.677  0.4021  0.5082  0.6930
12645TIP3    H159426   5.883   5.264   3.603  0.3478 -0.3078  1.1249
12645TIP3    H259427   5.968   5.226   3.722  1.4458  1.0921  0.8124
12646TIP3   OH259428   5.720   5.655  14.770 -0.3555 -0.7667  0.1639
12646TIP3    H159429   5.654   5.716  14.802  1.3000  0.6064  1.1415
12646TIP3    H259430   5.689   5.628  14.683 -2.4338 -0.6272  0.8144
12647TIP3   OH259431   3.499   5.301  11.085  0.4303  0.3824  0.3663
12647TIP3    H159432   3.529   5.278  10.997 -1.1935  1.4915 -0.5342
12647TIP3    H259433   3.454   5.222  11.116 -0.6197  0.5668 -0.5940
12648TIP3   OH259434   6.641   3.693  14.811  0.4878  0.2133 -0.4019
12648TIP3    H159435   6.596   3.740  14.882  1.6159  2.2080 -0.9433
12648TIP3    H259436   6.627   3.600  14.832 -0.4196  0.7445  1.6386
12649TIP3   OH259437   6.645   0.159   3.831 -0.0416 -0.5408 -0.3598
12649TIP3    H159438   6.662   0.177   3.923  0.4910  0.2592 -0.6006
12649TIP3    H259439   6.718   0.200   3.784  1.2121 -3.2841 -0.9883
12650TIP3   OH259440   1.706   4.126  13.491  0.2010  0.1860  0.0317
12650TIP3    H159441   1.612   4.118  13.509  0.2755 -1.4193 -0.1218
12650TIP3    H259442   1.722   4.220  13.487 -1.3369  0.4904  0.3886
12651TIP3   OH259443   2.045   6.795  12.341  0.0918  0.0296 -0.1724
12651TIP3    H159444   1.984   6.808  12.268 -0.2176 -0.8791 -0.0875
12651TIP3    H259445   2.126   6.766  12.299 -0.0640 -0.4242 -0.1573
12652TIP3   OH259446   4.598   2.885  10.900  0.4691  0.0144  0.4903
12652TIP3    H159447   4.557   2.853  10.820  0.1212 -4.4917  2.1399
12652TIP3    H259448   4.524   2.910  10.956  0.7344  4.5200 -0.7812
12653TIP3   OH259449   1.798   5.730  16.398  0.3778 -0.2233 -0.4866
12653TIP3    H159450   1.790   5.651  16.344  0.7770 -0.0857 -0.7477
12653TIP3    H259451   1.777   5.699  16.487 -0.5583 -0.3867 -0.7524
12654TIP3   OH259452   5.091   3.773  13.336 -0.2438 -0.3575 -0.8615
12654TIP3    H159453   5.124   3.712  13.402 -0.7460 -1.0892 -1.2701
12654TIP3    H259454   5.169   3.797  13.285 -0.1335 -1.1325 -1.0712
12655TIP3   OH259455   0.928   3.056  14.370 -0.0778  0.4149 -0.2110
12655TIP3    H159456   1.009   3.072  14.419 -0.8291  0.1245  1.1813
12655TIP3    H259457   0.957   3.029  14.283  1.3185  0.1030  0.3275
12656TIP3   OH259458   0.689   2.638   4.849  0.5186 -0.8128  0.2450
12656TIP3    H159459   0.594   2.632   4.850  0.2720  1.7457 -0.5756
12656TIP3    H259460   0.711   2.700   4.918  1.6846 -1.8988  0.9028
12657TIP3   OH259461   6.781   4.118  10.958  0.1500  0.0767 -0.2925
12657TIP3    H159462   6.808   4.047  10.899  0.7721 -0.3054  0.4342
12657TIP3    H259463   6.711   4.164  10.910  2.8662  1.9155 -2.8344
12658TIP3   OH259464   1.221   0.247   6.199  0.3356  0.4147  0.4342
12658TIP3    H159465   1.169   0.323   6.172 -0.6160 -0.3677  0.0208
12658TIP3    H259466   1.186   0.224   6.285 -2.0235 -1.8001 -0.9681
12659TIP3   OH259467   3.039   4.544  15.274  0.2536 -0.2755  0.2562
12659TIP3    H159468   2.958   4.532  15.325  0.0371 -0.1255 -0.0478
12659TIP3    H259469   3.062   4.636  15.287 -1.2726  0.5263 -2.0141
12660TIP3   OH259470   2.977   2.143   2.843  0.5281 -0.2047 -0.1550
12660TIP3    H159471   3.031   2.214   2.808  1.9476 -1.4261 -0.5475
12660TIP3    H259472   2.902   2.139   2.784  0.8861  0.3739 -0.6684
12661TIP3   OH259473   0.709   3.645  15.130  0.3788 -0.1552  0.0026
12661TIP3    H159474   0.691   3.585  15.058  2.1304  0.0712 -0.6902
12661TIP3    H259475   0.674   3.602  15.208  1.2253 -1.8997 -0.5345
12662TIP3   OH259476   1.771   4.582   5.854 -0.0757  0.4310  0.1188
12662TIP3    H159477   1.735   4.542   5.934  1.3805  1.5687  1.3945
12662TIP3    H259478   1.721   4.541   5.783 -1.1789 -0.8815  1.5692
12663TIP3   OH259479   4.575   3.339   3.456 -0.4637 -0.6239  0.2120
12663TIP3    H159480   4.565   3.422   3.502  3.0145  0.4872 -0.8007
12663TIP3    H259481   4.533   3.275   3.515 -1.7190  1.5303  1.8384
12664TIP3   OH259482   6.287   5.552   5.183 -0.2872  0.0963 -0.1660
12664TIP3    H159483   6.209   5.595   5.146  0.0733  2.4443  1.5502
12664TIP3    H259484   6.356   5.619   5.176  0.9246 -1.0310  0.6264
12665TIP3   OH259485   0.119   0.275  15.957  0.6737  0.4118 -0.4212
12665TIP3    H159486   0.100   0.198  15.902  0.7117  0.6061 -0.7105
12665TIP3    H259487   0.034   0.302  15.990  0.6338  0.3692 -0.4863
12666TIP3   OH259488   5.858   6.209   1.981 -0.2141  0.7007  0.2921
12666TIP3    H159489   5.784   6.260   1.949 -1.1777 -0.9698 -0.2705
12666TIP3    H259490   5.888   6.256   2.059 -0.8171  2.2748 -0.3785
12667TIP3   OH259491   1.921   3.029  13.480  0.2335  0.4869 -0.0601
12667TIP3    H159492   1.826   3.044  13.481 -0.1311 -1.4863  1.3814
12667TIP3    H259493   1.938   2.993  13.393 -0.8635 -1.6395  0.5247
12668TIP3   OH259494   6.064   3.047   2.603  0.7416  0.0774  0.2137
12668TIP3    H159495   6.021   3.029   2.687  1.1385 -0.3032  0.3361
12668TIP3    H259496   6.003   3.013   2.538  0.4796  0.2783  0.3523
12669TIP3   OH259497   4.307   1.463  12.363  0.1052 -0.1087  0.6140
12669TIP3    H159498   4.318   1.368  12.359 -0.6958 -0.1647 -1.5538
12669TIP3    H259499   4.386   1.498  12.322 -0.1112  0.1112  0.3790
12670TIP3   OH259500   1.925   5.851  14.772  0.6963 -0.1583 -0.0703
12670TIP3    H159501   1.902   5.930  14.723 -1.4639 -0.5523  0.1961
12670TIP3    H259502   1.891   5.866  14.860  2.5716 -0.3641  0.7314
12671TIP3   OH259503   4.578   0.481  13.910  0.4064  0.2909  0.3516
12671TIP3    H159504   4.547   0.499  13.999 -0.7191  1.5264 -0.2629
12671TIP3    H259505   4.522   0.411  13.878 -0.0554  0.7392  0.1664
12672TIP3   OH259506   5.358   1.998  13.963  0.2223 -0.5075  0.6250
12672TIP3    H159507   5.400   2.062  13.905 -1.0038  0.3027  0.6010
12672TIP3    H259508   5.358   2.041  14.049  1.2216 -1.3323  1.0587
12673TIP3   OH259509   3.070   6.130  15.627 -0.4334 -0.3127 -0.0728
12673TIP3    H159510   3.056   6.117  15.721 -0.7242  1.3250  0.1247
12673TIP3    H259511   3.150   6.080  15.609 -0.8227 -1.3304  0.8556
12674TIP3   OH259512   1.056   4.228   3.399 -0.5947 -0.1097  0.4088
12674TIP3    H159513   1.008   4.294   3.349  0.2689 -1.0421 -1.7867
12674TIP3    H259514   1.140   4.219   3.354  0.7209 -0.2631  2.7044
12675TIP3   OH259515   0.182   3.277   3.701  0.3096 -0.1936  0.1501
12675TIP3    H159516   0.208   3.185   3.697 -1.3119 -0.7560  1.3971
12675TIP3    H259517   0.139   3.294   3.617 -1.3223 -1.2411  0.7392
12676TIP3   OH259518   0.605   3.596  14.709 -0.3499  0.1845 -0.1124
12676TIP3    H159519   0.560   3.607  14.792 -0.1532  0.4652 -0.0397
12676TIP3    H259520   0.600   3.502  14.691 -0.5245  0.1442  0.1413
12677TIP3   OH259521   5.930   5.943  14.578  0.2686 -0.2522 -0.1510
12677TIP3    H159522   5.893   5.881  14.514  1.1513  0.9523 -1.9024
12677TIP3    H259523   5.860   5.956  14.641 -1.5480  0.2797 -2.1470
12678TIP3   OH259524   4.285   0.225   4.181  0.0766  0.7835  0.3457
12678TIP3    H159525   4.276   0.193   4.091 -1.7432  0.9152  0.4561
12678TIP3    H259526   4.256   0.152   4.235  0.4903  0.9544  0.7975
12679TIP3   OH259527   3.746   3.228  13.361  0.4536 -0.3037 -0.5510
12679TIP3    H159528   3.740   3.319  13.334 -1.7564 -0.1477  0.2898
12679TIP3    H259529   3.684   3.182  13.304 -0.8519 -0.7034  1.1099
12680TIP3   OH259530   4.983   0.594  13.844 -0.3262  0.0079 -0.6789
12680TIP3    H159531   5.015   0.664  13.788  0.3562 -0.7993 -1.3187
12680TIP3    H259532   4.943   0.639  13.919 -0.9030  1.0948 -1.6111
12681TIP3   OH259533   0.680   2.667   4.070  0.5888  0.1891  0.0771
12681TIP3    H159534   0.758   2.720   4.085  0.9635 -0.1223 -0.7382
12681TIP3    H259535   0.615   2.703   4.130  1.6783 -0.2670  1.5883
12682TIP3   OH259536   3.862   5.493  17.196  0.2398 -0.0009  0.4369
12682TIP3    H159537   3.894   5.425  17.255  2.1781  0.3180 -0.1883
12682TIP3    H259538   3.861   5.452  17.110  1.4816  0.7560  0.0447
12683TIP3   OH259539   3.180   0.718  16.818 -0.2742  0.1263  0.0146
12683TIP3    H159540   3.189   0.718  16.723  2.1296 -1.2047  0.1579
12683TIP3    H259541   3.123   0.643  16.836 -0.6268  0.3000 -0.3621
12684TIP3   OH259542   5.573   4.105   6.122  0.2296 -0.2915  0.1580
12684TIP3    H159543   5.552   4.125   6.030 -1.5576  1.6503  0.9029
12684TIP3    H259544   5.656   4.150   6.138  0.0541  0.1911 -0.2561
12685TIP3   OH259545   2.543   6.250   4.568  0.0871  0.0668  0.3914
12685TIP3    H159546   2.448   6.256   4.574 -0.0807 -0.6419 -1.0840
12685TIP3    H259547   2.575   6.277   4.654 -1.4904 -0.6923  1.2420
12686TIP3   OH259548   0.014   5.399  16.786 -0.2815 -0.0793 -0.0040
12686TIP3    H159549   0.022   5.350  16.704 -0.6952 -0.0557 -0.0630
12686TIP3    H259550  -0.065   5.452  16.774 -1.0938 -1.0524  0.9036
12687TIP3   OH259551   1.896   3.681   1.924  0.2076 -0.3032  0.5680
12687TIP3    H159552   1.820   3.733   1.948  1.3854  1.4741  0.6951
12687TIP3    H259553   1.860   3.600   1.888 -1.7158  0.4301  0.7326
12688TIP3   OH259554   0.332   5.806   1.824  0.1860 -0.3572  0.0092
12688TIP3    H159555   0.355   5.769   1.739  3.8318 -0.6204  0.9251
12688TIP3    H259556   0.350   5.899   1.815  3.4333 -0.7310  1.0892
12689TIP3   OH259557   0.924   6.450  11.943 -0.3681 -0.0394  0.0729
12689TIP3    H159558   0.916   6.531  11.891  0.9271  3.7016  4.9631
12689TIP3    H259559   1.018   6.431  11.942 -0.5696 -1.0742 -0.3766
12690TIP3   OH259560   6.048   6.178  11.361 -0.5559  0.2365  0.2142
12690TIP3    H159561   5.954   6.171  11.382 -0.2981  1.7085  2.1433
12690TIP3    H259562   6.072   6.266  11.390  1.2525  0.2084 -1.0800
12691TIP3   OH259563   6.377   1.976   4.755 -0.2032  0.1143  0.3777
12691TIP3    H159564   6.322   2.054   4.742  1.0381  0.8199 -0.8239
12691TIP3    H259565   6.314   1.903   4.758 -1.3010  1.0290  0.4431
12692TIP3   OH259566   1.368   2.965   4.433 -0.1125 -0.0239 -0.0680
12692TIP3    H159567   1.384   3.029   4.363 -0.9451  0.3675  0.0886
12692TIP3    H259568   1.274   2.967   4.446 -0.1217 -1.1258  0.1087
12693TIP3   OH259569   4.266   6.497   4.808 -0.4816 -0.6241 -0.0484
12693TIP3    H159570   4.360   6.481   4.800 -0.4729 -0.7539  0.2984
12693TIP3    H259571   4.259   6.570   4.870 -0.6774 -1.6764  1.1895
12694TIP3   OH259572   1.006   4.202   2.130  0.8800 -0.1415  0.5450
12694TIP3    H159573   1.023   4.170   2.042  1.3385  0.6859  0.3254
12694TIP3    H259574   0.977   4.292   2.118 -1.3601 -0.7074  1.0706
12695TIP3   OH259575   0.991   4.086   0.163 -0.3387  0.1399  0.2411
12695TIP3    H159576   0.931   4.159   0.147 -0.1942  0.2018 -0.0163
12695TIP3    H259577   0.937   4.021   0.209 -1.0118 -0.4336 -1.2947
12696TIP3   OH259578   0.431   2.543  16.989  0.5538 -0.3945  0.0750
12696TIP3    H159579   0.498   2.499  16.937 -1.4289 -0.2957 -2.8006
12696TIP3    H259580   0.466   2.631  17.002  1.1810 -0.4502 -1.0375
12697TIP3   OH259581   4.068   0.870  11.567 -0.2332  0.0925  0.6068
12697TIP3    H159582   4.078   0.821  11.485  0.1048 -0.1491  0.7920
12697TIP3    H259583   4.157   0.882  11.599 -0.1160  2.4436 -0.3631
12698TIP3   OH259584   0.946   2.108   5.875 -0.3959  0.0907  0.9557
12698TIP3    H159585   0.926   2.015   5.867  0.2988  0.0105 -0.0416
12698TIP3    H259586   0.881   2.141   5.937 -1.1390 -0.9056  0.7386
12699TIP3   OH259587   3.639   2.085  15.696  0.0993  0.3298  0.5692
12699TIP3    H159588   3.550   2.120  15.691 -0.5882 -1.2522  1.2045
12699TIP3    H259589   3.676   2.127  15.774  0.0891  1.3192  0.0637
12700TIP3   OH259590   4.336   5.034   1.394  0.3223  0.3530 -0.0309
12700TIP3    H159591   4.262   5.057   1.338  1.2585  2.6501 -0.4415
12700TIP3    H259592   4.387   4.971   1.343 -0.2268  0.4118 -0.6589
12701TIP3   OH259593   1.774   1.729   4.358  0.2983 -0.0150 -0.0379
12701TIP3    H159594   1.828   1.655   4.330 -0.2176 -0.5039  0.2251
12701TIP3    H259595   1.794   1.799   4.296 -0.5004 -0.9240 -1.3690
12702TIP3   OH259596   3.416   2.325   4.651  0.1593 -0.4205 -0.2096
12702TIP3    H159597   3.367   2.306   4.731  0.0240  3.4917  0.8546
12702TIP3    H259598   3.353   2.310   4.581 -1.4722  0.9765  0.8618
12703TIP3   OH259599   4.910   6.192  14.674  0.2848  0.2875 -0.0271
12703TIP3    H159600   4.960   6.154  14.601  1.8030  1.5511  0.3067
12703TIP3    H259601   4.954   6.160  14.752  0.5314  1.3302  0.2757
12704TIP3   OH259602   1.867   2.822  14.015 -0.3440  0.0933 -0.2505
12704TIP3    H159603   1.866   2.730  14.042 -1.7616 -0.3700 -1.7213
12704TIP3    H259604   1.846   2.820  13.922 -1.7360  1.9642 -0.0277
12705TIP3   OH259605   5.499   0.289  17.062  0.2950 -0.3147 -0.2007
12705TIP3    H159606   5.409   0.321  17.060  0.9448  1.6537 -0.6654
12705TIP3    H259607   5.507   0.237  16.982 -0.2301  0.0801 -0.5188
12706TIP3   OH259608   2.157   4.383  14.691  0.2830  0.4245 -0.2866
12706TIP3    H159609   2.108   4.306  14.661  0.8235  0.3027 -0.8798
12706TIP3    H259610   2.215   4.404  14.617  1.6910  0.0916  0.6962
12707TIP3   OH259611   4.364   6.763   1.304  0.0338 -0.2504  0.6878
12707TIP3    H159612   4.437   6.809   1.344 -0.9405  2.2332 -0.2419
12707TIP3    H259613   4.286   6.799   1.347 -0.7629 -1.4018  0.2689
12708TIP3   OH259614   5.240   2.364   4.204 -0.1893  0.1804  0.0268
12708TIP3    H159615   5.248   2.302   4.276 -1.0738  0.1723  0.1322
12708TIP3    H259616   5.193   2.316   4.136  0.0633  0.3967 -0.3010
12709TIP3   OH259617   0.485   5.777  14.271  0.2275  0.2153  0.5602
12709TIP3    H159618   0.523   5.858  14.306  1.7506 -0.9179  1.6475
12709TIP3    H259619   0.402   5.768  14.319 -0.1104  1.2682  0.2069
12710TIP3   OH259620   4.441   5.415  15.766  0.1012 -0.0445  0.5384
12710TIP3    H159621   4.356   5.385  15.735  0.4308  0.6061 -1.0706
12710TIP3    H259622   4.431   5.418  15.862 -1.0569 -1.7783  0.5171
12711TIP3   OH259623   3.054   1.854   0.965  0.0480 -0.0555  0.2467
12711TIP3    H159624   3.071   1.814   0.880  2.1544  0.1619  0.5215
12711TIP3    H259625   2.959   1.847   0.976 -0.0599 -1.6887 -1.3058
12712TIP3   OH259626   5.207   1.194  17.016 -0.7063  0.4569  0.5710
12712TIP3    H159627   5.140   1.151  16.963  0.8150 -0.2689 -0.8563
12712TIP3    H259628   5.241   1.265  16.961  1.4022 -0.7545  0.1985
12713TIP3   OH259629   4.147   1.051   6.201 -0.6586 -0.3623 -0.2667
12713TIP3    H159630   4.237   1.082   6.211 -0.1343 -1.6606 -0.7555
12713TIP3    H259631   4.113   1.043   6.290  0.0772 -0.8702 -0.0254
12714TIP3   OH259632   1.643   2.192  12.010  0.2305 -0.2171 -0.1173
12714TIP3    H159633   1.628   2.225  11.922 -1.7549 -0.0451  0.2358
12714TIP3    H259634   1.627   2.267  12.067  1.2551 -0.3891  0.4205
12715TIP3   OH259635   5.351   3.492   2.673 -0.6294 -0.3406 -0.0162
12715TIP3    H159636   5.407   3.566   2.649  0.0560 -0.5069  1.0366
12715TIP3    H259637   5.376   3.470   2.762 -2.4884 -0.3432  0.5465
12716TIP3   OH259638   3.058   3.154   3.602  0.4210  0.2815  0.5261
12716TIP3    H159639   3.117   3.220   3.568 -0.2324  0.3699 -0.4723
12716TIP3    H259640   3.069   3.159   3.697  2.0391  0.2465  0.3634
12717TIP3   OH259641   0.950   4.004   1.195 -0.7452  0.0028  0.3221
12717TIP3    H159642   0.908   3.924   1.226  0.1153 -0.2986  0.7211
12717TIP3    H259643   0.982   4.047   1.274  1.4370 -0.7562 -0.0918
12718TIP3   OH259644   3.562   6.715   2.052  0.2521 -0.8187  0.7088
12718TIP3    H159645   3.565   6.765   2.133  1.6937 -1.0969  0.8495
12718TIP3    H259646   3.469   6.705   2.033 -0.2346  3.6322 -0.3727
12719TIP3   OH259647   3.473   6.364  10.915  0.4050 -0.5340 -0.0197
12719TIP3    H159648   3.561   6.337  10.888  0.2374 -0.9006 -0.2118
12719TIP3    H259649   3.466   6.334  11.006 -0.9567 -4.2456 -1.1372
12720TIP3   OH259650   2.938   2.982   5.374 -0.4734  0.0769  1.1035
12720TIP3    H159651   2.899   3.070   5.379  1.1601  0.9459 -0.2371
12720TIP3    H259652   3.022   2.991   5.418  1.6904  0.4864 -2.6364
12721TIP3   OH259653   0.634   6.311  11.502 -0.3136 -0.0453  0.1770
12721TIP3    H159654   0.685   6.328  11.581  0.7684 -0.0835 -0.4942
12721TIP3    H259655   0.548   6.285  11.534 -0.2540  1.0801  1.3226
12722TIP3   OH259656   2.207   0.656   2.035  0.5224  0.2588 -0.4755
12722TIP3    H159657   2.273   0.711   2.075 -1.2640  2.1373  0.0386
12722TIP3    H259658   2.145   0.637   2.106  0.1567 -0.9272 -1.0812
12723TIP3   OH259659   0.334   0.620  16.990 -0.4854  0.2589  0.3190
12723TIP3    H159660   0.297   0.615  16.902  0.0831 -0.4550  0.1120
12723TIP3    H259661   0.264   0.659  17.043 -1.5906 -1.1641 -0.0290
12724TIP3   OH259662   1.950   5.403  15.492  0.6991  0.3640  0.2996
12724TIP3    H159663   2.041   5.420  15.518  0.5849  2.3525 -0.4512
12724TIP3    H259664   1.934   5.464  15.420 -0.9866 -0.5450 -0.1381
12725TIP3   OH259665   1.558   5.078   4.959  0.2881  0.3380  0.0372
12725TIP3    H159666   1.630   5.138   4.978  1.1383 -1.1073  1.7913
12725TIP3    H259667   1.570   5.006   5.022 -1.4372 -1.0143 -1.0749
12726TIP3   OH259668   0.829   0.290  14.374  0.4296 -0.3687  0.1566
12726TIP3    H159669   0.892   0.361  14.361 -2.0088  1.6513 -1.5705
12726TIP3    H259670   0.779   0.287  14.292 -0.1211 -3.5950  0.4662
12727TIP3   OH259671   6.210   1.375  12.283 -0.2003 -0.3767  0.6617
12727TIP3    H159672   6.255   1.294  12.308 -0.7753 -0.9925 -0.2339
12727TIP3    H259673   6.279   1.429  12.245  0.3240 -0.1490  1.8970
12728TIP3   OH259674   5.793   2.188   1.010 -0.1386 -0.0659  0.3828
12728TIP3    H159675   5.854   2.226   1.074  0.8905 -2.3104  0.8146
12728TIP3    H259676   5.717   2.162   1.063 -1.6813  2.8419 -0.1709
12729TIP3   OH259677   2.055   0.659   0.108 -0.1189 -0.1722  0.5089
12729TIP3    H159678   2.023   0.681   0.196 -1.6220 -2.4808  0.6075
12729TIP3    H259679   2.128   0.600   0.124  0.6102  0.6291  0.1951
12730TIP3   OH259680   1.167   1.009   2.280 -0.3300 -0.3184 -0.2358
12730TIP3    H159681   1.215   1.023   2.199  0.9343 -2.7088  0.0221
12730TIP3    H259682   1.231   1.023   2.349 -0.2918 -2.2038  0.1641
12731TIP3   OH259683   6.293   4.559  15.547 -0.1039 -0.0932 -0.0037
12731TIP3    H159684   6.336   4.529  15.467 -1.1568  0.7753 -0.9352
12731TIP3    H259685   6.251   4.641  15.521  0.3912  0.7346  1.7266
12732TIP3   OH259686   0.720   3.103  16.097 -0.3919  0.2750  0.3067
12732TIP3    H159687   0.689   3.193  16.105 -0.6625  0.0366  2.5120
12732TIP3    H259688   0.640   3.050  16.099 -0.1286 -0.1244  1.9815
12733TIP3   OH259689   1.155   6.807   0.569  0.0003  0.1810  0.1243
12733TIP3    H159690   1.157   6.727   0.621 -2.2580 -0.2695 -0.3673
12733TIP3    H259691   1.069   6.846   0.587  1.4027  3.0967  1.1653
12734TIP3   OH259692   2.918   2.615   4.825  0.0586 -0.3706  0.5568
12734TIP3    H159693   2.847   2.557   4.851 -0.0429 -1.2683 -1.5164
12734TIP3    H259694   2.887   2.703   4.846 -1.6935 -0.7349 -0.3416
12735TIP3   OH259695   6.345   6.804  15.879  0.0008 -0.0097 -0.8904
12735TIP3    H159696   6.416   6.814  15.816  0.4400 -0.1719 -0.4365
12735TIP3    H259697   6.364   6.870  15.947  0.5722 -1.0344 -0.0114
12736TIP3   OH259698   5.308   1.735  15.608 -0.6551  0.2049  0.1729
12736TIP3    H159699   5.355   1.768  15.531  0.0922  0.3117  0.6609
12736TIP3    H259700   5.292   1.643  15.588 -1.7108  0.5569 -0.6985
12737TIP3   OH259701   5.480   4.191  15.702  0.2229  0.3395 -0.1928
12737TIP3    H159702   5.417   4.122  15.724  0.9559 -0.0948  0.6066
12737TIP3    H259703   5.426   4.265  15.673 -0.5942 -0.4325 -0.7019
12738TIP3   OH259704   0.323   2.873   3.411 -0.3231 -0.0193 -0.8456
12738TIP3    H159705   0.327   2.779   3.428 -0.4876 -0.0376 -0.9085
12738TIP3    H259706   0.230   2.893   3.405 -0.2764  0.0378 -1.4269
12739TIP3   OH259707   2.714   0.274  11.859  0.3571  0.1106  0.3630
12739TIP3    H159708   2.780   0.268  11.791 -0.2927 -1.8112 -0.1671
12739TIP3    H259709   2.651   0.338  11.826  0.8713  0.3842 -0.0921
12740TIP3   OH259710   0.273   0.597  12.570  0.6940  0.9457  0.5589
12740TIP3    H159711   0.230   0.536  12.510  1.5683  0.7899  0.0608
12740TIP3    H259712   0.204   0.658  12.596  0.6475  2.1479 -2.0793
12741TIP3   OH259713   6.451   5.187  13.434 -0.8246 -0.9306  0.2326
12741TIP3    H159714   6.389   5.140  13.490 -1.1615  0.6585  1.2749
12741TIP3    H259715   6.411   5.273  13.421  0.4025 -0.4315 -0.4293
12742TIP3   OH259716   6.590   3.288  11.951 -0.4547 -0.0364  0.3651
12742TIP3    H159717   6.624   3.202  11.929  0.8128  0.0782  1.7107
12742TIP3    H259718   6.664   3.348  11.936 -0.5723  0.4705  1.6852
12743TIP3   OH259719   1.960   4.742   6.038 -0.1084 -0.0854 -0.2838
12743TIP3    H159720   1.880   4.776   6.079 -0.0774 -0.6344  0.2506
12743TIP3    H259721   2.015   4.715   6.111  0.9447  1.0826 -0.6149
12744TIP3   OH259722   0.650   3.127   2.322  0.8357 -0.5859  0.5721
12744TIP3    H159723   0.566   3.086   2.343  1.5948 -2.0245  0.9312
12744TIP3    H259724   0.640   3.218   2.350 -1.6265  0.1272 -2.1197
12745TIP3   OH259725   1.471   5.144  12.740 -0.3947  0.5399 -0.5227
12745TIP3    H159726   1.417   5.136  12.818  1.1797 -0.2522  0.5486
12745TIP3    H259727   1.503   5.235  12.742  0.5612  0.2061  0.4360
12746TIP3   OH259728   3.190   2.100   1.958 -0.2662 -0.6219 -0.0435
12746TIP3    H159729   3.194   2.079   1.865  1.7082  0.7158 -0.3277
12746TIP3    H259730   3.179   2.195   1.960 -0.3026 -0.6374  1.1064
12747TIP3   OH259731   6.430   4.573   2.181 -0.6362 -0.1028  0.3732
12747TIP3    H159732   6.388   4.523   2.111 -1.3446  2.6958 -1.3945
12747TIP3    H259733   6.377   4.653   2.188  2.2330  1.9463  0.6304
12748TIP3   OH259734   2.669   0.763  12.233 -0.5147 -0.1896 -0.1199
12748TIP3    H159735   2.699   0.793  12.318 -1.6837  0.3131  0.1294
12748TIP3    H259736   2.710   0.823  12.170 -3.1528  2.3824  0.3887
12749TIP3   OH259737   1.981   5.027  12.259  0.1592 -0.3408  0.3391
12749TIP3    H159738   1.972   5.112  12.216 -0.1735 -0.3229  0.4397
12749TIP3    H259739   2.056   4.986  12.216 -1.2827 -1.1163 -1.5800
12750TIP3   OH259740   2.486   2.718   1.076 -0.2521 -0.0195 -0.1868
12750TIP3    H159741   2.473   2.683   0.987  0.2492 -0.1031 -0.2290
12750TIP3    H259742   2.398   2.741   1.105 -0.6160 -1.4359 -0.1101
12751TIP3   OH259743   3.325   1.103  12.190 -0.5943 -0.0555  0.0043
12751TIP3    H159744   3.371   1.115  12.107 -0.5457 -0.4885 -0.0315
12751TIP3    H259745   3.378   1.151  12.254  0.5506 -1.4699  0.1791
12752TIP3   OH259746   3.577   0.926   5.439  0.1890 -0.3717 -0.5204
12752TIP3    H159747   3.561   0.833   5.454  1.1259 -0.8754 -2.3739
12752TIP3    H259748   3.662   0.942   5.479  0.2008 -0.4098 -0.5300
12753TIP3   OH259749   6.145   5.241  14.551 -0.0425  0.0669 -0.3551
12753TIP3    H159750   6.115   5.184  14.480  1.3405 -1.1768 -0.0034
12753TIP3    H259751   6.095   5.322  14.540 -0.3580 -0.3446 -2.3187
12754TIP3   OH259752   2.476   2.536   1.492 -0.1376 -0.0762  0.1252
12754TIP3    H159753   2.522   2.507   1.413 -2.1792 -0.0635 -1.1276
12754TIP3    H259754   2.491   2.466   1.555 -0.5416 -1.3173 -1.1028
12755TIP3   OH259755   2.531   4.831   2.628 -0.4412 -0.1258 -0.0807
12755TIP3    H159756   2.547   4.737   2.618 -1.1112 -0.0759 -2.1940
12755TIP3    H259757   2.437   4.841   2.613 -0.1445  1.0155 -1.3248
12756TIP3   OH259758   1.942   4.642  12.762 -0.0951 -0.6658  0.3104
12756TIP3    H159759   2.012   4.592  12.804  0.1444 -1.0761 -0.5636
12756TIP3    H259760   1.955   4.732  12.792 -1.0248 -1.2183  2.5665
12757TIP3   OH259761   4.073   5.095   3.049 -0.2644 -0.3805 -0.1546
12757TIP3    H159762   4.003   5.051   3.001 -0.7862  0.5775 -0.2849
12757TIP3    H259763   4.110   5.158   2.987  2.0513 -2.1846 -0.7633
12758TIP3   OH259764   3.978   6.431  12.937  0.1117 -0.0975 -0.3727
12758TIP3    H159765   3.895   6.456  12.979 -0.1378 -2.3455  0.6527
12758TIP3    H259766   4.046   6.471  12.991 -0.2802  0.6764 -0.4435
12759TIP3   OH259767   2.253   2.491  12.664 -0.4990  0.0995  0.3098
12759TIP3    H159768   2.235   2.499  12.758  0.6545 -2.0912  0.7720
12759TIP3    H259769   2.172   2.458  12.627 -0.3280 -0.9950  0.8861
12760TIP3   OH259770   5.654   0.376  14.329 -0.7086 -0.0251 -0.3864
12760TIP3    H159771   5.648   0.410  14.419 -0.1678 -0.4489 -0.1830
12760TIP3    H259772   5.590   0.305  14.326  0.3491 -1.0508  0.1618
12761TIP3   OH259773   4.190   0.125  14.974  0.2193 -0.1547 -0.5065
12761TIP3    H159774   4.104   0.112  14.935 -0.5164 -0.7481  1.2547
12761TIP3    H259775   4.207   0.045  15.023  1.9137 -0.1695 -1.0432
12762TIP3   OH259776   6.537   2.142   0.780  0.0052 -0.1554 -0.4215
12762TIP3    H159777   6.515   2.050   0.768  1.4583 -0.6347  0.2831
12762TIP3    H259778   6.622   2.152   0.737 -0.0651  0.8243 -0.3596
12763TIP3   OH259779   1.336   1.692   5.041  0.3696  0.5861  0.7875
12763TIP3    H159780   1.429   1.697   5.021  0.5784 -0.1208  1.5121
12763TIP3    H259781   1.330   1.714   5.134 -0.4933  3.1119  0.2346
12764TIP3   OH259782   4.603   2.138  13.559  0.2107  0.4553  0.8612
12764TIP3    H159783   4.583   2.090  13.479  2.2541 -0.6439  0.9498
12764TIP3    H259784   4.524   2.189  13.577 -0.6758 -0.0741 -1.2587
12765TIP3   OH259785   6.518   4.491  11.250 -0.6739 -0.3918 -0.1182
12765TIP3    H159786   6.458   4.500  11.324 -0.2700 -0.3941  0.2093
12765TIP3    H259787   6.509   4.574  11.202  0.0312  0.1508  0.6632
12766TIP3   OH259788   2.728   5.892  15.343 -0.2263  0.1349  0.5886
12766TIP3    H159789   2.771   5.977  15.336  1.5726 -0.6406  1.4621
12766TIP3    H259790   2.750   5.847  15.261 -0.2752  0.1211  0.5833
12767TIP3   OH259791   1.755   6.273   2.473 -0.2278  0.1942  0.6395
12767TIP3    H159792   1.786   6.355   2.436  0.7088 -0.1148  0.7238
12767TIP3    H259793   1.832   6.233   2.512  0.0216 -2.0618 -1.8353
12768TIP3   OH259794   5.315   0.349  11.168  0.1199 -0.2559 -0.2028
12768TIP3    H159795   5.362   0.272  11.202 -0.9273 -1.7282 -1.9217
12768TIP3    H259796   5.237   0.312  11.127 -0.5141  1.7828 -0.9054
12769TIP3   OH259797   6.588   3.645   6.622  0.5797  0.1593 -0.3200
12769TIP3    H159798   6.631   3.594   6.554  0.1326  1.3411 -1.5504
12769TIP3    H259799   6.494   3.640   6.600  0.3276 -0.2636  0.8043
12770TIP3   OH259800   4.213   1.525  10.438  0.1481  0.7532  0.4640
12770TIP3    H159801   4.168   1.447  10.467  1.5885  0.0987  1.0531
12770TIP3    H259802   4.306   1.504  10.447  0.6118  1.8384 -1.1788
12771TIP3   OH259803   0.792   4.695   0.823  0.2334  0.1047 -0.0819
12771TIP3    H159804   0.729   4.623   0.825  1.6027 -1.1565 -0.6650
12771TIP3    H259805   0.805   4.713   0.730  0.9727  0.1228  0.0196
12772TIP3   OH259806   3.868   1.327  12.836 -0.1186 -0.2958  0.2564
12772TIP3    H159807   3.931   1.283  12.892  2.0312  1.8601 -0.2950
12772TIP3    H259808   3.886   1.420  12.848 -2.3621  0.3755 -0.9260
12773TIP3   OH259809   2.162   2.606  11.909  0.2585  0.2054  0.7310
12773TIP3    H159810   2.145   2.517  11.878 -2.0140  0.6329  0.5996
12773TIP3    H259811   2.256   2.618  11.896  0.5310 -1.9854  0.2837
12774TIP3   OH259812   3.166   4.361  15.535  0.3325 -0.2291  0.7260
12774TIP3    H159813   3.125   4.431  15.586  0.2553 -0.9018  1.6318
12774TIP3    H259814   3.095   4.299  15.518  0.5036 -0.3296  0.3757
12775TIP3   OH259815   3.198   4.664  12.779 -0.5174  0.4781 -0.0580
12775TIP3    H159816   3.258   4.731  12.747  0.3669  0.2689  1.1288
12775TIP3    H259817   3.221   4.585  12.730  1.0951  0.0590  1.2811
12776TIP3   OH259818   1.838   0.027  12.163 -0.0746 -0.2711 -0.1608
12776TIP3    H159819   1.870  -0.011  12.081  0.3546  0.8174 -0.5103
12776TIP3    H259820   1.779  -0.040  12.198  1.1957 -1.5842 -0.3893
12777TIP3   OH259821   4.292   1.257   4.273  0.0249  0.2728 -0.0425
12777TIP3    H159822   4.337   1.176   4.297 -0.0458 -0.1437 -1.2302
12777TIP3    H259823   4.203   1.229   4.250  0.2442  0.5463 -1.2937
12778TIP3   OH259824   1.670   5.744   4.986 -0.4470 -0.1556  0.0650
12778TIP3    H159825   1.763   5.724   4.971 -0.6327 -0.9578 -0.0399
12778TIP3    H259826   1.624   5.697   4.916 -1.1816 -2.3578  1.9391
12779TIP3   OH259827   3.782   0.076  12.325  0.6304  0.2992  0.3157
12779TIP3    H159828   3.727   0.120  12.260  2.1608  0.8011 -0.6847
12779TIP3    H259829   3.801   0.144  12.390  1.0096  0.4493  0.0496
12780TIP3   OH259830   3.418   6.228  16.823 -0.1672 -0.3768  0.4200
12780TIP3    H159831   3.394   6.286  16.896 -0.1645  0.4797 -0.2459
12780TIP3    H259832   3.504   6.194  16.847  0.3408  0.7797  0.3192
12781TIP3   OH259833   3.791   6.370   0.829 -0.3249  0.0633  0.6432
12781TIP3    H159834   3.743   6.288   0.816 -0.5055  0.1120  0.9682
12781TIP3    H259835   3.882   6.350   0.807 -0.6485  0.2137 -0.8951
12782TIP3   OH259836   2.827   6.226  11.043 -0.3047 -0.1068 -0.3571
12782TIP3    H159837   2.900   6.240  11.104 -1.0753 -1.7098  1.0304
12782TIP3    H259838   2.779   6.152  11.080 -1.4797 -0.4113 -2.3397
12783TIP3   OH259839   3.277   4.548   5.158  0.3087 -0.1001  0.6053
12783TIP3    H159840   3.319   4.513   5.080  2.8412  0.2493  1.6969
12783TIP3    H259841   3.223   4.621   5.127  0.4707 -0.6025 -0.9091
12784TIP3   OH259842   1.960   4.179   2.336  0.2190  0.7068 -0.4577
12784TIP3    H159843   1.892   4.184   2.403  1.6736 -0.6992  1.2187
12784TIP3    H259844   1.913   4.153   2.256 -1.2080 -0.3660  0.6783
12785TIP3   OH259845   2.477   6.833   1.962 -0.3142 -0.2348  0.1081
12785TIP3    H159846   2.458   6.922   1.990  0.0018 -0.3432  0.6842
12785TIP3    H259847   2.546   6.842   1.897 -0.7285 -0.0127 -0.3020
12786TIP3   OH259848   5.503   0.750   1.338 -0.3637 -0.4389 -0.3358
12786TIP3    H159849   5.431   0.812   1.348  0.0332  0.3896 -2.2569
12786TIP3    H259850   5.460   0.666   1.324 -0.9444 -0.1819 -0.1327
12787TIP3   OH259851   1.987   2.932  14.867  0.1796  0.3038 -0.3770
12787TIP3    H159852   1.997   3.005  14.928 -1.1410 -0.5837  0.9704
12787TIP3    H259853   2.028   2.858  14.911  0.4224 -0.0493 -1.1873
12788TIP3   OH259854   1.696   5.977   1.266  0.1960  0.0048 -0.1111
12788TIP3    H159855   1.742   5.919   1.326  1.1038 -0.0866 -0.8698
12788TIP3    H259856   1.603   5.958   1.281  0.3278  0.9525  2.1963
12789TIP3   OH259857   5.943   4.747  10.887 -0.1756 -0.3138  0.3915
12789TIP3    H159858   5.859   4.702  10.877 -1.2039  1.9286 -1.9843
12789TIP3    H259859   5.948   4.806  10.812  2.2977  1.5921  1.9066
12790TIP3   OH259860   5.867   3.794  16.096 -0.6762  0.0033  0.6851
12790TIP3    H159861   5.894   3.761  16.182 -0.6881  0.4306  0.8527
12790TIP3    H259862   5.893   3.886  16.096 -1.7905  0.3344  0.7072
12791TIP3   OH259863   2.723   6.153   1.052  0.7226 -0.6273 -0.1757
12791TIP3    H159864   2.662   6.227   1.057 -0.1005 -1.3723  2.0185
12791TIP3    H259865   2.807   6.193   1.027  0.0622  0.8744 -0.1250
12792TIP3   OH259866   2.599   1.320   2.018 -0.0899 -0.0248 -0.3274
12792TIP3    H159867   2.576   1.291   2.106 -0.4459 -0.8406 -0.6720
12792TIP3    H259868   2.604   1.415   2.024  2.2596 -0.1667  1.1247
12793TIP3   OH259869   4.029   0.914   2.176  0.3592  0.2450 -0.1143
12793TIP3    H159870   4.028   0.899   2.082  2.6475  1.7312 -0.4503
12793TIP3    H259871   3.986   0.999   2.187 -0.5895 -0.2792  0.2786
12794TIP3   OH259872   2.432   0.106  13.182  0.0397 -0.0317 -0.1272
12794TIP3    H159873   2.439   0.114  13.277 -0.4941  1.5400 -0.1821
12794TIP3    H259874   2.413   0.014  13.166  0.9166 -0.4664  1.2274
12795TIP3   OH259875   3.597   5.804  16.227 -0.1878  0.0824  0.5038
12795TIP3    H159876   3.584   5.709  16.219  0.2068  0.0610  0.0505
12795TIP3    H259877   3.639   5.829  16.145 -2.4024  1.0530 -0.4197
12796TIP3   OH259878   3.676   0.416   0.236  0.1391  0.0447 -0.1594
12796TIP3    H159879   3.767   0.392   0.255 -0.0189 -1.1827 -0.8861
12796TIP3    H259880   3.665   0.397   0.143  0.1910  3.6605 -1.0411
12797TIP3   OH259881   3.911   4.412   3.380 -0.6140  0.4520 -0.1325
12797TIP3    H159882   3.919   4.372   3.293 -0.0803 -0.8545  0.4927
12797TIP3    H259883   3.824   4.451   3.379 -1.7646 -1.8890 -0.3677
12798TIP3   OH259884   3.220   5.909   4.245  0.1481 -0.1278 -0.2929
12798TIP3    H159885   3.167   5.829   4.250  3.4538 -2.4495  1.1871
12798TIP3    H259886   3.240   5.920   4.152  1.2249 -2.2595 -0.3666
12799TIP3   OH259887   6.576   1.026   2.605 -0.3601  0.1640 -0.6580
12799TIP3    H159888   6.657   1.018   2.555 -1.2852  0.4221 -2.3191
12799TIP3    H259889   6.538   0.938   2.603  0.5887 -0.3549  1.5112
12800TIP3   OH259890   2.207   1.207   6.610 -0.0573 -0.3904 -0.1970
12800TIP3    H159891   2.235   1.157   6.686  0.8216 -0.3510 -0.4867
12800TIP3    H259892   2.259   1.287   6.612  0.8669 -0.9233 -1.4914
12801TIP3   OH259893   3.352   4.221   2.523  0.1241 -0.5401 -0.1273
12801TIP3    H159894   3.311   4.307   2.519 -0.3010 -0.6262  1.5310
12801TIP3    H259895   3.418   4.222   2.454 -2.0370 -0.0842 -2.3214
12802TIP3   OH259896   5.115   5.117   1.484  0.5025 -0.3528  0.2893
12802TIP3    H159897   5.106   5.156   1.571  0.7240  0.2314  0.0547
12802TIP3    H259898   5.137   5.190   1.427  0.1735 -0.6982 -0.2962
12803TIP3   OH259899   3.720   1.358   3.450 -0.2872 -0.2663  0.0413
12803TIP3    H159900   3.781   1.288   3.428 -0.9084 -0.7417 -0.1867
12803TIP3    H259901   3.753   1.393   3.533  2.2124  1.6777 -1.5974
12804TIP3   OH259902   1.342   4.403   4.536 -0.6900 -0.6726 -0.4740
12804TIP3    H159903   1.425   4.372   4.501 -0.9803 -1.2993 -0.6343
12804TIP3    H259904   1.276   4.346   4.495 -1.0483 -1.3877  1.0228
12805TIP3   OH259905   0.911   3.694   5.306 -0.5140 -0.2381  0.0965
12805TIP3    H159906   0.874   3.753   5.372 -0.3397 -0.5874  0.5103
12805TIP3    H259907   1.004   3.715   5.305 -0.6051  0.1438 -0.4305
12806TIP3   OH259908   6.371   4.871  12.512 -0.2005 -0.1374 -0.0936
12806TIP3    H159909   6.457   4.832  12.528 -0.1116  0.6082  1.3993
12806TIP3    H259910   6.390   4.949  12.461  0.0266  0.0297  0.2360
12807TIP3   OH259911   4.765   1.972  16.740  0.1732  0.3912  0.9144
12807TIP3    H159912   4.708   1.985  16.816 -1.0284  0.5297  0.0221
12807TIP3    H259913   4.720   1.906  16.687 -1.2785  3.2541 -1.7315
12808TIP3   OH259914   5.466   3.522   3.451 -0.5681  0.1216  0.1624
12808TIP3    H159915   5.414   3.557   3.379 -0.0117 -0.1645 -0.3945
12808TIP3    H259916   5.409   3.460   3.495 -0.0867 -1.7395 -1.6889
12809TIP3   OH259917   4.892   2.855  15.993  0.8104 -0.4320 -0.1357
12809TIP3    H159918   4.836   2.805  15.934  1.1702 -1.0923  0.0686
12809TIP3    H259919   4.895   2.943  15.956  0.3375 -0.6201 -0.6191
12810TIP3   OH259920   4.655   4.112   5.533 -0.2551  0.5644 -0.1297
12810TIP3    H159921   4.610   4.197   5.533  0.4821  0.9892 -1.8450
12810TIP3    H259922   4.621   4.067   5.456  1.1021  0.2770 -0.5769
12811TIP3   OH259923   1.117   0.839  13.915  0.1270 -0.1477  1.0152
12811TIP3    H159924   1.113   0.862  14.007 -0.5090  0.0498  0.9397
12811TIP3    H259925   1.089   0.918  13.869  1.0550 -0.0383  0.6240
12812TIP3   OH259926   4.649   5.426  13.165 -0.1564 -0.4648 -0.0020
12812TIP3    H159927   4.567   5.376  13.165 -0.6231  0.0800 -3.0695
12812TIP3    H259928   4.621   5.517  13.171  0.2595 -0.3069 -0.3923
12813TIP3   OH259929   4.782   1.041   5.743  0.1464 -0.3777  0.1715
12813TIP3    H159930   4.695   1.011   5.769  0.5841 -0.5169  1.5629
12813TIP3    H259931   4.831   1.046   5.825  2.0805 -2.2786 -0.7920
12814TIP3   OH259932   5.128   5.087   3.139 -0.1886  0.2286 -0.0286
12814TIP3    H159933   5.159   5.065   3.227  1.8366 -1.5554 -1.0932
12814TIP3    H259934   5.179   5.164   3.114 -1.0301  0.9615  0.4633
12815TIP3   OH259935   4.165   0.195   5.032 -0.6353 -0.9405  0.0965
12815TIP3    H159936   4.196   0.105   5.016  0.0944 -1.0437  1.7894
12815TIP3    H259937   4.153   0.199   5.127  0.8991  1.2193  0.2762
12816TIP3   OH259938   1.917   1.125  13.626  0.1548  0.5117 -0.0296
12816TIP3    H159939   1.884   1.100  13.713 -0.5007 -0.4948 -0.5528
12816TIP3    H259940   2.011   1.137  13.639  0.0127  0.7116  0.8927
12817TIP3   OH259941   5.314   2.832   6.406 -0.3286 -0.8884  0.6567
12817TIP3    H159942   5.394   2.826   6.353 -1.5964 -0.1276 -1.4315
12817TIP3    H259943   5.270   2.911   6.375 -2.6222 -2.0643  0.7332
12818TIP3   OH259944   1.244   6.061  14.444 -0.4387 -0.6326 -0.3232
12818TIP3    H159945   1.269   6.069  14.536 -1.4767 -0.6282 -0.0272
12818TIP3    H259946   1.288   6.134  14.401 -2.6385  1.5021  0.7825
12819TIP3   OH259947   5.880   2.078  16.937 -0.2076 -0.6023 -0.2644
12819TIP3    H159948   5.870   2.132  17.015  1.3683  0.7057 -0.9185
12819TIP3    H259949   5.791   2.062  16.907 -0.7532  0.4715  0.7172
12820TIP3   OH259950   0.668   3.307   4.604 -0.2702  0.3340 -0.5938
12820TIP3    H159951   0.620   3.225   4.618 -0.1545  0.5266  1.1507
12820TIP3    H259952   0.626   3.346   4.528 -1.7311 -0.3444 -0.1835
12821TIP3   OH259953   6.138   4.502  12.717 -0.0451  0.0520 -0.1264
12821TIP3    H159954   6.232   4.509  12.699 -0.0037 -1.9920 -0.8913
12821TIP3    H259955   6.134   4.453  12.800 -0.4468  0.0461 -0.1506
12822TIP3   OH259956   0.472   3.863  11.808 -0.0075  0.0055 -0.3627
12822TIP3    H159957   0.440   3.810  11.881 -2.0966 -0.5500 -1.5837
12822TIP3    H259958   0.462   3.806  11.732 -0.7070  1.5539 -1.4774
12823TIP3   OH259959   5.548   3.756   3.304  0.0623  0.2329  0.0175
12823TIP3    H159960   5.561   3.697   3.378  1.3753  0.9895  0.4122
12823TIP3    H259961   5.457   3.740   3.277  0.1405 -1.3991  0.5908
12824TIP3   OH259962   0.750   1.489   3.753  0.3350  0.1353 -0.1600
12824TIP3    H159963   0.831   1.535   3.731  0.8173 -0.4516  0.3299
12824TIP3    H259964   0.705   1.547   3.815  1.0615 -0.1452  0.6597
12825TIP3   OH259965   1.699   6.434  12.922 -0.1145 -0.0188 -0.2332
12825TIP3    H159966   1.750   6.372  12.974 -1.2775 -0.1517  0.7752
12825TIP3    H259967   1.700   6.397  12.833 -0.4336 -1.2741  0.2701
12826TIP3   OH259968   4.551   3.480  11.351 -0.6140 -0.2231 -0.0720
12826TIP3    H159969   4.623   3.443  11.403 -0.9101  1.0527  1.3011
12826TIP3    H259970   4.581   3.472  11.261  0.7106 -0.8481  0.3870
12827TIP3   OH259971   3.818   1.104   0.227  0.2429  0.0901  0.0357
12827TIP3    H159972   3.744   1.044   0.231  0.9243 -0.7504  0.2651
12827TIP3    H259973   3.788   1.175   0.171 -0.5338 -0.5251 -0.3445
12828TIP3   OH259974   4.329   2.406  14.970  0.5447  0.1055  0.2747
12828TIP3    H159975   4.277   2.383  14.893  1.2317 -0.3182 -0.0801
12828TIP3    H259976   4.391   2.471  14.938  1.7689 -1.0949  0.1005
12829TIP3   OH259977   3.671   3.656   2.924 -0.3191  0.3586 -1.0916
12829TIP3    H159978   3.707   3.596   2.989 -1.0649 -1.1152 -1.9888
12829TIP3    H259979   3.578   3.665   2.948 -0.2832  0.9072 -1.1461
12830TIP3   OH259980   1.694   4.621   1.499 -0.0730  0.6539 -0.0209
12830TIP3    H159981   1.614   4.648   1.543  0.2090 -0.2680  1.1171
12830TIP3    H259982   1.750   4.588   1.569  0.6831 -0.1870 -0.9883
12831TIP3   OH259983   4.856   4.966  12.751  0.5182 -0.3809 -0.0223
12831TIP3    H159984   4.878   4.875  12.771  2.6440  0.2712  0.9750
12831TIP3    H259985   4.939   5.013  12.762 -1.1192  2.1975  2.7554
12832TIP3   OH259986   0.875   6.254   6.234  0.2830  0.0914 -0.3122
12832TIP3    H159987   0.785   6.287   6.239  0.1980  0.1098 -1.6849
12832TIP3    H259988   0.898   6.234   6.325 -1.3117 -0.4813 -0.0018
12833TIP3   OH259989   5.626   1.744   4.545 -0.0125 -0.4606  0.8863
12833TIP3    H159990   5.705   1.745   4.598  0.0175 -1.8767  0.8861
12833TIP3    H259991   5.559   1.783   4.601  0.3460 -0.6159  1.4264
12834TIP3   OH259992   3.967   0.779   1.419  0.0197  0.0013  0.4276
12834TIP3    H159993   3.873   0.778   1.406 -0.0555  1.7669  0.5357
12834TIP3    H259994   3.988   0.693   1.455 -1.4059 -0.7421 -0.4452
12835TIP3   OH259995   4.212   6.345  13.980 -0.0819  0.1133  0.5420
12835TIP3    H159996   4.256   6.261  13.964  1.1341  0.4874  1.7213
12835TIP3    H259997   4.126   6.320  14.014 -0.3931 -0.6388 -0.7523
12836TIP3   OH259998   4.514   4.687   3.231  0.2256  0.3847  0.7944
12836TIP3    H159999   4.456   4.755   3.267 -0.2306  1.4945 -1.8317
12836TIP3    H260000   4.454   4.620   3.198  0.6122 -0.3248  1.5066
12837TIP3   OH260001   0.821   0.028  16.302  0.2902 -0.3510 -0.1024
12837TIP3    H160002   0.870   0.023  16.384  0.6819  0.6686 -0.2536
12837TIP3    H260003   0.886   0.013  16.234  0.0715 -0.6464 -0.2471
12838TIP3   OH260004   0.493   4.328   1.367 -0.3617 -0.1112 -0.7971
12838TIP3    H160005   0.428   4.330   1.297  0.5438 -0.2981 -1.6574
12838TIP3    H260006   0.577   4.324   1.322  0.2578  0.1711  0.2994
12839TIP3   OH260007   0.403   3.417  12.313  0.2321  0.5463  0.3843
12839TIP3    H160008   0.368   3.479  12.377 -0.2073  1.0056 -0.2768
12839TIP3    H260009   0.373   3.332  12.342  0.3400  0.7093  0.9823
12840TIP3   OH260010   2.687   0.893   0.470 -0.3160  0.4988 -0.3487
12840TIP3    H160011   2.716   0.808   0.439  1.0679  0.8730 -0.1479
12840TIP3    H260012   2.743   0.912   0.545 -0.4349  1.7004 -0.5394
12841TIP3   OH260013   6.422   1.662   2.962 -0.0471  0.0342 -0.2986
12841TIP3    H160014   6.375   1.722   2.905 -0.0868  0.4765  0.1992
12841TIP3    H260015   6.504   1.644   2.915 -0.4635 -0.3146 -0.9107
12842TIP3   OH260016   5.913   4.922  10.678 -0.3610  0.5708  0.1238
12842TIP3    H160017   5.990   4.976  10.660  0.0254  0.9666  2.6027
12842TIP3    H260018   5.862   4.924  10.596  0.1248  3.8592 -0.2021
12843TIP3   OH260019   5.121   5.144  15.739  0.2525 -0.3759  0.3654
12843TIP3    H160020   5.206   5.185  15.722 -1.6507  3.1150 -2.1007
12843TIP3    H260021   5.083   5.197  15.810 -1.0356  0.2240 -0.7291
12844TIP3   OH260022   4.502   0.984   5.852  0.4186 -0.6409 -0.1698
12844TIP3    H160023   4.542   1.001   5.937  0.9327 -1.6431 -0.2099
12844TIP3    H260024   4.427   0.927   5.871 -0.4292  0.4076 -0.2178
12845TIP3   OH260025   2.220   0.508  11.921 -0.1427 -0.0170  0.0244
12845TIP3    H160026   2.203   0.562  11.844  2.3719  0.4018 -0.3111
12845TIP3    H260027   2.180   0.423  11.900  0.3143  0.1561 -1.6719
12846TIP3   OH260028   4.627   5.417  12.554 -0.7608  0.1554  0.2363
12846TIP3    H160029   4.604   5.350  12.490  0.2149 -0.2024  0.2459
12846TIP3    H260030   4.664   5.369  12.628 -1.7924  0.5712  1.0480
12847TIP3   OH260031   5.959   2.239  16.737  0.2675 -0.0332  0.7015
12847TIP3    H160032   5.921   2.199  16.815  0.8319 -0.2339  0.8802
12847TIP3    H260033   5.896   2.222  16.668 -0.1358 -0.0455  1.0680
12848TIP3   OH260034   2.583   1.671  15.586  0.5870  0.6379 -0.3756
12848TIP3    H160035   2.620   1.697  15.502  0.5120  0.0595 -0.5972
12848TIP3    H260036   2.622   1.585  15.603  0.0639  0.4425 -0.1577
12849TIP3   OH260037   4.352   4.672   1.237  0.0165 -0.3035  0.1478
12849TIP3    H160038   4.402   4.753   1.248  1.1870 -0.5008 -2.7182
12849TIP3    H260039   4.261   4.701   1.232  0.3813  0.8444 -0.4579
12850TIP3   OH260040   1.613   0.990  14.827  0.0046 -0.3197 -0.2427
12850TIP3    H160041   1.574   0.934  14.895 -0.0501  1.7080  1.4718
12850TIP3    H260042   1.707   0.986  14.843  0.0599 -0.4784 -0.5909
12851TIP3   OH260043   2.243   1.307  14.262 -0.1216 -0.1913  0.2242
12851TIP3    H160044   2.217   1.258  14.340 -1.0722 -1.5822 -0.9286
12851TIP3    H260045   2.223   1.398  14.283 -1.8711 -0.7243  1.0273
12852TIP3   OH260046   2.837   2.920   4.726  0.9155 -0.3587 -0.0440
12852TIP3    H160047   2.885   2.921   4.643  1.2156  1.3284  0.1024
12852TIP3    H260048   2.884   2.983   4.781 -1.4491  1.4329  0.0914
12853TIP3   OH260049   3.107   1.900  15.920  0.0782  0.5847  0.0446
12853TIP3    H160050   3.123   1.955  15.997  1.3175 -0.8999  0.8970
12853TIP3    H260051   3.069   1.820  15.954  1.2679 -0.3678 -0.7916
12854TIP3   OH260052   5.279   5.164   5.068  0.4888 -0.3670 -0.6077
12854TIP3    H160053   5.268   5.117   5.151 -1.2604 -0.1101 -0.6499
12854TIP3    H260054   5.312   5.251   5.094  0.2268 -0.3843 -0.2050
12855TIP3   OH260055   6.767   4.341  15.108  0.0355 -0.2841 -0.2893
12855TIP3    H160056   6.776   4.322  15.202  1.3881  1.6333  0.0519
12855TIP3    H260057   6.854   4.323  15.072 -0.6594 -1.6609 -1.3441
12856TIP3   OH260058   0.322   5.460  11.967  0.1737  0.3016  0.0969
12856TIP3    H160059   0.230   5.479  11.983 -0.2068 -0.1075 -1.4116
12856TIP3    H260060   0.330   5.365  11.974  0.9916  0.4838  2.4720
12857TIP3   OH260061   4.380   6.303  12.729  0.0377 -0.8753 -0.0537
12857TIP3    H160062   4.460   6.271  12.687  0.7759  0.9424 -0.1288
12857TIP3    H260063   4.335   6.352  12.661  0.4578  0.7622  0.7857
12858TIP3   OH260064   1.421   3.616   6.017 -0.4537 -0.4306 -0.2629
12858TIP3    H160065   1.406   3.524   6.035 -0.3399 -0.2079  1.0600
12858TIP3    H260066   1.362   3.662   6.076  1.6799  0.3834  1.3511
12859TIP3   OH260067   3.329   2.566  11.603 -0.2590  0.3620  0.7561
12859TIP3    H160068   3.329   2.522  11.688  0.2007 -0.4979  0.3278
12859TIP3    H260069   3.329   2.494  11.539  0.2860  0.9814  0.0368
12860TIP3   OH260070   5.633   4.798   3.387  0.4245 -0.0867  0.2142
12860TIP3    H160071   5.553   4.850   3.381  1.0561  0.8434 -0.4272
12860TIP3    H260072   5.668   4.817   3.474  0.9618  1.0723 -0.2271
12861TIP3   OH260073   0.180   3.751  15.484 -0.3207  0.2814 -0.1880
12861TIP3    H160074   0.240   3.690  15.440  0.5109  1.2485 -0.4166
12861TIP3    H260075   0.237   3.818  15.521 -1.0604 -0.0308  1.6582
12862TIP3   OH260076   1.847   6.218  13.421 -0.0083 -0.5235 -0.1078
12862TIP3    H160077   1.845   6.247  13.512  0.8728 -0.8635  0.0404
12862TIP3    H260078   1.899   6.137  13.424  0.9195  0.0121 -1.0479
12863TIP3   OH260079   1.724   3.173   0.849 -0.2139  0.1117 -0.2345
12863TIP3    H160080   1.652   3.115   0.824 -1.1655  1.9243 -1.9657
12863TIP3    H260081   1.801   3.116   0.849 -1.1733 -1.2695 -1.3099
12864TIP3   OH260082   2.349   4.759  13.625 -0.2944  0.4147 -0.5660
12864TIP3    H160083   2.408   4.794  13.558  0.0935  0.3880 -0.2412
12864TIP3    H260084   2.284   4.829  13.638  0.6887  1.1917  0.3440
12865TIP3   OH260085   1.856   2.544   1.377  0.0569 -0.0125  0.0587
12865TIP3    H160086   1.794   2.604   1.419  0.1263  0.5781 -0.6724
12865TIP3    H260087   1.801   2.475   1.340 -0.0807 -0.0184  0.2738
12866TIP3   OH260088   3.427   1.227   5.866  0.0841 -0.6096 -0.1763
12866TIP3    H160089   3.501   1.281   5.837  1.3221 -1.6308  0.9624
12866TIP3    H260090   3.467   1.150   5.906 -1.5952 -1.0363  0.7967
12867TIP3   OH260091   1.084   5.942   3.052 -0.1072  0.0399 -0.0782
12867TIP3    H160092   1.087   5.979   2.963 -0.4449 -1.3271 -0.6921
12867TIP3    H260093   1.150   5.872   3.050 -1.7401 -1.5817 -0.0411
12868TIP3   OH260094   6.187   0.027  13.375  0.2556  0.1222  0.7612
12868TIP3    H160095   6.172   0.034  13.280 -0.4728  0.4729  0.8915
12868TIP3    H260096   6.272  -0.015  13.383  0.6003  0.6349 -0.0544
12869TIP3   OH260097   4.251   6.803   4.603 -0.1633  0.3892  0.1721
12869TIP3    H160098   4.181   6.798   4.538 -1.0066 -1.2455  1.1555
12869TIP3    H260099   4.323   6.845   4.557 -0.0626 -2.3686 -2.4783
12870TIP3   OH260100   5.194   4.560   3.270 -0.5240  0.1627  0.0281
12870TIP3    H160101   5.188   4.557   3.174  0.6647  0.4647 -0.0651
12870TIP3    H260102   5.250   4.635   3.288 -0.7123  0.0872  0.9684
12871TIP3   OH260103   6.077   0.219   1.495  0.0942 -0.3681 -0.3944
12871TIP3    H160104   6.121   0.223   1.580 -1.0453  0.4095  0.1834
12871TIP3    H260105   5.983   0.225   1.516 -0.2697 -1.2673 -1.6313
12872TIP3   OH260106   6.810   1.993   3.245  0.1646  0.7278 -0.3103
12872TIP3    H160107   6.898   2.030   3.240  0.7381 -0.5127  0.1617
12872TIP3    H260108   6.811   1.922   3.180 -1.1893  2.0145 -1.8329
12873TIP3   OH260109   6.616   5.034  15.369  0.1518 -0.0347  0.0324
12873TIP3    H160110   6.528   5.064  15.349 -0.0838 -0.7560 -0.0390
12873TIP3    H260111   6.673   5.104  15.338 -0.3156 -0.2425 -1.3749
12874TIP3   OH260112   6.204   6.283  13.885 -0.5278 -0.1467 -0.1965
12874TIP3    H160113   6.266   6.213  13.866 -0.7296 -0.0970 -1.0332
12874TIP3    H260114   6.238   6.322  13.966 -1.2295 -2.1333  1.1452
12875TIP3   OH260115   5.710   2.802  15.000  0.1599  0.5477 -0.0778
12875TIP3    H160116   5.683   2.710  15.007 -0.1443  0.7451  2.0990
12875TIP3    H260117   5.720   2.817  14.906  0.6124 -1.8229 -0.4840
12876TIP3   OH260118   2.453   2.580  13.261 -0.3943  0.5225  0.0243
12876TIP3    H160119   2.505   2.539  13.330  0.2372  2.4827  0.7677
12876TIP3    H260120   2.518   2.624  13.205 -1.0411  0.4762 -0.7761
12877TIP3   OH260121   6.211   0.598   0.014  0.4849  0.2497 -0.1034
12877TIP3    H160122   6.274   0.554   0.072  0.5672 -1.6692 -1.5313
12877TIP3    H260123   6.244   0.581  -0.074 -1.1644  0.6017 -0.8295
12878TIP3   OH260124   4.027   1.868  16.828 -0.2262 -0.1051 -0.0507
12878TIP3    H160125   3.947   1.850  16.876 -0.4402  2.2188  0.5859
12878TIP3    H260126   4.092   1.885  16.896  0.3135 -0.0419 -0.5725
12879TIP3   OH260127   5.436   3.684   0.600 -0.2096  0.2249  0.2321
12879TIP3    H160128   5.421   3.694   0.694 -0.5526 -0.1787  0.2252
12879TIP3    H260129   5.520   3.640   0.593  0.8261  2.0999  0.2893
12880TIP3   OH260130   6.751   4.948  15.638 -0.3373 -0.2804  0.3811
12880TIP3    H160131   6.760   5.002  15.560  0.0161  1.7969  1.7948
12880TIP3    H260132   6.664   4.909  15.630 -0.0809 -0.5968 -1.2985
12881TIP3   OH260133   3.500   3.949  17.120 -0.0726 -0.1254 -0.6051
12881TIP3    H160134   3.481   3.997  17.201 -1.0345 -1.3225 -0.0758
12881TIP3    H260135   3.544   3.869  17.149  0.4819 -0.1059 -1.3619
12882TIP3   OH260136   4.221   4.968  14.731  0.0913  0.3808  0.0836
12882TIP3    H160137   4.187   5.052  14.698  0.7239  0.3974 -0.5623
12882TIP3    H260138   4.239   4.984  14.824  0.7790  1.1564 -0.1708
12883TIP3   OH260139   1.079   3.863  13.722 -0.6631  0.7865 -0.0086
12883TIP3    H160140   1.051   3.883  13.633 -0.5743 -0.4047 -0.3235
12883TIP3    H260141   1.166   3.902  13.728  0.7878 -1.8456 -1.6197
12884TIP3   OH260142   1.843   6.369  16.376 -0.4117  0.3045  0.0072
12884TIP3    H160143   1.917   6.410  16.420 -0.5408  1.7164 -1.0351
12884TIP3    H260144   1.868   6.277  16.367  0.8598  0.6022  0.3762
12885TIP3   OH260145   2.050   4.597  16.294  0.5423  0.3520  0.1191
12885TIP3    H160146   2.056   4.550  16.210 -1.7392  0.4048 -0.1413
12885TIP3    H260147   2.141   4.616  16.317  1.2283  0.7753 -2.5831
12886TIP3   OH260148   3.591   1.057  16.392  0.0468 -0.2926 -0.3076
12886TIP3    H160149   3.672   1.096  16.425  0.6222  0.1271 -2.1117
12886TIP3    H260150   3.611   0.964  16.383 -0.1367 -0.4229  0.5371
12887TIP3   OH260151   2.143   5.951   0.743  0.4869  0.4405 -0.6447
12887TIP3    H160152   2.128   5.875   0.687 -0.1393 -0.5003  0.7488
12887TIP3    H260153   2.222   5.992   0.707  2.1165 -2.0801 -0.1724
12888TIP3   OH260154   2.366   5.647   5.044 -0.1027  0.4818  0.2315
12888TIP3    H160155   2.341   5.683   4.959 -0.3508  0.2777  0.2185
12888TIP3    H260156   2.284   5.639   5.093 -0.1227 -0.5205  0.0596
12889TIP3   OH260157   5.360   3.470  13.066 -0.0582  0.0064  0.5609
12889TIP3    H160158   5.365   3.378  13.091 -0.9651 -0.0818  0.4424
12889TIP3    H260159   5.273   3.499  13.094  0.2268  0.8402  0.6343
12890TIP3   OH260160   3.495   4.909   1.600  0.4534  0.0408  0.5587
12890TIP3    H160161   3.534   4.955   1.674  0.7487  0.1498  0.3317
12890TIP3    H260162   3.566   4.895   1.538  0.0933  0.4348  0.0475
12891TIP3   OH260163   4.008   5.768   4.114 -0.2224  0.2918 -0.2180
12891TIP3    H160164   4.024   5.850   4.067 -0.5148  0.4371 -0.0667
12891TIP3    H260165   3.919   5.743   4.089 -0.9071  1.0870  1.3043
12892TIP3   OH260166   1.124   0.640  12.839 -0.6261 -0.1263 -0.2335
12892TIP3    H160167   1.202   0.694  12.837 -0.0212 -0.9788 -0.3155
12892TIP3    H260168   1.064   0.681  12.776  0.0674  0.0731 -0.7727
12893TIP3   OH260169   1.551   4.349  11.490  0.4239  0.1248 -0.8114
12893TIP3    H160170   1.465   4.329  11.527  0.9212  0.0279  0.3324
12893TIP3    H260171   1.612   4.292  11.538  1.4262  1.8925  0.1477
12894TIP3   OH260172   2.018   6.320  13.035 -0.8798  0.3138  0.3078
12894TIP3    H160173   1.963   6.244  13.055  1.9061 -1.9291  0.2600
12894TIP3    H260174   2.042   6.308  12.943  0.1027  0.8678  0.4779
12895TIP3   OH260175   4.578   5.066   3.794 -0.0438  0.4791 -0.5852
12895TIP3    H160176   4.513   5.115   3.844  0.0811  0.4557 -0.3952
12895TIP3    H260177   4.654   5.125   3.791  0.6059 -0.2337  0.8405
12896TIP3   OH260178   6.271   4.070   5.478  0.0737  0.2472 -0.1221
12896TIP3    H160179   6.184   4.108   5.477  0.1380  0.4673  0.9304
12896TIP3    H260180   6.314   4.105   5.401  0.4492  3.1355  1.2703
12897TIP3   OH260181   5.361   5.278   0.234  0.3918  0.0804 -0.0368
12897TIP3    H160182   5.410   5.256   0.155 -1.9260  1.6451 -2.0677
12897TIP3    H260183   5.326   5.365   0.217 -1.4005 -0.1223  2.1242
12898TIP3   OH260184   2.011   3.306  13.205 -0.0421 -0.0997 -0.2009
12898TIP3    H160185   1.995   3.211  13.200  1.6004 -0.4781  0.8568
12898TIP3    H260186   1.928   3.342  13.236 -0.4111 -1.3419  0.3398
12899TIP3   OH260187   6.550   2.164  16.365 -0.7497 -0.0148 -0.4684
12899TIP3    H160188   6.522   2.248  16.401  0.1343  0.3664 -0.6671
12899TIP3    H260189   6.517   2.165  16.275 -3.7691 -1.3464  0.4641
12900TIP3   OH260190   1.374   1.107  13.852 -0.2186  0.3454  0.4187
12900TIP3    H160191   1.328   1.141  13.929 -0.6428 -0.2177  0.4263
12900TIP3    H260192   1.456   1.072  13.886 -1.2123 -1.6166  0.9440
12901TIP3   OH260193   0.515   5.180   2.750 -0.1776 -0.0236  0.1042
12901TIP3    H160194   0.606   5.156   2.770 -0.5218 -0.0634  1.8038
12901TIP3    H260195   0.506   5.270   2.783 -0.2657  0.6899 -1.7573
12902TIP3   OH260196   3.278   6.207  14.648  0.1597  0.0181  0.5046
12902TIP3    H160197   3.276   6.288  14.597 -2.9491  0.2918  0.8707
12902TIP3    H260198   3.289   6.137  14.583  2.1471  0.6220  0.1258
12903TIP3   OH260199   2.443   2.178  11.571 -0.2154  0.1872 -0.3759
12903TIP3    H160200   2.492   2.216  11.499 -0.6997  3.0036  0.6381
12903TIP3    H260201   2.478   2.220  11.649 -0.4466 -1.9503  0.9577
12904TIP3   OH260202   1.115   0.252   5.662  0.4545  0.3392  0.0076
12904TIP3    H160203   1.159   0.252   5.577  1.2936 -1.0581  0.4050
12904TIP3    H260204   1.166   0.191   5.715 -1.4370 -0.6494  0.7923
12905TIP3   OH260205   1.074   4.044  13.511 -0.2417 -0.1797 -0.2682
12905TIP3    H160206   1.028   4.128  13.507  0.3334  0.1594  0.2066
12905TIP3    H260207   1.143   4.051  13.446 -0.2905 -0.3471 -0.3384
12906TIP3   OH260208   6.210   0.434  13.129  0.1305  0.1656  0.0838
12906TIP3    H160209   6.155   0.389  13.064  0.1761  0.4592 -0.1591
12906TIP3    H260210   6.291   0.452  13.082  0.0790  0.5833  0.1552
12907TIP3   OH260211   0.053   0.463   1.965 -0.4140  0.3383  0.5770
12907TIP3    H160212   0.137   0.463   1.920 -0.5858  0.7438  0.2483
12907TIP3    H260213   0.061   0.395   2.031 -0.4565 -0.8684 -0.6211
12908TIP3   OH260214   3.771   0.251   1.204 -0.1081  0.1909 -0.1994
12908TIP3    H160215   3.698   0.313   1.200  0.8287  1.3667  0.3056
12908TIP3    H260216   3.773   0.222   1.295  0.7938  1.1074  0.0873
12909TIP3   OH260217   1.827   5.866  16.841  0.2654  0.5311 -0.0018
12909TIP3    H160218   1.877   5.815  16.777 -3.5522  0.6026 -3.4299
12909TIP3    H260219   1.821   5.808  16.917  0.2260 -2.1407 -1.8735
12910TIP3   OH260220   5.893   1.565   4.280  0.0268  0.0319 -0.2688
12910TIP3    H160221   5.976   1.549   4.234 -0.1222 -0.5112 -0.3616
12910TIP3    H260222   5.870   1.654   4.257  0.9758  0.4608  0.3846
12911TIP3   OH260223   2.290   3.643  13.580 -0.3846 -0.4921  0.3611
12911TIP3    H160224   2.231   3.612  13.511 -0.1872 -0.5191  0.2053
12911TIP3    H260225   2.246   3.721  13.615  0.0540  0.1767 -0.5450
12912TIP3   OH260226   0.921   4.978   1.677 -0.7932  0.5260 -0.5847
12912TIP3    H160227   0.983   5.044   1.706  1.5720 -1.6675 -0.2810
12912TIP3    H260228   0.914   4.990   1.583 -0.9950  1.6227 -0.4462
12913TIP3   OH260229   4.429   2.336   4.753 -0.4426 -0.0549 -0.3558
12913TIP3    H160230   4.342   2.341   4.715 -0.2128 -1.0774 -1.0345
12913TIP3    H260231   4.489   2.350   4.679 -0.0121 -0.7755 -0.1477
12914TIP3   OH260232   6.254   2.809  17.079  0.6217 -0.7674  0.1606
12914TIP3    H160233   6.263   2.723  17.119 -0.2251 -1.0611 -0.2653
12914TIP3    H260234   6.186   2.798  17.013  0.7015  0.1596 -0.0895
12915TIP3   OH260235   0.037   5.272  16.520 -0.0214  0.4503 -0.0203
12915TIP3    H160236   0.061   5.189  16.561 -0.3730  1.5288  2.5447
12915TIP3    H260237   0.066   5.263  16.429 -0.8218 -2.7727 -0.0730
12916TIP3   OH260238   3.791   2.483   2.205 -0.0096  0.3051 -0.1670
12916TIP3    H160239   3.829   2.451   2.123  2.5397  0.1325  0.9950
12916TIP3    H260240   3.852   2.551   2.235 -0.1718 -0.4850  2.1801
12917TIP3   OH260241   2.265   0.295  13.059 -0.2196 -0.3383 -0.1854
12917TIP3    H160242   2.235   0.269  12.972  1.0173 -1.2709 -0.3552
12917TIP3    H260243   2.303   0.216  13.096 -0.2532  0.1805  1.0111
12918TIP3   OH260244   2.515   2.941  13.746  0.2046  0.0075  0.0725
12918TIP3    H160245   2.578   2.974  13.811  0.8300 -0.2263 -0.4072
12918TIP3    H260246   2.430   2.970  13.779  0.5744  0.4653  0.6511
12919TIP3   OH260247   1.874   0.128   4.319 -0.9291 -0.2718  0.3584
12919TIP3    H160248   1.887   0.217   4.287 -0.0261 -0.2088  0.8693
12919TIP3    H260249   1.913   0.072   4.251 -1.2189 -0.2739  0.1881
12920TIP3   OH260250   3.802   6.492   0.304 -0.4561  0.7067 -0.0488
12920TIP3    H160251   3.841   6.551   0.240  2.1752 -2.2878 -1.5203
12920TIP3    H260252   3.735   6.444   0.255 -1.2155  1.1139  0.5765
12921TIP3   OH260253   1.282   1.231  16.751 -0.0698 -0.6427 -0.2869
12921TIP3    H160254   1.312   1.322  16.760  0.6656 -0.7280 -1.6583
12921TIP3    H260255   1.250   1.226  16.661 -1.9647 -1.2331  0.3736
12922TIP3   OH260256   1.951   6.675   5.983 -0.0867  0.0758  0.5640
12922TIP3    H160257   1.937   6.600   6.041  1.0436  0.0451  0.8287
12922TIP3    H260258   1.880   6.669   5.919 -2.4973  1.1958  2.9703
12923TIP3   OH260259   2.935   5.129   4.807  0.2194  0.3866  0.3487
12923TIP3    H160260   2.884   5.204   4.777 -0.2028  0.3653  0.9728
12923TIP3    H260261   2.982   5.161   4.884 -0.8076 -0.2602  1.2799
12924TIP3   OH260262   0.934   1.234  12.268 -0.3816  0.7519 -0.1035
12924TIP3    H160263   0.943   1.177  12.345 -1.3214 -0.6020 -0.9595
12924TIP3    H260264   0.841   1.232  12.247 -0.7535  3.8071  0.6651
12925TIP3   OH260265   0.208   0.993  11.537  0.1324  0.1958  0.6784
12925TIP3    H160266   0.145   0.941  11.487  0.6517 -0.7986  1.0397
12925TIP3    H260267   0.210   0.952  11.623  1.5930 -0.0613  0.5414
12926TIP3   OH260268   2.336   2.389  12.091  0.0860 -0.3884 -0.1584
12926TIP3    H160269   2.297   2.463  12.137 -0.2781 -0.2538 -0.6879
12926TIP3    H260270   2.349   2.323  12.160  0.4111  0.1570  0.3112
12927TIP3   OH260271   6.712   4.046  16.882  0.1924  0.1420  0.5752
12927TIP3    H160272   6.715   4.126  16.933 -1.7622  0.7390 -0.1597
12927TIP3    H260273   6.788   4.052  16.824 -0.8839  2.4034 -0.7449
12928TIP3   OH260274   1.672   6.793  16.151 -0.2580 -0.6292 -0.1458
12928TIP3    H160275   1.658   6.731  16.222  0.3239 -0.7270 -0.1145
12928TIP3    H260276   1.702   6.740  16.077  0.7089 -0.3458  0.0225
12929TIP3   OH260277   3.652   2.011   5.600 -0.5000 -0.3475 -0.2538
12929TIP3    H160278   3.662   1.986   5.692 -0.5125 -1.9588 -0.6570
12929TIP3    H260279   3.660   2.107   5.600 -2.8672 -0.0628  1.7231
12930TIP3   OH260280   1.231   3.844   4.855  0.4277  0.8816 -0.1881
12930TIP3    H160281   1.308   3.793   4.832  0.4054  0.9122 -0.3326
12930TIP3    H260282   1.221   3.831   4.950 -0.8337 -1.1519 -0.5269
12931TIP3   OH260283   3.979   0.242  11.681  0.3987 -0.2548  0.5463
12931TIP3    H160284   4.074   0.247  11.682  0.3372  1.9139 -0.0724
12931TIP3    H260285   3.958   0.163  11.731  2.4723 -0.2997  1.4087
12932TIP3   OH260286   5.346   5.460  16.064 -0.4877  0.0482 -0.4936
12932TIP3    H160287   5.342   5.546  16.105  0.5098  0.2627 -0.8097
12932TIP3    H260288   5.364   5.399  16.136 -1.3444  0.0691 -0.2498
12933TIP3   OH260289   4.235   6.423   6.284 -0.5654 -0.6506  0.3976
12933TIP3    H160290   4.219   6.457   6.372  1.5388  1.6251  0.0058
12933TIP3    H260291   4.213   6.495   6.226  0.5557 -1.2193 -0.7715
12934TIP3   OH260292   3.729   2.518   5.384 -0.3873 -0.1835 -0.2477
12934TIP3    H160293   3.690   2.511   5.297 -1.6516 -0.2002  0.2864
12934TIP3    H260294   3.662   2.564   5.436  0.5152  0.1961  0.6038
12935TIP3   OH260295   6.387   0.313  13.384  0.0776 -0.3234  0.0222
12935TIP3    H160296   6.465   0.340  13.336 -1.3448  0.7155 -1.8742
12935TIP3    H260297   6.324   0.383  13.367 -0.8787 -0.4579  2.5950
12936TIP3   OH260298   1.259   0.701  11.050 -0.4665 -0.2879 -0.0664
12936TIP3    H160299   1.228   0.652  10.974 -1.0682  1.1038 -0.7697
12936TIP3    H260300   1.352   0.718  11.031 -0.7116  0.3990 -0.7088
12937TIP3   OH260301   5.536   6.115  14.371 -0.9677  0.0935  0.5320
12937TIP3    H160302   5.610   6.064  14.338 -1.8709 -2.4406  2.1828
12937TIP3    H260303   5.516   6.176  14.300  1.2672 -0.6414 -0.8452
12938TIP3   OH260304   3.810   6.496  14.729 -0.1430 -0.6276  0.3814
12938TIP3    H160305   3.896   6.522  14.695  0.0393 -0.7176  0.7657
12938TIP3    H260306   3.826   6.410  14.768 -0.7517 -1.3785 -0.9502
12939TIP3   OH260307   3.157   1.543  15.081 -0.0154  0.0641  0.2331
12939TIP3    H160308   3.087   1.516  15.140  0.9987 -0.3474  1.2949
12939TIP3    H260309   3.160   1.639  15.089 -0.4639  0.0869  0.1577
12940TIP3   OH260310   2.814   4.890   4.710  0.3262 -0.2919  0.2958
12940TIP3    H160311   2.867   4.968   4.726  0.9198 -0.5363 -0.4534
12940TIP3    H260312   2.746   4.893   4.778  1.0812  0.2072  1.0515
12941TIP3   OH260313   2.904   0.905  16.901  0.1946  0.1473 -0.3728
12941TIP3    H160314   2.885   0.829  16.955  1.6769 -0.9930 -1.3815
12941TIP3    H260315   2.844   0.898  16.827  0.1315  0.1199 -0.3189
12942TIP3   OH260316   1.238   1.480  11.323 -0.0840 -0.2311  0.6030
12942TIP3    H160317   1.201   1.524  11.399 -0.1814 -0.9673  0.9903
12942TIP3    H260318   1.274   1.551  11.269 -0.9021  0.3778  0.8407
12943TIP3   OH260319   6.722   2.932   2.234 -0.0508  0.3941  0.0302
12943TIP3    H160320   6.789   2.915   2.300 -0.4334 -0.9437  0.0930
12943TIP3    H260321   6.640   2.934   2.282  0.0641  5.4078  0.5381
12944TIP3   OH260322   0.848   6.680   2.201 -0.4466  0.0790  0.6299
12944TIP3    H160323   0.942   6.693   2.212 -0.5510  0.4212  1.1436
12944TIP3    H260324   0.808   6.722   2.278 -0.9273 -1.3749  1.2085
12945TIP3   OH260325   1.232   0.561  15.851  0.9694  0.0816  0.0327
12945TIP3    H160326   1.317   0.545  15.810  1.8318  1.6748  1.1226
12945TIP3    H260327   1.208   0.649  15.824  1.2728  0.9461  2.3941
12946TIP3   OH260328   2.332   1.964   4.935 -0.4263  0.2365 -0.2473
12946TIP3    H160329   2.419   1.988   4.965  0.1754 -0.5461 -1.2900
12946TIP3    H260330   2.288   2.047   4.917 -0.0678  0.6479  0.7192
12947TIP3   OH260331   6.168   3.106   4.085  0.3903  0.1842  0.2195
12947TIP3    H160332   6.187   3.192   4.121  1.8417  0.2414 -0.6068
12947TIP3    H260333   6.235   3.049   4.123 -1.4926 -0.9939  2.0369
12948TIP3   OH260334   1.007   6.096  14.307  0.1463 -0.0606 -0.4129
12948TIP3    H160335   1.090   6.081  14.352 -0.1477 -0.5753 -0.0306
12948TIP3    H260336   0.947   6.033  14.347 -0.3367  0.0684 -0.9324
12949TIP3   OH260337   4.257   0.563  13.427 -0.4542  0.1644 -0.2463
12949TIP3    H160338   4.237   0.507  13.502  0.4153  1.1066  0.7237
12949TIP3    H260339   4.267   0.502  13.353 -1.3399 -0.7784  0.3847
12950TIP3   OH260340   5.752   5.893  15.445 -0.0399 -0.3871 -0.3035
12950TIP3    H160341   5.657   5.894  15.459 -0.3405  0.2988 -2.1299
12950TIP3    H260342   5.780   5.806  15.474 -1.3021 -0.7947 -0.2606
12951TIP3   OH260343   2.736   3.215  11.236 -0.0179 -0.1258  0.1304
12951TIP3    H160344   2.776   3.258  11.312 -2.3837 -0.2670  1.5640
12951TIP3    H260345   2.696   3.286  11.186 -0.7596 -0.2582  0.5109
12952TIP3   OH260346   2.310   6.776  11.152  0.3544 -0.2775  0.5061
12952TIP3    H160347   2.265   6.731  11.224 -2.9394  2.3419  0.3369
12952TIP3    H260348   2.297   6.718  11.076  0.1248 -1.0834  1.1415
12953TIP3   OH260349   5.677   5.275   2.138 -0.6035  0.0148 -0.2809
12953TIP3    H160350   5.660   5.210   2.070  1.3475 -2.0309  1.0549
12953TIP3    H260351   5.769   5.299   2.125 -0.9489  1.6359  0.0166
12954TIP3   OH260352   3.354   4.598  14.632  0.2092  0.2774  0.4937
12954TIP3    H160353   3.431   4.627  14.582 -0.3401 -0.3706 -0.7922
12954TIP3    H260354   3.382   4.601  14.723  0.7567  3.0680  0.3263
12955TIP3   OH260355   1.989   1.701   2.193 -0.0122 -0.0049  0.3756
12955TIP3    H160356   2.073   1.672   2.228  0.6633  0.7874 -0.5349
12955TIP3    H260357   1.986   1.795   2.214 -0.9805 -0.1672  0.9991
12956TIP3   OH260358   6.277   1.083   3.422  0.5432  0.4275 -0.6599
12956TIP3    H160359   6.250   1.155   3.364  1.9201 -0.8175 -2.9914
12956TIP3    H260360   6.317   1.127   3.497 -1.6906  2.1187 -0.3325
12957TIP3   OH260361   1.719   3.504  15.881 -0.0872  0.3376 -0.0863
12957TIP3    H160362   1.633   3.463  15.878  0.2015 -0.3127  0.2470
12957TIP3    H260363   1.702   3.598  15.877 -0.8023  0.2087 -0.1174
12958TIP3   OH260364   0.627   2.722   5.700 -0.1030  0.5946  0.2334
12958TIP3    H160365   0.655   2.657   5.635  0.6048  1.8122 -0.7497
12958TIP3    H260366   0.548   2.685   5.739 -0.0779 -0.5651 -0.7330
12959TIP3   OH260367   3.157   4.235   5.007 -0.2033  0.3396 -0.2407
12959TIP3    H160368   3.193   4.323   4.990 -0.3532  0.2684 -0.9459
12959TIP3    H260369   3.174   4.186   4.927  0.2515 -0.4127  0.2937
12960TIP3   OH260370   5.372   5.692  16.630 -0.4942 -0.3253 -0.1882
12960TIP3    H160371   5.315   5.759  16.593 -0.8055  0.4136  1.5808
12960TIP3    H260372   5.344   5.682  16.720  2.5768  0.6065  1.0146
12961TIP3   OH260373   1.562   0.531  13.787  0.3595  0.0542  0.2862
12961TIP3    H160374   1.515   0.550  13.706 -2.3964  0.6665  1.9165
12961TIP3    H260375   1.619   0.607  13.800  0.1133  0.3955 -0.5655
12962TIP3   OH260376   1.729   0.300  12.600 -0.5307 -0.3930  0.3751
12962TIP3    H160377   1.720   0.226  12.540  0.2449 -0.0983 -0.1208
12962TIP3    H260378   1.643   0.341  12.601 -0.9946 -1.3493  0.7239
12963TIP3   OH260379   0.149   5.841   0.113 -0.1164  0.7210 -0.7442
12963TIP3    H160380   0.226   5.872   0.161  0.2526  1.0133 -1.5144
12963TIP3    H260381   0.077   5.894   0.147  0.3297  1.6889 -1.2723
12964TIP3   OH260382   0.208   0.218  14.134  0.0484  0.3611 -0.8020
12964TIP3    H160383   0.235   0.290  14.077  1.7636 -0.1938 -0.7434
12964TIP3    H260384   0.148   0.165  14.081 -1.4580  1.9157 -0.7641
12965TIP3   OH260385   3.101   3.299   3.166 -0.3802  0.2487 -0.4413
12965TIP3    H160386   3.053   3.220   3.191  0.6028 -0.3934 -0.5342
12965TIP3    H260387   3.071   3.317   3.076  0.0623 -0.5626 -0.7649
12966TIP3   OH260388   2.466   5.579   6.487  0.4450  0.1127  0.2980
12966TIP3    H160389   2.397   5.516   6.507  0.2442  0.3388  0.3241
12966TIP3    H260390   2.545   5.526   6.479  0.3013 -0.1278  0.4458
12967TIP3   OH260391   2.343   1.977   6.105  0.0450  0.4492 -0.6010
12967TIP3    H160392   2.400   1.976   6.028  1.6003  0.6912  0.4961
12967TIP3    H260393   2.382   2.043   6.162 -1.4485  0.7344  0.1400
12968TIP3   OH260394   3.742   6.197  15.351  0.1252  0.9951  0.0802
12968TIP3    H160395   3.825   6.191  15.304  1.6646  3.6493  2.1782
12968TIP3    H260396   3.685   6.247  15.293  0.7123  0.9760 -0.5194
12969TIP3   OH260397   3.523   0.390   3.392  0.3903 -0.0337  0.7697
12969TIP3    H160398   3.563   0.396   3.305  0.0255  3.2806  0.7096
12969TIP3    H260399   3.595   0.364   3.449  0.9782 -0.8483 -0.3028
12970TIP3   OH260400   6.415   3.013  11.797  0.7946 -0.1885  0.0384
12970TIP3    H160401   6.389   3.044  11.884 -0.1749  2.0973 -0.9755
12970TIP3    H260402   6.336   3.021  11.744  1.9423  0.7872 -1.6152
12971TIP3   OH260403   4.533   5.865  15.785  0.5732  0.2929 -0.4952
12971TIP3    H160404   4.456   5.808  15.788  0.6502  0.0656 -1.9920
12971TIP3    H260405   4.603   5.809  15.752  1.4595  0.4441  1.0201
12972TIP3   OH260406   1.134   3.065  16.279  0.2775  0.1357 -0.4863
12972TIP3    H160407   1.208   3.125  16.279 -0.2255  0.8210 -2.7491
12972TIP3    H260408   1.057   3.120  16.296  0.1250 -0.4013  0.7036
12973TIP3   OH260409   0.127   6.297  14.184  0.1035 -0.1064 -0.3072
12973TIP3    H160410   0.188   6.313  14.255  0.5941 -0.3334 -0.6692
12973TIP3    H260411   0.182   6.292  14.106 -0.5969  2.1008 -1.0237
12974TIP3   OH260412   3.061   1.772   5.518  0.3579 -0.1022 -0.7201
12974TIP3    H160413   3.098   1.754   5.604  1.1992 -3.1269 -1.5933
12974TIP3    H260414   3.136   1.792   5.463  0.0623 -0.3357 -1.2168
12975TIP3   OH260415   5.085   2.308   5.416 -0.0042  0.4113  0.5609
12975TIP3    H160416   5.006   2.315   5.363  0.7943  3.2139 -0.4457
12975TIP3    H260417   5.053   2.299   5.506 -1.4703  1.2061  0.1467
12976TIP3   OH260418   5.045   2.851  13.264  0.2364 -0.3041 -0.7657
12976TIP3    H160419   4.982   2.812  13.202 -0.2442 -0.7508 -0.0171
12976TIP3    H260420   5.001   2.930  13.295  1.1655  0.8268 -2.1966
12977TIP3   OH260421   3.439   1.398   3.948  0.0470  0.4831 -0.2726
12977TIP3    H160422   3.475   1.420   3.862  0.0524  3.5695  0.3869
12977TIP3    H260423   3.344   1.411   3.938 -0.0862 -0.3678 -0.1239
12978TIP3   OH260424   4.650   5.267  16.484 -0.0678 -0.1249 -0.1877
12978TIP3    H160425   4.666   5.341  16.542 -1.9871 -0.3186  0.6802
12978TIP3    H260426   4.736   5.246  16.447  0.6510  1.9907  0.1644
12979TIP3   OH260427   0.132   3.903   6.015 -0.2645 -0.3319  0.1494
12979TIP3    H160428   0.214   3.900   5.966 -0.2736  0.8732  0.0402
12979TIP3    H260429   0.082   3.828   5.982 -0.7546  1.0905 -2.5945
12980TIP3   OH260430   4.202   0.916   4.941  0.4228 -0.2637 -0.0798
12980TIP3    H160431   4.256   0.990   4.913  0.0900  1.0911  2.4992
12980TIP3    H260432   4.217   0.910   5.036  0.4600 -3.5685 -0.1908
12981TIP3   OH260433   1.264   6.600  15.675 -0.4586 -0.2431  0.2541
12981TIP3    H160434   1.293   6.589  15.585 -0.9060 -1.4253  0.2282
12981TIP3    H260435   1.295   6.521  15.720  0.2600  0.5922  1.2799
12982TIP3   OH260436   6.230   5.932   5.180 -0.2848  0.2806 -0.1823
12982TIP3    H160437   6.203   5.868   5.114 -0.6738 -0.3205  0.5495
12982TIP3    H260438   6.273   5.880   5.248  1.4497  1.0490 -0.6206
12983TIP3   OH260439   5.367   6.779   5.244 -0.3470 -0.3076 -0.6838
12983TIP3    H160440   5.421   6.749   5.171  0.8867 -1.0472  0.4890
12983TIP3    H260441   5.354   6.702   5.299 -0.3767  0.4499  0.4125
12984TIP3   OH260442   0.942   6.436  15.956  0.1285 -0.6093 -0.0855
12984TIP3    H160443   0.967   6.505  16.017 -1.4030 -0.7372  0.7534
12984TIP3    H260444   0.871   6.474  15.905 -0.5950 -1.4523  0.2481
12985TIP3   OH260445   0.920   2.403  16.685  0.0968 -0.0008 -1.1097
12985TIP3    H160446   0.995   2.345  16.696  0.0234 -0.2454 -1.8681
12985TIP3    H260447   0.849   2.361  16.733  0.2699 -0.0936 -0.9330
12986TIP3   OH260448   3.472   1.077  16.946  0.3578  0.1625  0.1435
12986TIP3    H160449   3.386   1.072  16.987  1.1951 -2.5377  1.8153
12986TIP3    H260450   3.473   1.006  16.882  1.9145 -1.1071  1.4777
12987TIP3   OH260451   4.310   4.355  10.748 -0.0209 -0.6196 -0.2841
12987TIP3    H160452   4.372   4.408  10.698 -0.9414 -0.1719 -0.9878
12987TIP3    H260453   4.266   4.301  10.683 -1.5270  0.2692 -0.0696
12988TIP3   OH260454   1.555   0.287  17.132 -0.1843  0.5692 -0.3371
12988TIP3    H160455   1.616   0.342  17.182 -1.9491  1.3426  1.0698
12988TIP3    H260456   1.505   0.348  17.078 -1.7988  0.3514  0.8430
12989TIP3   OH260457   6.702   2.452   5.298 -0.5732 -0.5873  0.2778
12989TIP3    H160458   6.649   2.380   5.264  0.2300 -0.4030 -1.4624
12989TIP3    H260459   6.754   2.481   5.224  0.4981  0.5682  1.4240
12990TIP3   OH260460   3.081   5.835  13.836  0.1527  0.7537  0.2800
12990TIP3    H160461   3.056   5.907  13.895 -1.0610  0.4249  0.2081
12990TIP3    H260462   2.999   5.810  13.794  0.3592 -1.2818  0.9740
12991TIP3   OH260463   3.816   6.738  14.869 -0.6298 -0.3173 -0.1939
12991TIP3    H160464   3.862   6.658  14.845  0.5143  0.0441  0.7188
12991TIP3    H260465   3.815   6.737  14.965  0.1641  1.1774 -0.1497
12992TIP3   OH260466   1.033   0.804   2.463 -0.0286 -0.5884 -0.2269
12992TIP3    H160467   1.019   0.836   2.374  0.6392  0.6021  0.0660
12992TIP3    H260468   1.114   0.847   2.491 -1.3802  0.8641  1.7471
12993TIP3   OH260469   1.411   2.254  16.352 -0.4331 -0.3636 -0.1848
12993TIP3    H160470   1.496   2.290  16.325 -0.2203 -1.2295 -0.6908
12993TIP3    H260471   1.350   2.285  16.285 -0.1553 -1.3509 -0.9136
12994TIP3   OH260472   1.739   4.567   3.026 -0.0801  0.1299 -0.3500
12994TIP3    H160473   1.717   4.599   3.113  0.0768  1.2761 -0.7152
12994TIP3    H260474   1.654   4.540   2.989 -0.0314 -1.2770  0.4775
12995TIP3   OH260475   4.096   1.630  15.683  0.5247 -0.1518 -1.0101
12995TIP3    H160476   4.022   1.633  15.622 -0.9114  0.9908  0.6881
12995TIP3    H260477   4.120   1.538  15.687 -1.4605 -0.7164 -0.8823
12996TIP3   OH260478   1.197   6.266   1.524 -0.1143  0.6404 -0.6699
12996TIP3    H160479   1.284   6.234   1.546  0.1227  2.0163  0.5935
12996TIP3    H260480   1.140   6.190   1.532  0.6828  0.1414  0.3897
12997TIP3   OH260481   4.798   4.611  15.726  0.0845 -0.4012 -0.0576
12997TIP3    H160482   4.827   4.702  15.715  0.5052 -0.5559 -0.2219
12997TIP3    H260483   4.765   4.608  15.816  0.7638 -0.2703  0.2046
12998TIP3   OH260484   5.471   5.079   2.692 -0.0186 -0.4747  0.6469
12998TIP3    H160485   5.419   5.085   2.772 -0.9073  0.0313  0.0427
12998TIP3    H260486   5.499   4.987   2.689 -1.1738 -0.8483  0.8120
12999TIP3   OH260487   5.134   6.693   5.532 -0.3580  0.0147  0.6827
12999TIP3    H160488   5.201   6.761   5.526  0.3586 -0.7928 -1.1901
12999TIP3    H260489   5.058   6.731   5.488 -0.0966 -0.1861  0.0299
13000TIP3   OH260490   3.987   3.952  11.872 -0.4859  1.0427 -0.9316
13000TIP3    H160491   3.903   3.968  11.914 -0.4480 -1.7253  0.3924
13000TIP3    H260492   4.051   3.968  11.942 -0.0214  1.3241 -1.4128
13001TIP3   OH260493   1.719   2.655  16.634 -0.7476 -0.0209 -0.2466
13001TIP3    H160494   1.707   2.749  16.649  0.3477 -0.0412  0.9621
13001TIP3    H260495   1.655   2.612  16.691 -0.3373 -0.0173  0.2237
13002TIP3   OH260496   1.861   6.332  14.476 -0.6043 -0.4181  0.0908
13002TIP3    H160497   1.828   6.276  14.406 -0.5846 -0.2659 -0.0404
13002TIP3    H260498   1.954   6.343  14.457 -1.0150  1.4097 -1.1040
13003TIP3   OH260499   2.786   4.647   6.165 -0.8164  0.1289  0.4726
13003TIP3    H160500   2.806   4.655   6.259 -1.1540 -1.7988  0.7397
13003TIP3    H260501   2.856   4.696   6.122  1.0397 -1.3724  1.6243
13004TIP3   OH260502   4.677   0.480  11.283 -0.1086 -0.4283  0.4542
13004TIP3    H160503   4.634   0.557  11.245  2.7760  0.5772 -1.0901
13004TIP3    H260504   4.701   0.426  11.207  0.6565 -1.2891  1.2842
13005TIP3   OH260505   5.919   3.109  12.296 -0.3444  0.3428  0.5647
13005TIP3    H160506   5.961   3.177  12.349  0.8232  1.1216 -1.2404
13005TIP3    H260507   5.918   3.146  12.207 -1.4548 -1.2388 -0.1270
13006TIP3   OH260508   6.065   0.126   3.970 -0.2400 -0.3945 -0.0186
13006TIP3    H160509   6.148   0.095   3.935  0.2657 -1.7536  2.1539
13006TIP3    H260510   6.084   0.213   4.005 -0.1265 -0.0841 -0.8345
13007TIP3   OH260511   0.385   4.784   4.609 -0.8748 -0.5188 -0.0904
13007TIP3    H160512   0.298   4.800   4.646  0.0052  0.3023  1.7538
13007TIP3    H260513   0.377   4.811   4.517 -2.5321 -0.3962  0.0498
13008TIP3   OH260514   2.125   6.468   6.620  0.3095  0.1500 -0.0782
13008TIP3    H160515   2.182   6.534   6.580  1.1382 -0.6258 -0.2057
13008TIP3    H260516   2.165   6.384   6.596 -0.3772 -0.3845  0.6024
13009TIP3   OH260517   6.521   3.079   1.226 -0.0899 -0.9148 -0.5819
13009TIP3    H160518   6.518   3.143   1.298 -1.7307  0.0405 -1.4509
13009TIP3    H260519   6.575   3.008   1.261 -0.8859 -0.5227  1.6299
13010TIP3   OH260520   1.279   2.722   2.470  0.3840 -0.0920  0.1156
13010TIP3    H160521   1.354   2.739   2.527  0.8762  1.2607 -0.8662
13010TIP3    H260522   1.255   2.631   2.488  3.4754 -1.2380 -0.8769
13011TIP3   OH260523   6.488   5.509  11.075 -0.2182 -0.1724  0.1850
13011TIP3    H160524   6.410   5.563  11.064 -0.1071 -0.0115  0.1855
13011TIP3    H260525   6.498   5.462  10.992 -0.7713 -0.7974  0.4640
13012TIP3   OH260526   4.873   4.014   1.397  0.0114  0.0025  0.4551
13012TIP3    H160527   4.895   4.096   1.353 -1.8590  1.0332  1.2979
13012TIP3    H260528   4.942   4.003   1.462  0.2507  0.9648  0.3867
13013TIP3   OH260529   3.467   2.753   0.958 -0.0987  0.3488 -0.9250
13013TIP3    H160530   3.453   2.814   0.885 -0.7632  0.7558 -0.4638
13013TIP3    H260531   3.539   2.791   1.008 -0.2406  0.5321 -0.8636
13014TIP3   OH260532   2.767   1.063   3.225  0.4508 -0.3780  0.2507
13014TIP3    H160533   2.773   1.077   3.320  1.9441 -0.3963  0.1801
13014TIP3    H260534   2.674   1.047   3.209 -0.1905  1.8012  1.4086
13015TIP3   OH260535   1.300   0.386  13.513 -0.2509  0.4265 -0.2930
13015TIP3    H160536   1.231   0.356  13.454 -0.6674  0.7670  0.0101
13015TIP3    H260537   1.345   0.455  13.464  1.4580 -1.3970 -1.4548
13016TIP3   OH260538   0.293   0.609  16.700 -0.2878  0.4045 -0.6567
13016TIP3    H160539   0.333   0.676  16.643  3.6105 -1.1637 -0.1034
13016TIP3    H260540   0.316   0.526  16.658 -2.0496 -0.7010  0.4469
13017TIP3   OH260541   5.996   5.188  13.815 -0.1752 -0.0613 -0.4801
13017TIP3    H160542   6.015   5.274  13.852 -0.6175  0.3157 -1.0970
13017TIP3    H260543   5.921   5.155  13.865  0.1004 -0.1615 -0.1336
13018TIP3   OH260544   6.183   4.101  14.210 -0.6261  0.1632 -0.2822
13018TIP3    H160545   6.263   4.066  14.248 -0.5919 -1.1782 -1.5230
13018TIP3    H260546   6.132   4.023  14.187 -1.4228  0.9716 -1.3042
13019TIP3   OH260547   4.763   2.447   6.469  0.0422  0.0418  0.0894
13019TIP3    H160548   4.839   2.392   6.450  1.2600  1.2262  1.3029
13019TIP3    H260549   4.702   2.430   6.397  1.9780  0.0320 -1.6384
13020TIP3   OH260550   0.770   0.083  11.130 -0.0074 -0.3043  0.2527
13020TIP3    H160551   0.782   0.067  11.224 -3.0759 -1.2620  0.6206
13020TIP3    H260552   0.730   0.003  11.097 -1.6297  1.0266 -1.2399
13021TIP3   OH260553   5.433   5.020   3.450 -0.1458 -0.1549 -0.3576
13021TIP3    H160554   5.432   5.102   3.401 -1.1114 -0.4175 -0.8075
13021TIP3    H260555   5.468   5.043   3.536 -1.7208  1.0427  0.0148
13022TIP3   OH260556   3.585   0.065  15.536 -0.2156  0.3790  0.0116
13022TIP3    H160557   3.600  -0.029  15.540  1.1643  0.3213 -3.2080
13022TIP3    H260558   3.672   0.104  15.543 -0.8783  1.6144  2.7163
13023TIP3   OH260559   4.742   3.466  16.618 -0.0741  0.0687  0.2558
13023TIP3    H160560   4.715   3.553  16.649  2.3599  0.6580  0.9787
13023TIP3    H260561   4.783   3.482  16.533  0.7714 -0.2771  0.5832
13024TIP3   OH260562   1.576   0.054  14.887  0.0818 -0.2586 -0.2320
13024TIP3    H160563   1.550   0.040  14.796 -0.4635 -1.3730  0.0771
13024TIP3    H260564   1.638  -0.017  14.905 -0.1784 -0.3303  0.4005
13025TIP3   OH260565   6.172   0.745  11.974  0.3367  0.1555  0.5574
13025TIP3    H160566   6.127   0.767  12.056 -0.4115 -0.1458  0.2309
13025TIP3    H260567   6.173   0.826  11.924 -1.6766 -0.3030 -0.2934
13026TIP3   OH260568   1.117   3.966   1.754 -0.3787 -0.0959 -0.3130
13026TIP3    H160569   1.059   3.930   1.820  0.4282 -0.2165  0.3374
13026TIP3    H260570   1.159   4.040   1.797  1.2711 -1.0711 -0.1721
13027TIP3   OH260571   4.662   5.005  15.556 -0.2442 -0.0191 -0.7174
13027TIP3    H160572   4.678   4.923  15.510 -2.8434 -0.8712 -0.2425
13027TIP3    H260573   4.749   5.046  15.561  0.4762 -0.5098 -4.9970
13028TIP3   OH260574   1.779   2.482   0.516  0.1614 -0.5038  0.1465
13028TIP3    H160575   1.854   2.447   0.565  0.2918 -0.5470 -0.0846
13028TIP3    H260576   1.723   2.521   0.583  0.1788 -0.8581  0.3712
13029TIP3   OH260577   4.959   4.440  10.855 -0.3186 -0.4400 -0.3872
13029TIP3    H160578   4.917   4.377  10.914  0.9627 -0.4174  0.5897
13029TIP3    H260579   4.894   4.511  10.846 -0.7482 -0.6875  0.5832
13030TIP3   OH260580   6.577   1.417   3.569  0.5135  0.4390 -0.1109
13030TIP3    H160581   6.577   1.504   3.531 -1.4917  0.1747 -0.8234
13030TIP3    H260582   6.638   1.423   3.642  0.3293  2.4722 -0.0632
13031TIP3   OH260583   3.413   5.056  11.177  0.0493  0.3051 -0.1455
13031TIP3    H160584   3.338   4.999  11.192  1.3974 -1.4250  0.4186
13031TIP3    H260585   3.474   5.035  11.247  2.1195 -0.2411 -1.9985
13032TIP3   OH260586   3.552   0.838   0.623  0.6903  0.3744 -0.2041
13032TIP3    H160587   3.565   0.788   0.703  0.1177 -0.7573 -0.7907
13032TIP3    H260588   3.640   0.856   0.591  0.9144  0.5114  0.4788
13033TIP3   OH260589   3.532   2.056   0.543 -0.4003  0.3189 -0.0759
13033TIP3    H160590   3.609   2.085   0.591 -0.9731 -0.9775  1.7183
13033TIP3    H260591   3.559   2.058   0.451  1.0427  1.9494  0.3374
13034TIP3   OH260592   3.887   1.043  11.396 -0.3147 -0.1828  0.1844
13034TIP3    H160593   3.982   1.049  11.391 -0.0955 -2.4816  0.5129
13034TIP3    H260594   3.861   0.997  11.316 -1.0184 -0.5073  0.5839
13035TIP3   OH260595   5.737   4.804   0.126 -0.1025  0.5052 -0.9283
13035TIP3    H160596   5.775   4.717   0.114  2.1035  1.4457 -1.4238
13035TIP3    H260597   5.718   4.834   0.038 -1.4905  0.2983 -0.7175
13036TIP3   OH260598   6.176   5.799  14.385 -0.2129 -0.0486  0.0733
13036TIP3    H160599   6.173   5.776  14.292  0.0297 -1.1123  0.3126
13036TIP3    H260600   6.086   5.789  14.415 -0.1025 -0.7599  0.1841
13037TIP3   OH260601   5.937   4.786   4.234  0.1746 -0.4999  0.1093
13037TIP3    H160602   5.912   4.720   4.298 -0.0422  0.3257  0.8878
13037TIP3    H260603   5.903   4.868   4.269  0.3123  0.0116 -0.9170
13038TIP3   OH260604   0.807   5.209  13.217  0.6656 -0.2375  0.4493
13038TIP3    H160605   0.720   5.195  13.254  1.2166 -0.1595  1.8026
13038TIP3    H260606   0.829   5.299  13.241  1.1963 -0.3156  0.2615
13039TIP3   OH260607   1.299   5.684  16.013 -0.2971 -0.2751  0.5807
13039TIP3    H160608   1.331   5.648  16.096 -0.4174  0.6368  1.0380
13039TIP3    H260609   1.278   5.775  16.033 -2.8204 -0.6882  0.2277
13040TIP3   OH260610   2.991   5.898  14.481  0.2777 -0.1816 -0.4884
13040TIP3    H160611   3.082   5.871  14.487  0.5033  0.7231  0.4992
13040TIP3    H260612   2.948   5.855  14.554  0.9354  3.0219  2.0141
13041TIP3   OH260613   1.330   5.869   4.890 -0.0941 -0.3539  0.0667
13041TIP3    H160614   1.338   5.785   4.935  0.9310 -0.7396 -0.7899
13041TIP3    H260615   1.306   5.931   4.959  2.1697 -0.7831  1.3343
13042TIP3   OH260616   1.057   1.555  13.768  0.3049 -0.4292 -0.3672
13042TIP3    H160617   1.026   1.482  13.715  1.7360 -0.9208 -0.5661
13042TIP3    H260618   1.090   1.619  13.704 -0.3809  0.1370 -0.1693
13043TIP3   OH260619   6.496   1.157   3.980  0.2884 -0.1281 -0.9545
13043TIP3    H160620   6.529   1.112   3.903 -0.7424  0.4711 -1.7777
13043TIP3    H260621   6.432   1.097   4.018 -2.4847  1.2155 -3.1017
13044TIP3   OH260622   6.362   6.648   3.121  0.5669  0.6766  0.0400
13044TIP3    H160623   6.326   6.645   3.209  1.3983  2.6043  0.5072
13044TIP3    H260624   6.311   6.584   3.071 -2.2760  1.9774  1.0571
13045TIP3   OH260625   0.277   1.461  12.316 -0.5740  0.1821  0.0763
13045TIP3    H160626   0.310   1.371  12.305 -0.4337  0.2299  0.1104
13045TIP3    H260627   0.272   1.473  12.410 -1.6733 -0.1881  0.0789
13046TIP3   OH260628   0.775   1.589   0.225 -0.3240  0.2280 -0.5742
13046TIP3    H160629   0.824   1.615   0.148  3.0310 -0.8194  1.0144
13046TIP3    H260630   0.818   1.635   0.297 -0.8241 -1.7399  1.0803
13047TIP3   OH260631   5.828   3.094   5.232  0.2957 -0.2641 -0.1529
13047TIP3    H160632   5.744   3.139   5.226  0.7279  0.5610 -0.1766
13047TIP3    H260633   5.880   3.147   5.293  0.6474 -1.0128  0.2213
13048TIP3   OH260634   0.636   5.884   3.182  0.2099 -0.1590  0.2225
13048TIP3    H160635   0.654   5.828   3.258 -2.0867  1.1296  1.8284
13048TIP3    H260636   0.567   5.837   3.134  0.9566 -0.4892 -0.5511
13049TIP3   OH260637   2.812   2.318  12.098  0.1828 -0.7620 -0.0334
13049TIP3    H160638   2.766   2.240  12.068  0.9537 -1.4759  0.6038
13049TIP3    H260639   2.790   2.385  12.034 -2.6721 -0.7497  0.8141
13050TIP3   OH260640   2.015   3.750   2.604 -0.2630  0.1841  0.0676
13050TIP3    H160641   2.076   3.769   2.675  0.0223  2.2855 -0.6529
13050TIP3    H260642   2.046   3.667   2.567  0.6737 -0.0092  1.2342
13051TIP3   OH260643   4.352   1.100   2.478  0.0209 -0.5299 -0.2521
13051TIP3    H160644   4.275   1.155   2.464 -1.2169 -1.6299  1.7638
13051TIP3    H260645   4.375   1.113   2.569  2.1513 -0.3833 -0.7624
13052TIP3   OH260646   1.688   5.731  10.753  0.0750 -0.1469  0.0380
13052TIP3    H160647   1.613   5.782  10.725 -0.3111 -0.3916  0.6173
13052TIP3    H260648   1.713   5.679  10.676 -1.1718 -1.0504  0.2156
13053TIP3   OH260649   0.878   1.995   1.360  0.1620 -0.3659 -0.2163
13053TIP3    H160650   0.931   2.041   1.296 -0.1501 -0.0835 -0.2760
13053TIP3    H260651   0.884   2.048   1.439  3.0290 -2.2423  1.0010
13054TIP3   OH260652   0.848   5.244   1.180 -0.0423  0.0380  0.0130
13054TIP3    H160653   0.772   5.279   1.134  0.5794  1.3975 -0.0324
13054TIP3    H260654   0.846   5.150   1.162 -0.8229  0.2853 -1.2933
13055TIP3   OH260655   1.042   2.798   2.798  0.1336  0.0199 -0.0654
13055TIP3    H160656   0.985   2.828   2.869 -0.5877 -0.5271 -0.4020
13055TIP3    H260657   1.000   2.830   2.718  0.6861  0.2263 -0.2776
13056TIP3   OH260658   3.597   4.112  14.295  0.1361 -0.1233  0.1158
13056TIP3    H160659   3.565   4.184  14.349  0.9909  0.6848 -0.4195
13056TIP3    H260660   3.519   4.075  14.255 -0.3316  0.4026  0.5344
13057TIP3   OH260661   2.956   3.201   4.520 -0.3931 -0.0565  0.1738
13057TIP3    H160662   2.879   3.250   4.494 -0.0996  1.0768  1.3477
13057TIP3    H260663   3.025   3.230   4.460  0.0854  1.9534  1.5978
13058TIP3   OH260664   3.891   5.866  11.049 -0.4310  0.0756  0.1406
13058TIP3    H160665   3.806   5.849  11.008 -0.2420 -0.8677  0.1198
13058TIP3    H260666   3.955   5.836  10.984 -0.1018  0.0842  0.4591
13059TIP3   OH260667   3.084   1.247   5.563 -0.8256 -0.2546  0.4965
13059TIP3    H160668   3.018   1.208   5.505 -0.5475 -0.2429  0.1742
13059TIP3    H260669   3.126   1.314   5.510  0.7645 -1.5439  0.0715
13060TIP3   OH260670   2.584   3.744  11.132 -0.5298  0.3344  0.6401
13060TIP3    H160671   2.582   3.767  11.224  2.0795  2.8087  0.2049
13060TIP3    H260672   2.509   3.791  11.094 -1.8109 -0.9584  1.4785
13061TIP3   OH260673   2.276   5.779   3.724 -0.1637  0.0583 -0.3770
13061TIP3    H160674   2.192   5.751   3.690 -1.5897 -0.3236  3.0435
13061TIP3    H260675   2.326   5.698   3.734 -0.4941 -0.0735  0.2378
13062TIP3   OH260676   1.584   2.690  12.984 -0.2677 -0.2226 -0.6397
13062TIP3    H160677   1.604   2.599  13.008  0.6589  0.6638  2.3814
13062TIP3    H260678   1.623   2.742  13.054 -1.3650  2.4990 -1.9208
13063TIP3   OH260679   4.653   0.882   4.944 -0.3858 -0.0501  0.0177
13063TIP3    H160680   4.727   0.929   4.907  0.6132 -0.5729  1.2577
13063TIP3    H260681   4.585   0.885   4.877  0.1495  1.9109 -0.4859
13064TIP3   OH260682   3.246   0.044   3.657  0.0504  0.1700  0.3406
13064TIP3    H160683   3.311   0.093   3.708 -1.2951  0.9715  1.3384
13064TIP3    H260684   3.162   0.079   3.686 -0.9658 -2.4737  0.7982
13065TIP3   OH260685   2.119   4.940  11.965 -0.2372 -0.4675 -0.3229
13065TIP3    H160686   2.026   4.963  11.963 -0.0381  0.6754  1.2236
13065TIP3    H260687   2.165   5.023  11.953  0.5849 -0.8900 -0.2237
13066TIP3   OH260688   3.955   3.030   4.244  0.0020 -0.2490  0.2133
13066TIP3    H160689   3.924   3.108   4.198  0.3387  0.3035  0.9188
13066TIP3    H260690   3.945   2.959   4.179 -3.7872 -0.3731  0.7298
13067TIP3   OH260691   6.363   0.143   0.484  0.4855 -0.5247  0.4655
13067TIP3    H160692   6.426   0.092   0.535 -1.0159 -1.4865  1.4761
13067TIP3    H260693   6.364   0.104   0.397  1.1225 -0.6774  0.5402
13068TIP3   OH260694   4.871   2.979  11.868  0.3375  0.1349 -0.1412
13068TIP3    H160695   4.871   2.903  11.926 -0.8633 -0.4355 -0.8615
13068TIP3    H260696   4.852   3.053  11.925  2.3554  0.0546  0.7163
13069TIP3   OH260697   5.511   3.627   5.133  0.0927 -0.5640 -0.4977
13069TIP3    H160698   5.485   3.650   5.044  1.5890  0.1789 -0.7741
13069TIP3    H260699   5.511   3.710   5.181  0.4027 -0.7786 -0.1132
13070TIP3   OH260700   2.558   2.542  10.322 -0.4639  0.1304  0.4617
13070TIP3    H160701   2.534   2.625  10.281 -1.7163 -0.2368  0.3984
13070TIP3    H260702   2.487   2.526  10.385 -0.8199 -1.4211 -0.2938
13071TIP3   OH260703   0.814   6.725  12.682 -0.0249 -0.0275 -0.4759
13071TIP3    H160704   0.751   6.683  12.740  0.7995 -1.2296 -0.4001
13071TIP3    H260705   0.828   6.812  12.720 -0.8818 -0.1080  0.0471
13072TIP3   OH260706   3.729   4.470  13.023 -0.0748 -0.1723 -0.3251
13072TIP3    H160707   3.802   4.496  13.080  0.2880  0.3637 -1.0155
13072TIP3    H260708   3.706   4.382  13.053  0.8759 -0.3628 -0.1126
13073TIP3   OH260709   2.435   1.035  10.883  0.5375 -0.2154  0.3408
13073TIP3    H160710   2.348   1.046  10.922  0.3493 -0.8777  0.1204
13073TIP3    H260711   2.418   1.026  10.790  0.8396 -0.3929  0.3044
13074TIP3   OH260712   4.648   6.366  12.065 -0.7204 -0.1192  0.6571
13074TIP3    H160713   4.621   6.427  11.996  0.2865  0.0643  0.3997
13074TIP3    H260714   4.689   6.294  12.018  0.6315  0.3428  1.0713
13075TIP3   OH260715   0.051   4.531  13.762  0.4749 -0.7949 -0.0535
13075TIP3    H160716   0.130   4.542  13.814  0.0840 -1.1323  0.6322
13075TIP3    H260717   0.082   4.527  13.671  1.2955 -1.5237  0.2484
13076TIP3   OH260718   0.006   2.555  11.827  0.6563  0.0641 -0.2248
13076TIP3    H160719   0.001   2.651  11.824  1.5663  0.1449  0.5083
13076TIP3    H260720  -0.079   2.528  11.860  1.1394  0.7604  1.7130
13077TIP3   OH260721   4.485   3.956  13.788  0.6829  0.2081  0.2675
13077TIP3    H160722   4.422   3.899  13.833 -1.3168  0.9729 -1.3862
13077TIP3    H260723   4.560   3.900  13.771 -0.6150 -1.5450  0.0125
13078TIP3   OH260724   3.884   2.662   5.671  0.0265  0.5875  0.6175
13078TIP3    H160725   3.820   2.606   5.628  0.9999  0.6050 -0.9461
13078TIP3    H260726   3.886   2.742   5.618  1.6290  0.4111  0.3580
13079TIP3   OH260727   2.511   3.611   1.917  0.8121  0.3859 -0.0078
13079TIP3    H160728   2.560   3.614   1.835  1.0392 -1.3104  0.0339
13079TIP3    H260729   2.468   3.696   1.922 -0.3180  0.0605 -2.5780
13080TIP3   OH260730   4.838   2.505   1.892 -0.0374  0.3195 -0.1816
13080TIP3    H160731   4.931   2.483   1.883  0.1137  1.4191 -1.6164
13080TIP3    H260732   4.837   2.600   1.903 -1.0247  0.3875 -0.7686
13081TIP3   OH260733   3.712   4.180  15.619 -0.2598  0.2231  0.1389
13081TIP3    H160734   3.671   4.181  15.532 -0.8704 -1.7404  0.3556
13081TIP3    H260735   3.662   4.245  15.670 -1.4336 -0.2842 -0.3296
13082TIP3   OH260736   0.021   1.447   4.468  0.0017  0.1100  0.5131
13082TIP3    H160737  -0.014   1.362   4.443 -0.5059 -0.0437  1.6644
13082TIP3    H260738  -0.038   1.478   4.537  0.5743  1.0807  0.5930
13083TIP3   OH260739   2.726   0.957   3.979 -0.4695  0.1761  0.0404
13083TIP3    H160740   2.751   0.865   3.986 -1.5855 -0.1355  0.0854
13083TIP3    H260741   2.674   0.962   3.898  0.2886  0.9416 -0.4192
13084TIP3   OH260742   4.049   1.568   2.679  0.0732 -0.6851 -0.0218
13084TIP3    H160743   4.058   1.657   2.714 -3.2182  1.2722 -3.4653
13084TIP3    H260744   4.014   1.518   2.752  1.8261  0.7786  1.9662
13085TIP3   OH260745   4.555   4.958   2.358  0.9835 -0.2571 -0.0605
13085TIP3    H160746   4.599   4.876   2.334  0.3381 -0.4914 -0.4679
13085TIP3    H260747   4.614   4.999   2.422  0.9905 -1.3702  0.6780
13086TIP3   OH260748   4.135   4.581   4.029  0.6113 -0.2121 -0.1821
13086TIP3    H160749   4.230   4.581   4.041  0.3698  0.3512  2.0900
13086TIP3    H260750   4.110   4.489   4.030  1.0936 -0.3553 -0.6484
13087TIP3   OH260751   5.531   3.457   0.357  0.0246  0.2733  0.2593
13087TIP3    H160752   5.477   3.390   0.316 -2.2651  2.0050  0.2585
13087TIP3    H260753   5.469   3.511   0.406  2.2041  0.2999  3.2727
13088TIP3   OH260754   1.568   5.727  13.456 -0.0089  0.1189  0.1717
13088TIP3    H160755   1.511   5.785  13.405 -0.4471  0.5827  1.1491
13088TIP3    H260756   1.655   5.766  13.447  0.4163 -1.2150 -2.2351
13089TIP3   OH260757   2.399   2.494  11.672  0.1611  0.8053 -0.6527
13089TIP3    H160758   2.481   2.506  11.625  1.0105 -0.8064  0.3195
13089TIP3    H260759   2.411   2.542  11.754 -0.0191  0.8816 -0.6703
13090TIP3   OH260760   4.282   2.719  13.503  0.4727  0.0910 -0.2908
13090TIP3    H160761   4.276   2.757  13.591  1.2798 -1.6955  0.5999
13090TIP3    H260762   4.371   2.686  13.497  0.5705  0.5591 -1.9806
13091TIP3   OH260763   6.230   5.709   1.125  0.3660 -0.7912  0.3372
13091TIP3    H160764   6.284   5.783   1.096  0.1855 -1.0660 -0.7409
13091TIP3    H260765   6.229   5.649   1.050 -0.7853 -1.1585  0.6254
13092TIP3   OH260766   0.568   6.401  11.851  0.5637  0.6977 -0.5352
13092TIP3    H160767   0.643   6.383  11.794 -0.7060  0.8900 -2.3778
13092TIP3    H260768   0.600   6.386  11.939  2.2470 -1.0837 -1.3785
13093TIP3   OH260769   2.037   0.986   5.380  0.2398 -0.8501 -0.6018
13093TIP3    H160770   2.101   1.056   5.363  1.5238 -1.2894  1.8462
13093TIP3    H260771   2.064   0.915   5.323  1.1935 -0.5876 -0.5039
13094TIP3   OH260772   3.940   1.038  14.025 -0.0308 -0.4742 -0.5712
13094TIP3    H160773   3.857   1.002  13.994  0.5325 -2.0030 -0.3547
13094TIP3    H260774   4.000   0.964  14.026  2.1901  1.0409 -3.4421
13095TIP3   OH260775   5.029   4.736  14.346 -0.4123 -0.2948 -0.3114
13095TIP3    H160776   5.068   4.790  14.277 -1.5772 -0.4602 -1.1265
13095TIP3    H260777   5.013   4.651  14.304  0.3744 -0.9443  0.6427
13096TIP3   OH260778   0.617   3.211   5.824 -0.0626  0.0976  0.4485
13096TIP3    H160779   0.581   3.155   5.893  0.6278  0.7671  1.3745
13096TIP3    H260780   0.648   3.289   5.870  1.2086  0.1870 -0.5057
13097TIP3   OH260781   4.919   5.640  12.376 -0.1082 -0.6784 -0.6396
13097TIP3    H160782   4.831   5.607  12.358  0.2041 -1.5301 -0.6831
13097TIP3    H260783   4.913   5.677  12.464 -0.2968 -1.5917 -0.2525
13098TIP3   OH260784   2.650   6.771  12.880  0.2261 -0.3331  0.3443
13098TIP3    H160785   2.742   6.747  12.866  0.1230  0.2042 -1.5719
13098TIP3    H260786   2.613   6.698  12.928  1.7783 -0.3121  1.6431
13099TIP3   OH260787   4.995   2.592  11.487 -0.7775 -0.4025 -0.0346
13099TIP3    H160788   5.055   2.581  11.561  0.0725  0.6209 -0.5423
13099TIP3    H260789   5.044   2.646  11.424 -1.9881 -0.1007 -0.7545
13100TIP3   OH260790   6.425   5.797  15.399 -0.0907  0.1474  0.6637
13100TIP3    H160791   6.399   5.718  15.447  0.3688  0.1024  0.8468
13100TIP3    H260792   6.507   5.824  15.441  1.0027 -0.6106 -0.9169
13101TIP3   OH260793   1.644   2.704   1.454 -0.2046  0.3519 -0.1198
13101TIP3    H160794   1.562   2.748   1.476 -0.4257  0.8023 -1.7117
13101TIP3    H260795   1.632   2.673   1.365  1.1878  0.0251 -0.2243
13102TIP3   OH260796   5.536   4.484   0.762  0.2272 -0.5707 -0.6828
13102TIP3    H160797   5.577   4.418   0.705  2.7899 -0.5006  0.8999
13102TIP3    H260798   5.555   4.453   0.851  0.8964  1.8991  0.1102
13103TIP3   OH260799   6.723   3.457   2.355 -0.0518 -0.2153 -0.5144
13103TIP3    H160800   6.805   3.450   2.307 -1.0649 -1.0044 -2.2333
13103TIP3    H260801   6.660   3.490   2.291 -1.0663  0.4723  0.7832
13104TIP3   OH260802   0.105   6.447   1.436  0.7185  0.3598  0.3804
13104TIP3    H160803   0.029   6.398   1.470 -0.1757  0.0050 -1.9355
13104TIP3    H260804   0.177   6.422   1.493 -0.4827 -0.9193  1.4158
13105TIP3   OH260805   5.676   2.482  12.422  0.4274  0.1108  0.1950
13105TIP3    H160806   5.630   2.405  12.455 -1.3366  1.7461  1.8393
13105TIP3    H260807   5.759   2.483  12.470 -0.0408 -0.1562  1.0344
13106TIP3   OH260808   4.068   5.029   5.318 -0.9188 -0.2395 -0.4556
13106TIP3    H160809   4.104   5.068   5.238  2.1038 -1.7187  0.0160
13106TIP3    H260810   4.018   4.954   5.287  0.8363 -1.2434 -1.0411
13107TIP3   OH260811   2.010   2.516  11.183 -0.0152 -0.2790  0.2910
13107TIP3    H160812   1.927   2.476  11.208 -0.0338 -1.4166 -1.3986
13107TIP3    H260813   2.072   2.443  11.180 -0.1125 -0.4038 -3.1442
13108TIP3   OH260814   0.515   1.549   6.039  0.8560  0.1508 -0.3841
13108TIP3    H160815   0.562   1.466   6.029  0.1533 -0.3812  0.6084
13108TIP3    H260816   0.434   1.536   5.990  0.5752  0.1123  0.0888
13109TIP3   OH260817   2.932   1.776  11.758  0.4657  0.1534 -0.3554
13109TIP3    H160818   2.955   1.783  11.851 -0.0389 -0.9931 -0.1338
13109TIP3    H260819   3.003   1.821  11.713  0.7170  0.7274  0.5806
13110TIP3   OH260820   5.415   4.312  11.528 -0.6800 -0.0009 -0.3801
13110TIP3    H160821   5.462   4.339  11.450 -0.2154 -1.3151 -0.5865
13110TIP3    H260822   5.469   4.241  11.565 -1.6512 -0.4139  0.2898
13111TIP3   OH260823   5.786   1.376   5.410 -0.1459  0.1605 -0.0335
13111TIP3    H160824   5.817   1.300   5.361  0.4356  0.0745  0.4635
13111TIP3    H260825   5.857   1.396   5.471  0.0576  1.5896 -0.6976
13112TIP3   OH260826   3.770   3.594  14.835  0.2654 -0.2680 -0.5371
13112TIP3    H160827   3.799   3.612  14.745 -0.1004 -1.0416 -0.8179
13112TIP3    H260828   3.785   3.500  14.847 -1.1266 -0.4891 -0.3360
13113TIP3   OH260829   1.013   1.225   1.453  0.0617 -0.3891 -0.7771
13113TIP3    H160830   1.008   1.148   1.510 -1.7860 -0.0479 -0.4136
13113TIP3    H260831   1.101   1.221   1.415  1.0644 -1.0558  1.4726
13114TIP3   OH260832   1.715   5.568   4.741  0.0187 -0.1336 -0.0406
13114TIP3    H160833   1.803   5.597   4.767 -0.0088 -0.1664  0.0912
13114TIP3    H260834   1.725   5.540   4.650  0.1386 -0.1087 -0.0356
13115TIP3   OH260835   2.706   4.043  10.813  0.5383 -0.0306 -0.2057
13115TIP3    H160836   2.784   4.055  10.866 -0.3854 -0.0298  1.1935
13115TIP3    H260837   2.700   3.948  10.800  1.9154  0.0809 -2.1623
13116TIP3   OH260838   6.454   2.809  11.136 -0.1343 -0.2615 -0.4768
13116TIP3    H160839   6.398   2.781  11.063 -0.3455  0.8648 -0.7729
13116TIP3    H260840   6.541   2.777  11.114 -0.3049 -0.4079 -0.9422
13117TIP3   OH260841   3.334   3.215  13.751  0.5280 -0.1646  0.5894
13117TIP3    H160842   3.243   3.245  13.758 -0.2473 -1.8658 -1.0384
13117TIP3    H260843   3.386   3.286  13.789 -1.4931  0.5918  2.1548
13118TIP3   OH260844   5.400   1.921  14.531  0.2859  0.0175 -0.2830
13118TIP3    H160845   5.414   1.999  14.585  0.6061 -0.4487  0.3176
13118TIP3    H260846   5.487   1.900  14.496  0.7520 -1.5628  1.6372
13119TIP3   OH260847   4.966   3.861  16.580  0.2944  0.3349  0.4105
13119TIP3    H160848   5.011   3.789  16.625 -0.4330  0.0084  0.6220
13119TIP3    H260849   5.029   3.889  16.513  0.7772 -0.1844  0.6285
13120TIP3   OH260850   5.615   5.712  16.821 -0.2683 -0.7901 -0.1013
13120TIP3    H160851   5.541   5.720  16.761  0.0934  0.0344 -0.4564
13120TIP3    H260852   5.620   5.797  16.864  1.0880 -0.4712 -0.8271
13121TIP3   OH260853   0.433   5.719   3.978  0.1145 -0.1820 -0.4736
13121TIP3    H160854   0.502   5.751   4.035  0.5727 -4.1109  1.4978
13121TIP3    H260855   0.365   5.688   4.037 -2.4728  1.5003 -2.3236
13122TIP3   OH260856   2.915   3.424  11.657  0.0990 -0.0166  0.4215
13122TIP3    H160857   3.002   3.449  11.688 -0.3670  2.9035 -0.3251
13122TIP3    H260858   2.883   3.362  11.723  1.7312  0.8624  2.1420
13123TIP3   OH260859   2.474   5.839   5.710 -0.3020 -0.3580 -0.1593
13123TIP3    H160860   2.442   5.851   5.620 -0.4918 -0.8356 -0.1573
13123TIP3    H260861   2.514   5.752   5.710 -0.5421 -0.4689  0.2919
13124TIP3   OH260862   5.975   1.004  16.666  0.4794  0.1315 -0.9232
13124TIP3    H160863   6.016   1.076  16.714  1.3853  0.8827 -2.7631
13124TIP3    H260864   6.048   0.953  16.631 -0.1415 -1.6444  0.1730
13125TIP3   OH260865   1.927   0.303  11.657 -0.0203  0.1953  0.3818
13125TIP3    H160866   2.001   0.323  11.600 -1.0948  3.6834 -0.0586
13125TIP3    H260867   1.950   0.344  11.741 -1.3889  1.4421  0.1993
13126TIP3   OH260868   6.242   2.670  13.883 -0.1328 -0.1983  0.4192
13126TIP3    H160869   6.320   2.725  13.877 -0.9488  1.2959  2.4792
13126TIP3    H260870   6.193   2.688  13.803  0.0928  1.3540  0.5996
13127TIP3   OH260871   4.820   6.197   3.290 -0.2615  0.3320 -0.4810
13127TIP3    H160872   4.767   6.123   3.260 -1.4560  0.2317  1.6440
13127TIP3    H260873   4.902   6.158   3.319  1.1907  0.5002 -3.9075
13128TIP3   OH260874   3.980   1.388  11.479 -0.2444  0.5851  0.2430
13128TIP3    H160875   4.015   1.331  11.410  1.1216  0.8484  0.6932
13128TIP3    H260876   3.886   1.372  11.478 -0.3814  1.1140 -2.1899
13129TIP3   OH260877   3.280   1.949   1.253 -0.8668  0.1213 -0.2148
13129TIP3    H160878   3.345   1.879   1.252 -1.5074 -0.5061 -2.3607
13129TIP3    H260879   3.303   2.004   1.178 -1.0634  1.6132  0.7625
13130TIP3   OH260880   1.114   6.749  16.904  0.5480 -0.0891 -0.2454
13130TIP3    H160881   1.037   6.786  16.949 -0.6263 -1.4297 -1.0500
13130TIP3    H260882   1.097   6.655  16.904  2.1467 -0.3907 -0.5886
13131TIP3   OH260883   0.287   1.230  13.003  0.1266  0.0999 -0.0052
13131TIP3    H160884   0.363   1.285  12.984 -0.6519  0.5102 -2.2662
13131TIP3    H260885   0.224   1.251  12.934 -0.7640 -2.5926 -0.1526
13132TIP3   OH260886   3.470   4.449   0.647 -0.4695 -0.3196  0.1514
13132TIP3    H160887   3.487   4.386   0.577  0.3218 -0.8487  0.7954
13132TIP3    H260888   3.381   4.429   0.676 -0.6140 -0.4325 -0.3592
13133TIP3   OH260889   0.870   5.369   5.196  0.1077  0.6157  0.2100
13133TIP3    H160890   0.787   5.351   5.241 -0.4485 -0.9342 -1.3568
13133TIP3    H260891   0.921   5.418   5.261 -1.4904  0.4255  1.7084
13134TIP3   OH260892   2.730   5.641   0.410  0.1680  0.3988  0.5614
13134TIP3    H160893   2.678   5.588   0.471 -0.9369  0.9105  0.0803
13134TIP3    H260894   2.779   5.576   0.359 -2.0451 -0.2813 -0.8235
13135TIP3   OH260895   3.287   2.994   5.234  0.1952  0.1100 -0.6616
13135TIP3    H160896   3.276   2.966   5.325  0.5321 -0.0077 -0.6566
13135TIP3    H260897   3.240   2.928   5.183  1.1262 -0.5717 -0.6622
13136TIP3   OH260898   5.708   6.452  11.817 -0.2902  0.7487  0.1764
13136TIP3    H160899   5.748   6.538  11.804 -0.5925  0.9994  0.8647
13136TIP3    H260900   5.738   6.400  11.743  1.9539  0.6900  1.0446
13137TIP3   OH260901   0.611   1.676   3.253  0.0102  0.5561  0.6890
13137TIP3    H160902   0.642   1.762   3.225 -0.1672  0.4538  0.1790
13137TIP3    H260903   0.628   1.674   3.347  1.9602  0.3240  0.3613
13138TIP3   OH260904   1.844   4.129   4.398 -0.0546 -0.2367 -0.0778
13138TIP3    H160905   1.749   4.120   4.403  0.0032 -1.1713 -0.5305
13138TIP3    H260906   1.877   4.040   4.393  0.8935  0.0400  0.7315
13139TIP3   OH260907   0.069   0.321   4.274  0.4280  0.4528 -0.5974
13139TIP3    H160908   0.136   0.284   4.331 -0.3518 -1.1602 -0.6638
13139TIP3    H260909  -0.007   0.335   4.332  0.4409  1.2153 -0.7464
13140TIP3   OH260910   6.795   5.166  14.299 -0.0854  0.1979 -0.3982
13140TIP3    H160911   6.786   5.082  14.345 -0.1296 -0.8761 -2.3032
13140TIP3    H260912   6.813   5.229  14.369 -0.9707 -1.2223  1.1832
13141TIP3   OH260913   2.751   2.768  16.158 -0.3582 -0.9843  0.0564
13141TIP3    H160914   2.688   2.729  16.097 -0.6643 -0.9660  0.3611
13141TIP3    H260915   2.697   2.817  16.220  0.0477  0.5031 -0.7119
13142TIP3   OH260916   3.346   2.701   6.597 -0.2138 -0.5034 -0.4551
13142TIP3    H160917   3.394   2.642   6.540  0.0267 -0.8067  0.0487
13142TIP3    H260918   3.354   2.787   6.556  0.8289 -0.5385 -0.3397
13143TIP3   OH260919   0.616   3.891   0.857  0.2498 -0.2323 -0.5122
13143TIP3    H160920   0.683   3.945   0.898  1.2066  1.3862 -3.8996
13143TIP3    H260921   0.651   3.802   0.860  0.6015 -0.0682  1.3660
13144TIP3   OH260922   3.901   1.093   0.806 -0.0696  0.0935 -0.4071
13144TIP3    H160923   3.901   1.182   0.840  1.5713  0.7380 -1.9022
13144TIP3    H260924   3.987   1.057   0.830  1.0177  0.4478 -3.2775
13145TIP3   OH260925   0.415   5.139  16.078  0.9276  0.5945  0.3994
13145TIP3    H160926   0.470   5.188  16.016  0.2975 -0.5349 -1.1141
13145TIP3    H260927   0.325   5.160  16.052  0.6572 -0.4138  0.4860
13146TIP3   OH260928   3.520   6.821   2.327 -0.0027 -0.0501  0.2380
13146TIP3    H160929   3.595   6.792   2.379  0.4181  1.4301  0.4926
13146TIP3    H260930   3.448   6.824   2.390 -0.4687 -1.9972 -0.1149
13147TIP3   OH260931   4.345   5.207   4.080 -0.2386  0.0888 -0.2549
13147TIP3    H160932   4.421   5.162   4.117 -1.4629  0.4883  3.0460
13147TIP3    H260933   4.296   5.138   4.036  1.9701 -0.1539 -2.6337
13148TIP3   OH260934   5.761   4.061  16.040  0.6429  0.3052 -0.3086
13148TIP3    H160935   5.732   4.153  16.041 -2.0611 -0.4537  0.7340
13148TIP3    H260936   5.684   4.012  16.012  2.3183 -1.6366 -1.8207
13149TIP3   OH260937   5.635   6.163  15.793  0.3901 -0.5355 -0.6896
13149TIP3    H160938   5.564   6.226  15.794  1.3529  0.6701 -2.4356
13149TIP3    H260939   5.637   6.127  15.882 -1.3580  0.5386 -0.1670
13150TIP3   OH260940   5.006   2.311  15.793 -0.0581 -0.1695 -0.2956
13150TIP3    H160941   5.016   2.333  15.700 -2.7511  0.2549 -0.5563
13150TIP3    H260942   4.934   2.248  15.795  0.0326 -0.2490  1.5136
13151TIP3   OH260943   4.708   3.605  12.374  0.0714 -0.1388  0.5310
13151TIP3    H160944   4.631   3.640  12.331 -0.0929 -1.0495  0.0534
13151TIP3    H260945   4.702   3.637  12.464 -0.9159 -0.2789  0.5222
13152TIP3   OH260946   4.166   2.525   0.238 -0.5485  0.2727 -0.9069
13152TIP3    H160947   4.228   2.579   0.189  0.2877 -0.5894 -0.8022
13152TIP3    H260948   4.180   2.436   0.207 -0.1363 -0.2774  0.7457
13153TIP3   OH260949   5.309   3.682  13.582  0.0274  0.5139  0.2600
13153TIP3    H160950   5.217   3.700  13.601  0.1103  0.4920  0.6965
13153TIP3    H260951   5.353   3.766  13.598 -0.1048  0.8971 -1.2731
13154TIP3   OH260952   1.772   1.039   0.749  0.3974  0.1251 -0.4891
13154TIP3    H160953   1.689   1.036   0.797  0.7141  0.9880  0.1332
13154TIP3    H260954   1.833   0.989   0.803  0.4828  0.1695 -0.5446
13155TIP3   OH260955   0.750   5.812  16.438  0.7732  0.1305 -0.0613
13155TIP3    H160956   0.813   5.855  16.496 -2.2692  0.9059  2.9989
13155TIP3    H260957   0.714   5.883  16.385  1.5495 -0.0949 -0.9013
13156TIP3   OH260958   5.761   0.966   0.968  0.3239  0.4097  0.2302
13156TIP3    H160959   5.689   0.982   0.906 -3.2336 -3.9690  2.6118
13156TIP3    H260960   5.816   0.902   0.924  0.5336  0.8229 -0.1203
13157TIP3   OH260961   1.323   2.005  14.503  0.1591  0.3588  0.2788
13157TIP3    H160962   1.250   2.059  14.531 -0.7092 -0.5874 -0.0931
13157TIP3    H260963   1.333   1.939  14.572  1.6592  1.3668  1.0753
13158TIP3   OH260964   4.722   5.447   0.184 -0.5795 -0.1556  0.6376
13158TIP3    H160965   4.656   5.429   0.251 -1.8630  2.1540  0.0997
13158TIP3    H260966   4.673   5.448   0.101  0.5943 -0.8419 -0.0998
13159TIP3   OH260967   5.747   1.584  14.903  0.8406 -0.0169  0.4767
13159TIP3    H160968   5.698   1.640  14.964 -1.8752 -2.1849  0.4814
13159TIP3    H260969   5.727   1.495  14.931  2.7389 -1.0520 -1.2089
13160TIP3   OH260970   5.526   2.652  17.174 -0.0325  0.3424  0.0799
13160TIP3    H160971   5.445   2.697  17.198  0.9643  1.5042  1.4339
13160TIP3    H260972   5.556   2.612  17.256  0.3187 -0.8486 -0.6078
13161TIP3   OH260973   2.144   3.941  16.398 -0.0329  0.2468 -0.2618
13161TIP3    H160974   2.113   3.861  16.354  0.5384 -1.2565  1.9197
13161TIP3    H260975   2.199   3.909  16.470  2.4646  2.7035 -0.9288
13162TIP3   OH260976   1.950   5.882  11.238 -0.0467  0.2150  0.4787
13162TIP3    H160977   2.012   5.876  11.310  1.1171  0.6312 -0.4540
13162TIP3    H260978   1.942   5.793  11.205  0.0308  0.1566  0.6181
13163TIP3   OH260979   0.415   3.108   4.173  0.7641  0.0025 -0.2408
13163TIP3    H160980   0.384   3.197   4.185 -1.3271 -0.7408  0.2500
13163TIP3    H260981   0.436   3.102   4.080 -2.2552  0.1496 -1.0468
13164TIP3   OH260982   4.010   4.069   6.547  0.1194  0.3056  0.9729
13164TIP3    H160983   4.051   4.098   6.628  1.0750  0.9263  0.2863
13164TIP3    H260984   4.015   3.973   6.551  0.1662  0.3322  1.6331
13165TIP3   OH260985   1.217   6.338  15.404  0.1379  0.7208  0.5184
13165TIP3    H160986   1.121   6.343  15.408 -0.3926 -1.6970 -3.6424
13165TIP3    H260987   1.237   6.245  15.416  1.9776  1.1429  1.0413
13166TIP3   OH260988   6.089   2.705  15.716  0.7057 -0.3466  0.2697
13166TIP3    H160989   6.102   2.794  15.684 -3.8403  0.0939 -1.0676
13166TIP3    H260990   6.082   2.714  15.811  1.2207  0.5233  0.2383
13167TIP3   OH260991   3.141   0.610  14.506 -0.4698 -0.3714  0.2676
13167TIP3    H160992   3.182   0.524  14.511 -0.8163 -0.5145  0.7902
13167TIP3    H260993   3.097   0.610  14.421  1.8116  0.3563 -0.9814
13168TIP3   OH260994   6.184   0.600   5.848 -0.0129  0.0011 -0.0125
13168TIP3    H160995   6.156   0.686   5.880 -2.1913  0.2825 -2.3215
13168TIP3    H260996   6.220   0.618   5.761 -0.0372 -1.3669 -0.3265
13169TIP3   OH260997   1.048   4.229   0.640  0.1184  0.4996 -0.6801
13169TIP3    H160998   1.138   4.248   0.667  0.8778  0.7801 -3.2023
13169TIP3    H260999   1.054   4.213   0.546 -2.3764 -0.2346 -0.7739
13170TIP3   OH261000   4.997   0.217   1.160 -0.0746 -0.0651  0.0826
13170TIP3    H161001   4.961   0.202   1.073 -1.4917 -0.4324  0.6954
13170TIP3    H261002   5.038   0.303   1.155  0.0759 -0.1886 -1.0067
13171TIP3   OH261003   6.253   4.565   1.077 -0.1347 -0.1997  0.1980
13171TIP3    H161004   6.158   4.581   1.074  0.1953  2.4044  0.9566
13171TIP3    H261005   6.271   4.543   1.168 -0.2558 -3.1438 -0.4074
13172TIP3   OH261006   2.412   4.395   5.677 -0.5780  0.2207 -0.1714
13172TIP3    H161007   2.362   4.391   5.758 -1.0723  0.3777 -0.4670
13172TIP3    H261008   2.502   4.372   5.703 -0.8030 -0.0782  0.3562
13173TIP3   OH261009   1.249   6.833  11.972  0.3990 -0.2866  0.0190
13173TIP3    H161010   1.209   6.847  11.886  0.9405 -1.5457 -0.4517
13173TIP3    H261011   1.198   6.889  12.031  1.5296  2.5131 -1.4600
13174TIP3   OH261012   2.263   5.579   5.677  0.7415 -0.0473 -0.4956
13174TIP3    H161013   2.273   5.595   5.771 -2.5277  0.2599 -0.1030
13174TIP3    H261014   2.245   5.485   5.670  1.8002 -0.2342 -0.9499
13175TIP3   OH261015   3.600   6.233  10.632 -0.1328  0.4134  0.0555
13175TIP3    H161016   3.647   6.294  10.689  0.8291  0.3011 -0.6050
13175TIP3    H261017   3.549   6.290  10.573  1.1361  0.6219 -0.8807
13176TIP3   OH261018   1.598   1.630   4.545 -0.2485  0.0229 -0.3188
13176TIP3    H161019   1.668   1.655   4.484  1.0126  0.5686  1.2998
13176TIP3    H261020   1.594   1.534   4.538  0.4151  0.0176 -0.6901
13177TIP3   OH261021   4.041   2.514   4.277 -0.0061 -0.1545 -0.0909
13177TIP3    H161022   4.047   2.449   4.347  0.3433  0.8906  0.8711
13177TIP3    H261023   4.024   2.597   4.322  0.8559  0.6478 -1.1795
13178TIP3   OH261024   1.726   6.166   2.116 -0.2006 -0.1187 -0.5495
13178TIP3    H161025   1.799   6.156   2.177  0.8836  0.6654 -1.6538
13178TIP3    H261026   1.750   6.242   2.063 -2.3235  0.7843 -0.2895
13179TIP3   OH261027   2.097   0.478   0.541  0.2808 -0.1952 -0.0566
13179TIP3    H161028   2.049   0.462   0.622  0.1118  0.7265  0.0372
13179TIP3    H261029   2.089   0.572   0.526 -1.0178 -0.5366 -1.9669
13180TIP3   OH261030   5.348   5.584  11.672 -0.6851 -0.0918 -0.0385
13180TIP3    H161031   5.402   5.629  11.737 -0.7238  1.1717 -0.8460
13180TIP3    H261032   5.260   5.582  11.711 -0.4178 -0.6487  0.5560
13181TIP3   OH261033   0.900   0.657   4.981 -0.0301  0.2974 -0.0835
13181TIP3    H161034   0.852   0.647   4.898  0.2373 -1.0569 -0.0979
13181TIP3    H261035   0.957   0.733   4.966 -0.5460  0.5510 -0.8545
13182TIP3   OH261036   2.303   3.582   3.967 -0.0250  0.2111  0.0831
13182TIP3    H161037   2.333   3.492   3.974 -0.2684  0.1305  0.1143
13182TIP3    H261038   2.207   3.576   3.973 -0.5925 -0.0768 -5.1068
13183TIP3   OH261039   3.061   5.740  12.435 -0.3169 -0.0643  0.1298
13183TIP3    H161040   2.990   5.775  12.490 -0.1714 -0.2992  0.4735
13183TIP3    H261041   3.090   5.662  12.481  0.0414 -0.0743 -0.1081
13184TIP3   OH261042   3.628   1.683   0.278 -0.3735 -0.1720 -0.0424
13184TIP3    H161043   3.679   1.606   0.303 -1.8917 -0.9623  0.7957
13184TIP3    H261044   3.633   1.741   0.354  0.1949  0.2597 -0.4026
13185TIP3   OH261045   3.272   4.347  15.260 -0.1751  0.3133 -0.0591
13185TIP3    H161046   3.241   4.433  15.232  3.0929  1.8936  0.6709
13185TIP3    H261047   3.235   4.335  15.347 -1.3952  0.4878 -0.5274
13186TIP3   OH261048   0.526   2.780   4.309 -0.1781 -0.3549 -0.2622
13186TIP3    H161049   0.559   2.864   4.341 -1.4237 -0.6500  2.0748
13186TIP3    H261050   0.579   2.714   4.355 -0.7613 -0.8106 -0.2231
13187TIP3   OH261051   1.613   3.569  16.825  0.0453  0.0590 -0.0177
13187TIP3    H161052   1.620   3.633  16.754 -0.3451 -0.1734 -0.2691
13187TIP3    H261053   1.546   3.605  16.883 -0.8391 -0.5505 -0.6287
13188TIP3   OH261054   0.115   2.348   3.982 -0.3206  0.3168  0.2794
13188TIP3    H161055   0.028   2.332   3.945 -0.2031 -1.1001  0.5723
13188TIP3    H261056   0.174   2.294   3.929  0.0903 -0.3240  1.3566
13189TIP3   OH261057   1.903   4.099   3.513 -0.7481  0.2367  0.0472
13189TIP3    H161058   1.971   4.077   3.576 -0.4280  0.2569 -0.2901
13189TIP3    H261059   1.877   4.189   3.535 -0.9474  0.0913  0.4234
13190TIP3   OH261060   6.249   1.740  13.948 -0.2298 -0.1370 -0.1008
13190TIP3    H161061   6.247   1.803  13.876 -1.2918  1.4218  1.2381
13190TIP3    H261062   6.339   1.743  13.980 -0.1639  0.3913 -0.3201
13191TIP3   OH261063   4.163   6.445   2.634 -0.8052 -0.5916  0.0135
13191TIP3    H161064   4.191   6.360   2.601  0.4500 -0.5558  0.9037
13191TIP3    H261065   4.144   6.497   2.555  0.0835 -1.1478 -0.5774
13192TIP3   OH261066   4.472   5.364   1.067  0.0980  0.0133  0.2428
13192TIP3    H161067   4.400   5.422   1.042  0.0256  0.4211  1.3235
13192TIP3    H261068   4.454   5.342   1.159  1.2095 -0.0881  0.4555
13193TIP3   OH261069   4.997   1.812  15.072 -0.1015  0.4403  0.3748
13193TIP3    H161070   4.961   1.737  15.025  0.9687  0.5082 -0.5978
13193TIP3    H261071   5.086   1.820  15.039 -0.0997  1.9629  0.6931
13194TIP3   OH261072   2.459   4.209   4.240  0.0761  0.0928 -0.1433
13194TIP3    H161073   2.421   4.183   4.324 -0.9233  2.4269  0.2001
13194TIP3    H261074   2.541   4.161   4.236 -0.2538 -0.7569  1.7659
13195TIP3   OH261075   4.551   6.183   3.725  0.4175 -0.7287 -0.1511
13195TIP3    H161076   4.624   6.231   3.684  0.4023 -2.4739 -2.3811
13195TIP3    H261077   4.593   6.129   3.792  0.9462 -0.5007 -0.2890
13196TIP3   OH261078   5.720   4.171  16.713  0.1400 -0.2242 -0.1254
13196TIP3    H161079   5.798   4.182  16.768  0.0926 -1.1523  0.1435
13196TIP3    H261080   5.706   4.076  16.710 -1.3226 -0.0399  0.3070
13197TIP3   OH261081   4.096   6.099   1.122  0.8955  0.5454  0.4353
13197TIP3    H161082   4.152   6.146   1.059  1.0908 -1.6290 -1.1125
13197TIP3    H261083   4.155   6.040   1.168  0.4427  0.8419  1.4271
13198TIP3   OH261084   6.606   3.670  12.203  0.2635  0.1049  0.1644
13198TIP3    H161085   6.674   3.699  12.264 -0.5220  1.1176  0.5840
13198TIP3    H261086   6.643   3.686  12.117 -0.1918  2.6081  0.3705
13199TIP3   OH261087   5.126   4.173   2.315  0.2053  0.1463  0.2310
13199TIP3    H161088   5.048   4.189   2.261  1.8739  1.0477 -2.1005
13199TIP3    H261089   5.126   4.245   2.379 -1.6614 -0.7690  1.3536
13200TIP3   OH261090   2.319   5.768  15.777 -0.5193  0.5817  0.2881
13200TIP3    H161091   2.333   5.859  15.804  1.9999 -0.0619  1.4342
13200TIP3    H261092   2.272   5.728  15.851  3.3114 -0.3188  2.4645
13201TIP3   OH261093   2.399   3.220  14.752  0.1594  0.0062  0.0939
13201TIP3    H161094   2.456   3.147  14.777  1.5467  1.0902  0.2298
13201TIP3    H261095   2.451   3.298  14.771 -0.8666  1.0121 -1.0674
13202TIP3   OH261096   4.727   6.433  12.539 -0.8257  0.6874  0.1073
13202TIP3    H161097   4.727   6.447  12.633  2.8571 -0.5543  0.4166
13202TIP3    H261098   4.755   6.516  12.502  0.3447  0.4003  0.3312
13203TIP3   OH261099   4.823   2.504  11.742  0.1622 -0.1944  0.3030
13203TIP3    H161100   4.846   2.548  11.660  0.0348  0.4275  0.5895
13203TIP3    H261101   4.735   2.469  11.727 -0.6032  1.4197  0.7260
13204TIP3   OH261102   3.342   3.387  11.165 -0.0836  0.0959  0.4748
13204TIP3    H161103   3.256   3.428  11.163  0.4379  1.3416 -2.8816
13204TIP3    H261104   3.403   3.461  11.162  1.1421 -0.7872  2.1913
13205TIP3   OH261105   3.264   6.048   4.782 -0.6105 -0.2273  0.6952
13205TIP3    H161106   3.308   6.045   4.866  0.4320  1.9490  0.2889
13205TIP3    H261107   3.179   6.088   4.801 -1.2617 -1.6999  1.0096
13206TIP3   OH261108   0.233   4.412  16.557  0.9543  0.3503 -0.3106
13206TIP3    H161109   0.287   4.344  16.597 -0.8934 -0.3000  1.2410
13206TIP3    H261110   0.262   4.494  16.598  0.7664  0.0049  0.5277
13207TIP3   OH261111   6.230   2.147  16.949  0.1445 -0.3919 -0.5377
13207TIP3    H161112   6.137   2.140  16.928  0.5114 -1.0455 -2.0587
13207TIP3    H261113   6.236   2.124  17.042 -1.0416 -1.6842 -0.7617
13208TIP3   OH261114   5.898   0.761   0.582  0.0244  0.4437  0.3252
13208TIP3    H161115   5.917   0.792   0.670 -0.9661  2.5758 -0.1424
13208TIP3    H261116   5.857   0.675   0.595  0.8594  0.2380  1.8436
13209TIP3   OH261117   0.952   0.193  13.871 -0.1070  0.3328 -0.3426
13209TIP3    H161118   0.858   0.188  13.857 -0.3208 -1.0139  1.2529
13209TIP3    H261119   0.983   0.255  13.805 -2.2193  1.5670 -0.2576
13210TIP3   OH261120   5.209   0.929  13.315 -0.0940  0.5477 -0.5687
13210TIP3    H161121   5.227   0.867  13.385  1.6538 -0.4191 -1.7937
13210TIP3    H261122   5.252   1.010  13.342  1.6142 -0.1702 -1.0037
13211TIP3   OH261123   0.456   0.883  12.535  0.0585 -0.0549  0.2205
13211TIP3    H161124   0.434   0.797  12.570  1.0642 -0.7398 -0.7463
13211TIP3    H261125   0.405   0.944  12.588 -0.2742 -1.1963  1.2791
13212TIP3   OH261126   0.740   5.708   2.577 -0.0361  0.3024 -0.1325
13212TIP3    H161127   0.835   5.718   2.587 -0.1683  1.0942  0.4218
13212TIP3    H261128   0.703   5.773   2.637 -0.9337 -0.4881  0.1806
13213TIP3   OH261129   3.018   0.903   0.101  0.3497  0.0467 -0.0725
13213TIP3    H161130   3.047   0.967   0.166  0.6174  1.7173 -1.7483
13213TIP3    H261131   3.091   0.840   0.095  2.0538  1.9841 -1.3737
13214TIP3   OH261132   3.360   4.683   4.566 -0.3886 -0.1310 -0.0302
13214TIP3    H161133   3.301   4.758   4.556 -0.7845 -0.5999 -1.5328
13214TIP3    H261134   3.414   4.685   4.487  0.9563 -0.2978  0.8499
13215TIP3   OH261135   6.743   5.938  11.123  0.2086 -0.0841 -0.1937
13215TIP3    H161136   6.674   6.001  11.105 -0.1798  0.0494  1.5887
13215TIP3    H261137   6.757   5.892  11.040 -2.0531 -0.1597 -0.5719
13216TIP3   OH261138   5.088   0.928  14.408 -0.1186 -0.1250  0.5182
13216TIP3    H161139   5.032   0.867  14.360  1.8820 -0.9362 -0.8986
13216TIP3    H261140   5.105   0.999  14.347  1.8743 -0.8130  0.1993
13217TIP3   OH261141   3.995   2.028   0.902  0.1744 -0.0403  1.0294
13217TIP3    H161142   3.912   1.995   0.938  0.0631 -1.4351 -0.3972
13217TIP3    H261143   3.981   2.122   0.894 -0.6115  0.0004  2.4353
13218TIP3   OH261144   5.390   2.920  14.710  0.2163  0.2968  0.7637
13218TIP3    H161145   5.428   3.003  14.678 -0.5229  0.1630 -0.5580
13218TIP3    H261146   5.364   2.939  14.800 -1.8598  2.2001 -0.1421
13219TIP3   OH261147   5.711   0.313  12.207  0.3717  0.4424 -0.0068
13219TIP3    H161148   5.677   0.227  12.184  2.1047  0.0113 -1.1467
13219TIP3    H261149   5.699   0.366  12.129  1.3087  0.5772 -0.0766
13220TIP3   OH261150   5.909   4.866   1.278 -0.1814 -0.1914 -0.2026
13220TIP3    H161151   5.881   4.888   1.367 -3.2379 -0.5308 -0.9598
13220TIP3    H261152   5.911   4.949   1.232 -0.4776 -0.2114 -0.2568
13221TIP3   OH261153   1.942   3.841  11.392 -0.1254 -0.1908 -0.0188
13221TIP3    H161154   2.036   3.860  11.396  0.1759 -1.8012  1.5949
13221TIP3    H261155   1.900   3.924  11.415  0.7946  0.9105 -1.9891
13222TIP3   OH261156   4.831   4.556   6.495  0.7027 -0.5752  0.0536
13222TIP3    H161157   4.887   4.526   6.423 -0.1263 -2.1116 -0.0050
13222TIP3    H261158   4.759   4.602   6.452  1.1676  0.1429  0.0346
13223TIP3   OH261159   1.628   4.979  11.274  0.3935 -0.6176 -0.0180
13223TIP3    H161160   1.634   5.058  11.221  2.8978 -0.6025  0.1594
13223TIP3    H261161   1.598   4.912  11.212 -1.7317  0.3951 -0.1744
13224TIP3   OH261162   5.368   0.440   0.250 -0.6080 -0.2612 -0.2254
13224TIP3    H161163   5.451   0.456   0.206 -0.3976  0.8207  0.5067
13224TIP3    H261164   5.375   0.350   0.282 -0.3934 -0.7335 -1.5619
13225TIP3   OH261165   2.259   2.478   6.045 -0.3126  0.4796  0.1923
13225TIP3    H161166   2.331   2.465   6.107 -0.5945 -1.6507  0.1369
13225TIP3    H261167   2.295   2.451   5.961 -1.2353 -0.9505  0.2259
13226TIP3   OH261168   1.977   5.312   5.889  0.0981  0.4076 -0.2155
13226TIP3    H161169   1.924   5.348   5.818 -0.3172  0.3805  0.0795
13226TIP3    H261170   1.934   5.230   5.911  0.5860  0.1112 -0.3482
13227TIP3   OH261171   0.098   2.835   1.778 -0.0374 -0.0203 -0.0206
13227TIP3    H161172   0.058   2.852   1.863  2.2428  0.5083  1.0218
13227TIP3    H261173   0.116   2.922   1.742 -0.3252 -0.2464 -0.7318
13228TIP3   OH261174   4.114   3.212   1.593  0.4751  0.0341  0.2826
13228TIP3    H161175   4.100   3.271   1.520  0.1695 -1.3865 -0.8543
13228TIP3    H261176   4.114   3.125   1.554 -0.7315 -0.8451  2.0935
13229TIP3   OH261177   4.119   5.451  16.489 -0.3059 -0.0563 -0.0757
13229TIP3    H161178   4.151   5.473  16.577  0.3056 -2.8302  0.5193
13229TIP3    H261179   4.047   5.390  16.505 -0.7169  0.0186 -1.5188
13230TIP3   OH261180   4.129   6.474   5.594 -0.3616 -0.1515  0.4067
13230TIP3    H161181   4.175   6.412   5.537  0.5499  0.6113  0.2979
13230TIP3    H261182   4.038   6.443   5.594 -0.1166 -0.9140 -0.4333
13231TIP3   OH261183   1.183   4.151  15.470 -1.0065 -0.0949 -0.3418
13231TIP3    H161184   1.183   4.246  15.487  1.0478 -0.0733 -0.1981
13231TIP3    H261185   1.165   4.144  15.376 -0.2611  0.5023 -0.5367
13232TIP3   OH261186   5.005   4.900   5.299  0.2322  0.5318 -0.2995
13232TIP3    H161187   4.919   4.891   5.340  0.6689  0.3630  0.5932
13232TIP3    H261188   5.036   4.811   5.287  0.0025  0.5659 -1.2587
13233TIP3   OH261189   1.265   1.081  15.781  0.1933 -0.6384  0.5952
13233TIP3    H161190   1.358   1.082  15.760  0.2041  0.7451  0.6670
13233TIP3    H261191   1.249   0.992  15.815  1.3488 -1.0711  0.0488
13234TIP3   OH261192   2.095   6.759  15.623  0.2892 -0.3243  0.3848
13234TIP3    H161193   2.057   6.679  15.585  0.5119 -0.4776  0.4815
13234TIP3    H261194   2.041   6.830  15.588  0.5928 -0.4457 -0.3618
13235TIP3   OH261195   2.054   0.775   4.369 -0.5193 -0.2700 -0.5736
13235TIP3    H161196   2.131   0.832   4.371  0.7070 -1.8750  0.1257
13235TIP3    H261197   1.980   0.835   4.366  0.6387  1.4067  1.5641
13236TIP3   OH261198   2.133   2.611   0.166 -0.2662 -0.1878 -0.1487
13236TIP3    H161199   2.208   2.554   0.181 -0.0536 -0.0025 -0.4830
13236TIP3    H261200   2.169   2.686   0.119 -0.6856 -0.1634 -0.4364
13237TIP3   OH261201   4.677   0.756  16.966  0.4951 -0.3134  0.5164
13237TIP3    H161202   4.723   0.790  17.042  1.1442 -0.7170  0.3051
13237TIP3    H261203   4.617   0.691  17.001  1.4548 -1.1731  0.5906
13238TIP3   OH261204   3.665   1.940   6.144 -0.0085 -0.1131  0.0088
13238TIP3    H161205   3.678   1.874   6.213  1.1947 -0.1957 -0.2651
13238TIP3    H261206   3.740   1.999   6.153 -0.7619  0.8923 -0.1328
13239TIP3   OH261207   1.031   1.446  12.675  0.0794  0.0771 -0.2280
13239TIP3    H161208   0.999   1.536  12.682  3.0994  1.2251  0.2162
13239TIP3    H261209   1.060   1.424  12.764 -1.5767 -1.8131 -0.0747
13240TIP3   OH261210   5.795   1.261   3.602  0.5339 -0.8308  0.5225
13240TIP3    H161211   5.889   1.255   3.583  0.2684 -1.1249 -0.8199
13240TIP3    H261212   5.779   1.354   3.616  0.4840 -0.2799 -2.5720
13241TIP3   OH261213   2.965   0.724  15.265 -0.0661 -0.6166  0.5878
13241TIP3    H161214   2.933   0.663  15.198  2.3666 -1.7334  0.3358
13241TIP3    H261215   3.058   0.735  15.244  0.5491 -0.2808  3.2407
13242TIP3   OH261216   1.667   1.254  17.067  0.1014 -0.2097  0.1811
13242TIP3    H161217   1.696   1.312  17.137  0.1878 -1.5338  1.2845
13242TIP3    H261218   1.725   1.179  17.073 -0.7248 -0.9197 -0.4812
13243TIP3   OH261219   3.873   2.726  13.531  0.1279  0.1804 -0.3823
13243TIP3    H161220   3.795   2.776  13.508 -1.1233 -1.6506 -0.2843
13243TIP3    H261221   3.851   2.635  13.512  2.7165 -0.2982 -1.5859
13244TIP3   OH261222   6.625   6.679  16.527  0.0537  0.4946 -0.6893
13244TIP3    H161223   6.538   6.717  16.515 -0.1106  0.3722  0.0407
13244TIP3    H261224   6.657   6.718  16.609  0.6795  0.5222 -0.9382
13245TIP3   OH261225   6.394   0.253   3.412 -0.1566 -0.2602  0.2922
13245TIP3    H161226   6.351   0.169   3.399 -1.6711  0.6324 -1.0860
13245TIP3    H261227   6.367   0.281   3.499 -0.7028 -0.6469  0.2539
13246TIP3   OH261228   2.506   6.299   2.585 -0.2446  0.5755 -0.0311
13246TIP3    H161229   2.548   6.322   2.668  1.3252 -1.6026 -0.1205
13246TIP3    H261230   2.431   6.245   2.611  0.8393 -0.9915  0.0422
13247TIP3   OH261231   2.722   6.084  14.668  0.0066 -0.0440 -0.0688
13247TIP3    H161232   2.787   6.015  14.657 -0.1631 -0.5916  1.8851
13247TIP3    H261233   2.643   6.038  14.698 -0.6956  0.8108 -0.5480
13248TIP3   OH261234   4.755   2.303  11.150  0.0527 -0.4395 -0.0267
13248TIP3    H161235   4.710   2.294  11.066 -0.3504 -0.0312  0.1441
13248TIP3    H261236   4.732   2.223  11.199 -1.8904  0.5118  0.7161
13249TIP3   OH261237   4.407   3.878   1.797  0.0333  0.1780 -0.1261
13249TIP3    H161238   4.459   3.925   1.732  0.9908 -1.3829 -0.5580
13249TIP3    H261239   4.325   3.858   1.752 -1.0406  2.6514  0.5586
13250TIP3   OH261240   2.029   3.486   3.382  0.0353 -0.2143 -0.2089
13250TIP3    H161241   2.116   3.483   3.342 -0.9045  1.1005 -2.6217
13250TIP3    H261242   2.038   3.548   3.454  0.6719  1.8145 -1.9007
13251TIP3   OH261243   1.453   0.973   4.207  0.1564  0.3731  0.1168
13251TIP3    H161244   1.530   0.920   4.229  1.7887  2.7255  0.4855
13251TIP3    H261245   1.447   0.969   4.112  1.2878  0.8281  0.0108
13252TIP3   OH261246   2.488   2.618   0.832 -0.4442  0.3675 -0.4603
13252TIP3    H161247   2.427   2.547   0.856  1.2412 -1.0959 -0.3207
13252TIP3    H261248   2.518   2.595   0.744 -0.3316  1.2638 -0.6671
13253TIP3   OH261249   6.381   1.877  11.961  0.0908 -0.1297  0.3192
13253TIP3    H161250   6.304   1.912  12.005 -0.4752 -0.0539 -0.7120
13253TIP3    H261251   6.366   1.782  11.957 -0.4074 -0.0179 -0.7214
13254TIP3   OH261252   5.862   1.130   5.607 -0.1335 -0.0428  0.2366
13254TIP3    H161253   5.827   1.139   5.696  1.1930 -2.2036  1.0376
13254TIP3    H261254   5.950   1.166   5.612  0.6737 -1.9306  0.3527
13255TIP3   OH261255   3.927   4.176  11.603  0.4912 -0.1410  0.1802
13255TIP3    H161256   3.993   4.129  11.552 -0.0728 -0.6262 -0.1149
13255TIP3    H261257   3.978   4.233  11.660  1.1676  2.3525 -2.6603
13256TIP3   OH261258   4.035   5.025  12.278  0.0946 -0.0549  0.6473
13256TIP3    H161259   4.010   5.011  12.369 -0.1747  0.0924  0.5972
13256TIP3    H261260   4.108   4.965  12.263  1.4143  1.2628  1.5084
13257TIP3   OH261261   1.557   6.317   3.092 -0.1222 -0.1539  0.5228
13257TIP3    H161262   1.594   6.381   3.031 -0.4863  0.0418  0.5009
13257TIP3    H261263   1.571   6.354   3.179  1.1065 -0.8055  0.6178
13258TIP3   OH261264   4.397   3.750   4.434 -0.6181  0.1162  0.0840
13258TIP3    H161265   4.398   3.773   4.341  0.6379  0.5854  0.2048
13258TIP3    H261266   4.329   3.805   4.472 -1.1700 -0.1088 -0.5513
13259TIP3   OH261267   0.550   5.040  13.882 -0.3320 -0.7998 -0.2449
13259TIP3    H161268   0.600   5.097  13.822 -0.2667 -0.2645  0.3110
13259TIP3    H261269   0.605   5.033  13.960 -1.3748  0.3114  0.6347
13260TIP3   OH261270   1.876   6.419  11.299  0.8098 -0.1627  0.0068
13260TIP3    H161271   1.891   6.480  11.226  0.1510  0.6935  0.5795
13260TIP3    H261272   1.784   6.395  11.291 -0.2822  2.6067  2.4993
13261TIP3   OH261273   2.737   1.378   3.038 -0.9831  0.6021 -0.3789
13261TIP3    H161274   2.794   1.305   3.015 -1.2423  0.4759 -0.6225
13261TIP3    H261275   2.675   1.384   2.966 -1.6406  0.3655  0.1581
13262TIP3   OH261276   5.436   5.726   6.406 -0.3381 -0.3818  0.6419
13262TIP3    H161277   5.369   5.788   6.377 -0.0985 -0.2098  0.4571
13262TIP3    H261278   5.500   5.779   6.453  0.3815 -0.3242 -0.3641
13263TIP3   OH261279   2.235   5.575  15.960  0.2939  0.9489 -0.1133
13263TIP3    H161280   2.194   5.507  15.908 -1.5977  1.7129  0.2823
13263TIP3    H261281   2.218   5.549  16.051  0.0984  1.6061  0.0460
13264TIP3   OH261282   1.193   0.003   5.778  0.3578  0.1525 -0.6308
13264TIP3    H161283   1.242  -0.077   5.761 -0.7478 -0.6485 -0.1910
13264TIP3    H261284   1.202   0.018   5.872 -0.8240 -0.4394 -0.3971
13265TIP3   OH261285   6.293   6.070   3.354  0.1632  0.2497  0.3551
13265TIP3    H161286   6.249   6.005   3.300 -1.5889  0.7857  1.0541
13265TIP3    H261287   6.384   6.041   3.358 -0.3642 -1.6057 -0.1491
13266TIP3   OH261288   6.656   3.120  15.252  0.7828  0.6797 -0.2103
13266TIP3    H161289   6.700   3.037  15.232  0.1236  0.3690 -0.3756
13266TIP3    H261290   6.637   3.158  15.167  0.8445  0.8795 -0.1364
13267TIP3   OH261291   2.212   5.687   1.455 -0.3760  0.2415  0.4987
13267TIP3    H161292   2.144   5.681   1.522 -1.1790 -0.7549 -0.3732
13267TIP3    H261293   2.221   5.781   1.439 -2.0543  0.3721  0.1504
13268TIP3   OH261294   2.016   2.033  15.190 -0.2369 -0.2027 -0.0961
13268TIP3    H161295   2.036   2.008  15.100 -1.3486 -2.2698  0.1587
13268TIP3    H261296   1.921   2.041  15.192 -0.0678  2.9822  0.2133
13269TIP3   OH261297   4.207   2.275   0.109 -0.1463 -0.0117  0.5869
13269TIP3    H161298   4.233   2.234   0.191  1.4407  0.3120  0.2831
13269TIP3    H261299   4.168   2.204   0.058  1.9039 -1.0469  0.3476
13270TIP3   OH261300   2.226   2.145  16.792  0.0478  0.1763  0.6583
13270TIP3    H161301   2.189   2.164  16.878 -1.8932 -1.5104  0.2585
13270TIP3    H261302   2.186   2.209  16.734 -1.9164 -1.2782  0.3306
13271TIP3   OH261303   3.459   6.590  16.822  0.1314  0.5549  0.1060
13271TIP3    H161304   3.436   6.512  16.771 -0.9459  1.0945 -0.2797
13271TIP3    H261305   3.552   6.604  16.805  0.0854 -0.0357 -0.6719
13272TIP3   OH261306   6.289   5.803   2.954  0.8700 -0.2568  0.3774
13272TIP3    H161307   6.329   5.861   2.889  1.5384 -0.5857  0.4832
13272TIP3    H261308   6.237   5.742   2.904  1.5166 -0.6131  0.1331
13273TIP3   OH261309   4.374   1.432  13.275  0.1034  0.4980  0.3951
13273TIP3    H161310   4.469   1.434  13.268  0.1612  0.3000  1.0638
13273TIP3    H261311   4.343   1.466  13.191  0.7310 -1.3110 -0.6151
13274TIP3   OH261312   2.173   1.223  17.125 -0.4025  0.1477 -0.5954
13274TIP3    H161313   2.168   1.134  17.161 -1.6382  0.2270 -0.5123
13274TIP3    H261314   2.132   1.216  17.039 -0.3711  0.5973 -0.6483
13275TIP3   OH261315   6.030   1.665  15.103  0.1512  0.1067 -0.0551
13275TIP3    H161316   6.040   1.571  15.087  0.6849  0.4335 -1.8068
13275TIP3    H261317   6.107   1.705  15.063 -1.1213  1.4595 -1.2915
13276TIP3   OH261318   4.829   1.150   3.985 -0.1328  0.5277 -0.2920
13276TIP3    H161319   4.821   1.058   3.960  0.1772  0.0751  1.1833
13276TIP3    H261320   4.886   1.189   3.919  0.8421 -0.6721 -0.1893
13277TIP3   OH261321   6.084   2.642  14.101  0.4325  0.0119 -0.4692
13277TIP3    H161322   6.147   2.646  14.174 -0.4799 -1.5308  0.4596
13277TIP3    H261323   6.138   2.627  14.024  1.4595  2.0600 -0.2112
13278TIP3   OH261324   6.083   4.659   2.296  0.2863  0.4227 -0.9116
13278TIP3    H161325   6.049   4.654   2.385  4.3918  1.3717  0.9460
13278TIP3    H261326   6.005   4.650   2.240 -2.3015 -1.9867  2.6315
13279TIP3   OH261327   0.848   3.618   3.210 -0.4763 -0.2270  0.2037
13279TIP3    H161328   0.758   3.611   3.177 -0.9533  0.3422  1.3162
13279TIP3    H261329   0.903   3.609   3.132 -1.5824  2.1520 -0.9826
13280TIP3   OH261330   4.140   1.738   6.164  0.1428 -0.8600 -0.1199
13280TIP3    H161331   4.115   1.751   6.072 -1.4144  0.8377  0.4760
13280TIP3    H261332   4.074   1.679   6.198 -0.7612  0.4456  0.4717
13281TIP3   OH261333   2.077   3.512   0.297  0.0319 -0.6007  0.0886
13281TIP3    H161334   2.083   3.548   0.385 -0.0961  0.9921 -0.5237
13281TIP3    H261335   2.114   3.580   0.240 -0.5773 -1.2769 -1.1632
13282TIP3   OH261336   6.255   5.209  13.730  0.3072 -0.3265 -0.4273
13282TIP3    H161337   6.242   5.295  13.690  1.4718  1.5902  2.9213
13282TIP3    H261338   6.177   5.195  13.783  0.6191 -0.8351 -0.0923
13283TIP3   OH261339   3.944   5.703   0.317 -0.0881 -0.0738 -0.2176
13283TIP3    H161340   4.008   5.732   0.252  0.2457  0.2363  0.2475
13283TIP3    H261341   3.985   5.627   0.358  0.9649  1.3811  1.5789
13284TIP3   OH261342   1.525   1.109   3.706  0.1229 -0.0160  0.0592
13284TIP3    H161343   1.514   1.021   3.742  0.3685 -0.7724 -1.6298
13284TIP3    H261344   1.435   1.140   3.689  0.0784 -1.0691 -1.8692
13285TIP3   OH261345   5.189   1.319  11.533 -0.7601  0.4392 -0.1823
13285TIP3    H161346   5.263   1.333  11.593  1.3269  1.7554 -2.8455
13285TIP3    H261347   5.143   1.244  11.570  1.6377 -0.1720  1.8997
13286TIP3   OH261348   3.512   3.704   3.514  0.6159 -0.3064 -0.1083
13286TIP3    H161349   3.600   3.714   3.480  0.1127  2.0798 -0.9075
13286TIP3    H261350   3.455   3.708   3.437 -0.2504 -0.8679  0.4726
13287TIP3   OH261351   2.074   3.026  12.631 -0.0908 -0.6368 -0.4075
13287TIP3    H161352   1.981   3.005  12.623  0.4940 -3.1680 -1.7283
13287TIP3    H261353   2.111   2.953  12.681  1.2537  0.1656 -0.1690
13288TIP3   OH261354   5.402   4.476  15.953  0.4773  0.7613  0.2764
13288TIP3    H161355   5.329   4.533  15.928  0.5496  0.7194 -0.0306
13288TIP3    H261356   5.361   4.403  16.000  0.4684  1.5510  1.5556
13289TIP3   OH261357   0.756   3.547  12.708  0.4447  0.6795  0.1754
13289TIP3    H161358   0.734   3.594  12.627 -0.1333  0.5213  0.2354
13289TIP3    H261359   0.815   3.477  12.679 -0.4594  0.0746 -0.2497
13290TIP3   OH261360   0.760   5.052   4.062 -0.2453  0.6573 -0.1194
13290TIP3    H161361   0.796   5.051   3.974 -1.4661 -1.2140 -0.6545
13290TIP3    H261362   0.666   5.067   4.050 -1.0499 -2.9947  0.4817
13291TIP3   OH261363   3.130   6.054   0.109 -0.5992 -0.1944  0.0420
13291TIP3    H161364   3.097   6.143   0.121 -0.8014  0.1560 -2.5369
13291TIP3    H261365   3.226   6.063   0.108 -0.6331  0.1261 -0.9287
13292TIP3   OH261366   3.357   1.735   0.227 -0.4958 -0.4744 -0.0517
13292TIP3    H161367   3.440   1.689   0.240  0.1888 -0.0224 -2.3417
13292TIP3    H261368   3.297   1.668   0.194 -0.2575 -0.2908 -0.8847
13293TIP3   OH261369   3.467   0.420  16.281 -0.5277 -0.0687  0.0613
13293TIP3    H161370   3.395   0.357  16.275 -0.5456 -0.3762  2.5002
13293TIP3    H261371   3.544   0.372  16.251 -1.0883 -0.1087 -1.4207
13294TIP3   OH261372   1.902   6.831   3.600  0.4507  0.2619  0.1906
13294TIP3    H161373   1.961   6.850   3.527 -0.7503  0.4798 -0.7528
13294TIP3    H261374   1.947   6.764   3.650  0.7849 -0.7994 -1.4393
13295TIP3   OH261375   4.575   3.117  11.840  0.5159  0.9070 -0.0468
13295TIP3    H161376   4.611   3.114  11.929 -1.4196  0.7475  0.7900
13295TIP3    H261377   4.541   3.029  11.825  0.3272  1.0896 -0.7376
13296TIP3   OH261378   4.185   3.886   1.509  0.0482 -0.3292 -0.5324
13296TIP3    H161379   4.218   3.963   1.555  1.6169 -1.4790  0.4258
13296TIP3    H261380   4.135   3.838   1.575  0.7890 -1.0969 -0.5003
13297TIP3   OH261381   4.502   4.902   1.210 -0.1581 -0.1834 -0.2776
13297TIP3    H161382   4.465   4.938   1.129 -0.8348  0.0714  0.1380
13297TIP3    H261383   4.578   4.957   1.228 -0.6686  0.4769 -0.1290
13298TIP3   OH261384   1.392   4.529   0.284  0.1499  0.2151 -0.3765
13298TIP3    H161385   1.472   4.566   0.246 -0.3101  1.1947 -0.4451
13298TIP3    H261386   1.332   4.604   0.288  0.3445  0.3445  2.7887
13299TIP3   OH261387   4.640   0.740   5.791  0.3117  0.0504 -0.0845
13299TIP3    H161388   4.582   0.816   5.792  0.6040  0.2735 -0.1225
13299TIP3    H261389   4.628   0.703   5.703  1.1410  0.8056 -0.5300
13300TIP3   OH261390   1.416   4.363   1.004  0.6993 -0.1745  0.6211
13300TIP3    H161391   1.403   4.354   1.098 -0.5009  2.0187  0.7280
13300TIP3    H261392   1.457   4.448   0.992  0.4953 -0.2434 -0.8586
13301TIP3   OH261393   1.679   0.509   2.437  0.5106  0.4870 -0.0281
13301TIP3    H161394   1.703   0.557   2.358  0.5220  0.3171 -0.1277
13301TIP3    H261395   1.630   0.572   2.490 -0.0763  0.4082 -0.4673
13302TIP3   OH261396   5.956   0.070   5.092  0.2517 -0.2260 -0.5624
13302TIP3    H161397   5.939  -0.022   5.076 -0.0028 -0.1857 -0.5338
13302TIP3    H261398   5.879   0.101   5.140  0.8414 -0.2587  0.4294
13303TIP3   OH261399   5.564   0.139   1.426  0.2408 -0.8524  0.4573
13303TIP3    H161400   5.631   0.079   1.393  0.0571 -1.9673  1.9578
13303TIP3    H261401   5.482   0.091   1.415  0.0614 -0.7957  1.4795
13304TIP3   OH261402   4.723   6.813  14.172  0.0346  0.8504 -0.1271
13304TIP3    H161403   4.662   6.740  14.157  1.7961 -0.4128 -1.7326
13304TIP3    H261404   4.693   6.882  14.112 -0.9048  0.9725  0.4751
13305TIP3   OH261405   0.542   4.501  11.102  0.5260 -0.0811  0.1380
13305TIP3    H161406   0.557   4.557  11.026  1.4569  0.2003  0.5097
13305TIP3    H261407   0.624   4.452  11.113  0.1698 -0.5999  0.5647
13306TIP3   OH261408   6.130   0.255   6.373  0.2389 -0.3193  0.4556
13306TIP3    H161409   6.127   0.288   6.462 -1.2939 -1.0581  0.7162
13306TIP3    H261410   6.054   0.295   6.330 -0.1708 -1.4813  0.0638
13307TIP3   OH261411   3.160   3.313   2.526 -0.6425 -0.6501  0.5957
13307TIP3    H161412   3.235   3.371   2.511  0.3593 -1.9518  0.4342
13307TIP3    H261413   3.097   3.368   2.573  1.0044  0.0714  2.0708
13308TIP3   OH261414   2.518   1.688  16.170 -0.8499  0.5273 -0.5608
13308TIP3    H161415   2.611   1.696  16.188 -1.3202  2.6794  1.3931
13308TIP3    H261416   2.513   1.650  16.082  1.8178 -0.5774 -0.3043
13309TIP3   OH261417   5.491   0.136   4.052 -0.3118 -0.0772 -0.6118
13309TIP3    H161418   5.577   0.099   4.070 -0.0929  0.0094 -1.4660
13309TIP3    H261419   5.509   0.215   4.002 -0.8064  0.8555  0.6261
13310TIP3   OH261420   3.021   3.704   1.016 -0.0616  0.0090  0.5169
13310TIP3    H161421   3.025   3.642   1.088 -0.2243 -1.3243 -0.5845
13310TIP3    H261422   3.050   3.655   0.939  0.2416  1.4234 -0.3215
13311TIP3   OH261423   0.848   0.212  16.787 -0.7162 -0.2976 -0.1217
13311TIP3    H161424   0.760   0.173  16.789 -0.4259 -1.6616 -3.9373
13311TIP3    H261425   0.832   0.306  16.786 -2.1442 -0.5106 -0.3091
13312TIP3   OH261426   2.693   3.595   0.068  0.0067 -0.3387 -0.5864
13312TIP3    H161427   2.673   3.565  -0.021  0.7600 -2.7579 -0.0157
13312TIP3    H261428   2.676   3.519   0.123 -0.1518  1.0218  1.3316
13313TIP3   OH261429   2.442   2.225  11.873 -0.1376 -0.0344  0.5065
13313TIP3    H161430   2.426   2.314  11.905  1.2875  0.7995 -0.9852
13313TIP3    H261431   2.364   2.176  11.900 -1.1883  1.7769  0.9226
13314TIP3   OH261432   4.474   3.033   6.664  0.2533 -0.0542  0.9938
13314TIP3    H161433   4.480   2.939   6.647 -1.4818  0.0328 -0.3590
13314TIP3    H261434   4.564   3.058   6.688  1.0680 -1.7759 -0.0314
13315TIP3   OH261435   5.546   5.278   4.926  0.2386 -0.1108  0.5619
13315TIP3    H161436   5.556   5.309   5.016  0.2230 -0.7853  0.7956
13315TIP3    H261437   5.452   5.261   4.916 -0.1780  2.3078 -0.3630
13316TIP3   OH261438   6.346   1.173  12.430  0.1861 -0.5149 -0.1408
13316TIP3    H161439   6.376   1.152  12.519  1.3297  2.8870  0.4417
13316TIP3    H261440   6.426   1.182  12.379 -0.1566  1.3764 -0.4529
13317TIP3   OH261441   1.843   1.376  11.294 -0.1680  0.8158 -0.5935
13317TIP3    H161442   1.838   1.423  11.378 -1.0032 -0.4964  0.1313
13317TIP3    H261443   1.840   1.445  11.228 -3.6186  1.7529  0.3501
13318TIP3   OH261444   0.821   1.962   5.002  0.1168  0.9912  0.2123
13318TIP3    H161445   0.841   1.877   4.962  2.8962  1.2980  0.7752
13318TIP3    H261446   0.753   1.943   5.066 -0.0339 -0.6249 -0.3772
13319TIP3   OH261447   2.685   5.138   3.512 -0.7941 -0.0253 -0.2032
13319TIP3    H161448   2.597   5.150   3.548 -0.7175  0.4953 -0.1749
13319TIP3    H261449   2.680   5.174   3.424 -0.5539  0.2128 -0.1224
13320TIP3   OH261450   4.846   6.256  17.030  0.0768 -0.0272 -0.0094
13320TIP3    H161451   4.752   6.269  17.018  0.2711  0.2352 -1.2974
13320TIP3    H261452   4.876   6.337  17.070 -0.0107  0.4494 -0.9006
13321TIP3   OH261453   0.591   1.754   4.322  0.1111 -0.0852 -0.4242
13321TIP3    H161454   0.587   1.659   4.317  1.5923 -0.1405 -1.1967
13321TIP3    H261455   0.671   1.772   4.372 -1.7015  0.7691  2.3423
13322TIP3   OH261456   5.075   1.842   1.955  0.6946  0.4107 -0.0237
13322TIP3    H161457   5.100   1.760   1.912 -0.8134  0.0722 -0.3000
13322TIP3    H261458   5.054   1.817   2.045  0.2820  0.5113 -0.0934
13323TIP3   OH261459   6.048   1.671   4.019 -0.3000 -0.3185  0.4203
13323TIP3    H161460   6.047   1.666   3.923 -1.1230  1.7764  0.2680
13323TIP3    H261461   6.113   1.606   4.045  1.7447  0.7139 -1.6924
13324TIP3   OH261462   0.946   1.256   0.979  0.2018 -0.2845  0.3504
13324TIP3    H161463   0.897   1.336   0.960  1.1228  0.4672  1.0459
13324TIP3    H261464   0.894   1.212   1.047  1.0484  1.1311  2.0041
13325TIP3   OH261465   3.373   5.970  14.967 -0.4357  0.1140  0.3513
13325TIP3    H161466   3.452   5.949  15.016 -0.2573  0.3420  0.1633
13325TIP3    H261467   3.302   5.956  15.030 -0.2607 -0.2547  0.4698
13326TIP3   OH261468   0.619   1.300  15.157 -0.1174  0.1218  0.1525
13326TIP3    H161469   0.619   1.219  15.209  1.3137 -0.0445 -0.0501
13326TIP3    H261470   0.553   1.285  15.090  0.7000 -1.2432 -0.3847
13327TIP3   OH261471   0.345   0.083  10.927 -1.1840 -0.0443 -0.2309
13327TIP3    H161472   0.339   0.170  10.887 -0.6280  0.1909  0.1861
13327TIP3    H261473   0.407   0.036  10.871 -0.1844  0.3757  0.4837
13328TIP3   OH261474   3.333   5.432   0.466  0.0883  0.3137  0.1421
13328TIP3    H161475   3.315   5.386   0.384 -0.8938 -0.6576  0.8685
13328TIP3    H261476   3.412   5.391   0.500  1.5695  1.9448 -1.1583
13329TIP3   OH261477   6.369   3.129  16.249  0.2398  0.4903 -0.5482
13329TIP3    H161478   6.438   3.072  16.214 -0.3675 -0.0859 -0.8167
13329TIP3    H261479   6.301   3.069  16.278 -1.0635  1.1147 -2.1953
13330TIP3   OH261480   3.515   1.527  10.604  0.0258  0.3496  0.1291
13330TIP3    H161481   3.485   1.525  10.513  1.1677  2.0896 -0.3428
13330TIP3    H261482   3.504   1.619  10.630  0.2159 -0.0151  1.5775
13331TIP3   OH261483   1.042   2.023   2.811  0.0657  0.0120 -0.2139
13331TIP3    H161484   1.034   1.928   2.806  2.3728 -0.1684 -1.6260
13331TIP3    H261485   1.088   2.039   2.894 -2.1463  0.1298  1.0864
13332TIP3   OH261486   4.838   6.251  10.977 -0.0238 -0.0927 -0.3734
13332TIP3    H161487   4.824   6.194  11.053 -0.9584  0.0254 -0.4461
13332TIP3    H261488   4.776   6.323  10.989  2.8652  2.4085  1.1048
13333TIP3   OH261489   4.882   1.748  12.401  0.0857 -0.4615 -0.2493
13333TIP3    H161490   4.943   1.753  12.328 -0.1906 -0.0746 -0.4612
13333TIP3    H261491   4.805   1.703  12.365  0.3796 -1.2660  0.1125
13334TIP3   OH261492   0.430   4.590  10.490  0.0779 -0.6300 -0.2430
13334TIP3    H161493   0.414   4.682  10.511 -0.4071 -0.8473  0.3878
13334TIP3    H261494   0.354   4.564  10.439 -0.8959 -1.2389  1.4096
13335TIP3   OH261495   4.675   5.073   1.737 -0.1106 -0.1258  0.2253
13335TIP3    H161496   4.658   5.105   1.648 -0.8487  0.6562  0.6371
13335TIP3    H261497   4.770   5.072   1.744 -0.0194  2.8072  0.4604
13336TIP3   OH261498   6.728   5.491   3.937  0.3625 -0.1303 -0.0197
13336TIP3    H161499   6.733   5.586   3.949  0.1293  0.0106 -1.0029
13336TIP3    H261500   6.807   5.458   3.981  1.4757  0.6958 -1.3028
13337TIP3   OH261501   1.096   2.495   2.765  0.1824  0.8197  0.1665
13337TIP3    H161502   1.163   2.519   2.828  1.2392  0.2417 -0.7066
13337TIP3    H261503   1.039   2.572   2.760  0.7127  1.2769  0.9942
13338TIP3   OH261504   3.254   3.670   4.572 -0.0471  0.4354 -0.2681
13338TIP3    H161505   3.264   3.611   4.647 -2.6488  0.4053  0.1392
13338TIP3    H261506   3.282   3.756   4.606 -2.1043  0.6363  1.1605
13339TIP3   OH261507   6.801   0.526  16.688  0.0220 -0.3918  0.1345
13339TIP3    H161508   6.779   0.504  16.597  0.9472 -0.0358 -0.1861
13339TIP3    H261509   6.897   0.529  16.689  0.0113 -0.1728  1.0747
13340TIP3   OH261510   2.228   3.081   2.953  0.0519 -0.4584  0.1615
13340TIP3    H161511   2.226   3.124   2.867 -0.5599  0.9768  0.8665
13340TIP3    H261512   2.290   3.009   2.942 -0.7405 -0.9036 -1.7548
13341TIP3   OH261513   1.969   1.403  16.302  0.2362  0.0312  0.1672
13341TIP3    H161514   1.944   1.495  16.314  1.8331  0.2677  2.2594
13341TIP3    H261515   2.064   1.406  16.292  0.3602 -1.4171  0.6974
13342TIP3   OH261516   0.716   5.034   6.280  0.1082 -0.0487  0.9837
13342TIP3    H161517   0.806   5.010   6.302  0.2184  0.2214  0.8343
13342TIP3    H261518   0.713   5.129   6.290 -0.3087 -0.1136  1.5157
13343TIP3   OH261519   4.397   4.374  14.671  0.2739 -0.2120 -0.4258
13343TIP3    H161520   4.312   4.419  14.669 -0.5647 -1.7050 -0.3080
13343TIP3    H261521   4.374   4.281  14.665  1.9560 -0.6143 -1.1446
13344TIP3   OH261522   4.401   5.160  16.383 -0.1597 -0.0517  0.0409
13344TIP3    H161523   4.386   5.241  16.335  0.8879 -0.8337 -1.6951
13344TIP3    H261524   4.477   5.178  16.438  0.1248  0.1437 -0.4061
13345TIP3   OH261525   4.025   6.385   1.260  0.2512  0.0289 -0.1593
13345TIP3    H161526   4.111   6.427   1.272  0.4289  0.1353 -1.6879
13345TIP3    H261527   4.006   6.347   1.346  2.0023 -0.3002  0.1350
13346TIP3   OH261528   4.630   4.843  17.074 -0.0006  0.1483 -0.5555
13346TIP3    H161529   4.701   4.895  17.036  1.9805 -0.6120  1.9194
13346TIP3    H261530   4.584   4.904  17.131  1.0441 -0.2438  0.7454
13347TIP3   OH261531   2.854   1.052  13.593 -0.1952 -0.0695  0.7199
13347TIP3    H161532   2.928   0.992  13.605  0.0755 -0.3686 -1.9617
13347TIP3    H261533   2.894   1.135  13.567 -0.7752 -0.2734 -0.9020
13348TIP3   OH261534   0.919   4.426   0.800  0.3772 -0.0996 -0.0496
13348TIP3    H161535   0.998   4.477   0.820  0.2413 -0.5836  1.9492
13348TIP3    H261536   0.951   4.352   0.748  0.7905  1.1898 -1.6924
13349TIP3   OH261537   6.444   5.851  10.449  0.3553  0.2794  0.0976
13349TIP3    H161538   6.432   5.945  10.461  1.0631  0.3127  0.6210
13349TIP3    H261539   6.464   5.841  10.356 -1.2282  0.4672 -0.2861
13350TIP3   OH261540   6.277   2.452  13.485 -0.2953  0.2079  0.4097
13350TIP3    H161541   6.347   2.406  13.438  0.6955  0.2332  1.8032
13350TIP3    H261542   6.200   2.441  13.429  0.6120 -0.5476 -0.7552
13351TIP3   OH261543   0.998   3.444  13.234  0.1884  0.5594 -0.3106
13351TIP3    H161544   1.008   3.538  13.241  3.7395  0.2639  0.5293
13351TIP3    H261545   1.046   3.420  13.155 -0.7735 -0.5682 -0.5977
13352TIP3   OH261546   1.829   0.862  13.515 -0.2961  0.3096  0.2593
13352TIP3    H161547   1.781   0.935  13.552 -0.0679  0.7373 -0.2693
13352TIP3    H261548   1.913   0.862  13.561  0.1064  1.0300 -0.4600
13353TIP3   OH261549   5.172   5.511  13.464  0.2025  0.1260  0.4455
13353TIP3    H161550   5.184   5.431  13.516  0.0012  0.0697  0.4098
13353TIP3    H261551   5.260   5.542  13.446  0.2730  0.7257  1.7062
13354TIP3   OH261552   5.087   0.727   3.479  0.1392 -0.0607 -1.0298
13354TIP3    H161553   5.110   0.660   3.543  0.0960  0.5293 -0.3854
13354TIP3    H261554   5.122   0.694   3.396  0.6868 -0.5736 -0.6021
13355TIP3   OH261555   5.229   2.241   1.329 -0.1083 -0.4638 -0.2489
13355TIP3    H161556   5.135   2.237   1.314 -0.1999  1.4168 -0.3776
13355TIP3    H261557   5.237   2.269   1.421  0.3348 -0.7870 -0.1848
13356TIP3   OH261558   2.451   5.021  15.534  0.5259 -0.0144 -0.2163
13356TIP3    H161559   2.509   5.072  15.476  1.4158 -3.3287 -2.4918
13356TIP3    H261560   2.365   5.028  15.494  0.3691  0.6969  0.2238
13357TIP3   OH261561   2.000   5.704  15.649  0.4587  0.1134 -0.0054
13357TIP3    H161562   2.090   5.673  15.658  0.9283  1.3499 -0.2552
13357TIP3    H261563   1.963   5.649  15.580  0.9515 -0.5495  0.2488
13358TIP3   OH261564   6.014   1.322  11.210  0.3360  0.4568 -0.0445
13358TIP3    H161565   5.977   1.397  11.163  1.9122  0.6087 -1.1369
13358TIP3    H261566   6.062   1.361  11.284  0.4663  0.4714 -0.1354
13359TIP3   OH261567   1.803   2.003  12.118 -0.0444 -0.4427  0.3646
13359TIP3    H161568   1.789   1.924  12.065  0.2248  0.1240 -0.5705
13359TIP3    H261569   1.755   2.071  12.072  0.0504  0.0328  0.9573
13360TIP3   OH261570   3.904   1.038   4.849 -0.6882 -0.0714  0.7378
13360TIP3    H161571   3.953   0.962   4.880  1.1905  0.1587 -1.4122
13360TIP3    H261572   3.864   1.009   4.767  2.0342  1.7660 -1.4380
13361TIP3   OH261573   3.678   1.553   1.117  0.1137 -0.4203 -0.5541
13361TIP3    H161574   3.736   1.498   1.168  2.1038  2.8876  1.0768
13361TIP3    H261575   3.736   1.609   1.065 -1.7478  0.1147 -2.1963
13362TIP3   OH261576   3.890   2.172  11.298 -0.4240 -0.6850  0.1324
13362TIP3    H161577   3.874   2.133  11.212 -0.8632 -2.4724  0.9584
13362TIP3    H261578   3.805   2.208  11.324 -0.3246 -0.2657 -0.1166
13363TIP3   OH261579   6.405   0.876   3.969 -0.8392  0.0310 -0.4907
13363TIP3    H161580   6.393   0.808   3.903 -3.2506  0.9096 -1.0631
13363TIP3    H261581   6.392   0.831   4.052  1.1121 -0.8598 -0.6204
13364TIP3   OH261582   3.181   1.016  16.993 -0.1069  0.1613  0.2237
13364TIP3    H161583   3.194   0.937  16.939  0.9629  0.0177  0.6643
13364TIP3    H261584   3.087   1.020  17.007 -0.3408 -0.1469 -1.1413
13365TIP3   OH261585   4.524   0.971  15.918  0.0463  0.2624 -1.2083
13365TIP3    H161586   4.434   0.988  15.949  0.7589  1.8384  0.1899
13365TIP3    H261587   4.578   0.981  15.997  1.5560  0.4023 -2.2247
13366TIP3   OH261588   5.679   1.563   6.018  0.3436 -0.1742 -0.6301
13366TIP3    H161589   5.609   1.570   6.082  0.2958  0.7676 -0.7586
13366TIP3    H261590   5.646   1.610   5.941  1.1531  0.4219 -0.6391
13367TIP3   OH261591   0.373   5.102  10.912 -0.3257 -0.5993 -0.8782
13367TIP3    H161592   0.401   5.029  10.966 -1.1074 -2.1025 -2.4063
13367TIP3    H261593   0.289   5.128  10.949 -0.3484 -0.9039 -0.7148
13368TIP3   OH261594   1.831   6.610   1.665  0.3137 -0.3331 -0.5262
13368TIP3    H161595   1.761   6.555   1.631  1.0328 -0.7852 -1.3007
13368TIP3    H261596   1.796   6.644   1.748 -1.4862  0.8459 -1.7088
13369TIP3   OH261597   1.004   4.654   3.184 -0.3198  0.1080 -0.2712
13369TIP3    H161598   0.946   4.589   3.223 -2.8337  1.9840 -0.6030
13369TIP3    H261599   0.955   4.687   3.108  1.1023  1.9207 -0.4669
13370TIP3   OH261600   4.434   0.591  11.162  0.1807  0.2818  0.5811
13370TIP3    H161601   4.464   0.608  11.073 -1.6430  0.6943  0.0010
13370TIP3    H261602   4.433   0.677  11.204  0.5517  0.1565  0.8550
13371TIP3   OH261603   3.796   3.164   2.274 -0.8700  0.0680  0.1708
13371TIP3    H161604   3.754   3.116   2.203 -0.7534  0.5783 -0.2465
13371TIP3    H261605   3.746   3.245   2.281 -0.2064  0.5061 -0.0676
13372TIP3   OH261606   2.436   1.784  12.906  0.1547  0.5977  0.3217
13372TIP3    H161607   2.406   1.736  12.829  1.4097 -2.0741  1.3914
13372TIP3    H261608   2.531   1.770  12.907  0.4471  2.3987  1.2103
13373TIP3   OH261609   1.192   3.473   2.379  0.2451  0.1142  0.3128
13373TIP3    H161610   1.286   3.463   2.365  0.6027  2.0273  1.1430
13373TIP3    H261611   1.164   3.535   2.311 -0.6404 -1.1891 -0.5674
13374TIP3   OH261612   0.133   5.451   4.905 -0.6020  0.5011  0.3909
13374TIP3    H161613   0.111   5.497   4.824  1.2390  0.3979 -0.2204
13374TIP3    H261614   0.054   5.402   4.927 -0.5827 -1.0074 -2.4142
13375TIP3   OH261615   0.898   3.331  14.275  0.4358  0.0945 -0.4425
13375TIP3    H161616   0.924   3.389  14.347 -0.7140 -0.2558  0.2704
13375TIP3    H261617   0.901   3.243  14.313 -1.8523  0.0434 -0.2838
13376TIP3   OH261618   6.211   0.504   2.466 -0.0645 -0.3671 -0.1705
13376TIP3    H161619   6.277   0.437   2.449  0.4317  0.6334 -2.5982
13376TIP3    H261620   6.250   0.585   2.433 -1.9658  0.5037 -0.4370
13377TIP3   OH261621   2.603   4.224  14.552 -0.3394 -0.1246  0.0407
13377TIP3    H161622   2.519   4.195  14.517  0.2745  0.2497 -1.9054
13377TIP3    H261623   2.592   4.317  14.569  0.2108  0.4240 -2.2255
13378TIP3   OH261624   6.165   1.046   0.645 -0.5037 -0.1200 -0.6234
13378TIP3    H161625   6.071   1.045   0.626 -0.8944 -2.2432  1.0674
13378TIP3    H261626   6.170   1.066   0.738  0.7727  0.4923 -0.8031
13379TIP3   OH261627   0.780   6.080  13.699  0.5381 -0.2825 -0.0208
13379TIP3    H161628   0.843   6.141  13.662 -1.2875  0.9453 -1.2849
13379TIP3    H261629   0.804   5.995  13.662  0.9314  0.3071 -1.1602
13380TIP3   OH261630   2.175   6.151  11.416  0.4001 -0.2950  0.2454
13380TIP3    H161631   2.194   6.156  11.510  0.3896 -3.7435  0.5661
13380TIP3    H261632   2.081   6.168  11.410  0.1102 -1.4646  1.1037
13381TIP3   OH261633   4.751   4.290  14.945  0.0948  0.1918 -0.5335
13381TIP3    H161634   4.818   4.316  14.882  0.8962 -0.5844 -0.0302
13381TIP3    H261635   4.671   4.281  14.892  0.5234  0.5329 -1.2538
13382TIP3   OH261636   2.220   1.748  13.405 -0.3870 -0.2163 -0.2767
13382TIP3    H161637   2.281   1.761  13.477  1.1237  1.3314 -1.7294
13382TIP3    H261638   2.276   1.728  13.330 -1.8225 -0.6029 -1.2817
13383TIP3   OH261639   6.703   4.085  13.899 -0.3736  0.0436  0.1430
13383TIP3    H161640   6.680   3.993  13.910  0.8496 -0.2236  0.6648
13383TIP3    H261641   6.626   4.125  13.859 -0.2793 -1.5909 -1.8415
13384TIP3   OH261642   3.447   3.520  13.626 -0.0086 -0.2127  0.2419
13384TIP3    H161643   3.411   3.433  13.608 -0.5439 -0.1371  0.8946
13384TIP3    H261644   3.540   3.505  13.643  0.1938 -0.4698 -1.0147
13385TIP3   OH261645   6.260   2.799  14.729 -0.3871  0.5392  0.2308
13385TIP3    H161646   6.335   2.824  14.783 -0.7411  1.8675  0.1178
13385TIP3    H261647   6.283   2.711  14.697  1.5670  1.2770 -0.5724
13386TIP3   OH261648   2.515   5.145   1.072  0.2378  0.6512 -0.1482
13386TIP3    H161649   2.601   5.168   1.107  1.5380 -5.2482  1.7702
13386TIP3    H261650   2.534   5.089   0.997 -2.3164  3.2149 -2.9929
13387TIP3   OH261651   2.341   3.929   0.821 -0.6033 -0.0354  0.1892
13387TIP3    H161652   2.262   3.876   0.825 -1.3783  0.7926 -2.4173
13387TIP3    H261653   2.321   4.007   0.872 -1.5282  0.2209 -0.5509
13388TIP3   OH261654   1.326   0.685  15.220  0.2809  0.4199  0.4182
13388TIP3    H161655   1.280   0.607  15.252  0.8338 -1.1509 -2.3220
13388TIP3    H261656   1.369   0.721  15.298  0.1258 -2.0962  1.7695
13389TIP3   OH261657   5.611   2.740  13.617 -0.2326 -0.0626 -0.2396
13389TIP3    H161658   5.619   2.802  13.544  1.0589  0.5412  0.3830
13389TIP3    H261659   5.632   2.791  13.695 -0.8194 -0.8907  0.4816
13390TIP3   OH261660   2.521   5.938  15.541  0.2454  0.2808  0.0994
13390TIP3    H161661   2.588   5.884  15.500  0.0387 -0.4067  0.6511
13390TIP3    H261662   2.549   5.947  15.632  2.4202  4.4435 -0.7208
13391TIP3   OH261663   1.480   1.217  16.239 -0.6802  0.1022 -0.2962
13391TIP3    H161664   1.513   1.127  16.235  1.2686  0.6719  1.1824
13391TIP3    H261665   1.524   1.261  16.166 -1.8525 -0.1899 -1.1934
13392TIP3   OH261666   4.752   5.847  12.015  0.6650 -0.1927 -0.3863
13392TIP3    H161667   4.826   5.786  12.011  1.6546  0.9006  0.5907
13392TIP3    H261668   4.782   5.917  12.072 -0.8199  0.7236 -0.6882
13393TIP3   OH261669   5.360   6.144  12.133 -0.5139 -0.2436  0.8917
13393TIP3    H161670   5.391   6.220  12.085 -0.9370 -1.5273 -1.5981
13393TIP3    H261671   5.419   6.136  12.207  1.4455  0.7253 -0.4841
13394TIP3   OH261672   0.107   3.922   0.075 -0.0889  0.6341 -0.5957
13394TIP3    H161673   0.082   3.995   0.017 -1.7398 -0.0570 -0.8080
13394TIP3    H261674   0.191   3.892   0.040  0.2635  1.9577 -0.9519
13395TIP3   OH261675   4.116   0.239   2.134  0.3891 -0.3951 -0.9829
13395TIP3    H161676   4.206   0.260   2.160 -0.1683 -0.8886  1.6455
13395TIP3    H261677   4.114   0.144   2.126 -0.1868 -0.5036  0.2970
13396TIP3   OH261678   6.705   2.543  12.888 -0.0725  0.1907  0.1617
13396TIP3    H161679   6.680   2.459  12.850 -0.5544  0.5776 -0.4100
13396TIP3    H261680   6.675   2.538  12.979  0.5204 -0.5072  0.3259
13397TIP3   OH261681   1.691   6.472  16.807  0.0401 -0.0613  0.1325
13397TIP3    H161682   1.757   6.420  16.760  2.1149  0.0783  2.6576
13397TIP3    H261683   1.697   6.558  16.767  2.4716  0.3230  1.1032
13398TIP3   OH261684   4.119   5.741  15.273  0.2260 -0.3683 -0.3575
13398TIP3    H161685   4.155   5.808  15.215  1.3727 -0.7107 -0.0691
13398TIP3    H261686   4.044   5.705  15.225  0.3225  0.2961 -1.0187
13399TIP3   OH261687   3.081   0.473  12.215 -0.2729 -0.1802 -0.4643
13399TIP3    H161688   3.024   0.449  12.142 -0.8394  1.5373 -0.6382
13399TIP3    H261689   3.169   0.472  12.178 -0.4128 -0.6261 -0.7975
13400TIP3   OH261690   5.974   3.722  14.717 -0.1196 -0.4177  0.2777
13400TIP3    H161691   5.929   3.787  14.662 -0.3815 -0.3846  0.5258
13400TIP3    H261692   6.051   3.767  14.750 -0.5148 -0.0938  0.7780
13401TIP3   OH261693   4.237   6.658   0.201 -0.6230 -0.4046 -0.2926
13401TIP3    H161694   4.311   6.667   0.261 -1.6248 -2.3782  1.4005
13401TIP3    H261695   4.166   6.705   0.244 -0.5824  0.8734 -1.5625
13402TIP3   OH261696   1.737   5.232   1.435 -0.1555  0.2255  0.3379
13402TIP3    H161697   1.672   5.163   1.421  0.4005 -0.1888 -0.2402
13402TIP3    H261698   1.821   5.186   1.436  0.0731  0.6223  2.0930
13403TIP3   OH261699   3.940   0.158  14.864  0.2462 -0.0477  0.1585
13403TIP3    H161700   3.901   0.073  14.884  2.4702 -0.7654  1.8490
13403TIP3    H261701   3.897   0.219  14.924 -0.6370 -0.1438 -0.3566
13404TIP3   OH261702   5.140   0.194  14.560 -0.2380  0.7273  0.4310
13404TIP3    H161703   5.181   0.115  14.526 -0.5406  0.4724  0.6512
13404TIP3    H261704   5.179   0.206  14.647 -1.2711 -0.0294  1.0240
13405TIP3   OH261705   5.912   4.740   2.961  0.0771 -0.0268  0.4887
13405TIP3    H161706   5.993   4.737   2.912 -0.3415 -1.0017 -0.1740
13405TIP3    H261707   5.867   4.658   2.939 -0.0499 -0.5921  2.6189
13406TIP3   OH261708   3.380   5.229   4.150 -0.7565 -0.5657 -0.0054
13406TIP3    H161709   3.377   5.320   4.123 -1.3245 -0.0741  1.5632
13406TIP3    H261710   3.430   5.230   4.232 -1.1757 -1.5692  0.2868
13407TIP3   OH261711   3.008   2.748   1.112 -0.2541 -0.4533  0.5685
13407TIP3    H161712   3.041   2.663   1.083  0.2939 -0.2585  0.6035
13407TIP3    H261713   2.925   2.759   1.066  0.4130 -0.3211 -0.6485
13408TIP3   OH261714   2.371   3.949  14.229 -0.3593 -0.4441 -0.1700
13408TIP3    H161715   2.332   3.889  14.166  0.5872  0.4314 -1.6391
13408TIP3    H261716   2.463   3.955  14.203  0.2098 -0.4944  1.6559
13409TIP3   OH261717   6.424   0.048  15.520 -0.0770  0.2860 -0.0234
13409TIP3    H161718   6.455   0.001  15.443 -1.0950  2.1353 -1.6407
13409TIP3    H261719   6.330   0.060  15.506 -0.1315  1.4446  1.0496
13410TIP3   OH261720   6.576   5.777   5.860  0.2614 -0.0738  1.0389
13410TIP3    H161721   6.491   5.745   5.829 -0.1480  0.7113  1.3330
13410TIP3    H261722   6.609   5.706   5.916  0.3210 -0.8564  0.0309
13411TIP3   OH261723   1.961   1.042  13.317 -0.0107  0.1294  0.1363
13411TIP3    H161724   1.908   1.102  13.369 -0.2603 -0.1319  0.1876
13411TIP3    H261725   2.051   1.060  13.344 -0.0608  0.6399 -0.0170
13412TIP3   OH261726   2.449   0.831  16.105  0.2689 -0.1723 -0.5897
13412TIP3    H161727   2.472   0.864  16.019 -1.1636 -0.2746 -1.0331
13412TIP3    H261728   2.459   0.736  16.098 -0.1613 -0.2062 -0.7400
13413TIP3   OH261729   6.346   1.264   2.654  0.7216 -0.3592  0.2523
13413TIP3    H161730   6.439   1.264   2.634  1.1507 -0.4042  2.1013
13413TIP3    H261731   6.332   1.341   2.708 -0.3287 -0.3380 -0.0147
13414TIP3   OH261732   5.687   5.982  12.985  0.3552 -0.6566  0.4727
13414TIP3    H161733   5.640   5.926  13.047  0.8719 -0.4484  1.0703
13414TIP3    H261734   5.748   6.032  13.040 -2.0778  2.6983  0.4269
13415TIP3   OH261735   3.537   3.819   5.753  0.6095  0.6667  0.2441
13415TIP3    H161736   3.593   3.875   5.806  1.0009  1.8730 -1.3712
13415TIP3    H261737   3.451   3.824   5.795  0.7805  2.0133  0.4705
13416TIP3   OH261738   2.328   3.884   2.680  0.3149 -0.1614 -0.5253
13416TIP3    H161739   2.355   3.869   2.590  1.2162 -1.6492 -0.0454
13416TIP3    H261740   2.398   3.845   2.733 -0.6811 -0.2128  0.8052
13417TIP3   OH261741   0.212   2.204  13.937  0.2321  0.2318 -0.3455
13417TIP3    H161742   0.222   2.288  13.982 -1.7141  0.6163 -0.5523
13417TIP3    H261743   0.119   2.183  13.945  0.9057 -2.7778  1.1718
13418TIP3   OH261744   4.120   2.573  16.688  0.0960  0.2501  0.4949
13418TIP3    H161745   4.177   2.570  16.611  1.7736 -1.5290  1.7213
13418TIP3    H261746   4.180   2.577  16.762 -1.4859  2.2944  1.7613
13419TIP3   OH261747   2.378   4.304  15.139  0.5509 -0.0581 -0.1473
13419TIP3    H161748   2.462   4.320  15.096 -0.1671  2.1292 -0.8817
13419TIP3    H261749   2.313   4.309  15.068 -0.2282 -1.9650  0.3610
13420TIP3   OH261750   6.457   1.955   2.256  0.5405  0.0685  0.2321
13420TIP3    H161751   6.520   1.993   2.194  1.5305 -2.8648 -0.7443
13420TIP3    H261752   6.504   1.955   2.340 -0.1325  2.4068  0.6937
13421TIP3   OH261753   5.256   0.714  16.163  0.1102  0.5006 -0.2255
13421TIP3    H161754   5.200   0.790  16.155 -0.7596 -0.1280 -0.2620
13421TIP3    H261755   5.313   0.718  16.085  0.3850  1.3386  0.0072
13422TIP3   OH261756   1.363   4.811   0.381  0.2879 -0.0218 -0.3466
13422TIP3    H161757   1.452   4.805   0.348  0.5594 -0.0178  0.3803
13422TIP3    H261758   1.371   4.856   0.465 -0.4055  0.0422 -0.3070
13423TIP3   OH261759   2.883   0.995   6.049  0.4188  0.3511  0.5275
13423TIP3    H161760   2.946   1.016   5.981 -0.3785 -4.1244 -2.0305
13423TIP3    H261761   2.802   1.037   6.021  0.5992  0.2001 -0.2453
13424TIP3   OH261762   1.734   3.529   0.668 -0.4732  0.3934 -0.1928
13424TIP3    H161763   1.671   3.511   0.598  1.5111  0.3062 -2.0565
13424TIP3    H261764   1.702   3.479   0.743 -2.3280 -0.0293 -1.2112
13425TIP3   OH261765   4.738   5.873  13.913  0.0015  0.4808  0.0185
13425TIP3    H161766   4.718   5.966  13.911 -0.9798  0.2683 -0.8413
13425TIP3    H261767   4.754   5.854  14.005 -0.6287  1.3313  0.3129
13426TIP3   OH261768   1.299   1.575   3.869  0.0698 -0.1057 -0.0551
13426TIP3    H161769   1.305   1.592   3.963 -0.4611  0.0039 -0.0352
13426TIP3    H261770   1.280   1.661   3.830  2.3483  0.2530 -0.5020
13427TIP3   OH261771   4.145   3.155  15.919  0.2469 -0.2563 -0.0142
13427TIP3    H161772   4.209   3.195  15.860 -0.9505  2.7278  0.5297
13427TIP3    H261773   4.174   3.179  16.006 -1.1549  0.5370  0.2737
13428TIP3   OH261774   0.613   1.756  17.179  0.0873  0.1135  0.0249
13428TIP3    H161775   0.669   1.741  17.102 -0.1214 -0.2080 -0.0670
13428TIP3    H261776   0.599   1.669  17.216 -0.3753  0.1855  0.0291
13429TIP3   OH261777   4.265   4.116  15.721  0.0733  0.6307  0.1531
13429TIP3    H161778   4.243   4.145  15.633  2.1561  2.5942  0.1686
13429TIP3    H261779   4.298   4.026  15.709  0.2431  0.8345 -1.0697
13430TIP3   OH261780   5.398   3.373  16.267  0.1925 -0.3956 -0.0871
13430TIP3    H161781   5.380   3.423  16.347  0.0557  0.0020 -0.3640
13430TIP3    H261782   5.397   3.438  16.197 -1.2519 -0.9389 -0.6289
13431TIP3   OH261783   4.565   6.760   3.956 -0.3232 -0.1121 -0.3379
13431TIP3    H161784   4.537   6.815   3.883 -1.4565  0.8478  0.8013
13431TIP3    H261785   4.589   6.677   3.914 -0.4658  0.5714 -1.8506
13432TIP3   OH261786   4.853   5.873  16.776  0.1416  0.2563 -0.1396
13432TIP3    H161787   4.887   5.784  16.780  0.3274  0.3422  0.1756
13432TIP3    H261788   4.825   5.883  16.685 -1.9918 -0.9144  0.3069
13433TIP3   OH261789   0.879   5.500   0.120 -0.3059 -0.0403  0.3328
13433TIP3    H161790   0.924   5.458   0.194 -1.2932 -0.8869  0.4710
13433TIP3    H261791   0.788   5.506   0.147 -0.6072  0.0049 -0.6543
13434TIP3   OH261792   0.447   4.250  16.643 -0.7150  0.8004  0.0134
13434TIP3    H161793   0.468   4.181  16.707 -0.5348  0.5851 -0.2721
13434TIP3    H261794   0.531   4.294  16.629 -0.6323  0.4963 -0.4791
13435TIP3   OH261795   3.273   1.371  11.761 -0.2997  0.0960 -0.0889
13435TIP3    H161796   3.205   1.367  11.693  1.2536  1.7607 -1.8702
13435TIP3    H261797   3.281   1.465  11.781  0.8848 -0.1509  0.7102
13436TIP3   OH261798   3.291   5.773   5.743 -0.1127  0.0281 -0.2782
13436TIP3    H161799   3.200   5.787   5.767  0.0162  1.1698 -0.3968
13436TIP3    H261800   3.336   5.763   5.827 -0.4556 -1.4486 -0.2384
13437TIP3   OH261801   1.917   0.010  14.438 -0.0908 -0.4079 -0.0243
13437TIP3    H161802   1.899   0.100  14.467 -1.3201 -0.7987  0.4914
13437TIP3    H261803   1.878   0.004  14.352  2.8639  0.5038 -1.5713
13438TIP3   OH261804   0.827   0.891  16.799 -0.2154 -0.3721  0.5714
13438TIP3    H161805   0.794   0.865  16.884 -0.1836 -1.4705  0.2675
13438TIP3    H261806   0.755   0.873  16.738 -0.0111 -0.2119  0.2757
13439TIP3   OH261807   2.498   3.575   3.187 -0.1329  0.1901  0.1741
13439TIP3    H161808   2.439   3.523   3.241  1.4672 -2.4454 -0.4536
13439TIP3    H261809   2.444   3.648   3.156 -1.6786  0.6411  3.4951
13440TIP3   OH261810   3.940   3.535   3.585  0.0785  0.0456 -0.2256
13440TIP3    H161811   3.856   3.524   3.541  0.9995  0.3781 -2.1791
13440TIP3    H261812   4.003   3.494   3.526  1.2713 -0.4173  1.3137
13441TIP3   OH261813   3.826   0.060   2.314 -0.4208  0.5885  0.1298
13441TIP3    H161814   3.894   0.127   2.324  0.4485 -0.5449  2.7420
13441TIP3    H261815   3.839   0.001   2.388 -3.1090 -0.7487 -0.3147
13442TIP3   OH261816   0.310   1.067   0.395  0.1356 -0.2061  0.4921
13442TIP3    H161817   0.358   1.146   0.422 -0.0994  0.4973 -1.0517
13442TIP3    H261818   0.310   1.012   0.473 -0.8739  1.8991  2.1173
13443TIP3   OH261819   1.593   5.577   1.739  0.6449  0.2063  0.1650
13443TIP3    H161820   1.654   5.651   1.733  0.4505  0.2603 -2.2092
13443TIP3    H261821   1.508   5.617   1.757  0.6122  0.5597 -0.7152
13444TIP3   OH261822   5.041   6.794   2.259  0.5169 -0.0345  0.0578
13444TIP3    H161823   5.036   6.820   2.167  0.7496  0.1760  0.1019
13444TIP3    H261824   5.116   6.843   2.293 -0.0318  0.4642  0.5536
13445TIP3   OH261825   4.557   5.618  17.081  0.0543 -0.8995 -0.8718
13445TIP3    H161826   4.495   5.673  17.034 -0.2805 -1.8222 -1.5269
13445TIP3    H261827   4.617   5.680  17.122 -0.8978 -0.0148 -0.7731
13446TIP3   OH261828   3.317   2.024   3.711  0.3255 -0.5107  0.1838
13446TIP3    H161829   3.285   2.108   3.744 -0.6287 -1.1736  1.0186
13446TIP3    H261830   3.409   2.039   3.692 -0.0352  0.9669 -0.5410
13447TIP3   OH261831   0.862   6.276   4.370 -0.8042 -0.0624 -0.2695
13447TIP3    H161832   0.768   6.280   4.386 -0.8321  0.3914 -0.5631
13447TIP3    H261833   0.877   6.185   4.342 -1.7297  0.7382 -3.8407
13448TIP3   OH261834   5.744   4.867  14.340  0.0881 -0.1175  0.4500
13448TIP3    H161835   5.701   4.807  14.279 -1.0313  0.2378  0.8653
13448TIP3    H261836   5.675   4.891  14.403  1.4928 -1.4358  2.6206
13449TIP3   OH261837   6.481   1.904   3.303  0.2158  0.1274  0.5034
13449TIP3    H161838   6.417   1.945   3.362  1.0444  1.8188  0.2988
13449TIP3    H261839   6.452   1.929   3.215 -0.1193 -1.0472  0.2661
13450TIP3   OH261840   5.934   0.570  17.046 -0.0796 -0.2290 -0.2691
13450TIP3    H161841   5.996   0.518  16.994 -0.6848  0.8006 -2.1157
13450TIP3    H261842   5.885   0.620  16.981 -1.4320  0.5455  1.2835
13451TIP3   OH261843   4.940   1.168   2.958 -0.4747 -0.3642 -0.0858
13451TIP3    H161844   4.944   1.177   2.863  0.2300  4.0732  0.1103
13451TIP3    H261845   5.030   1.148   2.984  0.4030  2.7272 -0.3106
13452TIP3   OH261846   0.527   0.142  15.708 -0.3727 -1.1483  0.1903
13452TIP3    H161847   0.568   0.219  15.668 -1.4225 -0.7679 -0.1910
13452TIP3    H261848   0.489   0.095  15.635 -0.7005 -1.4389  0.5443
13453TIP3   OH261849   6.505   1.990   4.183  0.0893  0.4881  0.0088
13453TIP3    H161850   6.595   2.024   4.181  0.0825  0.5172  0.2083
13453TIP3    H261851   6.451   2.066   4.205  0.0911  0.3172  0.6295
13454TIP3   OH261852   5.749   3.818   0.478 -0.5272  0.1928 -0.1695
13454TIP3    H161853   5.766   3.740   0.425  1.9352  0.9403 -0.5988
13454TIP3    H261854   5.765   3.789   0.568  0.6085  0.2207 -0.3475
13455TIP3   OH261855   0.532   2.068  10.898  0.0213 -0.2075  0.3560
13455TIP3    H161856   0.544   2.151  10.852 -1.3775 -1.1477 -1.8842
13455TIP3    H261857   0.562   2.001  10.836  1.7207 -1.4359  2.3305
13456TIP3   OH261858   0.933   6.144   1.853  0.2757 -0.0870  0.3101
13456TIP3    H161859   0.871   6.130   1.925 -2.7358  0.5355 -1.9436
13456TIP3    H261860   0.943   6.239   1.847 -1.4960  0.0532 -1.5043
13457TIP3   OH261861   2.985   1.907  12.607 -0.4860  0.8437 -0.6660
13457TIP3    H161862   3.006   2.001  12.613  1.6717  0.4350 -0.8002
13457TIP3    H261863   3.022   1.869  12.686 -1.1070  0.0664 -0.7442
13458TIP3   OH261864   1.609   3.753  13.357 -0.3350  0.1444 -0.3042
13458TIP3    H161865   1.699   3.722  13.346 -0.1578  0.8436 -0.8755
13458TIP3    H261866   1.603   3.829  13.300 -1.6548 -0.5988 -1.1897
13459TIP3   OH261867   2.698   3.966  15.307 -0.1929  0.0859  0.8141
13459TIP3    H161868   2.753   3.975  15.385  0.6301 -0.4055  0.2951
13459TIP3    H261869   2.755   3.991  15.235  0.1733 -2.9059 -0.0195
13460TIP3   OH261870   4.022   0.417   3.762 -0.2317 -0.0646 -0.0529
13460TIP3    H161871   4.047   0.476   3.834 -0.7709  0.8068 -0.5607
13460TIP3    H261872   4.018   0.331   3.803 -1.8308  0.5914  1.3156
13461TIP3   OH261873   3.052   1.078   0.332  0.6326 -0.1982 -0.3610
13461TIP3    H161874   3.061   0.992   0.373  1.4368 -0.4075 -0.9589
13461TIP3    H261875   2.976   1.117   0.376  1.0561 -0.6868  0.8357
13462TIP3   OH261876   6.174   0.158  14.621 -0.1824 -0.0256 -0.1145
13462TIP3    H161877   6.250   0.101  14.630 -1.5447 -1.8252  0.5590
13462TIP3    H261878   6.209   0.246  14.633  1.6822 -0.8441  0.9220
13463TIP3   OH261879   0.520   6.123  14.653 -0.6901  0.2139  0.2647
13463TIP3    H161880   0.471   6.168  14.722 -1.5875  1.0101 -0.8606
13463TIP3    H261881   0.452   6.087  14.596  0.0407 -0.5852 -0.1122
13464TIP3   OH261882   0.824   6.178  14.001 -0.1625  0.3637 -0.0252
13464TIP3    H161883   0.824   6.082  14.005  0.7526  0.3690  0.1732
13464TIP3    H261884   0.893   6.205  14.061 -0.2312  1.1488 -0.2819
13465TIP3   OH261885   1.985   3.798  11.675  0.0696 -0.5300  0.0966
13465TIP3    H161886   1.988   3.833  11.586  1.6934 -2.3041 -0.6173
13465TIP3    H261887   2.019   3.869  11.729  1.3846 -0.2324 -1.0494
13466TIP3   OH261888   5.616   2.637  16.140 -0.1675  0.4291  0.0881
13466TIP3    H161889   5.560   2.635  16.063  0.6392  1.0896 -0.5367
13466TIP3    H261890   5.690   2.580  16.118 -0.0404  0.4471  0.4596
13467TIP3   OH261891   4.249   5.660   4.197  0.2012 -0.3253 -0.3133
13467TIP3    H161892   4.236   5.621   4.283  0.8023 -0.1020 -0.1183
13467TIP3    H261893   4.161   5.684   4.168 -0.2613 -2.2282 -0.6393
13468TIP3   OH261894   2.372   5.235   5.751  0.0275  0.7928  0.1045
13468TIP3    H161895   2.416   5.210   5.670  3.0158  1.8412  1.2885
13468TIP3    H261896   2.364   5.154   5.801 -1.5503  0.1979 -1.0332
13469TIP3   OH261897   5.359   3.490  13.773  0.2516 -0.3040  0.3499
13469TIP3    H161898   5.335   3.547  13.700  2.2296 -0.9644 -0.8917
13469TIP3    H261899   5.344   3.543  13.851 -0.5946  0.9205 -0.6140
13470TIP3   OH261900   4.116   3.396  16.762 -0.3858 -0.2189 -0.1834
13470TIP3    H161901   4.144   3.334  16.830 -0.6699  1.3590  1.4638
13470TIP3    H261902   4.190   3.456  16.752 -0.9207  0.4662 -0.1197
13471TIP3   OH261903   2.366   0.778   2.330  0.2428  0.5833  0.4329
13471TIP3    H161904   2.316   0.835   2.389  1.0440 -0.0286  1.7551
13471TIP3    H261905   2.359   0.691   2.370 -2.1104 -0.6118 -2.2513
13472TIP3   OH261906   6.719   5.213  10.437 -0.0320  0.2249 -0.4074
13472TIP3    H161907   6.806   5.173  10.429 -0.3815 -0.9189  1.1253
13472TIP3    H261908   6.715   5.243  10.527 -1.8270 -1.2201  0.0510
13473TIP3   OH261909   6.659   3.704  11.213 -0.1389 -0.3660  0.5633
13473TIP3    H161910   6.732   3.721  11.271  0.2856  0.0307 -0.0739
13473TIP3    H261911   6.587   3.678  11.271  0.6115 -1.1406  1.1541
13474TIP3   OH261912   3.557   2.813   3.749 -0.0696 -0.0043 -0.2866
13474TIP3    H161913   3.510   2.880   3.799 -0.3268  0.0287 -0.5656
13474TIP3    H261914   3.553   2.734   3.803  0.1691  0.1868  0.0095
13475TIP3   OH261915   6.123   0.347   5.121  0.5509  0.3872  0.3806
13475TIP3    H161916   6.033   0.371   5.098  1.1084  0.7278 -1.6371
13475TIP3    H261917   6.113   0.279   5.188 -1.2074  0.4292  0.2091
13476TIP3   OH261918   4.129   4.008  13.870 -0.5302 -0.8107  0.5902
13476TIP3    H161919   4.167   3.971  13.949  1.4120 -0.0995  0.0299
13476TIP3    H261920   4.091   4.091  13.897  2.2745  0.6273  0.4169
13477TIP3   OH261921   2.336   1.216   2.781  0.2325 -0.4595 -0.2454
13477TIP3    H161922   2.306   1.307   2.787  2.5926  0.3874 -0.5228
13477TIP3    H261923   2.256   1.166   2.762 -0.8765  1.7591 -1.8625
13478TIP3   OH261924   3.458   0.525  14.754  0.2662 -0.2214 -0.0494
13478TIP3    H161925   3.404   0.555  14.827  0.2358 -1.5359  0.4979
13478TIP3    H261926   3.489   0.605  14.712 -0.2481  0.5543  1.0126
13479TIP3   OH261927   5.277   0.065  13.039 -0.3710  0.6815  0.4195
13479TIP3    H161928   5.291   0.065  13.133 -1.2386  0.4740  0.5615
13479TIP3    H261929   5.197   0.014  13.027  0.0169  0.2692 -0.4764
13480TIP3   OH261930   0.559   0.220  12.611  0.2915  0.0613  0.2408
13480TIP3    H161931   0.537   0.309  12.583  0.3095  0.8324  2.4616
13480TIP3    H261932   0.476   0.173  12.609  0.1378  0.3453 -0.2142
13481TIP3   OH261933   2.517   2.006  16.636  0.1214  0.4317 -0.0440
13481TIP3    H161934   2.599   2.017  16.589  1.1133  1.5704  1.8356
13481TIP3    H261935   2.460   2.074  16.603  0.1986  0.1469 -0.7813
13482TIP3   OH261936   5.616   1.375  11.866 -0.3008  0.3591 -0.2313
13482TIP3    H161937   5.576   1.445  11.918  0.1345  1.2750 -1.0837
13482TIP3    H261938   5.644   1.310  11.930 -0.5808  1.0421  0.6028
13483TIP3   OH261939   6.821   3.620   3.345 -0.2607  0.3979  0.1643
13483TIP3    H161940   6.902   3.667   3.325 -0.3852  0.5070 -0.0848
13483TIP3    H261941   6.807   3.564   3.269 -0.8457  0.9670 -0.1548
13484TIP3   OH261942   5.748   2.393  16.910  0.5944  0.9677  0.1452
13484TIP3    H161943   5.786   2.454  16.973  0.2307  3.0038 -1.4815
13484TIP3    H261944   5.761   2.435  16.825 -1.9208 -0.0177 -0.8334
13485TIP3   OH261945   3.620   2.804  12.724  0.3115 -0.3272  0.1801
13485TIP3    H161946   3.638   2.712  12.702  0.6835 -0.5909  1.4803
13485TIP3    H261947   3.682   2.824  12.794  0.9521  1.2605 -0.7936
13486TIP3   OH261948   6.169   5.379   2.551  0.9644 -0.6253  0.7390
13486TIP3    H161949   6.163   5.290   2.517  0.3560 -0.3667  0.1592
13486TIP3    H261950   6.260   5.406   2.532  0.9989 -0.9381  0.4540
13487TIP3   OH261951   1.027   6.396   3.566  0.6121  0.0272 -0.7395
13487TIP3    H161952   0.960   6.386   3.498  0.3204 -0.1311 -0.4287
13487TIP3    H261953   1.024   6.489   3.589  0.8745  0.1299 -1.1069
13488TIP3   OH261954   0.802   3.188  12.296  0.4802 -0.2082  0.5453
13488TIP3    H161955   0.826   3.275  12.328 -1.3924  0.4468  0.2348
13488TIP3    H261956   0.856   3.176  12.218  2.4896 -0.3534  1.8689
13489TIP3   OH261957   5.390   6.117  13.776 -0.0798 -0.0637  0.5424
13489TIP3    H161958   5.362   6.135  13.686 -1.3300 -1.9528  0.5043
13489TIP3    H261959   5.332   6.172  13.830  1.3122  1.8158  0.2216
13490TIP3   OH261960   6.030   6.077   0.194  0.1013  0.1123 -0.4464
13490TIP3    H161961   6.050   6.053   0.103 -0.9337  1.7255 -1.1464
13490TIP3    H261962   5.941   6.043   0.207 -0.5730  1.6636 -0.7732
13491TIP3   OH261963   2.379   2.187  16.510 -0.4892  0.3121  0.6920
13491TIP3    H161964   2.403   2.157  16.422 -1.0941  0.2092  0.5547
13491TIP3    H261965   2.356   2.279  16.497  0.2003  0.5202  0.8945
13492TIP3   OH261966   6.706   5.304   5.543 -0.1574  1.5022  0.6517
13492TIP3    H161967   6.664   5.369   5.599 -0.3746  0.6471  1.5007
13492TIP3    H261968   6.800   5.318   5.557 -0.2072  0.5154  2.1822
13493TIP3   OH261969   0.237   1.269   1.367 -0.3744  0.2553 -0.3606
13493TIP3    H161970   0.166   1.316   1.323 -0.4896  0.5898  0.1666
13493TIP3    H261971   0.311   1.329   1.366 -0.2972  0.1619 -0.3319
13494TIP3   OH261972   0.592   2.069   4.647 -0.5135 -0.1994  0.3422
13494TIP3    H161973   0.682   2.049   4.673 -0.6774 -1.2422  0.1546
13494TIP3    H261974   0.539   1.999   4.685 -1.3475  0.7775  1.0218
13495TIP3   OH261975   3.543   2.631   3.359  0.5016 -0.7053 -0.1746
13495TIP3    H161976   3.542   2.581   3.441 -0.0507  0.3398  0.4931
13495TIP3    H261977   3.599   2.581   3.300  0.1010 -2.0054  0.5140
13496TIP3   OH261978   1.125   1.262  16.475 -0.3176 -0.0817  0.3198
13496TIP3    H161979   1.218   1.282  16.460 -0.8847  0.9945 -2.1734
13496TIP3    H261980   1.099   1.212  16.398 -1.6769 -0.9942  1.3244
13497TIP3   OH261981   3.128   2.643   0.135 -0.4453  0.7089 -0.2516
13497TIP3    H161982   3.039   2.646   0.099 -0.6045  0.8052  0.1379
13497TIP3    H261983   3.184   2.619   0.061 -0.4706  3.0440 -1.0824
13498TIP3   OH261984   5.507   2.131  16.253 -0.3112 -0.1039 -0.1419
13498TIP3    H161985   5.452   2.173  16.187  0.5215  0.6786 -0.3661
13498TIP3    H261986   5.516   2.196  16.322  2.0357  0.6576 -1.0707
13499TIP3   OH261987   5.835   1.143  12.034  0.1531 -0.3225  0.4341
13499TIP3    H161988   5.844   1.223  12.086 -0.2525  1.9340 -2.6282
13499TIP3    H261989   5.911   1.090  12.057  0.4570  0.9244  2.5580
13500TIP3   OH261990   6.566   3.281   2.869  0.4679  0.0276 -0.0276
13500TIP3    H161991   6.640   3.302   2.811  0.2489 -0.6077 -0.5538
13500TIP3    H261992   6.516   3.216   2.820  0.3411 -0.6117  0.9448
13501TIP3   OH261993   3.459   0.097  16.044  0.0399 -0.0944 -0.8079
13501TIP3    H161994   3.405   0.155  15.990 -1.1481 -1.3128 -0.9694
13501TIP3    H261995   3.403   0.075  16.118  0.4773 -1.0287 -0.7504
13502TIP3   OH261996   5.672   0.910   1.517 -0.3679 -0.5275  0.1753
13502TIP3    H161997   5.583   0.892   1.487 -0.1469  0.0524 -0.8686
13502TIP3    H261998   5.728   0.869   1.451  0.1752 -1.7749  1.3550
13503TIP3   OH261999   3.327   3.568  16.778 -0.0249 -0.2402 -0.0178
13503TIP3    H162000   3.377   3.630  16.831 -1.2128 -0.8075  1.8768
13503TIP3    H262001   3.368   3.571  16.692  3.1338 -0.5630  1.3533
13504TIP3   OH262002   2.380   3.359  15.288  0.4831  0.7496  0.5552
13504TIP3    H162003   2.308   3.393  15.341 -0.7804  0.6148 -1.0016
13504TIP3    H262004   2.338   3.302  15.224  2.0923 -0.0911  0.1848
13505TIP3   OH262005   6.750   1.052   4.924 -0.6626  0.4598  0.0077
13505TIP3    H162006   6.837   1.090   4.936 -0.0780 -0.3636 -1.4751
13505TIP3    H262007   6.694   1.128   4.905  0.4109  0.7064 -2.4851
13506TIP3   OH262008   3.623   0.467  16.894 -0.0840  0.9222 -0.1590
13506TIP3    H162009   3.576   0.398  16.847  1.8061 -0.5294 -0.0832
13506TIP3    H262010   3.668   0.516  16.826  2.2736 -0.8879 -0.0560
13507TIP3   OH262011   5.847   1.577  12.325 -0.3463  0.3027 -0.0608
13507TIP3    H162012   5.839   1.564  12.231 -0.9322  0.0801  0.0132
13507TIP3    H262013   5.875   1.492  12.359 -1.3061  0.0383  0.0940
13508TIP3   OH262014   5.739   3.454  14.100  0.0854 -0.4309 -0.0633
13508TIP3    H162015   5.672   3.522  14.098 -0.3784 -0.8951 -1.2645
13508TIP3    H262016   5.695   3.378  14.138  0.1428 -0.5149 -0.1636
13509TIP3   OH262017   6.198   3.795  16.381 -0.7158  0.3197 -0.4044
13509TIP3    H162018   6.265   3.782  16.448 -2.0718 -1.3018  0.7077
13509TIP3    H262019   6.221   3.733  16.312 -1.3556 -0.6203  0.2186
13510TIP3   OH262020   1.742   4.372   4.057 -0.0102 -0.0256  0.5363
13510TIP3    H162021   1.729   4.344   4.147  1.0105  0.5767  0.8845
13510TIP3    H262022   1.668   4.429   4.038 -0.8406 -1.0512  0.5967
13511TIP3   OH262023   4.726   0.167  13.045  0.6794  0.5586 -0.1705
13511TIP3    H162024   4.782   0.220  12.990  0.4883 -0.1577 -1.0806
13511TIP3    H262025   4.769   0.167  13.131  0.2836  2.7620  0.0686
13512TIP3   OH262026   1.525   0.323  10.448 -0.8001 -0.2321 -0.7373
13512TIP3    H162027   1.477   0.395  10.489  0.9753  1.6958 -1.8658
13512TIP3    H262028   1.497   0.325  10.356  1.0845  0.6983 -1.3331
13513TIP3   OH262029   1.317   6.388   0.392 -0.0673  0.4144  0.0295
13513TIP3    H162030   1.372   6.450   0.343  1.5403 -0.5759  0.5200
13513TIP3    H262031   1.378   6.338   0.445 -1.5428 -0.2240  1.2029
13514TIP3   OH262032   4.682   3.621   3.170  0.9080 -0.0475  0.2811
13514TIP3    H162033   4.737   3.697   3.150 -1.1919  1.9967  1.8557
13514TIP3    H262034   4.666   3.627   3.264  1.1219 -2.8345  0.5879
13515TIP3   OH262035   1.157   0.851  10.749  0.7422  0.2010  0.2554
13515TIP3    H162036   1.244   0.879  10.719 -0.6038  1.1295 -3.2394
13515TIP3    H262037   1.166   0.757  10.764  2.1910  0.1540 -0.6827
13516TIP3   OH262038   3.511   3.353  14.979 -0.1515 -0.6323 -0.8075
13516TIP3    H162039   3.526   3.380  14.888  0.5439 -1.6473 -1.0059
13516TIP3    H262040   3.535   3.261  14.981 -2.4033 -1.2671 -0.1304
13517TIP3   OH262041   3.204   0.124  15.276  0.2721  0.0361  0.4731
13517TIP3    H162042   3.241   0.036  15.272  0.1020 -0.1131  1.6022
13517TIP3    H262043   3.280   0.181  15.291  0.4320  0.1371 -0.6980
13518TIP3   OH262044   4.902   1.766   0.330 -0.5401 -0.0602 -0.1396
13518TIP3    H162045   4.963   1.838   0.314 -0.9973 -0.1327 -2.6006
13518TIP3    H262046   4.937   1.693   0.279 -1.7437 -0.6527 -0.1461
13519TIP3   OH262047   5.380   6.823  13.352 -1.1656  0.1061  0.6539
13519TIP3    H162048   5.361   6.806  13.445  2.0365 -1.6073  1.1540
13519TIP3    H262049   5.407   6.738  13.317 -0.1708  1.1391 -1.2544
13520TIP3   OH262050   0.728   4.503   4.616  0.7469 -0.1847 -0.3376
13520TIP3    H162051   0.709   4.565   4.546  0.5186  0.0373 -0.0812
13520TIP3    H262052   0.653   4.444   4.618 -0.3672  1.2116  1.2385
13521TIP3   OH262053   3.800   0.801   2.959  0.1004 -0.3694  0.3167
13521TIP3    H162054   3.893   0.824   2.957 -0.0125  0.0829  0.2406
13521TIP3    H262055   3.799   0.709   2.986  0.7151 -1.1969 -2.1962
13522TIP3   OH262056   6.077   6.445  12.766  0.5322 -0.0480 -0.1121
13522TIP3    H162057   6.109   6.401  12.845  0.3593 -1.2139 -0.6679
13522TIP3    H262058   6.017   6.382  12.726 -2.1371  1.8863  0.6286
13523TIP3   OH262059   0.194   4.572  13.498  0.2525 -0.0398 -1.1272
13523TIP3    H162060   0.217   4.557  13.406  1.0917  0.2302 -0.9671
13523TIP3    H262061   0.210   4.665  13.512  3.4978 -0.6435  0.1612
13524TIP3   OH262062   1.015   1.642   1.856  0.4061  0.2067  0.1538
13524TIP3    H162063   1.035   1.656   1.949  0.3283 -1.5503  0.4760
13524TIP3    H262064   0.935   1.590   1.856  0.2719  0.3870 -0.9108
13525TIP3   OH262065   1.072   0.143  11.737 -0.1907  0.0058 -0.3239
13525TIP3    H162066   1.099   0.101  11.655 -2.6650 -0.2123 -1.1325
13525TIP3    H262067   0.976   0.142  11.733 -0.3848  3.2942  0.8825
13526TIP3   OH262068   6.026   1.809   2.104 -0.2557  0.2458 -0.1226
13526TIP3    H162069   6.007   1.880   2.165  0.1396 -0.0384  0.3378
13526TIP3    H262070   6.121   1.812   2.091  0.2065 -1.8466  2.0260
13527TIP3   OH262071   2.592   2.946   3.838  0.4798  0.2014 -0.5762
13527TIP3    H162072   2.676   2.973   3.875  1.1239 -1.8199 -0.4382
13527TIP3    H262073   2.532   2.944   3.912 -0.1328  2.9856 -0.8852
13528TIP3   OH262074   6.040   6.562  12.000  0.0467 -0.2595  0.1081
13528TIP3    H162075   6.075   6.632  11.944 -1.5639 -0.3949 -1.1442
13528TIP3    H262076   6.098   6.487  11.983  1.6717  0.6385  1.3184
13529TIP3   OH262077   2.560   1.873  13.486 -0.0332  0.0326 -0.0970
13529TIP3    H162078   2.604   1.882  13.402  0.3699  1.3456  0.2284
13529TIP3    H262079   2.529   1.782  13.488  0.3400 -0.1417 -1.4570
13530TIP3   OH262080   4.902   3.119  15.862 -0.2012  0.0550 -0.2799
13530TIP3    H162081   4.994   3.096  15.854  0.1367  1.5122 -0.9353
13530TIP3    H262082   4.866   3.106  15.775 -0.7115 -0.8515  0.0572
13531TIP3   OH262083   0.833   3.904   5.464 -0.1213 -0.2184 -0.5417
13531TIP3    H162084   0.852   3.987   5.420  1.6666  0.4771  1.4211
13531TIP3    H262085   0.737   3.899   5.466 -0.3084  2.4893  0.4982
13532TIP3   OH262086   5.234   6.546  12.639 -0.3066  0.8074  0.0306
13532TIP3    H162087   5.189   6.462  12.642  1.2775 -0.0763  0.5511
13532TIP3    H262088   5.262   6.561  12.730 -0.5296  1.8648 -0.0704
13533TIP3   OH262089   2.488   3.608  16.026 -0.1655 -0.4908  0.6912
13533TIP3    H162090   2.555   3.551  16.064 -0.7317  0.3017  3.0305
13533TIP3    H262091   2.411   3.553  16.018 -0.0076 -0.6941  0.5621
13534TIP3   OH262092   0.656   6.615  11.105 -0.3650  0.1442  1.0903
13534TIP3    H162093   0.748   6.621  11.077 -0.4527  1.6608  1.0418
13534TIP3    H262094   0.653   6.536  11.159  0.3509 -1.4992 -1.1022
13535TIP3   OH262095   1.035   4.000  12.429  0.4965 -0.1870  0.0701
13535TIP3    H162096   1.034   4.029  12.520  1.7428  0.1440  0.0055
13535TIP3    H262097   1.029   4.082  12.379  2.5209 -0.1050 -0.1175
13536TIP3   OH262098   6.778   4.621   1.662 -0.3600  0.1952  0.0419
13536TIP3    H162099   6.688   4.643   1.639 -0.2987  1.0970  0.5786
13536TIP3    H262100   6.770   4.565   1.739 -0.4642  1.1464  0.7528
13537TIP3   OH262101   0.047   6.586   6.519  0.5777  0.3685 -0.4243
13537TIP3    H162102   0.093   6.604   6.437 -2.1944 -1.7430 -2.6477
13537TIP3    H262103   0.071   6.496   6.542 -0.0056  0.3467  0.1399
13538TIP3   OH262104   3.124   0.257  16.110 -0.0659  0.1959  0.3064
13538TIP3    H162105   3.141   0.193  16.179  1.6288 -0.5264 -0.6996
13538TIP3    H262106   3.097   0.336  16.156  0.8450 -0.3082  1.7762
13539TIP3   OH262107   2.608   1.414   3.902  0.3515 -0.9263  0.2096
13539TIP3    H162108   2.655   1.349   3.955 -1.0385 -1.3317  1.0004
13539TIP3    H262109   2.516   1.394   3.916 -0.1726  1.8019  1.2091
13540TIP3   OH262110   3.928   3.353  15.325  0.1693  0.2144  0.3785
13540TIP3    H162111   3.862   3.294  15.361 -0.5403  0.2517 -0.8128
13540TIP3    H262112   3.880   3.409  15.265  0.9807  1.4694  0.8519
13541TIP3   OH262113   6.620   3.598  15.136  0.3155 -0.4566  0.4182
13541TIP3    H162114   6.569   3.576  15.058  0.2858  1.2205 -0.0707
13541TIP3    H262115   6.596   3.531  15.200  1.0175 -2.4383 -1.2575
13542TIP3   OH262116   6.347   6.681  12.066 -0.1258 -0.0556  0.2656
13542TIP3    H162117   6.283   6.729  12.014 -1.1013 -0.8582  0.6821
13542TIP3    H262118   6.431   6.698  12.024 -0.4693  1.7676  0.2392
13543TIP3   OH262119   3.838   0.141  16.783  0.1289 -0.2174 -0.1791
13543TIP3    H162120   3.749   0.104  16.786  0.3808 -0.8402 -0.2954
13543TIP3    H262121   3.852   0.177  16.870  0.3010 -1.4075  0.3036
13544TIP3   OH262122   1.433   6.021   3.934  0.2876 -0.0364 -0.0138
13544TIP3    H162123   1.484   6.095   3.902 -0.2346 -0.0594 -0.9292
13544TIP3    H262124   1.456   6.015   4.027 -0.6256  2.0910  0.4137
13545TIP3   OH262125   3.961   5.956   5.780  0.2328 -0.3851  0.1895
13545TIP3    H162126   4.022   5.887   5.752 -0.1435  0.0121 -1.7537
13545TIP3    H262127   3.976   5.964   5.874  0.8637 -2.5454  0.3297
13546TIP3   OH262128   4.370   0.764  16.559  0.5934  0.2326 -0.0174
13546TIP3    H162129   4.458   0.789  16.590  0.8016 -1.9831  1.4257
13546TIP3    H262130   4.385   0.722  16.475  0.7970  0.7124 -0.2221
13547TIP3   OH262131   4.266   2.963   3.458 -0.8005  0.3090  0.5221
13547TIP3    H162132   4.326   2.980   3.385  0.1746  1.1746  1.5053
13547TIP3    H262133   4.280   2.871   3.480  1.4686  0.8977  1.8404
13548TIP3   OH262134   3.994   4.775   3.880 -0.0740  0.0532  0.4925
13548TIP3    H162135   4.063   4.712   3.899 -0.1989  0.2360  1.6144
13548TIP3    H262136   3.931   4.727   3.826  1.2532  0.0875 -1.1366
13549TIP3   OH262137   3.010   2.403  11.760 -0.2646  0.5175 -0.5743
13549TIP3    H162138   2.931   2.449  11.731  1.2142  2.5591 -1.6019
13549TIP3    H262139   3.058   2.384  11.679 -0.6937 -2.7856 -0.1831
13550TIP3   OH262140   5.394   2.935  11.304 -0.2761 -0.2023 -0.4721
13550TIP3    H162141   5.419   2.970  11.219 -1.7889 -0.5097 -1.0780
13550TIP3    H262142   5.370   3.013  11.356  2.7502  0.2066  0.4856
13551TIP3   OH262143   6.438   5.724  14.494  0.3358 -0.5783 -0.7659
13551TIP3    H162144   6.444   5.643  14.444  1.6716 -0.5522 -0.6873
13551TIP3    H262145   6.344   5.739  14.506 -0.0110 -0.7877 -2.9028
13552TIP3   OH262146   1.353   1.250  11.233 -0.2601 -0.2550  0.3044
13552TIP3    H162147   1.323   1.332  11.271  1.4969 -0.6830  2.9054
13552TIP3    H262148   1.440   1.270  11.198  0.3350 -1.0333  1.2802
13553TIP3   OH262149   3.454   6.352   4.281  0.4539  0.1356 -0.0293
13553TIP3    H162150   3.533   6.316   4.241  0.1291  0.3452 -0.8976
13553TIP3    H262151   3.436   6.295   4.355  0.7328 -0.6616 -0.5558
13554TIP3   OH262152   1.681   5.581   5.603  0.5016  0.0373  0.4070
13554TIP3    H162153   1.624   5.599   5.678  2.4773  0.9841  1.7637
13554TIP3    H262154   1.672   5.659   5.548  1.0475  0.5443  1.0150
13555TIP3   OH262155   2.449   2.204   2.195  1.1942 -0.3044 -0.2782
13555TIP3    H162156   2.374   2.243   2.151  0.2675 -1.2167  0.4412
13555TIP3    H262157   2.425   2.112   2.207  2.1109 -0.4481  0.6349
13556TIP3   OH262158   0.555   5.118  11.200 -0.4219 -0.8924  0.2012
13556TIP3    H162159   0.611   5.076  11.266 -2.4276 -1.3241  1.7445
13556TIP3    H262160   0.506   5.045  11.161  0.6244 -0.6243 -1.7390
13557TIP3   OH262161   3.053   2.329  16.602  0.2568  0.6463 -0.3513
13557TIP3    H162162   3.068   2.268  16.675 -2.2169  2.3126  1.7237
13557TIP3    H262163   3.122   2.308  16.539  0.4022 -3.2557  0.8592
13558TIP3   OH262164   6.746   0.053  13.579  0.0702 -0.0187 -0.4111
13558TIP3    H162165   6.686   0.123  13.608  0.8964  0.9499 -0.9750
13558TIP3    H262166   6.827   0.069  13.627  0.0331 -1.0728  0.0321
13559TIP3   OH262167   4.457   1.799  12.445 -0.3926 -0.6658 -0.3740
13559TIP3    H162168   4.486   1.708  12.436 -0.0589 -1.0043  2.7752
13559TIP3    H262169   4.535   1.846  12.475 -1.1589  0.1073  0.4644
13560TIP3   OH262170   5.737   2.343   0.702  0.0142 -1.0127 -0.5072
13560TIP3    H162171   5.816   2.343   0.755  0.3303  2.1346 -0.7450
13560TIP3    H262172   5.765   2.314   0.616 -0.1032 -4.2638  0.4448
13561TIP3   OH262173   2.303   6.093  12.189  0.4234 -0.1340  0.2295
13561TIP3    H162174   2.292   6.166  12.250  0.6431 -0.2006  0.3467
13561TIP3    H262175   2.305   6.134  12.103 -0.6905 -0.1005  0.1981
13562TIP3   OH262176   4.474   0.607  16.019 -0.6382  0.8308  0.3339
13562TIP3    H162177   4.392   0.562  16.042 -0.1067 -0.3765 -0.0387
13562TIP3    H262178   4.479   0.598  15.923  0.2719  0.2512  0.4252
13563TIP3   OH262179   3.977   2.244   5.541  0.5486  0.0395 -0.4180
13563TIP3    H162180   3.898   2.239   5.488  1.3409 -3.8105 -1.6047
13563TIP3    H262181   3.948   2.221   5.630  0.0193  1.1248 -0.2968
13564TIP3   OH262182   3.255   5.209   3.474 -0.1189 -0.2100  0.2749
13564TIP3    H162183   3.345   5.182   3.456 -0.6218 -0.4610 -2.2799
13564TIP3    H262184   3.228   5.154   3.547  1.3404 -1.1776  0.1402
13565TIP3   OH262185   1.016   3.030   4.807  0.4855  0.0925  0.8644
13565TIP3    H162186   1.029   2.980   4.888  0.7827  0.3849  1.0017
13565TIP3    H262187   1.089   3.092   4.806  0.4097  0.1727  0.4326
13566TIP3   OH262188   1.672   3.677  14.284  0.4689  0.8421 -0.4111
13566TIP3    H162189   1.612   3.675  14.359 -0.0439  1.9927 -0.7727
13566TIP3    H262190   1.614   3.686  14.208  0.9106 -1.2439 -1.0589
13567TIP3   OH262191   6.553   2.406  13.907 -0.7238  0.1641 -0.1578
13567TIP3    H162192   6.471   2.407  13.956 -0.9106 -0.3236 -0.4596
13567TIP3    H262193   6.614   2.359  13.963 -0.5354  0.8624  0.2384
13568TIP3   OH262194   3.724   1.762  13.351  0.0445 -1.0059  0.2837
13568TIP3    H162195   3.712   1.671  13.326 -1.4101 -1.2517  1.6400
13568TIP3    H262196   3.671   1.771  13.431 -2.9416  1.9103 -1.7357
13569TIP3   OH262197   1.149   4.531   0.708  0.2263  0.0550 -0.2032
13569TIP3    H162198   1.227   4.557   0.660  0.8081 -1.6217 -0.2411
13569TIP3    H262199   1.144   4.592   0.782  0.3934  1.4474 -1.3033
13570TIP3   OH262200   3.270   1.951  15.228  0.0188  0.3753 -0.0717
13570TIP3    H162201   3.198   1.902  15.188  0.1425  1.7494 -2.1458
13570TIP3    H262202   3.348   1.897  15.212 -0.2445 -0.1054  0.2576
13571TIP3   OH262203   0.246   4.302  16.197  0.1467 -0.0219  0.1759
13571TIP3    H162204   0.216   4.307  16.288 -0.1040 -0.9241  0.1490
13571TIP3    H262205   0.280   4.389  16.179  1.1633 -0.1061  1.4747
13572TIP3   OH262206   3.239   6.287   5.847  0.0142  0.1181  0.2905
13572TIP3    H162207   3.331   6.274   5.869 -0.0779 -0.6319  0.2452
13572TIP3    H262208   3.192   6.257   5.924 -0.3580 -3.4027 -1.1288
13573TIP3   OH262209   0.994   1.379  16.699 -0.0445 -0.0818 -0.3497
13573TIP3    H162210   1.006   1.296  16.745  2.3070  0.6070  0.4473
13573TIP3    H262211   1.046   1.370  16.619 -0.3612  0.3657 -0.6067
13574TIP3   OH262212   4.634   1.407   0.902 -0.2916 -0.6660 -0.7644
13574TIP3    H162213   4.626   1.352   0.824  1.6546 -0.8693 -0.8666
13574TIP3    H262214   4.726   1.433   0.904 -0.3575 -0.4237  1.2980
13575TIP3   OH262215   1.423   5.830  15.437 -0.2610 -0.2964 -0.0751
13575TIP3    H162216   1.370   5.754  15.415 -3.0853  1.9317 -1.5730
13575TIP3    H262217   1.454   5.812  15.526 -0.7597 -3.1483 -0.3767
13576TIP3   OH262218   1.428   0.856  17.197  0.1976 -0.3369 -0.8545
13576TIP3    H162219   1.488   0.789  17.231 -0.2964  0.0152  0.7965
13576TIP3    H262220   1.379   0.811  17.128 -0.6775 -1.9522  0.7308
13577TIP3   OH262221   2.661   0.959  13.888 -0.0341 -0.4269  0.8044
13577TIP3    H162222   2.691   0.898  13.821 -4.7260 -0.7606 -1.4398
13577TIP3    H262223   2.614   0.904  13.951 -1.1554  0.4522  0.7704
13578TIP3   OH262224   1.468   3.818   3.743  0.7268  0.0448  0.5083
13578TIP3    H162225   1.510   3.894   3.701 -0.4214  0.8871  0.8334
13578TIP3    H262226   1.536   3.751   3.745  1.6469  0.9325 -0.1610
13579TIP3   OH262227   1.050   5.364  11.561 -0.0477  0.5656  0.5995
13579TIP3    H162228   1.014   5.440  11.606 -1.3077  1.5190 -1.8558
13579TIP3    H262229   1.041   5.384  11.468  1.1641 -1.8772 -0.1382
13580TIP3   OH262230   5.657   2.841  13.068  0.0438  0.7586 -0.1722
13580TIP3    H162231   5.684   2.752  13.045  0.4440  0.0035  2.7825
13580TIP3    H262232   5.570   2.851  13.030  1.0711  0.1833 -2.8966
13581TIP3   OH262233   1.635   3.512  11.304 -0.8606  0.2454  0.0483
13581TIP3    H162234   1.548   3.480  11.326 -1.4220  0.6328 -1.4709
13581TIP3    H262235   1.686   3.433  11.284 -1.6142  0.1339 -1.5600
13582TIP3   OH262236   3.619   1.109  11.413 -0.0620  0.2569 -0.4731
13582TIP3    H162237   3.565   1.031  11.400  1.7319 -1.4088  1.3528
13582TIP3    H262238   3.707   1.075  11.424  0.9167  2.6505 -0.3824
13583TIP3   OH262239   1.081   3.022  14.125 -0.0204  0.2386  0.0946
13583TIP3    H162240   1.137   2.981  14.190  0.0378  0.7700  0.3849
13583TIP3    H262241   1.139   3.038  14.050  0.1854  0.6698  0.3447
13584TIP3   OH262242   0.514   0.884   5.433  0.1725  0.0720 -0.3457
13584TIP3    H162243   0.431   0.868   5.389  0.6063  2.6502 -2.3124
13584TIP3    H262244   0.566   0.805   5.415 -0.1742  0.4239 -3.3925
13585TIP3   OH262245   1.363   3.554  10.732 -0.2082  0.0730 -0.6550
13585TIP3    H162246   1.302   3.504  10.785 -1.2055 -0.2429 -2.0599
13585TIP3    H262247   1.447   3.509  10.743 -0.4972 -0.2563  0.2716
13586TIP3   OH262248   2.152   4.063  12.505 -0.7605  0.2731 -0.2907
13586TIP3    H162249   2.123   4.121  12.575 -0.2917  0.4254 -0.2152
13586TIP3    H262250   2.167   4.120  12.430 -1.4587  0.0827 -0.5832
13587TIP3   OH262251   2.094   1.287   5.368 -0.3052 -0.3079 -0.3847
13587TIP3    H162252   2.020   1.334   5.406 -0.4565  0.1424 -1.2208
13587TIP3    H262253   2.167   1.305   5.427 -0.8877 -0.9398  0.5825
13588TIP3   OH262254   6.476   1.379  15.625 -0.4214 -0.4387  0.0017
13588TIP3    H162255   6.542   1.332  15.575  1.0753  1.2356  0.3288
13588TIP3    H262256   6.401   1.319  15.627  0.3288 -1.5600 -2.1074
13589TIP3   OH262257   1.367   6.646   1.248  0.0992  0.6101  0.3677
13589TIP3    H162258   1.294   6.702   1.224 -0.0558  0.3371  0.2021
13589TIP3    H262259   1.405   6.688   1.326 -2.2244 -0.9499  2.5194
13590TIP3   OH262260   1.686   3.132  11.494 -0.6972 -0.1264 -0.3124
13590TIP3    H162261   1.670   3.202  11.431  2.6393 -0.2925 -1.5412
13590TIP3    H262262   1.755   3.080  11.455  0.7094 -0.9725  2.9302
13591TIP3   OH262263   3.202   3.844   3.397 -0.5925  0.1543 -0.6091
13591TIP3    H162264   3.122   3.844   3.450  0.8617 -1.9739  1.8540
13591TIP3    H262265   3.252   3.918   3.430  0.4678 -1.3773  1.4513
13592TIP3   OH262266   2.914   6.374  14.764 -0.1346  0.1848 -0.1931
13592TIP3    H162267   2.855   6.442  14.732  1.8437  2.5639  0.8666
13592TIP3    H262268   2.943   6.328  14.685 -0.3853  1.5511 -1.1078
13593TIP3   OH262269   2.219   3.239   2.704  0.0983 -0.9061  0.1462
13593TIP3    H162270   2.199   3.300   2.633 -1.1140 -1.8559 -0.3667
13593TIP3    H262271   2.304   3.203   2.682  0.7353  0.4297  0.3484
13594TIP3   OH262272   3.948   1.380   1.762 -0.5569  0.8880  0.3044
13594TIP3    H162273   3.944   1.476   1.758  1.8986  1.0607  0.4643
13594TIP3    H262274   3.857   1.352   1.757 -1.4448  3.2738  1.5770
13595TIP3   OH262275   1.331   0.875  12.727  0.2573  0.0661  0.1090
13595TIP3    H162276   1.387   0.802  12.755 -2.1254 -2.2501 -0.7402
13595TIP3    H262277   1.326   0.866  12.632 -2.8243 -0.9227  0.2680
13596TIP3   OH262278   3.215   5.780  16.879 -0.2942  0.3429  0.4750
13596TIP3    H162279   3.184   5.814  16.963 -1.4025  1.0673 -0.2076
13596TIP3    H262280   3.201   5.685  16.885  0.5745  0.2699  1.4807
13597TIP3   OH262281   2.915   6.172   6.594  0.5454 -0.8647 -0.3161
13597TIP3    H162282   2.992   6.224   6.619  0.3279 -0.3263 -0.7565
13597TIP3    H262283   2.868   6.227   6.532 -1.0662 -0.4951  1.1556
13598TIP3   OH262284   1.169   0.306   3.337  0.0451  0.2888  0.0038
13598TIP3    H162285   1.089   0.351   3.309 -0.5534  0.5587  2.0084
13598TIP3    H262286   1.220   0.373   3.382  0.9089 -0.1575 -0.2919
13599TIP3   OH262287   4.598   1.946  14.964  0.5476 -0.1974 -0.6100
13599TIP3    H162288   4.684   1.967  14.928  0.0133  0.1016 -1.7679
13599TIP3    H262289   4.560   2.031  14.986  0.4543 -0.3136 -0.3146
13600TIP3   OH262290   1.182   4.183   5.216  0.1999 -0.3676  0.4306
13600TIP3    H162291   1.109   4.244   5.227  1.1341  0.4998  2.4496
13600TIP3    H262292   1.210   4.194   5.125 -1.2696  0.3098  0.0357
13601TIP3   OH262293   5.190   1.389  11.936  0.2489  0.6818  0.3962
13601TIP3    H162294   5.220   1.412  12.024  1.5378  1.2286 -0.1666
13601TIP3    H262295   5.145   1.306  11.948 -1.4359  1.7230  1.9030
13602TIP3   OH262296   2.797   5.347  13.188 -0.1188  0.2863  0.2888
13602TIP3    H162297   2.883   5.386  13.205 -0.9835  1.8983  1.1327
13602TIP3    H262298   2.787   5.353  13.093  0.6543  0.1466  0.1888
13603TIP3   OH262299   5.233   6.169   1.069 -0.1917  0.3357 -0.5894
13603TIP3    H162300   5.277   6.194   1.150 -1.7662  2.1585 -0.2254
13603TIP3    H262301   5.143   6.148   1.096 -0.2570 -0.8336 -1.6384
13604TIP3   OH262302   2.367   5.874   0.327  0.5657 -0.0076 -0.4236
13604TIP3    H162303   2.354   5.779   0.323  2.4058 -0.2659 -1.0465
13604TIP3    H262304   2.332   5.906   0.244  0.1414 -0.1563 -0.3060
13605TIP3   OH262305   6.596   0.471  13.257 -0.0692 -0.5052  0.3444
13605TIP3    H162306   6.663   0.479  13.188  0.8965 -1.4313  1.1524
13605TIP3    H262307   6.593   0.558  13.297  1.1514 -0.6186  0.7296
13606TIP3   OH262308   6.203   1.596   4.527  1.1572 -0.8257 -0.3208
13606TIP3    H162309   6.275   1.543   4.492  1.3644  0.2873 -1.6652
13606TIP3    H262310   6.214   1.682   4.485 -1.6716 -0.9806 -1.5456
13607TIP3   OH262311   0.047   5.196  15.303 -0.4283 -1.0775  0.0679
13607TIP3    H162312   0.085   5.216  15.388  3.4462 -0.5679 -1.5840
13607TIP3    H262313   0.036   5.282  15.261 -0.6693 -1.4185 -0.5745
13608TIP3   OH262314   0.147   5.513  14.128  0.0874 -0.5242 -0.1494
13608TIP3    H162315   0.226   5.493  14.179  0.2473 -1.6505 -0.8122
13608TIP3    H262316   0.163   5.601  14.094  0.0876  0.1511  1.5057
13609TIP3   OH262317   5.246   6.585  12.907 -0.4877  0.1685  0.2507
13609TIP3    H162318   5.161   6.551  12.934 -0.8197  1.5161  0.9778
13609TIP3    H262319   5.302   6.574  12.984 -0.6029  1.2258  0.5038
13610TIP3   OH262320   0.534   6.555  16.059  0.3033 -0.0107 -0.1765
13610TIP3    H162321   0.563   6.603  16.136 -0.1896 -0.1040  0.0700
13610TIP3    H262322   0.439   6.544  16.071  0.4658 -1.4299 -0.0061
13611TIP3   OH262323   1.917   2.323  14.214 -0.2782 -0.3975  0.1950
13611TIP3    H162324   1.893   2.237  14.248 -0.2305 -0.7259 -0.5796
13611TIP3    H262325   1.986   2.354  14.273 -0.9837 -0.4574  1.0600
13612TIP3   OH262326   5.471   6.257   3.588  0.0281  0.7583  0.1063
13612TIP3    H162327   5.496   6.311   3.663 -1.2282  0.8555  0.4880
13612TIP3    H262328   5.395   6.207   3.620  0.4772 -0.4025 -0.5923
13613TIP3   OH262329   0.264   2.739   1.528 -0.5236 -0.3960  0.1269
13613TIP3    H162330   0.348   2.764   1.567 -0.8589 -0.4046  0.8753
13613TIP3    H262331   0.198   2.773   1.589 -1.0514 -0.9052 -0.1508
13614TIP3   OH262332   4.599   3.349  15.687  0.0778 -0.2066 -0.1152
13614TIP3    H162333   4.626   3.265  15.649 -1.1905 -1.2852  1.2239
13614TIP3    H262334   4.680   3.391  15.713  0.7431 -1.0333 -0.7673
13615TIP3   OH262335   2.962   1.863   2.773  0.2827 -0.4915  0.1515
13615TIP3    H162336   2.868   1.865   2.786 -0.2651 -1.2868 -2.8946
13615TIP3    H262337   2.989   1.955   2.778 -0.8162 -0.1521  0.0337
13616TIP3   OH262338   4.725   5.066   1.283 -0.3153 -0.0016  0.2943
13616TIP3    H162339   4.702   5.102   1.369  0.9706 -2.2581  1.6634
13616TIP3    H262340   4.801   5.117   1.256 -2.1270  2.3692 -0.7528
13617TIP3   OH262341   6.035   2.161   3.557 -1.0576  0.0770  0.5739
13617TIP3    H162342   6.048   2.089   3.618  0.2664  1.0491  1.5129
13617TIP3    H262343   5.942   2.156   3.532 -1.5702 -0.5274  2.4564
13618TIP3   OH262344   3.572   6.522  13.956 -0.1088  0.3460  0.2926
13618TIP3    H162345   3.648   6.480  13.917 -0.5611 -0.6797  0.4937
13618TIP3    H262346   3.580   6.505  14.050 -0.2948  0.7240  0.3809
13619TIP3   OH262347   2.247   0.743  12.491 -0.7998 -0.2724 -0.0376
13619TIP3    H162348   2.221   0.652  12.508  0.0456 -0.2063  1.8873
13619TIP3    H262349   2.185   0.773  12.424 -0.9155 -2.3309 -0.9480
13620TIP3   OH262350   1.694   5.931   2.412 -0.1182 -0.6704 -0.1877
13620TIP3    H162351   1.778   5.955   2.452  0.9623 -3.2978 -0.7060
13620TIP3    H262352   1.651   6.015   2.395  1.5262  0.6846  1.8961
13621TIP3   OH262353   4.627   3.810  15.474  0.1783 -0.1660 -0.2823
13621TIP3    H162354   4.705   3.859  15.448 -0.0249  0.5451  0.4197
13621TIP3    H262355   4.570   3.813  15.396  1.0144 -1.0810 -0.9579
13622TIP3   OH262356   2.132   5.341   5.632 -0.1332 -0.1749 -0.5831
13622TIP3    H162357   2.062   5.318   5.693  0.7545  0.4262  0.7047
13622TIP3    H262358   2.175   5.258   5.612 -0.9477 -0.4888 -1.0519
13623TIP3   OH262359   4.357   6.805  11.914  0.0704 -0.5842 -0.0080
13623TIP3    H162360   4.313   6.802  11.999  1.8367 -1.2980  0.9451
13623TIP3    H262361   4.287   6.797  11.850 -1.2782 -0.3890  1.3889
13624TIP3   OH262362   1.143   5.904   0.125 -0.5494  0.5234 -0.3962
13624TIP3    H162363   1.172   5.911   0.215  3.4367 -1.2215 -1.3339
13624TIP3    H262364   1.161   5.813   0.101 -0.2426  1.2426 -3.2925
13625TIP3   OH262365   4.047   6.399   3.022 -0.8904 -0.3721  0.6241
13625TIP3    H162366   4.025   6.450   3.099  0.5019  1.9556 -0.4209
13625TIP3    H262367   4.138   6.421   3.003 -1.1933 -0.8621 -1.6868
13626TIP3   OH262368   3.176   2.096   1.685  0.6351  0.0146 -0.1503
13626TIP3    H162369   3.142   2.017   1.644  1.3845 -0.7029  0.5575
13626TIP3    H262370   3.247   2.125   1.627 -0.7565  1.2042 -1.3402
13627TIP3   OH262371   2.366   5.941   0.982 -0.8266 -0.1106  0.4993
13627TIP3    H162372   2.352   6.024   1.027 -0.0820 -1.0254  2.5728
13627TIP3    H262373   2.281   5.919   0.945 -1.6142  0.5273  1.8412
13628TIP3   OH262374   5.523   3.166  11.624  0.3355 -0.7265  0.1252
13628TIP3    H162375   5.539   3.244  11.678 -0.7868  0.7133 -1.5275
13628TIP3    H262376   5.438   3.181  11.583  0.5922 -2.3255 -1.1094
13629TIP3   OH262377   2.579   4.053  16.298 -0.1651 -0.0912 -0.3190
13629TIP3    H162378   2.544   4.089  16.217 -0.6301  0.1130 -0.0286
13629TIP3    H262379   2.544   3.964  16.302 -2.7618  0.8889  1.1966
13630TIP3   OH262380   3.106   1.958   0.041  0.1617 -0.0728  0.1563
13630TIP3    H162381   3.185   2.007   0.014  0.4391 -0.4816  0.2216
13630TIP3    H262382   3.127   1.925   0.128 -0.0470 -0.2700  0.1313
13631TIP3   OH262383   1.291   0.893  16.731 -0.0261 -0.3747  0.3648
13631TIP3    H162384   1.334   0.884  16.646 -0.5423  2.8099 -0.3515
13631TIP3    H262385   1.346   0.954  16.779 -1.1669 -0.0328  1.2825
13632TIP3   OH262386   2.829   0.317   2.588  0.3847 -0.0233  0.3474
13632TIP3    H162387   2.915   0.316   2.548  1.9411  0.6612  3.3476
13632TIP3    H262388   2.835   0.384   2.657 -2.9312  0.8643 -0.0199
13633TIP3   OH262389   0.551   5.992  12.148 -0.1453  0.1200  0.5795
13633TIP3    H162390   0.553   6.026  12.238 -0.9969 -0.1519  0.7062
13633TIP3    H262391   0.459   5.975  12.130 -0.0081  0.4046 -0.4462
13634TIP3   OH262392   2.022   5.363   4.880 -0.0425  0.6605  0.5362
13634TIP3    H162393   2.042   5.372   4.786 -1.8372  2.4534  0.2734
13634TIP3    H262394   2.030   5.269   4.897  0.3460  0.2976 -1.3997
13635TIP3   OH262395   3.112   2.330   2.682 -0.3016 -0.1332 -0.5325
13635TIP3    H162396   3.121   2.383   2.602 -3.2218  5.0427  2.0393
13635TIP3    H262397   3.201   2.324   2.717  0.7181 -0.6487 -2.9662
13636TIP3   OH262398   1.825   4.788   4.018  0.3516  0.5814  0.2722
13636TIP3    H162399   1.865   4.702   4.002  1.6464  1.4664 -1.6355
13636TIP3    H262400   1.750   4.790   3.958  1.2784  1.3612 -0.9028
13637TIP3   OH262401   5.741   3.472  10.799  0.0098 -0.4369 -0.4060
13637TIP3    H162402   5.726   3.559  10.834  1.0334 -0.3798 -0.0902
13637TIP3    H262403   5.830   3.450  10.825 -1.0327 -2.6248  1.7467
13638TIP3   OH262404   1.086   1.454   5.661 -0.3511  0.4886  0.0318
13638TIP3    H162405   1.030   1.517   5.707 -0.4961  1.1863 -1.0579
13638TIP3    H262406   1.065   1.467   5.568  0.1061 -0.7075 -0.2603
13639TIP3   OH262407   5.734   5.113   3.214  0.0784  0.9223 -0.5646
13639TIP3    H162408   5.776   5.120   3.300 -1.7433 -0.9507  0.5753
13639TIP3    H262409   5.797   5.065   3.160  0.3614  0.2103  0.3837
13640TIP3   OH262410   4.626   6.634  15.736 -0.1121  0.1565 -0.0325
13640TIP3    H162411   4.709   6.679  15.720  0.4319 -0.5221  0.8450
13640TIP3    H262412   4.611   6.583  15.656  0.1609  0.5082 -0.3114
13641TIP3   OH262413   4.106   4.435  13.794 -0.4365 -0.6238  0.2085
13641TIP3    H162414   4.126   4.348  13.760  1.5782  0.4153 -1.4717
13641TIP3    H262415   4.012   4.445  13.780 -0.1684 -1.2975 -2.7707
13642TIP3   OH262416   6.401   0.188   3.684 -0.1604 -0.2974  0.5453
13642TIP3    H162417   6.373   0.182   3.775 -0.8370 -0.0217  0.3584
13642TIP3    H262418   6.497   0.188   3.689 -0.1340 -2.7007  1.1038
13643TIP3   OH262419   3.004   2.707   3.262  0.1236 -0.1927  0.4381
13643TIP3    H162420   3.001   2.796   3.297 -2.4312 -0.8407  2.1893
13643TIP3    H262421   3.060   2.659   3.323 -0.9332 -0.3880  1.2959
13644TIP3   OH262422   3.803   5.223  12.353 -0.3963  0.0448  0.0213
13644TIP3    H162423   3.736   5.154  12.355 -1.2368  0.8470  0.7122
13644TIP3    H262424   3.841   5.217  12.266 -0.7319 -1.0315 -0.0652
13645TIP3   OH262425   0.897   3.116  11.814  0.3726  0.1924 -0.3615
13645TIP3    H162426   0.832   3.124  11.884  0.1826 -1.4112 -0.3128
13645TIP3    H262427   0.863   3.046  11.758  1.4216  0.2210 -1.0479
13646TIP3   OH262428   6.408   3.136   2.721  0.7626 -0.2535 -0.5600
13646TIP3    H162429   6.413   3.040   2.718 -0.8652 -0.4296  0.8625
13646TIP3    H262430   6.400   3.162   2.630  0.4006 -1.5373 -0.9236
13647TIP3   OH262431   2.671   4.623  14.678 -0.3426  0.5263 -0.5746
13647TIP3    H162432   2.745   4.570  14.649 -0.2270  0.4149 -0.0897
13647TIP3    H262433   2.694   4.713  14.653  0.4246  0.6404  0.4532
13648TIP3   OH262434   1.221   2.337  16.183  0.2703  0.5221 -0.4178
13648TIP3    H162435   1.243   2.430  16.175  0.5427  0.4650 -0.3453
13648TIP3    H262436   1.127   2.336  16.202  0.1176  0.7516 -1.1413
13649TIP3   OH262437   0.615   4.401  15.208  0.2621 -0.3414 -0.9532
13649TIP3    H162438   0.616   4.479  15.153 -1.2468  0.8592  0.6154
13649TIP3    H262439   0.524   4.395  15.238  0.8678 -1.4038  0.7508
13650TIP3   OH262440   5.393   1.947  13.009 -0.1335  0.2285  0.3875
13650TIP3    H162441   5.440   1.870  13.042 -0.0823  0.9092  1.9845
13650TIP3    H262442   5.458   1.997  12.960 -0.1910 -0.7588 -0.7491
13651TIP3   OH262443   3.369   0.764  14.220 -0.2676 -0.1504 -0.7305
13651TIP3    H162444   3.336   0.684  14.179 -1.2747  0.8388 -1.9658
13651TIP3    H262445   3.310   0.780  14.293  0.3328 -0.8669 -0.0756
13652TIP3   OH262446   3.171   6.593   3.865  0.7647 -0.4018 -0.1005
13652TIP3    H162447   3.220   6.523   3.822  0.7567 -0.6743  0.3211
13652TIP3    H262448   3.160   6.562   3.955  1.9417  0.7270  0.4672
13653TIP3   OH262449   5.184   5.243   2.838  0.2670 -0.1015 -0.0136
13653TIP3    H162450   5.159   5.333   2.860 -0.0494 -0.5311  1.4966
13653TIP3    H262451   5.245   5.218   2.907 -1.8897 -2.0195  1.3175
13654TIP3   OH262452   0.170   4.793   0.610  0.3100 -0.5889  0.1243
13654TIP3    H162453   0.236   4.726   0.625 -1.2158 -1.8206  1.8357
13654TIP3    H262454   0.174   4.849   0.688  0.8900  0.7670 -0.8348
13655TIP3   OH262455   4.651   3.406   4.948 -0.0176 -0.9678  0.1210
13655TIP3    H162456   4.734   3.426   4.991  0.5861 -2.2886 -0.3805
13655TIP3    H262457   4.607   3.345   5.007 -0.5219 -0.4868  0.2527
13656TIP3   OH262458   1.628   2.140   0.174  0.6618 -0.6540 -0.3105
13656TIP3    H162459   1.619   2.230   0.207  1.4590 -1.0203  0.9870
13656TIP3    H262460   1.621   2.149   0.079  2.0616  0.9642 -0.3118
13657TIP3   OH262461   1.389   6.032   1.444 -0.0607  0.5404  0.5208
13657TIP3    H162462   1.384   6.059   1.352 -0.3631  1.5187  0.8074
13657TIP3    H262463   1.363   5.940   1.444  0.2812  0.4297 -0.4116
13658TIP3   OH262464   6.459   6.426   2.557  0.4585  0.1758  0.2747
13658TIP3    H162465   6.364   6.418   2.547  0.2535  1.3493  1.0484
13658TIP3    H262466   6.474   6.518   2.576  1.8362  0.1386 -0.4952
13659TIP3   OH262467   6.625   5.670  13.171 -0.3099  0.6835  0.2505
13659TIP3    H162468   6.652   5.717  13.092  0.3987 -1.5505 -0.9498
13659TIP3    H262469   6.610   5.580  13.141 -0.1684 -0.2199  2.6421
13660TIP3   OH262470   0.921   3.783   6.379 -0.2345 -0.1539  0.1739
13660TIP3    H162471   0.829   3.785   6.353 -0.6521  0.7013  1.6105
13660TIP3    H262472   0.922   3.731   6.459  0.5967 -0.4852 -0.0436
13661TIP3   OH262473   3.620   5.986   5.357  1.0071 -0.2533  0.1673
13661TIP3    H162474   3.692   6.031   5.313  0.7931  1.8750  1.7803
13661TIP3    H262475   3.662   5.914   5.404  1.7655 -0.2929 -0.5434
13662TIP3   OH262476   3.063   0.301  11.578 -0.5547  0.3786 -0.1633
13662TIP3    H162477   3.097   0.389  11.597 -1.3463  0.2636  2.1147
13662TIP3    H262478   3.048   0.301  11.483 -0.4633  2.6680 -0.2335
13663TIP3   OH262479   4.139   6.688  11.121 -0.0677 -0.2591 -0.0505
13663TIP3    H162480   4.188   6.625  11.175 -1.7792 -1.8467 -0.2722
13663TIP3    H262481   4.206   6.732  11.069  1.2494 -1.4552  0.5699
13664TIP3   OH262482   5.923   5.261   1.309 -0.1201 -0.4710  1.0080
13664TIP3    H162483   5.859   5.239   1.241  0.5182 -1.9912  0.8632
13664TIP3    H262484   5.884   5.229   1.390  0.6586 -1.9047  0.8463
13665TIP3   OH262485   0.616   2.283   3.123 -0.0501  0.2229  0.0099
13665TIP3    H162486   0.566   2.364   3.116 -0.1779 -0.0402 -3.8202
13665TIP3    H262487   0.561   2.217   3.082  1.2947 -1.2101  0.4056
13666TIP3   OH262488   1.010   4.321   1.451 -0.6681 -0.2251  0.2731
13666TIP3    H162489   1.039   4.236   1.486 -1.2818 -0.5048  0.1075
13666TIP3    H262490   0.916   4.311   1.439 -0.7300  0.4573  0.1707
13667TIP3   OH262491   6.555   3.986   5.082 -0.1349  0.0386 -0.6584
13667TIP3    H162492   6.558   3.980   4.987 -1.0619 -0.0733 -0.6836
13667TIP3    H262493   6.627   4.045   5.104 -0.5172  0.8483 -1.4997
13668TIP3   OH262494   0.077   3.452   0.711  0.0359 -0.1999 -0.1539
13668TIP3    H162495   0.094   3.387   0.780 -0.8193  0.1164  0.3662
13668TIP3    H262496   0.022   3.518   0.753  1.9251  1.5508 -0.3192
13669TIP3   OH262497   5.862   1.411  16.987 -0.0060  0.0042 -0.1772
13669TIP3    H162498   5.812   1.335  16.956  0.3509 -0.2398 -0.1495
13669TIP3    H262499   5.798   1.461  17.038 -0.1863 -0.3828 -0.0190
13670TIP3   OH262500   5.539   3.286  15.752  0.4900 -0.2220 -0.2456
13670TIP3    H162501   5.576   3.271  15.839 -1.0404  0.0398  0.4760
13670TIP3    H262502   5.593   3.356  15.715  0.0689  0.9118  1.1967
13671TIP3   OH262503   1.782   1.668  16.990  0.2152  0.8427  0.0399
13671TIP3    H162504   1.827   1.583  16.991  1.0038  1.2290 -1.0835
13671TIP3    H262505   1.729   1.668  17.070  0.6690 -0.4532  0.3620
13672TIP3   OH262506   3.410   0.887   2.312  0.0428  0.5860  0.1777
13672TIP3    H162507   3.396   0.926   2.398  0.6240  1.5173 -0.1345
13672TIP3    H262508   3.444   0.959   2.258  2.6415 -0.6497 -0.0127
13673TIP3   OH262509   3.901   4.118   3.455  0.1899  0.0759 -0.0160
13673TIP3    H162510   3.938   4.032   3.478 -1.0932 -0.3714  0.4532
13673TIP3    H262511   3.878   4.109   3.362 -0.1842 -0.1823  0.0991
13674TIP3   OH262512   2.451   1.713  10.605 -0.2317 -0.0162 -0.2581
13674TIP3    H162513   2.454   1.808  10.609 -1.2279 -0.0254  1.7179
13674TIP3    H262514   2.523   1.684  10.662  1.8737 -0.5198 -2.9977
13675TIP3   OH262515   0.925   0.112   5.786 -0.2758 -0.0830 -0.1033
13675TIP3    H162516   0.986   0.157   5.727 -0.0014 -1.6337 -1.0805
13675TIP3    H262517   0.932   0.159   5.869 -0.1012  1.7087 -1.0740
13676TIP3   OH262518   2.894   3.108   2.111 -0.0687 -0.2944  0.8506
13676TIP3    H162519   2.961   3.137   2.173  1.1315 -2.9241  0.9346
13676TIP3    H262520   2.896   3.174   2.041  2.0104  0.1923  1.2827
13677TIP3   OH262521   2.557   0.551  15.721 -0.2607  0.3116  0.1581
13677TIP3    H162522   2.614   0.505  15.783 -0.4388 -1.1320 -0.7036
13677TIP3    H262523   2.468   0.528  15.748 -0.3923  0.8915  0.2475
13678TIP3   OH262524   5.652   1.636  12.568 -0.2362  0.6210  0.6359
13678TIP3    H162525   5.657   1.541  12.580 -1.6149  0.3971 -0.2451
13678TIP3    H262526   5.741   1.663  12.548  0.0846 -0.5771  0.3708
13679TIP3   OH262527   1.583   4.300   3.401 -0.1825  0.6397 -0.5538
13679TIP3    H162528   1.624   4.326   3.484  2.2748  0.9543 -1.7743
13679TIP3    H262529   1.530   4.224   3.424  0.6179  0.5751  1.2935
13680TIP3   OH262530   1.157   4.458  15.542  0.4619  0.0640 -0.0820
13680TIP3    H162531   1.067   4.434  15.563  0.1695  1.2728  0.1054
13680TIP3    H262532   1.149   4.531  15.480  1.2543  1.4358  1.3503
13681TIP3   OH262533   1.593   4.255   6.252 -0.4940 -0.3412 -0.2063
13681TIP3    H162534   1.618   4.311   6.179 -1.2730 -1.3119 -1.2539
13681TIP3    H262535   1.675   4.236   6.298  0.1935 -0.7236 -1.5545
13682TIP3   OH262536   4.084   6.564  16.390  0.6870 -0.0470  0.2537
13682TIP3    H162537   4.112   6.502  16.458  0.6465  0.2780  0.5696
13682TIP3    H262538   4.086   6.513  16.309  1.9255 -0.1116  0.3099
13683TIP3   OH262539   4.219   5.049  14.391 -0.2072  0.1020 -0.3780
13683TIP3    H162540   4.296   5.014  14.435 -0.5426 -0.5550 -0.2859
13683TIP3    H262541   4.252   5.088  14.311  0.7432  3.4024  1.4459
13684TIP3   OH262542   2.882   4.478   3.073 -0.5825  0.5305 -0.1429
13684TIP3    H162543   2.883   4.479   3.169  0.0896 -0.1134 -0.1334
13684TIP3    H262544   2.838   4.396   3.051 -0.6081  0.6094 -0.3827
13685TIP3   OH262545   6.113   5.371  10.456 -0.6097 -0.7100  0.0604
13685TIP3    H162546   6.027   5.357  10.495 -1.8280 -0.9794 -2.4910
13685TIP3    H262547   6.108   5.458  10.417  0.0437 -0.9546 -0.6009
13686TIP3   OH262548   5.501   4.082  13.889 -0.2616  0.2003 -0.7573
13686TIP3    H162549   5.566   4.011  13.893  0.9356  1.1252 -2.3216
13686TIP3    H262550   5.423   4.040  13.853 -0.3618 -0.8014  0.5503
13687TIP3   OH262551   0.008   1.879   4.115 -0.3435 -0.4881 -0.1171
13687TIP3    H162552   0.011   1.801   4.170 -0.3659  0.7224  1.6804
13687TIP3    H262553  -0.057   1.858   4.048 -1.7077 -1.3572  1.4038
13688TIP3   OH262554   6.674   5.970   2.029  0.0020 -0.3022  0.2260
13688TIP3    H162555   6.631   6.047   1.989  0.5668  1.6145  3.0150
13688TIP3    H262556   6.738   5.942   1.964 -0.3242  1.5018 -0.9488
13689TIP3   OH262557   1.613   2.605   1.213 -0.3537 -0.1017 -0.3491
13689TIP3    H162558   1.703   2.606   1.180 -0.5778 -3.0520 -1.2946
13689TIP3    H262559   1.559   2.622   1.136 -0.6716 -0.0928 -0.1254
13690TIP3   OH262560   4.656   1.847   2.099  0.5177 -0.6422  1.0877
13690TIP3    H162561   4.722   1.917   2.096  0.3725 -0.4953 -2.6097
13690TIP3    H262562   4.577   1.891   2.130  0.4582  0.9150 -1.0792
13691TIP3   OH262563   3.037   2.990  13.834  0.2953 -0.4288 -0.1576
13691TIP3    H162564   3.062   3.082  13.820 -0.1073 -0.5348 -1.8510
13691TIP3    H262565   2.942   2.992  13.846  0.2061 -0.6649 -0.7852
13692TIP3   OH262566   3.606   5.170   6.137 -0.1574 -0.4314  0.2322
13692TIP3    H162567   3.577   5.210   6.219  0.2609  1.0733 -0.3124
13692TIP3    H262568   3.690   5.130   6.159 -0.4387 -0.7790  0.7182
13693TIP3   OH262569   3.123   2.917  17.113  0.3050  0.1060  0.1248
13693TIP3    H162570   3.083   2.868  17.041  2.3886  0.5594 -1.4556
13693TIP3    H262571   3.095   3.007  17.099  0.6827  0.1883 -0.1336
13694TIP3   OH262572   6.147   2.248  16.520 -0.6616 -0.0339  0.4011
13694TIP3    H162573   6.086   2.250  16.595 -1.0498  1.4372  0.0809
13694TIP3    H262574   6.229   2.216  16.557 -0.6450  1.3429  1.6255
13695TIP3   OH262575   4.823   4.352   3.548  0.4109  0.2138 -0.2434
13695TIP3    H162576   4.735   4.389   3.548  0.5821  0.6556 -1.4836
13695TIP3    H262577   4.871   4.403   3.483  1.3061 -0.6823 -0.3106
13696TIP3   OH262578   1.329   6.287  14.717  0.1500 -0.8573  0.2670
13696TIP3    H162579   1.249   6.274  14.768  0.5294 -2.0405  0.6018
13696TIP3    H262580   1.327   6.379  14.691 -0.9560 -0.6939  0.8824
13697TIP3   OH262581   6.501   6.251  11.942 -0.3089 -0.3315  0.2879
13697TIP3    H162582   6.480   6.164  11.907  0.7936 -0.0811 -1.0994
13697TIP3    H262583   6.540   6.298  11.868  0.6438  0.7974  1.4469
13698TIP3   OH262584   1.368   1.184  13.325 -0.2081  0.5573 -0.6106
13698TIP3    H162585   1.438   1.248  13.322  1.1943 -0.9087 -0.7189
13698TIP3    H262586   1.330   1.193  13.412  0.4998  0.9985 -0.3424
13699TIP3   OH262587   6.801   6.258   5.210  0.4756  0.3796 -0.1493
13699TIP3    H162588   6.812   6.220   5.297  3.1575  1.3734  0.0279
13699TIP3    H262589   6.839   6.345   5.217  2.0201  0.0055 -2.6203
13700TIP3   OH262590   5.084   2.803   1.820  0.2150  0.1139 -0.0563
13700TIP3    H162591   4.989   2.806   1.828  0.3173  1.0696  1.0653
13700TIP3    H262592   5.107   2.887   1.780  0.5528 -0.3352 -0.8269
13701TIP3   OH262593   4.904   2.997   1.047  0.5167  0.3965  0.6104
13701TIP3    H162594   4.925   3.073   1.102  0.9684  1.6090 -1.1420
13701TIP3    H262595   4.809   2.989   1.053 -0.1592  3.7902 -2.3139
13702TIP3   OH262596   4.162   5.113   2.050 -0.2552 -0.0199 -0.3663
13702TIP3    H162597   4.120   5.116   1.964 -2.7397  0.6747  0.7700
13702TIP3    H262598   4.214   5.032   2.049 -1.3413 -0.7461 -2.0155
13703TIP3   OH262599   2.770   6.786   4.808 -0.1145  0.0468 -0.6195
13703TIP3    H162600   2.690   6.825   4.771 -0.3183 -0.4770 -0.7307
13703TIP3    H262601   2.738   6.724   4.874  0.1881 -0.4311 -0.9198
13704TIP3   OH262602   2.611   3.897  13.839 -0.0837  0.1406 -0.3204
13704TIP3    H162603   2.624   3.882  13.746  0.5406  1.3440 -0.4515
13704TIP3    H262604   2.593   3.991  13.846 -0.6752 -0.0302  0.7186
13705TIP3   OH262605   2.555   3.550  17.029 -0.3543  0.3323 -0.1358
13705TIP3    H162606   2.566   3.636  16.990  0.4313 -0.6615 -2.2601
13705TIP3    H262607   2.570   3.489  16.957 -2.4846 -1.5753  0.9179
13706TIP3   OH262608   4.609   3.813   2.572  0.3343 -0.3116 -0.1070
13706TIP3    H162609   4.664   3.836   2.497  0.2815 -1.3147 -0.4600
13706TIP3    H262610   4.671   3.781   2.638  0.2451 -0.7567 -0.2385
13707TIP3   OH262611   2.997   0.819   2.463  0.8972  0.1906 -0.0003
13707TIP3    H162612   3.007   0.784   2.374  1.1526 -0.5507  0.3090
13707TIP3    H262613   2.909   0.857   2.464  1.5242  1.7578 -1.0831
13708TIP3   OH262614   1.605   5.616  15.321 -0.7611  0.8677 -0.1651
13708TIP3    H162615   1.552   5.569  15.385 -0.8999  1.1459 -0.0751
13708TIP3    H262616   1.573   5.706  15.325  0.4087  1.2689  0.6360
13709TIP3   OH262617   1.948   1.426   3.642  0.3874 -0.3748 -0.5076
13709TIP3    H162618   1.884   1.465   3.701  1.3535  0.2336  0.1709
13709TIP3    H262619   1.896   1.390   3.571 -0.7322 -0.2818  0.2423
13710TIP3   OH262620   6.016   4.436  11.043 -0.3824 -0.7716  0.3082
13710TIP3    H162621   6.037   4.529  11.035 -1.3133 -0.3690  2.0356
13710TIP3    H262622   6.041   4.413  11.133 -2.3241 -1.5603  0.7071
13711TIP3   OH262623   6.458   4.716  14.207 -0.2479  0.1725 -0.5191
13711TIP3    H162624   6.505   4.702  14.289 -0.5594 -0.7841 -0.4950
13711TIP3    H262625   6.412   4.799  14.219  1.5613  1.2444 -0.6128
13712TIP3   OH262626   6.170   6.215   3.752 -0.2136 -0.1210  0.4829
13712TIP3    H162627   6.137   6.141   3.802 -0.7655 -0.9497 -1.0315
13712TIP3    H262628   6.132   6.204   3.665  1.9951  0.3300 -0.6118
13713TIP3   OH262629   5.751   5.289  14.375 -0.3549 -0.4682 -0.5292
13713TIP3    H162630   5.779   5.270  14.285  0.3699 -2.2252  0.0345
13713TIP3    H262631   5.706   5.210  14.403 -0.0025 -0.1839  0.8981
13714TIP3   OH262632   3.724   3.647   6.460  0.3313 -0.0947  0.5068
13714TIP3    H162633   3.783   3.713   6.423  0.3934 -0.3325  0.1792
13714TIP3    H262634   3.655   3.637   6.395 -0.7042  1.0225  1.3983
13715TIP3   OH262635   2.653   2.851   3.112  0.1994  0.2114  0.7437
13715TIP3    H162636   2.640   2.919   3.178  0.1744  1.2423 -0.2974
13715TIP3    H262637   2.746   2.857   3.090  0.2097 -0.1362  0.6875
13716TIP3   OH262638   5.021   0.854  15.715 -0.1901  0.0816  0.3955
13716TIP3    H162639   4.986   0.775  15.675 -1.5360  0.2318  1.1851
13716TIP3    H262640   4.990   0.925  15.658  2.0965  0.0116 -1.0432
13717TIP3   OH262641   3.050   3.222   0.199  0.2334 -0.5562 -0.7567
13717TIP3    H162642   3.137   3.257   0.215  0.3980 -1.7038  1.2251
13717TIP3    H262643   3.062   3.127   0.195 -1.1487 -0.9996  2.2630
13718TIP3   OH262644   4.181   4.411  15.882 -0.0744  0.0222  0.2497
13718TIP3    H162645   4.276   4.401  15.873 -0.1052  0.3530 -0.4793
13718TIP3    H262646   4.147   4.394  15.795 -0.8677 -1.9568  0.8775
13719TIP3   OH262647   0.690   4.998  11.394 -0.1923 -0.4808 -0.3355
13719TIP3    H162648   0.658   4.928  11.452 -1.1718  0.9956  1.0169
13719TIP3    H262649   0.783   5.006  11.415  0.0078 -1.6121 -0.7680
13720TIP3   OH262650   2.469   2.124  16.927 -0.1635  0.2224 -0.0326
13720TIP3    H162651   2.526   2.159  16.859 -0.1620 -0.5430 -0.4397
13720TIP3    H262652   2.382   2.122  16.886 -0.0717 -0.7258 -0.2063
13721TIP3   OH262653   1.120   6.100  16.695 -0.2211  0.2340  0.0107
13721TIP3    H162654   1.186   6.039  16.727  1.8644  1.4794 -1.6442
13721TIP3    H262655   1.147   6.185  16.728 -1.5423  0.6718  0.0522
13722TIP3   OH262656   4.388   1.183  13.982 -0.2548 -0.3387 -0.0891
13722TIP3    H162657   4.324   1.141  13.925 -1.5466 -0.8862  1.6416
13722TIP3    H262658   4.469   1.133  13.969 -1.6225 -3.2828  1.5766
13723TIP3   OH262659   0.649   2.188   4.373 -0.1125  0.0309  0.2211
13723TIP3    H162660   0.629   2.160   4.463  0.4006  1.5449  0.8441
13723TIP3    H262661   0.570   2.166   4.323 -1.2226  0.9678  1.4779
13724TIP3   OH262662   6.308   6.248  15.986 -0.5588 -0.2147 -0.0611
13724TIP3    H162663   6.291   6.329  15.939  1.0222  0.0490 -0.2336
13724TIP3    H262664   6.370   6.200  15.931  2.3151  0.6243  2.1503
13725TIP3   OH262665   5.490   3.650  13.360  0.2752 -0.5871 -0.4005
13725TIP3    H162666   5.458   3.564  13.333  0.2464 -1.3485  1.8104
13725TIP3    H262667   5.458   3.660  13.450  1.6242  1.0413 -0.0418
13726TIP3   OH262668   0.779   3.816   1.284 -0.1582  0.0622 -0.1628
13726TIP3    H162669   0.768   3.807   1.379  2.4487 -1.1826  0.0861
13726TIP3    H262670   0.753   3.731   1.249  1.4743 -0.4113 -0.2659
13727TIP3   OH262671   1.158   1.097   1.240  0.0289 -0.4133 -0.0856
13727TIP3    H162672   1.120   1.018   1.278 -0.0794 -1.3065 -1.9408
13727TIP3    H262673   1.135   1.092   1.148 -0.8406  2.3216 -0.0956
13728TIP3   OH262674   6.783   4.442   1.882 -0.0143 -0.2812 -0.1754
13728TIP3    H162675   6.775   4.419   1.975 -1.3334 -0.7084 -0.3802
13728TIP3    H262676   6.742   4.369   1.836 -1.4004  0.9798 -1.0031
13729TIP3   OH262677   0.295   2.977  11.408  0.4389  0.2236  0.2315
13729TIP3    H162678   0.221   3.023  11.368  1.2812  0.2173 -1.4578
13729TIP3    H262679   0.350   3.047  11.443  0.5551  0.3637 -0.2194
13730TIP3   OH262680   5.249   6.415  16.534 -0.1099  0.1100 -0.2938
13730TIP3    H162681   5.247   6.424  16.629 -0.0339 -0.3834 -0.2432
13730TIP3    H262682   5.269   6.503  16.502 -2.1249  0.7579  0.0518
13731TIP3   OH262683   3.036   1.522  12.136 -0.0155  0.7797 -0.2304
13731TIP3    H162684   2.947   1.524  12.103 -0.4691  1.2570  0.9540
13731TIP3    H262685   3.029   1.480  12.222  0.7870  1.4598  0.1886
13732TIP3   OH262686   1.610   1.735  13.658  0.2140  0.2223  0.0238
13732TIP3    H162687   1.659   1.757  13.738  0.3133 -3.1929  1.0726
13732TIP3    H262688   1.675   1.697  13.600  0.1252  2.6162 -1.7988
13733TIP3   OH262689   6.600   3.321  15.976  0.4318 -0.0615  0.1802
13733TIP3    H162690   6.571   3.405  15.942  1.9475  0.0212 -1.0199
13733TIP3    H262691   6.607   3.334  16.071 -1.1331  0.5665  0.2421
13734TIP3   OH262692   4.168   0.106   3.576 -0.8685 -0.3011 -0.2718
13734TIP3    H162693   4.112   0.039   3.617 -0.3865  0.3578  1.5658
13734TIP3    H262694   4.257   0.081   3.602 -0.7113  1.2497  0.8308
13735TIP3   OH262695   1.977   6.745   3.317  0.0698  0.0970  0.2462
13735TIP3    H162696   2.063   6.739   3.359 -0.1595  0.6252  0.8058
13735TIP3    H262697   1.975   6.834   3.281 -0.7861  0.5892  1.4570
13736TIP3   OH262698   4.985   0.991  13.809 -0.8027 -0.1658  0.7082
13736TIP3    H162699   5.068   1.009  13.853  2.5390 -2.7959 -3.6530
13736TIP3    H262700   4.980   1.058  13.740 -1.5467 -0.8779  0.0491
13737TIP3   OH262701   0.188   3.251  12.637 -0.3539 -0.1149  0.0248
13737TIP3    H162702   0.099   3.250  12.673  0.0876 -0.4247  1.1494
13737TIP3    H262703   0.238   3.196  12.697  0.5875  0.0175 -0.6287
13738TIP3   OH262704   2.648   3.735  11.772  0.2358  0.0390  0.4906
13738TIP3    H162705   2.579   3.775  11.824 -0.9663 -0.9801 -0.2586
13738TIP3    H262706   2.716   3.713  11.836  0.3948  2.0596  1.0887
13739TIP3   OH262707   6.389   6.597   4.995 -0.6361  0.0333 -0.2927
13739TIP3    H162708   6.379   6.515   4.948  0.8410 -0.7089  0.6024
13739TIP3    H262709   6.359   6.577   5.084 -1.1373  0.7227 -0.3040
13740TIP3   OH262710   5.527   0.993   0.260 -0.0759  0.7345 -0.1553
13740TIP3    H162711   5.531   1.074   0.310  0.0570  0.2531  0.6371
13740TIP3    H262712   5.525   1.021   0.168  0.3111  1.6146  0.0951
13741TIP3   OH262713   0.006   3.592   2.949 -0.3736  0.3601  0.3123
13741TIP3    H162714   0.057   3.633   2.879  0.2990 -0.7611  0.1059
13741TIP3    H262715  -0.085   3.599   2.920 -0.2184  1.0935 -0.0217
13742TIP3   OH262716   3.783   6.375  16.229  0.8769  0.3069  0.0563
13742TIP3    H162717   3.719   6.430  16.186  0.1378 -0.3049  0.3529
13742TIP3    H262718   3.847   6.436  16.267  0.8753  0.8882 -0.8599
13743TIP3   OH262719   1.978   1.682  12.388 -0.3535  0.0573  0.2796
13743TIP3    H162720   1.942   1.743  12.452  2.1014  0.6555  1.2116
13743TIP3    H262721   2.071   1.705  12.383  0.0014 -1.5297 -1.7686
13744TIP3   OH262722   1.361   4.885   3.147  0.4851 -0.1362 -0.0789
13744TIP3    H162723   1.352   4.942   3.071  1.8575  0.5591  0.2459
13744TIP3    H262724   1.286   4.908   3.203  0.0389  0.0781 -0.7536
13745TIP3   OH262725   1.668   1.622   3.056 -0.1198 -0.2826 -0.6623
13745TIP3    H162726   1.631   1.544   3.015 -2.3577  0.4038 -0.0880
13745TIP3    H262727   1.659   1.607   3.150 -0.8489  0.7584 -0.5445
13746TIP3   OH262728   6.779   6.334  15.412  0.5027  0.1375 -0.6478
13746TIP3    H162729   6.792   6.385  15.492  2.2084 -0.5420 -0.4461
13746TIP3    H262730   6.685   6.314  15.411  0.5922 -0.7637  1.7948
13747TIP3   OH262731   5.094   2.587  15.909 -0.2449  0.2970 -0.3686
13747TIP3    H162732   5.136   2.671  15.891 -0.2404  0.5996  0.9746
13747TIP3    H262733   5.104   2.538  15.828  3.1838  0.1495  0.0063
13748TIP3   OH262734   5.616   2.770   0.327 -0.4048 -0.0344  0.3179
13748TIP3    H162735   5.642   2.774   0.419  0.2821  0.9714  0.1040
13748TIP3    H262736   5.523   2.790   0.327 -0.4684 -0.3200  0.8203
13749TIP3   OH262737   5.547   0.833   0.490 -0.1593 -0.6659  0.3632
13749TIP3    H162738   5.589   0.759   0.447  1.2362  1.1802 -1.6967
13749TIP3    H262739   5.520   0.890   0.418  2.1927  2.5555  1.7774
13750TIP3   OH262740   5.493   0.697  16.616  0.9365  0.3127 -0.5662
13750TIP3    H162741   5.567   0.758  16.609  1.1489  0.2080  0.6499
13750TIP3    H262742   5.498   0.646  16.535  0.6211  2.0273 -1.7292
13751TIP3   OH262743   6.034   6.019   3.874  0.1889 -0.1960  0.1261
13751TIP3    H162744   6.107   6.019   3.936 -0.4939  0.1562  0.9612
13751TIP3    H262745   5.962   5.979   3.922 -0.2300 -0.3483 -0.6087
13752TIP3   OH262746   0.696   3.446   3.758 -0.2817 -0.4461  0.0593
13752TIP3    H162747   0.625   3.448   3.694 -1.3116  1.3751  1.1747
13752TIP3    H262748   0.693   3.357   3.795 -1.2929 -0.7160 -0.6331
13753TIP3   OH262749   0.552   2.781  17.067 -0.0787  0.7749  0.3193
13753TIP3    H162750   0.563   2.811  16.977 -0.6590  1.1126  0.3561
13753TIP3    H262751   0.506   2.853  17.111  1.1920  1.1052  1.1712
13754TIP3   OH262752   0.510   1.982   1.661  0.1594  0.2406  0.0013
13754TIP3    H162753   0.490   2.047   1.593 -2.0411 -0.0069  0.3269
13754TIP3    H262754   0.483   2.024   1.742  1.0823 -0.1484  0.5179
13755TIP3   OH262755   1.782   6.057  16.653 -0.1053 -0.1209 -1.1409
13755TIP3    H162756   1.779   5.990  16.722 -2.4225 -0.4658 -1.4967
13755TIP3    H262757   1.753   6.011  16.574  1.9322  0.4205 -2.2530
13756TIP3   OH262758   4.283   4.963   5.492  0.3607 -0.3988  0.4209
13756TIP3    H162759   4.259   4.920   5.575  0.0689  0.0490  0.5708
13756TIP3    H262760   4.199   4.983   5.451  0.5042 -0.3736  0.1390
13757TIP3   OH262761   3.893   4.411   1.184  0.2503 -0.5629 -0.2693
13757TIP3    H162762   3.965   4.373   1.134  0.1903 -0.1699 -0.6607
13757TIP3    H262763   3.826   4.343   1.185  1.0509 -1.3718  1.0731
13758TIP3   OH262764   6.683   1.171   2.098  0.1720 -0.1295 -0.0004
13758TIP3    H162765   6.742   1.095   2.088  2.2821  1.4592 -0.3643
13758TIP3    H262766   6.731   1.230   2.157 -1.7206  0.6534  0.8171
13759TIP3   OH262767   1.602   6.701  12.241  0.6850  0.1602 -0.4282
13759TIP3    H162768   1.599   6.606  12.245  0.2188  0.1692 -0.4781
13759TIP3    H262769   1.531   6.725  12.182 -0.7224  0.6515  1.3703
13760TIP3   OH262770   0.228   3.395   4.578 -0.2068 -0.3190  0.4356
13760TIP3    H162771   0.181   3.470   4.612  0.4035 -0.1033  0.8115
13760TIP3    H262772   0.318   3.426   4.564 -0.5151 -0.2293 -1.8566
13761TIP3   OH262773   3.477   5.447  14.961  0.1842 -0.2439 -0.1761
13761TIP3    H162774   3.493   5.512  15.029  0.7843 -1.5393  0.9607
13761TIP3    H262775   3.542   5.467  14.893  1.0927 -0.3082  0.6544
13762TIP3   OH262776   0.802   2.607   3.149  0.6876 -0.3947 -0.6524
13762TIP3    H162777   0.837   2.676   3.206 -0.9491  1.0760 -1.3404
13762TIP3    H262778   0.744   2.556   3.206 -0.7576  0.9271 -0.8873
13763TIP3   OH262779   3.194   2.972  15.883  0.6680  0.5227  0.1486
13763TIP3    H162780   3.242   2.917  15.946  0.3542 -0.5567 -0.5381
13763TIP3    H262781   3.263   3.012  15.829  0.8468 -0.2344 -0.1913
13764TIP3   OH262782   0.730   5.782  14.810 -0.7143  0.1058  0.0274
13764TIP3    H162783   0.715   5.786  14.905  1.3050 -0.9973  0.4281
13764TIP3    H262784   0.753   5.872  14.786  0.5981  0.0298  0.9307
13765TIP3   OH262785   5.830   5.723  12.504 -0.1582 -0.0623  0.0716
13765TIP3    H162786   5.886   5.740  12.428 -1.3207 -0.1971 -0.8425
13765TIP3    H262787   5.873   5.650  12.549  1.9237  1.6532  1.0159
13766TIP3   OH262788   5.760   4.729  12.896  0.0621  0.3820  0.2464
13766TIP3    H162789   5.669   4.748  12.920  0.0140 -0.3382  0.6695
13766TIP3    H262790   5.806   4.813  12.908 -0.1026  0.2515  2.2021
13767TIP3   OH262791   0.632   5.048   5.860  0.1080  0.1162 -0.5643
13767TIP3    H162792   0.723   5.064   5.887  0.3123 -0.0354 -1.1493
13767TIP3    H262793   0.579   5.091   5.928  0.6122  0.0039 -0.0922
13768TIP3   OH262794   2.752   5.456   4.209 -0.2229 -0.5762 -0.9271
13768TIP3    H162795   2.773   5.501   4.291  0.8785 -1.1245 -0.8840
13768TIP3    H262796   2.795   5.371   4.218  1.1473 -0.1183 -2.6568
13769TIP3   OH262797   3.380   1.089   4.006 -0.2810  0.1624  0.2166
13769TIP3    H162798   3.394   1.183   3.989 -0.3032  0.3281  1.0698
13769TIP3    H262799   3.397   1.047   3.922 -0.6202  0.9711 -0.2742
13770TIP3   OH262800   5.684   5.648   4.518  1.2389  0.1570  0.0538
13770TIP3    H162801   5.664   5.555   4.513  0.8577 -0.1260  3.8501
13770TIP3    H262802   5.605   5.689   4.553  2.6044  1.1871  2.2031
13771TIP3   OH262803   6.071   4.280  12.974  0.0187 -0.0738 -0.0955
13771TIP3    H162804   6.053   4.213  12.908 -0.8124  1.7865 -1.8839
13771TIP3    H262805   6.002   4.345  12.962 -1.1460 -0.3625  3.7463
13772TIP3   OH262806   0.004   3.190  11.798  0.0939 -0.4409  0.3733
13772TIP3    H162807   0.009   3.277  11.839  3.1504 -0.0880 -0.4915
13772TIP3    H262808   0.040   3.131  11.864  0.0191 -0.7216  0.1645
13773TIP3   OH262809   3.879   0.087  11.929 -0.4439 -0.4543  0.2827
13773TIP3    H162810   3.816   0.094  12.001  0.1016 -0.3639  0.7595
13773TIP3    H262811   3.962   0.063  11.972  0.3780  1.5603 -0.0517
13774TIP3   OH262812   5.619   0.371   0.161 -0.6280 -0.0280 -0.3953
13774TIP3    H162813   5.681   0.314   0.208 -0.4674  0.0433 -0.5224
13774TIP3    H262814   5.599   0.323   0.080 -0.0270  0.3770 -0.7829
13775TIP3   OH262815   3.799   5.844  15.104 -0.1554 -0.5183 -0.6175
13775TIP3    H162816   3.726   5.815  15.159  0.2179  1.0592  0.8113
13775TIP3    H262817   3.843   5.912  15.156  1.1369 -0.0074 -2.2677
13776TIP3   OH262818   3.244   0.321   5.093 -0.3636 -0.7328  0.2637
13776TIP3    H162819   3.315   0.385   5.096 -1.4744  0.5677 -0.3718
13776TIP3    H262820   3.222   0.305   5.185 -1.6368  1.6179  0.4336
13777TIP3   OH262821   2.659   2.005   3.810 -0.0242  0.0077 -0.4009
13777TIP3    H162822   2.685   1.913   3.812  1.0743  0.2786 -1.3519
13777TIP3    H262823   2.638   2.022   3.719  2.3519  1.3504 -0.7808
13778TIP3   OH262824   4.430   0.569   0.837  0.0081 -0.5295 -0.5791
13778TIP3    H162825   4.338   0.549   0.854  0.2583 -0.5466  0.8739
13778TIP3    H262826   4.442   0.658   0.871  0.4524 -0.3973 -1.0746
13779TIP3   OH262827   5.494   3.947  13.591  0.1885  0.3318 -0.6306
13779TIP3    H162828   5.553   4.005  13.543  0.3316  1.1458  0.4981
13779TIP3    H262829   5.407   3.966  13.553  0.2281  1.3242 -0.2640
13780TIP3   OH262830   0.888   0.827   1.873  0.0548 -0.5417  0.9486
13780TIP3    H162831   0.915   0.781   1.793  0.8240 -0.4971  1.1715
13780TIP3    H262832   0.805   0.786   1.898  0.4837 -1.4820  0.8760
13781TIP3   OH262833   0.484   4.616  14.618  0.3286  0.3387  0.1047
13781TIP3    H162834   0.464   4.686  14.556 -0.5085  1.1454  1.2452
13781TIP3    H262835   0.558   4.570  14.579  0.1443  1.1268 -1.2416
13782TIP3   OH262836   2.652   0.769   6.163  0.3561 -0.4151  0.4373
13782TIP3    H162837   2.728   0.755   6.220  1.0049 -0.0853 -0.3213
13782TIP3    H262838   2.584   0.803   6.221  1.0364  0.0271  0.9938
13783TIP3   OH262839   5.611   4.673  11.530  0.4704 -0.8889 -0.3255
13783TIP3    H162840   5.529   4.647  11.573  0.3018 -0.2488 -0.2504
13783TIP3    H262841   5.583   4.711  11.447  0.4412  1.7932  0.8035
13784TIP3   OH262842   1.231   2.144   2.401 -0.7958  0.1999 -0.3391
13784TIP3    H162843   1.311   2.187   2.373 -0.0544  0.1617  1.5293
13784TIP3    H262844   1.219   2.173   2.492 -2.3209 -0.6219 -0.2359
13785TIP3   OH262845   0.903   2.728   0.990  0.4648 -0.6420  0.6202
13785TIP3    H162846   0.902   2.761   1.079  1.5523  0.5691  0.2232
13785TIP3    H262847   0.864   2.641   0.995 -0.7747 -0.0353  2.0318
13786TIP3   OH262848   5.809   1.505  15.241  0.3808 -0.8228 -0.1815
13786TIP3    H162849   5.869   1.497  15.315 -0.9166  0.8804  1.1557
13786TIP3    H262850   5.861   1.546  15.172  1.0592 -0.3908  0.5625
13787TIP3   OH262851   5.125   5.440  11.842 -0.1564 -0.1186 -0.3887
13787TIP3    H162852   5.039   5.445  11.885  0.0443  1.3084 -0.0978
13787TIP3    H262853   5.181   5.395  11.905 -0.2980  0.3843  0.0959
13788TIP3   OH262854   0.613   0.484  13.865 -0.3447 -0.5514 -0.2856
13788TIP3    H162855   0.628   0.475  13.771 -0.7841 -1.2353 -0.2943
13788TIP3    H262856   0.667   0.558  13.891  1.7797 -1.9125 -0.6138
13789TIP3   OH262857   3.857   6.632  11.302  0.4278  0.4628 -0.5860
13789TIP3    H162858   3.889   6.687  11.373  2.6428  0.0585 -1.2075
13789TIP3    H262859   3.857   6.543  11.339  0.3131  0.4219 -0.6858
13790TIP3   OH262860   0.316   4.241   1.584  0.2786 -0.3441  0.3265
13790TIP3    H162861   0.358   4.276   1.505  1.6842  0.6423  1.4662
13790TIP3    H262862   0.252   4.179   1.551  0.6711  0.2109 -1.6070
13791TIP3   OH262863   1.345   1.011   5.022  0.1255 -0.6172  0.1555
13791TIP3    H162864   1.344   0.916   5.038  1.3147 -0.8905 -1.2516
13791TIP3    H262865   1.374   1.049   5.105 -0.5396 -1.4557  0.7936
13792TIP3   OH262866   4.626   0.902  16.610 -0.4600 -0.6464  0.0756
13792TIP3    H162867   4.681   0.839  16.657  1.7993 -0.0501 -1.6202
13792TIP3    H262868   4.616   0.975  16.671  0.3200 -0.9398  0.5758
13793TIP3   OH262869   1.648   4.325  11.979 -0.2442  0.3162 -0.1637
13793TIP3    H162870   1.702   4.396  12.015 -0.2437  0.4660 -0.4545
13793TIP3    H262871   1.697   4.245  11.999 -0.3494  0.3794  0.3535
13794TIP3   OH262872   5.752   2.781  11.236 -0.0351  0.0845 -0.4014
13794TIP3    H162873   5.698   2.772  11.157 -0.4796 -0.3764 -0.0552
13794TIP3    H262874   5.713   2.855  11.283 -0.9712 -0.8291  0.3035
13795TIP3   OH262875   4.516   3.929  14.779  0.3965  0.0267  0.2305
13795TIP3    H162876   4.471   3.887  14.853 -0.6042  2.9068  1.4236
13795TIP3    H262877   4.605   3.893  14.781  0.1039 -0.7094  2.2297
13796TIP3   OH262878   4.669   2.886   5.550 -0.5742  0.0216 -0.5083
13796TIP3    H162879   4.738   2.868   5.613 -0.6751 -0.5950 -0.5756
13796TIP3    H262880   4.599   2.926   5.602 -0.0927  0.8666 -0.4776
13797TIP3   OH262881   2.009   2.514   3.967  0.1901  0.5099 -0.2858
13797TIP3    H162882   2.091   2.556   3.995  0.3419  0.1621 -0.1972
13797TIP3    H262883   2.028   2.480   3.880  0.3145 -0.0406 -0.0487
13798TIP3   OH262884   6.669   0.114   3.363 -0.2255 -0.1273 -0.6215
13798TIP3    H162885   6.636   0.108   3.453  0.9527  0.8533 -0.0988
13798TIP3    H262886   6.661   0.025   3.329  0.2135 -0.7380  0.7861
13799TIP3   OH262887   6.651   6.657  13.782 -0.2262 -0.2491  0.1556
13799TIP3    H162888   6.733   6.609  13.797 -1.0535 -1.5791  0.6041
13799TIP3    H262889   6.669   6.710  13.705  1.5607  0.7012  1.1570
13800TIP3   OH262890   6.101   4.326   0.317  0.0779 -0.5532  0.4365
13800TIP3    H162891   6.126   4.280   0.397 -2.2597 -0.8001  1.0773
13800TIP3    H262892   6.080   4.256   0.255  2.1975 -0.3794 -0.6054
13801TIP3   OH262893   4.029   1.848  15.350 -0.0861 -0.0355  0.3598
13801TIP3    H162894   4.025   1.753  15.364  0.2117  0.1377  1.7962
13801TIP3    H262895   4.114   1.862  15.309 -0.7574 -0.5227 -1.2689
13802TIP3   OH262896   6.361   6.427   5.202 -0.0576  0.5222 -0.4952
13802TIP3    H162897   6.346   6.366   5.130  0.0644  0.5571 -0.5509
13802TIP3    H262898   6.276   6.436   5.245  0.2009 -0.7303  0.3369
13803TIP3   OH262899   6.732   2.132   2.298  0.2526  0.0575 -0.1569
13803TIP3    H162900   6.716   2.133   2.204  1.5362 -0.7282 -0.4150
13803TIP3    H262901   6.812   2.185   2.309  0.0514  0.2350  0.5036
13804TIP3   OH262902   5.766   6.769   0.870  0.6274 -0.0658 -0.3656
13804TIP3    H162903   5.837   6.800   0.813  0.1174 -0.2718 -1.1215
13804TIP3    H262904   5.751   6.678   0.842  0.5989 -0.2830  0.3318
13805TIP3   OH262905   1.282   6.770  16.622 -0.6099  0.3294 -0.1640
13805TIP3    H162906   1.278   6.684  16.665 -0.2193  0.9963  1.2651
13805TIP3    H262907   1.249   6.831  16.688  0.2243  1.4238 -0.7260
13806TIP3   OH262908   5.670   3.990   0.685  0.3830  0.2150 -0.5609
13806TIP3    H162909   5.679   3.944   0.601  0.0831 -0.7480 -0.0852
13806TIP3    H262910   5.760   4.009   0.712  0.4331  1.9232 -1.8261
13807TIP3   OH262911   1.258   2.763  15.034 -0.2417  0.2100  0.2813
13807TIP3    H162912   1.231   2.835  15.090  0.1116  1.6769 -1.3280
13807TIP3    H262913   1.315   2.804  14.968 -2.1666 -1.0035 -2.3244
13808TIP3   OH262914   0.421   2.609   0.420 -1.0503 -0.3051 -0.3267
13808TIP3    H162915   0.459   2.589   0.334  3.1367 -0.0951  1.3005
13808TIP3    H262916   0.426   2.526   0.468  5.0485  1.1365  2.4011
13809TIP3   OH262917   5.953   0.145  11.072 -0.0412  0.5489  0.1002
13809TIP3    H162918   5.968   0.240  11.072 -1.2634  0.7646 -0.5785
13809TIP3    H262919   5.962   0.119  10.981  3.0050 -0.5057  0.5939
13810TIP3   OH262920   2.505   0.149   2.621 -0.4124  0.8065  0.2567
13810TIP3    H162921   2.479   0.238   2.646 -1.9357  0.9137 -1.5341
13810TIP3    H262922   2.472   0.094   2.692 -0.0788  1.5852  1.0308
13811TIP3   OH262923   4.200   6.198  14.619 -0.3962  0.1100 -0.2441
13811TIP3    H162924   4.137   6.127  14.611 -2.1591  0.9226  3.9547
13811TIP3    H262925   4.269   6.163  14.676 -1.1664  1.5413  1.6815
13812TIP3   OH262926   3.023   2.086  15.305 -0.5270 -0.3145  0.4493
13812TIP3    H162927   2.994   2.154  15.366  0.3618 -0.4679  1.0645
13812TIP3    H262928   2.953   2.080  15.240  0.4551  3.0057 -1.1384
13813TIP3   OH262929   3.848   3.106   2.527  0.0157 -0.5139  0.2899
13813TIP3    H162930   3.768   3.066   2.560 -2.3687  2.1890 -1.6632
13813TIP3    H262931   3.830   3.123   2.435  2.0485  1.9927  0.2469
13814TIP3   OH262932   3.487   6.662   1.764 -0.1630  0.0541  0.2161
13814TIP3    H162933   3.569   6.637   1.723  0.6924  0.7988  1.4005
13814TIP3    H262934   3.495   6.756   1.778 -1.7543  0.3752 -0.7757
13815TIP3   OH262935   4.217   1.647  15.089  0.2913 -0.1256 -0.1636
13815TIP3    H162936   4.278   1.678  15.021  1.6936 -0.5522  0.8542
13815TIP3    H262937   4.263   1.574  15.131 -0.1052  0.7221  1.8654
13816TIP3   OH262938   2.927   3.883   5.433 -0.1584  0.6646  0.0814
13816TIP3    H162939   2.857   3.819   5.422  0.5813 -0.1414 -0.0337
13816TIP3    H262940   2.907   3.951   5.368 -0.8819  0.4971  0.1168
13817TIP3   OH262941   4.038   1.545   2.392  0.5292  0.5435  0.6352
13817TIP3    H162942   4.085   1.627   2.377 -0.8014  1.0994 -0.7591
13817TIP3    H262943   4.003   1.554   2.481  1.2417  1.0438  0.8739
13818TIP3   OH262944   3.610   2.156   4.432  0.6045 -0.3143 -0.2868
13818TIP3    H162945   3.687   2.126   4.384  1.2099  0.0983  0.3923
13818TIP3    H262946   3.561   2.077   4.451 -0.0747 -0.4218 -2.2470
13819TIP3   OH262947   1.282   5.557  13.687  0.2230  0.1906  0.2346
13819TIP3    H162948   1.197   5.519  13.707  0.1513 -0.0143 -0.4521
13819TIP3    H262949   1.270   5.600  13.602  1.0549 -0.6515 -0.3271
13820TIP3   OH262950   1.199   3.574  14.779  0.6356 -0.2561  0.0458
13820TIP3    H162951   1.201   3.668  14.760 -0.8452  0.0660  1.2727
13820TIP3    H262952   1.212   3.569  14.874 -0.6782 -1.1906  0.1968
13821TIP3   OH262953   3.695   6.452   3.871 -0.0913  0.0648  0.1282
13821TIP3    H162954   3.658   6.385   3.929 -1.3276  1.3562  0.8866
13821TIP3    H262955   3.693   6.413   3.784 -0.4261 -1.0194  0.6074
13822TIP3   OH262956   6.736   6.269   5.709 -0.3107 -0.2111  0.5529
13822TIP3    H162957   6.728   6.176   5.734 -0.9046  0.1960  2.0103
13822TIP3    H262958   6.686   6.315   5.776  0.7421  1.2401  0.3778
13823TIP3   OH262959   0.130   5.810   4.412 -0.0535 -0.0581  0.0776
13823TIP3    H162960   0.098   5.894   4.377  0.3393  0.8084  1.7229
13823TIP3    H262961   0.204   5.834   4.468 -0.4330 -1.4288  1.2160
13824TIP3   OH262962   5.007   1.342  11.148 -0.2327  0.5668 -0.2473
13824TIP3    H162963   5.073   1.367  11.212  0.4898  0.1425 -0.8076
13824TIP3    H262964   5.057   1.307  11.074 -1.1219 -1.6194  0.0958
13825TIP3   OH262965   1.800   4.397  11.180 -0.6115  0.1224  0.6331
13825TIP3    H162966   1.827   4.483  11.148 -0.2266 -0.3936 -0.4850
13825TIP3    H262967   1.707   4.407  11.199 -0.4985  0.8686  0.8360
13826TIP3   OH262968   6.770   0.095  12.922 -0.2845  0.2783  0.3951
13826TIP3    H162969   6.748   0.176  12.877  0.1411 -0.0197 -0.3704
13826TIP3    H262970   6.742   0.109  13.012  0.1772  1.4345  0.3707
13827TIP3   OH262971   5.886   2.925   4.985 -0.0995  0.1525  0.8353
13827TIP3    H162972   5.918   2.971   5.062  1.7955 -0.8044  0.6909
13827TIP3    H262973   5.880   2.992   4.918 -1.6618  0.9723  1.7533
13828TIP3   OH262974   2.850   3.451   4.799 -0.0641 -0.1173 -0.3588
13828TIP3    H162975   2.893   3.512   4.858  0.9960 -1.4010  0.2418
13828TIP3    H262976   2.905   3.372   4.801 -2.8720 -2.2365  1.2095
13829TIP3   OH262977   4.038   1.929  15.860 -0.2078 -0.3372 -1.0427
13829TIP3    H162978   4.102   1.908  15.793 -0.0094 -1.7996 -0.4334
13829TIP3    H262979   3.963   1.873  15.840 -0.3727 -0.3565 -0.3889
13830TIP3   OH262980   4.049   5.115   2.663 -0.3673  0.8231 -0.2596
13830TIP3    H162981   3.973   5.153   2.706 -0.1579  0.8835  0.0608
13830TIP3    H262982   4.030   5.122   2.570 -1.0172  0.3119 -0.1771
13831TIP3   OH262983   3.991   0.504  11.493  0.6309 -0.0858 -0.3754
13831TIP3    H162984   3.923   0.510  11.425 -0.4803  1.1962  0.7849
13831TIP3    H262985   3.972   0.424  11.540 -0.0956  0.2587 -0.0667
13832TIP3   OH262986   6.801   5.248   0.833 -0.6799 -0.5231 -0.2206
13832TIP3    H162987   6.775   5.221   0.921  0.4650  1.6710  0.8648
13832TIP3    H262988   6.890   5.215   0.822  0.6315  2.2450  1.0157
13833TIP3   OH262989   2.769   0.390   5.469 -0.2610 -0.7250  0.8170
13833TIP3    H162990   2.741   0.427   5.385  0.4784 -2.0017 -0.0299
13833TIP3    H262991   2.705   0.321   5.487  0.0704 -1.0261  0.8601
13834TIP3   OH262992   3.813   3.044   5.138  0.2499  0.1316 -0.1916
13834TIP3    H162993   3.820   3.073   5.047  0.8146  3.6082  0.8331
13834TIP3    H262994   3.719   3.032   5.153  0.1406 -0.2660 -1.1504
13835TIP3   OH262995   5.618   4.281   0.618 -0.3455  0.5199  0.0617
13835TIP3    H162996   5.620   4.203   0.674  1.5400 -0.6226 -1.4885
13835TIP3    H262997   5.581   4.250   0.536  1.9399  0.7912 -1.1390
13836TIP3   OH262998   5.739   1.063  14.546  0.5125 -0.1095  0.1581
13836TIP3    H162999   5.694   1.089  14.627  1.5740 -0.6806  0.9547
13836TIP3    H263000   5.672   1.018  14.495 -0.4736  1.2217  0.2066
13837TIP3   OH263001   0.852   2.525   3.576  0.6464  0.1412  0.1990
13837TIP3    H163002   0.920   2.476   3.621  1.8232  1.8485  0.3782
13837TIP3    H263003   0.892   2.610   3.558 -2.0701  1.9839  2.1125
13838TIP3   OH263004   5.983   4.006  10.454 -0.0001 -0.9540 -0.0189
13838TIP3    H163005   5.963   3.974  10.366  0.4750 -0.7097 -0.2200
13838TIP3    H263006   5.903   4.051  10.483  0.6988  1.3886 -1.4277
13839TIP3   OH263007   1.167   3.844   0.144 -0.0365  0.4432  0.0179
13839TIP3    H163008   1.081   3.803   0.153  0.3852 -0.4386  0.2607
13839TIP3    H263009   1.150   3.937   0.137 -1.0827  0.1831 -1.1359
13840TIP3   OH263010   3.293   0.020  10.691 -0.9554  0.1726 -0.1513
13840TIP3    H163011   3.277   0.050  10.602 -2.0867  2.2382  0.6670
13840TIP3    H263012   3.335   0.094  10.734  1.1184 -1.3557  0.6727
13841TIP3   OH263013   4.683   6.253   1.648 -0.6207  0.1944  0.3454
13841TIP3    H163014   4.730   6.170   1.651 -0.5843  0.2122  0.2443
13841TIP3    H263015   4.666   6.273   1.740 -2.8480 -1.1853  0.3068
13842TIP3   OH263016   5.163   1.723  10.853 -0.1101  1.0990 -0.0782
13842TIP3    H163017   5.142   1.633  10.877 -0.8496  1.5190  0.9114
13842TIP3    H263018   5.233   1.748  10.913  0.5212  1.0044 -0.7546
13843TIP3   OH263019   1.877   1.963  13.498 -0.3142 -0.1958  0.1762
13843TIP3    H163020   1.832   1.881  13.478  1.7033 -1.1830 -0.5921
13843TIP3    H263021   1.941   1.973  13.428 -1.6488  3.0145 -0.7617
13844TIP3   OH263022   2.403   5.178  16.129 -0.8834 -0.0623  0.1597
13844TIP3    H163023   2.468   5.110  16.147  0.6516  1.6057  1.2443
13844TIP3    H263024   2.408   5.192  16.034  1.0717  0.7010  0.3435
13845TIP3   OH263025   1.394   4.910  12.971 -0.4138 -0.2337  0.0302
13845TIP3    H163026   1.365   4.928  12.881 -1.9438  0.6390  0.6504
13845TIP3    H263027   1.488   4.897  12.963 -0.4303  0.2983 -1.6394
13846TIP3   OH263028   4.293   4.369   6.699 -0.3037 -0.0854 -0.2953
13846TIP3    H163029   4.375   4.340   6.660  0.3781  0.8481  0.3916
13846TIP3    H263030   4.314   4.452   6.742 -2.1808  1.5233 -2.2429
13847TIP3   OH263031   4.600   5.487  15.005  0.2765 -0.5431 -0.3644
13847TIP3    H163032   4.663   5.439  15.059  1.1217 -0.2343 -1.0495
13847TIP3    H263033   4.652   5.521  14.932 -0.4766  0.7094 -0.3366
13848TIP3   OH263034   2.582   1.388  14.131  0.1551  0.1958  0.5073
13848TIP3    H163035   2.600   1.362  14.040  1.0719 -0.3508  0.8270
13848TIP3    H263036   2.669   1.388  14.173 -0.1939  0.9626  1.2501
13849TIP3   OH263037   0.586   6.404  11.257 -0.5280  0.0823 -0.0458
13849TIP3    H163038   0.632   6.349  11.319  0.6177  1.4681  0.4006
13849TIP3    H263039   0.514   6.443  11.307 -1.7663 -1.4537 -0.5355
13850TIP3   OH263040   2.016   0.591  13.323 -0.0629 -0.2341  0.3340
13850TIP3    H163041   1.922   0.604  13.325  0.0034  0.1354  1.4946
13850TIP3    H263042   2.029   0.517  13.264 -0.9622  0.6090 -0.9731
13851TIP3   OH263043   2.170   4.342  15.864 -0.0866 -0.2770 -0.2261
13851TIP3    H163044   2.135   4.313  15.780 -0.7383 -0.7379  0.1964
13851TIP3    H263045   2.120   4.293  15.929 -0.4218  0.9478  0.4710
13852TIP3   OH263046   5.975   4.362  16.342  0.1270 -0.1238  0.5121
13852TIP3    H163047   6.009   4.384  16.428 -0.5243  2.6803  0.1303
13852TIP3    H263048   5.899   4.306  16.360  0.4902 -0.2674  1.6861
13853TIP3   OH263049   6.682   1.597   5.181  0.6421  0.2076  0.5783
13853TIP3    H163050   6.683   1.656   5.106  0.4078 -3.0838 -2.2498
13853TIP3    H263051   6.590   1.591   5.205  0.1597 -1.6382 -1.4952
13854TIP3   OH263052   3.587   3.775   6.170  0.2020  0.8316 -0.4903
13854TIP3    H163053   3.510   3.802   6.121  0.4325  1.5067 -0.4904
13854TIP3    H263054   3.567   3.686   6.199 -0.4048  0.8509 -0.8366
13855TIP3   OH263055   3.985   3.952  13.125  0.5869 -0.7854 -0.4433
13855TIP3    H163056   3.978   3.981  13.034  1.8371  1.2753  0.0545
13855TIP3    H263057   4.056   4.005  13.162 -2.4899  1.5357  2.8239
13856TIP3   OH263058   4.083   0.714   2.959  0.1010  0.8335 -0.2953
13856TIP3    H163059   4.099   0.620   2.951  2.8196  1.3066 -1.4564
13856TIP3    H263060   4.135   0.741   3.034 -0.5563  1.4403 -0.0476
13857TIP3   OH263061   5.487   3.318  15.253 -0.0685 -0.0774  0.0127
13857TIP3    H163062   5.566   3.371  15.247 -0.6317  0.7362 -0.4410
13857TIP3    H263063   5.518   3.232  15.281  0.8029  0.6260  1.3116
13858TIP3   OH263064   2.360   5.910  14.010 -0.1612  0.5897 -0.2584
13858TIP3    H163065   2.364   5.944  13.921 -0.4141 -0.5301 -0.7157
13858TIP3    H263066   2.430   5.845  14.014  0.1931  1.0058  0.5361
13859TIP3   OH263067   3.883   2.174   5.792 -0.0248  0.6600  0.4395
13859TIP3    H163068   3.794   2.209   5.785 -0.4902 -0.7506 -1.3705
13859TIP3    H263069   3.879   2.114   5.867 -0.5158  0.8412  0.5599
13860TIP3   OH263070   2.302   0.050  15.754 -0.9976 -0.5484  0.3749
13860TIP3    H163071   2.259   0.011  15.678  0.9036 -2.3084  0.1296
13860TIP3    H263072   2.375   0.100  15.717 -1.5279  0.6747  0.9186
13861TIP3   OH263073   4.711   4.150  12.610  0.0707  0.0365 -0.2874
13861TIP3    H163074   4.636   4.105  12.570  0.1317  1.5983 -2.3438
13861TIP3    H263075   4.783   4.134  12.549  0.5790  1.2406 -0.0229
13862TIP3   OH263076   4.364   5.848  16.076 -1.1458 -0.0260 -0.3314
13862TIP3    H163077   4.272   5.873  16.067 -0.5196  1.8556 -2.6978
13862TIP3    H263078   4.407   5.890  16.002  1.5661 -1.2655  0.4201
13863TIP3   OH263079   1.069   0.882   0.592 -0.1530 -0.6817 -0.3315
13863TIP3    H163080   0.980   0.878   0.557 -0.2719 -0.0154 -0.1231
13863TIP3    H263081   1.064   0.945   0.664  0.6006 -0.2043 -0.6780
13864TIP3   OH263082   3.665   5.718   4.784  0.0851  0.7294  0.0268
13864TIP3    H163083   3.621   5.765   4.855 -0.3035  0.7184 -0.2093
13864TIP3    H263084   3.626   5.631   4.783 -1.4855  1.3927 -1.6098
13865TIP3   OH263085   6.423   5.717  14.901  0.6001 -0.0386 -0.6264
13865TIP3    H163086   6.491   5.652  14.882  0.9995  0.3828 -0.6531
13865TIP3    H263087   6.471   5.793  14.933  0.0680 -0.0994  0.3714
13866TIP3   OH263088   3.038   2.316   1.255  0.1946 -0.6316  0.5214
13866TIP3    H163089   3.021   2.258   1.181 -0.0179 -0.0239  0.0861
13866TIP3    H263090   2.955   2.362   1.268  0.8030  0.6918 -0.1355
13867TIP3   OH263091   6.163   1.013  12.236 -0.1051 -0.1525  0.6571
13867TIP3    H163092   6.096   0.954  12.268  1.4318 -1.0500  2.4026
13867TIP3    H263093   6.220   1.029  12.312  0.2604  2.5777 -0.0771
13868TIP3   OH263094   0.252   3.894  10.487 -0.1339  0.5368 -0.3266
13868TIP3    H163095   0.331   3.871  10.536 -0.2973  0.4885 -0.0831
13868TIP3    H263096   0.180   3.876  10.548 -0.4148 -0.4978 -0.9330
13869TIP3   OH263097   0.641   4.280   2.696 -0.1700 -0.4066 -0.3896
13869TIP3    H163098   0.682   4.337   2.760  1.2891 -1.1319 -0.6209
13869TIP3    H263099   0.688   4.197   2.705 -0.4190 -0.7405 -1.8920
13870TIP3   OH263100   1.761   2.758   3.306 -0.0367 -0.3245  0.3644
13870TIP3    H163101   1.820   2.820   3.350 -0.1099 -1.0420  1.5336
13870TIP3    H263102   1.817   2.710   3.245  0.2161  0.2422  0.1532
13871TIP3   OH263103   1.216   2.350  15.332 -0.1146 -0.6017 -0.3483
13871TIP3    H163104   1.248   2.321  15.417 -0.6190 -1.0904 -0.3207
13871TIP3    H263105   1.222   2.272  15.276  1.9067  0.1506 -1.2685
13872TIP3   OH263106   1.504   2.206  16.975 -0.1926  0.0880  0.0839
13872TIP3    H163107   1.440   2.267  17.010 -0.3549 -0.1409  0.1888
13872TIP3    H263108   1.455   2.155  16.910 -0.3538 -0.7099  0.8203
13873TIP3   OH263109   2.507   2.344  13.452 -0.4886 -0.3521  0.3486
13873TIP3    H163110   2.547   2.279  13.510 -0.9862  1.0051  2.2991
13873TIP3    H263111   2.420   2.310  13.433  0.4681 -1.9359 -1.6047
13874TIP3   OH263112   1.738   5.975  14.050 -0.4337  0.4019 -0.1332
13874TIP3    H163113   1.709   5.896  14.005  0.0969  0.8424 -1.3066
13874TIP3    H263114   1.749   5.949  14.141 -1.4209 -0.5571 -0.2761
13875TIP3   OH263115   4.475   1.461   0.062 -0.0647  0.3837  0.2784
13875TIP3    H163116   4.436   1.451  -0.025 -1.0668  1.1945  0.6213
13875TIP3    H263117   4.479   1.555   0.077  2.2963  0.3511  0.1710
13876TIP3   OH263118   5.449   2.514   5.095 -0.2783  0.9792  0.6263
13876TIP3    H163119   5.429   2.500   5.002 -1.3538  2.0216  0.6794
13876TIP3    H263120   5.538   2.550   5.095 -0.2166  0.8335  0.0065
13877TIP3   OH263121   5.830   0.930  11.344  0.2255 -0.8148 -0.3312
13877TIP3    H163122   5.860   0.861  11.285  1.0572 -0.6887 -0.0712
13877TIP3    H263123   5.743   0.902  11.373  0.3258 -1.4716 -0.6645
13878TIP3   OH263124   2.056   4.313  12.077 -0.3469  0.3248 -0.1544
13878TIP3    H163125   1.977   4.261  12.089 -0.2640  0.3922  0.7941
13878TIP3    H263126   2.024   4.402  12.062 -0.4622  0.3376  0.1493
13879TIP3   OH263127   5.214   6.752   0.298  0.6536  0.4791  0.3359
13879TIP3    H163128   5.225   6.737   0.204  1.5016  1.5724  0.2423
13879TIP3    H263129   5.129   6.796   0.305  0.8633  0.9410  0.0151
13880TIP3   OH263130   6.604   2.399   4.638  0.6618  0.0569  0.2975
13880TIP3    H163131   6.526   2.345   4.651  0.4360 -0.1519 -1.6231
13880TIP3    H263132   6.572   2.489   4.638  0.3741 -0.0367 -0.6387
13881TIP3   OH263133   5.510   2.719   0.940 -0.3487  0.1403  0.3113
13881TIP3    H163134   5.588   2.671   0.970  0.0268  1.2199  1.1320
13881TIP3    H263135   5.438   2.679   0.990 -0.4788 -1.4173 -1.0529
13882TIP3   OH263136   3.389   5.340  15.923  0.1006 -0.0281  0.4032
13882TIP3    H163137   3.413   5.432  15.910 -0.3278  0.1715  0.9956
13882TIP3    H263138   3.293   5.340  15.919  0.0934 -0.4297  0.5570
13883TIP3   OH263139   2.973   5.029   2.206  0.4972  0.1098 -0.1498
13883TIP3    H163140   3.017   4.968   2.147 -1.8319 -2.0235  0.1417
13883TIP3    H263141   2.964   4.981   2.288 -1.4562  0.7631  0.0748
13884TIP3   OH263142   1.799   3.362  11.917 -0.0186  0.6043  0.8080
13884TIP3    H163143   1.779   3.316  11.998 -0.1331  0.1776  0.5404
13884TIP3    H263144   1.893   3.377  11.920  0.1259 -0.2266  0.6024
13885TIP3   OH263145   3.791   1.826  15.725  0.2657  0.6066 -0.0247
13885TIP3    H163146   3.792   1.777  15.642  1.5757  3.3979 -1.8147
13885TIP3    H263147   3.736   1.902  15.707  0.8016  1.4172  1.5740
13886TIP3   OH263148   1.644   0.374  11.625 -0.4616  0.2215 -0.0591
13886TIP3    H163149   1.721   0.317  11.629 -0.4481  0.1512 -1.0638
13886TIP3    H263150   1.666   0.449  11.680 -0.5927 -0.8598  1.5515
13887TIP3   OH263151   5.243   0.157   2.374  0.7779  0.0733  0.2386
13887TIP3    H163152   5.327   0.179   2.414  1.8539 -0.9511 -1.3799
13887TIP3    H263153   5.253   0.181   2.282 -0.6717 -0.1974 -0.0158
13888TIP3   OH263154   4.104   6.367  17.184  0.1041 -0.3608 -1.1676
13888TIP3    H163155   4.071   6.366  17.274 -0.6972 -3.1748 -1.4127
13888TIP3    H263156   4.065   6.290  17.143  3.4946 -1.4182 -2.7678
13889TIP3   OH263157   4.948   6.515   1.518  0.2819 -0.4595 -0.2350
13889TIP3    H163158   4.863   6.556   1.499 -0.2423 -1.3539  0.0779
13889TIP3    H263159   4.975   6.477   1.434  0.0252 -0.7630 -0.1863
13890TIP3   OH263160   4.013   5.080   1.803 -0.2593 -0.3526 -0.6645
13890TIP3    H163161   4.001   5.076   1.708 -3.6087 -0.2519 -0.3784
13890TIP3    H263162   3.968   5.002   1.836  0.5574 -0.2199  0.8544
13891TIP3   OH263163   2.457   5.670  12.676  0.3123 -0.0405 -0.3214
13891TIP3    H163164   2.515   5.714  12.614 -0.0087 -2.5248 -2.5640
13891TIP3    H263165   2.514   5.615  12.729  0.3363 -0.0359 -0.3424
13892TIP3   OH263166   6.101   4.725  11.090 -0.3623  0.1498 -0.4095
13892TIP3    H163167   6.126   4.809  11.129 -0.9851 -0.6326  1.8526
13892TIP3    H263168   6.042   4.748  11.019 -0.3052  1.6558 -0.0028
13893TIP3   OH263169   5.699   6.535  12.138  0.2151 -0.1083 -0.3420
13893TIP3    H163170   5.779   6.504  12.181  1.1492  1.5042 -0.8349
13893TIP3    H263171   5.730   6.594  12.069 -1.4227  1.0713 -0.1221
13894TIP3   OH263172   3.454   5.756   4.309 -0.6090  0.0040 -0.0639
13894TIP3    H163173   3.533   5.802   4.280 -0.3895 -1.6798 -2.4492
13894TIP3    H263174   3.382   5.804   4.267 -0.5416 -0.5261 -0.8099
13895TIP3   OH263175   2.903   4.790   5.905 -0.3759 -0.2734 -0.3748
13895TIP3    H163176   2.937   4.844   5.834  0.5082 -2.0816 -1.4181
13895TIP3    H263177   2.832   4.739   5.865 -0.2645 -0.8842  0.1868
13896TIP3   OH263178   3.714   0.793  12.340  0.0698  0.2134 -0.0749
13896TIP3    H163179   3.794   0.748  12.312  0.1111 -0.5619  1.1912
13896TIP3    H263180   3.720   0.879  12.300  1.5202  0.1531 -0.0606
13897TIP3   OH263181   6.808   2.123  17.183 -0.1246 -0.1274 -0.2705
13897TIP3    H163182   6.816   2.216  17.202 -0.3902 -0.4919  1.9334
13897TIP3    H263183   6.893   2.097  17.148  0.9211  0.4210  1.7311
13898TIP3   OH263184   1.762   1.774  10.991  0.4478  0.3112 -0.0424
13898TIP3    H163185   1.723   1.861  10.997  1.2767  0.5710  2.5414
13898TIP3    H263186   1.833   1.784  10.927 -0.6095  1.0196 -1.1566
13899TIP3   OH263187   3.970   2.982  15.817 -0.2077  0.0621  0.3501
13899TIP3    H163188   3.933   3.038  15.749 -0.1913 -1.2958 -0.8409
13899TIP3    H263189   4.051   3.026  15.843 -0.8648  1.2572  0.4295
13900TIP3   OH263190   4.995   0.207   4.909  0.3578  0.3290 -0.3579
13900TIP3    H163191   5.085   0.177   4.891 -0.1352 -1.2483 -0.3964
13900TIP3    H263192   4.968   0.155   4.985 -0.3888  1.0924 -0.0865
13901TIP3   OH263193   6.025   3.339  15.579  0.0599 -0.0950  0.3829
13901TIP3    H163194   6.029   3.425  15.538 -2.0314 -0.9443 -1.8970
13901TIP3    H263195   6.017   3.357  15.672  0.9235  2.1087  0.0929
13902TIP3   OH263196   4.634   2.400   0.966  0.1283  0.8230  0.4399
13902TIP3    H163197   4.551   2.435   0.933  0.3512 -0.2164 -1.4173
13902TIP3    H263198   4.701   2.443   0.912  0.8166  1.5947  1.8694
13903TIP3   OH263199   6.265   6.525  16.370 -0.2739  0.1341  0.4981
13903TIP3    H163200   6.184   6.539  16.322  0.7077  1.3198 -0.9345
13903TIP3    H263201   6.243   6.461  16.438 -2.7014  1.4029  1.0163
13904TIP3   OH263202   2.391   4.696   1.234  0.2087 -0.0932 -0.1527
13904TIP3    H163203   2.485   4.675   1.233  0.9482  2.7693  0.7830
13904TIP3    H263204   2.359   4.658   1.315  0.2413 -2.0483 -0.9953
13905TIP3   OH263205   3.181   5.298  11.729  0.2522  0.3525 -0.4525
13905TIP3    H163206   3.155   5.208  11.750  0.7786  0.0554 -1.0470
13905TIP3    H263207   3.240   5.289  11.654  1.0472  1.1233  0.0631
13906TIP3   OH263208   0.913   0.016  10.467 -0.4792  0.3528 -0.3087
13906TIP3    H163209   0.949  -0.070  10.446 -1.2551  0.4800 -2.3772
13906TIP3    H263210   0.823  -0.001  10.493 -0.8190  0.5688 -1.3061
13907TIP3   OH263211   4.192   5.260  15.596  0.1828 -0.2930  0.7000
13907TIP3    H163212   4.127   5.191  15.611 -0.5261 -0.1131 -1.2536
13907TIP3    H263213   4.260   5.217  15.545  0.6167  0.0203  1.0143
13908TIP3   OH263214   0.910   3.120   2.631 -0.0845 -0.0686  0.1657
13908TIP3    H163215   0.913   3.198   2.575  1.0896  1.0170  1.6371
13908TIP3    H263216   0.836   3.135   2.689 -1.7240 -1.5079 -1.4321
13909TIP3   OH263217   0.222   0.706   4.964 -0.3428 -0.6128  0.1478
13909TIP3    H163218   0.173   0.706   4.882 -1.0813 -0.5312  0.5747
13909TIP3    H263219   0.254   0.795   4.973 -0.5092 -0.5463  0.0881
13910TIP3   OH263220   0.521   3.867  16.525  0.1080  0.1646 -1.1056
13910TIP3    H163221   0.452   3.818  16.571  0.4024 -0.6498 -1.4991
13910TIP3    H263222   0.478   3.949  16.499  0.5084  1.6819  2.4309
13911TIP3   OH263223   3.646   4.973  13.270  0.4513  0.7113  0.7434
13911TIP3    H163224   3.568   4.917  13.271  0.9590 -0.0546 -0.1880
13911TIP3    H263225   3.706   4.931  13.331  1.3167 -0.5334 -0.8984
13912TIP3   OH263226   1.998   5.208  12.697  0.3656 -0.1364  0.2633
13912TIP3    H163227   1.986   5.164  12.781 -1.5491  0.7869  0.5008
13912TIP3    H263228   2.034   5.294  12.720 -0.4130  0.2168  0.1574
13913TIP3   OH263229   3.076   1.051   4.793  0.0144  0.4399  0.2496
13913TIP3    H163230   3.030   1.112   4.735  1.0612  0.1905 -0.8800
13913TIP3    H263231   3.163   1.090   4.804  0.9858 -1.1960 -1.1534
13914TIP3   OH263232   3.078   5.527  16.556 -0.1326  0.4523 -0.1227
13914TIP3    H163233   3.087   5.519  16.651 -1.0330 -0.0828 -0.0636
13914TIP3    H263234   3.105   5.617  16.536  0.1458  0.5375  0.6274
13915TIP3   OH263235   1.922   0.869   3.008  0.1620 -0.0918 -0.3454
13915TIP3    H163236   1.899   0.958   2.980  0.0805 -0.0268 -0.0784
13915TIP3    H263237   1.851   0.814   2.976  0.8438 -0.2649 -1.6392
13916TIP3   OH263238   6.351   0.881   4.528  0.3580  0.3070  0.1246
13916TIP3    H163239   6.399   0.834   4.596  1.1129  2.9931  1.5717
13916TIP3    H263240   6.260   0.882   4.559  0.3583 -0.0164  0.1459
13917TIP3   OH263241   0.289   5.915  17.090 -0.3551 -0.1319  0.1853
13917TIP3    H163242   0.256   5.884  17.175 -0.2054 -0.1975  0.2200
13917TIP3    H263243   0.367   5.862  17.073  0.2684  0.6390  0.5477
13918TIP3   OH263244   6.461   1.843   1.710 -0.2533 -0.0453  0.3258
13918TIP3    H163245   6.403   1.831   1.634 -0.3710 -0.1794  0.4364
13918TIP3    H263246   6.464   1.757   1.752  0.4783 -0.1809  0.0052
13919TIP3   OH263247   6.579   6.716   4.814 -0.2224 -0.1237 -0.2251
13919TIP3    H163248   6.517   6.674   4.874  0.3589 -0.8140 -0.0901
13919TIP3    H263249   6.545   6.804   4.802 -0.9583 -0.3334  0.2388
13920TIP3   OH263250   3.508   5.694   2.035 -0.7444  0.0139 -0.1955
13920TIP3    H163251   3.483   5.608   2.068 -2.4005  0.6417  0.3193
13920TIP3    H263252   3.587   5.717   2.084 -0.3693 -1.1433 -0.2452
13921TIP3   OH263253   1.201   0.176  15.063  0.2416 -0.8474 -0.0067
13921TIP3    H163254   1.291   0.144  15.074  1.4131  2.4285  1.2074
13921TIP3    H263255   1.170   0.190  15.152 -0.1885  1.1780 -0.4316
13922TIP3   OH263256   5.353   2.902   0.053  0.6810 -0.1809 -0.2829
13922TIP3    H163257   5.340   2.861   0.138 -0.8759 -0.2257 -0.5130
13922TIP3    H263258   5.381   2.991   0.072  0.9317 -0.3742  0.2561
13923TIP3   OH263259   5.849   3.419  11.874 -0.0431 -0.2748  0.0765
13923TIP3    H163260   5.902   3.496  11.893  0.4017 -0.3128 -0.9441
13923TIP3    H263261   5.830   3.426  11.780 -0.0406 -1.3823 -0.0189
13924TIP3   OH263262   5.093   0.353   2.013 -0.0858 -0.2020 -0.3398
13924TIP3    H163263   5.106   0.448   2.021  0.3174 -0.1615 -1.3019
13924TIP3    H263264   5.173   0.315   2.049  0.2636 -0.1336 -1.0333
13925TIP3   OH263265   1.970   0.395  13.539 -0.4991 -0.3381 -0.0818
13925TIP3    H163266   1.994   0.373  13.449 -0.6139  0.2432 -0.2589
13925TIP3    H263267   1.911   0.470  13.531 -0.1987 -0.0269  0.4958
13926TIP3   OH263268   2.172   2.322  16.272 -0.2687  0.0647  0.7349
13926TIP3    H163269   2.199   2.326  16.180 -2.6851 -1.4690 -0.1411
13926TIP3    H263270   2.207   2.403  16.310  2.7410 -0.2810 -0.8927
13927TIP3   OH263271   2.890   3.611   1.940  0.0219  0.0207  0.0786
13927TIP3    H163272   2.813   3.664   1.962 -0.4055 -0.4072 -0.3509
13927TIP3    H263273   2.937   3.664   1.875  0.0664  0.2601  0.3025
13928TIP3   OH263274   6.400   2.405   2.661  0.1209  0.2341 -0.0093
13928TIP3    H163275   6.454   2.410   2.582 -1.1171  0.1917 -0.9035
13928TIP3    H263276   6.326   2.350   2.635 -1.1333  1.5276  0.6747
13929TIP3   OH263277   4.954   4.009  15.589 -0.1007  0.5992  0.4757
13929TIP3    H163278   5.049   4.021  15.593  0.1521 -1.4818  2.3931
13929TIP3    H263279   4.942   3.926  15.543 -0.8639 -0.1823  2.0205
13930TIP3   OH263280   2.147   6.266  16.156 -0.3396  0.3814 -0.3620
13930TIP3    H163281   2.132   6.343  16.101 -0.3718 -1.5337 -3.2604
13930TIP3    H263282   2.241   6.248  16.146 -0.3429  0.0233  0.2639
13931TIP3   OH263283   3.031   3.015  13.264 -0.6089  0.0688 -0.5849
13931TIP3    H163284   2.994   2.973  13.187 -1.2692 -0.9330  0.2579
13931TIP3    H263285   3.112   2.967  13.282 -1.4634 -1.0161  0.4948
13932TIP3   OH263286   2.483   0.124  14.429 -0.6360 -0.3047 -0.1833
13932TIP3    H163287   2.542   0.133  14.504 -2.2082 -0.9370  1.1608
13932TIP3    H263288   2.412   0.069  14.460 -2.6712  1.5349 -1.3215
13933TIP3   OH263289   3.274   6.680   2.032  0.2332  0.1619  0.3504
13933TIP3    H163290   3.211   6.744   1.999 -0.4307 -1.4500 -1.6824
13933TIP3    H263291   3.231   6.643   2.109 -0.8604 -0.1680 -0.3980
13934TIP3   OH263292   0.797   6.833   1.805  0.0419  0.5999  0.0957
13934TIP3    H163293   0.855   6.775   1.756 -1.1357 -0.8002  0.2927
13934TIP3    H263294   0.717   6.838   1.753 -0.8587 -0.1194  1.3462
13935TIP3   OH263295   2.660   4.662   0.662  0.2335 -0.3470 -0.0382
13935TIP3    H163296   2.615   4.611   0.596 -1.3385  0.3301  0.4720
13935TIP3    H263297   2.728   4.710   0.613  0.2634 -1.2010 -0.8539
13936TIP3   OH263298   3.049   1.387  14.699  0.5166 -0.0059  0.2087
13936TIP3    H163299   2.995   1.381  14.777 -0.3133  0.5792 -0.3087
13936TIP3    H263300   3.094   1.471  14.707 -0.9581  0.9315 -0.7838
13937TIP3   OH263301   3.119   3.569   5.668  0.0875 -0.2322  0.0464
13937TIP3    H163302   3.170   3.598   5.592 -0.7208  1.6937  0.1915
13937TIP3    H263303   3.154   3.619   5.742  0.0607 -1.1969  0.7272
13938TIP3   OH263304   1.766   3.410  13.818 -0.4066  0.0359 -0.9051
13938TIP3    H163305   1.770   3.442  13.908 -0.6642  1.1052 -1.2536
13938TIP3    H263306   1.742   3.318  13.826  0.3843 -0.1068  0.1466
13939TIP3   OH263307   5.276   4.670   2.649  0.4343  0.1670 -0.6949
13939TIP3    H163308   5.332   4.643   2.721 -0.6387  1.2821  0.6055
13939TIP3    H263309   5.246   4.588   2.609  1.1358 -0.4602  0.0482
13940TIP3   OH263310   5.060   5.772   3.513 -0.4835  0.3212 -0.0885
13940TIP3    H163311   5.046   5.712   3.586  0.1681  0.5324  0.2190
13940TIP3    H263312   5.144   5.747   3.477 -0.2260  1.0092  0.0117
13941TIP3   OH263313   5.138   4.190  12.677  0.2919 -0.2643  0.4223
13941TIP3    H163314   5.122   4.274  12.720 -1.0922  0.3866 -1.2460
13941TIP3    H263315   5.179   4.213  12.594  0.7340 -1.3106  0.3404
13942TIP3   OH263316   6.745   6.109  14.280 -0.0260 -0.3729  0.0236
13942TIP3    H163317   6.823   6.150  14.242  0.2662 -0.4318  0.5523
13942TIP3    H263318   6.753   6.017  14.256 -0.2958 -0.2593 -0.5194
13943TIP3   OH263319   1.087   6.002  17.097  0.2085  0.0713  0.3540
13943TIP3    H163320   1.119   6.092  17.090  0.9969 -0.2324 -0.0799
13943TIP3    H263321   1.089   5.983  17.190 -1.4658  1.0158  0.6292
13944TIP3   OH263322   5.015   4.595  16.418 -0.2598  0.1363 -0.1546
13944TIP3    H163323   5.011   4.540  16.340 -0.8249  0.3359 -0.2747
13944TIP3    H263324   5.071   4.668  16.392  0.1655 -0.1777 -0.1256
13945TIP3   OH263325   4.814   0.329   0.361 -0.1257 -0.3969  0.5750
13945TIP3    H163326   4.725   0.294   0.356 -0.0298 -0.8068  1.5136
13945TIP3    H263327   4.802   0.424   0.362 -0.4814 -0.4249 -0.4050
13946TIP3   OH263328   5.150   4.839   1.125 -0.3401 -0.5232 -0.1469
13946TIP3    H163329   5.074   4.831   1.183  0.3839 -2.4324  0.6297
13946TIP3    H263330   5.208   4.900   1.170 -1.7360  1.6679 -1.1836
13947TIP3   OH263331   4.944   4.123   5.448 -0.2084  0.8439  0.0693
13947TIP3    H163332   4.852   4.127   5.476  0.0638  1.9497  0.8591
13947TIP3    H263333   4.954   4.195   5.386 -0.0623  0.2053 -0.6778
13948TIP3   OH263334   2.853   6.586   2.374 -0.1324 -0.6062 -0.1299
13948TIP3    H163335   2.842   6.676   2.344  0.0663 -0.6328 -0.2880
13948TIP3    H263336   2.816   6.532   2.304  0.8276 -0.6894 -0.5993
13949TIP3   OH263337   4.419   6.753  11.311 -0.4095 -0.6487 -0.6103
13949TIP3    H163338   4.454   6.698  11.381 -0.8584 -0.0892  0.0772
13949TIP3    H263339   4.465   6.726  11.232  1.9504  0.3889  0.3270
13950TIP3   OH263340   0.163   6.160   4.260 -0.2383  0.2292  0.2033
13950TIP3    H163341   0.083   6.116   4.230 -0.3028  0.5422 -0.0985
13950TIP3    H263342   0.224   6.150   4.187 -0.7613  1.9747 -0.5558
13951TIP3   OH263343   4.827   4.626   4.163 -0.8256 -0.1227  0.4661
13951TIP3    H163344   4.767   4.697   4.141 -0.5064  0.2854  0.8884
13951TIP3    H263345   4.787   4.548   4.125 -0.6512  0.4294 -0.9112
13952TIP3   OH263346   2.383   6.818   5.778  0.2737  0.1849  0.2646
13952TIP3    H163347   2.454   6.755   5.792  2.4345  2.6739  1.5794
13952TIP3    H263348   2.403   6.858   5.693 -0.9029 -0.6320 -0.4187
13953TIP3   OH263349   4.903   6.389   5.899 -0.1520  0.0804 -0.7174
13953TIP3    H163350   4.978   6.331   5.910  0.2609  0.8908  1.0427
13953TIP3    H263351   4.889   6.428   5.986 -1.5509  1.2301 -1.4065
13954TIP3   OH263352   4.396   4.201  12.089 -0.3068  0.1130 -0.1237
13954TIP3    H163353   4.445   4.251  12.155 -0.7831  0.5164 -0.0658
13954TIP3    H263354   4.463   4.149  12.044  0.1262  0.3893  0.1855
13955TIP3   OH263355   0.085   3.851   5.390  0.7665 -0.1448  0.1614
13955TIP3    H163356   0.071   3.764   5.427  0.8239 -0.5294 -0.6977
13955TIP3    H263357   0.144   3.836   5.316  1.4578  0.7432  0.5196
13956TIP3   OH263358   6.640   2.362  16.148  0.2295  0.3255  0.0703
13956TIP3    H163359   6.710   2.423  16.122  1.2716 -0.8420  0.0745
13956TIP3    H263360   6.562   2.417  16.153  1.2795  1.8145  0.7892
13957TIP3   OH263361   0.166   4.055   2.904  0.6755 -0.4971 -0.0947
13957TIP3    H163362   0.193   4.124   2.966  2.0014  0.5119 -1.7307
13957TIP3    H263363   0.088   4.017   2.945  0.8585  0.8554  1.6696
13958TIP3   OH263364   6.302   2.852  12.575  0.6886 -0.2435  0.2692
13958TIP3    H163365   6.372   2.832  12.512 -0.2143  0.2929 -0.9553
13958TIP3    H263366   6.286   2.946  12.563 -0.0430 -0.3042  0.7262
13959TIP3   OH263367   6.057   5.497  13.475  0.8590 -0.1772 -0.1863
13959TIP3    H163368   5.970   5.536  13.486  0.5746 -1.0020  0.7055
13959TIP3    H263369   6.102   5.554  13.414 -0.6363 -0.2190 -1.3938
13960TIP3   OH263370   3.590   5.692  14.664  0.1924 -0.4539  0.4952
13960TIP3    H163371   3.624   5.604  14.647  0.3698 -0.3080  0.0910
13960TIP3    H263372   3.529   5.709  14.593  0.4794 -0.0842  0.3327
13961TIP3   OH263373   5.365   3.950   6.291  0.4407 -0.7774  0.0835
13961TIP3    H163374   5.430   3.960   6.221 -0.6226 -0.9624 -0.9413
13961TIP3    H263375   5.290   4.001   6.262 -0.8309 -2.5664  0.0718
13962TIP3   OH263376   3.734   2.347  13.701 -0.3305  0.4955  0.0359
13962TIP3    H163377   3.758   2.260  13.672 -0.0241  0.4764  0.3471
13962TIP3    H263378   3.640   2.353  13.683 -0.2314  0.3277 -0.5513
13963TIP3   OH263379   0.866   0.635   2.614 -0.6390 -0.3800  1.0448
13963TIP3    H163380   0.920   0.666   2.541 -0.3404 -0.1819  1.3416
13963TIP3    H263381   0.780   0.619   2.576 -0.3701 -0.6964  0.5650
13964TIP3   OH263382   2.840   6.690  11.100 -0.2662  0.1453  0.0267
13964TIP3    H163383   2.780   6.646  11.160 -1.4354  1.9865  0.2801
13964TIP3    H263384   2.810   6.781  11.097  1.6758  0.8303 -0.9248
13965TIP3   OH263385   0.559   1.564   2.744 -0.1023 -0.0773 -0.1962
13965TIP3    H163386   0.475   1.526   2.769  0.7631 -0.3870  2.5920
13965TIP3    H263387   0.600   1.588   2.827  2.6296 -0.0571 -1.4397
13966TIP3   OH263388   6.021   4.137   0.082  0.8217  0.0228  0.1561
13966TIP3    H163389   6.058   4.049   0.072  2.6486  0.5141  1.8456
13966TIP3    H263390   6.043   4.182   0.001  3.5259  0.0830  0.8324
13967TIP3   OH263391   2.916   0.914  12.208 -0.0974  0.4738 -0.3076
13967TIP3    H163392   2.989   0.969  12.178 -1.7468  2.6995 -0.4483
13967TIP3    H263393   2.929   0.908  12.303  0.9622 -0.3014 -0.4717
13968TIP3   OH263394   4.475   1.723  16.935 -0.6300  0.4285 -0.2917
13968TIP3    H163395   4.435   1.757  16.855  0.1439  1.9549 -0.0816
13968TIP3    H263396   4.485   1.630  16.920  1.8087  1.0049 -3.0423
13969TIP3   OH263397   4.871   2.713  16.657 -0.1584 -0.2323 -0.1976
13969TIP3    H163398   4.894   2.620  16.654 -1.0694 -0.4933  0.5904
13969TIP3    H263399   4.820   2.723  16.738 -2.1647  0.4648 -1.4770
13970TIP3   OH263400   0.538   6.225   2.490  0.1749 -0.3393  0.5523
13970TIP3    H163401   0.476   6.255   2.556  1.8239  1.3751  1.3936
13970TIP3    H263402   0.557   6.302   2.437 -0.4496 -1.4783 -1.4644
13971TIP3   OH263403   6.656   4.874   4.362  0.2213 -0.3685  0.3306
13971TIP3    H163404   6.729   4.931   4.337  1.9062 -1.5055  2.4335
13971TIP3    H263405   6.687   4.785   4.343  0.6577 -1.1063  3.9280
13972TIP3   OH263406   4.637   6.644  13.239  0.0746  1.2730 -0.0614
13972TIP3    H163407   4.562   6.587  13.256 -0.0303  0.5455 -2.5895
13972TIP3    H263408   4.637   6.706  13.311 -0.7415 -0.9484  1.9987
13973TIP3   OH263409   1.728   2.018   5.088 -0.3170 -0.3648 -0.0524
13973TIP3    H163410   1.698   1.947   5.144 -1.6745 -0.2092 -0.5542
13973TIP3    H263411   1.649   2.066   5.065  0.6999  2.2778  1.5443
13974TIP3   OH263412   6.441   5.308   3.585  0.0309 -0.2023  0.5144
13974TIP3    H163413   6.496   5.334   3.511 -2.0567 -1.0225 -1.4589
13974TIP3    H263414   6.428   5.389   3.634 -0.8786  1.1282 -1.7249
13975TIP3   OH263415   6.393   4.007   3.296 -0.2118  0.1991 -0.4173
13975TIP3    H163416   6.399   4.072   3.366 -0.2901  0.1387 -0.3550
13975TIP3    H263417   6.477   4.013   3.250 -0.3816  0.6430 -0.6759
13976TIP3   OH263418   2.899   0.570  14.797  0.2232  0.2508  0.6153
13976TIP3    H163419   2.894   0.508  14.724 -0.1804 -2.0887  2.5057
13976TIP3    H263420   2.814   0.613  14.798  0.3699  0.6034 -0.4918
13977TIP3   OH263421   2.302   2.058   4.360 -0.0635  0.5627  0.1202
13977TIP3    H163422   2.276   2.144   4.395 -0.7710  0.2554  0.3720
13977TIP3    H263423   2.227   2.030   4.308 -0.9184 -1.0221  2.0841
13978TIP3   OH263424   6.322   4.195  11.511  0.1625  0.1735 -0.0111
13978TIP3    H163425   6.228   4.207  11.527 -0.0690  0.9651 -1.7922
13978TIP3    H263426   6.344   4.117  11.561 -0.8668  1.3697  2.5216
13979TIP3   OH263427   2.064   5.912   5.248  0.1095 -0.2246  0.3893
13979TIP3    H163428   2.092   5.827   5.282  0.0864 -0.9422 -1.3009
13979TIP3    H263429   1.972   5.900   5.225  0.2525  0.0768 -0.3766
13980TIP3   OH263430   4.620   0.542   4.614 -0.0483  0.1419  0.2876
13980TIP3    H163431   4.582   0.455   4.624  0.9336 -0.1512  1.7372
13980TIP3    H263432   4.671   0.556   4.694 -1.3734  2.6571  0.8120
13981TIP3   OH263433   4.518   0.805   0.943  0.8430  0.0083 -0.1601
13981TIP3    H163434   4.520   0.863   0.867  0.0251 -0.2570 -0.3943
13981TIP3    H263435   4.557   0.856   1.014 -1.5757  1.6161  0.1428
13982TIP3   OH263436   0.365   5.854  10.960  0.1750  0.0984  0.0124
13982TIP3    H163437   0.323   5.860  10.875  0.3793  1.5143 -0.0156
13982TIP3    H263438   0.401   5.941  10.975 -1.6704  0.5329  2.4781
13983TIP3   OH263439   6.084   0.391  12.881  0.0005 -0.1378 -0.1401
13983TIP3    H163440   6.160   0.443  12.854  0.0108 -0.2189 -0.2702
13983TIP3    H263441   6.008   0.444  12.857 -0.0222 -0.7938 -1.5680
13984TIP3   OH263442   0.829   0.146   0.173 -0.2771  0.6727  0.1642
13984TIP3    H163443   0.918   0.182   0.182 -0.7516  2.3703 -1.4764
13984TIP3    H263444   0.840   0.068   0.119  0.1277  1.4348 -0.8860
13985TIP3   OH263445   4.513   3.208  13.897 -0.1539 -0.0223 -0.3671
13985TIP3    H163446   4.520   3.264  13.820  0.0023  1.1812  0.4875
13985TIP3    H263447   4.571   3.249  13.961 -0.3346 -0.9604  0.4123
13986TIP3   OH263448   0.249   6.550  16.048  0.0241 -0.3555 -0.2279
13986TIP3    H163449   0.212   6.476  16.097  0.4833  0.1486  0.9253
13986TIP3    H263450   0.241   6.624  16.108 -0.0644  0.4438 -1.2180
13987TIP3   OH263451   1.233   4.649   3.048 -0.7575  0.0432 -0.6652
13987TIP3    H163452   1.288   4.697   3.110  0.1871 -1.3407 -0.3770
13987TIP3    H263453   1.153   4.630   3.096  0.4056 -2.0133  0.6329
13988TIP3   OH263454   3.803   1.075   5.530 -0.2028  0.4029  0.7319
13988TIP3    H163455   3.866   1.137   5.567 -0.7916  0.7334  1.2011
13988TIP3    H263456   3.743   1.056   5.602 -1.1896  0.8119  0.0464
13989TIP3   OH263457   3.780   1.654   5.357  0.0769  0.1098  0.2391
13989TIP3    H163458   3.781   1.571   5.405 -1.4736  1.6610  3.1957
13989TIP3    H263459   3.866   1.658   5.315  1.5757 -1.4063  2.9196
13990TIP3   OH263460   3.564   2.386  12.163 -0.4492 -0.0290  0.5019
13990TIP3    H163461   3.629   2.455  12.176 -0.6223 -0.1725  2.3833
13990TIP3    H263462   3.606   2.325  12.103  0.5739  0.6138  0.5346
13991TIP3   OH263463   0.426   5.474  13.928  0.4007 -0.0628  0.0290
13991TIP3    H163464   0.511   5.434  13.909  1.1221  1.7451 -0.7677
13991TIP3    H263465   0.446   5.566  13.945 -1.4581  0.5374 -0.7484
13992TIP3   OH263466   4.503   1.021  11.869  0.2571  0.2524  0.7009
13992TIP3    H163467   4.500   0.933  11.907  1.4876  0.8075  2.1648
13992TIP3    H263468   4.596   1.038  11.855  0.0851  1.5418  0.9902
13993TIP3   OH263469   1.011   3.942   4.345 -0.4236 -0.2251  0.4727
13993TIP3    H163470   0.977   4.022   4.385 -1.9814 -1.2540  1.3412
13993TIP3    H263471   1.029   3.965   4.255 -1.8997  0.8461  0.4162
13994TIP3   OH263472   1.486   5.591   4.088  0.2346  0.6762  0.1042
13994TIP3    H163473   1.402   5.612   4.129  0.7646  0.4367  1.3332
13994TIP3    H263474   1.524   5.523   4.143  0.7480 -0.0310 -1.0791
13995TIP3   OH263475   0.897   1.415  14.669 -0.1614 -0.0541 -0.1387
13995TIP3    H163476   0.949   1.334  14.667 -0.6312 -0.4432  1.7300
13995TIP3    H263477   0.850   1.415  14.586  1.3598 -0.6617 -1.0487
13996TIP3   OH263478   3.767   5.774  17.046 -0.0804 -0.1646  0.2199
13996TIP3    H163479   3.763   5.687  17.006  0.8425  0.4677 -1.3501
13996TIP3    H263480   3.838   5.769  17.109 -1.1347 -0.9976  1.4001
13997TIP3   OH263481   2.615   5.252   2.438 -0.5600  0.3896 -0.2879
13997TIP3    H163482   2.533   5.296   2.458 -0.2039  0.9856 -0.1067
13997TIP3    H263483   2.683   5.309   2.475 -0.1742 -1.3260  1.8194
13998TIP3   OH263484   6.681   3.385   1.647 -0.8974  0.3884  0.6043
13998TIP3    H163485   6.612   3.451   1.641 -1.1503  0.4241  3.0874
13998TIP3    H263486   6.717   3.395   1.735  1.3207 -0.6073 -0.1116
13999TIP3   OH263487   0.733   0.309   3.027  0.2888  0.0067 -0.9837
13999TIP3    H163488   0.758   0.217   3.032 -0.5701 -0.2251  3.7939
13999TIP3    H263489   0.648   0.307   2.983 -0.3621 -1.7764  0.1901
14000TIP3   OH263490   0.026   3.813  13.680 -1.2679 -0.1371 -0.0566
14000TIP3    H163491  -0.021   3.892  13.652 -1.2491  0.6543  1.9444
14000TIP3    H263492   0.086   3.844  13.748  0.2147 -1.5743 -0.6613
14001TIP3   OH263493   2.445   0.503   2.167 -0.2979 -0.0587 -0.6105
14001TIP3    H163494   2.465   0.429   2.225 -0.3141  0.5797  0.2229
14001TIP3    H263495   2.367   0.542   2.205 -0.1228  0.5682 -0.8904
14002TIP3   OH263496   0.297   1.915  10.745 -0.3324  0.4364  0.4586
14002TIP3    H163497   0.388   1.885  10.745 -0.9988 -1.8912  1.9832
14002TIP3    H263498   0.257   1.870  10.670 -1.0716 -1.9104  2.1127
14003TIP3   OH263499   3.146   0.224  12.323  0.3676 -0.1736  0.0427
14003TIP3    H163500   3.063   0.265  12.348  0.0322 -1.0450  0.3985
14003TIP3    H263501   3.212   0.290  12.344 -0.2074  0.4422 -0.0195
14004TIP3   OH263502   1.958   5.545  12.919 -0.5348 -0.0036 -0.0152
14004TIP3    H163503   2.012   5.491  12.862 -1.0814  0.7046 -1.2388
14004TIP3    H263504   1.873   5.549  12.874 -1.1823  0.0667  1.1632
14005TIP3   OH263505   5.583   6.587   4.150  0.3006  0.1044 -0.0078
14005TIP3    H163506   5.511   6.598   4.212  2.0282  2.3048  1.7985
14005TIP3    H263507   5.655   6.553   4.202  1.0650 -0.5764 -1.4309
14006TIP3   OH263508   1.503   3.742   4.026  0.1783 -0.1009 -0.0422
14006TIP3    H163509   1.577   3.750   4.087  1.2294 -0.2135 -1.2778
14006TIP3    H263510   1.508   3.652   3.993 -0.7147 -0.2135  0.1031
14007TIP3   OH263511   1.724   1.994  14.938 -0.1406 -0.3110  0.0001
14007TIP3    H163512   1.630   2.006  14.955  0.0515  0.0545  0.8680
14007TIP3    H263513   1.731   1.907  14.899 -1.1083  0.5929 -2.4181
14008TIP3   OH263514   5.201   1.452  11.297  0.1434 -0.0937 -0.4271
14008TIP3    H163515   5.295   1.462  11.281  0.1537  0.1031 -0.2425
14008TIP3    H263516   5.195   1.410  11.382  0.0561  0.4484 -0.1590
14009TIP3   OH263517   0.930   2.791   3.304 -0.4392  0.3676  0.6966
14009TIP3    H163518   0.949   2.806   3.397  0.9410  1.5198  0.2636
14009TIP3    H263519   0.880   2.868   3.277 -0.0215  0.4915  0.2658
14010TIP3   OH263520   3.768   0.429  12.709 -0.4322  0.0799 -0.4320
14010TIP3    H163521   3.704   0.496  12.686  2.3585  2.8525 -0.8071
14010TIP3    H263522   3.768   0.428  12.805 -0.8099  0.3023 -0.4280
14011TIP3   OH263523   2.018   4.310  15.630 -0.0264  0.5245  0.1350
14011TIP3    H163524   2.053   4.284  15.545  0.8334 -2.1121  1.1862
14011TIP3    H263525   1.931   4.346  15.611  0.0217 -0.2716 -1.8128
14012TIP3   OH263526   5.317   4.027  11.744  0.0001 -0.3942  0.5379
14012TIP3    H163527   5.338   4.041  11.652 -0.4539  1.4274  0.6792
14012TIP3    H263528   5.242   3.968  11.743  0.9079 -1.5830 -0.1773
14013TIP3   OH263529   5.878   1.894  14.933 -0.1148  0.3977  0.0226
14013TIP3    H163530   5.909   1.937  14.854  0.0773 -0.5280 -0.4136
14013TIP3    H263531   5.909   1.804  14.925 -0.5703  0.1571  0.8873
14014TIP3   OH263532   5.605   3.141   0.018 -0.1042  0.4115  0.1738
14014TIP3    H163533   5.659   3.151   0.097 -0.7507 -0.2216  0.7030
14014TIP3    H263534   5.582   3.231  -0.007 -0.6592  0.5779  1.2417
14015TIP3   OH263535   3.333   2.521   3.771  0.5415  0.5544  0.1401
14015TIP3    H163536   3.315   2.543   3.863 -0.0510  1.3510 -0.1536
14015TIP3    H263537   3.277   2.580   3.721  2.3702  1.6161 -0.7912
14016TIP3   OH263538   1.455   3.274  12.547  0.0544 -0.6311 -0.2101
14016TIP3    H163539   1.516   3.311  12.483  0.4289 -2.3843 -0.9454
14016TIP3    H263540   1.369   3.284  12.507  0.3171 -2.0275 -1.2284
14017TIP3   OH263541   2.275   2.920   6.307  1.1865 -0.9795  0.9323
14017TIP3    H163542   2.217   2.853   6.272  0.6058 -0.2573  0.4926
14017TIP3    H263543   2.220   2.973   6.366  1.3600 -0.2398  0.4488
14018TIP3   OH263544   0.503   2.247  13.910  0.2474  0.1480  0.0527
14018TIP3    H163545   0.431   2.274  13.967  1.3589 -0.2110  1.7227
14018TIP3    H263546   0.543   2.174  13.957  0.0522 -1.4778 -2.1685
14019TIP3   OH263547   1.672   1.011  16.135 -0.4417 -0.0752  0.2680
14019TIP3    H163548   1.740   1.074  16.160  0.1478 -0.4014 -0.4812
14019TIP3    H263549   1.704   0.927  16.169 -1.4283  0.0646  1.6463
14020TIP3   OH263550   2.414   5.975  11.556  0.4555  0.4189  0.0406
14020TIP3    H163551   2.406   5.882  11.579  1.4798  0.0228 -1.1074
14020TIP3    H263552   2.448   6.017  11.635 -1.1928  0.0652  0.9875
14021TIP3   OH263553   5.611   5.209  11.221  0.7603 -0.4464  0.1856
14021TIP3    H163554   5.528   5.161  11.218  0.4958 -0.0247  0.6577
14021TIP3    H263555   5.623   5.242  11.132 -0.0180  0.2279  0.3203
14022TIP3   OH263556   2.032   2.711   2.888 -0.0560 -0.2594  0.1757
14022TIP3    H163557   2.113   2.713   2.837  0.2745  0.7512  0.7290
14022TIP3    H263558   1.997   2.800   2.882  0.0321 -0.0891  1.7575
14023TIP3   OH263559   6.642   2.112   2.907 -0.1999 -0.5782  0.5457
14023TIP3    H163560   6.651   2.030   2.858 -2.2950  0.1697 -1.2333
14023TIP3    H263561   6.548   2.124   2.917 -0.0530  2.4089 -0.7198
14024TIP3   OH263562   1.039   6.287  12.709 -0.0746 -0.4271 -0.0931
14024TIP3    H163563   1.065   6.376  12.732  0.3477  0.0681 -2.3087
14024TIP3    H263564   0.944   6.285  12.723 -0.0419  0.2607  0.2363
14025TIP3   OH263565   6.510   2.376  15.247 -0.2774 -0.0466 -0.3875
14025TIP3    H163566   6.603   2.390  15.263 -0.4349  0.3784  0.1907
14025TIP3    H263567   6.494   2.415  15.161 -0.2918  1.5870  0.3256
14026TIP3   OH263568   1.806   5.821   5.351 -0.2952  0.0284  0.5709
14026TIP3    H163569   1.718   5.799   5.381 -0.2274  0.6711  1.2665
14026TIP3    H263570   1.825   5.906   5.392  0.1322  0.5378 -0.6363
14027TIP3   OH263571   0.001   1.845  15.197 -0.1997  0.0253  0.4310
14027TIP3    H163572   0.043   1.925  15.167 -0.0971 -0.5957 -1.1811
14027TIP3    H263573   0.048   1.774  15.153 -2.6836 -0.7109 -1.2789
14028TIP3   OH263574   0.036   1.821   3.066 -0.0796  0.3073  0.4300
14028TIP3    H163575   0.109   1.856   3.015  0.9037 -1.2780  0.6744
14028TIP3    H263576  -0.009   1.761   3.006 -0.8945  0.9001  0.4372
14029TIP3   OH263577   5.800   3.219  16.901  0.1653 -0.1606 -0.1778
14029TIP3    H163578   5.775   3.287  16.964  1.3636  0.0834  0.0580
14029TIP3    H263579   5.737   3.229  16.830  1.2737  2.3420 -0.9441
14030TIP3   OH263580   2.280   2.745  13.372 -0.4532  0.1886  0.2325
14030TIP3    H163581   2.347   2.702  13.318  0.2828  1.7675 -0.1763
14030TIP3    H263582   2.288   2.838  13.351 -1.5963  0.6156  1.5040
14031TIP3   OH263583   3.438   3.369  15.371  0.2206 -0.0996  0.2722
14031TIP3    H163584   3.457   3.426  15.446  3.7085 -1.4244  0.5642
14031TIP3    H263585   3.447   3.427  15.295 -2.5021  1.0523  0.7010
14032TIP3   OH263586   0.724   6.034   4.894 -0.3550 -0.4012 -1.0148
14032TIP3    H163587   0.636   6.018   4.859 -1.2302 -0.0228  0.8938
14032TIP3    H263588   0.710   6.054   4.986  1.7253  0.0253 -0.7427
14033TIP3   OH263589   2.831   2.429  13.353 -0.0949 -0.3314 -0.2303
14033TIP3    H163590   2.810   2.405  13.443 -1.4881 -1.1774 -0.7475
14033TIP3    H263591   2.752   2.406  13.303  0.3886  0.7563 -1.5594
14034TIP3   OH263592   6.655   6.440  12.726  0.1810 -0.4092 -0.9295
14034TIP3    H163593   6.681   6.528  12.754  1.3181 -0.7408 -0.9180
14034TIP3    H263594   6.561   6.448  12.707  0.0598  0.5619  0.0125
14035TIP3   OH263595   0.362   1.840  13.690  0.2077 -0.6149  0.2526
14035TIP3    H163596   0.450   1.802  13.692 -0.4067 -2.1190  0.3048
14035TIP3    H263597   0.359   1.896  13.767  2.0245  1.7433 -1.2161
14036TIP3   OH263598   2.199   5.785  16.849  0.1741 -0.4205 -0.6477
14036TIP3    H163599   2.274   5.844  16.856 -0.7556  0.7194  0.0325
14036TIP3    H263600   2.237   5.703  16.817  1.6853  0.1531 -0.4412
14037TIP3   OH263601   1.201   0.319  11.990  0.0466  0.4547  0.2950
14037TIP3    H163602   1.138   0.370  12.042 -0.8257 -0.7535  0.4600
14037TIP3    H263603   1.235   0.254  12.051 -1.3557 -1.2995 -0.7151
14038TIP3   OH263604   0.789   0.944   4.382 -0.1720 -0.0971  0.1564
14038TIP3    H163605   0.733   1.020   4.368 -2.2133 -1.3214  1.2792
14038TIP3    H263606   0.790   0.932   4.477 -0.0969 -1.6043 -0.0040
14039TIP3   OH263607   4.279   2.047  13.750  0.0383  0.5430  0.0991
14039TIP3    H163608   4.286   1.983  13.679 -1.5857  0.7013 -0.2363
14039TIP3    H263609   4.360   2.036  13.800 -0.7385 -2.7014  0.8300
14040TIP3   OH263610   6.520   2.982  13.002 -0.2592 -0.6318  0.0122
14040TIP3    H163611   6.510   2.901  12.953  0.6772 -1.0519  0.4996
14040TIP3    H263612   6.469   2.969  13.082  0.8593 -1.2240  0.6493
14041TIP3   OH263613   6.297   6.104  16.411  0.1447  0.0696  1.1345
14041TIP3    H163614   6.306   6.040  16.482 -1.2991 -0.9075  0.4773
14041TIP3    H263615   6.214   6.082  16.368  1.4273 -0.0290 -1.5165
14042TIP3   OH263616   0.651   3.366  13.731  0.3074 -0.4179  0.0138
14042TIP3    H163617   0.621   3.457  13.725  0.1566 -0.4972 -0.4603
14042TIP3    H263618   0.606   3.331  13.808  0.7467  0.0479  0.4849
14043TIP3   OH263619   0.253   2.322   4.973  0.5353 -0.0480  0.0383
14043TIP3    H163620   0.247   2.238   5.019  0.6493  0.1702  0.4464
14043TIP3    H263621   0.162   2.352   4.967  0.2830 -1.0197 -1.6337
14044TIP3   OH263622   2.871   0.875  10.983  0.0635 -0.4709 -0.2336
14044TIP3    H163623   2.817   0.929  11.042  2.9153  0.8034  1.4085
14044TIP3    H263624   2.881   0.792  11.029 -2.3675 -1.7127 -1.6942
14045TIP3   OH263625   0.696   5.651  12.468 -0.2444  0.3787  0.5743
14045TIP3    H163626   0.671   5.743  12.458  0.3167  0.6208  1.2337
14045TIP3    H263627   0.623   5.601  12.433  0.0764  1.0829 -1.2085
14046TIP3   OH263628   1.455   6.476   5.041  0.0474  0.6098  0.5338
14046TIP3    H163629   1.361   6.465   5.031  0.1868  0.1547 -0.4003
14046TIP3    H263630   1.483   6.523   4.963  0.5731  0.8950  0.8828
14047TIP3   OH263631   4.388   0.743   1.818 -0.3644 -0.4802 -0.3749
14047TIP3    H163632   4.367   0.748   1.725  1.4494 -0.8161 -0.8564
14047TIP3    H263633   4.435   0.660   1.827  0.9907  0.3278  0.4737
14048TIP3   OH263634   1.632   5.162  16.930  0.0123  0.4275  0.3023
14048TIP3    H163635   1.719   5.169  16.890  0.0571 -1.2324  0.0691
14048TIP3    H263636   1.577   5.122  16.863 -0.3593 -0.6945  1.2485
14049TIP3   OH263637   2.012   2.587  16.719 -0.1404  0.2525 -0.0715
14049TIP3    H163638   1.984   2.592  16.628  2.2224  0.0636 -0.8696
14049TIP3    H263639   2.065   2.507  16.724  0.1254  0.4834  1.3632
14050TIP3   OH263640   4.461   0.100   0.881  0.0883  0.3907  0.8523
14050TIP3    H163641   4.503   0.172   0.835  0.3701  0.3235  1.0014
14050TIP3    H263642   4.393   0.069   0.821 -0.6793  1.4014  1.1820
14051TIP3   OH263643   3.333   4.668  15.155  0.5491 -0.0839 -0.1927
14051TIP3    H163644   3.408   4.725  15.172  1.0417 -0.3023 -1.5760
14051TIP3    H263645   3.290   4.707  15.079  0.9077 -1.5434 -1.1835
14052TIP3   OH263646   3.070   6.766  12.354  0.9435  0.1960 -0.0805
14052TIP3    H163647   2.995   6.707  12.365  0.1324  1.2084 -0.0835
14052TIP3    H263648   3.047   6.843  12.406  1.7579  0.7313 -0.5039
14053TIP3   OH263649   5.662   2.617  16.457 -0.2984  0.2289  0.7261
14053TIP3    H163650   5.708   2.614  16.541  0.4432  1.2092  0.3732
14053TIP3    H263651   5.573   2.589  16.478  0.1405 -0.5445  1.6453
14054TIP3   OH263652   3.432   4.031   6.276  0.1484 -0.2549 -0.3456
14054TIP3    H163653   3.374   3.965   6.314  0.2842 -0.7632 -0.9929
14054TIP3    H263654   3.376   4.108   6.264 -0.5260 -0.8806 -1.3629
14055TIP3   OH263655   1.484   5.148   3.797 -0.2691 -0.1190  0.5539
14055TIP3    H163656   1.536   5.168   3.720  0.4099 -0.4620  0.9094
14055TIP3    H263657   1.439   5.230   3.817 -0.3828 -0.0054 -0.1522
14056TIP3   OH263658   3.674   5.189   0.196  0.4720 -0.1786 -0.0225
14056TIP3    H163659   3.672   5.182   0.101 -1.0419  0.2973 -0.0456
14056TIP3    H263660   3.766   5.175   0.219  0.6827 -1.3338 -1.4578
14057TIP3   OH263661   4.657   4.422  15.550 -0.2942  0.4040  0.0551
14057TIP3    H163662   4.675   4.501  15.601  1.4576 -0.5731  1.0589
14057TIP3    H263663   4.738   4.372  15.555 -0.9104 -0.8528 -1.6955
14058TIP3   OH263664   3.938   2.252  15.024 -0.4932  0.6137  0.1056
14058TIP3    H163665   3.939   2.306  15.103  0.6777 -0.8574  1.1492
14058TIP3    H263666   3.923   2.163  15.056 -1.4799  0.1689 -1.4798
14059TIP3   OH263667   6.475   2.373  16.527  0.1408 -0.0367  0.2803
14059TIP3    H163668   6.459   2.363  16.621  1.3122 -1.6841  0.3403
14059TIP3    H263669   6.558   2.420  16.522 -0.4199  0.9580  0.0366
14060TIP3   OH263670   2.338   1.002  13.227 -0.5619 -0.0581  0.6988
14060TIP3    H163671   2.268   0.937  13.214 -0.4045 -0.1471  0.3097
14060TIP3    H263672   2.307   1.080  13.183 -0.3731 -0.1263  0.4439
14061TIP3   OH263673   2.057   4.613  16.962  0.0935 -0.0384 -0.1640
14061TIP3    H163674   2.069   4.706  16.942 -0.7798  0.0627 -0.2568
14061TIP3    H263675   1.997   4.581  16.894  2.1379 -1.2221 -1.5084
14062TIP3   OH263676   5.371   5.266   3.026 -0.3043 -0.2358 -0.3889
14062TIP3    H163677   5.419   5.185   3.006  0.0816  0.2042 -1.3491
14062TIP3    H263678   5.424   5.335   2.985 -0.3500  0.5704  0.8574
14063TIP3   OH263679   5.168   6.541   1.736  0.4703  0.3035 -0.3728
14063TIP3    H163680   5.149   6.457   1.694  0.5208  0.6748 -1.1488
14063TIP3    H263681   5.103   6.601   1.701  0.2064  0.5127  0.4534
14064TIP3   OH263682   5.503   1.205  15.239  0.0885  0.1424  0.2547
14064TIP3    H163683   5.522   1.188  15.331  1.5577 -2.0440 -0.3632
14064TIP3    H263684   5.412   1.180  15.228  0.0429 -0.0564  1.0114
14065TIP3   OH263685   2.083   0.829   1.867  0.1765 -0.3046 -0.0430
14065TIP3    H163686   2.025   0.786   1.804  0.5319 -0.3134 -0.3699
14065TIP3    H263687   2.122   0.758   1.916 -1.7885 -0.2436  1.7514
14066TIP3   OH263688   0.556   2.894  14.579  0.0637 -0.4402  0.4766
14066TIP3    H163689   0.597   2.937  14.505 -0.3323  0.1566  0.5935
14066TIP3    H263690   0.577   2.801  14.568 -0.9961 -0.5470 -1.0599
14067TIP3   OH263691   5.543   3.126   3.680  0.3175 -0.5647  0.1279
14067TIP3    H163692   5.552   3.123   3.584 -0.3882  0.6656  0.0023
14067TIP3    H263693   5.517   3.037   3.704  1.9922 -1.2994 -0.6411
14068TIP3   OH263694   4.754   4.701   5.551 -0.4751  0.4919  0.1593
14068TIP3    H163695   4.826   4.733   5.606 -0.0470  2.6252 -1.4917
14068TIP3    H263696   4.680   4.758   5.574 -0.8104  0.1939 -0.1830
14069TIP3   OH263697   2.399   3.499   0.470  0.1534  0.0366  0.2646
14069TIP3    H163698   2.365   3.517   0.382  0.1123 -0.5789  0.1556
14069TIP3    H263699   2.351   3.559   0.527 -0.0818  0.1784 -0.0831
14070TIP3   OH263700   3.141   6.598  13.529  0.3950 -0.4091 -0.2740
14070TIP3    H163701   3.234   6.601  13.550  0.4779  1.8441 -0.6749
14070TIP3    H263702   3.099   6.642  13.603 -0.2419 -0.4801 -0.5879
14071TIP3   OH263703   6.129   1.023   6.235 -0.1331 -0.1018 -0.1773
14071TIP3    H163704   6.216   0.997   6.205  0.6604  2.5612 -0.4783
14071TIP3    H263705   6.088   1.062   6.158 -0.6768  0.7522  0.5289
14072TIP3   OH263706   2.250   1.924  12.404 -0.3001  0.1747 -0.1335
14072TIP3    H163707   2.268   1.901  12.313  2.1319 -0.2355  0.3691
14072TIP3    H263708   2.258   1.842  12.452 -0.6837  0.5371  0.5758
14073TIP3   OH263709   6.590   0.617  16.078  0.3702  0.0049  0.7616
14073TIP3    H163710   6.633   0.703  16.073  1.7039 -0.6254  0.9136
14073TIP3    H263711   6.564   0.608  16.169  0.3837  0.1687  0.7832
14074TIP3   OH263712   5.164   4.841  13.992 -0.4984  0.1411 -0.3961
14074TIP3    H163713   5.191   4.749  13.998  1.1279  0.4203 -2.3411
14074TIP3    H263714   5.163   4.859  13.898 -1.5950  1.9235 -0.0930
14075TIP3   OH263715   3.298   4.196  12.515 -0.6243  0.4606 -0.0206
14075TIP3    H163716   3.312   4.107  12.547  3.2882  0.9535  0.1320
14075TIP3    H263717   3.324   4.194  12.424  0.8080  1.6704  0.3244
14076TIP3   OH263718   3.578   2.464  16.174 -0.3729  0.5879 -0.5243
14076TIP3    H163719   3.596   2.549  16.133  0.5700 -0.0375 -1.4637
14076TIP3    H263720   3.629   2.465  16.255 -0.3176  0.8921 -0.5631
14077TIP3   OH263721   3.772   5.682  11.854 -0.0769 -0.7529 -0.5595
14077TIP3    H163722   3.748   5.751  11.916 -0.2858 -2.2395  1.1156
14077TIP3    H263723   3.778   5.726  11.770  0.1046  1.3467  0.4907
14078TIP3   OH263724   1.609   2.008   2.204  0.5122  0.2594 -0.1241
14078TIP3    H163725   1.607   1.916   2.180 -0.5668  0.3358 -0.3833
14078TIP3    H263726   1.611   2.054   2.119 -0.1674  0.4876 -0.0181
14079TIP3   OH263727   5.325   1.045  15.889  0.3004  0.0065  0.1901
14079TIP3    H163728   5.241   1.007  15.862  0.0721  0.7785 -0.2371
14079TIP3    H263729   5.390   1.004  15.831  0.0886  0.0854 -0.1073
14080TIP3   OH263730   2.877   5.801  14.743 -0.3685 -0.4030 -0.3398
14080TIP3    H163731   2.958   5.759  14.773 -0.8799 -0.4072  1.1089
14080TIP3    H263732   2.814   5.787  14.814 -1.8698 -0.9913 -1.7273
14081TIP3   OH263733   2.890   3.608  14.188  0.0756  0.0276  0.7830
14081TIP3    H163734   2.905   3.654  14.270 -1.4195 -0.3723  1.3155
14081TIP3    H263735   2.796   3.615  14.174 -0.1254 -2.3005  0.5485
14082TIP3   OH263736   6.818   2.018  12.109 -0.0761 -0.3534  0.2516
14082TIP3    H163737   6.748   2.007  12.045 -1.5493  0.7122  1.6203
14082TIP3    H263738   6.828   2.113  12.118 -2.5535 -0.2357  4.2236
14083TIP3   OH263739   0.485   3.821   4.666  0.3374  0.3389 -0.2516
14083TIP3    H163740   0.566   3.825   4.717  0.9282  1.4763 -1.2308
14083TIP3    H263741   0.417   3.801   4.730  1.3899 -0.6753  0.5835
14084TIP3   OH263742   6.515   4.332   1.314 -0.2009  0.4652  0.1209
14084TIP3    H163743   6.438   4.388   1.307  0.2141  1.1367  0.8765
14084TIP3    H263744   6.574   4.364   1.245 -0.7587 -0.3488 -0.7703
14085TIP3   OH263745   1.557   1.659   5.792  0.2032  0.2699  0.1363
14085TIP3    H163746   1.499   1.606   5.736  0.7408 -0.6999  0.4695
14085TIP3    H263747   1.498   1.713   5.844 -0.5397 -1.8194  1.5998
14086TIP3   OH263748   2.810   1.835  13.849 -0.0021  0.0224  0.1560
14086TIP3    H163749   2.880   1.839  13.914 -0.4496  0.0274  0.6462
14086TIP3    H263750   2.750   1.905  13.874 -0.3064 -0.1367 -0.1147
14087TIP3   OH263751   0.532   6.715   4.692  0.4094 -0.2495 -0.1145
14087TIP3    H163752   0.458   6.657   4.674 -0.4321  0.1742  1.7876
14087TIP3    H263753   0.605   6.656   4.710 -0.0287 -0.7154  0.1841
14088TIP3   OH263754   4.920   5.636  13.555 -0.0998 -0.5221  0.0219
14088TIP3    H163755   4.847   5.607  13.500  1.0256  1.2464 -2.6616
14088TIP3    H263756   4.993   5.579  13.530  0.5023  0.4940 -0.6276
14089TIP3   OH263757   0.328   0.948  11.246  0.3587  0.9550 -0.4718
14089TIP3    H163758   0.350   0.926  11.336  1.6485 -0.1295 -1.0214
14089TIP3    H263759   0.350   1.041  11.238 -0.4022  1.2375  0.4931
14090TIP3   OH263760   4.348   1.536  11.173 -0.4046 -0.1274  0.8573
14090TIP3    H163761   4.345   1.629  11.197 -0.5440  0.1725 -0.2722
14090TIP3    H263762   4.439   1.520  11.149 -0.4840 -0.1532  0.5701
14091TIP3   OH263763   6.202   1.485   5.087  0.7802 -0.1178  0.0061
14091TIP3    H163764   6.138   1.498   5.017  0.0116 -0.4107  0.6486
14091TIP3    H263765   6.251   1.407   5.059  1.6913  0.8057 -1.0804
14092TIP3   OH263766   2.677   6.368  12.027 -0.1728  0.0763  0.1762
14092TIP3    H163767   2.711   6.455  12.003 -0.5892  0.2894  0.3484
14092TIP3    H263768   2.583   6.375  12.016 -0.1292 -0.6761 -0.8003
14093TIP3   OH263769   0.527   5.556  13.483  0.4753 -0.8615  0.1363
14093TIP3    H163770   0.492   5.476  13.523  0.4685 -0.3937  1.0872
14093TIP3    H263771   0.465   5.577  13.413 -2.5026  1.1367  3.0979
14094TIP3   OH263772   6.643   5.553   0.072 -0.3719 -0.5725  0.1585
14094TIP3    H163773   6.646   5.590  -0.016 -2.2577 -1.3693 -0.2862
14094TIP3    H263774   6.727   5.509   0.082  0.1632  0.1617 -0.9473
14095TIP3   OH263775   4.936   3.433   2.698 -0.4280 -0.8620 -0.2755
14095TIP3    H163776   4.993   3.507   2.675 -2.0357  0.9589  1.2346
14095TIP3    H263777   4.945   3.424   2.793 -0.8534 -2.1159 -0.3354
14096TIP3   OH263778   0.669   1.824  14.966  0.1030  0.1152  0.1248
14096TIP3    H163779   0.694   1.747  14.915 -0.2853  0.7935 -1.1248
14096TIP3    H263780   0.659   1.791  15.055  0.5195 -1.1577 -0.2741
14097TIP3   OH263781   3.484   0.241  14.057  0.2107  0.5603  0.3455
14097TIP3    H163782   3.500   0.224  13.964 -0.8050 -0.6615  0.3532
14097TIP3    H263783   3.534   0.173  14.102 -1.0103 -0.2258  0.5669
14098TIP3   OH263784   5.893   3.883   5.048 -0.0615  0.1371  0.5335
14098TIP3    H163785   5.860   3.920   4.966 -0.2838 -2.3268 -0.5920
14098TIP3    H263786   5.988   3.897   5.044 -0.2590  1.6965  0.7876
14099TIP3   OH263787   3.966   1.545   6.261 -0.6586  0.1398  0.4968
14099TIP3    H163788   3.962   1.487   6.185 -0.1696  0.6607  0.0723
14099TIP3    H263789   3.875   1.572   6.275 -1.0168 -1.2636  1.1372
14100TIP3   OH263790   4.966   3.787  11.170  0.3835  0.0951 -0.1093
14100TIP3    H163791   5.015   3.776  11.088  1.3053 -0.0577  0.4549
14100TIP3    H263792   4.880   3.750  11.151 -0.4367  2.6059 -1.9267
14101TIP3   OH263793   5.642   2.175   4.797 -0.5386 -0.0859 -0.4561
14101TIP3    H163794   5.702   2.101   4.784 -1.2811 -0.5402 -1.4292
14101TIP3    H263795   5.614   2.199   4.709  0.0878  1.7180 -0.2031
14102TIP3   OH263796   4.749   0.202  15.919 -0.4750  0.7740 -0.1592
14102TIP3    H163797   4.766   0.169  16.007  0.5275 -1.6513 -1.1576
14102TIP3    H263798   4.831   0.189  15.872 -0.7168  2.8460 -1.2522
14103TIP3   OH263799   3.128   4.944  12.100 -0.0140  0.3677 -0.3186
14103TIP3    H163800   3.146   5.038  12.096  2.0502  0.0084 -0.8823
14103TIP3    H263801   3.134   4.914  12.009  2.5440 -0.7557  0.1226
14104TIP3   OH263802   2.624   4.174   5.086 -0.2696 -0.0939  0.1196
14104TIP3    H163803   2.529   4.165   5.078 -0.1582 -0.4379 -0.8470
14104TIP3    H263804   2.655   4.188   4.997  0.8650 -2.6556  0.0305
14105TIP3   OH263805   1.672   5.626  14.937 -0.1855  0.4847  0.2179
14105TIP3    H163806   1.705   5.707  14.977  0.1858  0.8659 -0.8224
14105TIP3    H263807   1.716   5.556  14.985 -0.8145  0.8714  1.4010
14106TIP3   OH263808   6.830   1.285  14.806  0.1974 -0.1277 -0.8642
14106TIP3    H163809   6.793   1.291  14.895  0.3061  0.9174 -0.8728
14106TIP3    H263810   6.814   1.195  14.780 -2.2889  0.2167 -0.8296
14107TIP3   OH263811   5.093   1.150  14.196  0.0962 -0.2827  0.0991
14107TIP3    H163812   4.998   1.151  14.187  0.1842 -1.2642 -1.3485
14107TIP3    H263813   5.117   1.241  14.215 -0.9466  0.4395 -1.8199
14108TIP3   OH263814   4.451   0.302  12.065  0.0336  0.4941  0.3973
14108TIP3    H163815   4.510   0.368  12.029  0.1839  0.2473  0.1918
14108TIP3    H263816   4.365   0.327  12.032  0.1669  0.2778 -0.1263
14109TIP3   OH263817   0.806   3.870  12.240  0.5328 -0.6223  0.1775
14109TIP3    H163818   0.884   3.925  12.243 -0.6068  1.0325  0.3172
14109TIP3    H263819   0.784   3.863  12.147 -1.5102  2.4640  0.2976
14110TIP3   OH263820   2.748   0.521  13.811  0.1247  0.2714 -0.1316
14110TIP3    H163821   2.748   0.491  13.902  0.6967 -1.6897 -0.7326
14110TIP3    H263822   2.742   0.441  13.759  1.2533  1.2500 -1.8553
14111TIP3   OH263823   0.250   3.247  13.599  0.5109  0.1851 -0.5410
14111TIP3    H163824   0.295   3.217  13.678 -0.7598  1.5192  0.7577
14111TIP3    H263825   0.158   3.252  13.624 -0.2782 -1.3777 -2.7739
14112TIP3   OH263826   6.293   3.720   1.080  0.5407 -0.3298  0.5075
14112TIP3    H163827   6.270   3.680   0.996  0.1225  1.1146 -0.0965
14112TIP3    H263828   6.210   3.746   1.118  0.8129  0.3306  0.6764
14113TIP3   OH263829   2.135   6.203   5.229  0.0162  0.5161 -0.2177
14113TIP3    H163830   2.117   6.115   5.261  3.6175 -0.5257 -0.6739
14113TIP3    H263831   2.197   6.240   5.292 -0.0426  2.0502 -1.0015
14114TIP3   OH263832   0.713   5.033   4.912 -0.3332  0.4125 -0.1625
14114TIP3    H163833   0.691   4.946   4.878 -1.6682  0.0079  1.5586
14114TIP3    H263834   0.660   5.041   4.992  2.0063  1.5764  1.3886
14115TIP3   OH263835   4.979   5.422  13.805  0.4326  0.3785 -0.0560
14115TIP3    H163836   4.912   5.486  13.783  0.8018  0.5044 -0.8544
14115TIP3    H263837   5.061   5.470  13.799  0.5738  0.4124  1.6164
14116TIP3   OH263838   2.074   5.339   4.605 -0.2578  0.4123 -0.4524
14116TIP3    H163839   2.026   5.264   4.571  1.2168 -0.7044 -0.1575
14116TIP3    H263840   2.152   5.344   4.551  0.9303  0.1172  1.1576
14117TIP3   OH263841   6.051   1.816  13.575  0.0660  0.0705 -0.2963
14117TIP3    H163842   6.058   1.903  13.616 -0.0572  0.3713 -0.9036
14117TIP3    H263843   5.957   1.801  13.566  0.0898 -0.0649 -0.3145
14118TIP3   OH263844   1.118   5.573   5.873 -0.0537  0.4256 -0.2363
14118TIP3    H163845   1.184   5.616   5.927 -0.9598  1.6770 -0.0735
14118TIP3    H263846   1.043   5.559   5.931  0.3564 -1.8007 -0.1818
14119TIP3   OH263847   0.457   0.331   5.465  0.1546  0.1814 -0.3405
14119TIP3    H163848   0.527   0.379   5.421  0.2173 -0.2032 -0.6640
14119TIP3    H263849   0.414   0.281   5.395  1.4623 -1.9527  0.2675
14120TIP3   OH263850   6.141   5.699  14.142 -0.2600 -0.0410 -0.5722
14120TIP3    H163851   6.151   5.607  14.167  1.2951  0.3855  0.5479
14120TIP3    H263852   6.061   5.701  14.089 -0.1572 -2.0726 -0.8844
14121TIP3   OH263853   1.902   3.981  13.736  0.1177  0.1759  0.2142
14121TIP3    H163854   1.829   3.968  13.676 -0.6735  1.1234  0.9389
14121TIP3    H263855   1.873   3.942  13.818  0.8582 -0.3750  0.2297
14122TIP3   OH263856   0.884   5.618  11.552  0.1171 -0.1491 -0.1910
14122TIP3    H163857   0.828   5.694  11.562 -0.3593 -0.1217 -2.4704
14122TIP3    H263858   0.906   5.617  11.459  1.5270 -1.8221  0.1077
14123TIP3   OH263859   6.183   4.093  13.691 -0.0633  0.1104 -0.2586
14123TIP3    H163860   6.206   4.148  13.766 -1.2398 -1.0425  1.0316
14123TIP3    H263861   6.090   4.107  13.678  0.0562  0.0303 -1.2984
14124TIP3   OH263862   5.662   5.088   1.860 -0.2510  0.3907 -0.5750
14124TIP3    H163863   5.578   5.109   1.818 -0.4432 -0.7240 -0.7861
14124TIP3    H263864   5.651   4.998   1.890 -0.7697  1.6339  3.4671
14125TIP3   OH263865   6.470   6.173  12.848 -0.3325 -0.0730  0.4869
14125TIP3    H163866   6.402   6.115  12.813  2.4491 -2.7791 -1.0557
14125TIP3    H263867   6.485   6.237  12.778  0.5674 -1.2875 -0.5020
14126TIP3   OH263868   1.379   0.745   1.497  0.6257 -0.1086 -0.7915
14126TIP3    H163869   1.471   0.740   1.524  1.1661  1.6621 -2.1047
14126TIP3    H263870   1.349   0.829   1.530 -0.6672 -0.8209 -0.0750
14127TIP3   OH263871   3.338   1.745  15.976 -0.2090 -0.8706  0.4923
14127TIP3    H163872   3.393   1.813  15.938 -1.7372  0.1093 -0.0896
14127TIP3    H263873   3.273   1.793  16.027 -1.2824 -1.8838  0.1276
14128TIP3   OH263874   6.482   5.303   4.209  0.4142 -0.4033 -0.2621
14128TIP3    H163875   6.554   5.261   4.256 -0.4051 -0.1018  1.3270
14128TIP3    H263876   6.454   5.237   4.145  0.6331 -1.4030  0.6403
14129TIP3   OH263877   3.070   0.670  12.414  0.1119  0.2396 -0.2955
14129TIP3    H163878   3.102   0.742  12.360  2.5482 -1.1909 -0.9570
14129TIP3    H263879   3.061   0.597  12.352 -2.6597  0.0127  0.2757
14130TIP3   OH263880   5.105   1.939   5.238 -0.1143 -0.2638  0.4953
14130TIP3    H163881   5.103   1.953   5.332  0.9817  0.3170  0.4445
14130TIP3    H263882   5.194   1.963   5.211 -0.8480  1.0580 -0.9188
14131TIP3   OH263883   6.142   2.133   1.857 -0.8459 -0.2001 -0.0519
14131TIP3    H163884   6.173   2.067   1.918 -1.9480  0.0443  0.8062
14131TIP3    H263885   6.155   2.094   1.770  1.8887 -0.0500  0.2221
14132TIP3   OH263886   2.451   4.813  17.002 -0.1357 -0.6406  0.7033
14132TIP3    H163887   2.386   4.853  17.060 -1.0469  0.7611 -1.1639
14132TIP3    H263888   2.465   4.879  16.934 -0.0217 -2.6805 -1.3341
14133TIP3   OH263889   0.729   0.528  15.821 -0.0076 -0.0554 -0.2629
14133TIP3    H163890   0.780   0.447  15.817 -0.0628 -0.1071  0.0333
14133TIP3    H263891   0.734   0.555  15.913 -0.9730 -0.3689 -0.1033
14134TIP3   OH263892   0.435   1.669  14.336 -0.3261  0.1333  0.2397
14134TIP3    H163893   0.412   1.626  14.253  2.1803 -0.3310 -0.2980
14134TIP3    H263894   0.447   1.597  14.398  0.8759  0.2240  0.1427
14135TIP3   OH263895   2.530   6.386   1.020  0.5049  0.3736 -0.0795
14135TIP3    H163896   2.465   6.327   1.058  0.4922  0.7299  0.4637
14135TIP3    H263897   2.482   6.467   1.004  0.3005 -0.0246 -1.6526
14136TIP3   OH263898   6.404   1.182   3.631 -0.2493  0.1853  0.3118
14136TIP3    H163899   6.474   1.124   3.660 -0.5885  0.1555  1.0994
14136TIP3    H263900   6.448   1.264   3.609 -0.0165  0.3281  1.2714
14137TIP3   OH263901   2.950   5.843   2.754  0.4784  0.1578 -0.0300
14137TIP3    H163902   2.922   5.913   2.813  0.7237  0.3165 -0.1011
14137TIP3    H263903   3.021   5.799   2.802 -0.4220 -0.7560  0.5032
14138TIP3   OH263904   4.276   1.979   3.224  0.3148  0.4112 -0.2336
14138TIP3    H163905   4.369   1.984   3.202  0.7795 -0.4769  1.3943
14138TIP3    H263906   4.273   1.931   3.307 -1.6304  0.0459 -0.4665
14139TIP3   OH263907   5.348   3.513   1.011  0.4215 -0.2209 -0.0267
14139TIP3    H163908   5.389   3.546   0.931  0.7510  0.7269  0.5133
14139TIP3    H263909   5.373   3.576   1.079 -1.4192  0.0658  0.4529
14140TIP3   OH263910   2.145   5.101   0.739 -0.2815 -0.0485  0.4594
14140TIP3    H163911   2.174   5.042   0.670 -0.6123  1.0316 -0.6303
14140TIP3    H263912   2.186   5.185   0.718 -1.0276  0.4994  1.1178
14141TIP3   OH263913   2.638   4.110   0.014 -0.2034 -0.0497  0.0433
14141TIP3    H163914   2.712   4.170   0.026 -1.4861  1.5527  0.3022
14141TIP3    H263915   2.677   4.031  -0.024  1.3999  1.3873 -1.5057
14142TIP3   OH263916   5.972   0.279   0.939 -0.0683 -0.5102 -0.4237
14142TIP3    H163917   5.976   0.264   0.844  0.1348 -3.1370 -0.0961
14142TIP3    H263918   5.878   0.282   0.959 -0.1230 -0.9419 -0.6017
14143TIP3   OH263919   0.410   6.622  13.272 -0.2368  0.0166  0.0397
14143TIP3    H163920   0.363   6.699  13.304 -1.3770 -0.8956  0.6161
14143TIP3    H263921   0.377   6.550  13.325  1.4300 -0.7580  0.0722
14144TIP3   OH263922   5.888   0.704   3.465  0.2892 -0.2966  0.1590
14144TIP3    H163923   5.822   0.717   3.396  1.4608 -0.3511 -1.0058
14144TIP3    H263924   5.857   0.758   3.538  0.4413  2.0376 -1.4047
14145TIP3   OH263925   4.814   2.087  11.724  0.1709 -0.1271 -0.0535
14145TIP3    H163926   4.874   2.067  11.651  0.6110 -1.9093  0.7320
14145TIP3    H263927   4.857   2.050  11.801 -0.2009  1.8875  1.1806
14146TIP3   OH263928   1.673   1.354  12.658 -0.3215  0.1735 -0.0740
14146TIP3    H163929   1.716   1.285  12.708  0.8024  0.6726 -0.3190
14146TIP3    H263930   1.643   1.416  12.724 -1.8633 -0.8144  0.1885
14147TIP3   OH263931   2.738   4.765  14.055 -0.4204 -0.1359 -0.0219
14147TIP3    H163932   2.678   4.839  14.045 -2.4817 -1.6306  0.6455
14147TIP3    H263933   2.809   4.799  14.110  0.4771  2.2367 -2.3961
14148TIP3   OH263934   5.318   0.773   0.672  0.3344  0.2959 -0.3016
14148TIP3    H163935   5.360   0.821   0.743 -0.8304  1.3561 -0.2749
14148TIP3    H263936   5.376   0.700   0.654  0.7534  0.0999  1.6146
14149TIP3   OH263937   0.528   2.861   1.892 -0.4474  0.4600  0.2608
14149TIP3    H163938   0.534   2.896   1.803 -0.4994 -1.8893 -0.7460
14149TIP3    H263939   0.598   2.797   1.897 -1.9926 -1.2527  1.0212
14150TIP3   OH263940   3.353   5.952  16.163 -0.0820  0.1447 -0.1256
14150TIP3    H163941   3.341   5.891  16.090 -1.5498 -1.2374  1.1755
14150TIP3    H263942   3.439   5.929  16.199 -0.4455 -0.9661  0.1053
14151TIP3   OH263943   6.447   2.235  14.522 -0.0285  0.5682  0.2029
14151TIP3    H163944   6.388   2.305  14.551 -0.3662 -0.1742  1.3730
14151TIP3    H263945   6.445   2.241  14.426 -1.5193  0.9876  0.2235
14152TIP3   OH263946   4.626   6.127  16.050  0.1007 -0.5625 -0.6087
14152TIP3    H163947   4.604   6.214  16.085  1.3535 -0.2751 -0.4666
14152TIP3    H263948   4.601   6.066  16.119 -1.7101 -0.4264 -1.1060
14153TIP3   OH263949   5.442   4.716  13.677 -0.4010 -0.3746  0.6050
14153TIP3    H163950   5.425   4.810  13.669 -0.2107 -0.0566  3.1720
14153TIP3    H263951   5.381   4.676  13.616  0.6748  1.4295 -1.8570
14154TIP3   OH263952   5.321   3.045  13.550  0.1653 -0.0561  0.1026
14154TIP3    H163953   5.326   2.964  13.600  1.2160  0.3311  0.6539
14154TIP3    H263954   5.375   3.107  13.598  3.0902 -0.2610 -2.6060
14155TIP3   OH263955   6.235   2.269  15.679 -0.7016 -0.6339  0.4965
14155TIP3    H163956   6.147   2.258  15.715 -0.2742 -2.2605  1.1315
14155TIP3    H263957   6.292   2.277  15.755 -0.2901  0.6284  0.0901
14156TIP3   OH263958   0.248   1.782  11.774  0.6440 -0.2194 -0.3611
14156TIP3    H163959   0.201   1.763  11.856  0.9379 -3.8671 -0.8704
14156TIP3    H263960   0.237   1.876  11.762 -1.7381  0.0298  2.4426
14157TIP3   OH263961   4.940   3.245   5.199  0.2091 -0.7483 -0.2122
14157TIP3    H163962   4.901   3.311   5.143  1.6665  1.0484  0.7735
14157TIP3    H263963   4.866   3.199   5.238 -1.0447  2.3004  1.3483
14158TIP3   OH263964   3.188   0.662  16.521  0.0374  0.5450  0.4360
14158TIP3    H163965   3.246   0.723  16.475 -0.5169  0.7089 -0.0586
14158TIP3    H263966   3.100   0.700  16.510 -0.4016 -0.6319 -0.3778
14159TIP3   OH263967   3.298   5.266  15.061  0.0052 -0.5273 -0.3768
14159TIP3    H163968   3.360   5.336  15.042 -1.2177  0.4398 -0.8992
14159TIP3    H263969   3.213   5.309  15.066 -0.6824 -1.8664  0.0551
14160TIP3   OH263970   5.207   2.291   1.613  0.1799  0.4537  0.4885
14160TIP3    H163971   5.173   2.291   1.703  1.0728  0.9023  0.8489
14160TIP3    H263972   5.167   2.367   1.572 -1.3057 -0.5175  0.0492
14161TIP3   OH263973   6.384   5.393   2.381 -0.2112  0.6422  0.0761
14161TIP3    H163974   6.340   5.434   2.307 -0.0283  0.0031 -0.3902
14161TIP3    H263975   6.474   5.381   2.353  0.1309  1.3875  0.8060
14162TIP3   OH263976   5.898   5.049   4.342  0.0676 -0.1932 -0.1251
14162TIP3    H163977   5.940   5.099   4.273  0.0456  2.2629  1.5428
14162TIP3    H263978   5.806   5.077   4.339 -0.4074 -1.6703 -0.4121
14163TIP3   OH263979   1.630   5.969   5.174  0.2615  0.5784 -0.1590
14163TIP3    H163980   1.695   5.922   5.227  0.5480 -0.2461 -1.2272
14163TIP3    H263981   1.588   5.902   5.121  0.2343  1.4365 -1.2545
14164TIP3   OH263982   3.908   5.636  16.164  0.1656  0.2050  0.7580
14164TIP3    H163983   3.911   5.668  16.254 -2.6960 -1.4747  1.5862
14164TIP3    H263984   3.844   5.565  16.166 -0.6345  0.6250 -2.7642
14165TIP3   OH263985   0.882   0.903  13.713  0.3856 -0.3229  0.6089
14165TIP3    H163986   0.934   0.929  13.637 -1.4075 -0.7049 -0.8006
14165TIP3    H263987   0.819   0.974  13.725 -0.5237 -1.1192  0.5995
14166TIP3   OH263988   1.487   6.294  11.568  0.0949  0.6471  0.1222
14166TIP3    H163989   1.483   6.210  11.522 -2.3741  0.6867  0.1675
14166TIP3    H263990   1.494   6.270  11.661 -0.6613  0.4751  0.1392
14167TIP3   OH263991   1.353   3.461  14.123  0.5566  0.4226 -0.1085
14167TIP3    H163992   1.373   3.554  14.126 -1.7697  0.9550  0.3629
14167TIP3    H263993   1.378   3.428  14.210 -1.7211  1.3536  0.9702
14168TIP3   OH263994   2.039   0.040   1.545 -0.2446  0.0216  0.0737
14168TIP3    H163995   1.984   0.079   1.477  0.6362 -0.3130 -0.8591
14168TIP3    H263996   1.986  -0.031   1.581 -0.8995  0.4978  0.0668
14169TIP3   OH263997   5.039   4.387   5.387  0.2851  0.3060  0.1724
14169TIP3    H163998   5.099   4.414   5.456  0.5129  1.5512 -0.4813
14169TIP3    H263999   5.095   4.359   5.315  0.0710 -2.4940  0.9628
14170TIP3   OH264000   6.634   4.593   5.761  0.1016  0.1582 -0.1144
14170TIP3    H164001   6.658   4.605   5.670  0.1152  1.2798  0.0250
14170TIP3    H264002   6.569   4.661   5.779 -0.5648 -0.5991  0.4789
14171TIP3   OH264003   0.172   1.138  13.234  0.0789  0.6113  0.4949
14171TIP3    H164004   0.210   1.161  13.149 -0.1103 -2.8202 -0.6877
14171TIP3    H264005   0.247   1.130  13.293  0.3656  1.4443  0.2591
14172TIP3   OH264006   2.116   0.651  11.690 -0.2721  0.8102 -0.3719
14172TIP3    H164007   2.052   0.698  11.637  0.5624  1.6440 -0.6641
14172TIP3    H264008   2.178   0.615  11.627  0.5885  1.6001  0.0005
14173TIP3   OH264009   4.281   3.595   1.738 -0.1250 -0.1449 -0.0123
14173TIP3    H164010   4.306   3.569   1.827 -0.6427  1.0025  0.4804
14173TIP3    H264011   4.365   3.612   1.695  0.0991  1.7031  1.0257
14174TIP3   OH264012   5.304   4.181   4.857  0.0509 -0.2050 -0.4569
14174TIP3    H164013   5.225   4.218   4.817 -0.5113  0.1141  0.8984
14174TIP3    H264014   5.339   4.252   4.911  1.6607 -0.1224 -1.5475
14175TIP3   OH264015   6.359   6.516  13.529  0.0663  0.0804 -0.3023
14175TIP3    H164016   6.318   6.461  13.462  1.1164 -0.0295 -0.8646
14175TIP3    H264017   6.422   6.458  13.573 -0.4092  0.2293  0.6069
14176TIP3   OH264018   3.748   3.633  13.642  0.1388  0.4934  0.4972
14176TIP3    H164019   3.816   3.567  13.633  0.6275  0.6906  2.3033
14176TIP3    H264020   3.726   3.633  13.736  0.2332  2.9408  0.5993
14177TIP3   OH264021   6.762   1.032  10.750 -0.5419  0.1177  0.5147
14177TIP3    H164022   6.807   1.097  10.804 -0.6078 -0.3996  1.1949
14177TIP3    H264023   6.749   1.077  10.666  0.1447  0.6986  0.7044
14178TIP3   OH264024   1.714   6.641   3.488  0.0091 -0.1151 -0.1047
14178TIP3    H164025   1.748   6.730   3.488 -0.3515  0.0851 -2.8968
14178TIP3    H264026   1.788   6.587   3.459  0.4116 -0.9001  2.1287
14179TIP3   OH264027   4.867   6.822  11.822  0.0645 -0.9562  0.0625
14179TIP3    H164028   4.824   6.744  11.786  0.4916 -1.1305 -0.0767
14179TIP3    H264029   4.796   6.873  11.858 -0.5316 -0.3269 -1.8627
14180TIP3   OH264030   1.583   4.276   2.246 -0.3203 -0.3990 -0.0826
14180TIP3    H164031   1.500   4.304   2.208 -2.1843 -1.8915  2.5697
14180TIP3    H264032   1.565   4.265   2.339  2.4590 -2.2600  0.3699
14181TIP3   OH264033   6.266   2.956   4.437  0.3767  0.1145 -0.7426
14181TIP3    H164034   6.232   3.041   4.464  0.3482 -0.5930  1.7071
14181TIP3    H264035   6.190   2.898   4.439  0.4398 -0.0683 -2.1765
14182TIP3   OH264036   0.938   3.326   3.504 -0.1386  0.2282 -0.3150
14182TIP3    H164037   0.847   3.353   3.487  0.0141 -0.6159 -2.8665
14182TIP3    H264038   0.987   3.409   3.505 -0.7530  0.6007 -0.1572
14183TIP3   OH264039   2.375   6.143   5.953 -0.7082  0.2687 -0.1933
14183TIP3    H164040   2.396   6.089   6.029 -0.5778  0.5472 -0.0298
14183TIP3    H264041   2.328   6.218   5.989  0.4210  1.0276 -0.2269
14184TIP3   OH264042   6.043   3.857   6.410  0.7751  0.3999  0.3865
14184TIP3    H164043   5.978   3.926   6.421  2.2430  1.5159  3.0165
14184TIP3    H264044   6.125   3.897   6.440  2.6173 -1.1234 -2.2182
14185TIP3   OH264045   1.927   3.770   4.751  0.1560 -0.2060 -0.5442
14185TIP3    H164046   2.002   3.781   4.692  1.9002 -2.1770  1.0864
14185TIP3    H264047   1.879   3.852   4.746  2.5351  1.2246 -1.5759
14186TIP3   OH264048   0.393   5.756  14.659  0.8471  0.0800  0.0457
14186TIP3    H164049   0.437   5.826  14.611 -0.8272  1.9609  1.1331
14186TIP3    H264050   0.418   5.770  14.750 -0.3401 -0.0788  0.4098
14187TIP3   OH264051   6.589   4.075  12.110  0.6466  0.2370  0.6691
14187TIP3    H164052   6.643   4.154  12.113  1.0505 -0.0591  1.5212
14187TIP3    H264053   6.606   4.038  12.023  1.6602  0.2691  0.8398
14188TIP3   OH264054   4.981   4.942   3.390 -0.4905 -0.2912  0.1583
14188TIP3    H164055   4.901   4.934   3.443 -0.4027 -0.3157  0.2861
14188TIP3    H264056   4.983   4.862   3.337 -0.4639 -0.3658  0.2731
14189TIP3   OH264057   2.757   1.881   4.596 -0.4016  0.4626 -0.6163
14189TIP3    H164058   2.829   1.884   4.660  0.7080  0.1909 -1.8020
14189TIP3    H264059   2.684   1.925   4.640  0.9440  2.1441  0.0752
14190TIP3   OH264060   3.996   3.340   1.800 -0.2061  0.3232 -0.0753
14190TIP3    H164061   4.007   3.286   1.722  0.2378  1.3394 -0.7258
14190TIP3    H264062   4.022   3.428   1.773 -1.1434  0.9229  0.8983
14191TIP3   OH264063   3.388   6.112   4.405  0.8966  0.4999 -0.1064
14191TIP3    H164064   3.304   6.095   4.446  0.5395  1.1968 -0.5124
14191TIP3    H264065   3.443   6.038   4.429 -0.2917 -0.7567 -1.0880
14192TIP3   OH264066   0.376   4.497  12.382  0.6039  0.1889  1.0554
14192TIP3    H164067   0.315   4.547  12.436 -1.3952 -0.4570 -0.4787
14192TIP3    H264068   0.423   4.442  12.444  0.7123  1.7583  2.4405
14193TIP3   OH264069   1.947   5.861  15.850  0.3045 -0.2576  0.0143
14193TIP3    H164070   1.875   5.843  15.911 -0.4756  2.0045 -0.1467
14193TIP3    H264071   1.943   5.790  15.786 -2.1587  0.0548 -0.2771
14194TIP3   OH264072   4.426   3.214   4.652  0.2717 -0.0209 -0.0542
14194TIP3    H164073   4.341   3.207   4.608  0.0245 -0.4696  0.4830
14194TIP3    H264074   4.417   3.289   4.710 -0.4350 -1.2066  1.4309
14195TIP3   OH264075   4.507   5.179  16.033  0.5439  0.5112  0.2209
14195TIP3    H164076   4.599   5.203  16.018  0.3251  0.7907 -0.6791
14195TIP3    H264077   4.512   5.090  16.068  1.1140  0.1463 -0.7472
14196TIP3   OH264078   0.055   4.143  17.132 -0.0609  0.4614  0.2528
14196TIP3    H164079  -0.023   4.192  17.104  0.5082  1.1272 -0.1803
14196TIP3    H264080   0.125   4.174  17.075  0.3702 -0.6800  0.1245
14197TIP3   OH264081   4.958   0.682   5.297 -0.3480 -0.0880  0.1319
14197TIP3    H164082   4.908   0.602   5.282 -0.5430 -0.2018  1.2448
14197TIP3    H264083   4.927   0.743   5.230 -0.9160 -0.6307 -0.1096
14198TIP3   OH264084   6.334   6.454   6.509 -0.1836 -0.1066 -0.2525
14198TIP3    H164085   6.312   6.531   6.561 -0.1221 -0.0437 -0.3203
14198TIP3    H264086   6.377   6.394   6.571 -1.1957 -0.5357  0.0575
14199TIP3   OH264087   6.371   4.873   2.751  0.2465 -0.1576 -0.1333
14199TIP3    H164088   6.319   4.949   2.724  0.4624  0.5626  1.4026
14199TIP3    H264089   6.448   4.910   2.794  0.8764 -1.2407 -0.2875
14200TIP3   OH264090   6.360   2.141   4.446  0.3918 -0.6709  0.1554
14200TIP3    H164091   6.353   2.191   4.528  0.0881  0.6408 -0.6465
14200TIP3    H264092   6.452   2.113   4.443  0.1432 -1.7839  1.5103
14201TIP3   OH264093   2.214   6.492  14.016  0.0646 -0.2867 -0.8444
14201TIP3    H164094   2.286   6.554  14.008  0.3096 -0.2907  1.0001
14201TIP3    H264095   2.245   6.428  14.080 -1.3955 -0.5520 -0.3763
14202TIP3   OH264096   4.673   6.493   0.725  0.0634  0.1246 -0.0621
14202TIP3    H164097   4.720   6.575   0.706  2.1668 -0.4265  2.2013
14202TIP3    H264098   4.703   6.432   0.658 -0.9025  0.9313 -1.2824
14203TIP3   OH264099   3.602   4.949   4.705  0.2675  0.4683  0.0174
14203TIP3    H164100   3.695   4.972   4.696  0.4537 -0.2005  0.2318
14203TIP3    H264101   3.601   4.854   4.711 -0.4266  0.4797  0.1466
14204TIP3   OH264102   5.877   6.655  11.008 -0.5045  0.0047  0.4592
14204TIP3    H164103   5.872   6.730  11.067 -0.5431 -0.0327  0.5045
14204TIP3    H264104   5.786   6.641  10.981 -0.4830  0.0385  0.3703
14205TIP3   OH264105   1.462   6.697  11.900 -0.0177 -0.3180 -0.2691
14205TIP3    H164106   1.383   6.745  11.924 -0.4557 -0.2292 -1.7581
14205TIP3    H264107   1.531   6.764  11.898 -0.1076 -0.2152  0.0893
14206TIP3   OH264108   2.627   5.165  15.392  0.4942 -0.3743 -0.2365
14206TIP3    H164109   2.705   5.186  15.444  1.0036  1.7048 -1.6842
14206TIP3    H264110   2.654   5.178  15.301 -1.5045  0.4514 -0.7934
14207TIP3   OH264111   0.478   3.353  16.647  0.8266  0.0999  0.2051
14207TIP3    H164112   0.495   3.433  16.697 -0.1400 -0.3397  1.2786
14207TIP3    H264113   0.558   3.301  16.658  1.3068  0.7355 -0.1771
14208TIP3   OH264114   2.728   4.703  16.174 -0.1600  0.9756  0.3320
14208TIP3    H164115   2.724   4.788  16.130  1.6828  1.5318  1.1156
14208TIP3    H264116   2.686   4.718  16.259  1.1768  1.4580  0.9320
14209TIP3   OH264117   2.233   2.744   1.181 -0.1069  0.4117  0.0981
14209TIP3    H164118   2.140   2.744   1.159  0.3366  0.9358 -1.9344
14209TIP3    H264119   2.243   2.672   1.244 -1.9859  0.8615  0.9788
14210TIP3   OH264120   6.552   3.430  14.871  0.2792 -0.0406  0.2806
14210TIP3    H164121   6.485   3.427  14.802 -1.1617  1.4317  1.5292
14210TIP3    H264122   6.605   3.352  14.856 -1.8905 -1.4326 -0.6042
14211TIP3   OH264123   6.573   6.223  14.863  0.2497  0.4158  0.3101
14211TIP3    H164124   6.562   6.285  14.791  0.8998 -1.1283 -1.2247
14211TIP3    H264125   6.499   6.162  14.853 -2.2546  2.5890  3.7290
14212TIP3   OH264126   0.265   4.746   0.967  0.1546 -0.1238 -0.3754
14212TIP3    H164127   0.314   4.731   0.886 -0.5375  3.4160 -1.6196
14212TIP3    H264128   0.329   4.731   1.037  2.6976  2.6446 -1.8797
14213TIP3   OH264129   3.431   5.423   3.695 -0.6235 -0.1717  0.1010
14213TIP3    H164130   3.506   5.444   3.752 -0.2108 -3.2459  0.8450
14213TIP3    H264131   3.467   5.424   3.607 -0.2189  0.3924  0.2656
14214TIP3   OH264132   5.041   2.537  13.794 -0.5193  0.0053  0.6849
14214TIP3    H164133   4.996   2.621  13.792  0.2455  0.4436  1.3637
14214TIP3    H264134   5.134   2.560  13.795 -0.3076 -0.8323  1.3107
14215TIP3   OH264135   4.087   3.621  14.583  0.2836  0.2579 -0.3378
14215TIP3    H164136   4.182   3.617  14.571  0.4312  1.0154  0.4465
14215TIP3    H264137   4.074   3.690  14.649 -0.7530 -0.3824  0.1574
14216TIP3   OH264138   5.127   3.931   4.996  0.5904  0.0873  0.0048
14216TIP3    H164139   5.120   3.990   4.921  3.1689 -1.4252 -1.5344
14216TIP3    H264140   5.136   3.990   5.071  1.6446  1.6775 -1.3082
14217TIP3   OH264141   6.806   0.727  17.178 -0.2592 -0.1137  0.0662
14217TIP3    H164142   6.729   0.730  17.235 -2.5646  2.9328 -2.8161
14217TIP3    H264143   6.787   0.655  17.117 -0.3866  0.0879 -0.1303
14218TIP3   OH264144   0.597   2.784   0.686 -0.1937 -0.0252 -0.2802
14218TIP3    H164145   0.569   2.838   0.760 -2.0009  0.7935 -1.4740
14218TIP3    H264146   0.530   2.716   0.679  0.8300 -1.0689 -0.1934
14219TIP3   OH264147   1.696   2.927  16.694  0.2510 -0.4987 -0.6206
14219TIP3    H164148   1.659   2.932  16.606 -0.5355  0.5470 -0.2537
14219TIP3    H264149   1.650   2.995  16.743 -0.7303 -2.2923  1.1245
14220TIP3   OH264150   5.182   3.134  15.874  0.5450  0.0729  0.4153
14220TIP3    H164151   5.233   3.140  15.793  0.5873  1.4098  0.5219
14220TIP3    H264152   5.248   3.135  15.943  0.5374 -1.5368  0.4859
14221TIP3   OH264153   1.127   5.395  15.428 -0.0434 -0.3040  0.0436
14221TIP3    H164154   1.042   5.421  15.391 -0.5397  0.0886  1.3935
14221TIP3    H264155   1.191   5.426  15.365 -0.8654  0.2729 -0.5342
14222TIP3   OH264156   6.316   4.766   3.538  0.4419 -0.2639 -0.1414
14222TIP3    H164157   6.269   4.793   3.458  0.4285  1.5996  0.4405
14222TIP3    H264158   6.365   4.844   3.564  0.7827 -0.9738  1.4451
14223TIP3   OH264159   3.493   2.065   2.045 -0.3142  0.5381  0.3594
14223TIP3    H164160   3.426   2.030   1.987  1.7417 -0.3399 -1.6490
14223TIP3    H264161   3.544   2.125   1.990  2.1834 -0.9004  0.9580
14224TIP3   OH264162   0.444   6.474   0.076  0.1307  0.1595  0.0242
14224TIP3    H164163   0.438   6.440  -0.013 -0.0717  0.3396 -0.0311
14224TIP3    H264164   0.537   6.483   0.093  0.1575  2.4872 -1.0647
14225TIP3   OH264165   3.015   1.706   4.018 -0.0792  0.1309  0.0366
14225TIP3    H164166   2.980   1.636   3.964 -1.3825  0.7867 -0.0086
14225TIP3    H264167   2.951   1.717   4.089  1.4854 -0.5641  1.6198
14226TIP3   OH264168   4.544   3.494   4.211 -0.5014  0.0656 -0.1061
14226TIP3    H164169   4.476   3.481   4.277  0.1203  0.3372  0.6056
14226TIP3    H264170   4.605   3.421   4.226 -0.4373  0.0443 -0.4757
14227TIP3   OH264171   1.585   1.151   0.944 -0.5257 -0.2141 -0.2825
14227TIP3    H164172   1.663   1.205   0.958  0.4310 -1.5459 -0.2885
14227TIP3    H264173   1.538   1.155   1.028 -0.6453  0.8601 -0.3840
14228TIP3   OH264174   5.299   6.563  13.773  0.0573 -0.2617  0.2379
14228TIP3    H164175   5.258   6.568  13.859  0.6228 -0.7147  0.5420
14228TIP3    H264176   5.272   6.478  13.739 -0.6453  0.1644 -0.2859
14229TIP3   OH264177   3.214   4.361   5.981 -0.7348  0.2352 -0.4090
14229TIP3    H164178   3.121   4.339   5.970 -1.8506  2.8525  2.2914
14229TIP3    H264179   3.230   4.351   6.075  2.4037 -2.1360 -1.0377
14230TIP3   OH264180   0.721   2.395  14.454 -0.2990 -0.1255  0.0371
14230TIP3    H164181   0.748   2.328  14.391  1.5207 -1.2923  1.9077
14230TIP3    H264182   0.737   2.478  14.410  1.6708 -0.8976 -0.8121
14231TIP3   OH264183   0.824   6.832  12.252  0.3191 -0.3857  0.8492
14231TIP3    H164184   0.752   6.829  12.315  0.3684 -3.1148  0.8655
14231TIP3    H264185   0.877   6.755  12.271  0.0100 -1.7286 -2.8774
14232TIP3   OH264186   3.427   0.332   4.021  0.1371  0.6378 -0.3460
14232TIP3    H164187   3.460   0.269   3.957  1.1832  1.2072 -0.3764
14232TIP3    H264188   3.336   0.346   3.995  0.6710  1.2311 -2.0320
14233TIP3   OH264189   1.518   4.009   4.753  0.1500 -0.2404 -0.1791
14233TIP3    H164190   1.441   3.995   4.698  1.2183 -0.2348 -1.7376
14233TIP3    H264191   1.507   4.099   4.786 -0.5014 -0.2354 -0.3932
14234TIP3   OH264192   2.183   6.016  14.729 -0.1369 -0.0021  0.3355
14234TIP3    H164193   2.135   5.946  14.684 -0.5967  0.2277  0.4568
14234TIP3    H264194   2.118   6.055  14.788  0.3822 -0.1170  0.9959
14235TIP3   OH264195   1.389   2.318   0.158 -0.7744 -0.4095  0.7788
14235TIP3    H164196   1.346   2.396   0.123 -0.1911  0.2323  1.4568
14235TIP3    H264197   1.398   2.336   0.252  2.1887  0.0832  0.4919
14236TIP3   OH264198   2.123   3.577   2.975 -0.2312 -0.5381  0.5110
14236TIP3    H164199   2.094   3.643   2.912  2.3134 -0.6344 -0.9142
14236TIP3    H264200   2.126   3.623   3.059 -1.2824  0.3118  0.1071
14237TIP3   OH264201   2.495   4.587  16.860  0.2191 -0.3448  0.3577
14237TIP3    H164202   2.430   4.532  16.906 -1.0322  1.2874  0.6267
14237TIP3    H264203   2.494   4.670  16.907 -0.2114  0.9783 -1.8572
14238TIP3   OH264204   0.627   5.668   5.193 -0.0232  0.3651 -0.4704
14238TIP3    H164205   0.715   5.660   5.228 -0.4528 -0.0226  0.5645
14238TIP3    H264206   0.577   5.709   5.263 -1.1309 -1.3284 -0.2096
14239TIP3   OH264207   3.030   2.897   5.095 -0.4543  0.5312 -0.3918
14239TIP3    H164208   3.010   2.936   5.180 -0.5051  0.0229 -0.1678
14239TIP3    H264209   2.944   2.890   5.051 -0.3698  1.2284 -0.6770
14240TIP3   OH264210   4.005   1.074  13.558 -0.0700 -0.5349  0.2073
14240TIP3    H164211   4.054   1.112  13.630 -1.5122 -0.1172  1.0175
14240TIP3    H264212   3.925   1.041  13.598 -0.6206 -0.8576 -1.1025
14241TIP3   OH264213   1.262   1.212   4.611 -0.4775  0.0157  0.5428
14241TIP3    H164214   1.181   1.171   4.579 -0.4449 -0.4719  1.0598
14241TIP3    H264215   1.299   1.256   4.535 -1.0432 -0.0702  0.2135
14242TIP3   OH264216   4.921   0.765  12.682  0.2865 -0.4466  0.2704
14242TIP3    H164217   4.856   0.707  12.722  0.3010 -0.7684 -0.1649
14242TIP3    H264218   4.968   0.802  12.756 -0.9205  0.4177  0.6425
14243TIP3   OH264219   4.443   0.341  13.555 -0.1830  0.4744  0.3324
14243TIP3    H164220   4.396   0.388  13.624 -1.9912  1.1919 -1.2802
14243TIP3    H264221   4.375   0.290  13.510  1.1550 -1.0129 -0.1145
14244TIP3   OH264222   6.632   1.680   4.151 -0.3611 -0.2994  0.4326
14244TIP3    H164223   6.549   1.722   4.173  0.0705  0.7263  0.1168
14244TIP3    H264224   6.692   1.708   4.220 -0.1377 -0.6510  0.3859
14245TIP3   OH264225   2.135   0.444   4.828 -0.0757  0.0811  0.5283
14245TIP3    H164226   2.101   0.451   4.738 -0.7728  1.5464  0.8788
14245TIP3    H264227   2.078   0.379   4.869  0.5912 -1.0198 -0.2111
14246TIP3   OH264228   1.820   2.192  13.135  0.1646 -0.1512  0.2343
14246TIP3    H164229   1.805   2.171  13.227 -0.4259 -0.7009  0.0147
14246TIP3    H264230   1.734   2.214  13.101  0.1578 -1.2982 -0.5242
14247TIP3   OH264231   3.340   4.710  16.636  0.2133  0.2463  0.4262
14247TIP3    H164232   3.334   4.668  16.551  0.7743  2.9024 -1.0432
14247TIP3    H264233   3.250   4.712  16.669 -0.0754 -0.4073 -0.2900
14248TIP3   OH264234   6.413   1.204   0.677  0.1897 -0.5018 -0.4977
14248TIP3    H164235   6.435   1.118   0.712 -1.2829 -0.9175 -0.5163
14248TIP3    H264236   6.318   1.211   0.687 -0.0209  0.2363 -2.4258
14249TIP3   OH264237   4.117   3.921   0.422  0.3394  0.6046 -0.1269
14249TIP3    H164238   4.160   3.946   0.340 -0.7590  0.8400 -0.6536
14249TIP3    H264239   4.045   3.864   0.395  0.7535 -0.3748  0.7945
14250TIP3   OH264240   2.191   5.601   2.322  0.3772 -0.1776 -0.2684
14250TIP3    H164241   2.101   5.602   2.353  0.5118  1.8809  0.2433
14250TIP3    H264242   2.215   5.694   2.316  1.4690 -0.5432 -3.4116
14251TIP3   OH264243   2.737   2.712  16.501  0.2174  0.4841  0.6541
14251TIP3    H164244   2.751   2.633  16.449 -0.2837  0.3423  0.7318
14251TIP3    H264245   2.795   2.702  16.577 -0.8762 -0.4694  1.3804
14252TIP3   OH264246   4.647   6.821   4.432 -0.1497  0.1730  0.9764
14252TIP3    H164247   4.691   6.898   4.468  0.5670  0.3401 -0.2163
14252TIP3    H264248   4.677   6.816   4.342 -0.4691 -1.3078  0.9306
14253TIP3   OH264249   3.720   5.621   4.066 -0.1854  0.0180  0.5938
14253TIP3    H164250   3.671   5.575   3.999  0.9147 -0.2091 -0.0683
14253TIP3    H264251   3.695   5.713   4.056  0.1953  0.0235 -0.3180
14254TIP3   OH264252   0.165   3.839  14.955 -0.0431  0.2439  0.8847
14254TIP3    H164253   0.084   3.868  14.997  0.3741 -0.5692  2.3199
14254TIP3    H264254   0.213   3.794  15.024  0.7995 -0.9449 -0.4176
14255TIP3   OH264255   0.091   2.282  16.865 -0.2055 -0.0108 -0.1248
14255TIP3    H164256   0.088   2.259  16.957  0.0374 -2.1504 -0.6072
14255TIP3    H264257   0.069   2.375  16.863 -0.3966  0.0396  2.0515
14256TIP3   OH264258   0.812   5.806   1.473 -0.1006  0.1771  0.2082
14256TIP3    H164259   0.833   5.713   1.463  2.1831  0.7320 -0.8347
14256TIP3    H264260   0.866   5.850   1.407  1.7756  2.5391  3.0186
14257TIP3   OH264261   1.871   1.171   2.858  0.2471  0.0079 -0.1887
14257TIP3    H164262   1.794   1.215   2.894  0.9432  0.6110  0.5756
14257TIP3    H264263   1.871   1.195   2.765 -0.3857  0.1332 -0.1595
14258TIP3   OH264264   3.610   1.891   5.365 -0.5144  0.3070 -0.2186
14258TIP3    H164265   3.638   1.929   5.449  0.2986  1.1603 -0.8563
14258TIP3    H264266   3.668   1.815   5.354 -0.4601  0.3329 -0.1210
14259TIP3   OH264267   3.555   0.360   5.336  0.5417  0.4563  0.5102
14259TIP3    H164268   3.544   0.396   5.424  0.4298  1.3081  0.1537
14259TIP3    H264269   3.505   0.418   5.279 -0.0796 -0.5682 -0.0256
14260TIP3   OH264270   6.515   2.951   4.930  0.1528 -0.0148  0.2707
14260TIP3    H164271   6.534   2.945   5.024  0.2408  1.0065  0.3217
14260TIP3    H264272   6.492   2.861   4.905 -0.0909 -0.2587  1.3166
14261TIP3   OH264273   4.468   6.208   0.695 -0.5049 -0.1861 -0.5568
14261TIP3    H164274   4.467   6.213   0.790 -0.2388 -0.8088 -0.5143
14261TIP3    H264275   4.426   6.124   0.675 -1.4647  0.3926 -1.0295
14262TIP3   OH264276   0.351   2.464  15.466 -0.0809 -0.3382 -0.0891
14262TIP3    H164277   0.319   2.552  15.486  0.1567 -0.1734 -0.4223
14262TIP3    H264278   0.299   2.436  15.391  0.2838 -0.2221 -0.3899
14263TIP3   OH264279   3.783   4.855   1.860  0.2945  0.4564  0.6540
14263TIP3    H164280   3.778   4.837   1.766  1.0454  1.4536  0.3983
14263TIP3    H264281   3.703   4.904   1.880 -0.1288 -0.2275  0.6555
14264TIP3   OH264282   5.146   1.445   0.605 -0.1400 -0.1735  0.1091
14264TIP3    H164283   5.069   1.409   0.649  0.2757  0.2479  1.2055
14264TIP3    H264284   5.130   1.540   0.603 -0.2424 -0.2042 -0.8339
14265TIP3   OH264285   1.376   4.342  14.478  0.2316 -0.1620  0.3470
14265TIP3    H164286   1.396   4.435  14.490  1.9916 -0.4328 -0.1157
14265TIP3    H264287   1.350   4.334  14.386 -0.2629 -0.0702  0.4806
14266TIP3   OH264288   4.198   4.778  11.734 -0.2047 -0.0609  0.0235
14266TIP3    H164289   4.242   4.704  11.776 -0.3548  0.9704  2.1216
14266TIP3    H264290   4.207   4.850  11.797 -2.2088  1.0227 -0.8426
14267TIP3   OH264291   1.226   5.662  11.937 -0.1980  0.0385 -0.3302
14267TIP3    H164292   1.227   5.735  11.875  1.5008  1.4033  1.1565
14267TIP3    H264293   1.190   5.699  12.017  3.5169  0.3290  1.4496
14268TIP3   OH264294   2.369   1.930   2.201  0.3330  0.2850 -0.1382
14268TIP3    H164295   2.377   1.835   2.207 -0.9533  0.2205  0.9935
14268TIP3    H264296   2.289   1.951   2.250  0.5501  1.9424 -0.4281
14269TIP3   OH264297   3.291   4.847  12.321  0.0293  0.6674  0.3205
14269TIP3    H164298   3.263   4.862  12.230  0.3399  2.3241  0.4555
14269TIP3    H264299   3.378   4.888  12.325 -0.1090  0.8627  1.4390
14270TIP3   OH264300   2.156   5.215   2.382  0.2286 -0.1842 -0.3321
14270TIP3    H164301   2.221   5.153   2.349  3.0929  0.4552  3.3611
14270TIP3    H264302   2.169   5.295   2.331  2.3927 -0.1266  0.2300
14271TIP3   OH264303   2.440   5.600   5.447  0.2022 -0.2639  0.0089
14271TIP3    H164304   2.361   5.555   5.476 -0.7949 -0.6820 -2.9617
14271TIP3    H264305   2.485   5.536   5.391  1.8493  0.5153  0.3686
14272TIP3   OH264306   0.333   5.691   3.461 -0.2595 -0.1136  0.0824
14272TIP3    H164307   0.295   5.769   3.422  0.0927  0.1257  0.2111
14272TIP3    H264308   0.364   5.720   3.547 -0.2542 -0.4277  0.1882
14273TIP3   OH264309   1.953   3.330   3.944  0.3243  0.3630 -0.7932
14273TIP3    H164310   1.886   3.357   3.881  0.8002  1.1576 -0.9794
14273TIP3    H264311   2.029   3.309   3.890  0.2562 -0.4559 -0.5792
14274TIP3   OH264312   5.329   2.037  11.257  0.1831 -0.3851 -0.2050
14274TIP3    H164313   5.247   2.082  11.277  0.1911  0.4039 -1.7470
14274TIP3    H264314   5.387   2.106  11.224  1.7667 -0.7915  1.5651
14275TIP3   OH264315   3.842   3.090   0.204  0.0759 -0.1404 -0.5346
14275TIP3    H164316   3.820   3.141   0.126  0.9444 -1.2751 -1.5435
14275TIP3    H264317   3.817   3.000   0.183  0.6998 -0.5363  0.3364
14276TIP3   OH264318   5.784   6.724   4.827  0.2457 -0.2550 -0.3884
14276TIP3    H164319   5.739   6.642   4.808 -0.6582  0.5785 -2.0362
14276TIP3    H264320   5.818   6.713   4.916 -1.5731 -1.6481  0.1898
14277TIP3   OH264321   3.501   3.543   1.007 -0.0063 -0.0711  0.6953
14277TIP3    H164322   3.591   3.520   1.030 -0.2553 -1.7806  0.0710
14277TIP3    H264323   3.507   3.570   0.915 -0.2966 -1.3670  0.2803
14278TIP3   OH264324   2.361   4.050  17.096  0.3372 -0.0933 -0.0149
14278TIP3    H164325   2.366   4.134  17.051 -1.3397  1.0980  1.8523
14278TIP3    H264326   2.451   4.032  17.123  0.6849  1.2281 -0.2092
14279TIP3   OH264327   6.257   4.099  14.605 -0.0590  0.5395 -0.5522
14279TIP3    H164328   6.329   4.154  14.574 -0.1709  0.1247 -1.6165
14279TIP3    H264329   6.180   4.155  14.601  0.0501  0.7118 -0.2882
14280TIP3   OH264330   1.926   0.033   0.648  0.1144  0.1916  0.1314
14280TIP3    H164331   1.851   0.093   0.641  0.0947  0.1195 -0.3001
14280TIP3    H264332   2.003   0.090   0.635  0.0527 -0.0642 -1.6221
14281TIP3   OH264333   3.724   6.535  13.110  0.1601  0.2483 -0.1256
14281TIP3    H164334   3.678   6.617  13.127  0.4682  0.7059 -1.3819
14281TIP3    H264335   3.778   6.521  13.187 -2.8689 -0.9242  1.9869
14282TIP3   OH264336   2.687   2.128  11.970 -0.0704 -0.1838  0.1745
14282TIP3    H164337   2.693   2.037  11.998 -1.4799  0.6436  3.6014
14282TIP3    H264338   2.601   2.134  11.928  0.1998 -0.4997 -0.4353
14283TIP3   OH264339   6.435   1.781  15.181  0.2235  0.4003  0.2309
14283TIP3    H164340   6.404   1.871  15.180  1.7043  0.9434  0.9110
14283TIP3    H264341   6.513   1.782  15.236  0.2750 -1.3018  0.2638
14284TIP3   OH264342   1.551   0.871   0.796  0.4821  0.0035  0.1820
14284TIP3    H164343   1.524   0.929   0.867 -1.4090 -0.6434  0.0478
14284TIP3    H264344   1.487   0.886   0.727  0.0109 -2.1011  0.0864
14285TIP3   OH264345   3.381   5.424   6.203  0.1665  0.2296 -0.0802
14285TIP3    H164346   3.332   5.502   6.226 -0.8741 -0.1379 -0.9448
14285TIP3    H264347   3.448   5.416   6.271  2.7973  3.9293 -1.8861
14286TIP3   OH264348   2.009   5.093  16.267 -0.1565  0.1441 -0.3931
14286TIP3    H164349   2.034   5.039  16.193  1.1028 -0.7787  0.6695
14286TIP3    H264350   2.081   5.086  16.329 -1.2835  0.6596  1.0584
14287TIP3   OH264351   2.858   0.133  16.526 -0.2398 -0.0716  0.2886
14287TIP3    H164352   2.872   0.215  16.573 -1.2049 -0.2510  0.9288
14287TIP3    H264353   2.770   0.105  16.553 -1.3529  0.4301 -2.5435
14288TIP3   OH264354   3.066   0.571   4.173  0.3723  0.0321  0.2568
14288TIP3    H164355   2.984   0.589   4.126  0.4115 -1.0996 -0.2702
14288TIP3    H264356   3.038   0.546   4.261  0.2513  1.2030  0.5752
14289TIP3   OH264357   6.185   0.848  16.298  0.1417  0.8729  0.2452
14289TIP3    H164358   6.190   0.935  16.258 -1.9731 -0.3262 -3.0053
14289TIP3    H264359   6.236   0.791  16.241 -1.8822 -0.6853 -0.1618
14290TIP3   OH264360   1.651   4.641  13.942  0.1161  0.2113 -0.4119
14290TIP3    H164361   1.725   4.697  13.964 -1.2339  1.2783  1.7195
14290TIP3    H264362   1.653   4.636  13.846  0.6645  3.4148 -0.6742
14291TIP3   OH264363   1.282   2.944   0.102  0.1098  0.1417 -0.0317
14291TIP3    H164364   1.288   2.889   0.180 -1.0071 -1.5074 -1.0630
14291TIP3    H264365   1.306   3.032   0.134 -0.6126 -0.3993  2.2246
14292TIP3   OH264366   1.304   3.039  12.081  0.0467 -0.7380 -0.2427
14292TIP3    H164367   1.285   3.094  12.005  1.6426 -1.2747 -1.0804
14292TIP3    H264368   1.399   3.023  12.075 -0.0437 -1.9309  1.0911
14293TIP3   OH264369   2.405   6.404   3.119 -0.3087  0.2569 -0.6891
14293TIP3    H164370   2.380   6.323   3.075 -0.9553  0.4178 -0.6375
14293TIP3    H264371   2.498   6.394   3.139 -0.4479 -0.5626 -0.4590
14294TIP3   OH264372   5.430   1.386   2.218 -0.3406  0.3679 -0.6866
14294TIP3    H164373   5.402   1.345   2.136 -1.9277  0.2294 -0.1102
14294TIP3    H264374   5.390   1.473   2.216  1.2078  1.1099 -0.9060
14295TIP3   OH264375   1.061   1.781   0.704 -0.6670  0.2016  0.4383
14295TIP3    H164376   1.114   1.730   0.643 -0.2206 -0.9515  1.7288
14295TIP3    H264377   0.984   1.807   0.653 -0.9970 -1.9268 -0.2336
14296TIP3   OH264378   6.145   0.885   3.021 -0.1151 -0.5646  0.5008
14296TIP3    H164379   6.056   0.917   3.003  0.5147  0.9774 -0.0474
14296TIP3    H264380   6.202   0.947   2.975  1.2822 -0.9098  1.7014
14297TIP3   OH264381   0.096   6.618  11.792 -0.4390 -0.5313 -0.3873
14297TIP3    H164382   0.044   6.645  11.716  0.3378 -0.8143 -1.0241
14297TIP3    H264383   0.064   6.673  11.864 -2.2984 -1.3398 -0.5235
14298TIP3   OH264384   3.895   1.430   4.401 -0.6073 -0.2225  0.3621
14298TIP3    H164385   3.900   1.497   4.332 -0.0610 -0.8879 -0.2605
14298TIP3    H264386   3.949   1.466   4.472 -0.5449  0.1204  0.1460
14299TIP3   OH264387   2.325   5.418  12.889  0.0166 -0.2307  0.7579
14299TIP3    H164388   2.421   5.420  12.880  0.3584 -0.7766  3.4311
14299TIP3    H264389   2.308   5.465  12.971 -2.0549  0.0297  0.2260
14300TIP3   OH264390   2.701   0.280  10.747  0.4228  0.3576  0.0052
14300TIP3    H164391   2.615   0.240  10.737  1.1536 -1.3508  0.1848
14300TIP3    H264392   2.698   0.324  10.832 -0.1803  0.0456  0.1469
14301TIP3   OH264393   4.121   4.494   5.198  0.2433  0.0334 -0.4793
14301TIP3    H164394   4.061   4.422   5.178 -0.4514  0.4290  0.1150
14301TIP3    H264395   4.159   4.471   5.283 -0.7583  0.8425  0.2108
14302TIP3   OH264396   1.535   1.672   0.749 -0.0710 -0.1382  0.2472
14302TIP3    H164397   1.443   1.650   0.746  0.2730 -1.6152  0.1143
14302TIP3    H264398   1.581   1.593   0.721  1.2009  0.9248 -0.8632
14303TIP3   OH264399   4.296   3.398  13.430  0.3632 -0.0682 -0.5350
14303TIP3    H164400   4.287   3.304  13.420  1.0437 -0.4335  1.6756
14303TIP3    H264401   4.299   3.412  13.525  0.4971  2.1504 -0.8036
14304TIP3   OH264402   3.764   2.602  12.194  0.9994 -0.4141  0.0761
14304TIP3    H164403   3.800   2.662  12.128 -0.8602 -0.0853 -0.7004
14304TIP3    H264404   3.749   2.658  12.270  1.0633 -0.3063  0.0104
14305TIP3   OH264405   0.714   6.123   0.385  0.1177  0.3237 -0.1664
14305TIP3    H164406   0.684   6.045   0.431  0.4634  0.3913  0.1745
14305TIP3    H264407   0.634   6.171   0.365 -0.0479  0.1926  0.1793
14306TIP3   OH264408   5.168   5.699   5.580  0.2434  0.8904  0.4183
14306TIP3    H164409   5.095   5.644   5.608  0.5922  0.2794  0.1366
14306TIP3    H264410   5.168   5.772   5.642 -0.2748  0.6220  0.7418
14307TIP3   OH264411   6.734   2.163  13.522  0.3996 -0.2064 -0.2451
14307TIP3    H164412   6.713   2.075  13.551 -0.4649  0.3360  0.8504
14307TIP3    H264413   6.652   2.199  13.488  0.8465  0.0332 -1.1333
14308TIP3   OH264414   4.745   1.517  11.744  0.1080  0.0470  0.1239
14308TIP3    H164415   4.837   1.540  11.756  0.0899  0.6614 -0.7817
14308TIP3    H264416   4.721   1.559  11.662 -0.6507 -1.1181 -0.2758
14309TIP3   OH264417   3.839   3.494  10.901 -0.0166 -0.4983  0.1295
14309TIP3    H164418   3.760   3.457  10.862 -0.0699 -0.6394  0.3753
14309TIP3    H264419   3.808   3.574  10.944  0.0607 -0.2846 -0.2095
14310TIP3   OH264420   2.841   6.491   2.929 -0.0955 -0.0603  0.3085
14310TIP3    H164421   2.763   6.488   2.874  0.3178 -0.7610 -0.2518
14310TIP3    H264422   2.906   6.439   2.882  1.2352  1.8050 -0.0464
14311TIP3   OH264423   6.459   1.585  11.949 -0.1205 -0.5477  0.3690
14311TIP3    H164424   6.376   1.578  11.996 -0.6620  2.3844  0.0302
14311TIP3    H264425   6.519   1.529  11.998 -1.8063 -1.2771  1.7209
14312TIP3   OH264426   3.358   6.683  14.604  0.2603 -0.8932 -0.3467
14312TIP3    H164427   3.267   6.665  14.626  0.4882  0.1867  1.7733
14312TIP3    H264428   3.408   6.627  14.664  0.9829 -0.6034 -0.6670
14313TIP3   OH264429   1.370   3.033   5.449  0.3791 -0.0902 -0.0736
14313TIP3    H164430   1.282   3.034   5.486  0.2607 -0.3481 -0.3474
14313TIP3    H264431   1.425   3.067   5.519  0.2020 -0.9065  0.4778
14314TIP3   OH264432   2.409   0.299   4.046 -0.2394 -0.3858  0.1915
14314TIP3    H164433   2.418   0.290   3.951 -0.4974  0.4003  0.0843
14314TIP3    H264434   2.485   0.252   4.082  1.1471  1.2326 -0.4905
14315TIP3   OH264435   2.718   3.024  13.903 -0.0008 -0.3756 -0.0896
14315TIP3    H164436   2.750   3.017  13.993  0.2071  0.0004 -0.1339
14315TIP3    H264437   2.703   3.118  13.890 -0.0349 -0.4292 -0.4470
14316TIP3   OH264438   1.500   0.428   2.195  0.5405 -0.1410 -0.2658
14316TIP3    H164439   1.458   0.374   2.127 -2.8159  1.2559  0.5199
14316TIP3    H264440   1.445   0.415   2.272  0.6746  2.9526  0.4466
14317TIP3   OH264441   5.375   5.464  15.155  0.3226 -0.0731 -0.0759
14317TIP3    H164442   5.414   5.514  15.083 -2.0992  0.2811 -1.2496
14317TIP3    H264443   5.393   5.517  15.233  0.3942  1.1127 -0.8642
14318TIP3   OH264444   2.250   3.012  13.832 -0.7096 -0.1511 -0.1114
14318TIP3    H164445   2.161   2.977  13.821 -0.1972 -1.2837 -0.8449
14318TIP3    H264446   2.261   3.018  13.927 -1.8309  0.7406 -0.0093
14319TIP3   OH264447   3.989   6.104   0.138 -0.6990  0.3874 -0.4519
14319TIP3    H164448   3.920   6.108   0.072 -0.0241  1.6209 -1.1099
14319TIP3    H264449   4.001   6.194   0.166 -1.4488 -0.1816  1.9063
14320TIP3   OH264450   0.552   5.205   0.117  0.3112  0.3115 -0.0756
14320TIP3    H164451   0.458   5.195   0.099 -0.4501  0.0930  3.2972
14320TIP3    H264452   0.594   5.136   0.066 -1.3970  0.1877 -1.3938
14321TIP3   OH264453   6.821   4.319   3.812 -0.4675  0.5590 -0.0691
14321TIP3    H164454   6.864   4.352   3.891 -0.3854  0.9731 -0.2838
14321TIP3    H264455   6.816   4.395   3.754 -0.0362  0.1280 -0.6802
14322TIP3   OH264456   1.525   4.623  12.689 -0.1425 -0.3058  0.1987
14322TIP3    H164457   1.437   4.585  12.691 -0.6355  0.7504 -0.5757
14322TIP3    H264458   1.513   4.710  12.652  0.9970  0.5151  1.6336
14323TIP3   OH264459   6.807   1.694  16.557 -0.5135 -0.0061  0.1675
14323TIP3    H164460   6.741   1.641  16.601  0.9754 -1.0614  1.2074
14323TIP3    H264461   6.798   1.781  16.596 -2.6043  0.4457 -1.1583
14324TIP3   OH264462   1.387   4.488  10.789 -0.3940 -0.3679  0.2209
14324TIP3    H164463   1.346   4.556  10.736  1.9019  1.7952  1.0331
14324TIP3    H264464   1.397   4.414  10.730  0.4044  1.3073 -1.8724
14325TIP3   OH264465   4.850   1.698  16.851 -0.0626 -0.7648 -0.1673
14325TIP3    H164466   4.773   1.663  16.805  0.4844 -0.8240 -1.0528
14325TIP3    H264467   4.924   1.670  16.798  0.6759 -1.7070  1.2830
14326TIP3   OH264468   3.573   1.165  10.767  0.7692  0.4972  0.4379
14326TIP3    H164469   3.496   1.127  10.725  0.5920 -0.2621  1.4297
14326TIP3    H264470   3.645   1.150  10.704  0.1533  1.1205 -0.4454
14327TIP3   OH264471   4.929   6.198   1.449 -0.6086 -0.0185 -0.3955
14327TIP3    H164472   4.939   6.260   1.377  0.6176  0.7844  0.4350
14327TIP3    H264473   4.946   6.249   1.528  0.1703 -1.3415  0.3308
14328TIP3   OH264474   4.216   2.913  16.498 -0.1119 -0.3424  0.2354
14328TIP3    H164475   4.267   2.981  16.542  0.2818 -0.8470  0.5563
14328TIP3    H264476   4.137   2.959  16.468  0.5378  0.4569 -0.3138
14329TIP3   OH264477   1.190   3.125  13.633  0.2916 -0.1348 -0.1620
14329TIP3    H164478   1.123   3.061  13.609  0.0967  0.2982 -0.7924
14329TIP3    H264479   1.183   3.194  13.567 -0.0169  0.9199  0.9229
14330TIP3   OH264480   5.461   5.789   5.812  0.1669 -0.8814 -0.1647
14330TIP3    H164481   5.468   5.790   5.908 -0.5643 -0.0257 -0.1045
14330TIP3    H264482   5.496   5.704   5.787  0.8772 -0.9053  0.8209
14331TIP3   OH264483   0.445   6.021   2.821  0.3860 -0.3329  0.1955
14331TIP3    H164484   0.375   5.973   2.776  0.0473 -1.2098  1.5608
14331TIP3    H264485   0.480   5.957   2.884  2.0626  0.2661 -0.0942
14332TIP3   OH264486   5.993   3.562  11.479  0.0883  0.0564  0.0517
14332TIP3    H164487   5.946   3.642  11.502 -2.1310 -0.8398 -1.0511
14332TIP3    H264488   6.012   3.572  11.385  0.0679 -0.5702 -0.0248
14333TIP3   OH264489   2.641   3.302  13.821 -0.0389  0.4386 -0.0254
14333TIP3    H164490   2.571   3.362  13.798  1.6626  2.2087 -0.7934
14333TIP3    H264491   2.687   3.284  13.739  0.6088 -0.4268  0.5002
14334TIP3   OH264492   2.704   5.187  12.030  0.2605 -0.3804  0.1233
14334TIP3    H164493   2.684   5.192  11.936 -0.6033  0.9424  0.3498
14334TIP3    H264494   2.619   5.182  12.072  0.5394  0.9272  0.9095
14335TIP3   OH264495   2.028   0.552   4.572 -0.0796  0.2864 -0.1728
14335TIP3    H164496   2.115   0.555   4.531 -0.9757 -0.5603 -2.3014
14335TIP3    H264497   1.975   0.613   4.521 -0.4681  1.8064  1.9460
14336TIP3   OH264498   1.375   3.349  15.535 -0.1746  0.4619 -0.2117
14336TIP3    H164499   1.461   3.392  15.541 -0.4348  1.0067 -0.3943
14336TIP3    H264500   1.313   3.415  15.564 -0.6872  0.5901 -1.5170
14337TIP3   OH264501   1.944   1.593  14.770  0.1768  0.2523 -0.0501
14337TIP3    H164502   1.915   1.663  14.712 -0.3591 -1.2556 -1.6597
14337TIP3    H264503   1.962   1.519  14.712 -0.5929 -1.3895  1.7070
14338TIP3   OH264504   4.036   1.226   4.185  0.1793  0.3559  0.2188
14338TIP3    H164505   3.974   1.200   4.253 -0.8478 -0.5282 -1.0096
14338TIP3    H264506   3.988   1.288   4.130  0.5248  0.0265 -0.4777
14339TIP3   OH264507   2.800   2.622  11.110 -0.1931  0.2533 -0.0358
14339TIP3    H164508   2.811   2.566  11.187 -1.7767 -1.0245 -0.6924
14339TIP3    H264509   2.827   2.566  11.037  0.3735  1.1372 -0.5198
14340TIP3   OH264510   0.187   6.560  15.181  0.1404 -0.0891  0.0702
14340TIP3    H164511   0.196   6.465  15.172 -1.2925 -0.2525  0.1027
14340TIP3    H264512   0.178   6.592  15.091 -0.0892 -0.0765  0.0956
14341TIP3   OH264513   0.665   6.277  10.857  0.0717  0.9093 -0.1930
14341TIP3    H164514   0.678   6.292  10.764  0.1046 -1.8698 -0.7264
14341TIP3    H264515   0.626   6.358  10.890  0.3306  2.0607 -2.5373
14342TIP3   OH264516   0.954   5.897   3.289  0.0462  0.0091  0.0512
14342TIP3    H164517   0.995   5.947   3.218 -1.2936  0.4419 -0.4485
14342TIP3    H264518   0.878   5.949   3.314  0.4485 -0.1786  1.7740
14343TIP3   OH264519   1.160   3.025   1.161 -0.0131 -0.3299 -0.3889
14343TIP3    H164520   1.134   3.054   1.074 -0.1775 -0.2234 -0.3053
14343TIP3    H264521   1.145   3.101   1.217  2.1083  0.3007 -0.6242
14344TIP3   OH264522   1.921   6.397   4.228 -0.3713 -0.1775 -0.0209
14344TIP3    H164523   1.982   6.428   4.162  1.3827 -1.8909  0.6826
14344TIP3    H264524   1.858   6.343   4.179  0.7552 -1.2208 -0.3667
14345TIP3   OH264525   6.417   5.505   3.129  0.2657  0.4261  0.2334
14345TIP3    H164526   6.475   5.505   3.053 -1.3243  0.3177 -1.0244
14345TIP3    H264527   6.413   5.597   3.156  1.8181  0.2990  1.0099
14346TIP3   OH264528   3.546   2.670   5.504  0.4328  0.1520 -0.4686
14346TIP3    H164529   3.507   2.629   5.581  0.5162  0.4840 -0.2459
14346TIP3    H264530   3.536   2.764   5.519 -0.2940  0.2042 -1.2562
14347TIP3   OH264531   6.007   0.711   5.501  0.0645  0.0673 -0.1359
14347TIP3    H164532   5.925   0.741   5.461 -0.1634  0.7254  0.7872
14347TIP3    H264533   5.992   0.718   5.595  1.1338  0.0716  0.0500
14348TIP3   OH264534   4.256   5.390   2.288 -0.7485  0.5842 -0.2924
14348TIP3    H164535   4.179   5.396   2.232  0.7480 -0.2512 -2.6239
14348TIP3    H264536   4.258   5.299   2.317 -1.4796  0.9993  1.1277
14349TIP3   OH264537   1.118   3.338  13.445  0.3994  0.1042  0.3488
14349TIP3    H164538   1.043   3.352  13.502 -0.6751 -2.1495 -0.4039
14349TIP3    H264539   1.092   3.374  13.361  0.7096  0.5515  0.4438
14350TIP3   OH264540   0.621   0.804   4.193  0.1423  0.2494 -0.6440
14350TIP3    H164541   0.609   0.723   4.243  0.4806  0.1779 -0.6796
14350TIP3    H264542   0.680   0.857   4.247  0.0129  0.4244 -0.6744
14351TIP3   OH264543   6.589   0.706   0.112  0.2372 -0.3763 -0.4612
14351TIP3    H164544   6.528   0.687   0.184 -0.1591  2.3942  0.0340
14351TIP3    H264545   6.543   0.677   0.034 -1.1363  0.3341  0.0478
14352TIP3   OH264546   4.837   5.245  10.823  0.2499  0.4859 -0.3239
14352TIP3    H164547   4.798   5.310  10.765  0.8849  0.8449 -0.3463
14352TIP3    H264548   4.883   5.295  10.889  0.5239  0.0615 -0.1877
14353TIP3   OH264549   3.420   2.149  13.819 -0.0704 -0.2022 -0.2718
14353TIP3    H164550   3.467   2.190  13.746 -1.4362  1.0178 -0.5183
14353TIP3    H264551   3.478   2.160  13.895 -0.2548  1.9835 -0.3950
14354TIP3   OH264552   2.243   0.489   3.853  0.4170 -0.1513  0.1493
14354TIP3    H164553   2.168   0.489   3.794  0.8681 -1.1796 -0.4469
14354TIP3    H264554   2.290   0.408   3.834  2.4090  1.0523 -0.4418
14355TIP3   OH264555   2.998   4.991   5.708  0.1207 -0.2810  0.6044
14355TIP3    H164556   3.066   5.053   5.733  0.3715  0.9695 -2.7826
14355TIP3    H264557   2.945   5.038   5.643 -2.8870 -1.8612  1.7218
14356TIP3   OH264558   0.640   0.116   4.704 -0.0772 -0.2291  0.0374
14356TIP3    H164559   0.734   0.098   4.700  0.2631  1.5213 -1.7302
14356TIP3    H264560   0.599   0.033   4.683  1.1478 -0.6308 -0.8867
14357TIP3   OH264561   5.333   1.560  14.070  0.5677  0.1631  0.5206
14357TIP3    H164562   5.353   1.650  14.096 -0.8145  0.0531  2.1272
14357TIP3    H264563   5.240   1.562  14.044  0.4226 -0.8580  0.9022
14358TIP3   OH264564   1.021   3.599   4.052 -0.6561  0.0573  0.6407
14358TIP3    H164565   1.065   3.543   3.990 -1.9964 -1.3770  0.9252
14358TIP3    H264566   0.960   3.651   3.999 -0.6193  0.0239  0.5663
14359TIP3   OH264567   2.691   5.659  14.941  0.0634 -0.5286 -0.1031
14359TIP3    H164568   2.641   5.712  15.002 -2.6812 -0.6371 -2.0834
14359TIP3    H264569   2.769   5.633  14.990 -2.3397 -1.3704  3.6385
14360TIP3   OH264570   4.823   2.753   6.635  0.0728 -0.1847 -0.3156
14360TIP3    H164571   4.864   2.668   6.619 -0.7704 -0.8515  0.8825
14360TIP3    H264572   4.753   2.759   6.571 -1.1084 -1.3023  0.8157
14361TIP3   OH264573   3.941   1.978  16.576  0.2404 -0.0788 -0.1544
14361TIP3    H164574   3.936   2.073  16.582  0.2631 -0.1287  0.9415
14361TIP3    H264575   3.985   1.951  16.657  0.7454 -0.9808 -0.7075
14362TIP3   OH264576   5.867   4.213  11.602 -0.4286  0.1913 -0.0971
14362TIP3    H164577   5.943   4.201  11.658 -1.2084 -0.6205  0.8395
14362TIP3    H264578   5.865   4.306  11.583 -0.2491  0.5371  1.4306
14363TIP3   OH264579   2.903   4.207  14.831  0.2827  0.1050 -0.2236
14363TIP3    H164580   2.960   4.239  14.900 -1.3020  0.2686  1.0663
14363TIP3    H264581   2.896   4.280  14.770  0.6580  0.4304  0.1193
14364TIP3   OH264582   0.645   4.073   2.412  0.4251  0.2410  0.1274
14364TIP3    H164583   0.602   3.989   2.402 -1.9422  1.5181 -1.3378
14364TIP3    H264584   0.698   4.064   2.491  0.1477 -2.5245  0.0971
14365TIP3   OH264585   1.393   3.615   1.145  0.6289  0.8806  0.5873
14365TIP3    H164586   1.346   3.659   1.075  2.5484  2.5902  0.2894
14365TIP3    H264587   1.377   3.522   1.130 -1.0241  1.3141 -0.6102
14366TIP3   OH264588   1.078   0.288  13.378  0.1473  0.3257 -1.2657
14366TIP3    H164589   1.023   0.322  13.448  1.0922  0.8394 -0.7478
14366TIP3    H264590   1.046   0.200  13.362  0.8896 -0.3902  0.9172
14367TIP3   OH264591   5.962   4.050  12.283 -0.6571  0.0379  0.3287
14367TIP3    H164592   5.998   4.022  12.199  0.1215 -1.8799  1.2460
14367TIP3    H264593   6.037   4.051  12.343 -1.3777  0.3340  1.2520
14368TIP3   OH264594   5.078   2.363  15.517  0.2832 -0.1240 -0.1338
14368TIP3    H164595   5.053   2.383  15.427  1.3837 -0.3180 -0.4945
14368TIP3    H264596   5.073   2.268  15.523 -0.6220 -0.0642  0.2786
14369TIP3   OH264597   0.886   1.653   5.145  0.1193  0.6001  0.0856
14369TIP3    H164598   0.902   1.592   5.073 -0.7577 -0.2600  0.5893
14369TIP3    H264599   0.940   1.729   5.125  1.5511 -0.4982 -0.3671
14370TIP3   OH264600   1.452   3.225   0.563  0.4824  0.0507 -0.3428
14370TIP3    H164601   1.388   3.288   0.593  0.0560  0.0419 -1.1994
14370TIP3    H264602   1.462   3.164   0.636  1.8233  1.7573  0.9967
14371TIP3   OH264603   0.235   4.570   3.569 -0.3289  0.3688 -0.2801
14371TIP3    H164604   0.282   4.553   3.650  1.1931 -0.6895 -1.3398
14371TIP3    H264605   0.303   4.590   3.505 -1.4591  0.6937 -1.4283
14372TIP3   OH264606   4.245   3.491  12.555 -0.7556  0.1871  0.0942
14372TIP3    H164607   4.202   3.576  12.545  0.5923  1.2220  2.2185
14372TIP3    H264608   4.212   3.457  12.639 -1.0202 -1.2441 -0.5641
14373TIP3   OH264609   1.266   2.706   1.486 -0.2358 -0.3587  0.0928
14373TIP3    H164610   1.196   2.673   1.544 -1.2343 -0.5709 -1.1830
14373TIP3    H264611   1.219   2.740   1.410  0.9849  0.9705 -0.1024
14374TIP3   OH264612   5.081   5.181  11.332  0.2293  0.3887 -0.2917
14374TIP3    H164613   5.157   5.176  11.274  0.5747 -1.4027  0.2396
14374TIP3    H264614   5.104   5.246  11.398 -0.1117  2.3548 -2.0087
14375TIP3   OH264615   0.237   4.000  15.593  0.1582 -0.1288  0.5378
14375TIP3    H164616   0.142   4.011  15.599  0.1805  1.2043 -0.7639
14375TIP3    H264617   0.272   4.073  15.644  0.3944  1.8870 -2.2793
14376TIP3   OH264618   6.339   4.270  16.511  0.0540  0.7136 -0.2975
14376TIP3    H164619   6.324   4.201  16.446  3.8242 -1.5014  0.8685
14376TIP3    H264620   6.393   4.335  16.466  2.4206 -0.6786  0.3861
14377TIP3   OH264621   4.623   2.448   0.605 -0.6720 -0.2521  0.0672
14377TIP3    H164622   4.541   2.457   0.556 -1.3064  1.3208  1.3543
14377TIP3    H264623   4.628   2.355   0.627 -2.7938 -0.1776  1.0744
14378TIP3   OH264624   2.554   4.482   2.246 -0.2410  0.0351  0.1622
14378TIP3    H164625   2.501   4.551   2.286 -1.9986  0.8767 -3.2220
14378TIP3    H264626   2.609   4.528   2.183  0.0958 -1.4491 -0.6620
14379TIP3   OH264627   6.248   4.764   3.976 -0.3018 -0.0298 -0.0029
14379TIP3    H164628   6.301   4.777   4.054 -0.7576  0.7477  0.1806
14379TIP3    H264629   6.307   4.787   3.903  0.0724 -0.6066  0.1149
14380TIP3   OH264630   1.357   0.625   1.963  0.1319 -0.4403 -0.1681
14380TIP3    H164631   1.346   0.663   2.050 -3.7978 -0.8564 -0.2788
14380TIP3    H264632   1.393   0.538   1.979 -1.4508 -0.9007  1.2334
14381TIP3   OH264633   4.521   2.707  14.468  0.1071 -0.2854 -0.0094
14381TIP3    H164634   4.561   2.685  14.553 -2.4397 -0.7356  1.1758
14381TIP3    H264635   4.496   2.622  14.431  2.2196 -0.1948 -1.8538
14382TIP3   OH264636   2.428   0.913   3.474 -0.6071 -0.0498  0.4626
14382TIP3    H164637   2.499   0.889   3.415 -0.2873 -0.4270  0.9945
14382TIP3    H264638   2.435   0.852   3.547 -2.3492 -1.0337 -0.1234
14383TIP3   OH264639   1.077   2.787   1.900 -0.7221 -0.0754  0.4417
14383TIP3    H164640   1.101   2.878   1.886 -0.7264  0.0680  1.3183
14383TIP3    H264641   1.087   2.773   1.994 -3.3297 -0.2046  0.7711
14384TIP3   OH264642   5.062   4.490  15.641 -0.0506  0.2657 -0.0891
14384TIP3    H164643   4.972   4.458  15.646  0.3906 -1.2519 -1.1144
14384TIP3    H264644   5.059   4.556  15.571 -0.9835  2.7495  2.1073
14385TIP3   OH264645   5.376   6.153  15.518  0.0707  0.0705  0.0558
14385TIP3    H164646   5.301   6.156  15.578  0.2101  0.1161  0.2299
14385TIP3    H264647   5.389   6.243  15.490 -0.4108 -0.0462 -0.5708
14386TIP3   OH264648   6.023   0.098  16.855  0.0728  0.5388  0.5925
14386TIP3    H164649   5.952   0.162  16.862 -1.0116 -0.6759  1.2179
14386TIP3    H264650   5.982   0.015  16.878  1.0061 -0.6998 -1.8498
14387TIP3   OH264651   0.276   6.337   5.227 -0.2221 -0.2865 -0.0623
14387TIP3    H164652   0.258   6.371   5.139 -0.1761  0.5629  0.2463
14387TIP3    H264653   0.316   6.411   5.273 -0.6853 -0.5752  0.8180
14388TIP3   OH264654   2.559   5.760  10.873 -0.3766  0.4765  0.4936
14388TIP3    H164655   2.528   5.669  10.876 -1.4359  0.7900 -0.2967
14388TIP3    H264656   2.568   5.779  10.780 -3.6822  2.2810  0.4048
14389TIP3   OH264657   1.450   4.288  13.422 -0.4923 -0.2338 -0.0721
14389TIP3    H164658   1.535   4.329  13.404 -1.3855  0.9882 -1.7600
14389TIP3    H264659   1.424   4.248  13.339 -3.2620  2.6965 -0.8072
14390TIP3   OH264660   0.233   5.823  10.713 -0.0901  0.7482  0.3730
14390TIP3    H164661   0.138   5.826  10.700 -0.2948 -0.4986  1.3608
14390TIP3    H264662   0.266   5.903  10.672 -1.3961  0.4526 -1.3752
14391TIP3   OH264663   0.712   0.609  16.070  0.5886  0.4114 -0.3954
14391TIP3    H164664   0.633   0.638  16.115  1.1168  0.8813  0.2454
14391TIP3    H264665   0.768   0.576  16.140  0.3332 -1.4269 -1.0058
14392TIP3   OH264666   1.878   1.339   3.375  0.4125  0.2018  0.9042
14392TIP3    H164667   1.970   1.343   3.347  1.0481 -0.5345  2.6948
14392TIP3    H264668   1.842   1.424   3.351  1.2807  0.1663 -0.6934
14393TIP3   OH264669   5.133   5.625  14.954  0.1963 -0.3420  0.5994
14393TIP3    H164670   5.211   5.575  14.931  1.2115  1.1547  0.6886
14393TIP3    H264671   5.127   5.618  15.049  0.7033  0.1994  0.6780
14394TIP3   OH264672   3.907   2.169   1.371  0.1752 -0.3878  0.4743
14394TIP3    H164673   3.835   2.201   1.317  1.4741 -0.2464 -1.2438
14394TIP3    H264674   3.895   2.074   1.373 -1.8767 -0.1654  2.9533
14395TIP3   OH264675   3.496   5.513  11.268  0.3908  0.1543  0.1646
14395TIP3    H164676   3.522   5.431  11.226  0.3331 -0.8751  2.0050
14395TIP3    H264677   3.578   5.558  11.287  0.6542 -0.8657  1.6885
14396TIP3   OH264678   6.584   0.549   3.955  0.0073  0.2612 -0.2322
14396TIP3    H164679   6.631   0.632   3.966  0.9724 -0.2854 -0.1490
14396TIP3    H264680   6.567   0.544   3.861 -1.1384  1.1114 -0.1001
14397TIP3   OH264681   2.724   4.839   4.027  0.1915  0.0554 -0.3708
14397TIP3    H164682   2.671   4.914   3.999 -0.1497 -0.1609 -0.3191
14397TIP3    H264683   2.716   4.776   3.956  2.7415  1.1265 -1.7096
14398TIP3   OH264684   2.917   3.161  15.202 -0.0135  0.5825  0.8367
14398TIP3    H164685   2.997   3.209  15.181  1.3407 -1.5983  0.7569
14398TIP3    H264686   2.922   3.082  15.148 -2.1844  0.3193  0.9319
14399TIP3   OH264687   3.172   1.560   0.155  0.1454 -0.3024 -0.4295
14399TIP3    H164688   3.162   1.465   0.163 -2.3278  0.0297  1.5275
14399TIP3    H264689   3.138   1.580   0.068 -0.2783 -1.1137 -0.4636
14400TIP3   OH264690   1.359   6.378  15.823  0.0072  0.3914  0.6961
14400TIP3    H164691   1.354   6.374  15.918  1.3464  3.2923  1.0213
14400TIP3    H264692   1.452   6.363  15.803 -0.3246 -0.5630 -0.2026
14401TIP3   OH264693   2.526   5.811   4.226 -0.3028  0.2898  0.0584
14401TIP3    H164694   2.621   5.822   4.216 -0.4519  0.3646 -1.4971
14401TIP3    H264695   2.498   5.890   4.273  0.2696  0.7899 -0.4172
14402TIP3   OH264696   3.095   5.237   5.427  0.0800  0.1754 -0.1038
14402TIP3    H164697   3.047   5.205   5.351  0.3816  0.8268 -0.5838
14402TIP3    H264698   3.045   5.313   5.456 -1.1661 -1.2269  1.6095
14403TIP3   OH264699   2.301   1.185   2.367 -0.1371  0.3498  0.2719
14403TIP3    H164700   2.290   1.253   2.434 -3.0003 -0.1136  0.4008
14403TIP3    H264701   2.342   1.231   2.293  0.1779  1.6312  1.1988
14404TIP3   OH264702   6.669   6.014  17.101  0.2594  0.2999 -0.2267
14404TIP3    H164703   6.671   6.055  17.187 -0.1280 -0.3508  0.0956
14404TIP3    H264704   6.585   6.040  17.064 -0.2739 -0.7288  0.2420
14405TIP3   OH264705   2.891   2.720   5.622 -0.0664  0.6917  0.3471
14405TIP3    H164706   2.799   2.743   5.639 -0.5735 -0.2709 -0.9167
14405TIP3    H264707   2.896   2.714   5.526  0.9818 -0.5549  0.4601
14406TIP3   OH264708   6.676   0.991  16.588 -0.0991  0.1314 -0.1692
14406TIP3    H164709   6.686   1.086  16.596  1.3048  0.1076 -1.2336
14406TIP3    H264710   6.730   0.955  16.658 -0.0055  0.1198 -0.2464
14407TIP3   OH264711   5.467   1.116  16.841  0.1783  0.0860 -0.0686
14407TIP3    H164712   5.558   1.103  16.867  0.0893 -1.3989 -0.3882
14407TIP3    H264713   5.456   1.211  16.837  1.0553  0.3512  2.2290
14408TIP3   OH264714   4.274   4.564  10.549 -0.2415 -0.2244  0.6308
14408TIP3    H164715   4.226   4.566  10.466 -1.2722  0.0843  1.2114
14408TIP3    H264716   4.215   4.607  10.611  0.0713 -1.3645  1.7560
14409TIP3   OH264717   5.857   4.490  11.563 -0.6863 -0.6122 -0.1110
14409TIP3    H164718   5.782   4.549  11.553 -0.6950 -0.4688  0.6855
14409TIP3    H264719   5.900   4.520  11.644  0.5740 -0.3121 -0.8630
14410TIP3   OH264720   2.572   4.851  12.071  0.1506 -0.1172 -0.3017
14410TIP3    H164721   2.477   4.859  12.074  0.3006  4.0027  0.5929
14410TIP3    H264722   2.591   4.817  11.984 -2.1231 -1.1177 -0.4631
14411TIP3   OH264723   5.626   2.369  12.775  0.0273  0.2202 -0.2971
14411TIP3    H164724   5.690   2.316  12.822  0.2367  0.5468 -0.2140
14411TIP3    H264725   5.607   2.318  12.696  1.3891  0.7223 -0.9866
14412TIP3   OH264726   4.426   0.904  13.706  0.2834  0.0885  0.0207
14412TIP3    H164727   4.475   0.841  13.759  1.5481 -0.3051 -1.5100
14412TIP3    H264728   4.396   0.853  13.630 -0.0329  0.9840 -0.4725
14413TIP3   OH264729   5.122   2.808  11.336 -0.7998  0.2946  0.2696
14413TIP3    H164730   5.084   2.896  11.335 -1.3974  0.0372  0.3708
14413TIP3    H264731   5.217   2.823  11.329 -0.9416  0.9171 -0.3825
14414TIP3   OH264732   6.643   4.914   1.123 -0.0499  0.4218  0.2024
14414TIP3    H164733   6.578   4.874   1.064 -0.5985 -0.1931  1.2005
14414TIP3    H264734   6.594   4.982   1.170 -0.3508 -0.8917  1.8857
14415TIP3   OH264735   1.704   5.338  15.606  0.3830  0.3661 -0.4608
14415TIP3    H164736   1.651   5.398  15.554  0.2930  0.0101 -0.7821
14415TIP3    H264737   1.792   5.345  15.567  0.3174  0.1058 -0.6553
14416TIP3   OH264738   0.335   5.656   2.105  0.2481 -0.2483 -0.4829
14416TIP3    H164739   0.385   5.735   2.084  1.6975 -0.7102  1.0770
14416TIP3    H264740   0.385   5.613   2.174 -1.4843 -1.5848  0.0090
14417TIP3   OH264741   1.790   1.992  14.610 -0.0762 -0.3048  0.0006
14417TIP3    H164742   1.864   1.931  14.609  0.2068  0.0327  0.2004
14417TIP3    H264743   1.740   1.967  14.688  1.5897  1.5328  1.7670
14418TIP3   OH264744   1.436   2.817  10.935  0.8806 -0.0310  0.2042
14418TIP3    H164745   1.364   2.880  10.936  1.5433  0.7397  0.6805
14418TIP3    H264746   1.396   2.735  10.906 -0.1245  0.4534  0.1814
14419TIP3   OH264747   0.696   3.342  13.221 -0.3354 -0.3033 -0.3177
14419TIP3    H164748   0.664   3.309  13.305  0.3866 -0.1138  0.0344
14419TIP3    H264749   0.789   3.319  13.220 -0.3946 -0.5451 -1.1846
14420TIP3   OH264750   2.930   4.415   0.801  0.3307  0.5411  0.5583
14420TIP3    H164751   2.929   4.326   0.837 -0.3367  0.2086 -0.2463
14420TIP3    H264752   2.960   4.403   0.711  0.1504  1.1164  0.4217
14421TIP3   OH264753   4.096   4.647  15.961  0.1245 -0.0597 -0.1354
14421TIP3    H164754   4.139   4.573  15.920  0.8537 -0.6126  1.5303
14421TIP3    H264755   4.158   4.720  15.951 -1.4551  0.9954 -3.6169
14422TIP3   OH264756   2.082   6.185   0.488  0.4092  0.0120 -0.5169
14422TIP3    H164757   2.094   6.163   0.396  0.7616 -0.4657 -0.3622
14422TIP3    H264758   2.163   6.156   0.530  0.7155  1.2488 -0.2322
14423TIP3   OH264759   5.805   6.072   4.351 -0.5002 -0.1617  0.1381
14423TIP3    H164760   5.710   6.073   4.342 -0.5104 -0.9524  0.0574
14423TIP3    H264761   5.824   5.989   4.395  0.2677 -0.8149 -1.3569
14424TIP3   OH264762   5.712   5.433  16.807  0.0508  0.1929 -0.0803
14424TIP3    H164763   5.790   5.424  16.861  0.5952 -0.6454 -0.9570
14424TIP3    H264764   5.688   5.525  16.814  1.8103  0.7455 -0.6921
14425TIP3   OH264765   1.750   2.104  17.066  0.1493  0.0320  0.6712
14425TIP3    H164766   1.825   2.163  17.066  1.1096 -1.1142 -0.5742
14425TIP3    H264767   1.675   2.160  17.047  0.4055  1.4406  3.3441
14426TIP3   OH264768   2.908   1.575  10.871 -0.2603  0.1222 -0.6421
14426TIP3    H164769   2.973   1.632  10.913  1.3021 -1.3223 -1.0086
14426TIP3    H264770   2.839   1.564  10.937  0.8776  0.0148  0.5668
14427TIP3   OH264771   5.199   3.887  14.597 -0.2801 -0.7662  0.3752
14427TIP3    H164772   5.136   3.857  14.532 -0.4745  0.1044  0.1450
14427TIP3    H264773   5.265   3.935  14.546  0.1983 -1.0899  0.6880
14428TIP3   OH264774   1.180   6.830   1.175 -0.5687  0.0943 -0.0692
14428TIP3    H164775   1.177   6.870   1.088 -0.1588  2.6142  0.9802
14428TIP3    H264776   1.122   6.885   1.229  1.5690  0.5611  1.9183
14429TIP3   OH264777   4.485   4.772  11.956  0.1958 -0.2535 -0.4026
14429TIP3    H164778   4.444   4.724  12.027  1.6704  1.5821  1.8136
14429TIP3    H264779   4.417   4.832  11.924 -0.2934 -0.6736 -0.1539
14430TIP3   OH264780   0.149   4.228  14.615  0.2766  0.2557  0.3583
14430TIP3    H164781   0.069   4.271  14.644 -0.0366 -0.4327  0.5509
14430TIP3    H264782   0.122   4.138  14.597  0.5760  0.5092 -1.5679
14431TIP3   OH264783   3.559   5.643   0.838 -0.6641  0.1197  0.1526
14431TIP3    H164784   3.544   5.663   0.746 -1.6373  1.2898  0.5383
14431TIP3    H264785   3.509   5.562   0.853  0.8751 -1.0514 -0.7121
14432TIP3   OH264786   2.947   1.211  11.033 -0.6352  0.1595 -0.2603
14432TIP3    H164787   2.901   1.287  11.068 -2.2231  0.0763 -2.0222
14432TIP3    H264788   2.878   1.157  10.994  0.7529 -0.9130 -1.3224
14433TIP3   OH264789   5.492   6.198   0.653  0.1034  0.0108 -0.5376
14433TIP3    H164790   5.504   6.146   0.573 -0.1717  0.6872 -1.0322
14433TIP3    H264791   5.425   6.263   0.629 -0.3384 -0.0906  0.3999
14434TIP3   OH264792   2.807   6.239   0.004  0.1239 -0.0390  0.0253
14434TIP3    H164793   2.810   6.148   0.032  0.8247  0.1080  0.4521
14434TIP3    H264794   2.804   6.235  -0.091  1.2841 -0.4929  0.0008
14435TIP3   OH264795   4.232   4.882  15.542  0.6200 -0.0781  0.1584
14435TIP3    H164796   4.280   4.800  15.532 -0.2815 -0.5835 -0.0705
14435TIP3    H264797   4.149   4.857  15.584 -0.6517  0.3542 -1.9778
14436TIP3   OH264798   6.060   3.205   1.220  0.3967 -0.0876  0.4026
14436TIP3    H164799   5.985   3.196   1.161  0.4344 -1.8991  0.5685
14436TIP3    H264800   6.107   3.122   1.212  2.6538  1.1559 -0.0101
14437TIP3   OH264801   5.895   0.108  12.731 -0.0029 -0.2084 -0.1104
14437TIP3    H164802   5.844   0.148  12.801  0.4085  0.8247 -0.3936
14437TIP3    H264803   5.839   0.037  12.698  0.8209 -2.5421  2.9971
14438TIP3   OH264804   1.281   0.266   1.125  0.1785  0.4512 -0.6237
14438TIP3    H164805   1.354   0.309   1.079  0.8764  0.3737  0.3637
14438TIP3    H264806   1.321   0.188   1.165 -1.0626 -1.1811 -2.3810
14439TIP3   OH264807   5.038   3.723  13.838 -0.0820 -0.2606 -0.1948
14439TIP3    H164808   5.089   3.678  13.904 -0.3904 -1.0854 -0.5089
14439TIP3    H264809   4.964   3.761  13.886 -0.8125 -1.6355 -0.1667
14440TIP3   OH264810   1.805   3.981   1.261 -0.3322 -0.2328 -0.0138
14440TIP3    H164811   1.730   3.929   1.232 -0.6690 -0.0383  0.4984
14440TIP3    H264812   1.766   4.057   1.305  0.0981  1.2661 -2.0474
14441TIP3   OH264813   5.470   1.485  11.226 -0.3095 -0.7429  0.1310
14441TIP3    H164814   5.491   1.532  11.145  1.8175  0.9272  1.5666
14441TIP3    H264815   5.522   1.405  11.221 -0.3955 -0.7765 -0.2713
14442TIP3   OH264816   0.440   2.868  13.707  0.0635  0.3855 -0.0660
14442TIP3    H164817   0.424   2.779  13.677 -1.9711 -0.0035  1.9486
14442TIP3    H264818   0.524   2.863  13.754 -0.1059 -0.5124  0.1560
14443TIP3   OH264819   6.445   4.965  14.770 -0.4298 -0.1191 -0.3265
14443TIP3    H164820   6.358   5.004  14.785 -1.2279 -1.9729  0.1217
14443TIP3    H264821   6.494   4.987  14.849 -0.7202  0.3417 -0.2683
14444TIP3   OH264822   3.846   3.990  16.993 -0.1450 -0.4260 -0.0250
14444TIP3    H164823   3.923   3.958  17.040  0.3445  0.9068  0.1431
14444TIP3    H264824   3.783   4.011  17.061 -0.4008 -0.8898 -0.1208
14445TIP3   OH264825   5.810   5.939   3.535 -0.6469 -0.0204 -0.8497
14445TIP3    H164826   5.740   5.937   3.469 -1.4382 -2.6686 -0.0576
14445TIP3    H264827   5.786   6.011   3.593 -1.2924  0.7371 -2.0102
14446TIP3   OH264828   6.786   3.363  10.631  0.3136 -0.3536  0.7189
14446TIP3    H164829   6.743   3.447  10.645  1.7523  1.0314 -2.2384
14446TIP3    H264830   6.716   3.305  10.601 -0.5073  0.0838  1.7378
14447TIP3   OH264831   0.021   3.966   6.647 -0.1361  0.0692  0.0841
14447TIP3    H164832   0.019   3.882   6.693  2.4454 -1.1860 -1.8631
14447TIP3    H264833  -0.059   3.965   6.594 -0.6282 -0.7146  0.8163
14448TIP3   OH264834   2.015   1.208  11.123  0.0034 -0.1676 -0.4423
14448TIP3    H164835   2.020   1.150  11.198  0.1484  0.4248  0.0144
14448TIP3    H264836   1.959   1.280  11.152 -1.4272 -0.8066 -1.5034
14449TIP3   OH264837   4.876   3.096  13.318 -0.3628 -0.3021  0.2361
14449TIP3    H164838   4.797   3.105  13.265  0.2055  1.3064 -0.4007
14449TIP3    H264839   4.845   3.095  13.408 -1.2494 -1.8801 -0.0551
14450TIP3   OH264840   2.615   2.809  17.190  0.4398  0.1847 -0.2806
14450TIP3    H164841   2.540   2.759  17.222  0.3739 -0.4914 -1.4184
14450TIP3    H264842   2.691   2.761  17.224  0.3699  0.6470  0.5485
14451TIP3   OH264843   6.430   5.756  10.813  0.4072 -0.2472  0.2820
14451TIP3    H164844   6.403   5.700  10.740  1.4219 -0.7377  0.2693
14451TIP3    H264845   6.366   5.737  10.882  0.4800 -1.1004  0.1277
14452TIP3   OH264846   4.283   6.157   4.655 -0.3589 -0.6313 -0.3625
14452TIP3    H164847   4.372   6.191   4.656 -0.5559 -0.0862  1.3261
14452TIP3    H264848   4.249   6.174   4.743 -2.8031  1.0153 -1.4842
14453TIP3   OH264849   3.282   6.496  10.738 -0.2365 -0.1511 -0.4477
14453TIP3    H164850   3.354   6.481  10.799  0.5236  3.0291 -0.3567
14453TIP3    H264851   3.325   6.528  10.658 -1.4574  0.8403 -0.7376
14454TIP3   OH264852   1.829   6.420   3.881 -0.2040  0.2705 -0.0661
14454TIP3    H164853   1.824   6.405   3.787 -0.9654  1.3449 -0.2205
14454TIP3    H264854   1.767   6.491   3.897 -0.4349 -0.2109  1.3202
14455TIP3   OH264855   1.243   1.243   1.860 -0.4006  0.0651  0.5092
14455TIP3    H164856   1.321   1.247   1.916 -0.6503  1.9692  0.7959
14455TIP3    H264857   1.273   1.276   1.775 -1.0550  1.7324  0.8850
14456TIP3   OH264858   2.525   3.103  12.181 -0.1750 -0.1958  0.2954
14456TIP3    H164859   2.477   3.154  12.117  0.4568  0.0043 -0.0286
14456TIP3    H264860   2.551   3.167  12.248 -0.3667 -0.3034  0.4716
14457TIP3   OH264861   3.458   1.675  13.737 -0.5087  0.1286  0.1130
14457TIP3    H164862   3.462   1.624  13.656 -2.0639 -1.7212  1.1251
14457TIP3    H264863   3.550   1.691  13.760 -0.0202 -0.5035 -1.2722
14458TIP3   OH264864   4.517   0.219  10.999  0.1278  0.1148  0.0444
14458TIP3    H164865   4.582   0.289  10.984 -1.2603  1.6754  0.9350
14458TIP3    H264866   4.501   0.222  11.093 -1.1428 -0.3148 -0.1512
14459TIP3   OH264867   2.029   0.912  15.881  0.3396  0.1559 -0.4508
14459TIP3    H164868   1.978   0.922  15.962 -1.6176 -2.9746 -1.1207
14459TIP3    H264869   2.094   0.845  15.902  0.2741 -0.1632 -1.2295
14460TIP3   OH264870   4.848   6.807  14.573  0.2242 -0.2224 -0.1698
14460TIP3    H164871   4.914   6.738  14.580 -0.5185 -0.8564  0.7712
14460TIP3    H264872   4.850   6.852  14.657 -0.0230  0.2542 -0.4121
14461TIP3   OH264873   6.272   1.734  12.342  0.5184  0.2013 -0.0421
14461TIP3    H164874   6.338   1.803  12.341  0.2694  0.4358 -0.2295
14461TIP3    H264875   6.280   1.691  12.256 -0.7224  1.3245 -0.7537
14462TIP3   OH264876   0.902   4.468  16.457 -0.4085  0.0460 -0.2639
14462TIP3    H164877   0.827   4.431  16.503  0.4845 -1.8602 -0.2669
14462TIP3    H264878   0.965   4.487  16.527  0.0669 -0.7240 -0.4766
14463TIP3   OH264879   3.623   4.937  11.390 -0.3050 -0.4192  0.3612
14463TIP3    H164880   3.631   4.844  11.414  0.0452 -0.1991  1.1253
14463TIP3    H264881   3.690   4.950  11.324  0.2852 -0.4961  0.9305
14464TIP3   OH264882   1.228   5.710   3.729 -1.0126  0.8353 -0.4186
14464TIP3    H164883   1.164   5.687   3.796 -0.5754  1.5583  0.2630
14464TIP3    H264884   1.313   5.687   3.767 -0.8574 -0.4415 -1.4510
14465TIP3   OH264885   2.012   2.543   6.009 -0.0949  0.2776  0.4891
14465TIP3    H164886   1.973   2.456   6.002  0.2044  0.0795  1.1874
14465TIP3    H264887   2.106   2.526   6.016  0.0920  0.7247 -0.6863
14466TIP3   OH264888   2.885   5.861  10.295 -0.2432  0.2757  0.1201
14466TIP3    H164889   2.807   5.883  10.345 -0.7551  1.5447 -1.1613
14466TIP3    H264890   2.911   5.944  10.254  0.8738 -0.4470 -0.6923
14467TIP3   OH264891   2.973   4.890   3.824  0.0439  0.1947  0.1722
14467TIP3    H164892   3.063   4.916   3.843  0.6444  0.1383 -2.2256
14467TIP3    H264893   2.966   4.800   3.854  0.6900  0.2919  0.6210
14468TIP3   OH264894   0.106   1.549  15.228  0.0925  0.1811  0.1602
14468TIP3    H164895   0.179   1.496  15.262  0.2106 -0.4109 -0.9863
14468TIP3    H264896   0.029   1.517  15.276  0.3564 -0.1739  0.3500
14469TIP3   OH264897   2.479   4.418  13.862 -0.5172 -0.1754  0.7710
14469TIP3    H164898   2.506   4.506  13.887  1.8807 -0.8137  0.6060
14469TIP3    H264899   2.407   4.432  13.800  2.9051  1.9820 -3.1925
14470TIP3   OH264900   2.523   2.091  13.259 -0.0302  0.0504  0.2874
14470TIP3    H164901   2.573   2.085  13.340  0.6352 -2.1049 -0.2132
14470TIP3    H264902   2.551   2.015  13.208 -2.6663 -0.3791 -0.6870
14471TIP3   OH264903   2.464   2.778   4.113 -0.1461 -0.1777 -0.3709
14471TIP3    H164904   2.514   2.700   4.086  1.5568 -0.3509  2.8560
14471TIP3    H264905   2.392   2.743   4.165 -0.8597  0.3250 -1.0077
14472TIP3   OH264906   3.432   2.543  13.808 -0.2918 -0.1380 -0.4159
14472TIP3    H164907   3.469   2.532  13.721  0.2933 -0.1068 -0.1755
14472TIP3    H264908   3.362   2.608  13.796  1.1132  1.4472 -0.5291
14473TIP3   OH264909   0.498   3.187   1.036 -0.0024 -0.1278  0.0972
14473TIP3    H164910   0.567   3.245   1.068 -0.6032  1.3500 -1.1187
14473TIP3    H264911   0.431   3.247   1.002 -0.4090 -1.5336 -1.7260
14474TIP3   OH264912   5.857   5.346   1.629 -0.3247  0.2895  0.3620
14474TIP3    H164913   5.886   5.401   1.556  0.2956 -0.2433  0.1961
14474TIP3    H264914   5.864   5.402   1.706 -2.4925  1.3851 -0.1500
14475TIP3   OH264915   3.924   1.287   4.950 -0.4061 -0.3855 -0.6623
14475TIP3    H164916   3.937   1.204   4.903 -1.9272 -0.5753 -0.7992
14475TIP3    H264917   3.964   1.272   5.036 -0.2541 -1.0937 -0.8474
14476TIP3   OH264918   0.491   3.530   1.451  0.4265 -0.5977  0.5514
14476TIP3    H164919   0.471   3.458   1.391 -0.5540 -2.5910  3.0407
14476TIP3    H264920   0.585   3.525   1.463  0.3076 -2.0138  1.2024
14477TIP3   OH264921   1.695   5.627  17.088 -0.1039 -0.4079  0.0947
14477TIP3    H164922   1.649   5.621  17.171 -0.0696 -1.3872  0.0432
14477TIP3    H264923   1.782   5.660  17.111 -0.1954 -0.3833  0.4032
14478TIP3   OH264924   4.485   3.022  11.550 -0.5714  0.2624 -0.6451
14478TIP3    H164925   4.517   2.934  11.532 -1.0090 -0.1596  0.5167
14478TIP3    H264926   4.561   3.079  11.535 -0.6287 -0.1313 -2.6567
14479TIP3   OH264927   4.295   3.304   3.287  0.1753 -0.6426  0.0839
14479TIP3    H164928   4.321   3.266   3.204  0.6489  2.7599 -1.4629
14479TIP3    H264929   4.373   3.297   3.343  1.5434  1.3398 -1.4592
14480TIP3   OH264930   0.885   1.655   2.231  0.0707 -0.6488  0.5204
14480TIP3    H164931   0.932   1.586   2.185 -1.2026 -1.8357  0.9365
14480TIP3    H264932   0.811   1.677   2.173 -0.0024 -0.2179  0.7697
14481TIP3   OH264933   2.315   4.213   3.913  0.2478  0.1962  0.2680
14481TIP3    H164934   2.244   4.239   3.854 -1.1215 -1.2037  1.2027
14481TIP3    H264935   2.392   4.205   3.856  0.0592  3.0684 -0.5520
14482TIP3   OH264936   6.044   4.875  13.976  0.1811  0.1819 -0.1969
14482TIP3    H164937   6.066   4.889  13.884 -0.2389  0.8836 -0.1923
14482TIP3    H264938   5.997   4.791  13.977  0.2439  0.1419 -0.6133
14483TIP3   OH264939   5.118   2.748  10.828 -0.0328 -0.7306  0.3097
14483TIP3    H164940   5.116   2.715  10.738  2.1577  0.2170 -0.1390
14483TIP3    H264941   5.031   2.785  10.841  0.6513  2.5362 -2.8268
14484TIP3   OH264942   0.740   3.414   1.475  0.6092 -0.4137 -0.2542
14484TIP3    H164943   0.783   3.430   1.391  0.7104 -0.3418 -0.1889
14484TIP3    H264944   0.699   3.328   1.465  0.0474 -0.1085 -0.6099
14485TIP3   OH264945   4.686   5.880   4.902 -0.2330  0.2117  0.4360
14485TIP3    H164946   4.618   5.843   4.845 -1.2106  0.0700  1.6628
14485TIP3    H264947   4.654   5.968   4.923 -0.8184 -0.3854  2.2255
14486TIP3   OH264948   2.569   5.431   5.878 -0.1162  0.4923  0.0332
14486TIP3    H164949   2.501   5.456   5.940  0.3878 -1.0044  1.2493
14486TIP3    H264950   2.525   5.372   5.817 -0.8585  2.7035 -1.7536
14487TIP3   OH264951   3.280   0.678   2.163 -0.1100  0.1535  0.5153
14487TIP3    H164952   3.342   0.742   2.200  0.1504 -0.6156  1.4565
14487TIP3    H264953   3.302   0.596   2.207  0.4721 -0.9241 -1.6485
14488TIP3   OH264954   4.481   6.730  16.661  0.4417  0.4435 -0.2298
14488TIP3    H164955   4.537   6.714  16.585  0.2440 -0.3910 -0.2151
14488TIP3    H264956   4.459   6.823  16.656 -0.0461  0.2823 -1.5141
14489TIP3   OH264957   5.161   2.286   0.272  0.1140  0.2864  0.0448
14489TIP3    H164958   5.139   2.251   0.185 -0.8057 -1.1212  0.8038
14489TIP3    H264959   5.131   2.377   0.270 -0.0225  0.2332 -1.0607
14490TIP3   OH264960   5.615   1.860  15.019  0.1281  0.4686 -0.1712
14490TIP3    H164961   5.702   1.895  15.040  0.6547 -0.8991  0.0578
14490TIP3    H264962   5.560   1.937  15.006  1.3907  1.3600 -0.3722
14491TIP3   OH264963   4.853   3.324   0.716  0.1066  0.3335 -0.1749
14491TIP3    H164964   4.870   3.388   0.786 -0.0185  2.4529 -1.9876
14491TIP3    H264965   4.936   3.316   0.670  0.1073 -0.8470 -0.0194
14492TIP3   OH264966   5.506   0.142   2.536  0.2716 -0.5304  0.0057
14492TIP3    H164967   5.588   0.189   2.519  0.4949 -1.3153 -1.1984
14492TIP3    H264968   5.533   0.062   2.581 -0.0641  0.2303  1.6133
14493TIP3   OH264969   2.689   3.551  12.123 -0.5920 -0.3766 -0.1297
14493TIP3    H164970   2.687   3.500  12.042  2.0837 -1.3380  0.3251
14493TIP3    H264971   2.715   3.638  12.095 -2.2952  0.0495 -0.5493
14494TIP3   OH264972   2.435   3.853   3.135  0.3762  0.6116 -0.9403
14494TIP3    H164973   2.403   3.919   3.074 -1.5629  0.7169  0.0961
14494TIP3    H264974   2.450   3.901   3.217  2.3023  0.3605 -1.0963
14495TIP3   OH264975   5.610   5.518   1.630  0.4425 -0.2347  0.3554
14495TIP3    H164976   5.654   5.570   1.698  0.3431 -0.9828  1.0116
14495TIP3    H264977   5.682   5.480   1.579  0.5969 -1.5826  1.5233
14496TIP3   OH264978   4.832   2.265  11.955  0.2758 -0.0570 -0.0511
14496TIP3    H164979   4.741   2.259  11.928  0.5295 -0.1389 -0.9268
14496TIP3    H264980   4.840   2.353  11.993 -0.4522 -0.5032  1.1978
14497TIP3   OH264981   0.316   1.694  15.003 -0.2211 -1.0562  0.3059
14497TIP3    H164982   0.358   1.776  14.976 -1.1065 -0.7918 -0.3050
14497TIP3    H264983   0.319   1.697  15.099 -1.7701  0.5551  0.3693
14498TIP3   OH264984   3.844   3.524   5.881  0.3653  0.1488 -0.1907
14498TIP3    H164985   3.757   3.494   5.906  0.5695 -1.3067 -1.1555
14498TIP3    H264986   3.894   3.522   5.963  0.1808 -1.5392 -0.0936
14499TIP3   OH264987   3.165   5.635   0.269 -0.5123 -0.0445 -0.5460
14499TIP3    H164988   3.135   5.556   0.223 -0.4739  0.1647 -0.9363
14499TIP3    H264989   3.103   5.703   0.243  0.4220  0.4521 -1.5647
14500TIP3   OH264990   6.119   4.769  15.542  0.5729  0.5825  0.1738
14500TIP3    H164991   6.125   4.863  15.529 -2.1919  0.6200 -1.5544
14500TIP3    H264992   6.051   4.757  15.608 -0.4527 -0.2169 -0.9903
14501TIP3   OH264993   6.395   0.777   1.057 -0.3149 -0.4724 -0.0594
14501TIP3    H164994   6.316   0.787   1.110 -1.1238 -0.9540 -1.1280
14501TIP3    H264995   6.433   0.695   1.087  0.1937  0.1196  0.9611
14502TIP3   OH264996   1.123   5.628   2.153 -0.0904 -0.1652 -1.2391
14502TIP3    H164997   1.072   5.619   2.234  0.0378 -0.2885 -1.1715
14502TIP3    H264998   1.069   5.683   2.097 -0.9075 -1.3646 -1.6683
14503TIP3   OH264999   2.343   3.445   3.568  0.0812 -0.3418  0.0726
14503TIP3    H165000   2.402   3.422   3.640  0.0936 -0.2057  0.1071
14503TIP3    H265001   2.288   3.515   3.604 -0.6819 -1.0607  0.3190
14504TIP3   OH265002   2.675   0.480   2.357  0.2033  0.1540 -0.5094
14504TIP3    H165003   2.707   0.489   2.448  0.2597 -0.4790 -0.4648
14504TIP3    H265004   2.658   0.386   2.347 -1.4347  0.4425 -0.6149
14505TIP3   OH265005   0.669   1.042  15.848  0.5688  0.1819 -0.3156
14505TIP3    H165006   0.631   0.963  15.811 -0.9124  0.5868  0.2584
14505TIP3    H265007   0.596   1.105  15.852  1.2997  1.0133  0.7703
14506TIP3   OH265008   3.744   4.737   6.196 -0.1801  0.0930 -0.6250
14506TIP3    H165009   3.781   4.785   6.270  0.0162 -1.0828  0.0668
14506TIP3    H265010   3.698   4.663   6.236 -1.5382  0.3856 -1.5881
14507TIP3   OH265011   1.661   3.601   3.150  0.3330 -0.3726  0.1994
14507TIP3    H165012   1.620   3.657   3.083  2.9296  1.5155  0.0349
14507TIP3    H265013   1.701   3.662   3.211  0.8287 -2.0896  1.6722
14508TIP3   OH265014   2.660   3.398   2.335 -0.1092 -0.8566 -0.5376
14508TIP3    H165015   2.737   3.442   2.371 -0.9081  0.1368 -0.0158
14508TIP3    H265016   2.616   3.465   2.283 -0.7600 -1.3585 -0.6404
14509TIP3   OH265017   4.938   6.029   4.777  0.0315  0.2399 -0.3931
14509TIP3    H165018   4.965   5.986   4.858 -0.9864  1.6531  0.7479
14509TIP3    H265019   4.890   5.961   4.729 -0.1785 -0.3495  0.6189
14510TIP3   OH265020   6.170   1.116   2.165 -0.4921 -0.6619  0.0726
14510TIP3    H165021   6.221   1.155   2.094 -0.1908 -0.9726  0.1177
14510TIP3    H265022   6.134   1.036   2.128  0.8074 -1.5540  0.6826
14511TIP3   OH265023   3.687   1.144  12.774 -0.1621  0.2709  0.2127
14511TIP3    H165024   3.733   1.207  12.830  0.5976 -0.3427  0.2897
14511TIP3    H265025   3.696   1.180  12.685 -0.8075  0.9069  0.3949
14512TIP3   OH265026   4.793   4.426   5.547 -0.1501  0.3150  0.3047
14512TIP3    H165027   4.786   4.522   5.555 -0.0536  0.4032 -0.6193
14512TIP3    H265028   4.874   4.412   5.498  0.5796 -0.3092  1.6257
14513TIP3   OH265029   6.099   5.880   2.141  0.5364 -0.1897 -0.0077
14513TIP3    H165030   6.178   5.902   2.092  0.5228  0.9793  0.4445
14513TIP3    H265031   6.039   5.844   2.076  1.3683 -0.9350 -0.3864
14514TIP3   OH265032   0.452   5.478   2.276  0.0946  0.1136  0.5575
14514TIP3    H165033   0.421   5.433   2.198 -0.8716 -0.2929  1.1449
14514TIP3    H265034   0.437   5.415   2.347 -0.8186  1.1422  1.3258
14515TIP3   OH265035   1.818   5.134   0.517  0.4308 -0.3218 -0.0186
14515TIP3    H165036   1.788   5.096   0.599 -0.8976 -0.9621 -0.7625
14515TIP3    H265037   1.874   5.207   0.543 -2.0047  1.1574  1.5398
14516TIP3   OH265038   3.353   1.456  15.999 -0.1344 -0.0079 -0.3121
14516TIP3    H165039   3.421   1.489  16.057 -0.5771 -1.1777  0.9388
14516TIP3    H265040   3.310   1.534  15.965  2.2156  0.8022 -1.6896
14517TIP3   OH265041   4.704   0.636  12.766 -0.2671  0.5800 -0.0361
14517TIP3    H165042   4.679   0.547  12.788 -1.4177  1.5431  3.2649
14517TIP3    H265043   4.631   0.690  12.796  1.3807  2.7654  0.3567
14518TIP3   OH265044   1.800   1.628   3.423 -0.1876 -0.4169 -0.0294
14518TIP3    H165045   1.817   1.642   3.516  0.1744 -1.6850  0.1033
14518TIP3    H265046   1.884   1.644   3.380 -0.1546 -0.6267 -0.0451
14519TIP3   OH265047   4.520   3.135  15.416  0.1094 -0.0788  0.4998
14519TIP3    H165048   4.510   3.079  15.340 -0.7075 -0.9291  1.2045
14519TIP3    H265049   4.526   3.224  15.380  1.4802 -0.5899 -0.6327
14520TIP3   OH265050   6.677   5.902  15.763 -0.4035 -0.3621 -0.0937
14520TIP3    H165051   6.672   5.808  15.781 -2.5274 -0.0075  1.5650
14520TIP3    H265052   6.667   5.909  15.669 -1.5501 -1.7482 -0.0989
14521TIP3   OH265053   5.520   5.589  15.391  0.4485 -0.5338 -0.4145
14521TIP3    H165054   5.606   5.623  15.416  0.0521 -0.6168  1.2097
14521TIP3    H265055   5.465   5.608  15.467 -0.3248 -2.8329 -0.3263
14522TIP3   OH265056   5.086   3.362  13.283 -0.1096  0.4423  0.4327
14522TIP3    H165057   5.036   3.286  13.314  0.7343 -0.5185 -0.5049
14522TIP3    H265058   5.172   3.327  13.261  0.2338  1.6418 -0.1933
14523TIP3   OH265059   0.990   5.407   2.768  0.0990 -0.2011  0.2282
14523TIP3    H165060   1.042   5.478   2.805  0.8513 -0.3949 -0.4252
14523TIP3    H265061   0.933   5.378   2.839  1.0785 -0.1609  1.0417
14524TIP3   OH265062   4.099   5.189  16.949  0.1728 -0.3681  0.1239
14524TIP3    H165063   4.119   5.099  16.974 -1.9932 -0.8750  0.1641
14524TIP3    H265064   4.068   5.183  16.859 -1.4302  0.0934  0.6112
14525TIP3   OH265065   2.966   4.026  12.741  0.5658 -0.6482  0.0355
14525TIP3    H165066   2.984   4.074  12.822  0.1731 -0.1241 -0.1840
14525TIP3    H265067   3.012   4.075  12.674 -0.4102 -0.1745 -0.2966
14526TIP3   OH265068   3.254   0.244  12.644  0.6000  0.4285 -0.7223
14526TIP3    H165069   3.299   0.272  12.564  0.9466 -0.3770 -0.8236
14526TIP3    H265070   3.290   0.300  12.713  1.0760  0.4161 -0.9597
14527TIP3   OH265071   6.153   2.564   4.670  0.2709  0.4303 -0.0602
14527TIP3    H165072   6.122   2.486   4.624  0.1659  0.9028 -0.7910
14527TIP3    H265073   6.091   2.574   4.743 -1.9487  1.8950 -2.0127
14528TIP3   OH265074   2.545   6.344  13.485 -0.1545  0.4367 -0.1847
14528TIP3    H165075   2.481   6.274  13.501 -0.7945  0.7916 -1.0868
14528TIP3    H265076   2.584   6.361  13.571 -1.6973  0.6022  0.5204
14529TIP3   OH265077   0.743   6.302   1.638 -0.1602  0.1958  0.0971
14529TIP3    H165078   0.666   6.259   1.677  0.2669  0.3917  1.1974
14529TIP3    H265079   0.769   6.368   1.703  0.9122  0.1582 -0.2738
14530TIP3   OH265080   1.043   5.393  16.767 -0.0554  0.2911  0.0552
14530TIP3    H165081   1.002   5.343  16.696  0.1566  0.7908 -0.4296
14530TIP3    H265082   1.132   5.359  16.771 -0.4532 -0.6850  1.0018
14531TIP3   OH265083   5.218   3.230  14.222  0.7495  0.0889  0.1031
14531TIP3    H165084   5.229   3.274  14.138 -0.9262 -0.1677 -0.2928
14531TIP3    H265085   5.242   3.139  14.205  1.6938  0.2967  0.2604
14532TIP3   OH265086   3.258   4.241  11.706  0.0083  0.6551  0.5771
14532TIP3    H165087   3.320   4.274  11.641 -2.0560  2.3348 -0.6676
14532TIP3    H265088   3.222   4.320  11.747 -1.6764 -0.2290  0.8946
14533TIP3   OH265089   6.358   5.927   2.043 -0.5138 -0.6042 -0.8196
14533TIP3    H165090   6.396   6.001   1.995  0.1184  0.9738  1.9357
14533TIP3    H265091   6.419   5.855   2.028 -0.2829 -0.1513 -2.2433
14534TIP3   OH265092   1.838   4.995   2.307  0.1196 -0.0987  0.0155
14534TIP3    H165093   1.821   4.900   2.302  0.7911 -0.3035  1.1349
14534TIP3    H265094   1.818   5.028   2.220 -2.3161 -0.9024  0.1916
14535TIP3   OH265095   5.734   1.120  15.835 -0.4308 -0.6691 -0.1328
14535TIP3    H165096   5.718   1.215  15.830  1.1529 -0.4093 -0.8641
14535TIP3    H265097   5.790   1.101  15.760  1.1381 -1.7774  1.2273
14536TIP3   OH265098   0.552   5.351   5.075  0.1805  0.0798  0.3853
14536TIP3    H165099   0.551   5.256   5.065 -1.7187  0.3117 -2.9563
14536TIP3    H265100   0.473   5.370   5.126  0.5028 -0.0872  0.9604
14537TIP3   OH265101   1.038   6.573  12.733 -0.6206  0.8886  0.1706
14537TIP3    H165102   1.055   6.613  12.818 -0.0099  1.4988 -0.2274
14537TIP3    H265103   0.952   6.604  12.708 -1.6808 -0.8334  1.4205
14538TIP3   OH265104   0.022   4.741   5.312 -0.5669 -0.1870 -0.6449
14538TIP3    H165105  -0.004   4.663   5.360 -0.9752  0.0665 -0.4476
14538TIP3    H265106   0.113   4.726   5.288 -0.3012 -0.2406  0.3580
14539TIP3   OH265107   4.947   1.049   6.136 -0.1738 -0.4977  0.4107
14539TIP3    H165108   5.020   1.010   6.089 -1.3283 -0.6697 -1.3532
14539TIP3    H265109   4.964   1.143   6.133 -0.6164 -0.4321 -1.1571
14540TIP3   OH265110   5.011   2.352   5.669 -0.2483 -0.6678  0.0809
14540TIP3    H165111   5.022   2.418   5.737 -0.7074  0.6642 -1.0723
14540TIP3    H265112   4.947   2.391   5.609  0.7187 -1.4250 -1.5150
14541TIP3   OH265113   0.775   5.684   3.950 -0.1466  0.4790 -0.2477
14541TIP3    H165114   0.741   5.618   4.011  0.5455 -0.2308 -0.6044
14541TIP3    H265115   0.860   5.709   3.987  0.7916 -0.7760 -1.4676
14542TIP3   OH265116   3.790   4.193  15.068  0.4167 -0.0811  0.6890
14542TIP3    H165117   3.878   4.160  15.083 -0.5072 -2.0114  2.3279
14542TIP3    H265118   3.735   4.115  15.067 -1.2033  0.9906 -1.1574
14543TIP3   OH265119   6.713   4.120   2.625  0.2484  0.1618  0.3580
14543TIP3    H165120   6.663   4.056   2.574 -0.7143  0.5742  0.7661
14543TIP3    H265121   6.685   4.107   2.715  2.5312 -1.0991  0.9399
14544TIP3   OH265122   2.372   5.326   2.013 -0.4362 -0.3039 -0.0360
14544TIP3    H165123   2.456   5.372   2.006 -1.5820  2.0567  0.7406
14544TIP3    H265124   2.346   5.312   1.922 -0.2195  0.9931 -0.3254
14545TIP3   OH265125   4.445   5.533  15.238 -0.2560  0.8512  0.4233
14545TIP3    H165126   4.358   5.494  15.226  1.1752 -2.7402  0.5881
14545TIP3    H265127   4.492   5.513  15.157  1.0765  0.7590  1.1889
14546TIP3   OH265128   6.427   3.887  13.089 -0.2906  0.1182  0.3717
14546TIP3    H165129   6.355   3.833  13.121 -0.7911  0.8605  0.5365
14546TIP3    H265130   6.408   3.900  12.996  0.0783 -0.3663  0.2254
14547TIP3   OH265131   6.745   0.605  13.035  0.0666  0.1445  0.6760
14547TIP3    H165132   6.675   0.653  12.992 -0.1110  0.0251  0.8285
14547TIP3    H265133   6.800   0.672  13.075  1.7553  0.4711 -1.9262
14548TIP3   OH265134   5.566   5.705  13.453  0.6641 -0.5185  0.4563
14548TIP3    H165135   5.572   5.612  13.475  3.1463 -1.0956 -2.1969
14548TIP3    H265136   5.487   5.712  13.400  0.2446 -1.0061  0.9999
14549TIP3   OH265137   2.471   1.186  12.071 -0.0551 -0.1626  0.5038
14549TIP3    H165138   2.553   1.140  12.089  0.0035  0.3406  1.6323
14549TIP3    H265139   2.441   1.150  11.988 -0.0050 -2.2509  1.3105
14550TIP3   OH265140   2.730   2.968  16.597 -0.1112  0.4225 -0.7775
14550TIP3    H165141   2.784   2.895  16.567 -0.9210  0.1949 -1.7046
14550TIP3    H265142   2.780   3.006  16.670  1.4093  0.3555 -1.7379
14551TIP3   OH265143   6.603   1.648   2.429  0.8372 -0.1729 -0.6679
14551TIP3    H165144   6.664   1.655   2.502  0.7276 -0.8642 -0.5034
14551TIP3    H265145   6.524   1.694   2.459  1.1888  0.5368 -0.8010
14552TIP3   OH265146   4.351   0.912   2.887  0.4549  0.3134  0.0973
14552TIP3    H165147   4.380   0.838   2.833  1.8521  0.9516 -0.0569
14552TIP3    H265148   4.341   0.875   2.975  0.2651 -0.2510 -0.1565
14553TIP3   OH265149   5.418   5.327   3.850  0.1192 -0.4026 -0.6253
14553TIP3    H165150   5.504   5.359   3.877 -0.8012  0.4471  1.4952
14553TIP3    H265151   5.357   5.364   3.914 -1.9005 -0.6442 -2.3020
14554TIP3   OH265152   0.504   5.066   5.078  0.5943  0.0204 -0.5022
14554TIP3    H165153   0.519   5.082   5.171  2.2322  1.2020 -0.9330
14554TIP3    H265154   0.409   5.052   5.071 -0.1808  3.5781  0.8606
14555TIP3   OH265155   2.179   3.251  16.435  0.7466 -0.0213  0.1410
14555TIP3    H165156   2.197   3.335  16.393 -0.5007 -0.3030 -1.0065
14555TIP3    H265157   2.132   3.274  16.515  0.1467  0.3637 -0.3160
14556TIP3   OH265158   1.724   5.144  12.528 -0.3469 -0.1350  0.0162
14556TIP3    H165159   1.678   5.072  12.485 -1.0035 -1.1080  2.2122
14556TIP3    H265160   1.666   5.219  12.519  0.0223 -0.0180 -1.6713
14557TIP3   OH265161   4.080   2.860   2.509 -0.0711  0.5664  0.1949
14557TIP3    H165162   4.096   2.951   2.485  0.2262  0.7087  0.9044
14557TIP3    H265163   4.137   2.845   2.585 -0.1954 -0.1789  0.1484
14558TIP3   OH265164   2.908   2.173   4.671 -1.3116 -0.7332  0.1191
14558TIP3    H165165   2.886   2.259   4.635  1.4234  0.1221  0.2568
14558TIP3    H265166   2.866   2.171   4.756 -3.5085 -0.6211 -0.9064
14559TIP3   OH265167   3.567   2.100   3.716 -0.0616  0.3736  1.0343
14559TIP3    H165168   3.657   2.126   3.698  0.0365  0.0026  0.9834
14559TIP3    H265169   3.538   2.160   3.785  0.1409  0.6515  0.8826
14560TIP3   OH265170   5.524   2.916  15.794  0.0871  0.2523  0.5266
14560TIP3    H165171   5.619   2.922  15.807  0.1922 -2.8296  2.2936
14560TIP3    H265172   5.513   2.907  15.699  1.8466 -1.5035  0.4209
14561TIP3   OH265173   2.834   3.112  14.154 -0.1466 -0.5317  0.1614
14561TIP3    H165174   2.742   3.138  14.152 -0.0767 -0.3033 -1.1080
14561TIP3    H265175   2.881   3.192  14.178 -0.2578 -0.6097  0.6524
14562TIP3   OH265176   5.131   3.218  11.664  0.1700  0.3555  0.3718
14562TIP3    H165177   5.184   3.209  11.743  0.0498  0.2147  0.4379
14562TIP3    H265178   5.070   3.289  11.684 -0.0170  0.1621  0.4954
14563TIP3   OH265179   4.914   0.972   5.507 -0.1690  0.5744 -0.3636
14563TIP3    H165180   4.886   1.004   5.592  1.0228  1.2009 -0.1854
14563TIP3    H265181   4.900   1.045   5.447 -0.8679  0.1846 -0.6860
14564TIP3   OH265182   4.939   5.112   2.066 -0.4874 -0.0416  0.4263
14564TIP3    H165183   4.845   5.118   2.049 -0.4607 -3.1580 -1.5399
14564TIP3    H265184   4.946   5.061   2.146 -0.4395 -0.1051  0.3809
14565TIP3   OH265185   1.635   4.994   5.506 -0.3521  0.0588 -0.0905
14565TIP3    H165186   1.564   5.059   5.509  0.0058  0.5385 -1.4010
14565TIP3    H265187   1.634   4.962   5.416  2.4777  1.6781 -0.8252
14566TIP3   OH265188   6.024   3.870  13.860 -0.1118  0.0340 -0.0739
14566TIP3    H165189   6.045   3.957  13.827  1.6524 -0.8793 -1.5400
14566TIP3    H265190   6.104   3.819  13.849 -1.2524 -1.9462  0.1610
14567TIP3   OH265191   6.574   5.006  13.209  0.6180  0.0652 -0.1914
14567TIP3    H165192   6.618   4.943  13.268 -1.0653 -1.8776 -0.8753
14567TIP3    H265193   6.491   5.024  13.252 -0.1641 -0.5174 -1.4041
14568TIP3   OH265194   5.190   4.560  12.529 -0.5196  0.7747 -0.6652
14568TIP3    H165195   5.243   4.506  12.587  1.2699  1.8207 -1.2668
14568TIP3    H265196   5.148   4.624  12.587  0.5866  1.2838 -0.4061
14569TIP3   OH265197   5.396   3.528  16.509 -0.3333  0.1688  0.3872
14569TIP3    H165198   5.468   3.567  16.461 -2.5452  1.7198 -1.9364
14569TIP3    H265199   5.343   3.603  16.537 -2.0840 -0.9538  0.2048
14570TIP3   OH265200   6.714   5.088   2.752  0.5323  0.1443 -0.2329
14570TIP3    H165201   6.660   5.112   2.676  0.8791  1.7136 -0.0270
14570TIP3    H265202   6.751   5.003   2.730 -1.9681 -0.9696 -0.4015
14571TIP3   OH265203   2.531   3.819  11.392 -0.1604 -0.0818 -0.9399
14571TIP3    H165204   2.506   3.880  11.462  0.3139 -0.4871 -0.4113
14571TIP3    H265205   2.460   3.755  11.391  1.2751 -1.8811  1.3261
14572TIP3   OH265206   0.141   1.511  14.155 -0.2767 -0.1927  0.3862
14572TIP3    H165207   0.144   1.606  14.153 -0.5663 -0.1979 -0.3790
14572TIP3    H265208   0.224   1.483  14.118 -0.1258 -0.2383  0.7581
14573TIP3   OH265209   0.808   2.745   0.141  0.0596  0.2992 -0.0357
14573TIP3    H165210   0.740   2.698   0.093 -1.0100  1.3334  0.3939
14573TIP3    H265211   0.839   2.683   0.207 -0.3482 -0.2417 -0.3455
14574TIP3   OH265212   2.629   5.146   1.896  0.3019  0.2730  0.0482
14574TIP3    H165213   2.634   5.208   1.969  0.8061 -0.9867  1.1424
14574TIP3    H265214   2.557   5.087   1.921  1.8947 -1.4907  0.6454
14575TIP3   OH265215   0.967   5.747   3.590  0.4974 -0.0569  0.3158
14575TIP3    H165216   0.935   5.826   3.634 -0.9980 -0.7090  0.4684
14575TIP3    H265217   1.059   5.742   3.613  0.4331  1.2296  0.9342
14576TIP3   OH265218   3.052   6.131   4.173 -0.2055 -0.2536  0.0294
14576TIP3    H165219   3.118   6.079   4.219 -0.2146  0.6118  1.0563
14576TIP3    H265220   3.045   6.212   4.223  0.4923  1.1940 -2.0848
14577TIP3   OH265221   3.916   5.162  15.672 -0.4012 -0.1362  0.2513
14577TIP3    H165222   3.942   5.105  15.745  1.2805  1.5883  1.0839
14577TIP3    H265223   3.872   5.103  15.610 -2.3276 -1.5852  2.8140
14578TIP3   OH265224   3.386   3.275   3.223 -0.1380  0.0508 -0.7563
14578TIP3    H165225   3.294   3.302   3.232  0.1775  1.2198 -0.8257
14578TIP3    H265226   3.393   3.195   3.275 -0.7298  1.0793  0.9874
14579TIP3   OH265227   3.673   5.841  10.849 -0.3018  0.5191 -0.3193
14579TIP3    H165228   3.727   5.850  10.770 -1.2936 -1.3196 -1.2564
14579TIP3    H265229   3.589   5.809  10.818 -1.1081  0.8430  1.3906
14580TIP3   OH265230   5.555   0.950   5.641  0.2304  0.2329  0.1780
14580TIP3    H165231   5.562   1.031   5.591 -0.2451  0.3848  0.3492
14580TIP3    H265232   5.480   0.904   5.602 -0.2631  0.4371  0.8585
14581TIP3   OH265233   1.016   2.674  14.396 -0.5682 -0.0507  0.4988
14581TIP3    H165234   0.975   2.593  14.428 -1.0151  0.2532  0.6988
14581TIP3    H265235   0.988   2.680  14.305  0.4709 -0.7643  0.1062
14582TIP3   OH265236   5.896   4.833   3.222  0.1179  0.1818  0.4318
14582TIP3    H165237   5.819   4.802   3.269  0.2407 -0.8640 -0.0125
14582TIP3    H265238   5.895   4.784   3.140  2.0105 -0.9407  1.0024
14583TIP3   OH265239   0.281   2.710  11.529  0.1023  0.7637  0.5384
14583TIP3    H165240   0.249   2.798  11.548 -1.8101  0.4312 -0.8002
14583TIP3    H265241   0.308   2.676  11.615 -0.6500  2.0734  1.3444
14584TIP3   OH265242   3.258   6.805  17.178  0.2633 -0.3734  0.1934
14584TIP3    H165243   3.291   6.863  17.247 -0.2148 -0.7147  0.7169
14584TIP3    H265244   3.194   6.858  17.131  0.4127 -0.2179  0.1648
14585TIP3   OH265245   1.445   2.246  14.866 -0.2774 -0.0426 -0.0744
14585TIP3    H165246   1.487   2.210  14.788 -0.4034 -2.1299  0.7594
14585TIP3    H265247   1.496   2.213  14.939 -1.3125  0.2616  0.8169
14586TIP3   OH265248   5.779   5.789  14.384 -0.0713 -1.1630  0.5883
14586TIP3    H165249   5.788   5.858  14.319  1.4018 -1.4978  0.3868
14586TIP3    H265250   5.691   5.799  14.419  0.0443  0.6822  0.4221
14587TIP3   OH265251   6.106   0.879   4.856 -0.1375  0.0967  0.0117
14587TIP3    H165252   6.159   0.800   4.857 -0.3773 -0.1117 -1.4463
14587TIP3    H265253   6.163   0.946   4.818  0.0079  0.6064  1.0804
14588TIP3   OH265254   6.339   1.142  13.463 -0.4207 -0.0774 -0.0861
14588TIP3    H165255   6.297   1.218  13.504  0.3506 -0.8300  2.2319
14588TIP3    H265256   6.269   1.076  13.457 -1.0474  0.6772 -1.9522
14589TIP3   OH265257   4.397   5.408  13.943 -0.5140 -0.1125 -0.6011
14589TIP3    H165258   4.373   5.320  13.912 -0.7838 -0.3005  0.1218
14589TIP3    H265259   4.336   5.425  14.015 -0.2008  0.5070 -0.4790
14590TIP3   OH265260   4.842   3.232  15.319  0.1227  0.0037 -0.5196
14590TIP3    H165261   4.811   3.279  15.241 -0.9301  1.2853  0.6221
14590TIP3    H265262   4.913   3.286  15.354 -0.2737  0.1174  0.1246
14591TIP3   OH265263   0.442   2.482   2.342  0.5169  0.2958 -0.4041
14591TIP3    H165264   0.436   2.394   2.378 -0.8554  0.8511  0.8038
14591TIP3    H265265   0.442   2.469   2.247 -0.6625 -0.9545 -0.2537
14592TIP3   OH265266   4.562   4.793   0.196 -0.0361 -0.6214 -0.3503
14592TIP3    H165267   4.489   4.731   0.188 -1.2768  0.6719  0.3505
14592TIP3    H265268   4.542   4.860   0.131  2.0166 -1.5794 -2.0819
14593TIP3   OH265269   2.424   5.584   1.307 -0.0778 -0.2607  0.3550
14593TIP3    H165270   2.438   5.669   1.267 -1.8560 -1.1192 -2.4425
14593TIP3    H265271   2.345   5.595   1.360 -0.7503 -0.2748 -0.6041
14594TIP3   OH265272   3.165   6.601   4.366  0.3073 -0.1900  0.5025
14594TIP3    H165273   3.079   6.622   4.401 -0.3110  0.3719 -1.2468
14594TIP3    H265274   3.195   6.682   4.324  0.4610 -1.1078 -1.2739
14595TIP3   OH265275   5.866   1.225   6.296  0.0676  0.3957  0.4862
14595TIP3    H165276   5.828   1.308   6.325  2.7198  1.6466  0.6780
14595TIP3    H265277   5.948   1.218   6.345  0.2332 -2.0151 -0.0543
14596TIP3   OH265278   4.209   5.766   2.307  0.2380  0.1678 -0.9487
14596TIP3    H165279   4.204   5.673   2.285  0.0303 -0.4826  1.5220
14596TIP3    H265280   4.125   5.802   2.278  0.6977 -0.1604 -2.8004
14597TIP3   OH265281   5.805   2.893  16.336 -0.0140  0.1751 -0.2520
14597TIP3    H165282   5.804   2.957  16.406 -2.3139  0.2152 -0.2583
14597TIP3    H265283   5.856   2.820  16.371 -0.3069  0.5921  1.0908
14598TIP3   OH265284   6.192   6.249  12.953 -0.1565  0.3367 -0.0417
14598TIP3    H165285   6.118   6.194  12.930 -0.9912  1.6987 -0.7300
14598TIP3    H265286   6.263   6.218  12.897 -0.4149 -0.4540  0.0521
14599TIP3   OH265287   1.744   5.084  15.475  0.2325 -0.5585 -0.8584
14599TIP3    H165288   1.710   5.162  15.518  1.9793  0.6881 -1.6227
14599TIP3    H265289   1.666   5.032  15.454 -1.1667  1.8601 -1.9948
14600TIP3   OH265290   4.852   1.829   5.534  0.7832  0.6134  0.2258
14600TIP3    H165291   4.865   1.913   5.489  2.4803  0.1635 -0.2128
14600TIP3    H265292   4.911   1.834   5.609  1.5879 -0.5108 -0.3018
14601TIP3   OH265293   3.660   6.618   6.119  0.2228 -0.4712  0.8403
14601TIP3    H165294   3.743   6.571   6.114  0.2363 -0.4605  0.9605
14601TIP3    H265295   3.603   6.562   6.171 -0.0103 -0.7170  0.3267
14602TIP3   OH265296   1.243   0.302  17.181  0.0436  0.1293  0.2326
14602TIP3    H165297   1.321   0.256  17.151  0.0511  0.0503  0.3732
14602TIP3    H265298   1.173   0.272  17.123 -0.0458 -0.4063  0.6175
14603TIP3   OH265299   2.541   4.268   6.484 -0.3209  0.0363 -0.5671
14603TIP3    H165300   2.590   4.350   6.489 -0.6445  0.1943  0.1858
14603TIP3    H265301   2.450   4.295   6.479 -0.4866 -0.2769  0.5095
14604TIP3   OH265302   2.098   4.389   0.940 -0.2221  0.1655  0.0634
14604TIP3    H165303   2.109   4.454   0.871 -3.0709 -1.1734 -1.8514
14604TIP3    H265304   2.054   4.437   1.010  0.3333  0.9328 -0.0912
14605TIP3   OH265305   1.346   4.443  15.728  0.3226 -0.0842 -0.4035
14605TIP3    H165306   1.261   4.480  15.704  0.5769  1.3609  0.7708
14605TIP3    H265307   1.328   4.351  15.748 -1.2868  0.5418  1.3199
14606TIP3   OH265308   3.105   2.785  15.127 -0.9256  0.0092  0.3019
14606TIP3    H165309   3.093   2.874  15.094  0.3566 -0.0028 -0.2394
14606TIP3    H265310   3.075   2.789  15.218 -0.5232  1.0815  0.3968
14607TIP3   OH265311   6.391   1.218   2.024 -0.1987 -0.8237 -0.8250
14607TIP3    H165312   6.397   1.196   1.931  0.1360 -0.3691 -0.9128
14607TIP3    H265313   6.481   1.217   2.055 -0.0914  0.8378 -0.9431
14608TIP3   OH265314   1.987   6.466  15.006  0.1443  0.3150  0.6964
14608TIP3    H165315   2.082   6.458  15.014  0.1016 -0.0509  0.8357
14608TIP3    H265316   1.969   6.442  14.915  0.0588 -0.8294  1.0021
14609TIP3   OH265317   6.471   6.678  13.054  0.2193 -0.1829 -0.0002
14609TIP3    H165318   6.400   6.717  13.105  0.9760 -0.5949  1.4007
14609TIP3    H265319   6.477   6.733  12.976 -1.9576 -0.4382 -0.4134
14610TIP3   OH265320   0.606   3.099   3.977 -0.1541  0.2926  0.2760
14610TIP3    H165321   0.606   3.012   3.938  0.3324 -0.4150  1.7510
14610TIP3    H265322   0.693   3.108   4.015 -0.1404  1.5100 -0.0132
14611TIP3   OH265323   5.429   0.770   3.803 -0.5499  0.2004  0.3825
14611TIP3    H165324   5.443   0.718   3.724 -0.7290 -1.2773  1.2833
14611TIP3    H265325   5.372   0.715   3.858  1.0472  0.3731  2.3091
14612TIP3   OH265326   1.737   3.165  15.385  0.5838  0.0496  0.1612
14612TIP3    H165327   1.737   3.116  15.467  1.3673 -1.1628 -0.5445
14612TIP3    H265328   1.827   3.160  15.353  0.0717 -0.3840 -1.2821
14613TIP3   OH265329   4.116   6.330  11.693 -0.0961 -0.3590 -0.4949
14613TIP3    H165330   4.115   6.426  11.703 -0.5673 -0.4081 -0.0010
14613TIP3    H265331   4.208   6.307  11.692  0.0176  0.0238  0.2283
14614TIP3   OH265332   5.577   6.236   6.325 -0.2727 -0.7225  0.1177
14614TIP3    H165333   5.561   6.323   6.364 -0.1826 -0.2671 -0.8271
14614TIP3    H265334   5.506   6.226   6.262 -0.4912 -1.5095  0.4822
14615TIP3   OH265335   1.164   3.401  16.122 -0.1438  0.5607 -0.5095
14615TIP3    H165336   1.133   3.483  16.161  0.9192  0.4938  0.5180
14615TIP3    H265337   1.143   3.410  16.029 -1.6603  1.2353 -0.1450
14616TIP3   OH265338   0.897   6.757  13.685  0.1692  0.4039  0.5612
14616TIP3    H165339   0.930   6.691  13.747 -2.2834 -0.0094  1.5163
14616TIP3    H265340   0.967   6.822  13.681  0.7877 -0.0062  3.0860
14617TIP3   OH265341   0.674   4.114   3.082  0.2589  0.6435 -0.0346
14617TIP3    H165342   0.632   4.072   3.007  1.8623 -0.3087 -0.4342
14617TIP3    H265343   0.766   4.121   3.058  1.0352 -0.6831  2.2449
14618TIP3   OH265344   2.696   1.614   5.318  0.0576  0.0493  0.3945
14618TIP3    H165345   2.786   1.587   5.304  0.5303  1.4507  0.6288
14618TIP3    H265346   2.680   1.599   5.411  0.4601  0.9525  0.6165
14619TIP3   OH265347   3.993   2.414  17.161  0.1248  0.3141  0.2883
14619TIP3    H165348   4.034   2.499  17.179  0.5290  0.0411  0.6848
14619TIP3    H265349   4.062   2.350  17.180  0.4957 -0.0413 -1.9282
14620TIP3   OH265350   6.711   5.957   5.705  0.4414 -0.0291  0.2725
14620TIP3    H165351   6.678   5.896   5.771  0.1237  0.1136  0.2430
14620TIP3    H265352   6.807   5.951   5.714  0.4177 -0.5892  0.2145
14621TIP3   OH265353   6.254   1.597  14.668 -0.2502 -0.0486  0.0529
14621TIP3    H165354   6.209   1.637  14.594  2.4990  1.4976 -0.9540
14621TIP3    H265355   6.312   1.532  14.629  2.1035  1.5959  0.5844
14622TIP3   OH265356   0.219   2.195  13.235  0.1439 -0.1974  0.1693
14622TIP3    H165357   0.260   2.232  13.313  1.7991 -0.2351 -0.6386
14622TIP3    H265358   0.188   2.109  13.262  2.7178 -1.1799  0.2808
14623TIP3   OH265359   2.621   1.290   5.891  0.0200 -0.3725 -0.2174
14623TIP3    H165360   2.595   1.219   5.948  0.5449  1.2673  2.2048
14623TIP3    H265361   2.707   1.317   5.923 -0.1246  1.2760 -1.1011
14624TIP3   OH265362   5.573   2.645   3.628  0.0670  0.2099 -0.0352
14624TIP3    H165363   5.493   2.596   3.612 -0.0899  0.3276  0.3687
14624TIP3    H265364   5.637   2.579   3.654 -0.2231  0.2498  0.7910
14625TIP3   OH265365   0.805   4.399  11.034 -0.1270 -0.1024 -0.1376
14625TIP3    H165366   0.856   4.358  10.964 -1.9455  0.3868 -1.8392
14625TIP3    H265367   0.868   4.413  11.105  1.3079 -2.6007 -0.8090
14626TIP3   OH265368   0.030   1.693   4.323 -0.6575  0.6710 -0.2576
14626TIP3    H165369   0.052   1.766   4.381 -2.4489  1.0367  0.0077
14626TIP3    H265370   0.014   1.619   4.382  0.0067  0.3703 -0.4522
14627TIP3   OH265371   6.017   3.910   1.836  0.6543 -0.1785  0.3603
14627TIP3    H165372   6.011   3.892   1.929  0.3871 -0.3636  0.3083
14627TIP3    H265373   5.947   3.973   1.818  0.6662 -0.1881  0.2761
14628TIP3   OH265374   2.242   0.630  14.178  0.5142  0.1424  0.0412
14628TIP3    H165375   2.212   0.540  14.168  2.1680 -0.3511 -0.9986
14628TIP3    H265376   2.254   0.661  14.088  1.6015  0.7994  0.3942
14629TIP3   OH265377   6.271   2.986   0.087  0.4566  0.0975 -0.0212
14629TIP3    H165378   6.256   3.075   0.053  0.9646  0.4834  0.7275
14629TIP3    H265379   6.256   2.929   0.011 -1.0493  0.7122 -0.2240
14630TIP3   OH265380   1.132   1.862   1.792 -0.0739 -0.1650 -0.0211
14630TIP3    H165381   1.103   1.770   1.797 -0.7156 -0.0100 -0.7277
14630TIP3    H265382   1.065   1.905   1.739  0.6606  0.5429 -0.3878
14631TIP3   OH265383   3.801   0.037   1.993  0.1190  0.3981  0.0533
14631TIP3    H165384   3.767  -0.053   1.992  1.0827 -0.0388  1.9301
14631TIP3    H265385   3.746   0.083   2.056  0.8786  0.5849  0.5870
14632TIP3   OH265386   2.752   0.084   0.445  0.6964  0.7782 -0.2670
14632TIP3    H165387   2.661   0.096   0.417  0.4667 -0.0216  0.1007
14632TIP3    H265388   2.787   0.173   0.450  0.8044  0.9850 -3.1372
14633TIP3   OH265389   3.707   4.761   3.567  0.4008  0.5381  0.2224
14633TIP3    H165390   3.619   4.771   3.604  0.0337  0.2492 -0.5459
14633TIP3    H265391   3.696   4.697   3.497  1.5012 -0.5583  1.0246
14634TIP3   OH265392   4.270   2.081  12.730  0.0807  0.5230 -0.5165
14634TIP3    H165393   4.330   2.045  12.795  0.3209 -0.4424 -1.2498
14634TIP3    H265394   4.327   2.118  12.663 -0.1647  2.0719  0.0886
14635TIP3   OH265395   5.545   6.557   2.997 -0.3397  0.4549  0.0086
14635TIP3    H165396   5.567   6.575   2.906 -0.5138 -1.1295 -0.3844
14635TIP3    H265397   5.626   6.574   3.045  0.4363 -0.8352 -0.7748
14636TIP3   OH265398   5.951   2.440  12.602 -0.1471  0.3881  0.1648
14636TIP3    H165399   6.012   2.380  12.644  1.4219  2.2225  0.6453
14636TIP3    H265400   5.977   2.527  12.634 -0.5856  1.6011 -2.5315
14637TIP3   OH265401   6.416   5.082   0.836  0.5052  0.1565 -0.5774
14637TIP3    H165402   6.348   5.051   0.777 -0.1714  1.8802 -0.7327
14637TIP3    H265403   6.400   5.035   0.918 -0.6078  0.2326 -0.7423
14638TIP3   OH265404   4.164   0.428  16.284 -0.2225  0.1238 -0.2584
14638TIP3    H165405   4.168   0.349  16.337  0.5048  0.6445  0.4980
14638TIP3    H265406   4.072   0.455  16.287 -0.2868 -0.1547  0.2970
14639TIP3   OH265407   6.783   3.598  13.232 -0.3523  0.2467  0.0563
14639TIP3    H165408   6.748   3.679  13.194  0.8003  1.1964  0.9287
14639TIP3    H265409   6.785   3.537  13.159 -2.7927  0.4399 -0.2665
14640TIP3   OH265410   6.498   1.265   5.381  0.3880 -0.8868  0.3491
14640TIP3    H165411   6.430   1.317   5.422  1.3054 -0.2540  1.1182
14640TIP3    H265412   6.577   1.319   5.387  1.5100 -2.5571  1.6637
14641TIP3   OH265413   6.537   2.704   5.923  0.1850  0.2002 -0.0835
14641TIP3    H165414   6.472   2.663   5.981  1.4522 -1.1633  0.4451
14641TIP3    H265415   6.621   2.681   5.963  1.0036  2.1579 -0.5929
14642TIP3   OH265416   2.080   4.081   1.288 -0.3815 -0.5330 -0.5479
14642TIP3    H165417   2.119   3.995   1.275  0.8352 -0.3265  1.2643
14642TIP3    H265418   1.990   4.063   1.316 -0.1178 -1.2435 -0.1295
14643TIP3   OH265419   0.557   1.966  11.651  0.5871  1.0132 -0.3677
14643TIP3    H165420   0.531   2.054  11.624 -3.4458  0.5420  1.3353
14643TIP3    H265421   0.546   1.965  11.746  0.6017 -1.3108 -0.3292
14644TIP3   OH265422   3.821   4.306   4.084  0.4703  0.4292 -0.2836
14644TIP3    H165423   3.762   4.345   4.021  1.2231  1.4124 -0.4113
14644TIP3    H265424   3.898   4.280   4.033  0.0654 -1.1059 -0.1753
14645TIP3   OH265425   5.981   0.422   5.926  0.9244 -0.4951  0.3699
14645TIP3    H165426   5.927   0.477   5.983 -0.3204 -0.6270 -0.6473
14645TIP3    H265427   6.051   0.480   5.897  0.6732  0.0305  0.7805
14646TIP3   OH265428   1.310   6.389  13.491 -0.2611 -0.2443  0.2294
14646TIP3    H165429   1.383   6.329  13.504 -1.9104 -2.2213  0.9859
14646TIP3    H265430   1.307   6.442  13.570  0.7051  0.3297 -0.0928
14647TIP3   OH265431   3.903   3.995   5.804  0.4246 -0.0152 -0.5843
14647TIP3    H165432   3.872   4.020   5.717  0.4938  0.9264 -0.3427
14647TIP3    H265433   3.824   3.991   5.858  0.3062 -1.1812 -0.8123
14648TIP3   OH265434   3.302   3.487   2.168  0.0781 -0.2653 -0.2134
14648TIP3    H165435   3.379   3.437   2.140  0.4310 -0.4981  1.1312
14648TIP3    H265436   3.302   3.481   2.263  0.2633  2.5169  0.0476
14649TIP3   OH265437   4.298   5.371  17.019 -0.2606  0.3795 -0.2684
14649TIP3    H165438   4.266   5.288  16.983 -0.1269  0.7387 -1.2365
14649TIP3    H265439   4.230   5.398  17.081 -0.0090 -0.7537  0.5251
14650TIP3   OH265440   2.940   4.532   4.202  0.3000  0.1381 -0.1524
14650TIP3    H165441   2.950   4.438   4.216 -1.6813 -0.1559 -0.4286
14650TIP3    H265442   2.859   4.555   4.247  2.6670  2.5489  3.3131
14651TIP3   OH265443   3.161   5.110  16.716 -0.5080 -0.2237 -0.0631
14651TIP3    H165444   3.230   5.134  16.778 -1.7212 -0.1919  1.3371
14651TIP3    H265445   3.185   5.155  16.635  2.4668 -2.2294 -0.4611
14652TIP3   OH265446   6.017   2.533   1.690  0.1794  0.2436  0.1015
14652TIP3    H165447   5.935   2.580   1.676  0.4525  0.2631 -1.7383
14652TIP3    H265448   6.084   2.593   1.659  0.8024 -0.1784  0.6250
14653TIP3   OH265449   4.986   4.835   4.925 -0.1963 -0.0646  0.1823
14653TIP3    H165450   4.971   4.773   4.996  0.5849  0.5616  0.9065
14653TIP3    H265451   4.902   4.880   4.914 -0.0811  0.4866  1.3679
14654TIP3   OH265452   5.965   3.939  16.429 -0.1422  0.3627 -0.5416
14654TIP3    H165453   6.059   3.935  16.410 -0.4331 -0.6649 -1.9410
14654TIP3    H265454   5.937   4.024  16.395  0.1320  0.2969 -0.9466
14655TIP3   OH265455   0.862   2.455   0.175  0.3526  0.6121  0.0089
14655TIP3    H165456   0.818   2.388   0.227  1.8699  0.6292  1.4218
14655TIP3    H265457   0.806   2.468   0.099 -0.1579 -2.0346 -0.1568
14656TIP3   OH265458   6.540   4.884   1.833  0.0893  0.1216  0.6153
14656TIP3    H165459   6.568   4.845   1.915  1.8431 -0.5845 -0.2585
14656TIP3    H265460   6.466   4.830   1.805  1.3647 -1.5556  0.2976
14657TIP3   OH265461   2.444   2.933   3.623 -0.2720  0.1662  0.2304
14657TIP3    H165462   2.380   2.866   3.649 -1.1894  1.2940  0.9825
14657TIP3    H265463   2.506   2.935   3.695  0.2811 -0.4902 -0.2129
14658TIP3   OH265464   1.956   6.100   0.863 -0.3034  0.2188 -0.0930
14658TIP3    H165465   2.003   6.140   0.937  2.4866 -1.0874 -1.0071
14658TIP3    H265466   2.017   6.035   0.829 -2.4768 -0.9196 -2.0785
14659TIP3   OH265467   3.922   2.815  12.025  0.6054 -0.2393  1.1247
14659TIP3    H165468   3.851   2.862  11.981  1.6848  1.0046  0.6581
14659TIP3    H265469   3.949   2.874  12.095 -1.4921 -2.4147  4.0424
14660TIP3   OH265470   4.335   4.575  12.120 -0.5871 -0.0001  0.2417
14660TIP3    H165471   4.270   4.520  12.076  0.2461  0.8022 -2.1393
14660TIP3    H265472   4.315   4.565  12.213 -1.7323 -2.7070 -0.1934
14661TIP3   OH265473   0.695   5.261  13.695  0.0274 -0.1931  0.6141
14661TIP3    H165474   0.715   5.323  13.625  0.2674 -1.0233 -0.0615
14661TIP3    H265475   0.717   5.309  13.775  2.3115 -0.1352  0.0149
14662TIP3   OH265476   5.007   2.813  14.159 -0.4393 -0.3995 -0.5527
14662TIP3    H165477   4.931   2.872  14.162 -0.3234 -0.2356 -0.8500
14662TIP3    H265478   4.972   2.728  14.185 -0.2217  0.1858  1.8822
14663TIP3   OH265479   0.673   3.032  11.004  0.2672  0.1531 -0.1352
14663TIP3    H165480   0.650   3.035  10.911  1.4477  0.2708 -0.4309
14663TIP3    H265481   0.733   2.958  11.011  2.3755  1.7864  0.0065
14664TIP3   OH265482   4.538   4.337   6.606  0.3055  0.2404  0.0279
14664TIP3    H165483   4.626   4.357   6.637  0.6458 -0.2811 -0.5577
14664TIP3    H265484   4.551   4.262   6.547 -0.1659  1.7544 -2.0892
14665TIP3   OH265485   2.523   4.876  11.500  0.3086  0.6922 -0.5797
14665TIP3    H165486   2.542   4.851  11.590  0.0480 -4.1016 -1.5438
14665TIP3    H265487   2.593   4.836  11.449 -2.0574 -1.0506 -2.7603
14666TIP3   OH265488   2.523   6.320   1.519  0.6783 -0.3258  0.1402
14666TIP3    H165489   2.506   6.414   1.513  0.8984 -0.3668 -1.4345
14666TIP3    H265490   2.552   6.307   1.609 -0.7450  0.8702  0.8198
14667TIP3   OH265491   1.705   0.388   0.914  0.7098 -0.0785  0.3397
14667TIP3    H165492   1.656   0.359   0.991  0.5220  0.1179  0.2958
14667TIP3    H265493   1.658   0.465   0.883  2.8396  2.1153  2.1598
14668TIP3   OH265494   2.277   4.912   3.851  0.4933 -0.1596  0.3573
14668TIP3    H165495   2.342   4.915   3.781 -0.8032 -0.1919 -0.9116
14668TIP3    H265496   2.327   4.922   3.932  2.0976 -0.5953 -0.5382
14669TIP3   OH265497   5.515   6.695  13.908 -0.3575 -0.1231  0.2017
14669TIP3    H165498   5.525   6.769  13.849  0.0128 -0.3086  0.0266
14669TIP3    H265499   5.441   6.646  13.873  0.5081 -0.8149 -0.7599
14670TIP3   OH265500   3.316   6.368  12.464 -0.2910 -0.4766  0.1310
14670TIP3    H165501   3.237   6.407  12.501 -0.2973 -0.6770  0.3289
14670TIP3    H265502   3.290   6.339  12.376 -0.0221  0.8892 -0.4295
14671TIP3   OH265503   0.830   2.374   4.288  0.5134  0.0092  0.0211
14671TIP3    H165504   0.835   2.336   4.200 -2.2190  0.5599 -0.4415
14671TIP3    H265505   0.752   2.334   4.327 -0.1863  2.1786  0.9797
14672TIP3   OH265506   5.185   4.024  13.042 -0.2595  0.0678 -0.2456
14672TIP3    H165507   5.131   3.960  12.997 -0.8019  1.1413 -1.1424
14672TIP3    H265508   5.266   3.977  13.061 -0.3800 -0.6924 -1.5024
14673TIP3   OH265509   5.001   2.072  13.986 -0.0771  0.7708 -0.9855
14673TIP3    H165510   5.043   2.003  13.934  0.9768  0.5487  0.1142
14673TIP3    H265511   4.912   2.077  13.951 -0.8085 -2.4239  0.0439
14674TIP3   OH265512   2.722   5.927   2.305 -0.3243  0.1045  0.4467
14674TIP3    H165513   2.792   5.983   2.337 -1.4796 -0.1497  3.7512
14674TIP3    H265514   2.760   5.881   2.231  2.1353  1.8305  0.5403
14675TIP3   OH265515   4.459   3.581   0.100  0.9472  0.2687  0.0983
14675TIP3    H165516   4.525   3.566   0.168  1.4875  0.6128 -0.3410
14675TIP3    H265517   4.474   3.512   0.035 -0.7141 -1.1688  1.1438
14676TIP3   OH265518   4.922   4.031  12.799 -0.1687  0.0517  0.3092
14676TIP3    H165519   4.962   3.954  12.758  0.5684 -0.2657  1.5733
14676TIP3    H265520   4.976   4.104  12.770 -1.3891  0.2687 -1.6115
14677TIP3   OH265521   1.018   1.660  14.688 -0.5807 -0.5767 -0.3429
14677TIP3    H165522   0.982   1.571  14.689  0.3786 -1.1512  3.7804
14677TIP3    H265523   0.941   1.716  14.695 -1.1149 -1.5057  2.7065
14678TIP3   OH265524   3.435   2.567  12.370 -0.0689 -0.2346 -0.6231
14678TIP3    H165525   3.462   2.521  12.291 -1.6381 -0.8265 -0.8592
14678TIP3    H265526   3.354   2.612  12.344  1.3168  2.6442 -0.3875
14679TIP3   OH265527   4.211   5.481  14.372  0.1643 -0.0495  0.8245
14679TIP3    H165528   4.155   5.515  14.441 -0.9666 -1.8875  0.8859
14679TIP3    H265529   4.264   5.414  14.415 -1.9393 -2.6613 -0.3221
14680TIP3   OH265530   3.271   2.452   5.230 -0.2862  0.0881  0.0404
14680TIP3    H165531   3.247   2.368   5.268 -1.9636 -0.0490 -1.2083
14680TIP3    H265532   3.201   2.471   5.168  0.0111  2.4654  0.3540
14681TIP3   OH265533   2.597   6.056  12.056  0.0243 -0.1612  0.7492
14681TIP3    H165534   2.663   6.017  12.114  1.9600  0.7273 -0.7255
14681TIP3    H265535   2.626   6.147  12.046 -0.9956  0.0469 -0.5493
14682TIP3   OH265536   3.308   3.931  12.449  0.7015  0.0918  0.1369
14682TIP3    H165537   3.318   3.899  12.359 -0.6426  1.8316 -0.6799
14682TIP3    H265538   3.214   3.942  12.461  0.9587  1.2475  1.2721
14683TIP3   OH265539   4.151   2.048  11.488  0.1504 -0.6187 -0.1617
14683TIP3    H165540   4.154   2.089  11.575  1.3272 -0.3255 -0.3237
14683TIP3    H265541   4.092   2.103  11.438  0.5517  0.0289  0.0624
14684TIP3   OH265542   0.032   6.666  14.657 -1.6124  0.4568 -0.0221
14684TIP3    H165543   0.025   6.592  14.596 -1.2500  0.8997 -0.6077
14684TIP3    H265544   0.044   6.742  14.600  1.9337  0.5389  0.6225
14685TIP3   OH265545   0.228   2.523  15.191 -0.1691  0.4056 -0.0086
14685TIP3    H165546   0.244   2.586  15.261  1.8709  0.1142 -0.1399
14685TIP3    H265547   0.158   2.561  15.139  0.0353  1.8721  0.7358
14686TIP3   OH265548   6.228   6.269   2.097  0.4096 -0.0654 -0.7892
14686TIP3    H165549   6.231   6.255   2.192  0.0382  1.1937 -0.5718
14686TIP3    H265550   6.303   6.324   2.078  0.3097 -0.0604 -1.1826
14687TIP3   OH265551   3.299   3.274   0.280  0.5145 -0.1137 -0.7417
14687TIP3    H165552   3.383   3.319   0.286  1.4424 -1.3504 -3.1600
14687TIP3    H265553   3.280   3.246   0.370  1.7676  1.6874  0.1545
14688TIP3   OH265554   6.021   6.166  16.580  0.0489 -0.2363  0.9114
14688TIP3    H165555   5.970   6.229  16.529 -0.6985 -0.3924  1.4590
14688TIP3    H265556   5.961   6.133  16.646 -0.1763 -2.8929 -0.4667
14689TIP3   OH265557   6.361   3.344  15.645  0.4957  1.4634 -0.5512
14689TIP3    H165558   6.317   3.393  15.715  2.7376  0.4155  1.7457
14689TIP3    H265559   6.316   3.260  15.642  0.1812  1.6334 -0.6054
14690TIP3   OH265560   2.816   1.635  14.170  0.5583 -0.2450 -0.2281
14690TIP3    H165561   2.847   1.609  14.084  0.9629 -2.0111  0.4091
14690TIP3    H265562   2.787   1.554  14.211  1.7375  0.2870  1.8436
14691TIP3   OH265563   5.900   3.065   1.668 -0.4102 -0.1099  0.5046
14691TIP3    H165564   5.934   3.012   1.596 -0.4268 -0.9247  1.0837
14691TIP3    H265565   5.911   3.011   1.746 -0.8893  0.5411  1.0437
14692TIP3   OH265566   6.485   1.154   1.044  0.0332  0.0266 -0.5576
14692TIP3    H165567   6.507   1.090   0.976 -0.9898  0.5547 -1.4228
14692TIP3    H265568   6.556   1.218   1.041 -0.4289  0.5156 -1.7672
14693TIP3   OH265569   2.226   2.769  16.962  0.6396  0.6002 -0.3458
14693TIP3    H165570   2.151   2.810  16.918 -1.5078 -1.7052  0.8802
14693TIP3    H265571   2.222   2.802  17.052  1.4484  0.8589 -0.3988
14694TIP3   OH265572   0.030   4.004  14.522  0.2158  0.2712  0.3508
14694TIP3    H165573   0.039   3.913  14.551  0.0617  0.7759  2.1247
14694TIP3    H265574  -0.048   4.035  14.568  0.9401  1.6274  0.7093
14695TIP3   OH265575   3.230   6.623   1.731  0.3722 -0.3235 -0.3380
14695TIP3    H165576   3.319   6.614   1.765  0.3002  1.8240  0.5634
14695TIP3    H265577   3.242   6.661   1.644  0.3475 -1.3828 -0.8305
14696TIP3   OH265578   4.653   4.335  13.752  0.3547 -0.7168 -0.1663
14696TIP3    H165579   4.620   4.423  13.731 -0.1314 -0.7485  0.4316
14696TIP3    H265580   4.744   4.349  13.778  0.3385 -0.4147 -0.2690
14697TIP3   OH265581   3.131   1.237   5.845  0.1588  0.3446  0.0156
14697TIP3    H165582   3.108   1.228   5.753  0.8545 -1.1229 -0.0443
14697TIP3    H265583   3.226   1.249   5.846  0.0942  0.8559  0.5205
14698TIP3   OH265584   4.235   6.795  14.228  0.2951  0.1162  0.5495
14698TIP3    H165585   4.142   6.779  14.209  0.6991 -1.3290 -0.3771
14698TIP3    H265586   4.271   6.709  14.249  1.6111  0.5054  0.0264
14699TIP3   OH265587   1.057   0.011   3.716 -0.1715 -0.2296 -0.2375
14699TIP3    H165588   1.111   0.068   3.662 -1.7089 -0.3089 -1.9344
14699TIP3    H265589   0.976  -0.001   3.666 -0.6313 -2.4238  0.8998
14700TIP3   OH265590   5.189   1.041   5.705 -0.7874  0.5909  0.0730
14700TIP3    H165591   5.131   0.964   5.700 -0.7994  0.6708 -2.9891
14700TIP3    H265592   5.138   1.107   5.751 -2.7786  0.2870 -1.5414
14701TIP3   OH265593   3.729   6.653   2.569  0.1507  0.0395  0.1193
14701TIP3    H165594   3.819   6.627   2.585  1.7011  3.4083 -2.1725
14701TIP3    H265595   3.702   6.600   2.493 -0.3888 -1.9460  1.6204
14702TIP3   OH265596   4.180   1.796  11.066  0.2817 -0.5554  0.3416
14702TIP3    H165597   4.091   1.816  11.037  0.1042  1.6494  2.0751
14702TIP3    H265598   4.169   1.752  11.151  0.8527 -1.8432 -0.2228
14703TIP3   OH265599   2.576   0.385  12.574 -0.3134  0.3407 -0.4126
14703TIP3    H165600   2.642   0.398  12.641  2.3658  0.7405 -2.9489
14703TIP3    H265601   2.603   0.440  12.501 -2.7803 -0.4368 -2.0667
14704TIP3   OH265602   1.853   6.052  14.617 -0.0726 -0.3397  0.8590
14704TIP3    H165603   1.760   6.071  14.628 -0.5308 -1.5308 -0.6414
14704TIP3    H265604   1.888   6.130  14.574 -0.4572 -0.0574  1.0458
14705TIP3   OH265605   3.808   2.748   2.749  0.1067 -0.2642 -0.4174
14705TIP3    H165606   3.742   2.708   2.806  0.3133 -1.0432 -0.7138
14705TIP3    H265607   3.766   2.751   2.663 -0.4596  1.5256 -0.1282
14706TIP3   OH265608   0.057   6.473   0.689  0.1876  0.2453  0.3421
14706TIP3    H165609   0.015   6.505   0.769 -2.3363 -1.9497  0.0236
14706TIP3    H265610  -0.015   6.467   0.625  1.0214 -3.0598 -0.4691
14707TIP3   OH265611   2.401   4.552  11.820 -0.1951  0.1491 -0.2786
14707TIP3    H165612   2.435   4.638  11.794 -0.0428 -0.2262 -1.3787
14707TIP3    H265613   2.384   4.507  11.737 -0.0625 -0.9629  0.2822
14708TIP3   OH265614   1.344   1.773  11.922 -0.2919 -0.1759 -0.1136
14708TIP3    H165615   1.250   1.769  11.902  0.1931  0.2666 -2.9021
14708TIP3    H265616   1.354   1.852  11.975 -1.5792 -0.7694  1.1067
14709TIP3   OH265617   0.848   2.331   1.397 -0.2109  0.0487 -0.2390
14709TIP3    H165618   0.787   2.283   1.340 -0.4123 -0.0602  0.0631
14709TIP3    H265619   0.806   2.330   1.482  1.8246 -3.1971  0.9201
14710TIP3   OH265620   3.477   5.361   2.453  0.0954  0.8757  0.2974
14710TIP3    H165621   3.520   5.409   2.523  1.0544  2.0124 -1.0020
14710TIP3    H265622   3.545   5.351   2.386  0.3529 -3.3734  0.9223
14711TIP3   OH265623   3.589   1.879   0.072 -0.0399 -0.5558 -0.2546
14711TIP3    H165624   3.576   1.814   0.141  3.1432 -0.2002  0.8517
14711TIP3    H265625   3.598   1.827  -0.008 -2.8711 -1.0181 -0.3900
14712TIP3   OH265626   1.549   3.077   2.711  0.2067  0.0215 -0.8111
14712TIP3    H165627   1.504   3.119   2.785  1.0556 -1.7074  0.7722
14712TIP3    H265628   1.478   3.051   2.652 -0.9567 -2.1120  1.3375
14713TIP3   OH265629   6.055   3.118   6.156 -0.1676  0.1578 -0.1420
14713TIP3    H165630   5.982   3.133   6.216 -0.5630 -0.2034 -0.5242
14713TIP3    H265631   6.016   3.071   6.083  0.3218  0.5630 -0.6672
14714TIP3   OH265632   0.253   1.178   5.550 -0.0222 -0.6511  0.0566
14714TIP3    H165633   0.164   1.179   5.585  0.2470 -1.4910  0.7868
14714TIP3    H265634   0.291   1.261   5.578  0.1051 -1.1932  1.5509
14715TIP3   OH265635   4.569   2.333   0.165  0.3162 -0.2689 -1.1086
14715TIP3    H165636   4.549   2.294   0.250  0.6397 -0.1318 -0.9709
14715TIP3    H265637   4.610   2.417   0.185 -0.0002 -0.0387 -1.4029
14716TIP3   OH265638   4.049   2.152  12.862  0.3547  0.4485  0.5791
14716TIP3    H165639   4.127   2.120  12.816  0.3463 -0.9554  1.4842
14716TIP3    H265640   4.029   2.235  12.819  3.2147  1.6187  1.2364
14717TIP3   OH265641   3.505   3.672   4.240 -0.3661 -0.7801  0.2274
14717TIP3    H165642   3.448   3.739   4.202 -1.0120 -0.8491  1.0501
14717TIP3    H265643   3.546   3.715   4.315 -0.5026 -1.1959  0.5425
14718TIP3   OH265644   4.350   2.999   0.993 -1.0933 -0.3215 -0.0908
14718TIP3    H165645   4.325   3.092   0.995  1.7249  0.5300  1.2617
14718TIP3    H265646   4.289   2.956   1.053 -0.7434  1.2240  1.4627
14719TIP3   OH265647   3.122   5.720  13.270  0.0437  0.2622  0.5838
14719TIP3    H165648   3.203   5.763  13.242  0.1177 -0.5278 -0.4856
14719TIP3    H265649   3.085   5.684  13.189 -0.4365 -0.9492  1.3173
14720TIP3   OH265650   4.565   2.251   3.189 -0.3490  0.5819  0.2616
14720TIP3    H165651   4.623   2.277   3.118 -0.6074  0.4708  0.0092
14720TIP3    H265652   4.606   2.287   3.268  1.0037 -0.9470  0.3148
14721TIP3   OH265653   4.252   6.185   4.103  0.0432 -1.0861 -0.2459
14721TIP3    H165654   4.216   6.258   4.152  0.9190 -2.2431  2.2921
14721TIP3    H265655   4.320   6.224   4.047 -2.1172  0.4997 -1.9562
14722TIP3   OH265656   1.755   1.456   0.029 -0.7872 -0.1186  0.2284
14722TIP3    H165657   1.844   1.434   0.054 -0.8405 -1.0343 -0.3419
14722TIP3    H265658   1.747   1.549   0.048  0.1126 -0.1471  0.7883
14723TIP3   OH265659   4.290   0.335  13.160  0.2339 -0.0498 -0.0093
14723TIP3    H165660   4.216   0.369  13.110  1.7633  1.6637 -1.2423
14723TIP3    H265661   4.364   0.339  13.099  1.5393 -0.8781  1.4418
14724TIP3   OH265662   0.738   4.563  12.293 -0.0783  0.1598  0.3877
14724TIP3    H165663   0.723   4.629  12.360 -0.7433  0.6568 -0.2267
14724TIP3    H265664   0.688   4.487  12.322  1.0947 -0.2747  1.3536
14725TIP3   OH265665   5.477   3.474   1.673  0.3602 -0.2148  0.2795
14725TIP3    H165666   5.406   3.532   1.645  0.5342 -0.3118 -0.3750
14725TIP3    H265667   5.458   3.391   1.631  1.1217 -0.1111 -0.2920
14726TIP3   OH265668   2.006   1.172  11.500 -0.0942 -0.1897  0.7278
14726TIP3    H165669   1.946   1.114  11.452 -1.0477  3.1879 -2.7160
14726TIP3    H265670   2.087   1.171  11.448  0.2669  0.6500  1.2514
14727TIP3   OH265671   0.635   6.257  14.440 -0.4566  0.4616 -0.0404
14727TIP3    H165672   0.616   6.244  14.533  0.2593  1.5462  0.2820
14727TIP3    H265673   0.713   6.313  14.439 -0.1021 -0.0177 -1.2992
14728TIP3   OH265674   6.023   2.507  16.523  0.5553  0.7936  0.4306
14728TIP3    H165675   5.975   2.435  16.482  0.3404  2.4720 -2.5634
14728TIP3    H265676   6.112   2.475  16.531  1.2687  1.0874 -3.9568
14729TIP3   OH265677   5.137   2.195   3.124  0.7027  0.9206  0.2936
14729TIP3    H165678   5.093   2.215   3.041  0.0494  0.5755  0.5512
14729TIP3    H265679   5.185   2.114   3.106 -0.0072  0.4525  0.4410
14730TIP3   OH265680   2.103   2.899  12.896  0.5180  0.0635 -0.4223
14730TIP3    H165681   2.195   2.875  12.894  1.0204  1.8833 -0.9162
14730TIP3    H265682   2.060   2.826  12.941  2.3491 -0.2683  0.8689
14731TIP3   OH265683   3.225   4.729  10.563 -0.4366  0.2839 -0.3938
14731TIP3    H165684   3.199   4.641  10.593  1.3052 -0.8391 -1.9422
14731TIP3    H265685   3.142   4.777  10.555 -1.4433 -1.2061  0.4659
14732TIP3   OH265686   1.020   1.052   4.233 -0.2771 -0.3578  0.2547
14732TIP3    H165687   0.927   1.036   4.224 -0.5584  0.4334  1.5183
14732TIP3    H265688   1.059   0.965   4.240 -1.4660 -0.7496  4.4524
14733TIP3   OH265689   3.267   3.557   3.378  0.4067  0.0326 -0.4245
14733TIP3    H165690   3.267   3.642   3.423 -1.7890  0.0022 -0.3021
14733TIP3    H265691   3.223   3.574   3.294 -0.7723 -1.1224 -0.0702
14734TIP3   OH265692   6.007   2.897   4.061 -0.0453 -0.1055  0.0480
14734TIP3    H165693   5.933   2.935   4.013  0.6591 -1.2348 -2.0916
14734TIP3    H265694   6.074   2.966   4.059 -0.1103 -0.0495 -0.3941
14735TIP3   OH265695   3.817   5.012  15.422 -0.4086  0.2348  0.4881
14735TIP3    H165696   3.744   5.074  15.415  1.7170  2.8022 -1.6792
14735TIP3    H265697   3.826   4.977  15.333  1.2784  0.4425  0.5419
14736TIP3   OH265698   4.582   4.466  10.765 -0.2304 -0.6137 -0.4338
14736TIP3    H165699   4.652   4.521  10.802 -1.9210  1.6421 -0.4153
14736TIP3    H265700   4.551   4.414  10.839 -1.0070  1.0791  0.4800
14737TIP3   OH265701   4.311   4.099   3.191 -0.3895  0.1140 -0.3947
14737TIP3    H165702   4.342   4.167   3.131 -0.3899  0.6392  0.1884
14737TIP3    H265703   4.387   4.043   3.206  0.0360  0.8515  0.2902
14738TIP3   OH265704   0.459   5.282  15.456 -0.4466  0.1017  0.0630
14738TIP3    H165705   0.422   5.205  15.413  1.0208 -1.0413  0.7517
14738TIP3    H265706   0.531   5.308  15.399 -0.7673  0.8086 -0.0218
14739TIP3   OH265707   2.279   6.701   1.632 -0.0707  0.5124 -0.4953
14739TIP3    H165708   2.335   6.658   1.567 -1.1263  0.2154 -1.2288
14739TIP3    H265709   2.296   6.794   1.620 -0.7737  0.4990 -1.7015
14740TIP3   OH265710   2.493   5.740  13.458 -0.0105  0.2222  0.3766
14740TIP3    H165711   2.543   5.804  13.508  0.0214  0.2196  0.3481
14740TIP3    H265712   2.512   5.760  13.367 -0.2975  0.4120  0.3574
14741TIP3   OH265713   5.562   6.298  15.225  0.3395 -0.0049  0.1360
14741TIP3    H165714   5.541   6.321  15.134 -1.9212  1.7287  1.0007
14741TIP3    H265715   5.613   6.371  15.257 -1.1336  0.6909  0.9811
14742TIP3   OH265716   5.696   6.381  13.663 -0.4576 -0.0592  0.2619
14742TIP3    H165717   5.645   6.455  13.629  0.4108  0.8012  0.7654
14742TIP3    H265718   5.732   6.413  13.746  0.2668 -0.9172  0.2915
14743TIP3   OH265719   6.461   3.772   3.405 -0.5191 -0.6085  0.4291
14743TIP3    H165720   6.449   3.849   3.350  0.8713 -1.6967 -1.5453
14743TIP3    H265721   6.469   3.806   3.494 -0.2729  1.4841 -0.3421
14744TIP3   OH265722   1.733   4.784  13.251  0.1421 -0.0222  0.4127
14744TIP3    H165723   1.750   4.877  13.263  0.0698  0.0383  0.0646
14744TIP3    H265724   1.812   4.740  13.284 -0.2846  0.0924  1.6607
14745TIP3   OH265725   4.036   0.348  10.481  0.7069  0.6620 -0.2257
14745TIP3    H165726   4.094   0.283  10.520 -0.4475 -0.7526 -0.7743
14745TIP3    H265727   3.949   0.309  10.486  0.2379  1.2739 -2.3548
14746TIP3   OH265728   0.516   5.433   6.193 -0.1185 -0.1066 -0.5549
14746TIP3    H165729   0.434   5.399   6.227 -0.1472  0.0430 -0.4737
14746TIP3    H265730   0.501   5.527   6.182  0.2571  0.0380  0.1090
14747TIP3   OH265731   0.447   4.670   0.732 -0.2848  0.0749 -0.7191
14747TIP3    H165732   0.479   4.759   0.744  0.4441 -0.0694 -1.5171
14747TIP3    H265733   0.437   4.660   0.637  0.8763 -1.1001 -0.7505
14748TIP3   OH265734   4.246   5.056  14.999  0.6195 -0.4182 -0.1539
14748TIP3    H165735   4.287   4.971  15.016  0.9475 -0.2878 -0.2915
14748TIP3    H265736   4.197   5.075  15.079  0.4005 -0.8172 -0.1873
14749TIP3   OH265737   5.949   6.673   3.396  0.0524 -0.4625  0.7235
14749TIP3    H165738   5.962   6.716   3.481 -0.4615 -2.7382  2.0165
14749TIP3    H265739   5.982   6.584   3.409  0.6395 -0.6673 -1.7136
14750TIP3   OH265740   3.875   1.214  12.103  0.1506 -0.3569 -0.6704
14750TIP3    H165741   3.957   1.245  12.066 -0.3661 -0.3378 -1.8398
14750TIP3    H265742   3.810   1.278  12.074 -0.4075 -0.8118 -0.4375
14751TIP3   OH265743   4.898   6.512  13.234 -0.0696 -0.0856  0.7370
14751TIP3    H165744   4.886   6.418  13.251  1.1986 -1.1674 -3.2439
14751TIP3    H265745   4.814   6.541  13.200  0.2643 -0.5293 -0.5360
14752TIP3   OH265746   5.023   3.672   4.407  0.4388 -0.3206 -0.4728
14752TIP3    H165747   5.057   3.679   4.318 -0.0801 -0.8209 -0.7217
14752TIP3    H265748   5.045   3.756   4.448 -0.6425  0.5366 -1.5471
14753TIP3   OH265749   5.200   0.006  14.160 -0.7767  0.5312  0.4352
14753TIP3    H165750   5.279  -0.032  14.199 -0.5541  0.0208 -0.4772
14753TIP3    H265751   5.128  -0.026  14.214 -0.2952  2.0442  2.0795
14754TIP3   OH265752   5.241   0.223  13.260  0.3687 -0.3332  0.3015
14754TIP3    H165753   5.191   0.269  13.328  1.2403  0.5154  0.3879
14754TIP3    H265754   5.300   0.165  13.309  0.0902 -0.6951  0.2185
14755TIP3   OH265755   0.423   4.504   4.698 -0.6339 -0.1840  0.0439
14755TIP3    H165756   0.407   4.595   4.721 -1.1672  0.0811 -1.3148
14755TIP3    H265757   0.454   4.506   4.608  3.2536 -1.0332  1.1616
14756TIP3   OH265758   3.262   2.619   2.637  0.0133  0.2843 -0.2955
14756TIP3    H165759   3.315   2.656   2.709  0.0393  0.8743 -0.6076
14756TIP3    H265760   3.322   2.561   2.591  0.0910  0.1513 -0.0309
14757TIP3   OH265761   1.469   6.455  13.078  0.3950 -0.2922  0.2029
14757TIP3    H165762   1.517   6.441  12.997  1.2024  1.6258  0.2927
14757TIP3    H265763   1.519   6.407  13.144  2.5875  2.0123  0.3809
14758TIP3   OH265764   5.983   0.377  10.940  0.4888 -0.0834 -0.0211
14758TIP3    H165765   6.000   0.427  10.860  2.5245  1.4697  1.2897
14758TIP3    H265766   5.952   0.442  11.003 -1.0299 -1.2745  0.5409
14759TIP3   OH265767   6.006   2.775  16.451 -0.1195 -0.5131 -0.1284
14759TIP3    H165768   6.099   2.795  16.445 -0.4125  1.5325  1.0460
14759TIP3    H265769   6.002   2.680  16.465  1.8340 -0.4940  0.8451
14760TIP3   OH265770   6.479   4.997   2.363 -0.5286  0.7195  0.4746
14760TIP3    H165771   6.559   5.025   2.317 -1.4098  1.7122 -0.5067
14760TIP3    H265772   6.471   5.059   2.436  0.4420 -0.3701  1.5415
14761TIP3   OH265773   5.548   6.128   1.139  0.8370 -0.5726  0.0418
14761TIP3    H165774   5.534   6.099   1.049  0.0713 -1.6040  0.4785
14761TIP3    H265775   5.611   6.066   1.176  0.1226 -0.9776  0.6109
14762TIP3   OH265776   5.569   6.023   3.902 -0.1003  0.2542 -0.1977
14762TIP3    H165777   5.503   6.037   3.970  1.0093 -1.3512  1.3143
14762TIP3    H265778   5.527   5.966   3.839  0.0600 -1.6164  1.2797
14763TIP3   OH265779   0.949   1.957  13.191 -0.3283 -0.0526  0.5043
14763TIP3    H165780   1.003   1.973  13.269  2.1309 -0.0510 -1.1112
14763TIP3    H265781   0.878   1.901  13.223  0.8791 -0.4892  2.6340
14764TIP3   OH265782   5.996   2.994   2.867 -0.2005 -0.2087  0.6535
14764TIP3    H165783   6.055   3.008   2.941 -0.8420  0.1372  1.1139
14764TIP3    H265784   5.957   3.080   2.850  0.8011 -0.0088 -0.8596
14765TIP3   OH265785   0.735   1.338   0.762 -0.7809  0.4548 -0.0670
14765TIP3    H165786   0.666   1.398   0.731  0.2909  1.6652 -0.1984
14765TIP3    H265787   0.812   1.394   0.773  0.2260 -0.8964 -0.0373
14766TIP3   OH265788   3.542   3.075   5.221  0.3156 -0.0754  0.9060
14766TIP3    H165789   3.468   3.018   5.199 -0.2817  1.4410 -1.3554
14766TIP3    H265790   3.501   3.150   5.265  0.2550  1.2691 -1.2786
14767TIP3   OH265791   3.196   5.553   4.516 -0.2221  0.2422  0.2635
14767TIP3    H165792   3.283   5.517   4.528  0.2221  1.0948 -0.2606
14767TIP3    H265793   3.207   5.647   4.528 -1.0155  0.3915 -0.0806
14768TIP3   OH265794   2.084   5.874   1.274  0.0897 -0.5123  0.6526
14768TIP3    H165795   1.997   5.861   1.312  0.4400 -0.5331  1.4681
14768TIP3    H265796   2.102   5.792   1.229 -0.6940 -0.1692 -0.3187
14769TIP3   OH265797   2.442   4.553  11.500 -0.0067  0.2189  0.6505
14769TIP3    H165798   2.416   4.503  11.423 -1.3149  0.4827  0.8991
14769TIP3    H265799   2.434   4.645  11.472 -1.1943  0.3332  1.2848
14770TIP3   OH265800   3.465   4.338  16.998  0.4110 -0.0994  0.5804
14770TIP3    H165801   3.535   4.296  16.949  0.9205  1.5641 -0.1829
14770TIP3    H265802   3.461   4.427  16.964 -0.6046  0.5075  2.1362
14771TIP3   OH265803   6.458   5.044  14.374  0.0053  0.1207 -0.4146
14771TIP3    H165804   6.500   5.119  14.417  2.2187 -1.4040  0.2617
14771TIP3    H265805   6.531   4.990  14.342 -1.4837 -1.8548 -0.6949
14772TIP3   OH265806   2.733   3.905  13.232 -0.1799 -0.5564  1.0941
14772TIP3    H165807   2.694   3.829  13.190 -1.0057  0.8100 -0.7349
14772TIP3    H265808   2.658   3.953  13.268  0.0474  0.6350  0.0440
14773TIP3   OH265809   3.995   4.746  11.944  0.0869  0.2989 -0.2329
14773TIP3    H165810   4.055   4.722  11.873 -0.5880  1.3062 -1.1857
14773TIP3    H265811   4.009   4.840  11.956  0.5204  0.0672  1.3160
14774TIP3   OH265812   3.195   2.017   4.214  0.4281 -0.1889 -0.1092
14774TIP3    H165813   3.116   1.994   4.264 -1.4566  1.9532 -1.8666
14774TIP3    H265814   3.177   1.988   4.125  1.8096  0.0221 -0.4857
14775TIP3   OH265815   0.393   3.678   3.865 -0.3233  0.1593  0.2432
14775TIP3    H165816   0.486   3.678   3.885 -0.4623 -0.9309  0.9250
14775TIP3    H265817   0.379   3.760   3.816  0.5342  1.5398  2.1877
14776TIP3   OH265818   3.633   3.857   2.757  0.5478 -0.1524 -0.9758
14776TIP3    H165819   3.709   3.843   2.700  0.2589 -1.8738 -1.0175
14776TIP3    H265820   3.635   3.783   2.818  1.2746  2.0132  1.8140
14777TIP3   OH265821   5.266   5.328  16.811 -0.1147 -0.3666  0.0542
14777TIP3    H165822   5.301   5.355  16.726 -0.7554  1.8113  0.4180
14777TIP3    H265823   5.332   5.357  16.874 -0.2185 -0.8624  0.3959
14778TIP3   OH265824   5.995   1.990  15.919 -0.2598 -0.2432 -0.1583
14778TIP3    H165825   5.992   2.078  15.881 -0.8564 -1.1562 -2.4176
14778TIP3    H265826   5.964   2.001  16.008 -0.1938  1.8544 -0.3462
14779TIP3   OH265827   2.107   5.626  13.183  0.0632  0.6866  1.2985
14779TIP3    H165828   2.127   5.635  13.277 -1.4288 -1.0085  1.8381
14779TIP3    H265829   2.064   5.541  13.176  2.9866 -0.7566 -1.4448
14780TIP3   OH265830   6.550   4.096   2.887  0.4493 -0.5109  0.4048
14780TIP3    H165831   6.614   4.040   2.930  0.5585 -0.9799 -0.3446
14780TIP3    H265832   6.466   4.052   2.901  0.3938 -0.3119  0.7073
14781TIP3   OH265833   4.916   4.761   1.987 -0.5662 -0.1663  1.0082
14781TIP3    H165834   4.988   4.780   2.047 -0.6540  0.7958  0.8303
14781TIP3    H265835   4.956   4.762   1.900 -0.6863 -0.2285  0.9515
14782TIP3   OH265836   0.172   2.409   5.781  0.7473 -0.0450  0.2001
14782TIP3    H165837   0.148   2.334   5.836  1.0195 -1.1593 -1.1462
14782TIP3    H265838   0.162   2.377   5.691  0.2297  1.7517 -0.4196
14783TIP3   OH265839   5.301   3.651  14.741  0.3627 -0.3875 -0.4702
14783TIP3    H165840   5.276   3.734  14.701  0.9774 -0.3103 -0.6984
14783TIP3    H265841   5.339   3.600  14.670  0.0835 -0.8308 -0.3097
14784TIP3   OH265842   4.738   4.212   0.703 -0.8253  0.0844  0.0241
14784TIP3    H165843   4.815   4.265   0.725 -1.1417  0.6070 -0.0968
14784TIP3    H265844   4.703   4.253   0.624  1.0594 -2.5491 -2.3828
14785TIP3   OH265845   0.945   5.809  16.954  0.2987 -0.5433 -0.4021
14785TIP3    H165846   0.878   5.857  16.906 -2.0567  0.5967  3.5602
14785TIP3    H265847   1.016   5.872  16.965 -0.1637 -0.0129 -0.4067
14786TIP3   OH265848   6.807   5.219  11.306  0.3763  0.6703  0.1594
14786TIP3    H165849   6.796   5.226  11.211  1.9375 -1.6290 -0.2802
14786TIP3    H265850   6.727   5.177  11.337  0.4335  0.1807 -0.3482
14787TIP3   OH265851   2.823   4.758   3.256 -0.2708 -0.1243 -0.3940
14787TIP3    H165852   2.919   4.763   3.251 -0.3572  1.5968 -1.2737
14787TIP3    H265853   2.794   4.752   3.165 -1.0392  2.1101 -0.3603
14788TIP3   OH265854   0.819   6.275   3.740  0.1442  0.3265 -0.3107
14788TIP3    H165855   0.851   6.339   3.676  1.2147 -0.3568 -0.4865
14788TIP3    H265856   0.761   6.218   3.689 -0.7560  1.0964 -0.1692
14789TIP3   OH265857   6.135   2.430  15.144  0.4008 -0.0605 -0.3310
14789TIP3    H165858   6.158   2.478  15.064  3.1379  0.5505  0.6959
14789TIP3    H265859   6.126   2.498  15.211 -1.9728 -0.5529 -0.0935
14790TIP3   OH265860   4.706   3.286   4.289  0.0303  0.1269  0.1117
14790TIP3    H165861   4.645   3.221   4.324 -1.5095  0.8671 -1.0604
14790TIP3    H265862   4.763   3.236   4.231 -0.5233 -0.3455 -0.0401
14791TIP3   OH265863   3.000   5.858  16.726  0.1890  0.5165 -0.0502
14791TIP3    H165864   3.077   5.824  16.772 -0.0033 -2.3969 -1.6673
14791TIP3    H265865   2.953   5.909  16.793  0.8645 -1.9229  2.4822
14792TIP3   OH265866   1.523   1.514  11.079 -0.1038 -0.3890  0.0965
14792TIP3    H165867   1.538   1.422  11.101 -2.0586 -0.7783 -0.0292
14792TIP3    H265868   1.520   1.558  11.164 -0.2529 -0.6274  0.2177
14793TIP3   OH265869   2.939   6.784   1.404 -0.4833  0.1012  0.6809
14793TIP3    H165870   2.885   6.839   1.347  1.3070  2.4762  1.1223
14793TIP3    H265871   3.017   6.766   1.352  0.2723  0.5806  1.6267
14794TIP3   OH265872   5.790   4.855   5.815 -0.2117 -0.2484 -0.2244
14794TIP3    H165873   5.844   4.810   5.750 -4.0170 -0.3993 -3.6712
14794TIP3    H265874   5.818   4.946   5.810  2.5016 -0.8638  1.3759
14795TIP3   OH265875   1.756   1.256   0.243  0.0348  0.9772 -0.6082
14795TIP3    H165876   1.757   1.339   0.194 -2.0153  1.7724  0.5500
14795TIP3    H265877   1.693   1.272   0.314  1.8177 -0.5981  1.4367
14796TIP3   OH265878   0.721   4.019  14.132 -0.9211 -0.1161 -0.8223
14796TIP3    H165879   0.638   4.052  14.166 -0.6232 -0.9447  0.8240
14796TIP3    H265880   0.786   4.084  14.162 -0.9613  0.6464 -2.2885
14797TIP3   OH265881   0.384   4.367   2.745 -0.2446  0.1785  0.0983
14797TIP3    H165882   0.317   4.335   2.684  1.3398  0.8630 -2.1192
14797TIP3    H265883   0.463   4.318   2.722  0.0319 -0.8724  2.9088
14798TIP3   OH265884   4.437   3.419   2.282 -0.6822 -0.3807 -0.2673
14798TIP3    H165885   4.383   3.428   2.361 -0.2415 -3.2042  0.5032
14798TIP3    H265886   4.378   3.439   2.210 -1.3155  1.5059  0.7060
14799TIP3   OH265887   4.009   0.473   5.236  0.5529 -0.1969 -0.4326
14799TIP3    H165888   4.064   0.401   5.266 -0.2025 -0.7605 -0.3549
14799TIP3    H265889   4.007   0.534   5.309 -0.8324 -1.3059  0.5090
14800TIP3   OH265890   3.948   1.191  13.821 -0.1823 -0.5851 -0.4253
14800TIP3    H165891   3.970   1.133  13.894 -0.3023  0.5183  0.5055
14800TIP3    H265892   4.006   1.266  13.831 -2.8214  1.4511  0.9000
14801TIP3   OH265893   5.085   4.427  12.309 -0.0035 -0.0094 -0.0544
14801TIP3    H165894   5.111   4.467  12.392  2.4972 -0.5891 -0.4801
14801TIP3    H265895   5.018   4.486  12.274 -0.2216  0.8992  1.7797
14802TIP3   OH265896   2.551   4.250  14.153 -0.2462 -0.1119 -0.2442
14802TIP3    H165897   2.500   4.330  14.170 -3.3096 -1.8750 -0.4472
14802TIP3    H265898   2.528   4.226  14.064  0.2410 -1.4624 -0.0235
14803TIP3   OH265899   4.550   6.750  12.668  0.5641  0.5969  0.1180
14803TIP3    H165900   4.508   6.735  12.583 -0.1755 -0.1876  0.5982
14803TIP3    H265901   4.644   6.749  12.649  0.4458 -0.6339 -0.5502
14804TIP3   OH265902   5.774   1.955  15.575  0.6804 -0.1683  0.4658
14804TIP3    H165903   5.765   1.924  15.485  2.1950  0.8602 -0.0800
14804TIP3    H265904   5.767   1.875  15.628 -2.4902 -0.5489 -0.3092
14805TIP3   OH265905   1.857   2.187   5.731 -0.4724 -0.1262 -0.7649
14805TIP3    H165906   1.922   2.216   5.667 -1.7902  1.1068 -1.5895
14805TIP3    H265907   1.892   2.104   5.764  2.3534  1.2851  0.0770
14806TIP3   OH265908   0.608   0.526   0.389  0.1157  0.0845 -0.3955
14806TIP3    H165909   0.689   0.572   0.369 -0.8253  1.7248 -0.5949
14806TIP3    H265910   0.624   0.436   0.360  1.8850  0.3325 -0.3104
14807TIP3   OH265911   1.247   5.804   0.381  0.2786 -0.0665  0.1817
14807TIP3    H165912   1.187   5.834   0.449  1.3566  1.3784  0.5468
14807TIP3    H265913   1.274   5.717   0.409 -1.7414 -0.8568 -0.0964
14808TIP3   OH265914   2.233   4.139   1.008  0.3419  0.3332 -0.0275
14808TIP3    H165915   2.225   4.225   0.967 -0.7315  0.3735  0.2467
14808TIP3    H265916   2.163   4.136   1.073  0.6514 -0.5709  0.2856
14809TIP3   OH265917   6.748   4.740   0.487 -0.7347  0.6571 -0.3464
14809TIP3    H165918   6.835   4.729   0.527 -0.7130 -0.8109 -0.7499
14809TIP3    H265919   6.687   4.737   0.561 -0.5358  0.3523 -0.1935
14810TIP3   OH265920   6.159   5.731   0.674  0.1318 -0.1691 -0.3091
14810TIP3    H165921   6.233   5.703   0.619 -0.4427 -0.7652 -0.7846
14810TIP3    H265922   6.081   5.700   0.628 -0.3421 -1.1808  1.1214
14811TIP3   OH265923   0.418   6.594  15.562  0.1429  0.7153 -0.9080
14811TIP3    H165924   0.460   6.510  15.576 -1.3072 -0.1656 -1.5900
14811TIP3    H265925   0.489   6.651  15.530  1.1937 -0.1528 -0.1984
14812TIP3   OH265926   4.448   2.945  15.699 -0.3560 -0.2844  0.7005
14812TIP3    H165927   4.354   2.954  15.681 -0.3223 -0.1182  0.6012
14812TIP3    H265928   4.476   2.871  15.646 -0.4441 -0.3730  0.7773
14813TIP3   OH265929   4.678   1.652   0.465 -0.0918 -0.4208 -0.1435
14813TIP3    H165930   4.672   1.557   0.466 -1.4499 -0.3606 -0.6227
14813TIP3    H265931   4.763   1.670   0.425  1.9583 -1.4109  3.3531
14814TIP3   OH265932   4.569   3.170   2.299 -0.4259 -0.5194 -0.4687
14814TIP3    H165933   4.661   3.183   2.325 -1.0050 -0.3072  1.7314
14814TIP3    H265934   4.532   3.258   2.301 -1.1641 -0.8255  0.9109
14815TIP3   OH265935   5.684   1.014  12.540 -0.7554 -0.5466  0.2975
14815TIP3    H165936   5.645   1.044  12.622 -1.9595  3.4256 -1.4767
14815TIP3    H265937   5.777   1.032  12.550 -1.0161  0.8180  0.5457
14816TIP3   OH265938   3.028   2.313   4.401  0.2913  0.7477 -0.0003
14816TIP3    H165939   2.975   2.352   4.470  0.2615 -0.9771  1.0180
14816TIP3    H265940   2.995   2.352   4.320 -1.3073  1.0663  0.7672
14817TIP3   OH265941   2.749   5.433   3.262  0.3939  0.6109 -0.4415
14817TIP3    H165942   2.823   5.400   3.210  0.8185  2.0657 -0.8036
14817TIP3    H265943   2.672   5.418   3.207  0.4107 -0.8573 -0.0895
14818TIP3   OH265944   3.851   0.729   2.362 -0.0807 -0.2206  0.3048
14818TIP3    H165945   3.859   0.824   2.366  0.1824 -0.2654  0.9291
14818TIP3    H265946   3.939   0.696   2.383 -0.5237 -0.6220  1.6127
14819TIP3   OH265947   5.843   4.512   2.829 -0.1198 -0.0697  0.4252
14819TIP3    H165948   5.807   4.462   2.756 -1.2668  1.0213  0.2200
14819TIP3    H265949   5.918   4.460   2.858  0.9476 -0.1027 -2.0954
14820TIP3   OH265950   3.905   5.692   1.958  0.1694  0.4992 -0.0410
14820TIP3    H165951   3.946   5.747   1.892  0.7865 -1.3556 -1.2784
14820TIP3    H265952   3.825   5.659   1.916 -1.1274  1.7427  1.2975
14821TIP3   OH265953   2.243   4.935  11.384  0.0819 -0.2534  0.3046
14821TIP3    H165954   2.220   4.900  11.298 -0.6234 -0.8175  0.7146
14821TIP3    H265955   2.336   4.915  11.394  0.3805  0.5555 -0.6674
14822TIP3   OH265956   0.620   0.696  16.959  0.4702 -0.1880 -0.6367
14822TIP3    H165957   0.634   0.778  17.006 -2.5564  1.5291 -2.4496
14822TIP3    H265958   0.539   0.661  16.994 -0.8975  0.2193 -3.1816
14823TIP3   OH265959   4.183   6.828  17.027 -0.1824  0.0240 -0.1565
14823TIP3    H165960   4.188   6.800  16.936  0.9431 -0.1695 -0.0553
14823TIP3    H265961   4.143   6.754  17.073  2.0100 -1.1916 -0.0284
14824TIP3   OH265962   6.749   4.395   1.163  0.2519  0.1750 -0.6031
14824TIP3    H165963   6.772   4.371   1.074 -0.1458 -0.9348 -0.4261
14824TIP3    H265964   6.782   4.324   1.217 -0.9902 -0.0176 -0.0472
14825TIP3   OH265965   2.630   5.009   4.511 -0.0096 -0.1150 -0.8139
14825TIP3    H165966   2.698   4.996   4.577 -1.5870 -0.1655  0.8766
14825TIP3    H265967   2.646   4.940   4.447 -0.0148 -1.8320  0.9259
14826TIP3   OH265968   4.395   1.749  13.976 -0.1485 -0.1828 -0.7169
14826TIP3    H165969   4.489   1.753  13.961 -0.1329  0.3349 -0.5036
14826TIP3    H265970   4.376   1.656  13.988  0.6979 -0.1533  1.4257
14827TIP3   OH265971   6.567   6.474   1.659 -0.1149  0.0640  0.4507
14827TIP3    H165972   6.596   6.421   1.585 -0.3281 -0.0539  0.4483
14827TIP3    H265973   6.478   6.441   1.678  0.5117 -0.9839  1.7536
14828TIP3   OH265974   4.524   0.643  15.042 -0.1689 -0.6517  0.1817
14828TIP3    H165975   4.585   0.586  14.996 -1.2718 -0.8063 -1.1606
14828TIP3    H265976   4.461   0.669  14.975 -1.2314 -0.0142  1.3893
14829TIP3   OH265977   4.829   1.172  17.025  0.5073 -0.4449  0.0851
14829TIP3    H165978   4.737   1.157  17.004  0.3158  0.1414  0.4822
14829TIP3    H265979   4.833   1.263  17.054  1.3884 -0.1564 -0.8986
14830TIP3   OH265980   1.749   4.456  15.980  0.2162  0.2922  0.3167
14830TIP3    H165981   1.720   4.412  15.899 -2.2138 -1.5996  2.0547
14830TIP3    H265982   1.695   4.535  15.984 -0.5712 -0.2460  0.6496
14831TIP3   OH265983   3.478   3.703  16.949 -0.0959  0.1050 -0.0313
14831TIP3    H165984   3.563   3.674  16.982  0.5544  0.7371 -1.1092
14831TIP3    H265985   3.453   3.775  17.008  0.5316  0.4878 -0.2216
14832TIP3   OH265986   4.287   4.514   3.674  0.2160 -0.3184  0.5325
14832TIP3    H165987   4.251   4.463   3.601 -0.3084 -1.0578  1.3009
14832TIP3    H265988   4.261   4.467   3.752  1.2984  0.1364  1.1910
14833TIP3   OH265989   4.160   0.970  16.549 -0.5483 -0.1055 -0.0240
14833TIP3    H165990   4.237   0.914  16.551  0.1366  0.8109  0.4114
14833TIP3    H265991   4.189   1.051  16.592 -1.4269  0.6634 -0.8332
14834TIP3   OH265992   2.744   0.995   1.551  0.2075 -0.6127  0.4971
14834TIP3    H165993   2.777   1.011   1.639 -0.7997 -0.6947  0.9019
14834TIP3    H265994   2.762   0.902   1.536  1.3796 -0.3513  0.1662
14835TIP3   OH265995   5.374   2.458   4.802 -0.1861  0.4443  1.0570
14835TIP3    H165996   5.299   2.405   4.773 -0.0268  0.6601  0.2079
14835TIP3    H265997   5.431   2.462   4.725  0.3669  0.8676  1.4812
14836TIP3   OH265998   5.243   4.161  16.565  0.3376  0.4332 -0.1071
14836TIP3    H165999   5.156   4.196  16.583  0.0374  0.2634 -1.1517
14836TIP3    H266000   5.298   4.238  16.554  0.4799  0.5423  1.2086
14837TIP3   OH266001   2.698   5.182  15.790 -0.2144 -0.4245  0.0769
14837TIP3    H166002   2.615   5.229  15.780 -2.2633 -3.7706 -0.5138
14837TIP3    H266003   2.718   5.150  15.702  2.9723  1.9762 -0.2355
14838TIP3   OH266004   2.955   4.591   1.330  0.2049 -0.0079 -0.1247
14838TIP3    H166005   3.046   4.618   1.336  0.1690  0.2722 -0.6737
14838TIP3    H266006   2.952   4.534   1.253  0.1320 -0.9719  0.5809
14839TIP3   OH266007   0.113   5.958   5.319 -0.3681 -0.3478 -0.2929
14839TIP3    H166008   0.028   5.921   5.343 -0.0547 -2.0230 -1.6006
14839TIP3    H266009   0.127   6.028   5.383 -2.6710 -0.0797  0.0184
14840TIP3   OH266010   0.210   2.783   3.170 -0.1733  0.0530 -0.5890
14840TIP3    H166011   0.303   2.774   3.191 -0.0771  0.6955 -0.7169
14840TIP3    H266012   0.202   2.748   3.081 -0.3610 -1.5296  0.0116
14841TIP3   OH266013   6.825   2.630   1.526 -0.1307  0.0434 -0.0123
14841TIP3    H166014   6.906   2.600   1.485  0.5293  3.8491 -1.8581
14841TIP3    H266015   6.770   2.659   1.453 -0.9820  2.4107  1.4651
14842TIP3   OH266016   0.507   3.758   4.152 -0.2766  0.0279  0.6851
14842TIP3    H166017   0.489   3.814   4.077  1.1876  0.2410  0.4748
14842TIP3    H266018   0.503   3.669   4.116  0.1049  0.1168  0.4148
14843TIP3   OH266019   2.153   1.250  15.488 -0.1973  0.4804 -0.2480
14843TIP3    H166020   2.214   1.216  15.553 -2.2918 -0.4917  1.2857
14843TIP3    H266021   2.166   1.194  15.411  1.2343  0.6917 -0.1958
14844TIP3   OH266022   0.004   6.081   2.535  0.0305 -0.0050  0.1202
14844TIP3    H166023  -0.076   6.084   2.482 -1.0260  0.0768  1.6581
14844TIP3    H266024   0.054   6.157   2.506 -2.1789  2.2082  1.6653
14845TIP3   OH266025   5.145   4.226   2.599 -0.3688 -0.3630  0.3433
14845TIP3    H166026   5.061   4.179   2.594 -0.3239 -0.5504  1.2993
14845TIP3    H266027   5.211   4.157   2.593 -0.2195 -0.1031 -1.9699
14846TIP3   OH266028   0.926   1.361   4.419 -0.1514 -0.5349 -0.5313
14846TIP3    H166029   0.831   1.358   4.432 -0.3218 -1.4610 -1.7980
14846TIP3    H266030   0.958   1.278   4.454  0.1761 -0.3075 -0.2825
14847TIP3   OH266031   0.726   0.668   1.125 -0.0290  0.6837  0.1854
14847TIP3    H166032   0.675   0.687   1.046 -1.2636 -0.8115  0.5635
14847TIP3    H266033   0.660   0.657   1.194  0.9567  0.8489  1.1765
14848TIP3   OH266034   3.311   1.651  13.184  0.2492  0.1988  0.7292
14848TIP3    H166035   3.280   1.561  13.196 -0.3193  0.4241  1.0164
14848TIP3    H266036   3.326   1.659  13.090  0.4674 -0.2467  0.7226
14849TIP3   OH266037   6.737   2.544  14.478 -0.3381  0.2238  0.0983
14849TIP3    H166038   6.657   2.597  14.488  0.7244  2.1986 -1.1181
14849TIP3    H266039   6.807   2.609  14.472  1.1390 -1.3957 -0.8247
14850TIP3   OH266040   5.001   3.932   3.306 -0.5031 -0.1300  0.4748
14850TIP3    H166041   5.034   3.994   3.370 -0.2052 -1.1826  1.3576
14850TIP3    H266042   4.997   3.848   3.352  1.4417 -1.3314 -1.3573
14851TIP3   OH266043   5.513   5.888  11.589  0.1251 -0.1321 -0.4688
14851TIP3    H166044   5.483   5.979  11.591 -1.1501 -0.5376  0.2179
14851TIP3    H266045   5.451   5.843  11.532  0.1100 -0.7807  0.0480
14852TIP3   OH266046   2.478   2.950  16.694 -1.0444 -0.1462 -0.3066
14852TIP3    H166047   2.564   2.976  16.661 -1.5534  3.2232  0.6717
14852TIP3    H266048   2.498   2.892  16.768  0.3372 -0.2248 -0.7117
14853TIP3   OH266049   5.983   1.139  15.993 -0.0221  0.3680  0.2680
14853TIP3    H166050   5.943   1.113  15.910  0.2813 -0.3777  0.3430
14853TIP3    H266051   5.916   1.191  16.038 -0.4466  0.1675 -0.1352
14854TIP3   OH266052   6.225   0.795  14.718  0.3063  0.1545 -0.1802
14854TIP3    H166053   6.280   0.791  14.797  1.9435  2.0597 -1.1437
14854TIP3    H266054   6.259   0.725  14.662 -0.3299 -0.6718  0.4310
14855TIP3   OH266055   4.994   6.113  16.844 -0.1412  0.4100  0.0358
14855TIP3    H166056   4.943   6.032  16.831  0.6510  0.1207 -1.4529
14855TIP3    H266057   4.932   6.173  16.886 -0.9414 -0.7562  0.5829
14856TIP3   OH266058   6.352   5.201   2.108 -0.2314  0.2122  0.5487
14856TIP3    H166059   6.436   5.156   2.114  0.0781  0.7150  0.1009
14856TIP3    H266060   6.375   5.294   2.097 -0.8523  0.6365  2.4001
14857TIP3   OH266061   1.387   3.870   2.806 -0.0043  0.7867  0.0862
14857TIP3    H166062   1.461   3.915   2.765 -0.5317  1.5797 -0.0252
14857TIP3    H266063   1.317   3.875   2.741 -0.0845 -0.1972  0.0823
14858TIP3   OH266064   0.310   1.682  11.493 -0.1844 -0.0992  0.4171
14858TIP3    H166065   0.354   1.759  11.458  0.6515  0.5840  2.7840
14858TIP3    H266066   0.301   1.700  11.587 -0.2165 -2.7635  1.0011
14859TIP3   OH266067   2.745   2.914   1.674  0.8235  0.9765  0.3395
14859TIP3    H166068   2.678   2.887   1.610  0.2866 -0.7732  1.5536
14859TIP3    H266069   2.823   2.864   1.649  0.9382  1.1394  0.3748
14860TIP3   OH266070   5.779   3.297  11.387  0.1471 -0.3085  0.1095
14860TIP3    H166071   5.851   3.348  11.349 -0.1345  0.0487  0.0459
14860TIP3    H266072   5.748   3.351  11.460 -0.5257 -0.1148 -0.3096
14861TIP3   OH266073   5.473   5.105  16.723 -0.1002 -0.2062  0.2401
14861TIP3    H166074   5.402   5.169  16.712  0.6778  0.3689 -1.9272
14861TIP3    H266075   5.429   5.025  16.750 -1.7127 -0.0542 -1.6935
14862TIP3   OH266076   6.240   3.855  11.791 -0.0349 -0.3953  0.1177
14862TIP3    H166077   6.230   3.760  11.784  0.2761 -0.3469 -1.2562
14862TIP3    H266078   6.313   3.876  11.733 -0.2614  0.7171  0.2111
14863TIP3   OH266079   6.526   1.643  14.385  0.1478 -0.2835 -0.5864
14863TIP3    H166080   6.618   1.669  14.390 -0.1747  0.6980  1.8215
14863TIP3    H266081   6.493   1.688  14.307  1.1940  1.3282 -0.1617
14864TIP3   OH266082   1.340   5.648   1.634  0.4332  0.0053 -0.1688
14864TIP3    H166083   1.310   5.627   1.545  2.7951 -0.4658 -0.9378
14864TIP3    H266084   1.267   5.697   1.673 -0.7695  0.0348 -2.2731
14865TIP3   OH266085   3.562   6.161   2.657  0.3289 -0.0757 -0.4061
14865TIP3    H166086   3.584   6.069   2.645 -1.0639 -0.5305  0.2383
14865TIP3    H266087   3.479   6.172   2.610 -0.2663  0.4692  0.7069
14866TIP3   OH266088   4.109   0.066   5.627  0.2255 -0.0432 -0.0082
14866TIP3    H166089   4.087   0.063   5.534  0.6036  0.9854 -0.1456
14866TIP3    H266090   4.108   0.160   5.649  2.1523 -0.0919  0.5168
14867TIP3   OH266091   4.902   4.686  13.841  0.7604  0.5108  0.5844
14867TIP3    H166092   4.885   4.767  13.794 -0.8395 -0.5043 -0.6867
14867TIP3    H266093   4.997   4.674  13.835  0.7476  1.0160 -1.4332
14868TIP3   OH266094   5.908   3.317   5.422 -0.2488 -0.0318  0.0996
14868TIP3    H166095   5.855   3.371   5.482 -1.4278  0.3513 -1.2442
14868TIP3    H266096   5.898   3.359   5.337  1.5450 -0.4717 -0.3688
14869TIP3   OH266097   2.952   1.453   1.782  0.2053 -0.1560 -0.0367
14869TIP3    H166098   2.892   1.387   1.747  0.6705 -2.0269  2.3560
14869TIP3    H266099   3.025   1.402   1.818  1.3504  1.7939  0.5550
14870TIP3   OH266100   4.733   4.086  13.524 -0.6393  0.2696  0.2870
14870TIP3    H166101   4.755   4.055  13.612  0.7183 -0.2181 -0.1972
14870TIP3    H266102   4.685   4.167  13.538 -0.4208  0.2048  1.4851
14871TIP3   OH266103   0.720   3.119   2.837  0.1040 -0.1183 -0.0297
14871TIP3    H166104   0.750   3.186   2.897 -1.0570 -0.1228  0.5828
14871TIP3    H266105   0.674   3.167   2.768  1.0352 -0.1458 -0.6763
14872TIP3   OH266106   0.921   5.990   5.252 -0.5851  0.3347 -0.0271
14872TIP3    H166107   0.832   6.019   5.231 -2.2631 -1.5842  3.5365
14872TIP3    H266108   0.952   6.052   5.318  0.1651  0.1875 -0.2313
14873TIP3   OH266109   6.215   0.288  12.164  0.3308 -0.1071  0.1820
14873TIP3    H166110   6.126   0.261  12.186 -0.1900  0.8942 -0.6000
14873TIP3    H266111   6.225   0.373  12.206  0.8480 -0.1302  0.1091
14874TIP3   OH266112   2.034   4.970   3.770 -0.2717 -0.1626 -0.2834
14874TIP3    H166113   2.122   4.933   3.783 -1.2234 -2.4921  0.0868
14874TIP3    H266114   2.004   4.991   3.859 -1.6510 -3.4666  0.1778
14875TIP3   OH266115   5.594   3.431   4.399 -0.3246  0.3495  0.0708
14875TIP3    H166116   5.506   3.414   4.368 -0.0916 -0.4715 -0.1507
14875TIP3    H266117   5.630   3.493   4.336 -0.0275 -0.9186 -1.0524
14876TIP3   OH266118   5.326   5.588   3.478 -0.4598  0.1820 -0.1569
14876TIP3    H166119   5.379   5.582   3.557 -0.5208 -0.8350 -0.1785
14876TIP3    H266120   5.388   5.582   3.406 -0.4509  0.6344 -0.1906
14877TIP3   OH266121   4.006   0.636   3.976 -0.1849 -0.1196  0.6306
14877TIP3    H166122   4.088   0.684   3.965  0.4223 -1.0419  1.0895
14877TIP3    H266123   4.011   0.599   4.065  0.1759 -2.5392 -0.3277
14878TIP3   OH266124   0.716   6.449   0.028 -0.0479 -0.0476  0.0881
14878TIP3    H166125   0.693   6.421  -0.060  0.3659 -1.5122  0.4219
14878TIP3    H266126   0.766   6.376   0.064 -0.4086  0.4231  1.6199
14879TIP3   OH266127   5.520   3.867   5.255  0.3114 -0.0347 -0.1482
14879TIP3    H166128   5.427   3.865   5.278  0.1384 -0.6180 -0.8624
14879TIP3    H266129   5.536   3.956   5.223 -0.0083  0.0534 -0.0600
14880TIP3   OH266130   4.691   6.554   0.116  0.1442 -0.1320  0.8172
14880TIP3    H166131   4.637   6.587   0.045  0.4768  2.0362  1.5019
14880TIP3    H266132   4.781   6.561   0.084  0.3174  1.1402  1.5117
14881TIP3   OH266133   5.509   4.886   0.256  0.0226  0.4791  0.7319
14881TIP3    H166134   5.562   4.825   0.204  0.8667  1.5414  0.3276
14881TIP3    H266135   5.432   4.834   0.282  0.3312 -0.5205 -0.2718
14882TIP3   OH266136   0.409   0.178  15.171  0.9087 -0.1421  0.2106
14882TIP3    H166137   0.433   0.259  15.126  1.3453 -0.7211 -0.6287
14882TIP3    H266138   0.380   0.206  15.257 -1.2615  1.1413 -0.8617
14883TIP3   OH266139   5.843   4.544   5.862  0.4056  0.1538 -0.3996
14883TIP3    H166140   5.876   4.544   5.952 -0.9662  0.3119  0.1300
14883TIP3    H266141   5.902   4.604   5.816 -0.4157  2.1705  1.0240
14884TIP3   OH266142   3.271   1.359  13.138  0.2794 -0.3461 -0.3463
14884TIP3    H166143   3.233   1.311  13.064  1.3472 -0.4370 -0.8516
14884TIP3    H266144   3.361   1.328  13.142  0.4326  0.2018  0.5445
14885TIP3   OH266145   6.040   5.945  12.605 -0.2149  0.1170 -0.6765
14885TIP3    H166146   6.024   5.960  12.512 -0.8330 -0.5656 -0.6853
14885TIP3    H266147   6.010   5.856  12.621 -1.7601  0.7952  0.5394
14886TIP3   OH266148   6.601   3.760  12.838  0.2073  0.0737 -0.5393
14886TIP3    H166149   6.646   3.677  12.823  1.8469  0.4788  1.6443
14886TIP3    H266150   6.519   3.753  12.788  0.0963 -3.0080 -0.0923
14887TIP3   OH266151   1.609   0.361  16.800  0.1209 -0.0210  0.3443
14887TIP3    H166152   1.628   0.277  16.840 -0.9667  0.4204  1.9058
14887TIP3    H266153   1.529   0.347  16.751 -0.0449  0.0778  0.5814
14888TIP3   OH266154   0.348   5.461  16.490 -0.8588 -0.0953  0.5183
14888TIP3    H166155   0.393   5.546  16.490 -0.8276 -0.1118  0.5630
14888TIP3    H266156   0.406   5.403  16.442 -0.3259 -0.3825  1.4836
14889TIP3   OH266157   5.249   6.719   2.434  0.0379  0.2411 -0.2817
14889TIP3    H166158   5.251   6.809   2.402 -0.8352  0.0660 -0.8523
14889TIP3    H266159   5.240   6.666   2.355  2.3670 -0.4752 -0.1399
14890TIP3   OH266160   3.600   2.615  11.515  0.1907 -0.3380 -0.4080
14890TIP3    H166161   3.511   2.649  11.525  0.1409 -0.7763  0.7387
14890TIP3    H266162   3.648   2.686  11.474 -1.1021 -0.7398 -2.8009
14891TIP3   OH266163   6.270   5.681   4.408 -0.4491 -0.0546 -0.4986
14891TIP3    H166164   6.352   5.643   4.377 -0.3844 -0.8527  0.5707
14891TIP3    H266165   6.213   5.606   4.423 -2.0675  0.5643 -2.9691
14892TIP3   OH266166   2.800   1.901  14.151  0.1591 -0.2609 -0.2911
14892TIP3    H166167   2.795   1.808  14.172 -0.0204 -0.2892 -0.4543
14892TIP3    H266168   2.725   1.917  14.093  1.2473 -0.4248 -1.8082
14893TIP3   OH266169   4.680   2.331  15.604 -0.1527 -0.2167 -0.0366
14893TIP3    H166170   4.681   2.355  15.511  0.4670  1.3177  0.3457
14893TIP3    H266171   4.596   2.288  15.617 -0.3989 -0.1266 -1.2210
14894TIP3   OH266172   0.141   0.702  15.845  0.1308  0.5975 -0.4048
14894TIP3    H166173   0.181   0.700  15.758 -0.1026  0.4356 -0.5102
14894TIP3    H266174   0.047   0.707  15.828 -0.1901 -2.7833 -0.2351
14895TIP3   OH266175   0.420   1.590   4.704  0.1413 -0.4549 -0.4456
14895TIP3    H166176   0.349   1.585   4.768  1.1317 -2.0146  0.6116
14895TIP3    H266177   0.378   1.577   4.620 -0.9923  0.0406  0.0299
14896TIP3   OH266178   4.684   3.999  15.697 -0.1850 -0.2551 -0.2296
14896TIP3    H166179   4.672   3.911  15.660  1.1034  0.1189 -1.6520
14896TIP3    H266180   4.769   4.028  15.663 -0.5782  1.5390  0.2083
14897TIP3   OH266181   0.633   0.768   0.099  0.1726  0.9918 -0.9276
14897TIP3    H166182   0.660   0.692   0.150 -1.1323  2.1482  1.7385
14897TIP3    H266183   0.600   0.830   0.165 -2.5459  2.2773 -3.2547
14898TIP3   OH266184   1.735   0.197  11.997  0.3093 -0.1510  0.1429
14898TIP3    H166185   1.658   0.251  11.984  0.7352  0.4463  0.0373
14898TIP3    H266186   1.726   0.163  12.087  0.5837  1.0119  0.6255
14899TIP3   OH266187   3.174   3.879   5.211 -0.4941  0.4294 -0.1552
14899TIP3    H166188   3.224   3.900   5.132 -0.0781  1.4999  0.3801
14899TIP3    H266189   3.160   3.963   5.254 -0.6753 -0.1462  0.9407
14900TIP3   OH266190   6.332   2.738  10.691 -0.6227 -0.1541  0.4290
14900TIP3    H166191   6.365   2.775  10.609 -1.6429 -0.2013 -0.0144
14900TIP3    H266192   6.353   2.645  10.685 -0.5905 -0.1377  0.2755
14901TIP3   OH266193   0.361   6.183  13.056 -0.1076 -0.4525  0.2980
14901TIP3    H166194   0.363   6.277  13.039 -0.5425 -0.5590 -0.3900
14901TIP3    H266195   0.268   6.162  13.064 -0.0002 -0.7777  0.7512
14902TIP3   OH266196   3.594   2.259   4.965  0.0552  0.7429 -0.2817
14902TIP3    H166197   3.642   2.189   4.922  0.8852 -0.1948  2.0374
14902TIP3    H266198   3.509   2.220   4.985  0.1274  0.7575  0.0501
14903TIP3   OH266199   0.728   3.189  12.594 -0.3679  0.2292  0.0843
14903TIP3    H166200   0.727   3.217  12.502  1.5040  0.3696  0.0738
14903TIP3    H266201   0.635   3.178  12.617 -0.8577 -0.6845 -2.0791
14904TIP3   OH266202   6.015   5.616  10.434  0.0217  0.0377 -0.3694
14904TIP3    H166203   5.957   5.690  10.417 -0.2634 -0.1194 -0.0882
14904TIP3    H266204   6.031   5.619  10.528  0.6148  0.1845 -0.4686
14905TIP3   OH266205   4.472   6.298   1.103 -0.3842  0.0864 -0.1282
14905TIP3    H166206   4.555   6.306   1.055 -0.2285 -0.3809  0.0533
14905TIP3    H266207   4.410   6.264   1.039 -0.2221 -0.3647 -0.0466
14906TIP3   OH266208   6.034   0.281  12.592  0.0976 -0.3230 -0.0905
14906TIP3    H166209   6.064   0.237  12.512  2.3532 -2.5103  1.7774
14906TIP3    H266210   5.989   0.212  12.641  3.3427 -0.6366  2.7599
14907TIP3   OH266211   5.141   5.026  12.654  0.0917  0.3687 -0.3379
14907TIP3    H166212   5.114   4.984  12.572 -0.2454 -0.7969  0.3478
14907TIP3    H266213   5.213   4.972  12.686 -0.4481  0.2127  0.6393
14908TIP3   OH266214   6.086   4.676  15.222 -0.2945 -0.1284  0.2884
14908TIP3    H166215   6.130   4.717  15.148 -0.0067  1.3483  1.2563
14908TIP3    H266216   6.148   4.681  15.294 -1.7529  1.4244  1.5130
14909TIP3   OH266217   0.806   2.271   0.938  0.5519  0.4577 -0.3904
14909TIP3    H166218   0.871   2.337   0.960  0.1651 -0.1952  3.3039
14909TIP3    H266219   0.722   2.314   0.954  0.1863  0.0677 -1.1948
14910TIP3   OH266220   3.427   0.279   1.498  0.0069 -0.0195  0.9382
14910TIP3    H166221   3.355   0.244   1.447  0.7363 -3.1430  1.7937
14910TIP3    H266222   3.391   0.287   1.587  0.4554 -0.9155  1.2186
14911TIP3   OH266223   3.191   5.223  12.016 -0.0434 -0.5800  0.6214
14911TIP3    H166224   3.278   5.218  12.055 -0.1358 -0.4029  0.8462
14911TIP3    H266225   3.207   5.218  11.921  0.3663  1.3609  0.5552
14912TIP3   OH266226   2.297   6.835   0.732  0.1644  0.3566  0.0707
14912TIP3    H166227   2.317   6.822   0.639  1.9991  0.5068  0.4133
14912TIP3    H266228   2.332   6.922   0.752 -2.2630  1.3645  0.4020
14913TIP3   OH266229   0.033   4.297   4.104  0.6309 -0.3746  1.1210
14913TIP3    H166230   0.019   4.216   4.055  0.9700  0.0384  0.3193
14913TIP3    H266231  -0.054   4.325   4.131  0.4189 -0.5352  0.6142
14914TIP3   OH266232   4.265   4.362   5.699  0.1799 -0.0020  0.2233
14914TIP3    H166233   4.357   4.336   5.692  0.8624  1.0432  3.6358
14914TIP3    H266234   4.267   4.448   5.741 -2.3726  0.7091 -0.8888
14915TIP3   OH266235   3.615   4.619  15.749 -0.8690 -0.0577 -0.5059
14915TIP3    H166236   3.549   4.550  15.756 -1.7777  0.8529  0.2476
14915TIP3    H266237   3.680   4.596  15.815 -1.5444  0.1792  0.2602
14916TIP3   OH266238   5.659   1.864   2.504 -0.1124  0.3804  0.2377
14916TIP3    H166239   5.630   1.952   2.524  0.2481  0.8070 -1.0044
14916TIP3    H266240   5.741   1.876   2.455 -0.2344 -0.6238 -0.2495
14917TIP3   OH266241   2.208   5.051   3.297  0.1030 -0.6483  0.3542
14917TIP3    H166242   2.115   5.030   3.292 -1.0120  3.3489  1.3703
14917TIP3    H266243   2.239   5.042   3.206 -2.0711  0.9569 -0.6306
14918TIP3   OH266244   0.587   2.917   3.382  0.6808  0.2770  0.1735
14918TIP3    H166245   0.492   2.908   3.389  0.7861 -1.2391  0.0797
14918TIP3    H266246   0.619   2.899   3.470  0.9440 -0.7934 -0.1159
14919TIP3   OH266247   6.679   1.593   0.237 -0.3389 -0.0174 -0.4508
14919TIP3    H166248   6.717   1.533   0.173  0.3675  0.1975 -0.2459
14919TIP3    H266249   6.678   1.678   0.193  1.7783  0.5100  0.3701
14920TIP3   OH266250   0.768   5.760  15.077 -0.0631 -0.6557  0.0439
14920TIP3    H166251   0.703   5.706  15.123 -0.4159 -0.7064 -0.5007
14920TIP3    H266252   0.844   5.761  15.135 -1.0540  0.6277  1.3916
14921TIP3   OH266253   4.726   5.179   6.046  0.2787 -0.7440  0.4455
14921TIP3    H166254   4.758   5.109   6.104  0.1581  0.1203  1.5899
14921TIP3    H266255   4.793   5.187   5.979  1.4552 -0.3815  1.6183
14922TIP3   OH266256   2.526   0.479   4.319 -0.1897  0.1175 -0.2853
14922TIP3    H166257   2.474   0.408   4.280 -1.5962  0.6899  0.4577
14922TIP3    H266258   2.532   0.546   4.251 -0.4476  0.0514 -0.3726
14923TIP3   OH266259   3.862   2.495   1.087 -0.0622  0.5580 -0.1435
14923TIP3    H166260   3.800   2.428   1.116 -0.9332  1.8772  1.1918
14923TIP3    H266261   3.899   2.461   1.006 -1.9001 -0.6591 -0.5073
14924TIP3   OH266262   4.371   3.497  16.567  0.0603 -0.4320 -0.4507
14924TIP3    H166263   4.403   3.487  16.477 -0.1772 -0.9070 -0.4867
14924TIP3    H266264   4.394   3.586  16.591  0.1990 -0.3294 -0.9572
14925TIP3   OH266265   6.290   0.234  14.086 -0.0072 -0.0492  0.0199
14925TIP3    H166266   6.246   0.200  14.008  0.7829 -1.9600  0.3358
14925TIP3    H266267   6.349   0.302  14.052  1.8435 -2.2253 -1.4265
14926TIP3   OH266268   1.117   3.504  12.684 -0.3218 -0.5775 -0.0775
14926TIP3    H166269   1.073   3.426  12.718 -0.2933 -0.3776  0.4376
14926TIP3    H266270   1.063   3.577  12.715 -1.2791 -0.4367 -1.9389
14927TIP3   OH266271   4.368   5.538  12.681 -0.3431 -0.3226 -0.1120
14927TIP3    H166272   4.365   5.442  12.672  0.6216 -0.2240 -2.1946
14927TIP3    H266273   4.407   5.568  12.599  2.0998  1.6794  1.6327
14928TIP3   OH266274   5.794   3.247  16.238  0.6215 -0.0898 -1.0646
14928TIP3    H166275   5.805   3.339  16.215  1.8594  0.0460 -0.0686
14928TIP3    H266276   5.864   3.230  16.302 -1.5767 -0.8183  1.3346
14929TIP3   OH266277   3.395   0.781  11.763 -0.7517 -0.3471  0.2175
14929TIP3    H166278   3.447   0.845  11.811  0.9911  0.1259 -2.1176
14929TIP3    H266279   3.416   0.697  11.803  2.2489 -0.2268 -0.8734
14930TIP3   OH266280   0.576   1.419   1.598  0.1747  0.0775  0.1349
14930TIP3    H166281   0.663   1.425   1.637  0.0725 -2.8157  1.0219
14930TIP3    H266282   0.518   1.460   1.663  0.4734 -1.2655  1.2985
14931TIP3   OH266283   6.384   3.868  15.962 -0.5308  0.5078 -0.4731
14931TIP3    H166284   6.467   3.914  15.964 -0.1671 -0.1405 -0.3101
14931TIP3    H266285   6.400   3.786  16.010 -0.5141 -0.8418 -2.6218
14932TIP3   OH266286   5.910   1.518   4.567  0.7671  0.4257 -0.1988
14932TIP3    H166287   5.887   1.523   4.474  0.7467 -1.6889 -0.3484
14932TIP3    H266288   6.004   1.531   4.569  0.6246  1.6350 -0.3622
14933TIP3   OH266289   0.117   2.083  15.084  0.1013  0.2217  0.3343
14933TIP3    H166290   0.117   2.173  15.050 -0.0658  0.0383 -0.1599
14933TIP3    H266291   0.191   2.081  15.144 -0.8543  1.1522  1.6050
14934TIP3   OH266292   2.719   1.026  16.135  0.2057 -0.1059 -0.5133
14934TIP3    H166293   2.773   0.983  16.201 -0.2911 -0.1463 -0.1310
14934TIP3    H266294   2.681   0.954  16.084  1.8330 -0.0706 -1.8899
14935TIP3   OH266295   6.652   1.738  12.169 -0.2658 -0.2363  0.4682
14935TIP3    H166296   6.574   1.791  12.183 -0.9739 -1.1098 -0.0545
14935TIP3    H266297   6.676   1.754  12.078  0.3738  0.2840  0.7204
14936TIP3   OH266298   0.823   3.832  14.270 -0.3169  0.5458  0.4019
14936TIP3    H166299   0.772   3.879  14.204 -0.0491  0.6393  0.2583
14936TIP3    H266300   0.762   3.767  14.306 -0.1466 -0.2623 -0.7183
14937TIP3   OH266301   0.994   0.469   2.229 -0.0340  0.6895  0.2980
14937TIP3    H166302   1.058   0.398   2.228  1.1769  1.6076  3.3548
14937TIP3    H266303   1.026   0.532   2.165  0.8773  0.1218  0.1859
14938TIP3   OH266304   6.403   5.319   4.502 -0.1333 -0.0507  0.0447
14938TIP3    H166305   6.334   5.319   4.436 -0.7746 -1.8530  0.6623
14938TIP3    H266306   6.457   5.243   4.481  0.4890  0.1748  0.7569
14939TIP3   OH266307   0.258   1.349  11.966 -0.6889  0.3651 -0.4550
14939TIP3    H166308   0.237   1.429  11.918  0.5109  0.5512 -0.7032
14939TIP3    H266309   0.347   1.326  11.937 -1.5950 -1.9652 -1.6642
14940TIP3   OH266310   2.050   0.591   2.255 -0.4042  0.3661 -0.3383
14940TIP3    H166311   2.021   0.501   2.237  1.0762 -0.6330  1.7960
14940TIP3    H266312   1.975   0.632   2.298 -0.4576 -0.4796  0.4061
14941TIP3   OH266313   0.985   3.796   5.688  0.2955  0.6519 -0.2696
14941TIP3    H166314   0.935   3.853   5.628 -0.5603  0.1888 -0.0210
14941TIP3    H266315   0.966   3.831   5.775 -1.6981 -1.0082  0.0586
14942TIP3   OH266316   2.440   0.723  15.144 -0.0075  0.8612  0.3566
14942TIP3    H166317   2.454   0.656  15.078 -0.3070  0.8552  0.3004
14942TIP3    H266318   2.363   0.694  15.193 -0.5953  1.5406 -0.1519
14943TIP3   OH266319   4.793   4.050  13.835 -0.0961 -0.2071  0.3834
14943TIP3    H166320   4.728   4.115  13.859 -0.6464 -0.8779  0.7575
14943TIP3    H266321   4.759   3.968  13.869  0.1133 -0.8604 -0.8867
14944TIP3   OH266322   6.604   0.391   1.278  0.1541  0.3741 -0.1875
14944TIP3    H166323   6.536   0.420   1.217 -0.0057 -0.7519 -0.5654
14944TIP3    H266324   6.556   0.357   1.353  0.3313  0.6750  0.0653
14945TIP3   OH266325   2.585   2.685  15.977 -0.7111 -0.2774 -0.2279
14945TIP3    H166326   2.505   2.645  16.011 -0.9579 -0.6218 -1.2059
14945TIP3    H266327   2.557   2.770  15.944 -0.2687  0.5695  1.4198
14946TIP3   OH266328   3.440   6.338   0.081  0.3307 -0.0067 -0.3728
14946TIP3    H166329   3.511   6.402   0.072 -0.3041  0.6318 -0.9698
14946TIP3    H266330   3.482   6.261   0.119  0.8647  1.2096  1.6757
14947TIP3   OH266331   6.116   4.247  11.732  0.3264  0.1910  0.4323
14947TIP3    H166332   6.124   4.339  11.707  1.7203 -0.3994 -1.6118
14947TIP3    H266333   6.195   4.228  11.781  0.4898 -0.1145  0.0618
14948TIP3   OH266334   5.428   3.945   3.495 -0.1807  0.2073  0.2419
14948TIP3    H166335   5.445   3.868   3.440 -0.7915  0.6296 -0.5609
14948TIP3    H266336   5.479   3.929   3.575  1.3034 -0.0760 -0.7369
14949TIP3   OH266337   5.663   0.553   5.970  0.6776 -0.4657 -0.0438
14949TIP3    H166338   5.655   0.600   6.053  3.2204  0.5146 -0.2738
14949TIP3    H266339   5.684   0.463   5.995  0.6612 -0.3568  0.3691
14950TIP3   OH266340   0.590   3.005  13.174  0.0279  0.0492 -0.1167
14950TIP3    H166341   0.567   2.914  13.155 -1.6723 -0.1955  2.4856
14950TIP3    H266342   0.543   3.024  13.256 -0.2726  3.4989 -0.9470
14951TIP3   OH266343   3.129   2.914   3.738  0.4175  0.8304  0.3081
14951TIP3    H166344   3.130   2.974   3.665 -2.5024 -0.8949 -1.3363
14951TIP3    H266345   3.160   2.831   3.701 -1.3842 -0.1416  0.8919
14952TIP3   OH266346   3.297   4.616   6.190  0.4711  0.0719 -0.3403
14952TIP3    H166347   3.372   4.589   6.244  3.6314  0.0052 -4.3342
14952TIP3    H266348   3.230   4.549   6.208  2.0827 -1.0859  1.8675
14953TIP3   OH266349   1.461   0.081   4.485  0.4588 -0.1472 -0.1678
14953TIP3    H166350   1.485   0.167   4.450 -0.7181  0.5281  0.6162
14953TIP3    H266351   1.479   0.020   4.413 -0.6688  1.0253 -1.5178
14954TIP3   OH266352   1.990   1.852  11.182 -0.6289 -0.4865 -0.8647
14954TIP3    H166353   2.081   1.821  11.184  0.9286  3.4728 -2.1380
14954TIP3    H266354   1.961   1.835  11.092 -1.1977 -1.6258 -0.4948
14955TIP3   OH266355   1.620   3.044  14.689 -0.4587 -0.1138 -0.5837
14955TIP3    H166356   1.648   3.116  14.745  1.3523 -1.9718  1.0595
14955TIP3    H266357   1.532   3.023  14.719 -0.0379 -0.1866  0.6428
14956TIP3   OH266358   2.781   2.792   4.994 -0.4689  0.2497 -0.1794
14956TIP3    H166359   2.713   2.831   5.050  0.9758  0.2672  1.6648
14956TIP3    H266360   2.795   2.858   4.926 -2.7662 -0.0745 -1.0711
14957TIP3   OH266361   5.088   0.664   2.569  0.2129  0.4892  0.8853
14957TIP3    H166362   5.045   0.723   2.506 -0.2416 -0.8097 -0.0814
14957TIP3    H266363   5.124   0.594   2.514  0.5852 -0.2145  2.0084
14958TIP3   OH266364   3.097   0.512   4.638 -0.1844  0.3979  0.8898
14958TIP3    H166365   3.119   0.596   4.678  0.1595  0.3852  0.7315
14958TIP3    H266366   3.080   0.454   4.712 -0.2591  0.5625  1.0015
14959TIP3   OH266367   0.341   2.092  13.530 -0.1167  0.7640  0.1986
14959TIP3    H166368   0.361   1.999  13.542  0.4021  0.8704  0.1961
14959TIP3    H266369   0.265   2.107  13.586 -1.1633  0.0006 -0.9616
14960TIP3   OH266370   1.367   5.087  15.199  0.6908 -0.1304 -0.2155
14960TIP3    H166371   1.338   5.009  15.152 -1.6013  0.2020  0.5500
14960TIP3    H266372   1.394   5.055  15.285  2.1574 -0.3646 -0.7373
14961TIP3   OH266373   1.900   0.356  14.248  0.2787 -0.2006  0.2067
14961TIP3    H166374   1.839   0.330  14.317 -0.2818  1.2647  0.2954
14961TIP3    H266375   1.981   0.378  14.294  0.0282  0.3988  0.3679
14962TIP3   OH266376   0.832   3.753  14.670  0.1016  0.5873  0.2171
14962TIP3    H166377   0.751   3.705  14.686 -1.4134  3.2845  1.1563
14962TIP3    H266378   0.810   3.817  14.603  0.8341  2.6568  1.8673
14963TIP3   OH266379   0.536   5.310  16.384  0.8355  0.1002  0.3366
14963TIP3    H166380   0.559   5.232  16.334  0.3907  0.2379 -0.0943
14963TIP3    H266381   0.607   5.320  16.448  1.5110  0.0234 -0.3833
14964TIP3   OH266382   5.900   4.071   4.102 -0.3947 -0.1412  0.7175
14964TIP3    H166383   5.877   4.047   4.012  1.1949 -0.8526  0.4617
14964TIP3    H266384   5.923   3.987   4.143 -1.4042  0.1334  1.8943
14965TIP3   OH266385   0.688   1.886  15.265  0.0845  0.3206  0.1917
14965TIP3    H166386   0.691   1.978  15.291 -1.4612  0.4062  0.1241
14965TIP3    H266387   0.778   1.856  15.276  0.4710  1.6415  0.9147
14966TIP3   OH266388   1.743   6.663   5.801 -0.3078 -0.4248  0.2764
14966TIP3    H166389   1.700   6.610   5.868 -0.4430  1.3579  1.6494
14966TIP3    H266390   1.671   6.705   5.754 -0.1672 -0.3688  0.1103
14967TIP3   OH266391   0.108   5.947  16.170  0.0407 -0.3703 -0.6411
14967TIP3    H166392   0.020   5.984  16.162 -0.2560 -1.0722 -0.6639
14967TIP3    H266393   0.122   5.938  16.265 -0.7129 -2.1147 -0.6638
14968TIP3   OH266394   4.463   2.267  11.341  0.1750  0.3506  0.1890
14968TIP3    H166395   4.388   2.316  11.307 -0.9598 -0.4011  1.4933
14968TIP3    H266396   4.454   2.180  11.302 -0.1667 -0.0009  1.0101
14969TIP3   OH266397   0.629   1.801  13.723 -0.1084  0.6991 -0.3860
14969TIP3    H166398   0.650   1.834  13.635 -0.8449 -0.5370 -1.0416
14969TIP3    H266399   0.648   1.707  13.719 -1.3938  0.3807  0.3724
14970TIP3   OH266400   4.721   6.519   5.705 -0.1894 -0.4765  0.1468
14970TIP3    H166401   4.681   6.574   5.773  0.5211 -0.4335  0.5316
14970TIP3    H266402   4.810   6.503   5.736  0.2460 -0.2010 -0.9181
14971TIP3   OH266403   6.064   2.923   3.371 -0.0001 -0.2249 -0.1515
14971TIP3    H166404   6.135   2.861   3.355 -0.5316 -1.0236  0.5162
14971TIP3    H266405   6.108   3.007   3.383  1.1520 -1.1538  3.2816
14972TIP3   OH266406   3.363   6.813  12.361 -0.1746 -0.1290 -0.0246
14972TIP3    H166407   3.289   6.795  12.418 -1.4944  0.8300 -1.3564
14972TIP3    H266408   3.338   6.893  12.314  1.6715  0.1773 -0.5703
14973TIP3   OH266409   2.408   5.512  14.223 -0.0681 -0.5316 -0.1243
14973TIP3    H166410   2.432   5.556  14.141  0.0961  0.0128  0.2172
14973TIP3    H266411   2.471   5.543  14.287  0.0489 -1.2647  0.1302
14974TIP3   OH266412   2.081   4.298   5.646  0.3274 -0.4835 -0.8004
14974TIP3    H166413   2.162   4.271   5.689  0.5489  2.6413  1.1013
14974TIP3    H266414   2.014   4.290   5.714 -0.1303  0.7949 -1.0754
14975TIP3   OH266415   5.812   5.279  14.860  0.0214 -0.4773  0.1001
14975TIP3    H166416   5.902   5.308  14.843 -0.6292  1.3568 -0.4269
14975TIP3    H266417   5.818   5.226  14.940  1.5022 -0.0682  0.2838
14976TIP3   OH266418   3.566   2.499  14.055  0.0932  0.1096 -0.3659
14976TIP3    H166419   3.554   2.410  14.021 -1.6751  0.5539 -0.9571
14976TIP3    H266420   3.517   2.555  13.995 -1.9458  1.0767  2.0551
14977TIP3   OH266421   1.349   0.264   5.269  0.0303  0.0052  0.0758
14977TIP3    H166422   1.275   0.319   5.295  1.7010  2.5974 -0.2853
14977TIP3    H266423   1.332   0.244   5.176 -0.4039  0.2223  0.1061
14978TIP3   OH266424   4.468   6.197   2.315 -0.0563 -0.6375 -0.0825
14978TIP3    H166425   4.436   6.203   2.405  1.0747 -0.1298  0.3078
14978TIP3    H266426   4.435   6.113   2.283  0.1768 -1.1837  1.0645
14979TIP3   OH266427   4.855   2.454   6.048  0.1839 -0.4909 -0.0855
14979TIP3    H166428   4.883   2.368   6.081  0.2598 -0.2660  0.4573
14979TIP3    H266429   4.876   2.514   6.120  3.3408  0.5498 -1.6613
14980TIP3   OH266430   3.833   2.147   3.640 -0.0074  0.4565 -0.2821
14980TIP3    H166431   3.876   2.105   3.566  1.0765  0.7122  0.1907
14980TIP3    H266432   3.890   2.128   3.715 -1.5999 -0.6858  0.7022
14981TIP3   OH266433   0.530   1.089   2.271  0.0297 -0.1610  0.3509
14981TIP3    H166434   0.537   1.183   2.252 -0.2809  0.0100  1.0690
14981TIP3    H266435   0.596   1.049   2.214  0.6808  0.5680  0.5624
14982TIP3   OH266436   4.299   0.560   3.931 -0.4459 -0.6655 -0.2136
14982TIP3    H166437   4.253   0.487   3.972  0.1977 -1.0884 -0.2394
14982TIP3    H266438   4.276   0.636   3.985 -1.8751 -0.6919 -0.7304
14983TIP3   OH266439   1.551   2.151  14.631  0.1390  0.1276  0.4529
14983TIP3    H166440   1.634   2.127  14.588 -0.8831 -0.4905 -1.3071
14983TIP3    H266441   1.484   2.118  14.571 -1.3959  2.9025  0.5161
14984TIP3   OH266442   6.660   0.918  12.176  0.5304  0.2038  0.0983
14984TIP3    H166443   6.705   0.944  12.256 -0.2833  1.6539  0.1112
14984TIP3    H266444   6.598   0.851  12.203  1.3205 -0.4323  0.3928
14985TIP3   OH266445   2.050   6.459  15.983 -0.8332 -0.1847  0.9564
14985TIP3    H166446   2.144   6.462  15.965 -1.0409 -1.1476 -0.5315
14985TIP3    H266447   2.025   6.550  15.996 -0.0734  0.3691 -1.0127
14986TIP3   OH266448   2.718   5.827  11.615  0.4825 -0.2539  0.2833
14986TIP3    H166449   2.676   5.864  11.692  0.0333 -1.4016  0.6104
14986TIP3    H266450   2.740   5.737  11.640  2.0862 -0.0529 -0.2823
14987TIP3   OH266451   6.194   0.509  16.949  0.0336 -0.1842 -0.0671
14987TIP3    H166452   6.189   0.604  16.962 -0.0905 -0.2056  0.0479
14987TIP3    H266453   6.273   0.496  16.897  0.6746 -0.1067  0.8637
14988TIP3   OH266454   3.904   6.233  14.777  0.0881  0.0543 -0.3657
14988TIP3    H166455   3.917   6.149  14.822 -2.3546 -1.4045 -2.1337
14988TIP3    H266456   3.925   6.215  14.685 -0.6489  1.3167 -0.8127
14989TIP3   OH266457   6.024   1.377   1.195 -0.2098  0.3978 -0.3271
14989TIP3    H166458   6.000   1.382   1.288  0.4138 -0.9000 -0.0673
14989TIP3    H266459   6.110   1.335   1.196  0.7009  2.1332 -1.3921
14990TIP3   OH266460   6.095   5.341   1.027  0.4422 -0.0552  0.1697
14990TIP3    H166461   6.128   5.306   0.944 -2.2934 -2.2181 -0.1403
14990TIP3    H266462   6.173   5.345   1.083  1.9685 -0.7195 -1.7784
14991TIP3   OH266463   1.099   5.793  12.222 -0.0801  0.6081  0.5151
14991TIP3    H166464   1.066   5.750  12.301  1.2263 -0.8258  0.3342
14991TIP3    H266465   1.021   5.817  12.173 -0.9165  1.5096  2.2223
14992TIP3   OH266466   2.604   0.486   1.509 -0.7253  0.7684 -0.1780
14992TIP3    H166467   2.601   0.461   1.417  1.3079 -2.3546  0.4238
14992TIP3    H266468   2.657   0.566   1.511  0.6849 -0.0770 -1.6353
14993TIP3   OH266469   1.589   6.346   4.023  0.4786 -0.3410  0.3580
14993TIP3    H166470   1.676   6.332   3.984 -0.7153  0.6811 -2.9494
14993TIP3    H266471   1.533   6.281   3.980 -0.7937  0.2598  1.0638
14994TIP3   OH266472   2.238   5.427   4.083  0.2580 -0.2846  0.5523
14994TIP3    H166473   2.237   5.440   3.988 -0.6889 -2.1749  0.2673
14994TIP3    H266474   2.203   5.508   4.118  0.0508  0.2171 -0.7408
14995TIP3   OH266475   5.560   4.470  15.599 -0.1395 -0.1421  0.6431
14995TIP3    H166476   5.590   4.443  15.685 -2.3847 -2.0211  0.9304
14995TIP3    H266477   5.639   4.472  15.545  1.0166 -0.9340  2.2313
14996TIP3   OH266478   0.114   5.623   0.923  0.3489  0.2797  0.1655
14996TIP3    H166479   0.035   5.594   0.877  0.6142 -1.1024  0.5158
14996TIP3    H266480   0.186   5.597   0.866  0.6387 -0.6498  0.9222
14997TIP3   OH266481   3.904   0.173   0.518  0.0643 -0.0439 -0.1754
14997TIP3    H166482   3.914   0.215   0.432  0.8011 -1.8180 -0.9972
14997TIP3    H266483   3.814   0.193   0.544 -1.1764 -1.7862 -2.7091
14998TIP3   OH266484   5.216   4.962   4.266 -0.2120  0.3699  0.5367
14998TIP3    H166485   5.147   5.027   4.254 -0.4054  0.0452 -0.1416
14998TIP3    H266486   5.171   4.884   4.298 -0.4182 -0.3632 -1.4230
14999TIP3   OH266487   6.828   3.176  13.013 -0.2189 -0.4986  0.8833
14999TIP3    H166488   6.886   3.252  13.019  1.1105 -1.2934 -0.9827
14999TIP3    H266489   6.746   3.205  13.053  0.5003  1.6455  0.9137
15000TIP3   OH266490   4.913   1.261   2.332  0.8894  0.0240  0.0953
15000TIP3    H166491   4.862   1.232   2.408  1.6595  0.7144  0.9017
15000TIP3    H266492   4.846   1.285   2.267  0.1185  1.3543  1.2975
15001TIP3   OH266493   6.511   1.583   1.829 -0.4200 -0.4791  0.1136
15001TIP3    H166494   6.455   1.547   1.897  0.7289  0.4011  1.5965
15001TIP3    H266495   6.600   1.569   1.861  0.1167  1.1684 -0.5456
15002TIP3   OH266496   4.884   1.856   3.348  0.6153  0.0852  0.0265
15002TIP3    H166497   4.798   1.870   3.306  0.1991 -0.7395  0.5868
15002TIP3    H266498   4.919   1.945   3.359 -0.4347  0.4805  0.3474
15003TIP3   OH266499   4.330   6.275  12.034 -0.1920 -0.3877  0.5056
15003TIP3    H166500   4.354   6.361  12.068 -0.3282  0.1380 -0.6717
15003TIP3    H266501   4.235   6.271  12.042 -0.1544 -0.5816  0.8857
15004TIP3   OH266502   3.050   5.180   5.984 -0.0396  0.7088  0.4390
15004TIP3    H166503   2.979   5.124   6.014  0.7734 -0.4850  0.1894
15004TIP3    H266504   3.117   5.120   5.952  0.2782  1.8581 -1.1686
15005TIP3   OH266505   6.393   3.443   5.449  0.1774  0.1298  0.6265
15005TIP3    H166506   6.341   3.372   5.486  0.2851 -0.3381 -0.1075
15005TIP3    H266507   6.484   3.418   5.464  0.2415 -0.4542 -0.6394
15006TIP3   OH266508   2.455   2.944  14.863 -0.3514  0.2708  0.2051
15006TIP3    H166509   2.469   2.913  14.953  1.9716  2.5082  0.7284
15006TIP3    H266510   2.511   2.888  14.810 -0.0882  0.3056  0.4439
15007TIP3   OH266511   4.679   1.334   2.109  0.0665  0.1593 -0.2791
15007TIP3    H166512   4.692   1.427   2.091 -0.8816  0.3199 -0.2038
15007TIP3    H266513   4.616   1.333   2.181  0.8020 -0.5317  0.3776
15008TIP3   OH266514   6.439   1.681   3.550  0.1291 -0.4575  0.7981
15008TIP3    H166515   6.517   1.671   3.605 -0.4742 -2.9793  1.3441
15008TIP3    H266516   6.413   1.773   3.561  3.9943  1.0356 -0.8584
15009TIP3   OH266517   0.350   0.850  12.137  0.2318 -0.1246 -0.3836
15009TIP3    H166518   0.298   0.786  12.088  0.3455 -0.9414  0.5272
15009TIP3    H266519   0.413   0.883  12.073 -1.7142  1.2974 -1.6502
15010TIP3   OH266520   6.554   4.725  14.700 -0.0126  0.6253 -0.7980
15010TIP3    H166521   6.633   4.718  14.753 -0.9716 -0.2577  0.5529
15010TIP3    H266522   6.520   4.813  14.719 -1.1458 -0.1924  1.2858
15011TIP3   OH266523   0.211   2.038  12.405 -0.3267  0.5489 -0.0159
15011TIP3    H166524   0.202   2.011  12.313 -1.1839  1.3489 -0.1892
15011TIP3    H266525   0.303   2.023  12.426 -0.2060 -0.0081 -0.8932
15012TIP3   OH266526   5.604   2.034  12.873 -0.0450 -0.1686 -0.1658
15012TIP3    H166527   5.638   2.112  12.916 -0.5836  0.4983 -0.9219
15012TIP3    H266528   5.680   1.995  12.830  0.4894 -0.8078  1.3004
15013TIP3   OH266529   5.636   4.767  15.769  0.0257 -0.3405 -0.2531
15013TIP3    H166530   5.554   4.717  15.777 -0.5475  0.6352  0.2942
15013TIP3    H266531   5.610   4.846  15.721  0.5860  0.1109  0.1850
15014TIP3   OH266532   4.755   5.270   5.472  0.5135  0.0644 -0.2687
15014TIP3    H166533   4.760   5.262   5.567 -0.4451 -0.6678 -0.2715
15014TIP3    H266534   4.685   5.334   5.457 -0.1602 -0.7109 -0.4933
15015TIP3   OH266535   1.386   5.336   5.426  0.6087 -0.3592  0.0547
15015TIP3    H166536   1.431   5.320   5.509  0.1969 -1.2556  0.1194
15015TIP3    H266537   1.379   5.249   5.386 -0.7951 -0.1973 -0.0875
15016TIP3   OH266538   1.436   5.825   1.099  1.0182  0.0272  0.1515
15016TIP3    H166539   1.441   5.785   1.185  2.0494  2.6127  1.3968
15016TIP3    H266540   1.343   5.823   1.076  0.5421  0.4690  1.9442
15017TIP3   OH266541   5.740   4.228   3.868  0.3498 -0.1977  0.2292
15017TIP3    H166542   5.831   4.204   3.882  1.1296  3.1261  2.0608
15017TIP3    H266543   5.741   4.289   3.794  0.2624  2.3258  2.1593
15018TIP3   OH266544   6.050   6.446  15.027  0.2389 -0.1572 -0.1893
15018TIP3    H166545   5.999   6.505  15.083  0.6316 -1.1765  1.2933
15018TIP3    H266546   6.139   6.451  15.063  0.1205 -2.2491  0.4905
15019TIP3   OH266547   1.985   6.755  15.884 -0.1066 -0.3959  0.1354
15019TIP3    H166548   2.030   6.758  15.799 -0.5181  1.3178 -0.0498
15019TIP3    H266549   2.048   6.790  15.946 -0.0778 -0.9519  0.4317
15020TIP3   OH266550   5.030   6.428   0.971 -0.9720 -0.4969 -0.6576
15020TIP3    H166551   4.997   6.374   0.900 -0.9547 -0.9272 -0.3428
15020TIP3    H266552   5.125   6.428   0.960 -0.9331 -0.9702 -0.3505
15021TIP3   OH266553   0.486   0.048   2.680 -0.1277 -0.4769 -0.2889
15021TIP3    H166554   0.571   0.030   2.720  0.7559 -0.3205 -2.0302
15021TIP3    H266555   0.454  -0.038   2.653  0.3956 -0.3474 -1.3756
15022TIP3   OH266556   3.970   4.449  14.093 -0.0855 -0.1873  0.0116
15022TIP3    H166557   3.914   4.496  14.031  1.0750  0.8595 -0.2671
15022TIP3    H266558   3.992   4.513  14.160 -0.0373 -0.8828  0.6847
15023TIP3   OH266559   1.089   4.234  15.775 -0.4452 -0.3694 -0.4201
15023TIP3    H166560   1.029   4.266  15.709  0.1717 -0.1318 -0.8751
15023TIP3    H266561   1.040   4.167  15.822 -0.5759 -1.2155 -1.7312
15024TIP3   OH266562   0.358   3.283   6.227 -0.0878 -0.4636 -0.0430
15024TIP3    H166563   0.316   3.292   6.141 -1.4272 -4.5075 -0.0552
15024TIP3    H266564   0.451   3.277   6.208 -0.3522 -1.1563 -1.2595
15025TIP3   OH266565   1.445   0.641   0.558 -0.0951 -0.1679 -0.4655
15025TIP3    H166566   1.377   0.579   0.586 -0.5635  0.0815 -1.0385
15025TIP3    H266567   1.411   0.727   0.581  1.1972 -0.1603  1.7007
15026TIP3   OH266568   2.763   0.651   4.464  0.0235  0.2367  0.1304
15026TIP3    H166569   2.721   0.666   4.379 -0.5830  0.0343  0.3845
15026TIP3    H266570   2.842   0.705   4.462 -0.5330  1.0598 -0.1524
15027TIP3   OH266571   4.705   3.841   0.666  0.0375  0.5831  0.7183
15027TIP3    H166572   4.705   3.834   0.570  1.1940  1.4534  0.6312
15027TIP3    H266573   4.792   3.810   0.691 -1.0401 -1.9507  1.7233
15028TIP3   OH266574   3.834   6.617  13.760 -0.0960 -0.3586  0.3324
15028TIP3    H166575   3.893   6.648  13.691 -1.4928  0.4293 -0.5725
15028TIP3    H266576   3.891   6.577  13.825  1.5216  1.2311 -0.0314
15029TIP3   OH266577   0.392   2.310  11.088  0.2909  0.0803  0.2048
15029TIP3    H166578   0.372   2.234  11.034  0.5285  0.6266 -0.6898
15029TIP3    H266579   0.398   2.382  11.025 -0.2204  0.8945  1.0567
15030TIP3   OH266580   5.067   4.891  11.889 -0.3735  0.6201 -0.2093
15030TIP3    H166581   5.049   4.963  11.829  0.5567 -0.3642 -1.7390
15030TIP3    H266582   5.162   4.880  11.887 -0.5991 -2.0461 -1.8087
15031TIP3   OH266583   4.454   5.831  11.795 -0.7272  0.0193 -0.1551
15031TIP3    H166584   4.542   5.826  11.758 -1.6716  0.2272 -2.6231
15031TIP3    H266585   4.455   5.910  11.849  0.3517  0.5666 -0.9343
15032TIP3   OH266586   5.033   4.359  15.322  0.3861 -0.1703  0.2557
15032TIP3    H166587   5.021   4.286  15.262 -1.3914 -0.9966  1.5433
15032TIP3    H266588   5.128   4.362  15.337  0.4524 -2.7597  0.8132
15033TIP3   OH266589   6.428   5.813  11.296  0.0122  0.2474 -0.6297
15033TIP3    H166590   6.361   5.871  11.332  0.1240  1.3882 -2.1646
15033TIP3    H266591   6.390   5.780  11.214  1.4172  1.2471 -1.7520
15034TIP3   OH266592   2.006   1.569   2.712 -0.4078  0.1392 -0.3545
15034TIP3    H166593   1.928   1.625   2.709 -1.3966 -1.1917 -0.4221
15034TIP3    H266594   1.977   1.486   2.674  0.9648 -0.4851 -0.0855
15035TIP3   OH266595   2.464   3.362   4.035  0.4297  0.0461 -0.0384
15035TIP3    H166596   2.461   3.428   4.104 -1.1828  0.0945 -0.1300
15035TIP3    H266597   2.436   3.281   4.078  0.9447 -0.2736 -0.2865
15036TIP3   OH266598   4.496   2.451  13.375  0.4323  0.1471  0.3664
15036TIP3    H166599   4.405   2.427  13.358  0.4737  0.7030 -0.7413
15036TIP3    H266600   4.547   2.378  13.341  0.4339  0.2583  0.1307
15037TIP3   OH266601   4.098   4.525   4.920 -0.0954 -0.1075 -0.4707
15037TIP3    H166602   4.170   4.471   4.886 -0.0973 -0.6402  0.3621
15037TIP3    H266603   4.112   4.527   5.014 -0.2122  1.1964 -0.4602
15038TIP3   OH266604   4.927   1.033   1.713  0.3220 -0.9381  0.3309
15038TIP3    H166605   4.871   0.990   1.648  1.0236 -0.1507 -0.8436
15038TIP3    H266606   4.872   1.042   1.790 -1.7393  1.1994 -1.2487
15039TIP3   OH266607   6.298   3.299   4.620 -0.4509 -0.5002 -0.5667
15039TIP3    H166608   6.339   3.257   4.696 -1.3626  0.2384  0.3529
15039TIP3    H266609   6.205   3.282   4.630 -0.7105  0.7163 -0.8156
15040TIP3   OH266610   4.609   4.034  16.520 -0.3056  0.3078 -0.5267
15040TIP3    H166611   4.672   4.019  16.591 -0.7738  2.0590  0.3061
15040TIP3    H266612   4.611   3.952  16.469  0.9635 -0.5218  0.7646
15041TIP3   OH266613   0.753   0.004   2.719  0.7201  0.3706 -0.3172
15041TIP3    H166614   0.829   0.056   2.745 -0.2524  0.4385  2.7675
15041TIP3    H266615   0.788  -0.084   2.706  1.4462  0.5400  0.4219
15042TIP3   OH266616   5.130   3.061   3.175 -0.1813 -0.2446  0.9974
15042TIP3    H166617   5.051   3.105   3.145  0.5637  0.3104 -0.2655
15042TIP3    H266618   5.189   3.132   3.200 -0.4583 -0.6737  3.0685
15043TIP3   OH266619   0.229   3.617   1.572  0.0126 -0.0818  0.0332
15043TIP3    H166620   0.212   3.643   1.482  1.8680  2.1194  0.2203
15043TIP3    H266621   0.214   3.523   1.574  1.8522 -0.5394 -3.0755
15044TIP3   OH266622   6.617   3.208  14.584 -0.0969  0.1665  0.1201
15044TIP3    H166623   6.650   3.118  14.588  1.7107  0.7593 -0.2740
15044TIP3    H266624   6.681   3.258  14.635 -0.7691  1.3023 -0.1327
15045TIP3   OH266625   6.193   2.405  11.339 -0.2424 -0.4700 -0.2402
15045TIP3    H166626   6.222   2.492  11.313  2.1301 -0.9717  0.4891
15045TIP3    H266627   6.104   2.398  11.303 -1.3974  2.9775  1.4484
15046TIP3   OH266628   0.159   0.524   3.614 -0.3689 -0.1552  0.0902
15046TIP3    H166629   0.208   0.471   3.551 -0.6083 -1.4689  0.9629
15046TIP3    H266630   0.223   0.586   3.648  0.3603 -0.9546  0.2243
15047TIP3   OH266631   2.720   1.831   2.585  0.1696 -0.5210  0.2605
15047TIP3    H166632   2.767   1.753   2.555 -0.5197 -0.7991 -0.0996
15047TIP3    H266633   2.661   1.800   2.653  0.9978 -0.0515  1.2275
15048TIP3   OH266634   1.813   2.840  14.667  0.0397  0.2278 -0.1439
15048TIP3    H166635   1.873   2.885  14.726  0.5124 -0.2717 -0.2327
15048TIP3    H266636   1.740   2.901  14.655  0.0453  0.4240  0.7712
15049TIP3   OH266637   0.741   0.550   3.284  0.2840  0.2104 -0.7785
15049TIP3    H166638   0.772   0.582   3.369 -1.5020  0.7765 -0.3050
15049TIP3    H266639   0.801   0.478   3.263  1.3323  0.6580  0.5016
15050TIP3   OH266640   2.741   2.908   2.758  0.0931  0.2139 -0.1063
15050TIP3    H166641   2.725   2.818   2.731  1.1139  0.1599 -0.5969
15050TIP3    H266642   2.782   2.949   2.682 -1.2509  1.3779 -0.2249
15051TIP3   OH266643   4.326   6.188   0.274 -0.6839 -0.1117  0.3409
15051TIP3    H166644   4.405   6.134   0.285 -0.8995 -0.2600  1.2808
15051TIP3    H266645   4.330   6.218   0.184 -1.1472 -2.6307 -0.6068
15052TIP3   OH266646   0.031   5.016  13.030  0.2052 -0.7124  0.0453
15052TIP3    H166647  -0.035   4.992  12.966 -1.3405 -1.6754  1.9057
15052TIP3    H266648   0.001   4.978  13.112  1.8237  0.8925  1.4962
15053TIP3   OH266649   5.383   2.311  16.064  0.4121  0.2347 -0.7088
15053TIP3    H166650   5.325   2.238  16.045 -1.7614  1.5403  0.4587
15053TIP3    H266651   5.325   2.387  16.070  2.5202  2.0316 -1.5706
15054TIP3   OH266652   1.192   3.743   0.615 -0.0426 -0.4624  0.9239
15054TIP3    H166653   1.119   3.684   0.597 -0.8171  0.7714 -0.0732
15054TIP3    H266654   1.174   3.822   0.565  1.8066  0.0212  0.9163
15055TIP3   OH266655   5.378   1.358  11.734  0.4719 -0.5162 -0.4888
15055TIP3    H166656   5.310   1.357  11.801 -1.0540 -1.2931 -1.9531
15055TIP3    H266657   5.460   1.344  11.782 -0.5989 -1.5134  1.1502
15056TIP3   OH266658   5.372   1.536   0.386 -0.1248 -0.9417 -0.7373
15056TIP3    H166659   5.283   1.521   0.416 -0.1464 -0.3177 -0.4654
15056TIP3    H266660   5.379   1.488   0.304 -1.3686  0.6493 -1.8291
15057TIP3   OH266661   6.794   1.916   0.226  0.4667  0.1266 -0.2369
15057TIP3    H166662   6.889   1.928   0.221  0.4575 -0.1809 -1.3821
15057TIP3    H266663   6.769   1.889   0.138 -0.7358  0.5499 -0.0376
15058TIP3   OH266664   6.294   2.784   2.534 -0.3056  0.1192  0.3141
15058TIP3    H166665   6.239   2.718   2.491  0.5620 -0.3011 -0.1650
15058TIP3    H266666   6.240   2.863   2.535 -0.2203  0.2445 -1.8813
15059TIP3   OH266667   2.206   1.078   3.861 -0.5423  0.0653 -0.7874
15059TIP3    H166668   2.171   1.101   3.774  1.6200 -1.5326 -2.1791
15059TIP3    H266669   2.248   0.993   3.848  1.3000  0.5480  1.4169
15060TIP3   OH266670   0.703   2.271  12.243  0.5270  0.2050 -0.2425
15060TIP3    H166671   0.792   2.302  12.228  0.1816  2.1133  1.3319
15060TIP3    H266672   0.671   2.322  12.317 -1.7356 -0.7470 -0.4679
15061TIP3   OH266673   5.362   5.304   3.572  0.2149 -0.4625  0.1594
15061TIP3    H166674   5.407   5.362   3.511  1.0261  0.0909  1.2487
15061TIP3    H266675   5.398   5.327   3.658 -1.2598 -0.8537  0.9247
15062TIP3   OH266676   6.761   1.030  15.760  0.5788 -0.0780  0.3328
15062TIP3    H166677   6.790   0.952  15.713  2.5316  0.6832  0.1932
15062TIP3    H266678   6.787   1.103  15.704 -1.9646  0.7071  0.0554
15063TIP3   OH266679   6.470   1.972  14.198  0.1246 -0.8793 -0.3867
15063TIP3    H166680   6.403   1.968  14.266 -0.4778 -1.8525 -1.0114
15063TIP3    H266681   6.423   1.997  14.119  0.7960  0.1051 -0.4910
15064TIP3   OH266682   4.674   1.683  12.804  0.4778 -0.6163  0.0456
15064TIP3    H166683   4.707   1.646  12.886  1.1265  0.6402  0.3767
15064TIP3    H266684   4.647   1.607  12.752  0.8676 -1.4804  1.0743
15065TIP3   OH266685   5.442   0.989   5.100  0.1760 -0.4911  0.2762
15065TIP3    H166686   5.359   0.949   5.126  0.2474 -1.3135 -0.6707
15065TIP3    H266687   5.451   0.966   5.007  0.7586  0.8293 -0.0197
15066TIP3   OH266688   1.057   1.368   3.544 -0.1893  0.3879  0.1014
15066TIP3    H166689   1.072   1.343   3.635  0.0160  0.1701  0.0069
15066TIP3    H266690   1.047   1.285   3.497 -3.4845  0.4625  0.4476
15067TIP3   OH266691   2.849   5.548  14.605 -0.0201 -0.0454  0.0793
15067TIP3    H166692   2.858   5.631  14.651  0.0487  0.9486 -1.6552
15067TIP3    H266693   2.921   5.494  14.637  0.4085  0.8505  0.6458
15068TIP3   OH266694   0.931   0.413  13.628 -0.0066 -0.0669  0.3351
15068TIP3    H166695   0.844   0.374  13.635 -0.3737  0.3419 -1.4385
15068TIP3    H266696   0.915   0.501  13.596  1.1194 -0.5633 -1.7684
15069TIP3   OH266697   2.180   4.588  11.640 -0.9828 -0.3480 -0.0839
15069TIP3    H166698   2.230   4.663  11.674 -0.1563 -0.7970 -0.2782
15069TIP3    H266699   2.156   4.614  11.551  1.4416 -1.2568 -1.0773
15070TIP3   OH266700   5.831   0.481  16.698  0.7308  0.6180 -0.1948
15070TIP3    H166701   5.744   0.471  16.659  1.5375 -1.5536 -1.6890
15070TIP3    H266702   5.890   0.435  16.637  2.5664 -0.2090  2.0260
15071TIP3   OH266703   3.017   5.929   6.930  0.1702 -0.7755  0.5088
15071TIP3    H166704   3.066   5.963   6.855 -1.5753 -0.0994 -0.3808
15071TIP3    H266705   3.074   5.862   6.968  1.3915 -0.6406 -0.9965
15072TIP3   OH266706   5.681   1.500  11.626  0.2022  0.0247  0.1560
15072TIP3    H166707   5.644   1.475  11.710 -1.4658 -0.2802 -0.6133
15072TIP3    H266708   5.711   1.418  11.587 -0.4363 -0.0681 -0.1631
15073TIP3   OH266709   1.821   2.545  13.789 -0.6227  0.4346 -0.2388
15073TIP3    H166710   1.889   2.593  13.741 -1.0906 -0.3560 -1.7811
15073TIP3    H266711   1.866   2.508  13.865  0.2357  1.4420 -0.2441
15074TIP3   OH266712   3.060   4.767  16.243 -0.0017 -0.4200 -0.0556
15074TIP3    H166713   3.128   4.758  16.176 -0.8446 -3.1335 -0.6930
15074TIP3    H266714   2.978   4.769  16.194 -0.5086  1.5967  0.7643
15075TIP3   OH266715   2.259   2.021  13.681 -0.0955  0.1441 -0.1846
15075TIP3    H166716   2.240   1.930  13.661 -1.8201  0.1093  1.3320
15075TIP3    H266717   2.196   2.071  13.629 -1.4861  0.2487  1.4908
15076TIP3   OH266718   5.679   0.459   2.832 -0.0491  0.0372 -0.0461
15076TIP3    H166719   5.766   0.494   2.849  0.3188  0.1703 -2.0217
15076TIP3    H266720   5.630   0.532   2.793 -1.2405  0.1188  1.4887
15077TIP3   OH266721   5.223   3.102   2.422  0.2670  0.0252  0.1458
15077TIP3    H166722   5.253   3.012   2.432  1.2156  0.2464 -0.5305
15077TIP3    H266723   5.138   3.094   2.378  0.7224 -0.5271 -0.6790
15078TIP3   OH266724   0.091   0.435  12.901  0.2479  0.4684 -0.1331
15078TIP3    H166725   0.021   0.394  12.851  1.0322  1.4309 -2.1178
15078TIP3    H266726   0.047   0.478  12.974 -1.0982  0.1362 -0.7289
15079TIP3   OH266727   1.005   3.588  16.233 -0.0361 -0.5603  0.1331
15079TIP3    H166728   1.032   3.678  16.215 -1.2116 -0.0128  1.0043
15079TIP3    H266729   0.981   3.588  16.326  0.2148 -1.8387  0.2116
15080TIP3   OH266730   3.516   3.744   2.102  0.1655 -0.1593  0.3140
15080TIP3    H166731   3.441   3.685   2.108  1.0254 -1.3043  0.2765
15080TIP3    H266732   3.590   3.687   2.080  0.8418  1.1031 -0.8300
15081TIP3   OH266733   6.168   4.373   5.666 -0.0493 -0.0515 -0.0268
15081TIP3    H166734   6.245   4.386   5.610  1.7851 -1.2695  2.0440
15081TIP3    H266735   6.101   4.339   5.607  2.0070 -1.9709 -1.4297
15082TIP3   OH266736   1.606   4.527  12.320  0.7003 -0.4752  0.1324
15082TIP3    H166737   1.667   4.498  12.388 -0.1442  0.7174  1.4521
15082TIP3    H266738   1.520   4.518  12.360  0.2068  0.5574 -0.6673
15083TIP3   OH266739   1.348   6.279   6.403 -0.4078 -0.0275 -0.2135
15083TIP3    H166740   1.337   6.193   6.442 -1.2747  0.1911  0.0430
15083TIP3    H266741   1.354   6.339   6.477  1.2633  0.0369 -0.3593
15084TIP3   OH266742   1.144   0.161  15.354 -0.5397 -0.8330  0.0205
15084TIP3    H166743   1.203   0.150  15.428  0.3851 -1.8646 -0.8383
15084TIP3    H266744   1.059   0.133  15.387 -0.3207 -0.5021  0.9139
15085TIP3   OH266745   2.146   3.416  14.856 -0.1496  0.6139 -0.4622
15085TIP3    H166746   2.206   3.363  14.910 -1.8445  0.7962  1.7547
15085TIP3    H266747   2.167   3.507  14.879  0.6639  0.8204 -1.9207
15086TIP3   OH266748   5.334   0.608  14.361  0.4762  0.7517 -0.0247
15086TIP3    H166749   5.362   0.616  14.269 -0.1668 -0.0018 -0.2976
15086TIP3    H266750   5.319   0.514  14.373 -1.9361  1.0915  0.0953
15087TIP3   OH266751   3.986   6.737   1.190  0.1729 -0.5649 -0.7399
15087TIP3    H166752   3.966   6.800   1.121  2.3352  1.4480  0.3274
15087TIP3    H266753   3.925   6.758   1.261  2.7819  2.6234  0.8212
15088TIP3   OH266754   6.306   1.232   5.097 -0.0070  0.2008 -0.2019
15088TIP3    H166755   6.254   1.238   5.177  0.5759  1.7017  0.0981
15088TIP3    H266756   6.371   1.164   5.114 -1.3259 -1.1234 -0.2856
15089TIP3   OH266757   2.586   4.944   0.048 -0.3541 -0.1136  0.3265
15089TIP3    H166758   2.506   4.958  -0.003 -0.2951  0.5499  0.4165
15089TIP3    H266759   2.655   4.933  -0.017 -0.4828 -0.5021  0.2505
15090TIP3   OH266760   6.740   3.526   5.185  0.3326  0.2570 -0.2300
15090TIP3    H166761   6.771   3.443   5.149 -0.7836  0.2684 -1.2625
15090TIP3    H266762   6.703   3.573   5.110  0.2295  1.3557  0.4827
15091TIP3   OH266763   1.049   5.854   6.121 -0.1282 -0.3648 -0.2102
15091TIP3    H166764   0.959   5.881   6.140  0.0613 -0.6852  1.2704
15091TIP3    H266765   1.101   5.934   6.133 -0.0819 -0.4241 -0.0241
15092TIP3   OH266766   3.793   1.073   1.452 -0.6713  0.9058 -0.0203
15092TIP3    H166767   3.886   1.089   1.465 -0.4138  0.4611 -1.2261
15092TIP3    H266768   3.768   1.020   1.528 -0.0249  1.2797  0.4700
15093TIP3   OH266769   3.667   2.993   1.594  0.5614 -0.3883  0.1701
15093TIP3    H166770   3.709   3.030   1.516  1.6545 -1.8599  0.0155
15093TIP3    H266771   3.690   2.900   1.591 -2.1072 -1.1457  0.5024
15094TIP3   OH266772   1.917   0.674   0.367  0.2531  0.0296 -0.3325
15094TIP3    H166773   1.822   0.679   0.358  0.3071 -1.0668 -1.7537
15094TIP3    H266774   1.935   0.720   0.449 -1.4504  0.6266 -0.2500
15095TIP3   OH266775   3.189   5.759   1.275 -0.3004  0.0744 -0.2697
15095TIP3    H166776   3.139   5.733   1.197  0.1882 -1.3061 -0.1504
15095TIP3    H266777   3.279   5.736   1.255 -0.2367 -0.7728  0.8871
15096TIP3   OH266778   4.861   1.051   0.310  0.1508  0.2428 -0.4762
15096TIP3    H166779   4.910   0.972   0.288 -2.3744 -1.4235 -0.5078
15096TIP3    H266780   4.866   1.105   0.231 -0.9628 -1.4773 -1.7810
15097TIP3   OH266781   4.836   5.863  15.493  0.2181  0.8054  0.6898
15097TIP3    H166782   4.878   5.939  15.454  0.3421 -0.2113 -1.2755
15097TIP3    H266783   4.743   5.877  15.480  0.3021 -0.3020 -1.6871
15098TIP3   OH266784   0.490   1.541   2.447  0.3815  0.2465 -0.6929
15098TIP3    H166785   0.530   1.532   2.533 -0.7980 -0.3082 -0.1811
15098TIP3    H266786   0.523   1.625   2.414 -0.0097  1.0047  0.7635
15099TIP3   OH266787   0.328   3.323  11.331  0.4738 -0.3922 -0.1230
15099TIP3    H166788   0.405   3.349  11.280  1.1859 -1.0927  0.5643
15099TIP3    H266789   0.287   3.406  11.357  0.7290 -0.0201 -0.8948
15100TIP3   OH266790   4.876   4.230  11.007  0.1591 -0.3226  0.0565
15100TIP3    H166791   4.825   4.187  10.938 -2.3392  0.9958  0.9755
15100TIP3    H266792   4.912   4.157  11.058  0.5856 -1.3029 -1.5497
15101TIP3   OH266793   1.122   6.759   4.035 -0.1290  0.2522  0.1382
15101TIP3    H166794   1.096   6.671   4.008  1.2524 -0.1447  0.0340
15101TIP3    H266795   1.102   6.763   4.128 -1.1054  0.1822 -0.0607
15102TIP3   OH266796   5.933   1.507   0.148  0.0746  0.0585 -0.3133
15102TIP3    H166797   5.975   1.593   0.159 -0.8656  0.7714 -1.8873
15102TIP3    H266798   6.003   1.444   0.161  1.1053  1.1314 -0.5279
15103TIP3   OH266799   4.753   5.395   0.775 -0.5106 -0.0041 -0.0984
15103TIP3    H166800   4.780   5.398   0.867 -2.0754  0.8090  0.3774
15103TIP3    H266801   4.682   5.332   0.773  0.8548 -1.5973 -1.1950
15104TIP3   OH266802   5.883   2.583  13.519  0.6517 -0.3767  0.6800
15104TIP3    H166803   5.800   2.620  13.551  2.0970  3.1634  0.7609
15104TIP3    H266804   5.949   2.616  13.580  2.6515  0.8205 -1.9367
15105TIP3   OH266805   6.617   4.372   4.155 -0.2473  0.1201  0.6252
15105TIP3    H166806   6.620   4.447   4.095 -1.4545  1.2451  1.8717
15105TIP3    H266807   6.546   4.317   4.122  0.9252 -0.7388 -0.5424
15106TIP3   OH266808   2.624   1.797  16.764 -0.7696  0.0095 -0.5298
15106TIP3    H166809   2.569   1.873  16.746 -0.2515  0.8201  1.0744
15106TIP3    H266810   2.618   1.785  16.859  1.8661  0.2132 -0.2468
15107TIP3   OH266811   1.049   3.537   4.606  0.0828  0.4488  0.1263
15107TIP3    H166812   1.132   3.498   4.633 -0.3050  0.4178  1.3468
15107TIP3    H266813   1.074   3.609   4.548  0.8655 -0.6546 -0.9277
15108TIP3   OH266814   2.570   3.942   2.840  0.1681 -0.5878 -0.4705
15108TIP3    H166815   2.648   3.895   2.869  2.1016  3.4466  1.6951
15108TIP3    H266816   2.600   3.998   2.768 -1.6053 -1.2894 -1.8462
15109TIP3   OH266817   4.022   2.687   1.501 -0.1451 -0.0729 -0.4691
15109TIP3    H166818   4.102   2.642   1.531 -0.0939  1.1011  1.3689
15109TIP3    H266819   3.982   2.627   1.439  0.4776 -2.1748  1.0424
15110TIP3   OH266820   3.888   5.321  16.159  0.1132 -0.3727 -0.1530
15110TIP3    H166821   3.799   5.310  16.125  1.1852 -1.3697 -2.8467
15110TIP3    H266822   3.942   5.338  16.082  2.2090  0.8013  1.4733
15111TIP3   OH266823   0.276   5.284   5.811 -0.1603 -0.1995  0.0548
15111TIP3    H166824   0.333   5.254   5.881  0.7523  0.2304 -0.4872
15111TIP3    H266825   0.225   5.206   5.788 -0.7696 -0.2445  1.4505
15112TIP3   OH266826   4.745   3.096  11.564 -0.6459  0.0548  0.0873
15112TIP3    H166827   4.738   3.134  11.652 -0.5830 -0.5390  0.3526
15112TIP3    H266828   4.740   3.002  11.578  2.8084 -0.2958 -0.1817
15113TIP3   OH266829   4.656   1.266   3.584 -0.3065  0.1020 -0.6695
15113TIP3    H166830   4.605   1.187   3.603  0.9004 -0.4030  0.6502
15113TIP3    H266831   4.647   1.278   3.489 -1.8070 -0.6846 -0.6574
15114TIP3   OH266832   3.080   6.222   2.035  0.4590  1.2108  0.1420
15114TIP3    H166833   3.153   6.251   1.981  0.4428 -0.5482 -0.8958
15114TIP3    H266834   3.014   6.291   2.025  1.2057  1.8550 -0.4918
15115TIP3   OH266835   3.841   6.137  13.360 -0.3651  0.0677 -0.2560
15115TIP3    H166836   3.761   6.185  13.339 -0.4070  0.2018  0.2041
15115TIP3    H266837   3.842   6.134  13.456 -2.6821 -4.6585 -0.1159
15116TIP3   OH266838   1.200   4.096   1.043 -0.4371  0.5646 -0.0246
15116TIP3    H166839   1.154   4.174   1.074 -0.2813  0.6793 -0.0800
15116TIP3    H266840   1.150   4.022   1.078 -0.1757  0.6883  0.6244
15117TIP3   OH266841   2.741   2.465   5.568  0.2816  0.1288  0.6362
15117TIP3    H166842   2.816   2.523   5.565  1.6224 -1.5823 -0.6771
15117TIP3    H266843   2.757   2.399   5.500 -1.2022 -1.7153  1.9314
15118TIP3   OH266844   3.856   5.911  12.726  0.1828  0.0339 -0.1624
15118TIP3    H166845   3.920   5.942  12.790  0.8337 -0.5480 -0.5140
15118TIP3    H266846   3.894   5.830  12.692 -0.1393  0.3520 -1.3110
15119TIP3   OH266847   2.847   4.957   6.090  0.3883  0.1609  0.3904
15119TIP3    H166848   2.885   4.895   6.027  0.1750 -0.7403  1.1185
15119TIP3    H266849   2.753   4.956   6.071  0.4910  0.9789 -0.2000
15120TIP3   OH266850   1.025   3.271   0.655 -0.4349 -0.1103  0.5920
15120TIP3    H166851   1.053   3.282   0.564 -2.7542  1.8127 -0.0024
15120TIP3    H266852   0.942   3.224   0.649 -0.5521 -0.0861  1.7368
15121TIP3   OH266853   2.247   4.149   2.094  0.3582 -0.0570  0.1582
15121TIP3    H166854   2.230   4.155   2.188  0.3981 -0.3513  0.1849
15121TIP3    H266855   2.337   4.179   2.083  0.1002  0.7115  0.1197
15122TIP3   OH266856   2.826   4.707   2.920 -0.2734  0.6003 -0.0166
15122TIP3    H166857   2.860   4.625   2.955 -0.5454  0.3418 -0.3584
15122TIP3    H266858   2.861   4.712   2.831  1.9012  2.1185  0.8171
15123TIP3   OH266859   6.817   6.129   2.940  0.4546  0.2395  0.1608
15123TIP3    H166860   6.904   6.129   2.980  1.6932 -1.9235 -2.2040
15123TIP3    H266861   6.821   6.197   2.872  0.8441 -0.7425 -0.8417
15124TIP3   OH266862   0.040   6.234   4.765 -0.4575 -0.3491 -0.7072
15124TIP3    H166863  -0.013   6.158   4.741 -0.3234  0.0208 -2.3108
15124TIP3    H266864   0.093   6.252   4.687  1.5699 -0.3001  0.5988
15125TIP3   OH266865   2.951   6.544  16.785 -0.2550 -0.3345 -0.2048
15125TIP3    H166866   3.038   6.526  16.820 -0.6872 -1.3634  0.3896
15125TIP3    H266867   2.951   6.501  16.699  0.2144  0.6918 -0.7304
15126TIP3   OH266868   2.394   2.981  12.863  0.1499  0.1632 -0.2263
15126TIP3    H166869   2.422   3.057  12.811  0.9609 -0.9713 -1.5156
15126TIP3    H266870   2.391   2.909  12.801 -4.1772 -0.2306  0.1193
15127TIP3   OH266871   4.324   3.154  11.731 -0.0234  0.3916  0.2002
15127TIP3    H166872   4.275   3.099  11.791  0.3403  0.3260  0.4370
15127TIP3    H266873   4.405   3.106  11.714 -0.6826 -0.2369 -1.3999
15128TIP3   OH266874   3.267   2.526  17.049 -0.4643 -0.1938  0.2862
15128TIP3    H166875   3.202   2.493  16.987 -0.4143  0.7952 -0.3139
15128TIP3    H266876   3.267   2.620  17.036 -0.0938 -0.0187  1.4573
15129TIP3   OH266877   3.736   5.239   0.998  0.0759 -0.2252  0.9289
15129TIP3    H166878   3.644   5.237   1.024 -0.4328 -2.1536 -0.8106
15129TIP3    H266879   3.770   5.153   1.023  1.2010  0.1507  0.7632
15130TIP3   OH266880   0.434   4.835   2.663 -1.0178  0.5548 -0.5567
15130TIP3    H166881   0.429   4.751   2.616 -1.3742  1.1795 -1.6635
15130TIP3    H266882   0.527   4.848   2.678 -0.8220  0.6543 -1.7127
15131TIP3   OH266883   6.373   1.791   4.331  0.0852 -0.2784  1.0503
15131TIP3    H166884   6.383   1.818   4.422 -0.4671  3.0844  0.2794
15131TIP3    H266885   6.424   1.856   4.281 -0.9872 -0.9766 -1.0993
15132TIP3   OH266886   2.853   3.222  16.259 -0.3284  0.2884  0.2884
15132TIP3    H166887   2.820   3.133  16.259 -0.2325  0.2067  2.3364
15132TIP3    H266888   2.890   3.235  16.347 -0.6161  2.4237  0.1649
15133TIP3   OH266889   6.218   3.922   2.603 -0.0647  0.2450  0.1960
15133TIP3    H166890   6.144   3.982   2.596  1.8786  2.8132  0.1621
15133TIP3    H266891   6.216   3.870   2.523 -1.2569  0.9575 -0.2475
15134TIP3   OH266892   5.645   1.368  15.894  0.0081 -0.1014 -0.5278
15134TIP3    H166893   5.637   1.399  15.984 -0.0826  1.9685 -1.2018
15134TIP3    H266894   5.568   1.403  15.849  1.5230  1.4152 -2.0675
15135TIP3   OH266895   5.612   5.496   0.282  0.0869  0.1030 -0.4426
15135TIP3    H166896   5.522   5.520   0.306  0.1759  0.7381 -0.7242
15135TIP3    H266897   5.663   5.576   0.298  0.2880  0.3124 -1.9575
15136TIP3   OH266898   6.364   5.961   4.658  0.5286  0.2156  0.6134
15136TIP3    H166899   6.350   6.055   4.671  0.5664  0.5876 -1.6186
15136TIP3    H266900   6.443   5.956   4.605 -2.1708 -0.6562 -3.8022
15137TIP3   OH266901   2.105   0.009   0.382  0.6728 -0.3426 -0.2330
15137TIP3    H166902   2.108   0.093   0.427 -0.0650 -1.1673  1.4766
15137TIP3    H266903   2.181  -0.039   0.415  0.3196 -0.8384 -0.1282
15138TIP3   OH266904   6.378   3.402   6.195  0.6110 -0.5864  0.3968
15138TIP3    H166905   6.392   3.496   6.182 -1.4203 -0.2332  0.4237
15138TIP3    H266906   6.440   3.360   6.135 -0.3703  0.8318 -1.7393
15139TIP3   OH266907   6.188   4.544   1.982 -0.1329  0.1581  0.4292
15139TIP3    H166908   6.185   4.466   1.926 -0.1724  1.2205 -1.1013
15139TIP3    H266909   6.116   4.531   2.043  2.1015 -2.7755  2.7710
15140TIP3   OH266910   5.217   5.994   0.555  0.2149 -0.0052 -0.3858
15140TIP3    H166911   5.235   6.018   0.464 -0.5944  0.3669 -0.4549
15140TIP3    H266912   5.128   6.027   0.572  0.6812  0.7171  0.8059
15141TIP3   OH266913   2.610   0.665   5.083  0.3806  0.3243 -0.0614
15141TIP3    H166914   2.575   0.623   5.004 -2.7459  0.7368  0.9681
15141TIP3    H266915   2.602   0.598   5.151  0.2942  0.8950  0.4995
15142TIP3   OH266916   6.628   1.234   3.347  0.4212 -0.0206  0.9128
15142TIP3    H166917   6.630   1.297   3.418  1.1226 -0.9954  1.7799
15142TIP3    H266918   6.700   1.174   3.366 -0.8015 -1.6261  0.6280
15143TIP3   OH266919   6.060   5.596   0.178  0.7173 -0.0682  0.4786
15143TIP3    H166920   6.112   5.661   0.225 -0.1697  1.6150 -0.7680
15143TIP3    H266921   6.116   5.568   0.106  0.5852  0.3597  0.2086
15144TIP3   OH266922   0.134   3.751   4.010 -0.1073 -0.1796  0.1297
15144TIP3    H166923   0.206   3.712   3.960 -0.8415 -0.7287 -0.5107
15144TIP3    H266924   0.169   3.758   4.099  0.6116 -0.7695 -0.0914
15145TIP3   OH266925   5.535   0.457  15.956  0.4297  0.2616  0.0575
15145TIP3    H166926   5.478   0.530  15.931  1.3376  0.8838 -0.2169
15145TIP3    H266927   5.527   0.395  15.884  0.3051  0.4646 -0.1068
15146TIP3   OH266928   2.811   1.553  17.005 -0.0053 -0.4676 -0.2015
15146TIP3    H166929   2.823   1.550  16.910  1.4306 -0.9160 -0.0388
15146TIP3    H266930   2.729   1.601  17.017 -0.0529 -0.1136 -1.6555
15147TIP3   OH266931   0.199   4.322  11.777  0.4485 -0.0157  0.0002
15147TIP3    H166932   0.175   4.388  11.842 -0.1122  1.4809 -1.6320
15147TIP3    H266933   0.147   4.345  11.699  1.1585 -1.6648 -1.0300
15148TIP3   OH266934   1.645   4.982  12.327 -0.0454  0.4658  0.2319
15148TIP3    H166935   1.592   4.908  12.296  0.0486  0.3168  0.4277
15148TIP3    H266936   1.733   4.965  12.293  0.1753  0.0355  1.0115
15149TIP3   OH266937   5.502   4.853  10.954  0.7218  0.2200  0.2493
15149TIP3    H166938   5.506   4.776  10.898  1.3108  0.8458 -0.5746
15149TIP3    H266939   5.582   4.902  10.935  0.5379  0.8557  1.0358
15150TIP3   OH266940   2.844   5.138  14.645  0.8875  0.3042  0.3647
15150TIP3    H166941   2.758   5.158  14.608 -0.1982 -2.8455  0.8244
15150TIP3    H266942   2.905   5.148  14.572 -0.2285  0.4608 -0.5777
15151TIP3   OH266943   5.101   3.325  16.421 -1.2897  0.1435  0.5853
15151TIP3    H166944   5.187   3.306  16.459 -1.4802 -0.4088  0.7463
15151TIP3    H266945   5.039   3.289  16.483 -1.5990 -1.7107 -0.7234
15152TIP3   OH266946   3.134   4.574   4.472  0.5294 -0.2888 -0.5943
15152TIP3    H166947   3.137   4.626   4.391  0.1882  1.4036  0.4365
15152TIP3    H266948   3.224   4.579   4.506 -0.2658  2.9093  1.4220
15153TIP3   OH266949   6.457   6.835  12.843 -0.3200  0.0801  0.3123
15153TIP3    H166950   6.378   6.883  12.818 -1.5334 -1.9823 -0.0490
15153TIP3    H266951   6.508   6.830  12.762 -0.1851  0.7104  0.3501
15154TIP3   OH266952   0.482   4.626  15.433  0.2886  0.2660  0.0519
15154TIP3    H166953   0.425   4.564  15.479 -1.5757  1.7633 -0.1114
15154TIP3    H266954   0.439   4.711  15.444  1.7208  1.2418 -1.3937
15155TIP3   OH266955   1.754   4.874  15.750  0.0044 -0.2292  0.6588
15155TIP3    H166956   1.738   4.929  15.674  1.2498 -3.2926 -2.0970
15155TIP3    H266957   1.672   4.827  15.764  0.1568 -0.6214  0.2824
15156TIP3   OH266958   4.796   6.227  15.182  0.3064  0.2743 -0.1992
15156TIP3    H166959   4.727   6.291  15.168  0.8973  1.2843  1.3398
15156TIP3    H266960   4.822   6.200  15.094 -2.9289 -1.1663 -0.8454
15157TIP3   OH266961   2.648   5.120   0.647 -0.0806 -0.3986 -0.0324
15157TIP3    H166962   2.619   5.061   0.717 -1.1207 -1.2221 -1.0970
15157TIP3    H266963   2.686   5.195   0.692  0.8002 -1.6397  1.3811
15158TIP3   OH266964   3.766   6.597  14.211  0.1133  0.1467  0.1532
15158TIP3    H166965   3.739   6.510  14.238 -0.4592 -0.0442 -0.9771
15158TIP3    H266966   3.740   6.654  14.283  0.9295 -0.6731  1.1128
15159TIP3   OH266967   6.733   1.053  12.715  0.7097  0.2884 -0.1432
15159TIP3    H166968   6.735   1.015  12.803 -0.7454  0.6906  0.0852
15159TIP3    H266969   6.680   0.992  12.664 -1.3224  1.7326  0.1282
15160TIP3   OH266970   2.607   5.465   0.575  0.7729  0.0561 -0.2391
15160TIP3    H166971   2.650   5.431   0.653  1.1100  0.5838 -0.1935
15160TIP3    H266972   2.568   5.387   0.534 -1.7899  0.0786  1.8812
15161TIP3   OH266973   0.369   3.685  16.717  0.4301 -0.7764 -0.0738
15161TIP3    H166974   0.462   3.664  16.727  0.7510 -1.4427 -3.2137
15161TIP3    H266975   0.323   3.609  16.751  0.9228 -0.1500  2.1701
15162TIP3   OH266976   6.247   6.063  12.739 -0.7066  0.5974 -0.1829
15162TIP3    H166977   6.198   5.997  12.690 -0.5324 -0.3343  0.8395
15162TIP3    H266978   6.286   6.119  12.673 -0.8832 -0.3181 -1.0861
15163TIP3   OH266979   5.686   4.239  12.048 -0.3120 -0.1387 -0.7814
15163TIP3    H166980   5.657   4.239  12.140  1.3020  0.9772 -0.2354
15163TIP3    H266981   5.607   4.218  11.999 -1.2892 -0.4812  0.8407
15164TIP3   OH266982   5.166   1.737  15.833  0.4015 -0.4084 -0.0437
15164TIP3    H166983   5.214   1.761  15.754  1.2896 -0.7169  0.3875
15164TIP3    H266984   5.143   1.645  15.820  0.0705 -0.3077 -0.1766
15165TIP3   OH266985   3.726   0.537   3.836 -0.0976 -0.4228 -0.2550
15165TIP3    H166986   3.687   0.617   3.801  1.1241 -0.5939 -2.1105
15165TIP3    H266987   3.742   0.557   3.929  1.9017  2.2139 -1.0609
15166TIP3   OH266988   3.861   5.156   5.578  0.0793 -0.0026 -0.0024
15166TIP3    H166989   3.840   5.206   5.499  0.2444 -0.0440 -0.0740
15166TIP3    H266990   3.810   5.197   5.647 -0.0027  0.0874 -0.1156
15167TIP3   OH266991   4.780   6.714  13.844  0.2328 -0.1384  0.1305
15167TIP3    H166992   4.852   6.776  13.855 -0.9504  0.9811  2.1135
15167TIP3    H266993   4.819   6.628  13.862  0.9180  0.5436  2.0694
15168TIP3   OH266994   6.524   5.623  12.146 -0.2313 -0.1586 -0.3169
15168TIP3    H166995   6.482   5.592  12.065 -0.0612 -0.0654 -0.4434
15168TIP3    H266996   6.568   5.705  12.120  0.0159 -0.2483 -0.1856
15169TIP3   OH266997   4.202   1.135  14.632  0.2551  0.6511 -0.5708
15169TIP3    H166998   4.244   1.079  14.697 -1.6397 -0.3480 -0.1230
15169TIP3    H266999   4.274   1.179  14.588  1.8713 -1.9223 -0.7531
15170TIP3   OH267000   4.242   4.499  11.844  1.1628  0.1117 -0.4546
15170TIP3    H167001   4.220   4.472  11.755  2.5633 -0.2658 -0.7188
15170TIP3    H267002   4.162   4.484  11.895  0.6008 -0.4498 -1.4803
15171TIP3   OH267003   4.912   1.038   0.034 -0.4239  0.2327 -0.7571
15171TIP3    H167004   4.881   1.097  -0.035 -0.8388  0.2129 -0.5891
15171TIP3    H267005   4.994   1.077   0.063 -0.9585  1.0394 -0.2677
15172TIP3   OH267006   5.102   2.392   1.907 -0.6030  1.0157  0.3945
15172TIP3    H167007   5.155   2.318   1.935 -0.6296  0.6949 -0.3828
15172TIP3    H267008   5.097   2.448   1.984  0.1096  0.6126  0.7458
15173TIP3   OH267009   0.491   4.108  11.404 -0.1448  0.2583 -0.4413
15173TIP3    H167010   0.555   4.040  11.424 -2.1935 -2.0412 -1.2929
15173TIP3    H267011   0.421   4.095  11.468 -1.0456  0.9173 -1.2589
15174TIP3   OH267012   1.864   3.930  14.887 -0.5936  0.3607 -0.2666
15174TIP3    H167013   1.887   4.008  14.938 -0.7878  0.5534 -0.4721
15174TIP3    H267014   1.806   3.962  14.819 -1.7365 -0.1599  0.4226
15175TIP3   OH267015   4.939   0.780  17.197  0.2533 -0.5386  0.7043
15175TIP3    H167016   4.935   0.754  17.289  0.0596 -1.2803  0.4895
15175TIP3    H267017   4.928   0.875  17.199 -2.6360 -0.7814  1.2860
15176TIP3   OH267018   3.170   5.698   1.709 -0.2626  0.0126 -0.2822
15176TIP3    H167019   3.212   5.710   1.794  0.3013  0.4487 -0.6176
15176TIP3    H267020   3.120   5.617   1.719 -0.6481  0.3460  0.6325
15177TIP3   OH267021   5.431   2.723   3.924  1.0335  0.7219  0.1123
15177TIP3    H167022   5.424   2.628   3.915 -0.4123  0.8243 -0.1349
15177TIP3    H267023   5.447   2.737   4.017  2.2987  0.1999 -0.0146
15178TIP3   OH267024   0.392   0.964   4.106  0.0306 -0.0747  0.0386
15178TIP3    H167025   0.469   0.912   4.127 -3.0015 -3.9175  3.0835
15178TIP3    H267026   0.363   0.931   4.021 -0.9767 -2.4746  1.2283
15179TIP3   OH267027   1.488   2.697   5.268  0.0755  0.0505  0.3837
15179TIP3    H167028   1.540   2.704   5.188 -0.8776  0.3222 -0.2162
15179TIP3    H267029   1.550   2.665   5.334  0.7543 -0.6330 -0.5700
15180TIP3   OH267030   3.937   2.773  10.901  0.1756 -0.0276 -0.4026
15180TIP3    H167031   4.017   2.768  10.953  0.6781  1.0545 -1.0195
15180TIP3    H267032   3.919   2.683  10.876  1.4078 -0.2570 -0.5329
15181TIP3   OH267033   3.149   5.602   4.854  0.3251 -0.2539  0.5079
15181TIP3    H167034   3.207   5.533   4.885 -0.9843 -0.8512  1.6957
15181TIP3    H267035   3.208   5.666   4.814  1.6935 -1.3271  0.7323
15182TIP3   OH267036   1.284   5.963  13.617  0.0326  0.2994 -0.8054
15182TIP3    H167037   1.372   5.938  13.646 -0.8546  0.2898  2.2911
15182TIP3    H267038   1.268   6.047  13.661 -2.4265 -0.9695  1.0219
15183TIP3   OH267039   2.677   2.294   1.041 -0.4594 -0.0181 -0.4413
15183TIP3    H167040   2.646   2.256   0.959 -0.0449 -1.0520 -0.1268
15183TIP3    H267041   2.691   2.219   1.099  0.4567  0.6080  0.1663
15184TIP3   OH267042   2.038   5.996  13.376 -0.0067  0.0645  0.3010
15184TIP3    H167043   2.099   6.028  13.443 -0.1925  0.0485  0.4804
15184TIP3    H267044   2.094   5.970  13.303  0.1702  0.4759  0.2880
15185TIP3   OH267045   0.235   4.046  12.779 -0.3578 -0.4048  0.1211
15185TIP3    H167046   0.208   4.123  12.731  0.4639  0.0009  0.2929
15185TIP3    H267047   0.287   3.995  12.717 -0.5318 -0.6140  0.1413
15186TIP3   OH267048   5.249   4.544  13.568 -0.2238 -0.6043 -0.3897
15186TIP3    H167049   5.254   4.519  13.476  0.7303  0.2368 -0.5833
15186TIP3    H267050   5.185   4.483  13.606 -0.3794 -1.1772 -1.5232
15187TIP3   OH267051   4.455   0.343  15.366  0.1141 -0.3216  0.7524
15187TIP3    H167052   4.390   0.337  15.296  0.8390  3.3042 -0.4417
15187TIP3    H267053   4.403   0.346  15.446 -0.8383 -2.4743  0.2963
15188TIP3   OH267054   0.301   1.643   4.465  0.5045  0.2443  0.3266
15188TIP3    H167055   0.215   1.680   4.483  0.5234  0.2801  0.3453
15188TIP3    H267056   0.347   1.711   4.415  0.9920  0.7969  1.4778
15189TIP3   OH267057   0.572   6.299  13.829  0.1889  0.6860  0.9828
15189TIP3    H167058   0.652   6.298  13.881  1.1021  0.6153 -0.3642
15189TIP3    H267059   0.558   6.391  13.807 -0.4418  0.7713  1.6820
15190TIP3   OH267060   1.998   3.363   3.067 -0.0327  0.1716 -0.1720
15190TIP3    H167061   2.059   3.431   3.041  1.8174 -0.1436  2.8735
15190TIP3    H267062   1.916   3.386   3.024  1.1617  2.9387 -1.1496
15191TIP3   OH267063   4.038   5.835   4.442 -0.3525  0.1370 -0.3083
15191TIP3    H167064   3.951   5.837   4.482 -1.3319  1.5680 -2.3486
15191TIP3    H267065   4.049   5.745   4.414 -0.4519 -0.4420  1.3606
15192TIP3   OH267066   3.417   3.591  15.201 -0.2476  0.5946 -0.2220
15192TIP3    H167067   3.327   3.620  15.217 -1.4343 -0.9907 -3.3235
15192TIP3    H267068   3.442   3.633  15.119  0.1317 -2.3293 -1.7411
15193TIP3   OH267069   2.511   5.639  16.510 -0.6468 -0.7234 -0.0282
15193TIP3    H167070   2.603   5.655  16.486 -0.3518 -0.0339  1.4852
15193TIP3    H267071   2.507   5.544  16.522 -0.0966 -0.7490  0.0145
15194TIP3   OH267072   3.672   1.941  16.475  0.3079  0.0131 -0.4579
15194TIP3    H167073   3.622   1.901  16.547  1.8626  1.3526  1.4828
15194TIP3    H267074   3.763   1.925  16.498  0.8889  1.9807 -1.1997
15195TIP3   OH267075   5.395   4.987   1.158  0.3818  0.4673 -0.6067
15195TIP3    H167076   5.350   5.040   1.092  0.0727  0.5054 -0.3647
15195TIP3    H267077   5.393   5.040   1.238 -2.3185 -0.9568  0.3972
15196TIP3   OH267078   4.999   4.251  13.086 -0.4789  0.3530 -0.1849
15196TIP3    H167079   5.082   4.204  13.081 -0.0540  0.6128  2.6367
15196TIP3    H267080   4.939   4.188  13.126 -0.4699  1.4352  1.6432
15197TIP3   OH267081   0.398   1.105  15.834 -0.5106  0.1836 -0.4272
15197TIP3    H167082   0.310   1.084  15.866  0.8427  0.6367  4.2821
15197TIP3    H267083   0.398   1.200  15.824 -0.2243  0.3656  1.0612
15198TIP3   OH267084   0.739   1.821  11.044 -0.5682  0.1174  0.0054
15198TIP3    H167085   0.752   1.733  11.010  2.5543  0.2086  0.6553
15198TIP3    H267086   0.767   1.878  10.973 -0.0537  0.4831  0.4915
15199TIP3   OH267087   0.244   5.204  15.009 -0.0191 -0.4683 -0.4637
15199TIP3    H167088   0.286   5.182  14.926 -0.8194  0.3617 -1.1082
15199TIP3    H267089   0.249   5.124  15.061 -0.3163 -1.2794 -1.6561
15200TIP3   OH267090   6.611   6.329   1.360  0.6991 -0.1451  0.2471
15200TIP3    H167091   6.516   6.322   1.369  0.1648  2.6961 -1.7288
15200TIP3    H267092   6.634   6.269   1.289 -0.1143  1.0461 -1.0824
15201TIP3   OH267093   6.212   5.841   1.791  0.3603  0.1563  0.1273
15201TIP3    H167094   6.195   5.910   1.856 -0.7910  0.2849 -0.2991
15201TIP3    H267095   6.299   5.863   1.756  1.2725 -0.2398  1.9964
15202TIP3   OH267096   6.673   3.074  13.956 -0.0870  0.1172 -0.0429
15202TIP3    H167097   6.742   3.062  14.022  0.5954 -2.3191 -1.0557
15202TIP3    H267098   6.710   3.137  13.894  0.3537  0.4271  0.5210
15203TIP3   OH267099   1.994   6.637   1.970 -0.1714 -0.4058  0.1691
15203TIP3    H167100   2.067   6.601   1.919  0.4418  0.6584  0.2671
15203TIP3    H267101   1.957   6.706   1.915 -0.0071  0.2202  0.8239
15204TIP3   OH267102   0.597   3.537   3.130  0.2025  0.1057 -0.4305
15204TIP3    H167103   0.544   3.613   3.155 -0.3074 -0.4338  0.1925
15204TIP3    H267104   0.541   3.462   3.152  0.4231 -0.4349 -1.6697
15205TIP3   OH267105   5.240   1.954   4.879  0.0591 -0.1222  0.9604
15205TIP3    H167106   5.281   1.945   4.965  0.1688  0.7725  1.0162
15205TIP3    H267107   5.212   2.046   4.876  0.6103  0.0207 -0.2006
15206TIP3   OH267108   0.189   0.623  15.557 -0.4750  0.7874  0.6535
15206TIP3    H167109   0.190   0.548  15.615  0.9557  0.6629  0.5070
15206TIP3    H267110   0.156   0.589  15.474  1.8157 -0.1457  0.0574
15207TIP3   OH267111   5.884   0.227  14.784  0.3102  0.4093  0.1352
15207TIP3    H167112   5.968   0.218  14.739  0.6153  0.0778  0.7593
15207TIP3    H267113   5.882   0.318  14.813  0.1518  0.6016 -0.4594
15208TIP3   OH267114   2.399   4.804   0.657 -0.2377 -0.5471 -0.2923
15208TIP3    H167115   2.341   4.729   0.670 -0.3653 -0.5001 -0.5802
15208TIP3    H267116   2.486   4.767   0.654 -0.0879 -0.4657  1.6891
15209TIP3   OH267117   2.362   2.380   5.782  0.0097  0.0754 -0.2077
15209TIP3    H167118   2.442   2.329   5.769 -0.2829  0.1022 -2.5888
15209TIP3    H267119   2.308   2.360   5.705 -1.7178  1.0928  0.6743
15210TIP3   OH267120   4.238   3.289  12.357  0.3115  0.3141 -0.0424
15210TIP3    H167121   4.236   3.334  12.272  1.0420  0.4105 -0.0232
15210TIP3    H267122   4.250   3.360  12.421  0.9380  0.1537  0.0326
15211TIP3   OH267123   5.789   3.259  14.295 -0.5587  0.3963 -0.5352
15211TIP3    H167124   5.856   3.194  14.313  0.4169  1.6347  0.4219
15211TIP3    H267125   5.725   3.212  14.241 -0.2069 -1.5185  0.6152
15212TIP3   OH267126   4.483   3.840  17.187 -0.0379  1.0220 -0.2054
15212TIP3    H167127   4.497   3.750  17.215  3.3166  1.2192 -0.8885
15212TIP3    H267128   4.475   3.835  17.092 -0.2277  1.4122 -0.2135
15213TIP3   OH267129   0.268   3.460   5.387  0.2643 -0.8454 -0.1810
15213TIP3    H167130   0.217   3.447   5.307 -1.8950 -0.2204  1.0195
15213TIP3    H267131   0.341   3.400   5.378  0.9733  0.2494 -3.2856
15214TIP3   OH267132   2.585   6.526   4.047 -0.5955  0.9476  0.3571
15214TIP3    H167133   2.671   6.492   4.071 -0.2430  0.8174 -0.9790
15214TIP3    H267134   2.524   6.485   4.108 -0.0603 -1.2934 -0.5087
15215TIP3   OH267135   1.408   5.438   2.304  0.7978 -0.0921 -0.4105
15215TIP3    H167136   1.494   5.397   2.303  0.7365 -0.2260 -0.2230
15215TIP3    H267137   1.419   5.515   2.361  0.4561 -0.8523  0.7090
15216TIP3   OH267138   1.100   1.458   2.992  1.1316  0.5373  0.0323
15216TIP3    H167139   1.164   1.400   2.951  1.6976  0.5691  0.8489
15216TIP3    H267140   1.147   1.498   3.065 -0.1799 -0.4076  1.4476
15217TIP3   OH267141   0.622   0.269   0.312 -0.1792 -0.2509 -0.6664
15217TIP3    H167142   0.532   0.263   0.280 -0.3404  0.2358 -0.3110
15217TIP3    H267143   0.673   0.218   0.249 -0.5442  0.3535 -1.4632
15218TIP3   OH267144   2.297   2.257   4.018  0.1036  0.2834  0.4085
15218TIP3    H167145   2.348   2.205   4.080 -1.9099  0.4201  2.3289
15218TIP3    H267146   2.300   2.207   3.936  1.1226 -1.0104  1.1895
15219TIP3   OH267147   5.320   3.253  14.827  0.0215 -0.3281 -0.1478
15219TIP3    H167148   5.305   3.339  14.867  0.0660 -0.5150  0.2737
15219TIP3    H267149   5.406   3.226  14.858 -0.7848 -1.3779  1.2831
15220TIP3   OH267150   0.617   3.951   3.570 -0.2858 -0.4910 -0.2261
15220TIP3    H167151   0.675   3.880   3.541 -0.8583 -0.6714 -0.9454
15220TIP3    H267152   0.601   4.003   3.491 -0.2383  0.1871  0.2022
15221TIP3   OH267153   1.090   2.775  13.684 -0.5689  0.1442  0.2846
15221TIP3    H167154   1.014   2.831  13.674 -2.6157 -2.5417 -0.5139
15221TIP3    H267155   1.102   2.736  13.597 -0.1071 -1.5921  1.0779
15222TIP3   OH267156   2.445   6.097  11.807 -0.3154  0.0338 -0.0135
15222TIP3    H167157   2.454   6.089  11.902 -1.7865 -2.2436 -0.0077
15222TIP3    H267158   2.365   6.148  11.794 -1.8395 -2.1861  0.0675
15223TIP3   OH267159   0.866   4.452   2.056  0.0151 -0.3003 -0.3998
15223TIP3    H167160   0.776   4.475   2.078 -0.1719 -1.3905  0.0558
15223TIP3    H267161   0.867   4.450   1.960 -0.4903 -0.4303 -0.4072
15224TIP3   OH267162   4.073   6.346   1.771  0.1432  0.4740 -0.4474
15224TIP3    H167163   4.040   6.411   1.832  0.4032  0.0126  0.1982
15224TIP3    H267164   4.000   6.286   1.757  0.8243 -0.9066  1.4719
15225TIP3   OH267165   1.670   4.300  14.569 -0.0687  0.3340  0.4590
15225TIP3    H167166   1.626   4.263  14.493  2.1008  0.2795 -0.8632
15225TIP3    H267167   1.680   4.393  14.548  1.3839  0.1418  0.1993
15226TIP3   OH267168   5.394   1.454   4.608  0.0905 -0.0384 -0.4004
15226TIP3    H167169   5.341   1.399   4.549 -1.3745  0.3527  0.4980
15226TIP3    H267170   5.425   1.525   4.552 -0.0876 -0.4373 -1.0212
15227TIP3   OH267171   2.359   0.794  16.515 -0.1079 -0.7066 -0.6040
15227TIP3    H167172   2.401   0.850  16.449 -0.5788 -1.9992 -2.0420
15227TIP3    H267173   2.428   0.780  16.580  0.6402 -0.0863 -1.2350
15228TIP3   OH267174   2.722   5.897   1.397 -0.6570 -0.1722 -1.0542
15228TIP3    H167175   2.783   5.853   1.456 -1.6413  1.2011  1.1052
15228TIP3    H267176   2.638   5.895   1.443 -1.4492  1.0964 -2.3492
15229TIP3   OH267177   0.883   0.416   0.721 -0.5316  0.1165 -0.1012
15229TIP3    H167178   0.852   0.348   0.780 -1.6032  0.0506 -0.7052
15229TIP3    H267179   0.805   0.469   0.703  0.1219  1.0589 -0.2279
15230TIP3   OH267180   3.189   2.276   4.856 -0.4648  0.1379 -0.1473
15230TIP3    H167181   3.097   2.252   4.849 -0.7915  1.4115 -0.6661
15230TIP3    H267182   3.231   2.201   4.897 -1.9946  0.1068  1.5066
15231TIP3   OH267183   1.772   3.398   2.288 -0.2869 -0.2735 -0.0968
15231TIP3    H167184   1.823   3.328   2.328  1.7919  0.4706 -1.2972
15231TIP3    H267185   1.740   3.450   2.362  1.2538 -0.4075  0.6908
15232TIP3   OH267186   4.032   6.479  15.603  0.1369 -0.4043  0.0109
15232TIP3    H167187   4.113   6.530  15.607 -0.7452  1.1464 -1.0448
15232TIP3    H267188   3.976   6.516  15.670 -0.0751 -0.8230  0.0705
15233TIP3   OH267189   1.291   5.231  12.429 -0.7166 -0.4705 -0.1398
15233TIP3    H167190   1.310   5.148  12.385  2.9065  0.8713 -1.5703
15233TIP3    H267191   1.376   5.261  12.461 -1.4433  3.4724 -1.2675
15234TIP3   OH267192   6.414   1.420  12.811 -0.2119 -0.0682 -0.1323
15234TIP3    H167193   6.369   1.445  12.892  0.6191 -1.7237  0.9090
15234TIP3    H267194   6.505   1.445  12.825 -0.1237 -0.0545 -0.7016
15235TIP3   OH267195   1.786   0.251  10.519  0.4315 -0.4170  0.9497
15235TIP3    H167196   1.806   0.160  10.498 -0.4509 -0.1953 -1.1116
15235TIP3    H267197   1.692   0.260  10.499  1.0529  1.5821 -1.5958
15236TIP3   OH267198   2.304   4.100   5.314  0.5329 -0.0881  0.2607
15236TIP3    H167199   2.313   4.020   5.367  3.2055  0.1391  0.2958
15236TIP3    H267200   2.394   4.125   5.294 -0.3311  0.8817 -2.8852
15237TIP3   OH267201   3.127   3.465  13.558  0.3853 -0.2595  0.5374
15237TIP3    H167202   3.135   3.424  13.472 -0.5564  0.8754 -0.1286
15237TIP3    H267203   3.184   3.413  13.615  1.0614 -1.0106 -0.7704
15238TIP3   OH267204   5.659   6.406   2.277 -0.6847 -0.2701  0.1288
15238TIP3    H167205   5.666   6.483   2.334 -0.7429 -1.3940  1.7058
15238TIP3    H267206   5.675   6.440   2.189 -2.0005  1.7840  0.6064
15239TIP3   OH267207   0.848   5.667  12.802 -0.2304  0.5508 -0.5871
15239TIP3    H167208   0.759   5.703  12.806 -0.4153  0.0198  0.4941
15239TIP3    H267209   0.896   5.716  12.869 -0.1243 -0.2368 -0.0763
15240TIP3   OH267210   4.751   2.581   3.852  0.1119  0.7912 -0.4157
15240TIP3    H167211   4.658   2.561   3.865  0.0803  0.0858 -1.6245
15240TIP3    H267212   4.796   2.533   3.921 -0.4374  1.5422  0.4993
15241TIP3   OH267213   6.007   4.607   1.150 -0.3419 -0.2300 -0.1650
15241TIP3    H167214   5.928   4.613   1.097 -0.5617 -1.9510 -0.0944
15241TIP3    H267215   6.012   4.691   1.196 -1.3089  0.4618 -1.2729
15242TIP3   OH267216   5.180   5.934  15.620 -0.0102 -0.4507  0.0750
15242TIP3    H167217   5.101   5.964  15.663 -0.1027 -0.6104  0.0202
15242TIP3    H267218   5.249   5.945  15.685 -0.1833 -0.8834  0.3423
15243TIP3   OH267219   5.907   0.519  12.605  0.8187  0.1933 -0.2869
15243TIP3    H167220   5.979   0.456  12.605  0.0694 -0.6839  0.5899
15243TIP3    H267221   5.840   0.479  12.550 -0.1602 -0.3934  1.2735
15244TIP3   OH267222   5.429   2.334   1.804  0.0656 -0.1634 -0.1006
15244TIP3    H167223   5.455   2.243   1.791  0.6263 -0.0908  0.4692
15244TIP3    H267224   5.389   2.359   1.721  1.0522 -0.5424 -0.7175
15245TIP3   OH267225   0.128   5.091   5.705  0.0053 -0.1183  0.7782
15245TIP3    H167226   0.039   5.107   5.738 -0.6314 -1.4999 -0.1806
15245TIP3    H267227   0.115   5.052   5.619  1.5799  0.2723  0.3380
15246TIP3   OH267228   6.603   1.783  11.684 -0.2569  0.2345 -0.7440
15246TIP3    H167229   6.598   1.695  11.721  1.8719  0.9320  1.4653
15246TIP3    H267230   6.539   1.783  11.613  0.3182 -3.3599 -1.4554
15247TIP3   OH267231   1.537   2.929  14.381  0.2600 -0.1492  0.3048
15247TIP3    H167232   1.452   2.900  14.414  0.4385  1.7015  2.6098
15247TIP3    H267233   1.540   3.023  14.402  2.3660  0.1104 -0.8831
15248TIP3   OH267234   1.763   2.023  15.294 -0.5364  0.6355  0.1104
15248TIP3    H167235   1.743   2.101  15.346  2.2107  0.2674  1.9463
15248TIP3    H267236   1.770   1.953  15.359  0.4249 -0.4219 -1.0979
15249TIP3   OH267237   4.966   0.543   0.795 -0.1495 -0.8087  0.0989
15249TIP3    H167238   4.923   0.582   0.871  1.1263  1.8923 -0.4049
15249TIP3    H267239   4.900   0.546   0.726 -0.5055 -0.8060  0.4386
15250TIP3   OH267240   3.654   6.546   0.072 -0.0835 -0.2794 -0.1953
15250TIP3    H167241   3.715   6.611   0.106  0.3055 -1.5032  1.6099
15250TIP3    H267242   3.612   6.588  -0.003  0.5961  1.7967  0.5360
15251TIP3   OH267243   3.309   5.756  15.978  0.0738  0.0767  0.2902
15251TIP3    H167244   3.246   5.685  15.989 -0.1111 -0.1206 -1.6063
15251TIP3    H267245   3.381   5.716  15.928 -0.5188  1.3933 -1.7696
15252TIP3   OH267246   1.710   4.790  15.071 -0.3688  0.3060  0.0156
15252TIP3    H167247   1.664   4.803  15.154 -2.0383  3.5672 -1.2158
15252TIP3    H267248   1.656   4.727  15.023 -0.4095 -0.2007  0.7222
15253TIP3   OH267249   0.572   0.307   2.608  0.3284 -0.2347 -0.1282
15253TIP3    H167250   0.550   0.220   2.642  0.0720  0.5747  1.9191
15253TIP3    H267251   0.654   0.330   2.650  1.0841  0.0196 -1.6595
15254TIP3   OH267252   4.471   1.557  15.808  0.0056  0.3196 -0.6528
15254TIP3    H167253   4.417   1.635  15.823 -0.4315 -0.1882  0.4883
15254TIP3    H267254   4.557   1.592  15.784 -0.8030  1.1428 -2.5857
15255TIP3   OH267255   6.054   2.971  14.806 -0.8417 -0.5318  0.3582
15255TIP3    H167256   6.064   2.964  14.901  1.5078 -0.0388  0.2207
15255TIP3    H267257   6.114   2.905  14.771 -0.3750  0.4589 -0.7638
15256TIP3   OH267258   6.467   5.720  12.686  0.3882  0.1320  0.6193
15256TIP3    H167259   6.441   5.758  12.769 -2.3113 -2.5838  1.2133
15256TIP3    H267260   6.547   5.671  12.706 -1.1293 -1.8932  2.1833
15257TIP3   OH267261   0.072   3.640  17.099 -0.2059  0.1121 -0.9408
15257TIP3    H167262   0.007   3.616  17.165  0.6985 -0.2672 -0.1780
15257TIP3    H267263   0.046   3.728  17.071 -2.0581 -0.6882 -1.9141
15258TIP3   OH267264   3.668   6.124   0.709 -0.6290  0.4747 -0.3609
15258TIP3    H167265   3.656   6.050   0.769  0.6367  0.5166 -0.0294
15258TIP3    H267266   3.579   6.150   0.685 -1.2339  0.8169  1.9686
15259TIP3   OH267267   2.195   3.986  13.808  0.4780  0.4998 -0.2096
15259TIP3    H167268   2.104   3.996  13.781  0.2014 -0.6375  0.2690
15259TIP3    H267269   2.216   4.068  13.852 -0.9135  0.0702  1.3687
15260TIP3   OH267270   0.892   5.499   4.616  0.0845  0.6650 -0.4954
15260TIP3    H167271   0.901   5.438   4.689 -0.9025  1.5616  0.4086
15260TIP3    H267272   0.812   5.473   4.572  1.1815 -0.4901 -1.9022
15261TIP3   OH267273   0.071   0.689  10.355 -0.7054  0.1602 -0.1784
15261TIP3    H167274   0.002   0.624  10.338  0.4887 -1.2581  0.1553
15261TIP3    H267275   0.152   0.638  10.352  0.0525  0.7957  3.8927
15262TIP3   OH267276   2.208   6.775  13.851  0.0163  0.1529  0.9543
15262TIP3    H167277   2.152   6.708  13.811  0.7074 -0.4635  0.9760
15262TIP3    H267278   2.148   6.833  13.897 -0.5743 -0.7931  1.4156
15263TIP3   OH267279   5.474   6.770  14.210 -0.6160  0.0594 -0.0841
15263TIP3    H167280   5.515   6.690  14.241 -1.3640  0.3486  1.7653
15263TIP3    H267281   5.476   6.763  14.115 -1.2302 -2.4300  0.0313
15264TIP3   OH267282   1.200   1.793  15.420  0.1875  0.1442  0.1605
15264TIP3    H167283   1.205   1.728  15.490 -0.5808  0.1770  0.2556
15264TIP3    H267284   1.113   1.780  15.382  0.9175 -0.4826 -1.3793
15265TIP3   OH267285   2.558   2.252  15.068 -0.0121  0.5779 -0.2744
15265TIP3    H167286   2.543   2.209  14.984  1.6615  0.2411 -0.4292
15265TIP3    H267287   2.638   2.303  15.056  1.2900 -0.8721  1.5909
15266TIP3   OH267288   3.719   0.316  15.002  0.8296  0.0987 -0.0211
15266TIP3    H167289   3.738   0.403  14.967  1.8011 -0.3069 -0.5548
15266TIP3    H267290   3.653   0.330  15.069 -1.7692  0.8385 -2.5373
15267TIP3   OH267291   6.231   2.688   5.751 -0.2631  0.3813  0.5982
15267TIP3    H167292   6.220   2.605   5.798 -0.0832  1.2803  2.3405
15267TIP3    H267293   6.177   2.750   5.800 -0.4261  1.2987 -0.6997
15268TIP3   OH267294   6.802   3.231   0.402 -0.1089  0.2006  0.3726
15268TIP3    H167295   6.841   3.292   0.340 -0.0727 -0.3319 -0.1447
15268TIP3    H267296   6.874   3.174   0.428 -0.6988 -1.5209 -1.4672
15269TIP3   OH267297   0.201   0.870   1.030 -0.3369  0.4034 -0.0290
15269TIP3    H167298   0.247   0.786   1.023 -1.4292 -0.3318  1.1844
15269TIP3    H267299   0.227   0.905   1.115 -1.7942  0.0912  0.5664
15270TIP3   OH267300   0.053   6.399   3.263 -0.3445 -0.2329  0.5786
15270TIP3    H167301  -0.032   6.373   3.227  0.6435 -1.0742 -1.2754
15270TIP3    H267302   0.081   6.323   3.314 -0.3109 -0.2992  0.4617
15271TIP3   OH267303   0.980   5.551  11.805 -0.4088 -0.3695 -0.4512
15271TIP3    H167304   0.926   5.604  11.863  1.8238  1.1983  0.3649
15271TIP3    H267305   0.940   5.561  11.719 -1.5074  0.5279  0.1388
15272TIP3   OH267306   6.327   2.758   2.085  0.0099 -0.2894  0.3607
15272TIP3    H167307   6.286   2.813   2.018  1.9403  0.5319 -0.2044
15272TIP3    H267308   6.256   2.740   2.147 -1.2221  0.9834 -0.5950
15273TIP3   OH267309   0.291   1.542   3.781 -0.0257  0.2654 -0.5933
15273TIP3    H167310   0.259   1.622   3.740 -1.2209  1.3646  2.2120
15273TIP3    H267311   0.237   1.533   3.860  0.6524 -2.8727 -0.3822
15274TIP3   OH267312   0.404   4.753   0.009  0.5904 -0.2052 -0.3912
15274TIP3    H167313   0.418   4.675  -0.045 -0.5072  0.3393 -1.5170
15274TIP3    H267314   0.438   4.825  -0.044  2.1904  0.0512  0.9104
15275TIP3   OH267315   2.500   4.209  16.501 -0.2703 -0.2029  0.0234
15275TIP3    H167316   2.562   4.282  16.498  1.6656 -1.6779  1.1820
15275TIP3    H267317   2.535   4.146  16.438 -0.1853 -1.3230  1.1378
15276TIP3   OH267318   2.279   2.943  11.965  0.2140  0.0067  0.1696
15276TIP3    H167319   2.318   2.855  11.967  1.0458  0.3853  0.8448
15276TIP3    H267320   2.279   2.967  11.872 -0.4751 -0.8968 -0.0834
15277TIP3   OH267321   6.317   2.448  12.286  0.0543 -0.2093 -0.5702
15277TIP3    H167322   6.305   2.543  12.283 -0.4447 -0.2609 -0.3338
15277TIP3    H267323   6.269   2.415  12.210  0.0476 -0.2873 -0.5321
15278TIP3   OH267324   0.561   1.414   3.306 -0.4309  0.2150  0.6021
15278TIP3    H167325   0.623   1.361   3.256 -0.1104  1.0477  0.1056
15278TIP3    H267326   0.581   1.504   3.282 -0.4523  0.6292  2.0109
15279TIP3   OH267327   1.652   0.842   1.109  0.0503  0.6042 -0.4170
15279TIP3    H167328   1.562   0.874   1.101  0.3491  1.4987 -0.3680
15279TIP3    H267329   1.706   0.920   1.095  0.8178  0.0702 -0.4692
15280TIP3   OH267330   5.196   5.276   2.392  0.6511  0.0912 -0.0350
15280TIP3    H167331   5.122   5.224   2.362 -0.0524  0.5638  0.8330
15280TIP3    H267332   5.188   5.359   2.344  0.8250  0.0087 -0.2071
15281TIP3   OH267333   2.415   5.721   2.111 -0.4113  0.3914  0.0595
15281TIP3    H167334   2.460   5.711   2.027 -2.4003 -0.0192 -1.0186
15281TIP3    H267335   2.322   5.728   2.088 -0.9397  1.1836  2.1787
15282TIP3   OH267336   3.279   5.559   3.402  0.0791 -0.0548  0.3884
15282TIP3    H167337   3.270   5.651   3.377  1.6703  0.0389  0.0495
15282TIP3    H267338   3.372   5.539   3.387  0.2729 -1.0808  2.5926
15283TIP3   OH267339   4.571   1.417   2.586  0.4353 -0.7395 -0.0639
15283TIP3    H167340   4.576   1.509   2.560  0.6260 -0.7413 -0.0354
15283TIP3    H267341   4.477   1.398   2.587  0.4317 -0.8728 -1.2034
15284TIP3   OH267342   3.868   5.483  13.117  0.1359 -0.3226 -0.2090
15284TIP3    H167343   3.853   5.408  13.059  1.4355 -0.9589  0.2599
15284TIP3    H267344   3.901   5.551  13.059 -0.4009 -0.3225 -0.5260
15285TIP3   OH267345   4.474   6.434   3.133 -0.0768  0.4671  0.6961
15285TIP3    H167346   4.564   6.447   3.162  0.8805  0.4759 -2.0013
15285TIP3    H267347   4.460   6.340   3.143  0.7894  0.2198 -0.2600
15286TIP3   OH267348   1.484   4.455   3.908  0.2925  0.2310  0.0002
15286TIP3    H167349   1.461   4.393   3.838 -0.6415  2.8061 -2.1553
15286TIP3    H267350   1.409   4.453   3.968  1.3991 -2.5102  1.4384
15287TIP3   OH267351   5.000   5.929   5.480  0.7936 -0.7135 -0.3032
15287TIP3    H167352   4.940   5.920   5.555 -0.1460  1.4921 -0.7326
15287TIP3    H267353   5.049   5.847   5.480 -0.4092 -1.5188  1.6558
15288TIP3   OH267354   5.730   5.140   0.921 -0.0154  0.3094  0.2757
15288TIP3    H167355   5.695   5.123   0.833  0.2342  0.7074  0.0955
15288TIP3    H267356   5.717   5.058   0.968  0.3742 -0.0898 -0.3056
15289TIP3   OH267357   0.840   6.567   4.163  0.1394 -0.3252 -0.2056
15289TIP3    H167358   0.916   6.508   4.174  0.9672  0.5749 -0.9312
15289TIP3    H267359   0.803   6.542   4.078  1.2714  1.0073 -1.1412
15290TIP3   OH267360   5.611   3.083   1.815  0.3242 -0.3925 -0.9616
15290TIP3    H167361   5.588   3.074   1.722  0.8855 -2.1206 -0.9728
15290TIP3    H267362   5.672   3.157   1.817  1.8983 -1.5766 -2.3168
15291TIP3   OH267363   0.085   5.377   4.109 -0.3591  0.5310  0.3605
15291TIP3    H167364   0.176   5.404   4.125  0.8746 -2.0685 -1.4671
15291TIP3    H267365   0.032   5.441   4.156  2.4044  2.2485  1.3789
15292TIP3   OH267366   4.879   5.232  16.704 -0.2464 -0.0360  0.1829
15292TIP3    H167367   4.907   5.210  16.615 -0.7593  0.3010 -0.0673
15292TIP3    H267368   4.951   5.203  16.759  0.8052  1.1712 -0.4822
15293TIP3   OH267369   4.817   6.723  16.646 -0.7587  0.1971  0.2183
15293TIP3    H167370   4.849   6.664  16.714  1.0074  1.1324  0.2429
15293TIP3    H267371   4.804   6.668  16.569 -1.6695 -0.6607  0.9644
15294TIP3   OH267372   5.983   5.757   1.259  0.0794  0.0351  0.4149
15294TIP3    H167373   5.996   5.741   1.352  2.1751 -1.7348 -0.0932
15294TIP3    H267374   6.069   5.741   1.220 -0.8357  0.3263 -1.8867
15295TIP3   OH267375   1.393   2.246   6.487 -0.1624 -0.0634 -0.0415
15295TIP3    H167376   1.386   2.290   6.403 -0.8937 -1.6733 -0.8576
15295TIP3    H267377   1.472   2.284   6.527 -0.2605  1.3010 -1.0779
15296TIP3   OH267378   1.640   2.861  13.219 -0.1577 -0.3856 -0.8440
15296TIP3    H167379   1.604   2.821  13.298 -0.3570 -0.1944 -0.8361
15296TIP3    H267380   1.727   2.890  13.244 -0.3726  0.0396 -0.5751
15297TIP3   OH267381   3.494   4.295   3.767 -0.1473 -0.2231 -0.5581
15297TIP3    H167382   3.543   4.239   3.708 -0.5256 -0.7813 -0.3482
15297TIP3    H267383   3.458   4.364   3.711  1.7304  0.8227 -0.5716
15298TIP3   OH267384   1.679   5.900   2.025 -0.3900  0.3987  0.3678
15298TIP3    H167385   1.724   5.960   2.085 -0.2136  0.6060  0.0313
15298TIP3    H267386   1.617   5.852   2.081  1.4358 -1.1261  1.1769
15299TIP3   OH267387   5.768   6.672  14.146  0.2812  0.1175  0.5656
15299TIP3    H167388   5.858   6.703  14.157  1.1610 -2.1142  0.3311
15299TIP3    H267389   5.745   6.635  14.232  0.6941 -1.8309 -0.1122
15300TIP3   OH267390   5.020   3.241   1.175 -0.8633 -0.2170  0.2665
15300TIP3    H167391   4.961   3.314   1.192 -0.2635  0.4110 -0.2764
15300TIP3    H267392   5.079   3.273   1.107  0.4868 -0.6228  1.2113
15301TIP3   OH267393   4.327   0.885   1.315 -0.3014  0.1495  0.3716
15301TIP3    H167394   4.237   0.917   1.316 -0.8857 -1.4128  0.4851
15301TIP3    H267395   4.334   0.834   1.234  0.5345  0.3708  0.2918
15302TIP3   OH267396   2.085   5.596   5.059 -0.4063  0.3598  0.1702
15302TIP3    H167397   2.016   5.579   5.123 -1.9944 -1.0764 -1.7632
15302TIP3    H267398   2.091   5.514   5.009  2.0140  0.8096 -0.3761
15303TIP3   OH267399   3.216   3.353  14.543  0.0216 -0.1904  0.0946
15303TIP3    H167400   3.139   3.310  14.581  0.4231 -0.8146  0.2148
15303TIP3    H267401   3.244   3.293  14.473  1.3513 -0.7871  1.0875
15304TIP3   OH267402   4.886   2.741   0.168 -0.4038 -0.2049 -0.2957
15304TIP3    H167403   4.896   2.806   0.237  2.0460 -2.5975  1.8316
15304TIP3    H267404   4.938   2.775   0.095 -2.0845  1.8065 -0.6447
15305TIP3   OH267405   3.019   6.035   3.903  0.5763  0.2398  0.2921
15305TIP3    H167406   2.943   5.976   3.901  1.4229 -0.8862  0.2660
15305TIP3    H267407   3.027   6.060   3.995  0.1224  0.4294  0.2811
15306TIP3   OH267408   4.689   2.199   4.038  0.2322  0.2698 -0.1345
15306TIP3    H167409   4.709   2.217   3.947  1.4672 -1.2668 -0.2070
15306TIP3    H267410   4.606   2.151   4.035  0.6675 -0.4725 -0.5290
15307TIP3   OH267411   3.666   1.669   5.641 -0.1810  0.1224 -0.1237
15307TIP3    H167412   3.760   1.686   5.645 -0.5101  1.9045  1.1322
15307TIP3    H267413   3.659   1.584   5.598  2.0979 -0.7874  1.1264
15308TIP3   OH267414   0.104   5.027  11.037  0.2576  0.4040 -0.1042
15308TIP3    H167415   0.046   4.954  11.059 -0.4954  0.7531 -0.8568
15308TIP3    H267416   0.177   5.019  11.098 -0.4890 -0.1627  0.7475
15309TIP3   OH267417   5.204   2.551   5.204  0.4391 -0.3906  0.0538
15309TIP3    H167418   5.161   2.466   5.214 -0.6761  0.2282  0.6617
15309TIP3    H267419   5.283   2.532   5.154  0.1349 -1.7656  0.0656
15310TIP3   OH267420   1.368   3.103   4.760  0.0878 -0.0317  0.5309
15310TIP3    H167421   1.334   3.014   4.770 -0.6591  0.1697 -0.1764
15310TIP3    H267422   1.390   3.130   4.849 -0.7180 -0.5172  0.8884
15311TIP3   OH267423   5.858   4.037   6.464  0.5624 -0.2136  0.2191
15311TIP3    H167424   5.888   4.039   6.555  0.0005 -1.3445  0.4528
15311TIP3    H267425   5.768   4.005   6.470 -0.4752  2.3251 -0.5142
15312TIP3   OH267426   4.615   0.801  11.360 -0.1136  0.3002 -0.1284
15312TIP3    H167427   4.671   0.878  11.356  0.1985  0.0507 -0.7265
15312TIP3    H267428   4.542   0.822  11.301 -1.8815  1.5562  2.3268
15313TIP3   OH267429   5.245   0.351  16.790 -0.6549  0.1920 -0.1825
15313TIP3    H167430   5.291   0.418  16.840  0.2699  0.2531 -1.0926
15313TIP3    H267431   5.306   0.278  16.786 -1.5636 -0.6460  0.5987
15314TIP3   OH267432   1.071   5.821   5.111 -0.1744 -0.5582  0.4156
15314TIP3    H167433   1.064   5.844   5.018  1.2623 -1.3447  0.0773
15314TIP3    H267434   1.049   5.901   5.158  3.9510  1.4731 -0.6711
15315TIP3   OH267435   1.044   1.645   0.048  0.3572 -0.1855  0.7957
15315TIP3    H167436   1.032   1.737   0.024  1.2953 -0.5330 -1.2321
15315TIP3    H267437   1.064   1.602  -0.035  0.3568 -2.1533  1.7771
15316TIP3   OH267438   5.017   5.056  15.406 -0.0374 -0.6117  0.2780
15316TIP3    H167439   5.080   5.060  15.334 -1.2535 -0.2056 -0.7965
15316TIP3    H267440   5.070   5.067  15.485  1.2026 -0.0571 -0.6060
15317TIP3   OH267441   2.681   5.534   1.385  0.4354 -0.0146  0.1234
15317TIP3    H167442   2.586   5.545   1.372  0.5144  1.1628  0.4133
15317TIP3    H267443   2.705   5.604   1.445  1.2939 -1.0451  1.0356
15318TIP3   OH267444   6.455   3.176   5.110  0.0734 -0.2931 -0.1589
15318TIP3    H167445   6.400   3.248   5.140 -0.4201 -0.1459 -1.3590
15318TIP3    H267446   6.476   3.127   5.189 -2.5820 -0.9101  0.2828
15319TIP3   OH267447   4.546   1.447   2.965  0.1338  0.0521 -0.4596
15319TIP3    H167448   4.580   1.503   2.894 -2.4294 -0.7234 -2.4594
15319TIP3    H267449   4.563   1.358   2.934 -0.6674 -0.2964  0.0982
15320TIP3   OH267450   1.263   1.570   3.197 -0.3230  0.0659 -0.0326
15320TIP3    H167451   1.191   1.610   3.245 -0.0874 -1.5125  1.7758
15320TIP3    H267452   1.331   1.555   3.264  1.2887  0.6029 -1.4862
15321TIP3   OH267453   3.351   3.814   5.984 -0.1918  0.1163 -0.6051
15321TIP3    H167454   3.291   3.882   5.956 -0.3705 -0.4668 -1.6757
15321TIP3    H267455   3.305   3.732   5.966  1.0102 -0.3460 -1.6856
15322TIP3   OH267456   5.915   3.532  12.512  0.0548 -0.2855 -0.7871
15322TIP3    H167457   5.866   3.580  12.444 -2.0855  0.8635  1.4029
15322TIP3    H267458   5.849   3.508  12.577  2.0264 -1.0720  1.0541
15323TIP3   OH267459   0.710   3.680  11.699 -0.2022 -0.2340 -0.1815
15323TIP3    H167460   0.691   3.636  11.617  0.1354  1.7314 -1.3707
15323TIP3    H267461   0.653   3.637  11.763  1.8241 -4.0787 -0.6109
15324TIP3   OH267462   6.470   1.464  12.259  0.2509  0.0627 -0.6509
15324TIP3    H167463   6.566   1.456  12.256  0.2101 -1.1111  0.6116
15324TIP3    H267464   6.450   1.480  12.351 -0.7479  0.8359 -0.9868
15325TIP3   OH267465   6.660   0.201   1.040  0.6831 -0.1813 -0.3709
15325TIP3    H167466   6.626   0.281   1.079  2.4024 -0.0301  0.9196
15325TIP3    H267467   6.663   0.139   1.112 -0.0213 -1.2427 -1.2184
15326TIP3   OH267468   4.629   5.577  12.003  0.1100  0.3781  0.3378
15326TIP3    H167469   4.635   5.672  12.003 -1.2430  0.4944  1.0620
15326TIP3    H267470   4.653   5.551  12.092 -1.7586  0.2608  0.8544
15327TIP3   OH267471   0.233   2.082   3.209 -0.3541  0.5157 -0.3499
15327TIP3    H167472   0.229   2.126   3.125 -0.0402 -1.4475 -1.4626
15327TIP3    H267473   0.261   2.150   3.271  0.4482  1.7641 -2.0029
15328TIP3   OH267474   2.410   6.387  14.456 -0.3146  0.3551 -0.2944
15328TIP3    H167475   2.467   6.453  14.495 -1.7169  0.7651  1.1834
15328TIP3    H267476   2.434   6.306  14.501 -1.4681  0.6999  0.9999
15329TIP3   OH267477   2.719   5.267  11.759 -0.1311 -0.3280  0.0680
15329TIP3    H167478   2.754   5.262  11.669  1.5004 -1.3407  0.7242
15329TIP3    H267479   2.763   5.343  11.797  0.1709 -0.6773  0.4184
15330TIP3   OH267480   6.535   3.612  14.092  0.1955 -0.4777 -0.0936
15330TIP3    H167481   6.517   3.668  14.167  2.2980 -0.2794  0.3187
15330TIP3    H267482   6.507   3.524  14.119 -0.1505 -0.1979  0.4597
15331TIP3   OH267483   0.005   1.554  12.792 -0.3967  0.4234  0.2128
15331TIP3    H167484  -0.061   1.609  12.750 -1.1317 -0.1263  0.6218
15331TIP3    H267485   0.072   1.615  12.823 -0.9161  1.0319  0.1478
15332TIP3   OH267486   0.425   2.875   5.144 -0.0200  0.3395 -0.1564
15332TIP3    H167487   0.428   2.781   5.129  0.6072  0.3026  0.1816
15332TIP3    H267488   0.371   2.885   5.223 -0.2885  0.2877 -0.3291
15333TIP3   OH267489   5.348   5.130   4.105 -0.2272 -0.6653 -0.4421
15333TIP3    H167490   5.279   5.171   4.052  0.3089 -0.1944 -0.7975
15333TIP3    H267491   5.309   5.050   4.138 -1.0588 -0.2373 -0.3581
15334TIP3   OH267492   5.349   4.805  11.798  0.9711  0.0054  0.4751
15334TIP3    H167493   5.402   4.727  11.783 -0.8802 -1.4519  1.1803
15334TIP3    H267494   5.363   4.827  11.890  0.6853 -0.1413  0.5555
15335TIP3   OH267495   5.647   0.751  13.843 -0.0251 -0.0595 -0.0968
15335TIP3    H167496   5.609   0.833  13.810 -0.2491  0.6362  1.7330
15335TIP3    H267497   5.721   0.779  13.897 -0.3632 -1.0147  0.9060
15336TIP3   OH267498   4.689   3.325   3.214 -0.1311  0.3351  0.0146
15336TIP3    H167499   4.688   3.418   3.191  2.5682  0.8016  1.3169
15336TIP3    H267500   4.660   3.323   3.306 -0.7240 -0.2024 -0.1770
15337TIP3   OH267501   4.689   5.124  14.101  0.8166  0.1407  0.1446
15337TIP3    H167502   4.745   5.047  14.098 -1.2409 -1.3980 -0.8152
15337TIP3    H267503   4.690   5.159  14.012 -0.9983 -0.9400 -0.3700
15338TIP3   OH267504   1.517   4.783  11.124  0.0056 -0.2257 -0.1958
15338TIP3    H167505   1.425   4.789  11.098 -0.3411 -0.7122  0.8927
15338TIP3    H267506   1.516   4.740  11.209  1.3078 -1.1351 -0.5948
15339TIP3   OH267507   4.909   5.150  16.465 -0.1629 -0.1253  0.1060
15339TIP3    H167508   4.988   5.133  16.414  0.2680 -0.0596  0.7505
15339TIP3    H267509   4.869   5.063  16.476 -0.3069 -0.1305 -0.4074
15340TIP3   OH267510   1.370   3.013   3.493  0.1068 -0.2019 -0.2021
15340TIP3    H167511   1.365   2.986   3.401  0.4841 -3.5739  0.6515
15340TIP3    H267512   1.458   2.988   3.521  0.9468  3.0920  0.5437
15341TIP3   OH267513   2.773   6.209  14.361  0.2270  0.9422 -0.3752
15341TIP3    H167514   2.717   6.220  14.285 -0.9745  2.3109  0.6602
15341TIP3    H267515   2.732   6.139  14.412 -1.2980  2.6876  0.9431
15342TIP3   OH267516   3.958   2.915  14.384  0.0210 -0.0291  0.4816
15342TIP3    H167517   3.977   2.825  14.357  1.2684  0.5761 -0.8415
15342TIP3    H267518   4.021   2.932  14.454 -0.9378 -0.5119  1.4804
15343TIP3   OH267519   1.293   3.208  14.024 -0.0754  0.8771 -0.0911
15343TIP3    H167520   1.356   3.153  14.071  0.9801  0.0728 -2.3182
15343TIP3    H267521   1.302   3.294  14.064  2.1368  0.6744 -0.0443
15344TIP3   OH267522   5.480   0.744   4.923 -0.0690 -0.1487  0.1083
15344TIP3    H167523   5.398   0.776   4.884  0.4584  1.1131 -0.0115
15344TIP3    H267524   5.549   0.781   4.868  0.6311  0.2334  1.2158
15345TIP3   OH267525   5.581   2.211  17.047 -0.0436  0.8375  0.3157
15345TIP3    H167526   5.621   2.170  17.123 -0.5649  0.6596  0.5003
15345TIP3    H267527   5.654   2.253  17.001  0.2304  1.2187  1.0796
15346TIP3   OH267528   3.344   2.622  14.902 -0.4073 -0.0381  0.3892
15346TIP3    H167529   3.425   2.572  14.916 -0.9073 -0.2272  3.1649
15346TIP3    H267530   3.282   2.558  14.867  0.3352 -0.1302 -0.8046
15347TIP3   OH267531   5.065   2.009   0.328 -0.4283  0.1297  0.6286
15347TIP3    H167532   5.028   2.058   0.255  0.3196 -2.3316 -1.5469
15347TIP3    H267533   5.141   2.060   0.355  1.7528 -0.7071 -3.1307
15348TIP3   OH267534   1.331   2.653  17.004  0.0472  0.2113 -0.1651
15348TIP3    H167535   1.258   2.699  16.962 -0.7634 -0.3687  0.5690
15348TIP3    H267536   1.404   2.715  17.000 -1.1352  1.7903  1.2249
15349TIP3   OH267537   2.874   6.709  13.096  0.3789  0.1254  0.1411
15349TIP3    H167538   2.923   6.661  13.162 -0.9226 -0.6786  0.5702
15349TIP3    H267539   2.920   6.691  13.013  0.7278 -0.7057  0.5025
15350TIP3   OH267540   0.159   5.707  13.764  0.3518 -0.0718 -1.1622
15350TIP3    H167541   0.100   5.727  13.691 -1.2400 -0.6511 -0.0995
15350TIP3    H267542   0.189   5.618  13.747 -3.7915 -2.2028  1.1017
15351TIP3   OH267543   1.861   0.988  16.392 -0.0013 -0.1535  0.0192
15351TIP3    H167544   1.930   1.037  16.436  0.0136 -0.0748 -0.0908
15351TIP3    H267545   1.907   0.938  16.323 -0.0454 -0.1473 -0.0150
15352TIP3   OH267546   1.678   2.861  11.097  0.3981 -0.0250  0.6454
15352TIP3    H167547   1.627   2.864  11.015  0.4824 -1.0419  0.5470
15352TIP3    H267548   1.666   2.948  11.135 -1.0041 -0.0625  0.3723
15353TIP3   OH267549   0.899   4.798   2.966  0.4751 -0.2282  0.3280
15353TIP3    H167550   0.919   4.891   2.975 -0.5442  0.5395 -3.4973
15353TIP3    H267551   0.947   4.771   2.888 -0.9211 -2.3679  0.1345
15354TIP3   OH267552   1.873   5.625  12.274 -0.0784  0.3445  0.1242
15354TIP3    H167553   1.831   5.697  12.321  2.3144  0.0128  3.0927
15354TIP3    H267554   1.949   5.666  12.232  1.3260 -0.3212  1.8735
15355TIP3   OH267555   6.450   5.117  14.005 -0.0138  0.3689  0.3526
15355TIP3    H167556   6.444   5.029  13.968  1.5968  0.3674  0.0304
15355TIP3    H267557   6.493   5.168  13.937  0.6053  0.9930  1.1986
15356TIP3   OH267558   0.487   2.321  14.304  0.0112  0.6371 -0.2885
15356TIP3    H167559   0.442   2.239  14.284  0.4993  0.7376 -2.0056
15356TIP3    H267560   0.569   2.293  14.345 -1.2703  0.4380  2.3245
15357TIP3   OH267561   0.995   6.744  15.728  0.2729  0.7541 -0.3333
15357TIP3    H167562   0.947   6.720  15.649  0.7237 -1.2901 -0.0589
15357TIP3    H267563   1.086   6.720  15.708  0.3791  0.1494  0.8197
15358TIP3   OH267564   3.722   4.468   4.646  0.2345  0.6608 -0.7687
15358TIP3    H167565   3.698   4.434   4.560 -3.6767 -3.0244  1.3668
15358TIP3    H267566   3.798   4.415   4.673 -0.6784 -0.6987 -0.7371
15359TIP3   OH267567   2.741   6.446   5.907 -0.4581  1.2412 -0.4978
15359TIP3    H167568   2.761   6.482   5.993 -1.9810  1.7546 -0.3435
15359TIP3    H267569   2.825   6.410   5.876  0.7446  3.4368  0.0294
15360TIP3   OH267570   3.810   0.596  14.366  0.0849  0.1877  0.7326
15360TIP3    H167571   3.854   0.637  14.292 -2.9523  0.5936 -1.0180
15360TIP3    H267572   3.736   0.653  14.385 -1.9230 -2.3187  0.9520
15361TIP3   OH267573   3.402   6.517  13.145 -0.2076 -0.3724 -0.3101
15361TIP3    H167574   3.348   6.553  13.215 -0.6704 -2.5592  0.5402
15361TIP3    H267575   3.373   6.427  13.137  1.4585 -0.8278 -1.7342
15362TIP3   OH267576   2.129   2.626   2.596 -0.0106 -0.3231  0.1322
15362TIP3    H167577   2.193   2.667   2.537 -1.6482  2.0539 -0.1304
15362TIP3    H267578   2.067   2.582   2.537  0.4145 -1.1666  0.3019
15363TIP3   OH267579   4.475   0.877   6.221 -0.0304 -0.0159  0.2843
15363TIP3    H167580   4.542   0.941   6.197 -0.7032  0.1732 -1.2378
15363TIP3    H267581   4.407   0.928   6.266 -0.3023  0.2482 -0.4184
15364TIP3   OH267582   5.252   2.569   5.511  0.1096  0.5490  0.6636
15364TIP3    H167583   5.207   2.559   5.427 -2.5579  1.0138  1.9613
15364TIP3    H267584   5.323   2.631   5.492 -1.4027  1.8912 -0.9288
15365TIP3   OH267585   2.933   1.682  16.007  0.7791 -0.7106  0.0608
15365TIP3    H167586   2.891   1.602  15.975  1.1168 -1.1267  0.6338
15365TIP3    H267587   2.990   1.652  16.078  2.1818 -0.1940 -0.8015
15366TIP3   OH267588   3.006   1.691   3.148 -0.4836 -0.1047 -0.2913
15366TIP3    H167589   3.042   1.766   3.196  0.3928 -0.1718 -0.8261
15366TIP3    H267590   3.074   1.668   3.086 -1.1720 -0.7069 -0.8314
15367TIP3   OH267591   0.450   1.191  13.632 -0.0680  0.6235 -0.4770
15367TIP3    H167592   0.425   1.235  13.713 -1.5834  1.5338 -1.3770
15367TIP3    H267593   0.367   1.168  13.591  0.6813 -0.7567 -1.2900
15368TIP3   OH267594   1.032   5.686  14.380  0.2924  0.0963 -0.1180
15368TIP3    H167595   0.961   5.643  14.332 -0.8901  1.2310  0.5444
15368TIP3    H267596   1.088   5.723  14.312  0.0467 -0.5080 -0.6543
15369TIP3   OH267597   1.921   1.479   4.598  0.2144  0.1277  0.7795
15369TIP3    H167598   1.845   1.422   4.603 -0.0042  0.3620  0.2061
15369TIP3    H267599   1.955   1.467   4.509  0.4376  0.5356  0.8057
15370TIP3   OH267600   3.422   0.947   2.585  0.2682 -0.5756 -0.4984
15370TIP3    H167601   3.458   0.898   2.659 -0.3387 -1.0609 -0.5207
15370TIP3    H267602   3.499   0.981   2.540  0.6868 -1.2028 -0.2708
15371TIP3   OH267603   5.884   4.885   0.536  0.4823  1.2006 -0.3626
15371TIP3    H167604   5.885   4.970   0.580 -0.2872  0.8415  0.3936
15371TIP3    H267605   5.840   4.827   0.599  0.0324  0.4949 -1.3086
15372TIP3   OH267606   6.340   6.051  11.724 -0.1259  0.4088  0.0101
15372TIP3    H167607   6.400   6.011  11.661  0.3236 -0.6273  1.0745
15372TIP3    H267608   6.270   5.987  11.734 -1.1467  1.3465 -0.7594
15373TIP3   OH267609   2.093   6.001   3.639 -0.6173 -0.0356  0.1437
15373TIP3    H167610   2.044   6.022   3.560 -0.5705 -1.0170 -0.1573
15373TIP3    H267611   2.102   5.905   3.638  0.5062  0.0433  0.6577
15374TIP3   OH267612   5.763   0.818   5.462 -0.4592  0.0276  0.0739
15374TIP3    H167613   5.730   0.845   5.377 -1.1518  0.1840  0.3811
15374TIP3    H267614   5.714   0.872   5.525 -0.8233 -0.9112  0.6211
15375TIP3   OH267615   3.236   4.395  10.341 -0.7584 -0.0453 -0.4040
15375TIP3    H167616   3.173   4.376  10.272 -0.9127  3.1641 -1.2905
15375TIP3    H267617   3.282   4.473  10.312  0.9280 -0.0100  2.0142
15376TIP3   OH267618   0.857   3.955   1.929  0.3384 -0.0068 -0.0569
15376TIP3    H167619   0.808   3.973   2.010 -0.3943  0.0062 -0.4959
15376TIP3    H267620   0.822   4.016   1.865 -0.1810 -1.0307 -0.7924
15377TIP3   OH267621   1.938   0.451  16.502 -0.0071 -0.0139  0.1212
15377TIP3    H167622   1.859   0.404  16.472 -0.6219  1.0845 -0.0238
15377TIP3    H267623   1.940   0.530  16.448 -0.3496  1.3264  1.9859
15378TIP3   OH267624   2.371   3.639  10.893 -0.2479 -0.4296  0.1236
15378TIP3    H167625   2.343   3.632  10.802  1.0119  0.4311 -0.3533
15378TIP3    H267626   2.423   3.560  10.908  1.5083  0.5320 -0.6551
15379TIP3   OH267627   2.546   2.314   5.348 -0.1418 -0.3169 -0.1291
15379TIP3    H167628   2.461   2.281   5.319 -1.8687  3.0742  0.4333
15379TIP3    H267629   2.527   2.355   5.433  1.7861  1.5221 -0.5028
15380TIP3   OH267630   2.400   3.305   5.828 -0.0265 -0.8979  0.0480
15380TIP3    H167631   2.412   3.267   5.915  1.3028  0.2068  0.3838
15380TIP3    H267632   2.485   3.297   5.786 -0.7140 -1.6400 -1.2752
15381TIP3   OH267633   5.003   0.244  12.495 -0.0110 -0.0626  0.9886
15381TIP3    H167634   5.035   0.330  12.523  2.4128 -0.4695 -0.2599
15381TIP3    H267635   5.076   0.185  12.510 -0.7058 -1.4058 -0.5625
15382TIP3   OH267636   6.130   6.111   5.361  0.3854  0.3109  0.4705
15382TIP3    H167637   6.130   6.040   5.426  0.1587 -0.0552  0.0784
15382TIP3    H267638   6.170   6.072   5.284 -0.9454  0.1909 -0.1860
15383TIP3   OH267639   3.566   0.933  15.476  0.4344  0.2340  0.2844
15383TIP3    H167640   3.526   0.956  15.560 -0.1453 -0.5675  0.2377
15383TIP3    H267641   3.650   0.977  15.477 -0.3289  1.7570  0.4978
15384TIP3   OH267642   6.554   3.268   3.363 -0.3294  0.0881  0.3206
15384TIP3    H167643   6.513   3.339   3.314 -0.9096  0.7662  1.7108
15384TIP3    H267644   6.493   3.196   3.357 -0.2120  0.0363 -0.2676
15385TIP3   OH267645   0.493   5.454   3.587 -0.3392  0.7570  0.1915
15385TIP3    H167646   0.504   5.473   3.681  0.5901  0.4370  0.1530
15385TIP3    H267647   0.465   5.538   3.550 -0.2802  1.0030  0.6825
15386TIP3   OH267648   3.237   2.198   6.240  0.5803  0.1634 -0.2586
15386TIP3    H167649   3.249   2.273   6.181  0.1961  0.2441 -0.2397
15386TIP3    H267650   3.300   2.133   6.209  0.8447  0.4577 -0.3395
15387TIP3   OH267651   3.453   3.338   0.550 -0.0800  1.1297  0.3819
15387TIP3    H167652   3.366   3.299   0.548 -0.2582  1.4988  0.6551
15387TIP3    H267653   3.512   3.268   0.521 -0.3969  0.6808  0.8010
15388TIP3   OH267654   3.574   5.228   5.174 -0.4997 -0.1255 -0.1419
15388TIP3    H167655   3.515   5.161   5.138 -1.6176  1.6064 -1.7524
15388TIP3    H267656   3.515   5.298   5.203  0.6737  1.9872 -2.4380
15389TIP3   OH267657   0.429   3.742   3.445 -0.0299 -0.3859 -0.2463
15389TIP3    H167658   0.476   3.743   3.362 -0.6311 -0.0379 -0.5887
15389TIP3    H267659   0.451   3.658   3.484 -1.3018 -1.4127 -1.6566
15390TIP3   OH267660   0.950   1.014  11.438 -0.4881 -0.2424  1.0780
15390TIP3    H167661   0.950   0.918  11.439 -0.3867 -0.2656 -0.2497
15390TIP3    H267662   0.918   1.038  11.351  2.2956  0.8974  0.2656
15391TIP3   OH267663   4.444   2.552   2.541 -0.1003 -0.1939  0.2532
15391TIP3    H167664   4.486   2.630   2.579 -0.7985  0.6038 -0.5680
15391TIP3    H267665   4.380   2.587   2.479  0.3392 -1.4518 -0.9563
15392TIP3   OH267666   5.312   5.609  12.685  0.3023 -0.1007  0.6413
15392TIP3    H167667   5.341   5.619  12.775  0.9329  1.8882  0.2600
15392TIP3    H267668   5.387   5.572  12.639  0.1633 -0.5916  0.7938
15393TIP3   OH267669   4.848   3.072   4.508  0.3827  0.1618  0.0463
15393TIP3    H167670   4.866   2.987   4.549 -0.1118 -1.5965 -3.0309
15393TIP3    H267671   4.753   3.075   4.500  0.4015  0.9974  0.0254
15394TIP3   OH267672   3.123   0.153   4.609  0.0523 -0.1145 -0.7382
15394TIP3    H167673   3.035   0.162   4.572 -0.2158 -1.8722 -0.6109
15394TIP3    H267674   3.127   0.062   4.639  1.0058  0.6146  1.5967
15395TIP3   OH267675   2.148   2.904   2.467  0.8384 -0.2273 -0.3394
15395TIP3    H167676   2.152   2.816   2.430  2.7344  0.2558 -1.3991
15395TIP3    H267677   2.154   2.962   2.390 -0.2810  0.8445  0.3445
15396TIP3   OH267678   0.479   2.351   0.503 -0.3215 -0.3163 -0.7247
15396TIP3    H167679   0.451   2.261   0.522  1.3711 -0.5320  0.9692
15396TIP3    H267680   0.491   2.391   0.589 -0.3993  1.3385 -1.4573
15397TIP3   OH267681   1.907   4.980  11.246  0.4364  0.3072 -0.3695
15397TIP3    H167682   1.811   4.977  11.253  0.3722 -0.5355 -1.2719
15397TIP3    H267683   1.927   5.069  11.220 -0.0751  0.5785  0.1437
15398TIP3   OH267684   0.939   5.421  16.328 -0.2244 -0.4861 -0.2279
15398TIP3    H167685   0.859   5.428  16.380 -0.3530 -1.4288 -0.2691
15398TIP3    H267686   0.965   5.511  16.310 -0.1377 -0.1206  1.5238
15399TIP3   OH267687   3.731   5.608   2.194 -0.0241 -0.3501 -0.4947
15399TIP3    H167688   3.746   5.566   2.279  0.5368 -1.3139 -1.0495
15399TIP3    H267689   3.817   5.608   2.152 -0.1959  0.5845 -0.8733
15400TIP3   OH267690   1.997   3.827   2.329 -0.0168 -0.2440  0.6936
15400TIP3    H167691   1.905   3.848   2.314  0.0419 -0.5842 -0.1777
15400TIP3    H267692   2.011   3.843   2.422 -1.1332 -0.8241  0.9717
15401TIP3   OH267693   2.842   3.928  17.124  0.1722 -0.1672  0.3389
15401TIP3    H167694   2.907   3.875  17.078  1.7363  0.7344  1.4029
15401TIP3    H267695   2.887   3.958  17.203 -0.0433  3.9496 -0.8479
15402TIP3   OH267696   2.208   3.418  11.707 -0.4969  0.4008 -0.2042
15402TIP3    H167697   2.160   3.418  11.790  0.1735  1.7180  0.2122
15402TIP3    H267698   2.148   3.376  11.645 -1.5985  0.6949  0.6207
15403TIP3   OH267699   1.778   0.465  15.551  0.2211  0.3223 -0.3026
15403TIP3    H167700   1.843   0.397  15.538  0.0214  0.2080 -0.7229
15403TIP3    H267701   1.755   0.493  15.462 -0.5671  0.1092 -0.1716
15404TIP3   OH267702   6.177   4.913  14.197  0.0471 -0.4927 -0.1383
15404TIP3    H167703   6.118   4.891  14.124 -3.5453 -0.5619  2.5124
15404TIP3    H267704   6.181   5.008  14.197  0.2681 -0.5006 -0.5625
15405TIP3   OH267705   5.352   5.988  14.162 -0.0898  0.2651 -0.0049
15405TIP3    H167706   5.419   5.983  14.094 -0.8244 -0.7042 -0.6755
15405TIP3    H267707   5.388   6.051  14.225  0.1940  1.9403 -1.7339
15406TIP3   OH267708   4.546   4.323  11.000  0.4688 -0.0970 -0.6623
15406TIP3    H167709   4.496   4.264  11.057 -0.4772  1.7442  0.5074
15406TIP3    H267710   4.606   4.265  10.953  0.7761 -1.8349  1.6449
15407TIP3   OH267711   6.629   2.737  13.326  0.4491 -0.1844  0.2074
15407TIP3    H167712   6.700   2.712  13.385  0.1706 -2.5399 -0.3729
15407TIP3    H267713   6.671   2.791  13.259  1.9817 -2.4225 -0.7420
15408TIP3   OH267714   1.029   5.801  14.905 -0.5389 -0.5725  0.3813
15408TIP3    H167715   0.942   5.783  14.941 -0.5968 -0.6598  0.1997
15408TIP3    H267716   1.078   5.720  14.920 -1.2550 -1.4712 -1.8037
15409TIP3   OH267717   3.903   0.248  12.535 -0.2751 -0.6659 -0.0684
15409TIP3    H167718   3.834   0.300  12.577  0.6379 -1.0996  2.1037
15409TIP3    H267719   3.913   0.172  12.592  1.6774 -0.8420 -0.5890
15410TIP3   OH267720   5.923   2.343   2.939 -0.0556 -0.2341 -0.3268
15410TIP3    H167721   6.005   2.297   2.920 -1.3743 -2.9598  0.1103
15410TIP3    H267722   5.934   2.375   3.029  0.7733  0.0328 -0.5153
15411TIP3   OH267723   4.733   3.712  11.055  0.2065  0.7102 -0.4195
15411TIP3    H167724   4.655   3.766  11.057  1.2997  2.3916  1.6987
15411TIP3    H267725   4.700   3.622  11.052 -1.8514  1.3478  0.8722
15412TIP3   OH267726   2.092   5.141   0.273 -0.2880  0.1272  0.5128
15412TIP3    H167727   2.101   5.051   0.242 -0.3970  0.0490  0.7078
15412TIP3    H267728   2.058   5.133   0.362 -0.5836  0.3680  0.4249
15413TIP3   OH267729   5.940   1.390   3.975 -0.0778 -0.0348  0.1783
15413TIP3    H167730   5.992   1.330   3.921  1.0983 -0.2575  1.4688
15413TIP3    H267731   5.946   1.474   3.931  0.4608 -0.3101 -0.2876
15414TIP3   OH267732   1.524   1.713  16.674 -0.2279 -0.8198 -0.4718
15414TIP3    H167733   1.534   1.722  16.579  0.9666  0.4287 -0.2605
15414TIP3    H267734   1.605   1.670  16.702 -0.6118 -1.2552 -0.0271
15415TIP3   OH267735   3.029   6.792  16.041  0.1091 -0.1422  0.1012
15415TIP3    H167736   2.996   6.824  16.125  0.4857 -0.2278  0.2850
15415TIP3    H267737   3.044   6.871  15.989 -1.7022 -0.1409 -0.5065
15416TIP3   OH267738   0.682   1.110   3.450  0.1217  0.4173  0.3676
15416TIP3    H167739   0.686   1.088   3.357 -0.0925 -1.8186  0.8479
15416TIP3    H267740   0.619   1.182   3.454 -0.7717 -0.2437 -1.0846
15417TIP3   OH267741   4.409   5.537   3.010 -0.1948 -0.0777 -0.6227
15417TIP3    H167742   4.366   5.568   2.930 -0.7610 -0.1477 -0.3578
15417TIP3    H267743   4.353   5.465   3.040 -1.3732  1.4399  1.1043
15418TIP3   OH267744   4.303   6.689  13.321  0.4931 -0.5784  0.0993
15418TIP3    H167745   4.351   6.606  13.321 -0.9456 -1.5041 -2.3149
15418TIP3    H267746   4.313   6.722  13.232 -1.6049  0.2184  0.1158
15419TIP3   OH267747   5.965   5.073   1.004 -0.2376  0.0985  0.1638
15419TIP3    H167748   5.875   5.090   0.979 -0.4755  0.7246  1.3721
15419TIP3    H267749   6.004   5.160   1.015  0.8691 -0.1380 -1.4689
15420TIP3   OH267750   1.435   5.002  14.824  0.3776  0.4218 -0.3179
15420TIP3    H167751   1.422   5.096  14.841 -1.1628  0.3162 -0.7530
15420TIP3    H267752   1.385   4.958  14.893  2.8642 -0.1672  1.2447
15421TIP3   OH267753   3.794   5.865  13.702  0.0555 -0.3622  0.0158
15421TIP3    H167754   3.834   5.865  13.789  1.8947 -1.8573 -0.7618
15421TIP3    H267755   3.809   5.777  13.668 -0.1802  0.3258 -2.0120
15422TIP3   OH267756   2.644   4.382   5.848 -0.2963 -0.4252  0.1540
15422TIP3    H167757   2.680   4.293   5.850  1.2967  0.1752  1.9876
15422TIP3    H267758   2.617   4.399   5.938 -2.0138  0.4420 -0.4784
15423TIP3   OH267759   1.622   4.707   3.811 -0.1293  0.0424  0.4514
15423TIP3    H167760   1.612   4.622   3.853 -0.3252  0.2069  0.7442
15423TIP3    H267761   1.533   4.730   3.784  0.2940 -1.1598 -2.2568
15424TIP3   OH267762   6.448   6.176   6.657  0.2474 -1.1669  0.7530
15424TIP3    H167763   6.513   6.241   6.686 -0.8622  0.4936 -0.3037
15424TIP3    H267764   6.499   6.112   6.607  0.9264  1.1986 -1.8544
15425TIP3   OH267765   4.349   1.446   5.414  0.3415  0.2006 -0.4859
15425TIP3    H167766   4.320   1.358   5.392  1.5631 -0.2687 -0.2847
15425TIP3    H267767   4.384   1.481   5.332  1.4525 -0.1584 -0.1774
15426TIP3   OH267768   4.874   5.288  15.363  0.0482  0.3394  0.2703
15426TIP3    H167769   4.789   5.278  15.408 -0.3331  0.6044 -0.3808
15426TIP3    H267770   4.924   5.211  15.392 -0.8406 -0.4708 -0.2529
15427TIP3   OH267771   0.800   6.786  15.920 -0.2098 -0.1647 -0.3785
15427TIP3    H167772   0.838   6.733  15.991 -0.9370 -1.9341 -1.2384
15427TIP3    H267773   0.868   6.788  15.853 -0.3736 -0.4617 -0.5552
15428TIP3   OH267774   1.155   5.940   1.937 -0.9063 -0.0345  0.1328
15428TIP3    H167775   1.114   6.025   1.922 -1.8554 -0.3498  0.8667
15428TIP3    H267776   1.168   5.936   2.032 -0.5946 -0.5835  0.0720
15429TIP3   OH267777   5.955   0.472   2.541 -0.0122  0.4504 -0.1343
15429TIP3    H167778   5.923   0.562   2.531 -1.0832  0.0758 -0.1506
15429TIP3    H267779   6.051   0.480   2.535  0.0529  1.8481  1.8936
15430TIP3   OH267780   2.522   6.327   3.431  0.5707  0.1046  0.0465
15430TIP3    H167781   2.535   6.420   3.409 -2.4241  0.5242 -0.3463
15430TIP3    H267782   2.556   6.280   3.355  0.8074  0.9632 -0.3945
15431TIP3   OH267783   4.055   3.339   1.120  0.2815  0.0284 -0.9013
15431TIP3    H167784   4.054   3.246   1.097  2.4800 -0.2815  0.0788
15431TIP3    H267785   4.026   3.341   1.211 -0.1399  0.3600 -1.0414
15432TIP3   OH267786   3.386   5.290   1.534 -0.1323 -0.3468 -0.0429
15432TIP3    H167787   3.346   5.367   1.494  0.7865 -0.3464 -1.0054
15432TIP3    H267788   3.350   5.216   1.484 -1.7517 -0.6633  1.4902
15433TIP3   OH267789   3.574   1.398  14.812  0.0205  0.5556 -0.0600
15433TIP3    H167790   3.564   1.303  14.807  0.1276  0.5237  0.3036
15433TIP3    H267791   3.664   1.411  14.842  0.0118  0.7729 -0.1271
15434TIP3   OH267792   4.324   2.944  13.282 -0.3699  0.2802  0.1660
15434TIP3    H167793   4.304   2.890  13.359  3.2154  0.2913  1.3093
15434TIP3    H267794   4.361   2.882  13.219  0.3372  0.8296  0.0310
15435TIP3   OH267795   0.434   5.757  13.674 -0.1914 -0.0065 -0.3033
15435TIP3    H167796   0.457   5.672  13.638  0.8449 -0.0221  0.3529
15435TIP3    H267797   0.343   5.747  13.704 -0.9444 -0.1216 -2.4219
15436TIP3   OH267798   4.369   2.281   2.552  0.1886  0.0126  0.4939
15436TIP3    H167799   4.416   2.363   2.569  1.7512 -0.7425  0.0111
15436TIP3    H267800   4.403   2.220   2.617  1.0554 -0.9798 -0.8520
15437TIP3   OH267801   2.288   0.862   2.650  0.0210  0.5054  0.0583
15437TIP3    H167802   2.241   0.945   2.636  1.0993  1.3550  1.2729
15437TIP3    H267803   2.370   0.873   2.603 -0.4795 -0.5385 -1.1186
15438TIP3   OH267804   1.303   1.773  13.860  0.3339  0.4838  0.2710
15438TIP3    H167805   1.273   1.702  13.804  2.0863 -0.0572 -0.0577
15438TIP3    H267806   1.258   1.759  13.943  0.0048 -0.5011 -0.0578
15439TIP3   OH267807   0.608   4.798  16.211 -0.0779 -0.2652  0.3679
15439TIP3    H167808   0.566   4.792  16.126  0.8769 -0.1346 -0.1236
15439TIP3    H267809   0.693   4.755  16.199  0.6101  0.8988  0.8938
15440TIP3   OH267810   0.792   2.923  14.077  0.6740  0.3608  0.5808
15440TIP3    H167811   0.878   2.966  14.074  0.9154 -0.1257  0.4666
15440TIP3    H267812   0.811   2.833  14.102  0.4096 -0.2560 -1.2472
15441TIP3   OH267813   2.640   3.427  16.132 -0.2594 -0.4822  0.6492
15441TIP3    H167814   2.702   3.429  16.059 -1.5278 -0.8451 -0.4830
15441TIP3    H267815   2.666   3.350  16.183 -0.1564 -1.0123 -0.1742
15442TIP3   OH267816   6.777   0.832  16.775 -0.4008  0.4277 -0.0285
15442TIP3    H167817   6.823   0.749  16.764 -0.5749  0.1315  1.2927
15442TIP3    H267818   6.837   0.886  16.826 -1.0954  0.3845  0.8606
15443TIP3   OH267819   2.253   1.033   1.877 -0.3994  0.4651  0.9458
15443TIP3    H167820   2.208   0.949   1.868  0.2029  0.1163  1.1180
15443TIP3    H267821   2.332   1.024   1.823  0.2195  0.5190  1.8121
15444TIP3   OH267822   4.903   5.621   5.667 -0.1601 -0.6302 -0.3517
15444TIP3    H167823   4.879   5.577   5.749 -0.6468  0.8808  0.3667
15444TIP3    H267824   4.874   5.712   5.680  0.3348 -0.2136 -1.9619
15445TIP3   OH267825   3.078   3.500  16.605  0.5781  0.1048  0.0816
15445TIP3    H167826   3.094   3.564  16.536 -0.1215  1.5334  1.1735
15445TIP3    H267827   3.161   3.494  16.652  0.4159  0.8674  0.4785
15446TIP3   OH267828   4.936   0.558  15.663  0.9252 -0.0853 -0.1068
15446TIP3    H167829   4.935   0.557  15.759  0.0698 -0.0962 -0.1052
15446TIP3    H267830   4.848   0.529  15.639  0.3881  1.9779 -0.8643
15447TIP3   OH267831   2.214   5.140  12.517  0.2186 -0.1040  0.0101
15447TIP3    H167832   2.301   5.102  12.530  0.5708  0.7500  0.1525
15447TIP3    H267833   2.190   5.175  12.602  0.6392  1.5294 -0.5161
15448TIP3   OH267834   1.549   3.780   0.783 -0.4494  0.0275  0.0754
15448TIP3    H167835   1.568   3.686   0.775  1.3444  0.1181  2.1989
15448TIP3    H267836   1.626   3.823   0.746  0.6697  0.5388  2.8076
15449TIP3   OH267837   3.177   4.605  13.037 -0.7903 -0.4153  0.0496
15449TIP3    H167838   3.167   4.603  12.942 -2.7399  1.1770  0.1707
15449TIP3    H267839   3.171   4.513  13.064 -1.3629 -0.7791 -1.2481
15450TIP3   OH267840   3.426   5.084  12.070  0.0311 -0.3848 -0.0143
15450TIP3    H167841   3.446   5.003  12.024 -0.6768 -0.6318  0.1112
15450TIP3    H267842   3.508   5.108  12.112  0.5115 -0.5151 -0.8449
15451TIP3   OH267843   2.503   5.570   4.116 -0.6425  0.1689  0.3026
15451TIP3    H167844   2.559   5.500   4.149  0.3281  0.5340 -0.5380
15451TIP3    H267845   2.525   5.646   4.170 -0.1180  0.3793 -0.1922
15452TIP3   OH267846   4.838   0.564   3.129  0.4698 -0.0507  0.2152
15452TIP3    H167847   4.847   0.544   3.036  0.8552  0.4964  0.1306
15452TIP3    H267848   4.869   0.485   3.174  2.3569  0.4462 -0.1071
15453TIP3   OH267849   6.811   0.730  12.006  0.2781 -0.4038 -0.0458
15453TIP3    H167850   6.752   0.692  11.942 -0.9011 -0.0462  0.7868
15453TIP3    H267851   6.760   0.799  12.048  1.1528 -0.3396  0.9776
15454TIP3   OH267852   1.249   5.815   2.830 -0.0594 -0.6205  0.1951
15454TIP3    H167853   1.195   5.883   2.790 -1.5753 -2.9159 -1.9335
15454TIP3    H267854   1.335   5.824   2.789 -0.7718 -1.0786 -1.4665
15455TIP3   OH267855   6.216   0.240  16.456  0.0385  0.0468  0.0005
15455TIP3    H167856   6.275   0.245  16.381  2.0147  0.6717  1.4953
15455TIP3    H267857   6.141   0.294  16.431 -0.2099 -1.1919 -2.1783
15456TIP3   OH267858   1.143   6.219  16.289  0.0862  0.0518  0.2684
15456TIP3    H167859   1.211   6.273  16.249 -0.1615  0.0624 -0.1358
15456TIP3    H267860   1.065   6.274  16.286  0.4360  0.7556  2.3347
15457TIP3   OH267861   3.871   1.454  13.977 -0.3529  0.2457  0.5250
15457TIP3    H167862   3.944   1.502  13.940 -0.6094  0.7927  0.7069
15457TIP3    H267863   3.879   1.365  13.943 -0.2297  0.5805 -0.3202
15458TIP3   OH267864   2.240   1.451  11.798  0.2961  1.1038 -0.5155
15458TIP3    H167865   2.294   1.520  11.836  0.7590  1.9484 -2.6087
15458TIP3    H267866   2.168   1.440  11.861  1.0377  2.4053  0.6051
15459TIP3   OH267867   2.670   2.878  12.572 -0.7035 -0.0210  0.1158
15459TIP3    H167868   2.705   2.864  12.660 -3.0420 -1.1746  0.9368
15459TIP3    H267869   2.629   2.795  12.549 -1.1489  0.6412 -1.5874
15460TIP3   OH267870   0.896   3.738  15.752 -0.4399 -0.1033  0.2351
15460TIP3    H167871   0.933   3.656  15.784  0.8978  0.8718  1.3122
15460TIP3    H267872   0.899   3.732  15.657  1.4227 -0.5450  0.2988
15461TIP3   OH267873   5.673   2.393   3.685 -0.0756  0.0170  0.3425
15461TIP3    H167874   5.726   2.329   3.733  0.3832 -0.0247 -0.2047
15461TIP3    H267875   5.723   2.410   3.605 -0.7240  0.2357 -0.0269
15462TIP3   OH267876   1.624   2.315   2.715 -0.0714 -0.1821 -0.2312
15462TIP3    H167877   1.607   2.237   2.768 -0.5287  0.3840  0.4748
15462TIP3    H267878   1.541   2.363   2.716  0.1385  0.2049 -0.8477
15463TIP3   OH267879   5.839   6.125  13.678 -0.1113  0.2109  0.4191
15463TIP3    H167880   5.747   6.152  13.681 -0.4869 -0.9972  3.0915
15463TIP3    H267881   5.883   6.187  13.736  0.4363 -0.2726  0.5163
15464TIP3   OH267882   1.281   0.905  13.339 -0.0957 -0.5510  0.3509
15464TIP3    H167883   1.357   0.862  13.379 -0.3902 -0.9174  0.5084
15464TIP3    H267884   1.312   0.995  13.323  0.0352 -0.3933  1.3897
15465TIP3   OH267885   3.330   2.250   2.837 -0.3045  0.3239 -0.5276
15465TIP3    H167886   3.302   2.213   2.921 -1.6058  0.1574 -1.0047
15465TIP3    H267887   3.332   2.175   2.777 -1.1627  0.6994 -1.0589
15466TIP3   OH267888   1.606   3.059  15.758  0.2613 -0.1010  0.5651
15466TIP3    H167889   1.613   2.965  15.774  2.4389 -0.0164  0.4017
15466TIP3    H267890   1.553   3.066  15.678  0.9022 -1.2635  0.0182
15467TIP3   OH267891   0.462   2.158   1.899 -0.1232 -0.3847 -0.4391
15467TIP3    H167892   0.511   2.185   1.976  0.2755 -0.5375 -0.6394
15467TIP3    H267893   0.373   2.190   1.915  0.1278  0.2199 -0.2560
15468TIP3   OH267894   3.305   2.075   2.593  0.4059  0.3035  0.3701
15468TIP3    H167895   3.350   1.991   2.605  2.0535  0.3994 -3.5510
15468TIP3    H267896   3.229   2.053   2.539  0.0069  1.1403  0.5809
15469TIP3   OH267897   0.287   0.698  15.115  0.1840 -0.5750 -0.4589
15469TIP3    H167898   0.265   0.782  15.073  0.5057  0.9475  2.2064
15469TIP3    H267899   0.228   0.635  15.074 -2.3381  1.5675 -0.3882
15470TIP3   OH267900   4.496   1.273   1.453 -0.1522 -0.5509  0.1311
15470TIP3    H167901   4.579   1.250   1.494  0.3737  0.3985 -0.3526
15470TIP3    H267902   4.442   1.307   1.525  0.8062  1.2177  0.0790
15471TIP3   OH267903   5.636   1.613   5.532  0.3324 -0.0496  0.1377
15471TIP3    H167904   5.683   1.530   5.523  1.4260  0.4140  1.2217
15471TIP3    H267905   5.639   1.652   5.445  0.2143 -0.9256 -0.2690
15472TIP3   OH267906   6.235   1.322  13.221 -0.0096  0.1371  0.0009
15472TIP3    H167907   6.276   1.373  13.151  1.3790 -0.7501  0.1255
15472TIP3    H267908   6.196   1.247  13.177  0.8433 -0.4093  0.1644
15473TIP3   OH267909   2.521   0.657  13.641  0.4100 -0.5422  0.6126
15473TIP3    H167910   2.599   0.683  13.593  0.0723  0.5076  0.6024
15473TIP3    H267911   2.500   0.733  13.696 -0.0165 -1.1898  1.3747
15474TIP3   OH267912   3.123   1.244   4.223 -0.6726  0.2073  0.0070
15474TIP3    H167913   3.128   1.155   4.259  0.4644  1.0101  1.9829
15474TIP3    H267914   3.030   1.266   4.226 -0.9663 -0.9012 -0.5107
15475TIP3   OH267915   1.717   3.880   4.194  0.1197 -0.3251  0.3489
15475TIP3    H167916   1.803   3.839   4.195 -0.2464 -1.1189 -0.2610
15475TIP3    H267917   1.686   3.872   4.284  0.8044  0.2580  0.6527
15476TIP3   OH267918   4.568   5.228  12.335  0.3177  0.0750  0.3692
15476TIP3    H167919   4.622   5.158  12.373  1.3068  1.5770  1.8947
15476TIP3    H267920   4.550   5.200  12.246  1.3172 -1.7549  0.7050
15477TIP3   OH267921   3.467   0.590   0.315  0.3656  0.4530  0.1455
15477TIP3    H167922   3.522   0.642   0.257  0.5169  1.2445  0.9843
15477TIP3    H267923   3.519   0.512   0.333  0.8176  0.7557  0.1628
15478TIP3   OH267924   5.842   3.967  12.033 -0.3303  0.2640 -0.6611
15478TIP3    H167925   5.897   3.980  11.956  0.4166  2.1069  0.1271
15478TIP3    H267926   5.793   4.048  12.043 -0.6362 -0.0493  0.6401
15479TIP3   OH267927   4.504   6.493  14.788  0.5446 -0.5825  0.4082
15479TIP3    H167928   4.522   6.580  14.824  0.6791 -0.3236 -0.2698
15479TIP3    H267929   4.418   6.502  14.746 -0.4056 -1.3360  2.1073
15480TIP3   OH267930   4.470   6.126   2.827  1.0996 -0.2678  0.2050
15480TIP3    H167931   4.525   6.140   2.904  0.2854  0.4867  0.6745
15480TIP3    H267932   4.385   6.103   2.863  0.1117  2.1470 -0.3627
15481TIP3   OH267933   1.630   0.762   1.870 -0.7106 -1.0446  0.0414
15481TIP3    H167934   1.676   0.705   1.932 -2.4009 -0.9069  1.5290
15481TIP3    H267935   1.541   0.769   1.906 -0.4792  2.9658  0.2918
15482TIP3   OH267936   4.496   2.591  15.225  0.2712  0.3387 -0.5193
15482TIP3    H167937   4.521   2.672  15.271 -0.1044  0.2295 -0.1240
15482TIP3    H267938   4.404   2.579  15.246  0.9033 -1.5986  1.5781
15483TIP3   OH267939   1.890   3.797  16.281  0.7615  0.3084  0.3688
15483TIP3    H167940   1.803   3.834  16.266  0.5976  0.2951  1.2292
15483TIP3    H267941   1.893   3.719  16.227  0.6188  0.8614 -0.4458
15484TIP3   OH267942   0.654   0.612  14.907  0.0476 -0.3113 -0.0882
15484TIP3    H167943   0.729   0.667  14.930 -0.6975  0.0226  1.7146
15484TIP3    H267944   0.651   0.615  14.812  0.6893  1.9245 -0.1065
15485TIP3   OH267945   4.958   3.907  13.650 -0.5651 -0.1969 -0.1194
15485TIP3    H167946   4.988   3.823  13.686  1.1808 -0.7278 -2.5647
15485TIP3    H267947   4.930   3.957  13.727 -0.1469 -2.4070  1.5848
15486TIP3   OH267948   1.886   6.105  11.361  0.0837  0.0705  0.7311
15486TIP3    H167949   1.808   6.153  11.330  0.4710  0.2923  0.0650
15486TIP3    H267950   1.897   6.035  11.296 -0.7865 -1.2839  1.9785
15487TIP3   OH267951   3.705   1.204  11.759 -0.2804  0.7781 -0.4679
15487TIP3    H167952   3.727   1.130  11.702 -2.2587 -1.0982  1.0635
15487TIP3    H267953   3.641   1.254  11.708 -0.5958  0.1961 -0.6533
15488TIP3   OH267954   2.000   5.415   4.348  0.2238 -0.1574 -0.4787
15488TIP3    H167955   2.065   5.363   4.395  0.3560  0.6834  0.3001
15488TIP3    H267956   1.983   5.366   4.267  2.4809  0.0364 -1.1329
15489TIP3   OH267957   0.941   3.183   3.735  0.4042 -0.2426 -0.3062
15489TIP3    H167958   1.034   3.165   3.750  0.3735  0.6631  1.2847
15489TIP3    H267959   0.938   3.230   3.652  1.2631 -1.0627 -0.8144
15490TIP3   OH267960   6.473   6.225  11.193  0.1590  0.4532 -0.1134
15490TIP3    H167961   6.477   6.317  11.220  1.0531 -0.2157  2.3126
15490TIP3    H267962   6.562   6.204  11.166  0.1610  0.0915  0.1600
15491TIP3   OH267963   0.740   2.621  16.816 -0.8296 -0.3790 -0.2802
15491TIP3    H167964   0.792   2.655  16.743 -0.9041  0.4010  0.0180
15491TIP3    H267965   0.689   2.549  16.778  1.7985 -2.4648 -0.2150
15492TIP3   OH267966   5.029   1.697   3.139  0.0386 -0.1632 -0.2294
15492TIP3    H167967   4.958   1.741   3.187 -2.2263 -0.1080 -3.3236
15492TIP3    H267968   5.098   1.763   3.133 -0.2890  0.3779  1.4361
15493TIP3   OH267969   4.677   5.695  12.615  0.3937  0.5005  0.5509
15493TIP3    H167970   4.664   5.706  12.709  1.0038 -0.9675  0.8344
15493TIP3    H267971   4.663   5.601  12.600 -0.3650  0.8286 -0.9454
15494TIP3   OH267972   0.386   0.859   2.350  0.1737  1.0991 -0.7868
15494TIP3    H167973   0.437   0.940   2.342  1.2644  0.5925  0.5794
15494TIP3    H267974   0.378   0.826   2.261  0.5548  2.2080 -1.2449
15495TIP3   OH267975   0.493   6.564   1.204  0.2049  0.1252 -0.3457
15495TIP3    H167976   0.446   6.519   1.133  0.2000  0.3932 -0.5151
15495TIP3    H267977   0.428   6.625   1.240  0.4512  0.5622 -0.6406
15496TIP3   OH267978   0.274   6.292  16.914  0.3988 -0.6683 -0.0114
15496TIP3    H167979   0.363   6.286  16.949  0.2354  0.7633  0.7207
15496TIP3    H267980   0.222   6.235  16.971  0.1606  1.5310  2.1610
15497TIP3   OH267981   0.593   5.466   3.864 -0.3272  0.0055  0.0398
15497TIP3    H167982   0.620   5.478   3.955  1.3597 -1.3386 -0.2241
15497TIP3    H267983   0.646   5.529   3.815  1.4840 -1.7048 -0.3339
15498TIP3   OH267984   3.887   6.674   4.095  0.3941  0.3103  0.2579
15498TIP3    H167985   3.946   6.673   4.170  0.4823 -0.2534  0.1902
15498TIP3    H267986   3.813   6.620   4.123 -0.2331  1.2638  0.4538
15499TIP3   OH267987   5.458   6.247   4.139  0.4071 -0.5504 -0.3378
15499TIP3    H167988   5.540   6.277   4.101  0.5157 -0.7649 -0.2769
15499TIP3    H267989   5.484   6.186   4.208  0.2147  0.0255  0.2446
15500TIP3   OH267990   5.501   4.526   3.902  0.5515  0.8412 -0.1168
15500TIP3    H167991   5.570   4.535   3.968 -0.3754  0.3030  0.9631
15500TIP3    H267992   5.420   4.541   3.951 -0.2040 -0.2941 -0.9847
15501TIP3   OH267993   3.550   5.523  14.017 -0.3557  0.0089 -0.5084
15501TIP3    H167994   3.574   5.443  13.971 -0.1802  0.4962 -1.2885
15501TIP3    H267995   3.518   5.582  13.948  0.6205  1.0211 -0.1301
15502TIP3   OH267996   3.839   4.075   5.568  0.6516 -0.2276 -0.4201
15502TIP3    H167997   3.931   4.075   5.596  0.8168  0.5551 -0.9142
15502TIP3    H267998   3.824   4.165   5.539  0.2623 -0.8017 -2.0818
15503TIP3   OH267999   6.183   4.299  15.571  0.4363  0.0551 -0.1242
15503TIP3    H168000   6.196   4.393  15.556 -0.8536 -0.2128 -3.8483
15503TIP3    H268001   6.270   4.261  15.558  1.0093  0.6710  1.5967
15504TIP3   OH268002   0.631   2.962   0.909 -0.2211  0.1370 -0.2184
15504TIP3    H168003   0.553   3.005   0.945 -0.6362 -0.5909 -0.2213
15504TIP3    H268004   0.664   2.909   0.982 -0.9170 -1.1482 -0.7941
15505TIP3   OH268005   6.689   2.458  15.676 -0.4015  0.5023 -0.1142
15505TIP3    H168006   6.609   2.431  15.632  0.9832 -2.3550 -1.0785
15505TIP3    H268007   6.689   2.408  15.758  0.2729  0.7070  0.0130
15506TIP3   OH268008   0.261   0.235  15.512  0.5959 -0.1762  0.0690
15506TIP3    H168009   0.215   0.156  15.483  0.8059 -0.7131  1.1079
15506TIP3    H268010   0.229   0.249  15.602  0.9501  0.6218  0.0759
15507TIP3   OH268011   1.749   2.428  10.886 -0.1193 -0.4372  0.1029
15507TIP3    H168012   1.807   2.500  10.911  0.3214 -0.8454  0.2715
15507TIP3    H268013   1.676   2.471  10.840 -0.2169  0.1831  0.8195
15508TIP3   OH268014   6.117   0.587  13.521 -0.2835 -0.5484 -0.1901
15508TIP3    H168015   6.191   0.631  13.481  0.0030 -0.2312  0.6534
15508TIP3    H268016   6.043   0.606  13.463  0.1693 -0.3439 -0.7040
15509TIP3   OH268017   1.658   5.325   6.026 -0.2314  0.2453  0.8425
15509TIP3    H168018   1.571   5.351   6.057 -1.6198  1.2175 -3.2094
15509TIP3    H268019   1.697   5.406   5.995  0.2256 -0.7620 -1.4093
15510TIP3   OH268020   6.354   6.772   1.257 -0.2231  0.5350 -0.2395
15510TIP3    H168021   6.369   6.752   1.349  0.2215  1.0942 -0.1873
15510TIP3    H268022   6.283   6.713   1.231  0.3802 -0.3832  0.1670
15511TIP3   OH268023   3.287   2.005   6.682 -0.3467  0.1718 -0.0824
15511TIP3    H168024   3.212   2.060   6.702 -0.2086 -0.2037  1.6283
15511TIP3    H268025   3.363   2.061   6.695 -0.2812  0.5299 -1.7405
15512TIP3   OH268026   5.545   1.400   4.859  1.2052 -0.5925  0.4935
15512TIP3    H168027   5.552   1.494   4.875 -1.2724 -0.2647  0.1957
15512TIP3    H268028   5.500   1.394   4.775 -1.5355 -1.9135  1.9178
15513TIP3   OH268029   3.022   1.409   3.454  0.3284 -0.1981  0.1781
15513TIP3    H168030   2.940   1.442   3.416 -0.0622 -0.5919  0.6616
15513TIP3    H268031   3.090   1.439   3.394 -0.2675 -0.7275 -0.7817
15514TIP3   OH268032   6.150   3.298   2.566  0.1305  0.5595 -0.5470
15514TIP3    H168033   6.143   3.203   2.576  0.0132  0.5766 -0.4659
15514TIP3    H268034   6.097   3.318   2.488 -0.6138  0.6713 -0.0190
15515TIP3   OH268035   3.719   4.836  12.228  0.4613  0.7839  0.1891
15515TIP3    H168036   3.752   4.869  12.145 -0.8832 -1.4402 -1.3252
15515TIP3    H268037   3.684   4.913  12.273  2.5493  2.2570 -0.5927
15516TIP3   OH268038   5.975   0.208  12.276  0.2583  0.1778 -0.3096
15516TIP3    H168039   5.968   0.116  12.300  1.2611 -0.3198 -1.8047
15516TIP3    H268040   5.885   0.241  12.281 -0.1491 -0.9290 -0.0050
15517TIP3   OH268041   6.517   3.469  12.956  0.4586  0.1768 -0.3770
15517TIP3    H168042   6.454   3.538  12.936  1.1142  0.7906 -0.3680
15517TIP3    H268043   6.595   3.493  12.907  1.2578  0.3686  0.9575
15518TIP3   OH268044   5.033   4.076  16.402  0.2301 -0.3684  0.0241
15518TIP3    H168045   5.094   4.114  16.340 -2.2058  0.7458 -1.8641
15518TIP3    H268046   5.012   4.147  16.462 -1.5886  0.3365 -1.3354
15519TIP3   OH268047   0.442   1.774   1.341  0.2421 -0.8963  0.0399
15519TIP3    H168048   0.515   1.769   1.402  0.9020 -1.0155 -0.7364
15519TIP3    H268049   0.474   1.831   1.271  0.9542 -3.6678 -2.0792
15520TIP3   OH268050   5.092   1.885  16.544 -0.4386 -0.1724 -0.4048
15520TIP3    H168051   5.056   1.892  16.455  0.2333 -2.6521 -0.9384
15520TIP3    H268052   5.167   1.944  16.544 -0.0802 -0.5963 -1.7072
15521TIP3   OH268053   1.404   6.521  12.392 -0.1891  0.1504  0.1074
15521TIP3    H168054   1.499   6.510  12.398 -0.3524 -1.5370  0.0178
15521TIP3    H268055   1.376   6.542  12.481  0.2993  1.0976  0.0505
15522TIP3   OH268056   0.665   4.712  12.077 -0.4141 -0.1433 -0.8022
15522TIP3    H168057   0.631   4.789  12.123  0.6331 -1.2176  1.9452
15522TIP3    H268058   0.721   4.668  12.140  1.1768 -1.7746 -3.1558
15523TIP3   OH268059   0.601   6.663  16.294  0.1125  0.3495  0.1902
15523TIP3    H168060   0.598   6.703  16.381  1.5923  0.3335  0.2751
15523TIP3    H268061   0.680   6.700  16.254  1.1179 -1.8814 -0.0161
15524TIP3   OH268062   2.858   4.637   5.155  0.2529  0.0467  0.3315
15524TIP3    H168063   2.785   4.575   5.161 -0.9905  1.5443  1.6346
15524TIP3    H268064   2.909   4.607   5.079 -1.1023 -1.6775  0.0416
15525TIP3   OH268065   2.777   5.481  16.163  0.0634  0.1697  0.4205
15525TIP3    H168066   2.815   5.406  16.116 -0.8355  0.9254 -1.6316
15525TIP3    H268067   2.796   5.463  16.255  0.5883 -2.1723 -0.0657
15526TIP3   OH268068   5.250   5.192  12.049 -1.0246  0.5354 -0.2046
15526TIP3    H168069   5.299   5.110  12.057 -0.1482  1.0801  0.1046
15526TIP3    H268070   5.256   5.233  12.135  0.1798  1.8195 -0.8733
15527TIP3   OH268071   3.869   3.938   5.183  0.0383 -0.1918  0.2660
15527TIP3    H168072   3.869   3.882   5.260 -0.9342 -0.9968 -0.2913
15527TIP3    H268073   3.814   4.012   5.207  2.0567  1.0611  1.3297
15528TIP3   OH268074   5.409   0.882  17.163 -0.0896 -0.3294 -0.5558
15528TIP3    H168075   5.485   0.833  17.131  0.4814 -0.8489  1.4598
15528TIP3    H268076   5.351   0.888  17.087  1.9251  0.0568 -2.1464
15529TIP3   OH268077   4.115   0.853  13.912 -0.0584 -0.1697  0.0568
15529TIP3    H168078   4.165   0.842  13.993 -3.0115  1.0302  2.2256
15529TIP3    H268079   4.078   0.767  13.894 -0.4191 -0.1730  0.7697
15530TIP3   OH268080   4.989   1.918  14.444 -0.3504 -0.7510  0.7892
15530TIP3    H168081   5.078   1.897  14.415  0.1514 -0.7456  2.2739
15530TIP3    H268082   4.967   1.998  14.395 -0.0152 -1.3898 -0.4631
15531TIP3   OH268083   5.625   3.441  14.409 -0.1529  0.5526 -0.1618
15531TIP3    H168084   5.698   3.483  14.454 -0.4533 -1.5921  2.6512
15531TIP3    H268085   5.661   3.358  14.378 -0.8433  0.4890 -0.8197
15532TIP3   OH268086   5.740   0.731  13.185 -0.3926  0.2204  0.0858
15532TIP3    H168087   5.749   0.812  13.236  0.7123  0.0855  0.1160
15532TIP3    H268088   5.784   0.665  13.237 -0.7896 -0.2907 -0.2193
15533TIP3   OH268089   3.757   5.710   1.713  0.7153 -0.2281  0.2476
15533TIP3    H168090   3.737   5.653   1.639  0.0529  2.8789 -2.1671
15533TIP3    H268091   3.671   5.744   1.741  1.1821  0.5801  0.7524
15534TIP3   OH268092   5.575   3.216  16.415  0.3489  0.6126  0.2999
15534TIP3    H168093   5.500   3.243  16.363  0.4147  1.4022  0.6066
15534TIP3    H268094   5.644   3.200  16.350  0.4061  1.5043  0.1365
15535TIP3   OH268095   2.634   2.408  12.721  0.1973  0.6969  0.4094
15535TIP3    H168096   2.686   2.335  12.687  1.5176  1.4943  0.6348
15535TIP3    H268097   2.667   2.421  12.810 -1.2492  0.4476  0.9968
15536TIP3   OH268098   4.966   1.964  12.717  0.0228 -0.0633  0.4715
15536TIP3    H168099   5.035   1.919  12.766 -0.4766 -0.5440  0.7529
15536TIP3    H268100   4.932   2.030  12.778 -0.8832 -0.9404  0.9539
15537TIP3   OH268101   3.770   3.636   0.236  0.3683  0.2226  0.3073
15537TIP3    H168102   3.861   3.665   0.236 -0.1589  2.0735  2.3156
15537TIP3    H268103   3.749   3.622   0.328 -0.5355 -3.2124 -0.2720
15538TIP3   OH268104   2.416   3.286  11.383 -0.7796  0.0915 -0.2757
15538TIP3    H168105   2.474   3.211  11.399  0.0639  0.6137 -0.8102
15538TIP3    H268106   2.436   3.312  11.293 -1.2120  0.8463 -0.1570
15539TIP3   OH268107   6.687   1.509  14.119 -0.5699 -0.5106  0.3012
15539TIP3    H168108   6.760   1.512  14.181 -0.1221 -0.3468 -0.2215
15539TIP3    H268109   6.635   1.434  14.146  0.4748 -1.3952 -0.0569
15540TIP3   OH268110   0.588   2.820  12.464  0.4144  0.1362  0.2823
15540TIP3    H168111   0.566   2.898  12.514  1.2797  0.2634  0.4946
15540TIP3    H268112   0.669   2.843  12.418  0.0172 -0.2237 -0.6106
15541TIP3   OH268113   5.294   0.020   1.428 -0.0993 -0.1054  0.2206
15541TIP3    H168114   5.232  -0.027   1.485 -1.8930 -0.5119 -1.9279
15541TIP3    H268115   5.271  -0.008   1.339  1.6835  1.5367 -0.8342
15542TIP3   OH268116   4.688   3.489   0.191  0.4415  0.2025 -0.3825
15542TIP3    H168117   4.747   3.433   0.141 -0.1469 -0.2912 -0.5362
15542TIP3    H268118   4.707   3.469   0.282 -0.3667 -0.9036 -0.4413
15543TIP3   OH268119   2.333   1.261  13.957 -0.3072 -0.2483 -0.4130
15543TIP3    H168120   2.340   1.258  14.053 -0.7491  2.9446 -0.1553
15543TIP3    H268121   2.423   1.257  13.927 -0.2134 -2.2332  0.0422
15544TIP3   OH268122   4.235   2.822  14.290 -0.3285 -0.4935  0.2351
15544TIP3    H168123   4.259   2.732  14.312  2.3776 -0.2609 -1.2250
15544TIP3    H268124   4.298   2.876  14.339 -0.6728  0.5006 -0.3837
15545TIP3   OH268125   0.187   5.193   1.900 -0.5418 -0.1126  0.0870
15545TIP3    H168126   0.122   5.123   1.898  0.4267 -1.1100  1.6508
15545TIP3    H268127   0.256   5.164   1.840 -0.1194 -0.5361  0.7692
15546TIP3   OH268128   1.408   3.001  11.708 -0.1358  0.1031  0.0918
15546TIP3    H168129   1.482   3.039  11.756  0.3542 -1.4545  0.6355
15546TIP3    H268130   1.419   3.032  11.618 -0.1987  1.8235  0.6544
15547TIP3   OH268131   3.571   3.132   1.067 -0.4720  0.5150  0.2346
15547TIP3    H168132   3.585   3.187   1.144 -0.4896  0.0734  0.5542
15547TIP3    H268133   3.652   3.139   1.017 -0.2863  0.4340  0.5234
15548TIP3   OH268134   6.487   0.567   4.495 -0.3118  0.3912  0.0389
15548TIP3    H168135   6.399   0.603   4.497 -0.5529 -0.2340  1.0556
15548TIP3    H268136   6.496   0.517   4.576  0.9842  0.4614 -0.0257
15549TIP3   OH268137   0.640   3.170   5.555 -0.0279  0.1695  0.3596
15549TIP3    H168138   0.637   3.179   5.651  1.2806  1.8801  0.2841
15549TIP3    H268139   0.729   3.143   5.536 -0.3736 -0.4883 -0.3721
15550TIP3   OH268140   4.988   1.330  16.833  0.5232  0.1878 -0.1542
15550TIP3    H168141   4.911   1.360  16.880  0.8333  2.0335 -0.7170
15550TIP3    H268142   5.061   1.344  16.893  0.6629  0.4880 -0.3893
15551TIP3   OH268143   0.196   6.828  13.001  0.0746 -0.1111 -0.2344
15551TIP3    H168144   0.113   6.866  12.972  1.1895  0.6008 -2.8332
15551TIP3    H268145   0.174   6.740  13.030 -1.8510  0.7545  1.0900
15552TIP3   OH268146   3.410   0.151   4.682 -0.0533  0.2478 -0.4061
15552TIP3    H168147   3.325   0.132   4.642  0.4702 -0.8059 -1.0505
15552TIP3    H268148   3.413   0.095   4.759  1.1490 -1.8126 -1.8602
15553TIP3   OH268149   5.448   3.751   3.000  0.1753  0.2737  0.4791
15553TIP3    H168150   5.353   3.754   2.995  0.2638  1.6241 -2.6955
15553TIP3    H268151   5.468   3.664   3.037 -2.2235 -0.0647  1.1079
15554TIP3   OH268152   4.321   4.625  15.442  0.4871  0.6505  0.3478
15554TIP3    H168153   4.400   4.600  15.491  0.6189  1.4779  0.5803
15554TIP3    H268154   4.251   4.573  15.482  0.7843  0.4976  0.6789
15555TIP3   OH268155   1.692   4.836   0.915  0.2188  0.0001  0.3425
15555TIP3    H168156   1.764   4.843   0.977  1.6327  0.8433 -1.3157
15555TIP3    H268157   1.734   4.830   0.829 -1.6205 -2.1401 -0.5306
15556TIP3   OH268158   4.098   2.935   1.493 -0.0986  0.5553  0.1168
15556TIP3    H168159   4.142   2.907   1.413  0.2280  0.8316  0.1972
15556TIP3    H268160   4.068   2.854   1.533  0.9442  0.2957  0.4064
15557TIP3   OH268161   0.502   0.804  16.039 -0.0770 -0.1093  0.3052
15557TIP3    H168162   0.581   0.843  16.077 -0.4985  1.0656  0.0203
15557TIP3    H268163   0.520   0.800  15.945 -0.0161 -0.6769  0.3364
15558TIP3   OH268164   1.773   5.214  11.742 -0.3415 -0.9578 -0.2476
15558TIP3    H168165   1.747   5.175  11.659 -0.2649  1.3186 -1.4280
15558TIP3    H268166   1.721   5.294  11.749 -0.6162 -1.2710  2.1074
15559TIP3   OH268167   5.364   4.430  12.681 -0.3334  0.2354 -0.7644
15559TIP3    H168168   5.432   4.493  12.659  0.4420  0.1033  1.0589
15559TIP3    H268169   5.376   4.359  12.617 -0.1789  1.1791 -1.8190
15560TIP3   OH268170   0.981   0.562  13.126  0.3378 -0.1792 -0.2719
15560TIP3    H168171   1.051   0.604  13.075 -2.8865  2.6480 -2.9462
15560TIP3    H268172   0.965   0.622  13.199  0.9747 -1.0702  0.6188
15561TIP3   OH268173   4.837   5.572   1.336  0.3362 -0.9058 -0.0741
15561TIP3    H168174   4.925   5.577   1.373  0.1207  1.1982  0.2621
15561TIP3    H268175   4.780   5.569   1.413  0.0174  0.5409 -0.2323
15562TIP3   OH268176   0.635   5.448   0.198  0.0325  0.1390 -0.2726
15562TIP3    H168177   0.650   5.354   0.194  0.4730  0.2218 -0.6679
15562TIP3    H268178   0.552   5.462   0.152  1.1525  0.1980 -2.3975
15563TIP3   OH268179   0.089   0.782  12.613  0.1835 -0.5997 -0.1677
15563TIP3    H168180  -0.005   0.783  12.632  0.2128 -1.5032  0.0619
15563TIP3    H268181   0.129   0.826  12.688 -0.0997  0.4319 -0.6033
15564TIP3   OH268182   6.623   3.882   6.495 -0.0979  0.3621  0.1225
15564TIP3    H168183   6.600   3.800   6.539  2.6376 -0.7589 -0.3333
15564TIP3    H268184   6.585   3.873   6.407 -2.3941  0.9920  0.9749
15565TIP3   OH268185   5.311   3.316  17.073 -0.5616 -0.4620 -0.5972
15565TIP3    H168186   5.360   3.239  17.044  0.7600 -0.3080  1.0389
15565TIP3    H268187   5.288   3.297  17.164  1.8661  1.9325  0.6741
15566TIP3   OH268188   6.682   5.589   4.994 -0.0409 -0.0266 -0.5197
15566TIP3    H168189   6.664   5.500   4.966 -0.0115  0.3837 -1.9444
15566TIP3    H268190   6.621   5.643   4.943  0.4608  0.8247 -0.2496
15567TIP3   OH268191   2.877   1.021   1.234  0.1873  0.1458  0.4732
15567TIP3    H168192   2.951   0.962   1.223  0.1727  0.2860 -0.3752
15567TIP3    H268193   2.914   1.097   1.280  0.6081  0.2931 -0.1047
15568TIP3   OH268194   0.370   4.153   2.552 -0.0785  0.2342  0.2995
15568TIP3    H168195   0.431   4.147   2.478 -0.9028  0.4667 -0.4177
15568TIP3    H268196   0.286   4.176   2.512 -0.8627 -0.9958  1.1721
15569TIP3   OH268197   2.671   0.815   1.203 -0.7385  0.1895  0.5559
15569TIP3    H168198   2.614   0.871   1.150 -1.6580  0.7076  2.0416
15569TIP3    H268199   2.734   0.876   1.243 -0.2285 -0.1619  0.3063
15570TIP3   OH268200   3.112   4.337   3.623 -0.1294 -0.0532  0.5832
15570TIP3    H168201   3.113   4.295   3.709  1.3639  0.0495  0.6402
15570TIP3    H268202   3.146   4.270   3.564  2.6765  1.0871  0.7328
15571TIP3   OH268203   6.177   3.361   1.453 -0.0542 -0.6369 -0.2501
15571TIP3    H168204   6.114   3.338   1.521 -0.2830 -3.8253 -1.4094
15571TIP3    H268205   6.160   3.300   1.381  0.2204  2.4624 -3.2686
15572TIP3   OH268206   5.290   2.075  15.760 -0.3387  0.0400 -0.2831
15572TIP3    H168207   5.250   2.106  15.841 -1.7354 -0.5922 -0.6984
15572TIP3    H268208   5.216   2.060  15.701  0.5206 -1.1810 -1.0897
15573TIP3   OH268209   6.081   0.625  13.236  1.0590 -0.1884 -0.3791
15573TIP3    H168210   6.002   0.591  13.279  1.4258  0.2773  0.7098
15573TIP3    H268211   6.120   0.549  13.194 -0.5296 -0.2360 -1.8643
15574TIP3   OH268212   3.740   6.081   0.023 -0.4226 -0.6434 -0.5191
15574TIP3    H168213   3.702   6.060  -0.062 -0.4763 -0.8742 -0.4363
15574TIP3    H268214   3.705   6.015   0.083 -1.2342  0.1499 -0.0971
15575TIP3   OH268215   2.780   5.595   3.938  0.1372 -0.4720 -0.1211
15575TIP3    H168216   2.766   5.549   4.021  2.1001  0.7151  0.9643
15575TIP3    H268217   2.874   5.585   3.921  0.2617  1.5077 -0.8063
15576TIP3   OH268218   2.000   2.864  15.839  0.2705  0.4802 -0.1483
15576TIP3    H168219   2.048   2.924  15.896  2.2108 -1.2770  0.1767
15576TIP3    H268220   1.989   2.785  15.891  0.2754 -0.4438 -1.4946
15577TIP3   OH268221   0.863   2.464   4.749  0.0509 -0.3244  0.3139
15577TIP3    H168222   0.943   2.505   4.716 -0.6635 -0.0045 -1.0701
15577TIP3    H268223   0.822   2.532   4.802  0.4708 -0.3571  0.6972
15578TIP3   OH268224   0.080   2.754   5.837 -0.3273  0.2097 -0.0684
15578TIP3    H168225   0.155   2.785   5.887 -1.3125  1.0834  0.9285
15578TIP3    H268226   0.025   2.710   5.902 -0.1168 -1.5483 -1.0089
15579TIP3   OH268227   2.262   2.322   2.011  0.0252  0.6393 -0.1230
15579TIP3    H168228   2.226   2.234   1.998  1.5420  0.1567 -1.3916
15579TIP3    H268229   2.189   2.381   1.995 -0.9003 -0.3550  0.2674
15580TIP3   OH268230   0.498   5.042   1.546 -0.1807  0.6390  0.0668
15580TIP3    H168231   0.544   5.126   1.537 -2.2560  2.1612  2.2462
15580TIP3    H268232   0.548   4.994   1.612 -0.1733  1.1283  0.4271
15581TIP3   OH268233   4.283   3.765  12.109 -0.4366 -0.2406  0.1455
15581TIP3    H168234   4.289   3.763  12.013  0.0242 -2.1890  0.1754
15581TIP3    H268235   4.193   3.738  12.127 -0.1051 -1.2881  0.2734
15582TIP3   OH268236   2.177   2.126  14.163 -0.2653 -0.0990  0.0444
15582TIP3    H168237   2.209   2.064  14.097 -2.9598  1.5069 -3.0142
15582TIP3    H268238   2.200   2.212  14.129 -4.9497  1.0127 -0.9942
15583TIP3   OH268239   2.368   3.862  15.521 -0.2884  0.2584  0.1455
15583TIP3    H168240   2.299   3.817  15.471  0.0593 -0.9408  0.6924
15583TIP3    H268241   2.449   3.836  15.478 -0.1574  1.6546 -0.4831
15584TIP3   OH268242   0.657   0.376  13.591  0.2435  0.6229 -0.1591
15584TIP3    H168243   0.632   0.460  13.554  0.8955  0.4966 -0.9170
15584TIP3    H268244   0.670   0.319  13.515  0.1151 -0.0679  0.3309
15585TIP3   OH268245   5.831   6.194   2.304 -0.2607  0.2018 -0.1622
15585TIP3    H168246   5.819   6.173   2.396 -1.0699  1.8512  0.1585
15585TIP3    H268247   5.754   6.247   2.281  0.7393  1.2457 -1.2978
15586TIP3   OH268248   5.570   1.889   5.341  0.0012 -0.1267 -0.2263
15586TIP3    H168249   5.639   1.923   5.284  1.4103 -0.3917  1.2493
15586TIP3    H268250   5.568   1.950   5.415  0.8669 -1.7799  1.2479
15587TIP3   OH268251   2.352   0.536   6.679 -0.2566  1.1187  0.1467
15587TIP3    H168252   2.321   0.581   6.600 -0.5893 -0.8157 -0.8861
15587TIP3    H268253   2.323   0.592   6.751 -0.6712  2.5240 -1.0639
15588TIP3   OH268254   4.547   5.501  10.877 -0.2137  0.0141 -0.1987
15588TIP3    H168255   4.614   5.559  10.914 -0.1812 -0.0350 -0.1814
15588TIP3    H268256   4.468   5.555  10.872  0.0104  0.2926 -0.8921
15589TIP3   OH268257   4.148   5.474  12.449 -0.2051  0.1742  0.3318
15589TIP3    H168258   4.067   5.470  12.500  0.0485 -1.2509  0.6735
15589TIP3    H268259   4.135   5.410  12.379  1.3152 -1.4998  1.4961
15590TIP3   OH268260   4.569   0.062   3.020  0.3927  0.5085  0.1703
15590TIP3    H168261   4.498   0.089   3.078  0.1739 -0.1260  0.2108
15590TIP3    H268262   4.642   0.042   3.079  0.6318  1.2187  0.1246
15591TIP3   OH268263   5.735   1.375  14.269  0.4020 -0.3668 -0.5033
15591TIP3    H168264   5.751   1.436  14.197  0.3154  0.7374  0.3949
15591TIP3    H268265   5.658   1.326  14.242  0.8320 -0.5206 -1.5076
15592TIP3   OH268266   5.238   2.340  12.577 -0.1739  0.2515  0.8622
15592TIP3    H168267   5.297   2.406  12.541  0.3151 -0.0509  1.1020
15592TIP3    H268268   5.168   2.390  12.618  0.3847  0.6312  1.3599
15593TIP3   OH268269   5.920   5.968  16.781 -0.0094 -0.5295  0.9160
15593TIP3    H168270   5.874   5.933  16.704  0.0864  1.1397  0.0485
15593TIP3    H268271   5.948   5.891  16.830 -0.1572 -1.6437 -0.6844
15594TIP3   OH268272   4.361   3.492   3.987  0.0400  0.6464  0.2587
15594TIP3    H168273   4.339   3.399   3.991 -0.3567  0.7730  1.8740
15594TIP3    H268274   4.444   3.499   4.034  1.4498  0.7943 -2.0732
15595TIP3   OH268275   5.168   5.338   5.497  0.1040  0.1025 -0.6282
15595TIP3    H168276   5.185   5.249   5.526  1.6902  0.1798 -1.2336
15595TIP3    H268277   5.113   5.328   5.419 -1.4398 -0.2196  0.4449
15596TIP3   OH268278   3.782   2.223  14.322  0.3480  0.4423 -0.6920
15596TIP3    H168279   3.840   2.217  14.246 -0.0932 -0.7128 -0.9524
15596TIP3    H268280   3.726   2.146  14.316  1.2018 -0.4481  1.5468
15597TIP3   OH268281   2.150   0.444  13.770 -0.2749 -0.3024 -0.8634
15597TIP3    H168282   2.108   0.401  13.844  0.8715 -1.4860 -0.8681
15597TIP3    H268283   2.093   0.425  13.695 -0.7297 -0.2516 -0.5292
15598TIP3   OH268284   6.786   0.916  11.434 -0.4144 -0.5337  0.0460
15598TIP3    H168285   6.816   0.994  11.387 -0.2947 -0.0172  0.9620
15598TIP3    H268286   6.711   0.946  11.486  0.7992 -0.5546  1.8754
15599TIP3   OH268287   4.251   2.659  16.929 -0.4128  0.2985  0.4109
15599TIP3    H168288   4.318   2.616  16.983 -1.0707 -1.0616  0.1695
15599TIP3    H268289   4.169   2.642  16.974 -0.8820 -0.1997 -0.6049
15600TIP3   OH268290   3.980   0.671  12.198  0.3399 -0.0038  0.3881
15600TIP3    H168291   4.052   0.620  12.235  0.1552 -0.1053  0.6104
15600TIP3    H268292   4.008   0.691  12.109 -0.0203 -1.4075 -0.0762
15601TIP3   OH268293   3.084   2.968   2.687 -0.8287 -0.0152 -0.7194
15601TIP3    H168294   3.178   2.989   2.685 -0.6299 -0.7076  0.4920
15601TIP3    H268295   3.080   2.877   2.656 -0.7769 -0.8949  1.6381
15602TIP3   OH268296   3.750   0.351  14.570  0.3983 -0.5915  0.4963
15602TIP3    H168297   3.679   0.291  14.547  0.8792 -1.3738  0.9871
15602TIP3    H268298   3.744   0.422  14.507  0.3252 -1.5674 -0.6176
15603TIP3   OH268299   2.813   0.860  12.791 -0.3373  0.0911 -0.3518
15603TIP3    H168300   2.799   0.824  12.879 -1.0592  1.4654  0.1195
15603TIP3    H268301   2.745   0.820  12.737 -0.4225 -0.1069 -0.1010
15604TIP3   OH268302   5.392   2.949  11.856 -0.5245 -0.5898  0.2475
15604TIP3    H168303   5.361   3.039  11.850  0.0302 -0.3319  1.0534
15604TIP3    H268304   5.364   2.919  11.943 -1.8316 -1.6483 -0.4958
15605TIP3   OH268305   2.988   4.573   1.941 -0.3915  0.2501  0.4982
15605TIP3    H168306   3.035   4.526   1.872 -0.6785 -0.0324  0.4905
15605TIP3    H268307   2.940   4.642   1.894 -0.8262 -0.1291  0.3668
15606TIP3   OH268308   4.034   4.608  16.475  0.5830  0.2027  0.0799
15606TIP3    H168309   4.043   4.513  16.475 -0.0089  0.1328 -0.9292
15606TIP3    H268310   4.074   4.636  16.393  1.1754  0.8781  0.5844
15607TIP3   OH268311   4.362   6.762  14.640  0.6029 -0.2063 -0.8273
15607TIP3    H168312   4.382   6.694  14.575  0.2541 -0.1875 -0.9555
15607TIP3    H268313   4.293   6.814  14.599 -1.3792 -1.6219  0.5235
15608TIP3   OH268314   0.439   6.675  15.227 -0.6744  0.7421  0.4754
15608TIP3    H168315   0.359   6.648  15.182 -0.3123  0.7668 -0.1930
15608TIP3    H268316   0.485   6.731  15.164  0.6674 -0.5881  0.2047
15609TIP3   OH268317   1.217   0.357   4.113 -0.2102  0.1092 -0.4129
15609TIP3    H168318   1.281   0.293   4.083 -0.2078  0.2969 -0.8201
15609TIP3    H268319   1.220   0.427   4.047  1.0633  1.3926  0.9204
15610TIP3   OH268320   4.611   2.353  12.751 -0.3051 -0.0528 -0.0101
15610TIP3    H168321   4.665   2.400  12.687  0.8370 -0.2323  0.7944
15610TIP3    H268322   4.570   2.284  12.701 -0.7292  0.8073 -0.8830
15611TIP3   OH268323   5.453   5.000   2.977 -0.0952  0.4095  0.0903
15611TIP3    H168324   5.452   4.910   2.944  0.2026  1.1473 -2.1394
15611TIP3    H268325   5.538   5.008   3.020 -0.3293 -0.4863  0.7747
15612TIP3   OH268326   5.975   3.578  16.750 -0.0037  0.2575 -0.0284
15612TIP3    H168327   5.978   3.531  16.834  0.6197  0.2358 -0.0591
15612TIP3    H268328   5.893   3.627  16.753 -0.0820  0.0978  0.5124
15613TIP3   OH268329   5.820   1.803   3.337 -0.0986 -0.4625  0.3882
15613TIP3    H168330   5.730   1.769   3.340 -1.2627  2.2878 -0.0641
15613TIP3    H268331   5.841   1.825   3.428 -0.6540  0.5970  0.2806
15614TIP3   OH268332   1.419   5.740  15.727 -0.7105  0.1011  0.0087
15614TIP3    H168333   1.507   5.755  15.762 -0.8641 -2.3541  1.6304
15614TIP3    H268334   1.361   5.779  15.792 -0.8839 -0.4011  0.1533
15615TIP3   OH268335   4.375   6.086  15.874  0.5134  0.2387 -0.1522
15615TIP3    H168336   4.447   6.141  15.905  0.7977  0.5610 -1.3619
15615TIP3    H268337   4.417   6.010  15.835  0.2311  0.6931 -1.3707
15616TIP3   OH268338   0.766   6.724   5.617 -0.2557  0.0827  0.1047
15616TIP3    H168339   0.742   6.635   5.643  0.7650 -0.0257  0.7442
15616TIP3    H268340   0.735   6.733   5.527 -0.0085 -1.0533 -0.0955
15617TIP3   OH268341   4.832   6.050  12.755  0.1434  0.0900  0.3376
15617TIP3    H168342   4.898   6.105  12.797  1.0597 -1.5637  1.1411
15617TIP3    H268343   4.854   5.961  12.782 -0.9945 -0.7465 -1.3087
15618TIP3   OH268344   0.917   3.671  12.443 -0.2151 -0.0731  0.3364
15618TIP3    H168345   0.864   3.703  12.370 -0.6766 -0.6674  0.4059
15618TIP3    H268346   1.007   3.693  12.419 -0.4986  1.1614  0.3178
15619TIP3   OH268347   4.096   5.660  12.690  0.1393  0.2634  0.4239
15619TIP3    H168348   4.177   5.616  12.665  0.0622  1.2170 -1.7152
15619TIP3    H268349   4.119   5.709  12.769  0.8790 -1.5920  1.4091
15620TIP3   OH268350   6.060   2.691  12.684  0.6953 -0.1676 -0.1536
15620TIP3    H168351   6.153   2.715  12.681  0.2717  1.5348 -0.3586
15620TIP3    H268352   6.020   2.742  12.614 -0.2521 -1.6510 -0.7215
15621TIP3   OH268353   5.858   0.193   3.639 -0.7339  0.2224  0.5210
15621TIP3    H168354   5.913   0.239   3.702 -1.3345  1.1086  0.4077
15621TIP3    H268355   5.777   0.174   3.687 -0.1736 -1.5088  0.8396
15622TIP3   OH268356   1.070   4.542   2.622 -0.3685  0.2478 -0.9161
15622TIP3    H168357   1.093   4.629   2.655 -0.8643  1.5620 -3.7044
15622TIP3    H268358   1.143   4.486   2.647  0.2398  1.5718  0.4507
15623TIP3   OH268359   4.827   4.114   4.857 -0.4061 -0.3797  0.0529
15623TIP3    H168360   4.809   4.186   4.797  1.6363  0.1832  0.0291
15623TIP3    H268361   4.840   4.038   4.800 -0.5149 -0.3095 -0.0674
15624TIP3   OH268362   2.940   2.149   2.284  0.1497  0.9952 -0.6147
15624TIP3    H168363   2.955   2.067   2.332 -0.0746  0.5012 -1.3713
15624TIP3    H268364   2.956   2.218   2.348  2.6845  0.4463 -0.5584
15625TIP3   OH268365   6.312   1.708   2.214  0.0899  0.1352  0.3736
15625TIP3    H168366   6.330   1.686   2.306 -0.1666 -0.9549  0.1812
15625TIP3    H268367   6.338   1.800   2.206  0.8476  0.0312  1.3460
15626TIP3   OH268368   6.512   5.273  13.785 -0.5844  0.2347 -0.1432
15626TIP3    H168369   6.572   5.340  13.752  1.6642 -3.1955 -4.0663
15626TIP3    H268370   6.425   5.305  13.761  0.4692  1.4461 -2.7931
15627TIP3   OH268371   0.403   0.342  16.597  0.4645  0.2183  0.2196
15627TIP3    H168372   0.434   0.251  16.594  0.1853  0.1134  0.4249
15627TIP3    H268373   0.353   0.353  16.516 -1.0647 -0.3926  1.0388
15628TIP3   OH268374   3.677   4.446  14.944 -0.4439  0.4921  0.1768
15628TIP3    H168375   3.640   4.368  14.986 -0.6070  0.4439 -0.0550
15628TIP3    H268376   3.740   4.410  14.880 -0.9818  0.5220 -0.3830
15629TIP3   OH268377   5.401   4.538  11.724  0.6973 -0.1545  0.0653
15629TIP3    H168378   5.325   4.518  11.779  2.5537 -0.8076  2.5644
15629TIP3    H268379   5.409   4.464  11.665 -0.7756  0.0950 -0.4883
15630TIP3   OH268380   4.086   6.622   3.388  0.6419 -1.0458 -0.0478
15630TIP3    H168381   4.158   6.571   3.352  0.4171 -0.4735 -1.3700
15630TIP3    H268382   4.049   6.669   3.313 -0.9839 -1.1630  0.6258
15631TIP3   OH268383   2.774   0.637  13.248  0.5069  0.0268 -0.6111
15631TIP3    H168384   2.726   0.720  13.251  1.2725  0.4628  0.4894
15631TIP3    H268385   2.804   0.624  13.338  0.5169 -1.3827 -0.8009
15632TIP3   OH268386   2.766   3.145   0.587  0.0567 -0.0358  0.4092
15632TIP3    H168387   2.698   3.212   0.574 -0.8798 -1.2329 -1.2781
15632TIP3    H268388   2.797   3.126   0.499 -0.5063 -2.6133  0.6985
15633TIP3   OH268389   1.349   4.533  13.416 -0.4330  0.2466  0.8082
15633TIP3    H168390   1.356   4.441  13.438 -0.7329  0.6191  2.6325
15633TIP3    H268391   1.261   4.558  13.445  0.5649  1.6794  2.8659
15634TIP3   OH268392   6.554   2.230  13.084  0.6106  0.0966  0.1742
15634TIP3    H168393   6.502   2.185  13.016  1.4189 -0.1111 -0.3266
15634TIP3    H268394   6.645   2.222  13.053  0.9873  0.0689  1.2469
15635TIP3   OH268395   3.066   1.094  14.276 -0.3477  0.0166  0.5986
15635TIP3    H168396   2.988   1.039  14.273  0.5700 -1.4068  1.6251
15635TIP3    H268397   3.129   1.045  14.329  2.1168 -0.0066 -2.0652
15636TIP3   OH268398   1.895   4.247   1.130 -0.7765  0.3988 -0.6024
15636TIP3    H168399   1.814   4.277   1.171 -0.6053 -0.3403  0.2990
15636TIP3    H268400   1.953   4.225   1.203 -0.1881 -0.2137 -1.2368
15637TIP3   OH268401   0.999   2.135   1.170  0.5476 -0.2359 -0.4635
15637TIP3    H168402   1.087   2.166   1.150 -0.2830  2.8008  0.1428
15637TIP3    H268403   0.949   2.153   1.091 -0.4181  2.1592  0.5898
15638TIP3   OH268404   0.176   1.344  17.095 -0.3013 -0.3587 -0.8508
15638TIP3    H168405   0.218   1.260  17.080 -0.4671 -0.3401 -1.4369
15638TIP3    H268406   0.186   1.391  17.012 -0.1064  0.2438 -0.4927
15639TIP3   OH268407   1.592   4.612   5.330  0.2236  0.7182 -0.1238
15639TIP3    H168408   1.657   4.673   5.295 -1.8920  2.2919 -1.6287
15639TIP3    H268409   1.550   4.660   5.401 -1.8454  1.3472 -1.6813
15640TIP3   OH268410   6.370   3.212  12.286  0.0422 -0.4743 -0.6967
15640TIP3    H168411   6.350   3.169  12.369  1.1543  0.0529 -0.1431
15640TIP3    H268412   6.426   3.285  12.309 -0.2096  0.1087 -1.8458
15641TIP3   OH268413   0.474   1.915  15.950 -0.5991  0.0953  0.0414
15641TIP3    H168414   0.543   1.850  15.935 -1.2506 -0.3386 -1.1843
15641TIP3    H268415   0.465   1.961  15.867 -2.3960 -0.4697 -0.1262
15642TIP3   OH268416   4.868   0.598  11.455  0.1652  0.2729 -0.2491
15642TIP3    H168417   4.882   0.537  11.527 -0.9783  1.1470  0.7595
15642TIP3    H268418   4.809   0.551  11.396  0.9462 -0.3685 -0.5477
15643TIP3   OH268419   6.177   3.042  11.658  0.5701  0.3106  0.9921
15643TIP3    H168420   6.166   3.083  11.572  1.3473 -0.7105  0.3867
15643TIP3    H268421   6.092   3.004  11.678  1.4490 -3.5910 -1.5584
15644TIP3   OH268422   1.338   1.303   0.943 -0.2708  0.2387  0.9318
15644TIP3    H168423   1.392   1.281   1.019 -2.6751  2.3994  3.5228
15644TIP3    H268424   1.255   1.259   0.959 -1.4601  2.2202  0.6374
15645TIP3   OH268425   6.171   5.387   3.227  0.6416 -0.0374 -0.3403
15645TIP3    H168426   6.208   5.317   3.282  0.2731 -0.2229 -0.3262
15645TIP3    H268427   6.246   5.441   3.204  1.1689 -1.2448 -1.5458
15646TIP3   OH268428   3.330   1.300  16.528 -0.0954 -0.2400 -0.1224
15646TIP3    H168429   3.301   1.272  16.441 -0.4788 -0.6233  0.1223
15646TIP3    H268430   3.323   1.221  16.582 -2.1993  0.5328  0.8495
15647TIP3   OH268431   3.513   1.994  12.254 -0.1565  0.2577  0.0521
15647TIP3    H168432   3.516   1.958  12.343 -0.5504  1.3483  0.5236
15647TIP3    H268433   3.470   2.079  12.264  1.2204  1.1193 -0.9360
15648TIP3   OH268434   3.727   5.603  14.958  0.5655 -0.1479  0.3645
15648TIP3    H168435   3.721   5.659  15.036  0.1573 -0.3464  0.4799
15648TIP3    H268436   3.691   5.657  14.887  0.1709 -0.2605  0.4758
15649TIP3   OH268437   3.436   0.881  11.269  0.5344  0.2584  0.1250
15649TIP3    H168438   3.397   0.813  11.213  1.9224 -0.4494 -0.0255
15649TIP3    H268439   3.434   0.960  11.215  0.7602 -0.1401 -0.4784
15650TIP3   OH268440   0.608   3.045   4.355 -0.1319  0.0593 -0.7216
15650TIP3    H168441   0.565   3.058   4.440 -0.7929 -2.5412 -0.5633
15650TIP3    H268442   0.541   3.071   4.291  0.6313  2.7711 -0.5481
15651TIP3   OH268443   4.839   6.075  12.125 -0.1399 -0.1674 -0.2172
15651TIP3    H168444   4.845   6.142  12.057  0.0992  2.7281  2.3993
15651TIP3    H268445   4.927   6.070  12.162 -0.6565 -0.2760  1.0506
15652TIP3   OH268446   4.549   6.776  16.242 -0.1143 -0.4485 -0.6535
15652TIP3    H168447   4.540   6.750  16.150 -1.4932 -0.0136 -0.6597
15652TIP3    H268448   4.461   6.768  16.278 -0.1701  1.9832 -0.0785
15653TIP3   OH268449   5.600   3.760   5.509  0.0009  0.1777 -0.7667
15653TIP3    H168450   5.533   3.814   5.549  0.8806  1.1276 -0.5415
15653TIP3    H268451   5.596   3.781   5.416 -0.1435  0.0799 -0.7829
15654TIP3   OH268452   0.434   5.383  16.886 -0.1596 -0.6593  0.0531
15654TIP3    H168453   0.449   5.471  16.852 -0.1218 -0.9903 -0.8145
15654TIP3    H268454   0.349   5.389  16.931 -0.8588 -0.5243 -1.2555
15655TIP3   OH268455   2.140   3.549  15.739 -0.2421 -0.0316  0.0530
15655TIP3    H168456   2.177   3.629  15.777 -3.3726  1.4409  0.2972
15655TIP3    H268457   2.155   3.558  15.645  1.4099 -0.3421  0.2429
15656TIP3   OH268458   1.944   4.647   0.126 -0.2823 -0.0848 -0.6632
15656TIP3    H168459   1.873   4.607   0.176  0.8068 -0.5401  0.5842
15656TIP3    H268460   1.988   4.705   0.188 -0.3659  1.2206 -1.7829
15657TIP3   OH268461   6.052   4.783  13.707 -0.5064  0.0523 -0.2678
15657TIP3    H168462   6.015   4.697  13.684 -1.4891  0.3875 -0.0229
15657TIP3    H268463   6.099   4.811  13.629  0.2007 -0.9024 -0.2007
15658TIP3   OH268464   3.309   6.250  13.098 -0.1146 -0.0015 -0.1746
15658TIP3    H168465   3.226   6.278  13.137 -0.9642 -1.8040 -0.6066
15658TIP3    H268466   3.286   6.220  13.011  0.4591 -3.1381  0.6413
15659TIP3   OH268467   0.227   2.126   2.115 -0.4174 -0.6412 -0.0570
15659TIP3    H168468   0.223   2.222   2.120 -0.8828 -0.6063 -0.8983
15659TIP3    H268469   0.280   2.100   2.191 -0.7294  0.2426  0.4776
15660TIP3   OH268470   3.108   0.780   4.730  0.3106 -0.7714  0.3765
15660TIP3    H168471   3.084   0.864   4.769 -0.6624 -0.8855  0.0401
15660TIP3    H268472   3.201   0.791   4.707 -0.0868  0.6320 -0.7042
15661TIP3   OH268473   4.769   3.473   5.377 -0.3163  0.4617 -0.5138
15661TIP3    H168474   4.693   3.426   5.343  0.0124  0.2689 -0.9900
15661TIP3    H268475   4.734   3.528   5.447 -0.6945 -0.6266  0.1824
15662TIP3   OH268476   0.662   6.780   1.508  0.0451 -0.7910 -0.0696
15662TIP3    H168477   0.664   6.740   1.422  3.1092 -1.1934  0.0727
15662TIP3    H268478   0.711   6.862   1.498 -1.5006  0.2886  0.8237
15663TIP3   OH268479   3.385   5.127  15.445  0.4898  0.0397 -0.0588
15663TIP3    H168480   3.406   5.144  15.536 -0.6985  0.4217  0.1550
15663TIP3    H268481   3.458   5.165  15.396  1.0545 -0.0277  0.7109
15664TIP3   OH268482   4.803   4.671   4.532  0.1837 -0.1010 -0.0193
15664TIP3    H168483   4.827   4.631   4.448  1.1224 -0.9258  0.6184
15664TIP3    H268484   4.861   4.629   4.596 -0.9799  0.0085  1.1510
15665TIP3   OH268485   3.477   5.921   3.458  0.1755 -0.1091 -0.3137
15665TIP3    H168486   3.468   6.016   3.462 -0.0512 -0.1356 -0.2014
15665TIP3    H268487   3.506   5.903   3.369 -0.1301  0.0373 -0.4429
15666TIP3   OH268488   0.930   2.175   0.016  0.5461  0.4084 -0.2820
15666TIP3    H168489   0.835   2.189   0.018  0.3253 -0.7386  2.3863
15666TIP3    H268490   0.941   2.081   0.027  1.9504  0.7011  1.2891
15667TIP3   OH268491   4.055   5.864   2.904  0.3245 -0.0307  0.1611
15667TIP3    H168492   4.114   5.929   2.944  1.4611 -0.9995  0.1113
15667TIP3    H268493   4.049   5.795   2.970  0.0078 -0.3869 -0.2444
15668TIP3   OH268494   6.641   2.361   2.789  0.6395  0.2943  0.3639
15668TIP3    H168495   6.635   2.285   2.846 -1.3384  1.2727  1.6109
15668TIP3    H268496   6.552   2.372   2.755  0.5442  2.6749  1.1646
15669TIP3   OH268497   1.424   5.515  15.524  0.0438  0.2656 -0.3361
15669TIP3    H168498   1.341   5.537  15.483  0.9934  1.9560 -1.5119
15669TIP3    H268499   1.419   5.555  15.611  0.2537  1.9808 -1.0599
15670TIP3   OH268500   0.089   5.061   4.634 -0.0378  0.5131  0.1734
15670TIP3    H168501   0.056   5.106   4.711  1.2367  0.7345  0.6111
15670TIP3    H268502   0.079   4.968   4.654  1.5384  0.5385  1.2027
15671TIP3   OH268503   6.573   4.662   3.460  0.1540 -0.6125 -0.0976
15671TIP3    H168504   6.609   4.744   3.494 -0.9421 -0.1300 -0.0425
15671TIP3    H268505   6.488   4.654   3.503  0.8694 -2.5826  1.0989
15672TIP3   OH268506   6.591   6.680   3.868  0.2440 -0.0048 -0.3582
15672TIP3    H168507   6.642   6.710   3.943 -0.2911 -1.2233  0.5350
15672TIP3    H268508   6.654   6.634   3.813  0.5680  0.5754 -0.4791
15673TIP3   OH268509   5.138   0.800   5.465 -0.4052 -0.2238 -0.1465
15673TIP3    H168510   5.085   0.764   5.393  0.0155 -2.4865  0.5821
15673TIP3    H268511   5.094   0.880   5.490 -0.6928  0.5272 -2.7689
15674TIP3   OH268512   3.051   1.760  16.810  0.6591 -0.2179 -0.4906
15674TIP3    H168513   3.031   1.816  16.735  3.1047 -0.0491 -1.0972
15674TIP3    H268514   3.012   1.676  16.788 -1.1222  0.5832 -0.5923
15675TIP3   OH268515   3.993   5.885  12.056  0.0728 -0.7203 -0.0225
15675TIP3    H168516   3.914   5.853  12.101 -0.7701 -0.4628 -1.2671
15675TIP3    H268517   4.054   5.812  12.059 -1.4965 -2.2101 -2.0415
15676TIP3   OH268518   3.080   1.035  11.518  0.0941  0.6224  1.1209
15676TIP3    H168519   3.173   1.010  11.518 -0.0721 -0.0070  2.3521
15676TIP3    H268520   3.037   0.969  11.463  0.1602  0.1003  1.6950
15677TIP3   OH268521   5.324   3.502   6.294 -0.1366 -0.2640 -0.2047
15677TIP3    H168522   5.255   3.436   6.295  0.5483 -1.0128 -0.8687
15677TIP3    H268523   5.348   3.512   6.386 -0.7595 -0.3798 -0.0189
15678TIP3   OH268524   5.998   5.092   3.299  0.4107  0.1242  0.6890
15678TIP3    H168525   5.991   5.035   3.222  0.2386 -0.2725  0.9935
15678TIP3    H268526   6.078   5.064   3.343  0.1068 -0.1713  1.0656
15679TIP3   OH268527   5.843   0.230  16.317  0.2101 -0.1601 -0.2170
15679TIP3    H168528   5.798   0.276  16.246  0.0144  0.9334  0.5775
15679TIP3    H268529   5.832   0.137  16.297 -2.2655  0.0530 -0.1773
15680TIP3   OH268530   6.558   4.668   1.428 -0.0395 -0.0375 -0.1580
15680TIP3    H168531   6.558   4.759   1.458 -0.6705 -0.6072  1.7006
15680TIP3    H268532   6.630   4.664   1.365 -0.9552  2.0816 -1.4535
15681TIP3   OH268533   6.480   1.793  16.808  0.8035  0.1675  0.8179
15681TIP3    H168534   6.474   1.839  16.724  2.5744  0.9028  1.0588
15681TIP3    H268535   6.395   1.749  16.816  1.1686 -1.3481 -2.1619
15682TIP3   OH268536   4.638   6.812  11.578  0.2433  0.7023  0.1115
15682TIP3    H168537   4.628   6.781  11.488  0.8993  0.7575  0.0186
15682TIP3    H268538   4.726   6.849  11.582  1.2835 -1.7091  1.5041
15683TIP3   OH268539   5.040   2.992   3.868  0.2385  0.5678  0.2722
15683TIP3    H168540   5.009   3.034   3.788 -0.1850 -0.3200 -0.0446
15683TIP3    H268541   5.020   3.055   3.938 -2.9552 -0.1862  0.1935
15684TIP3   OH268542   4.558   5.222   0.306 -1.3113 -0.2863  0.1608
15684TIP3    H168543   4.647   5.206   0.335 -0.9760 -0.3032 -0.8225
15684TIP3    H268544   4.503   5.189   0.376 -0.5383  0.1527  0.9860
15685TIP3   OH268545   5.582   5.026   3.680  0.3840  0.5362 -0.6034
15685TIP3    H168546   5.611   5.045   3.769  1.0443 -0.1044 -0.6839
15685TIP3    H268547   5.637   4.954   3.650 -2.2170 -1.7877 -0.2187
15686TIP3   OH268548   3.632   5.537   0.124  0.2665 -0.4606 -0.7026
15686TIP3    H168549   3.708   5.539   0.066 -0.0404 -2.0182 -1.2215
15686TIP3    H268550   3.568   5.483   0.077 -0.3184 -1.0472  0.6978
15687TIP3   OH268551   2.503   4.893   3.680 -0.3816 -0.0901 -0.1419
15687TIP3    H168552   2.467   4.806   3.662 -1.8567  0.3416  0.5645
15687TIP3    H268553   2.598   4.880   3.683 -0.5888 -1.6990  0.0626
15688TIP3   OH268554   0.656   2.173  17.196  0.1462 -0.0365  0.0343
15688TIP3    H168555   0.588   2.164  17.263 -0.3154 -0.4218 -0.4804
15688TIP3    H268556   0.616   2.226  17.128  0.9762  1.2661  0.5209
15689TIP3   OH268557   6.120   2.089   4.617 -0.7943 -0.3408  0.6197
15689TIP3    H168558   6.111   2.172   4.570  2.7858  0.2544  0.6529
15689TIP3    H268559   6.130   2.023   4.548 -1.7500 -0.4715  0.5955
15690TIP3   OH268560   0.632   2.199   1.301  0.1382 -0.5322  0.2369
15690TIP3    H168561   0.614   2.115   1.261 -1.4969  0.4199 -1.1512
15690TIP3    H268562   0.550   2.225   1.343  0.1980  0.9292 -0.4809
15691TIP3   OH268563   5.682   2.981  14.031  0.0734 -0.4965 -0.0761
15691TIP3    H168564   5.770   3.011  14.055 -0.4861  1.3874 -0.2465
15691TIP3    H268565   5.623   3.027  14.089 -0.8664 -1.2212 -0.4212
15692TIP3   OH268566   5.507   3.280  12.523 -0.4256 -0.9122  0.2704
15692TIP3    H168567   5.580   3.268  12.584  0.5856  0.9348 -0.4908
15692TIP3    H268568   5.548   3.291  12.438 -1.5482  0.4230 -0.1380
15693TIP3   OH268569   2.528   4.503  14.359 -0.0946  0.7206 -0.2839
15693TIP3    H168570   2.620   4.499  14.333  0.0720  0.8722  0.2845
15693TIP3    H268571   2.492   4.575  14.308  0.1305  0.7440 -0.4116
15694TIP3   OH268572   1.677   6.009  11.692 -0.0065 -0.0121  0.0227
15694TIP3    H168573   1.621   6.002  11.614  0.1206 -2.4141  0.0860
15694TIP3    H268574   1.752   5.953  11.673 -0.7137 -1.9223  2.4371
15695TIP3   OH268575   6.341   3.419  14.720 -0.4007  0.0786  0.3379
15695TIP3    H168576   6.336   3.377  14.634  1.2853  2.2290 -0.8985
15695TIP3    H268577   6.305   3.507  14.705 -0.7797  0.2415  2.0440
15696TIP3   OH268578   6.664   6.331   6.728  0.5076 -0.9044  0.0030
15696TIP3    H168579   6.720   6.369   6.796 -1.0787  0.6999  0.4954
15696TIP3    H268580   6.706   6.354   6.645  0.8061 -0.0884  0.3770
15697TIP3   OH268581   5.996   1.545  16.785  0.0186 -0.2672  0.2095
15697TIP3    H168582   5.959   1.517  16.869  3.3336 -0.8398  1.6062
15697TIP3    H268583   5.973   1.474  16.724 -4.0341  0.9909 -0.0507
15698TIP3   OH268584   4.228   3.163   5.400 -0.0564 -0.4267  0.2977
15698TIP3    H168585   4.163   3.149   5.331  3.5690 -0.5586 -3.5182
15698TIP3    H268586   4.245   3.076   5.436  0.7541 -1.0538 -1.5156
15699TIP3   OH268587   0.646   1.946   3.105 -0.2005 -0.2553 -0.6217
15699TIP3    H168588   0.571   1.993   3.069  0.0368 -0.6952 -1.7528
15699TIP3    H268589   0.716   1.960   3.041  0.9966  0.9558  0.8720
15700TIP3   OH268590   6.807   4.112  16.254 -0.3824  0.4354 -0.1405
15700TIP3    H168591   6.769   4.055  16.187  0.8400  1.0715 -1.4290
15700TIP3    H268592   6.786   4.201  16.225 -0.1178  0.7082  0.4976
15701TIP3   OH268593   4.156   1.766  14.462  0.0183 -0.3110 -0.0517
15701TIP3    H168594   4.141   1.707  14.535 -0.2810  0.0754  0.2038
15701TIP3    H268595   4.243   1.741  14.428  0.5779  0.1135  1.0222
15702TIP3   OH268596   6.558   1.903   0.383 -0.3416  0.2492  0.9328
15702TIP3    H168597   6.616   1.915   0.307 -0.6108  1.1742  0.8682
15702TIP3    H268598   6.604   1.839   0.437  0.6606  0.8165  0.7820
15703TIP3   OH268599   2.419   4.961   2.005  0.4417 -0.2898  0.0162
15703TIP3    H168600   2.454   4.875   2.028  0.2179 -0.4326 -0.1750
15703TIP3    H268601   2.335   4.965   2.049  0.9584  0.3043  0.9926
15704TIP3   OH268602   0.009   3.936  15.327  0.3749 -0.0882 -0.3637
15704TIP3    H168603   0.035   3.844  15.320 -1.2861 -0.5755 -0.6196
15704TIP3    H268604  -0.024   3.958  15.240 -1.1802  0.1098  0.2581
15705TIP3   OH268605   4.731   5.368   1.127 -0.0929  0.2492 -0.0893
15705TIP3    H168606   4.642   5.372   1.092 -0.7031  1.5000  1.4945
15705TIP3    H268607   4.736   5.441   1.189  2.6639  1.4083 -1.5157
15706TIP3   OH268608   4.569   5.194  15.248 -0.1589 -0.3944  0.5145
15706TIP3    H168609   4.592   5.248  15.324  0.0359 -1.9950  1.6380
15706TIP3    H268610   4.477   5.173  15.261 -0.5768  0.6333 -0.5702
15707TIP3   OH268611   2.356   4.206  15.383 -0.7962 -0.2789 -0.2898
15707TIP3    H168612   2.264   4.181  15.380 -1.5149  2.1821 -0.9424
15707TIP3    H268613   2.369   4.258  15.304  0.6457  1.0241  0.7479
15708TIP3   OH268614   6.655   1.331   2.944  0.2902  0.1121 -0.2876
15708TIP3    H168615   6.667   1.396   3.013 -1.5768 -0.3952  0.5943
15708TIP3    H268616   6.634   1.382   2.866  1.2590  0.6536 -0.2002
15709TIP3   OH268617   6.751   1.385   0.427  0.4913 -1.0796 -0.1317
15709TIP3    H168618   6.703   1.460   0.394  1.2323 -0.7860 -0.5683
15709TIP3    H268619   6.812   1.422   0.492  0.6327 -1.3392 -0.1133
15710TIP3   OH268620   2.843   4.009  13.604  0.1257 -0.0211  0.0015
15710TIP3    H168621   2.768   3.949  13.596 -1.5596  1.2229  3.8790
15710TIP3    H268622   2.877   3.993  13.692  1.2774  2.8147  0.1905
15711TIP3   OH268623   0.245   1.807   0.567  0.1579  0.2655 -0.3126
15711TIP3    H168624   0.332   1.794   0.528  1.1421  1.2222  1.3983
15711TIP3    H268625   0.231   1.727   0.618  0.3415  0.3859 -0.0703
15712TIP3   OH268626   0.103   4.752   4.723 -0.8983  0.4526  0.2464
15712TIP3    H168627   0.126   4.739   4.815 -1.8581  0.7578  0.5358
15712TIP3    H268628   0.036   4.686   4.705  0.7500 -1.0205 -0.8346
15713TIP3   OH268629   0.615   5.086   4.475 -0.4417  0.2418 -0.4432
15713TIP3    H168630   0.519   5.080   4.477 -0.3478 -2.1114  1.3390
15713TIP3    H268631   0.645   5.009   4.524  2.3619  1.3729 -0.1976
15714TIP3   OH268632   4.177   5.432  15.225 -0.4288  0.4597 -0.1905
15714TIP3    H168633   4.105   5.479  15.265 -0.7926  0.6650 -1.0631
15714TIP3    H268634   4.169   5.342  15.258 -0.2540  0.7930  0.7840
15715TIP3   OH268635   2.361   0.263   3.770  0.2299  0.4243 -0.2290
15715TIP3    H168636   2.297   0.261   3.699 -0.1899 -3.9574 -0.0093
15715TIP3    H268637   2.430   0.203   3.741  1.4414  0.6982  1.9168
15716TIP3   OH268638   0.049   5.488   2.505 -0.1524  0.0219  0.2698
15716TIP3    H168639   0.093   5.528   2.431  0.1902 -0.0628  0.4270
15716TIP3    H268640   0.018   5.561   2.558 -0.5715  0.0838 -0.0570
15717TIP3   OH268641   4.062   6.181   3.702 -0.4209 -0.1036 -0.8192
15717TIP3    H168642   4.082   6.225   3.784  1.3854 -0.6809 -0.9160
15717TIP3    H268643   4.116   6.225   3.637 -1.4047 -0.0264 -1.6152
15718TIP3   OH268644   1.688   3.636  17.200 -0.0073  0.9799  0.2957
15718TIP3    H168645   1.659   3.700  17.266 -0.5893  0.7389  0.2832
15718TIP3    H268646   1.694   3.553  17.249  0.8624  1.0565  0.3401
15719TIP3   OH268647   6.454   5.020   3.357 -0.1290 -0.5548  0.3430
15719TIP3    H168648   6.436   5.097   3.302 -1.9194 -0.8405  0.4640
15719TIP3    H268649   6.491   4.956   3.297 -0.2991 -0.2132 -0.1323
15720TIP3   OH268650   6.661   0.959  16.303  0.1341 -0.1707  0.0731
15720TIP3    H168651   6.638   0.979  16.394 -1.9488  1.8913 -0.7980
15720TIP3    H268652   6.661   1.044  16.259 -0.5941 -1.2501 -2.1918
15721TIP3   OH268653   4.220   0.321   4.605 -0.0560  0.0632  0.6184
15721TIP3    H168654   4.230   0.416   4.596 -1.4845  0.1762  0.0076
15721TIP3    H268655   4.258   0.286   4.524  2.9399 -0.1296  1.9716
15722TIP3   OH268656   6.170   2.576  15.385  0.0638  0.4421 -0.0861
15722TIP3    H168657   6.103   2.582  15.454 -0.4727  2.4634 -0.6991
15722TIP3    H268658   6.178   2.665  15.352  1.0075 -0.2895 -1.9959
15723TIP3   OH268659   5.760   4.342  14.114 -0.2251 -0.4870 -0.4406
15723TIP3    H168660   5.817   4.277  14.157 -1.5118 -1.1528  0.3145
15723TIP3    H268661   5.759   4.416  14.175 -1.0813 -0.9481  0.1269
15724TIP3   OH268662   0.930   3.858   3.003  0.3639  0.4088 -0.8884
15724TIP3    H168663   0.886   3.832   3.084 -2.1388  1.4744 -1.7784
15724TIP3    H268664   0.951   3.950   3.015 -0.7797  0.8035 -1.6876
15725TIP3   OH268665   2.086   2.364  15.010  0.3843 -0.8891 -0.0651
15725TIP3    H168666   2.048   2.336  14.927  0.6631 -0.0622 -0.4781
15725TIP3    H268667   2.011   2.371  15.069  0.0554 -0.5612 -0.5121
15726TIP3   OH268668   2.148   2.280   1.609 -0.0027 -0.1492 -0.0339
15726TIP3    H168669   2.238   2.248   1.607 -0.6513 -2.0560  0.1432
15726TIP3    H268670   2.150   2.352   1.673  1.9994  1.9851 -2.2672
15727TIP3   OH268671   4.399   5.937   2.226  0.1016 -0.1819  0.3757
15727TIP3    H168672   4.458   5.870   2.190  0.7317  1.0860 -1.0377
15727TIP3    H268673   4.321   5.888   2.251  0.9913 -1.6241  0.4945
15728TIP3   OH268674   1.874   1.130   1.159  0.0614  0.6952  0.3644
15728TIP3    H168675   1.842   1.212   1.123 -1.3020 -0.2752 -0.7733
15728TIP3    H268676   1.938   1.099   1.095 -0.1840  0.3893  0.2626
15729TIP3   OH268677   5.181   6.191  11.800  0.1366  0.4805 -0.4048
15729TIP3    H168678   5.196   6.109  11.846 -0.8123  1.0884  1.0377
15729TIP3    H268679   5.261   6.205  11.749 -0.1880 -1.9779 -1.7444
15730TIP3   OH268680   5.764   3.034   5.520 -0.3550  0.3976 -0.5215
15730TIP3    H168681   5.697   3.073   5.464  0.6571  0.4036 -1.7845
15730TIP3    H268682   5.800   3.107   5.570 -1.2610  0.3945  0.1614
15731TIP3   OH268683   5.656   3.056  11.962 -0.5815  0.0753  0.4783
15731TIP3    H168684   5.611   3.140  11.956 -0.7743 -0.0764 -0.2731
15731TIP3    H268685   5.644   3.016  11.876  0.9043 -0.0144  0.2978
15732TIP3   OH268686   0.018   2.556   5.080  0.1067 -0.1158 -0.3204
15732TIP3    H168687  -0.065   2.575   5.035 -0.6600  1.1103  1.5189
15732TIP3    H268688   0.076   2.629   5.055 -0.1676  0.3170  0.2930
15733TIP3   OH268689   2.349   6.050  15.814  0.5754 -0.1249  0.5271
15733TIP3    H168690   2.439   6.082  15.816  0.1770  1.1883  3.6652
15733TIP3    H268691   2.303   6.113  15.759  1.5145 -0.8796 -1.2168
15734TIP3   OH268692   0.927   5.078  16.867 -0.5413  0.1392  0.9074
15734TIP3    H168693   0.912   5.099  16.775  0.0109  1.2930  1.0622
15734TIP3    H268694   0.970   5.156  16.902  2.2485 -1.4855  1.3750
15735TIP3   OH268695   6.670   4.175  14.913 -0.3392  0.1402 -0.4471
15735TIP3    H168696   6.691   4.206  14.825 -0.0715  0.0733 -0.4064
15735TIP3    H268697   6.707   4.241  14.971  2.8342 -1.6336 -0.2280
15736TIP3   OH268698   4.519   4.921   4.712  0.4227  0.4497  0.3140
15736TIP3    H168699   4.506   4.828   4.731  1.6937  0.4052  1.0765
15736TIP3    H268700   4.434   4.951   4.680 -0.2389 -0.7779  0.8524
15737TIP3   OH268701   3.970   2.456   1.359  0.1342  0.3577  0.1965
15737TIP3    H168702   4.009   2.374   1.329  2.8717  1.5555  0.1657
15737TIP3    H268703   3.922   2.489   1.284  0.3837 -0.4239 -0.3199
15738TIP3   OH268704   4.644   5.421   4.673  0.2007  0.5194  0.0708
15738TIP3    H168705   4.597   5.364   4.734 -1.7814  1.1959 -0.7412
15738TIP3    H268706   4.620   5.510   4.700  3.2221  1.0655  1.3060
15739TIP3   OH268707   2.329   1.519  15.553 -0.0929  0.5376  0.1568
15739TIP3    H168708   2.371   1.445  15.598 -0.3817  0.3040  0.0443
15739TIP3    H268709   2.265   1.552  15.616  0.2109  0.8531  0.3034
15740TIP3   OH268710   2.540   6.777   3.954  0.1647 -0.2245  0.5535
15740TIP3    H168711   2.470   6.809   4.011 -0.5615  0.1210 -0.5059
15740TIP3    H268712   2.551   6.685   3.979  0.4832  0.1419  1.8483
15741TIP3   OH268713   2.532   3.827  16.938  0.2415 -0.4891 -0.2272
15741TIP3    H168714   2.476   3.896  16.973 -0.8231 -1.9220  1.0274
15741TIP3    H268715   2.538   3.846  16.845 -0.1877  1.1686  0.0541
15742TIP3   OH268716   0.334   4.397  10.150 -0.0248  0.2032  0.2167
15742TIP3    H168717   0.290   4.312  10.156  1.3399 -0.4370  2.6139
15742TIP3    H268718   0.298   4.448  10.223  0.5951  0.9680  0.0050
15743TIP3   OH268719   6.114   3.289  16.897 -0.3857 -1.0329  0.5748
15743TIP3    H168720   6.080   3.347  16.965 -1.0838 -0.5170 -0.1951
15743TIP3    H268721   6.037   3.242  16.865 -0.5126  0.4761 -1.5135
15744TIP3   OH268722   1.129   0.770   4.043  0.1833 -0.1491 -0.1328
15744TIP3    H168723   1.223   0.781   4.031  0.1152 -0.8900 -1.4763
15744TIP3    H268724   1.105   0.696   3.987 -1.1767 -0.0601  0.2856
15745TIP3   OH268725   1.193   4.915   0.105 -0.0029  0.0072 -0.0977
15745TIP3    H168726   1.264   4.951   0.158 -0.7718  0.0542  0.9279
15745TIP3    H268727   1.237   4.868   0.034  1.0289  0.9133 -0.0743
15746TIP3   OH268728   0.423   5.672   1.336 -0.3952  0.0949  0.0932
15746TIP3    H168729   0.478   5.732   1.388 -2.5289  1.3320  1.0533
15746TIP3    H268730   0.469   5.664   1.252  2.3657 -0.7406  1.5677
15747TIP3   OH268731   1.053   4.542   3.474  0.0397  0.3295 -0.2641
15747TIP3    H168732   1.091   4.486   3.541  1.2143 -0.7864 -1.7720
15747TIP3    H268733   1.008   4.482   3.415 -0.7105  1.2466 -0.6612
15748TIP3   OH268734   4.262   2.631   4.471 -0.0173  0.3201 -0.0921
15748TIP3    H168735   4.303   2.676   4.397 -0.8850 -0.2675 -0.9565
15748TIP3    H268736   4.191   2.689   4.498 -1.0402 -0.4036 -1.1100
15749TIP3   OH268737   3.978   2.028  12.596 -0.0933 -0.0470 -0.0987
15749TIP3    H168738   4.047   1.977  12.553  0.0543  1.8680 -2.3290
15749TIP3    H268739   4.025   2.092  12.649 -0.2649 -1.2135  1.5285
15750TIP3   OH268740   0.804   2.682  11.623  0.4298 -0.3419 -0.2064
15750TIP3    H168741   0.877   2.683  11.561 -0.0645 -0.1925 -0.8035
15750TIP3    H268742   0.746   2.613  11.590 -0.1686  0.2017 -0.3154
15751TIP3   OH268743   0.324   5.102  14.012  0.0573 -0.7945  0.0772
15751TIP3    H168744   0.343   5.173  14.072 -0.3881  0.4392 -1.1796
15751TIP3    H268745   0.407   5.085  13.967  0.0855 -0.8442  0.1482
15752TIP3   OH268746   2.897   5.756  12.054 -0.4535 -0.6227  0.2410
15752TIP3    H168747   2.961   5.787  11.990  0.5458 -0.9270  1.0597
15752TIP3    H268748   2.946   5.694  12.108 -1.0316  0.2781  1.8496
15753TIP3   OH268749   6.795   6.130  12.531  0.0975 -0.3201  0.0461
15753TIP3    H168750   6.808   6.035  12.524 -1.9994 -0.6830  0.2378
15753TIP3    H268751   6.797   6.148  12.625 -4.4551 -1.1606  0.5705
15754TIP3   OH268752   5.989   4.344  16.025  0.0208  0.2331 -0.0696
15754TIP3    H168753   6.017   4.314  16.112  1.1908 -1.2910 -0.9121
15754TIP3    H268754   5.911   4.397  16.041 -1.0282 -1.7030  1.7570
15755TIP3   OH268755   0.472   2.855   4.875 -0.0876 -0.0287 -0.0625
15755TIP3    H168756   0.563   2.882   4.863  0.7299 -2.2894  0.4479
15755TIP3    H268757   0.452   2.878   4.965 -0.5609  1.8092 -0.6049
15756TIP3   OH268758   5.466   5.740   4.933 -0.0102  0.2588 -0.1741
15756TIP3    H168759   5.405   5.667   4.942 -0.1470  0.5348  1.2690
15756TIP3    H268760   5.417   5.816   4.965  0.6566  0.7086 -0.2096
15757TIP3   OH268761   1.723   0.318   1.225 -0.3479 -0.0232  0.4307
15757TIP3    H168762   1.813   0.321   1.192  0.0084 -1.3021  1.2021
15757TIP3    H268763   1.721   0.381   1.296  0.5433 -1.4101  1.7391
15758TIP3   OH268764   6.096   6.742  11.226 -0.3185 -0.4844 -0.1040
15758TIP3    H168765   6.011   6.705  11.206  0.2173 -1.6931 -0.2308
15758TIP3    H268766   6.153   6.713  11.154  0.8912 -2.2667  1.4689
15759TIP3   OH268767   0.888   3.025   1.819 -0.2049  1.0378  0.1734
15759TIP3    H168768   0.879   2.945   1.767 -0.6542 -0.2025  2.0521
15759TIP3    H268769   0.982   3.034   1.834 -0.2018  0.2781  0.7349
15760TIP3   OH268770   1.361   1.431  15.940 -0.0111  0.3090 -0.1886
15760TIP3    H168771   1.446   1.446  15.898 -0.2086  1.6204 -0.1361
15760TIP3    H268772   1.346   1.508  15.994 -0.8117 -0.3425  0.5495
15761TIP3   OH268773   4.326   3.410   5.436  0.2381  0.1105  0.1694
15761TIP3    H168774   4.257   3.453   5.385 -0.6133 -0.7461  0.5538
15761TIP3    H268775   4.307   3.316   5.425  0.8347 -0.1087  0.9905
15762TIP3   OH268776   5.099   6.308   1.633 -0.3567 -0.4537  0.1982
15762TIP3    H168777   5.069   6.235   1.687  0.8083 -1.8452 -0.9573
15762TIP3    H268778   5.182   6.278   1.594  0.5306  1.7422  0.2128
15763TIP3   OH268779   1.419   0.220   5.552  0.6290  1.2191 -0.0565
15763TIP3    H168780   1.404   0.213   5.458  0.5457  0.6515 -0.0027
15763TIP3    H268781   1.496   0.166   5.569 -1.7182 -2.2128  0.8034
15764TIP3   OH268782   6.174   1.590  12.556 -0.0052 -0.1794  0.3281
15764TIP3    H168783   6.099   1.648  12.568  0.4519  0.2683  1.1356
15764TIP3    H268784   6.206   1.611  12.468 -0.1848  0.4073  0.3954
15765TIP3   OH268785   0.473   3.495  12.807 -0.0399  0.0869  0.4305
15765TIP3    H168786   0.562   3.522  12.783 -0.0476  1.3641  1.6887
15765TIP3    H268787   0.484   3.447  12.889 -0.3639 -1.1974 -0.2507
15766TIP3   OH268788   3.791   5.927   0.258 -0.1118 -0.0214  0.5006
15766TIP3    H168789   3.847   5.996   0.224 -0.5998  0.2857  0.2967
15766TIP3    H268790   3.851   5.862   0.295  0.4987 -0.6551 -1.4569
15767TIP3   OH268791   5.717   0.003  15.677  0.0676 -0.0030 -0.1831
15767TIP3    H168792   5.671  -0.042  15.748 -1.9442 -0.9347 -1.9741
15767TIP3    H268793   5.776   0.063  15.721 -3.0704  1.5329  2.3374
15768TIP3   OH268794   5.690   4.216  12.625 -0.2263  0.2365 -0.2469
15768TIP3    H168795   5.725   4.133  12.594 -2.9082 -0.7949 -0.7588
15768TIP3    H268796   5.641   4.251  12.551 -0.5640  1.4396  0.5141
15769TIP3   OH268797   0.417   3.305  17.056 -0.9506  0.4527  0.3275
15769TIP3    H168798   0.494   3.258  17.087  0.0883  2.3215  0.7120
15769TIP3    H268799   0.352   3.237  17.039  0.4530 -1.0839  0.9290
15770TIP3   OH268800   1.825   1.625   1.248  0.2928 -0.1297 -0.4205
15770TIP3    H168801   1.757   1.559   1.252 -0.4168  0.6395  0.7856
15770TIP3    H268802   1.815   1.665   1.162 -0.4816 -0.3411 -0.4336
15771TIP3   OH268803   0.663   3.935  11.550 -0.2391  0.4520  0.5344
15771TIP3    H168804   0.677   3.874  11.623 -0.3335 -0.0446  0.1418
15771TIP3    H268805   0.740   3.991  11.552 -0.7336  1.1376  1.6727
15772TIP3   OH268806   0.970   6.506  16.980  0.4973  0.5983  0.3371
15772TIP3    H168807   1.041   6.502  17.044  0.3232 -1.2043  0.4659
15772TIP3    H268808   0.898   6.549  17.027  1.4721  2.5488  0.1649
15773TIP3   OH268809   6.070   3.509  13.390  0.1497  0.4080 -0.4996
15773TIP3    H168810   6.032   3.596  13.379 -0.7634 -0.0757 -1.3536
15773TIP3    H268811   6.152   3.524  13.437 -0.0559  1.7084 -0.5228
15774TIP3   OH268812   4.705   0.342  11.681  0.1134 -0.2296 -0.5046
15774TIP3    H168813   4.776   0.372  11.738 -0.1311 -1.3727  0.4359
15774TIP3    H268814   4.749   0.319  11.598  0.8745 -0.9900  0.0885
15775TIP3   OH268815   3.366   1.976   0.748  0.4208 -0.2256 -0.3302
15775TIP3    H168816   3.431   1.909   0.770 -0.0927 -0.9237 -0.9130
15775TIP3    H268817   3.403   2.021   0.672  1.9099  1.7897  1.4650
15776TIP3   OH268818   0.471   4.378  12.951 -0.3030  0.0775 -0.3401
15776TIP3    H168819   0.450   4.366  13.044  0.3596 -0.7680 -0.2835
15776TIP3    H268820   0.387   4.376  12.906 -0.4997 -2.2615 -0.0264
15777TIP3   OH268821   0.480   4.918  12.452 -0.3723  0.4374 -0.2968
15777TIP3    H168822   0.556   4.876  12.491  0.2307  1.6114 -0.1481
15777TIP3    H268823   0.405   4.870  12.488  0.1514  1.3483  2.2603
15778TIP3   OH268824   0.986   4.477  13.238 -0.2292 -0.1414  0.3326
15778TIP3    H168825   1.010   4.557  13.284 -0.0969 -0.4299  0.7712
15778TIP3    H268826   0.965   4.506  13.149  2.5513  0.0421 -0.3548
15779TIP3   OH268827   0.592   3.709   0.555  0.1820  0.1542  0.3885
15779TIP3    H168828   0.680   3.713   0.592 -0.2629  0.7984  1.4063
15779TIP3    H268829   0.582   3.618   0.527  1.4403  0.2459 -0.4501
15780TIP3   OH268830   2.983   1.983  14.526 -0.1202 -0.5407  0.1451
15780TIP3    H168831   3.072   1.959  14.499 -0.1544 -3.1408  1.8941
15780TIP3    H268832   2.940   2.012  14.446  2.4491  1.4503 -0.6452
15781TIP3   OH268833   5.872   1.399   3.106 -0.0824  0.0255  0.3912
15781TIP3    H168834   5.790   1.436   3.137 -0.9912 -1.4949 -0.1245
15781TIP3    H268835   5.860   1.305   3.111  1.8782 -0.2565  0.9173
15782TIP3   OH268836   3.487   6.814   5.624  0.2301 -0.1097 -0.3124
15782TIP3    H168837   3.452   6.726   5.607 -0.4086  0.0783  0.0183
15782TIP3    H268838   3.410   6.868   5.641  0.6259  0.5063 -0.4532
15783TIP3   OH268839   4.427   5.678  16.688 -0.0204 -0.8072  0.6923
15783TIP3    H168840   4.401   5.671  16.596 -1.0112 -0.6074  0.9429
15783TIP3    H268841   4.520   5.700  16.685 -0.1658 -0.2644 -0.2731
15784TIP3   OH268842   5.597   6.111  16.732  0.3940  0.2841 -0.0886
15784TIP3    H168843   5.538   6.074  16.798 -0.6040  0.9270 -0.5897
15784TIP3    H268844   5.648   6.176  16.780  0.4372 -0.0149  0.2778
15785TIP3   OH268845   5.152   1.068   5.288  0.1179 -0.7710 -0.3027
15785TIP3    H168846   5.132   1.081   5.380  0.5487 -2.3834  0.0555
15785TIP3    H268847   5.149   1.155   5.250 -1.5790 -0.2490  0.9203
15786TIP3   OH268848   3.634   3.027  11.669  0.5218 -0.0828 -0.4200
15786TIP3    H168849   3.641   2.959  11.736  0.1141  1.0115  0.7786
15786TIP3    H268850   3.589   2.985  11.596 -0.1582 -0.9562  0.4858
15787TIP3   OH268851   2.216   1.970  16.496  0.5902  0.5726 -0.0009
15787TIP3    H168852   2.266   1.931  16.424  0.8666  1.4558 -0.3059
15787TIP3    H268853   2.278   2.029  16.539  0.2952  0.3925  0.6880
15788TIP3   OH268854   6.669   5.640   0.446 -0.2624  0.1831  0.2666
15788TIP3    H168855   6.624   5.562   0.411  0.7589 -0.6008  0.6526
15788TIP3    H268856   6.688   5.693   0.368 -0.2349 -0.3496 -0.0999
15789TIP3   OH268857   3.151   1.317  11.297 -0.0906  0.2211  0.2886
15789TIP3    H168858   3.172   1.355  11.211 -0.3324  0.7055  0.4411
15789TIP3    H268859   3.166   1.388  11.359 -0.0505 -0.0896  0.6372
15790TIP3   OH268860   3.391   6.320   5.044  0.1196 -0.3167  0.6111
15790TIP3    H168861   3.472   6.328   5.094 -0.1804 -1.9985  1.4402
15790TIP3    H268862   3.337   6.260   5.095 -2.0274  1.4378  0.5384
15791TIP3   OH268863   3.076   1.003  16.372 -0.0057 -0.1965  0.0330
15791TIP3    H168864   3.152   0.969  16.325  0.5578  1.8273 -0.6314
15791TIP3    H268865   3.039   1.069  16.313 -0.6969  0.7144  1.4257
15792TIP3   OH268866   0.848   6.170  15.780  0.0872  0.0124 -0.1210
15792TIP3    H168867   0.924   6.116  15.801  0.8015  0.9659 -0.1315
15792TIP3    H268868   0.775   6.128  15.824  0.6445 -0.8625 -0.0105
15793TIP3   OH268869   6.743   6.711  11.217  0.0066 -0.5297  0.3235
15793TIP3    H168870   6.659   6.687  11.177  0.9205  0.1246 -2.1810
15793TIP3    H268871   6.775   6.783  11.164  1.9054 -0.3685  1.5869
15794TIP3   OH268872   4.085   0.056  14.636  0.9108 -0.4649 -0.4295
15794TIP3    H168873   4.005   0.070  14.687  0.5650 -4.3184  0.4078
15794TIP3    H268874   4.145   0.125  14.665 -1.2733  1.0655  0.7112
15795TIP3   OH268875   3.519   2.872  12.169  0.5262  0.2693  0.3033
15795TIP3    H168876   3.527   2.806  12.099 -1.4229  1.6037 -1.2731
15795TIP3    H268877   3.456   2.935  12.135 -1.4963  0.3670  3.7780
15796TIP3   OH268878   0.693   1.361   6.004 -0.2274  0.0492  0.2142
15796TIP3    H168879   0.681   1.268   6.022  0.4779 -0.0381  0.2791
15796TIP3    H268880   0.751   1.391   6.074  0.0786  0.3922 -0.1819
15797TIP3   OH268881   1.598   5.912  16.092  0.1930  0.1169 -0.3601
15797TIP3    H168882   1.594   5.975  16.021  1.6860  1.0282  0.3177
15797TIP3    H268883   1.513   5.920  16.136 -0.2602  0.4458 -1.2789
15798TIP3   OH268884   4.746   4.911  11.520 -0.1889 -0.0593  0.0052
15798TIP3    H168885   4.717   4.901  11.430  1.5954  2.8648 -1.0678
15798TIP3    H268886   4.841   4.899  11.516 -0.1040 -0.1334  1.5370
15799TIP3   OH268887   1.849   6.753  16.700 -0.1523 -0.2152  0.0312
15799TIP3    H168888   1.930   6.712  16.671 -0.3542 -1.0986  0.6937
15799TIP3    H268889   1.878   6.822  16.760  0.1578  0.2858 -0.6751
15800TIP3   OH268890   2.307   4.366  16.976  0.4169 -0.5776  0.1462
15800TIP3    H168891   2.237   4.379  16.913  2.2917 -1.0606 -2.1922
15800TIP3    H268892   2.300   4.441  17.035 -0.7756  0.5004 -1.2879
15801TIP3   OH268893   4.379   0.150  12.730 -0.1827 -0.0190 -0.1414
15801TIP3    H168894   4.303   0.102  12.763  1.2437 -1.1225  1.7154
15801TIP3    H268895   4.433   0.083  12.687 -0.2987  0.7820 -1.6054
15802TIP3   OH268896   1.981   3.744  13.108 -0.3803 -0.0203 -0.2983
15802TIP3    H168897   1.899   3.694  13.109  0.6986 -1.9504 -1.8899
15802TIP3    H268898   1.961   3.821  13.056 -0.9620 -0.9949 -1.5723
15803TIP3   OH268899   0.748   1.603  12.445 -0.4309 -0.8724  0.0596
15803TIP3    H168900   0.684   1.599  12.516  0.9355 -0.7798  1.3368
15803TIP3    H268901   0.774   1.512  12.431 -0.3610 -0.8411 -0.0161
15804TIP3   OH268902   2.307   5.437  11.859 -0.3319 -0.0882  0.4381
15804TIP3    H168903   2.399   5.456  11.842 -0.4636 -1.1702 -1.8063
15804TIP3    H268904   2.262   5.520  11.846  0.1569  0.1352  0.1736
15805TIP3   OH268905   6.327   2.132   5.189 -0.0458 -0.3528  0.0082
15805TIP3    H168906   6.329   2.144   5.284  0.3608  0.7238 -0.1289
15805TIP3    H268907   6.371   2.048   5.175  0.4124 -0.2411  0.7314
15806TIP3   OH268908   3.067   4.226   2.848  0.3219 -0.3202  0.4309
15806TIP3    H168909   3.010   4.245   2.922 -1.3945 -1.0333 -0.6404
15806TIP3    H268910   3.155   4.224   2.885 -0.3874  0.2872  2.2541
15807TIP3   OH268911   0.109   2.054  13.681  0.1505 -0.3557 -0.1462
15807TIP3    H168912   0.055   2.059  13.760  2.5006  0.6493  1.5209
15807TIP3    H268913   0.057   2.096  13.613 -1.3423  0.1254  1.2504
15808TIP3   OH268914   2.412   0.412  13.795  0.4335  0.4525  0.6201
15808TIP3    H168915   2.466   0.487  13.770  0.7748 -0.1577 -0.5176
15808TIP3    H268916   2.322   0.442  13.782  0.5850  0.3813 -0.7012
15809TIP3   OH268917   6.199   6.495   0.901 -0.6927 -0.2236  0.2075
15809TIP3    H168918   6.274   6.549   0.926 -0.0837 -0.9056 -0.1170
15809TIP3    H268919   6.125   6.537   0.944 -0.3419  1.2243 -0.5264
15810TIP3   OH268920   2.064   4.932  16.051  0.6212  0.3233 -0.6904
15810TIP3    H168921   2.021   4.848  16.036  0.5506  0.4289 -1.0783
15810TIP3    H268922   2.157   4.910  16.057  0.5597  0.1529 -0.2819
15811TIP3   OH268923   2.601   2.964   5.140 -0.1000  0.2058 -0.0747
15811TIP3    H168924   2.512   2.988   5.117 -0.2330 -1.1988 -1.1513
15811TIP3    H268925   2.593   2.913   5.221 -0.4092 -0.8239 -0.7389
15812TIP3   OH268926   1.824   0.112  16.486  0.2066 -0.5810 -0.6147
15812TIP3    H168927   1.863   0.148  16.566 -0.7609  0.4098 -0.5649
15812TIP3    H268928   1.740   0.077  16.514 -0.1933 -0.1129 -1.2065
15813TIP3   OH268929   4.013   6.026  16.287  0.7873  0.5797 -0.3646
15813TIP3    H168930   4.016   6.066  16.200 -1.5612  2.1814  0.1834
15813TIP3    H268931   4.039   5.935  16.274 -1.6466  0.1504 -3.1971
15814TIP3   OH268932   6.226   1.059   0.904  0.1674 -0.0023 -0.0824
15814TIP3    H168933   6.308   1.093   0.939 -0.3969  0.6922  0.6077
15814TIP3    H268934   6.236   0.964   0.907  1.1651  0.0793 -0.5621
15815TIP3   OH268935   2.747   2.993  15.035 -0.1923  0.1626 -0.4286
15815TIP3    H168936   2.689   2.936  15.086  0.5816 -0.1127  0.1689
15815TIP3    H268937   2.734   3.080  15.073  0.4624 -0.0590  0.3380
15816TIP3   OH268938   0.138   1.711   3.383  0.2774 -0.0776 -0.2996
15816TIP3    H168939   0.114   1.803   3.399  0.0639 -0.0356 -0.8462
15816TIP3    H268940   0.217   1.698   3.435 -1.8754 -0.7634  3.1200
15817TIP3   OH268941   0.516   1.329   1.928  0.3587 -0.0573 -0.4632
15817TIP3    H168942   0.514   1.329   2.024 -1.6464  0.7477 -0.4545
15817TIP3    H268943   0.427   1.303   1.903  1.2872 -1.8228 -2.1435
15818TIP3   OH268944   3.528   5.772   5.634  0.1003 -0.6607 -0.0505
15818TIP3    H168945   3.547   5.692   5.586  0.7377 -0.9150  0.6028
15818TIP3    H268946   3.433   5.769   5.649  0.3567 -2.4046  1.8223
15819TIP3   OH268947   6.573   1.305  13.272  0.0093  0.2410 -0.5980
15819TIP3    H168948   6.555   1.322  13.365 -0.1100  0.3322 -0.6380
15819TIP3    H268949   6.487   1.289  13.233  0.2012 -1.6759 -0.3261
15820TIP3   OH268950   6.066   2.310   1.087 -0.4517  0.1366  0.9868
15820TIP3    H168951   6.151   2.297   1.045 -0.3054 -0.3102  1.3987
15820TIP3    H268952   6.046   2.224   1.125 -1.4157  0.0504  0.3011
15821TIP3   OH268953   5.166   2.750  15.141  0.2147 -0.1190  0.4234
15821TIP3    H168954   5.127   2.837  15.141  0.1344 -0.1406 -0.5149
15821TIP3    H268955   5.105   2.696  15.090  0.5946 -0.5614  0.4231
15822TIP3   OH268956   0.181   6.062  11.410  0.4570 -0.1903  0.4527
15822TIP3    H168957   0.145   6.100  11.329 -2.3279 -0.6616  1.3654
15822TIP3    H268958   0.178   5.967  11.395  4.6602 -0.3504 -0.6884
15823TIP3   OH268959   0.539   3.770  11.012  0.0983  0.5014  0.7244
15823TIP3    H168960   0.465   3.830  10.999  0.1860  1.1103  2.6823
15823TIP3    H268961   0.540   3.715  10.934 -2.7132  0.1962  0.7957
15824TIP3   OH268962   4.800   2.033  16.431 -0.3997 -0.3936 -0.3736
15824TIP3    H168963   4.709   2.005  16.446 -0.3064 -0.8900 -0.6932
15824TIP3    H268964   4.835   2.048  16.518 -0.7866 -0.2163 -0.2450
15825TIP3   OH268965   2.153   2.827  10.872 -0.6139 -0.0422  0.2164
15825TIP3    H168966   2.135   2.909  10.826 -0.2275 -0.8236 -1.3920
15825TIP3    H268967   2.081   2.770  10.847  0.0723 -0.7618 -0.1476
15826TIP3   OH268968   5.528   5.010   5.230 -0.4587 -0.1242  0.5053
15826TIP3    H168969   5.452   5.036   5.282 -0.9639 -1.7297  0.6120
15826TIP3    H268970   5.493   4.993   5.143  0.0323  0.5033  0.1772
15827TIP3   OH268971   4.131   4.970  17.113 -0.7969  0.1656  0.0873
15827TIP3    H168972   4.075   4.909  17.067 -1.4704 -0.0704  1.1840
15827TIP3    H268973   4.215   4.925  17.120 -0.2700  0.7271 -2.0099
15828TIP3   OH268974   2.689   6.048   0.360  0.2297  0.1337  0.5671
15828TIP3    H168975   2.623   5.980   0.346 -0.2701  0.7054  0.1183
15828TIP3    H268976   2.765   6.000   0.394 -0.2693 -0.5856  0.7054
15829TIP3   OH268977   4.576   1.213  15.031  0.6861  1.1664 -0.3597
15829TIP3    H168978   4.657   1.181  14.993  0.0661 -1.0656  0.0401
15829TIP3    H268979   4.552   1.147  15.096 -1.6063  1.5868 -0.6850
15830TIP3   OH268980   0.560   4.338   4.283 -0.3951 -0.0024  0.4286
15830TIP3    H168981   0.491   4.317   4.220  0.0295  0.2478 -0.1310
15830TIP3    H268982   0.596   4.253   4.309 -0.1505 -0.0803 -0.1504
15831TIP3   OH268983   5.765   2.300   0.431 -0.2604  0.0515 -0.1988
15831TIP3    H168984   5.739   2.216   0.392 -1.9832  0.0098  0.9611
15831TIP3    H268985   5.702   2.363   0.398  1.2374  1.0123 -1.3464
15832TIP3   OH268986   0.419   5.175   1.104 -0.4086  0.0237 -0.5776
15832TIP3    H168987   0.341   5.128   1.133 -1.6980  1.2566 -1.8524
15832TIP3    H268988   0.405   5.265   1.132  1.2264  0.0311  0.3490
15833TIP3   OH268989   0.597   5.612  10.969  0.2885 -0.3727 -0.1884
15833TIP3    H168990   0.658   5.585  10.900  1.4019 -2.7632  1.5980
15833TIP3    H268991   0.550   5.531  10.992 -0.1852  0.4102  1.7180
15834TIP3   OH268992   6.155   1.218  14.535  0.8591  0.3735 -0.2982
15834TIP3    H168993   6.122   1.289  14.590 -0.6887 -1.5817  1.4644
15834TIP3    H268994   6.096   1.217  14.460  0.0290  0.1610  0.3307
15835TIP3   OH268995   5.167   6.392  13.381 -0.3057 -0.0809  0.2287
15835TIP3    H168996   5.164   6.340  13.301 -0.5538 -0.1927  0.3127
15835TIP3    H268997   5.232   6.461  13.362  0.4978 -0.7878  0.3423
15836TIP3   OH268998   5.353   4.638  15.541 -0.3699 -0.1919  0.1847
15836TIP3    H168999   5.424   4.574  15.552 -0.4572 -0.2131  0.6760
15836TIP3    H269000   5.316   4.647  15.629  0.9787  2.1226  0.5955
15837TIP3   OH269001   0.694   0.822   3.538 -0.2475  0.1598 -0.0251
15837TIP3    H169002   0.687   0.829   3.633 -0.5310  3.5031 -0.1670
15837TIP3    H269003   0.701   0.913   3.508  4.1129 -0.8363 -2.9189
15838TIP3   OH269004   2.935   0.338   3.547 -0.7928  0.2254 -0.0810
15838TIP3    H169005   3.009   0.387   3.513 -0.5944  0.9349  1.2864
15838TIP3    H269006   2.958   0.246   3.532 -1.2870  0.4922 -2.8935
15839TIP3   OH269007   4.679   1.563  15.280 -0.4687  0.0219  0.6545
15839TIP3    H169008   4.605   1.571  15.340 -0.5067  1.7120  0.4380
15839TIP3    H269009   4.689   1.651  15.244  0.6141 -0.5749 -0.5554
15840TIP3   OH269010   6.694   5.187   3.853  0.0982  0.1232 -0.1150
15840TIP3    H169011   6.609   5.230   3.866  0.1751 -0.0816  1.1465
15840TIP3    H269012   6.756   5.243   3.900  0.7169  0.3662 -1.1703
15841TIP3   OH269013   2.871   5.897  14.242  0.3710  0.5771 -0.7542
15841TIP3    H169014   2.884   5.979  14.194  0.2813  2.0749  1.6211
15841TIP3    H269015   2.898   5.917  14.332  0.5891 -2.0996 -0.1381
15842TIP3   OH269016   4.019   2.556   4.734 -0.2403  0.0802 -0.0186
15842TIP3    H169017   4.047   2.645   4.714 -1.2056  1.1271  2.8778
15842TIP3    H269018   3.929   2.551   4.700 -0.6518  0.6928  0.9319
15843TIP3   OH269019   3.304   5.117   4.779  0.1207  0.0935 -0.5050
15843TIP3    H169020   3.214   5.095   4.801  0.1029  0.4002 -0.2669
15843TIP3    H269021   3.357   5.054   4.828  0.0391 -0.0468 -0.5971
15844TIP3   OH269022   5.939   1.079  12.599 -0.4068 -0.3135  0.3272
15844TIP3    H169023   5.988   1.003  12.630 -1.0254 -0.6238  0.5652
15844TIP3    H269024   5.996   1.153  12.619  2.4497 -0.9226 -4.1364
15845TIP3   OH269025   2.641   6.607   0.656 -0.4424 -0.1004  0.3374
15845TIP3    H169026   2.724   6.638   0.619 -0.2150 -2.3621 -1.2550
15845TIP3    H269027   2.649   6.622   0.750  2.7802 -2.2433  0.5636
15846TIP3   OH269028   3.290   3.480   4.773  0.0863 -0.3074 -0.1201
15846TIP3    H169029   3.283   3.406   4.712  2.6879  0.5815 -1.6655
15846TIP3    H269030   3.354   3.451   4.838  1.3209  0.6202 -0.8826
15847TIP3   OH269031   3.097   5.235  12.692  0.0007 -0.1031  0.1301
15847TIP3    H169032   3.144   5.172  12.639 -0.1517  0.5010 -0.7364
15847TIP3    H269033   3.130   5.321  12.665 -0.9507  0.2820  0.1177
15848TIP3   OH269034   2.266   4.786   0.983 -0.1327 -0.4289 -0.1191
15848TIP3    H169035   2.282   4.880   0.988  0.2993 -0.5204  0.2155
15848TIP3    H269036   2.321   4.748   1.052  2.2924 -1.2582 -2.3624
15849TIP3   OH269037   5.514   5.515  12.499  0.1633 -0.2423 -0.3957
15849TIP3    H169038   5.470   5.545  12.420 -0.3615 -0.3021 -0.1337
15849TIP3    H269039   5.548   5.428  12.476 -1.0398 -0.7913 -0.1986
15850TIP3   OH269040   6.034   6.692   3.141 -0.3108  0.2154  0.7987
15850TIP3    H169041   6.078   6.776   3.134 -1.6858  0.9200  0.2340
15850TIP3    H269042   6.020   6.680   3.236 -0.3731  0.7753  0.8613
15851TIP3   OH269043   1.143   6.055  15.084  0.6068 -0.4261 -0.5150
15851TIP3    H169044   1.075   6.102  15.035  2.7310  2.0994 -1.2788
15851TIP3    H269045   1.138   6.093  15.172 -0.5090 -2.0303  0.1694
15852TIP3   OH269046   6.557   2.409   2.441  0.1032  0.1034 -0.4066
15852TIP3    H169047   6.523   2.386   2.354 -0.8177 -0.0201 -0.0333
15852TIP3    H269048   6.598   2.329   2.473  1.6449  0.5172 -1.2474
15853TIP3   OH269049   4.708   2.867   2.279 -0.4660 -0.8836  0.2055
15853TIP3    H169050   4.614   2.861   2.291 -0.3500  0.2068  2.0295
15853TIP3    H269051   4.742   2.889   2.366  1.2363  0.8903 -0.8253
15854TIP3   OH269052   1.147   4.087  14.349 -0.7241  0.1014 -0.3371
15854TIP3    H169053   1.146   3.992  14.354 -0.9799  0.1393  0.5742
15854TIP3    H269054   1.169   4.107  14.258  2.4120 -0.8159  0.1087
15855TIP3   OH269055   5.126   4.636   3.706  0.3495 -0.2926  0.3850
15855TIP3    H169056   5.209   4.657   3.748 -0.0080  2.2057 -0.0120
15855TIP3    H269057   5.151   4.591   3.626  1.3907  0.9837 -0.0478
15856TIP3   OH269058   2.180   6.258  12.791  0.4283 -0.3466 -0.0188
15856TIP3    H169059   2.268   6.222  12.779  0.1581 -0.5727 -1.5098
15856TIP3    H269060   2.168   6.316  12.716 -1.4011 -1.7931 -0.9061
15857TIP3   OH269061   0.629   2.346   4.605  0.5133  0.5596 -0.3519
15857TIP3    H169062   0.585   2.272   4.646  0.4618  1.7316  1.9413
15857TIP3    H269063   0.713   2.353   4.652  1.5303  0.5980 -2.0934
15858TIP3   OH269064   4.352   4.000   5.703  0.1286  0.4053  0.1421
15858TIP3    H169065   4.434   4.037   5.736 -0.9141 -0.1215  3.7306
15858TIP3    H269066   4.377   3.913   5.671  1.2184  0.9164 -0.4608
15859TIP3   OH269067   1.815   4.149  11.797  0.6149  0.2832 -0.0995
15859TIP3    H169068   1.815   4.245  11.801 -0.1904  0.2795  0.0191
15859TIP3    H269069   1.794   4.129  11.706 -1.3940  0.2141  0.3470
15860TIP3   OH269070   0.696   6.648   4.398 -0.7051 -0.6938  0.1359
15860TIP3    H169071   0.616   6.598   4.382 -0.1997 -1.1191 -1.1804
15860TIP3    H269072   0.763   6.603   4.346 -0.0664  0.9016 -0.4666
15861TIP3   OH269073   5.177   2.980  14.536 -0.1542  0.1973  0.3635
15861TIP3    H169074   5.255   2.961  14.589 -0.4249 -0.7292  0.4584
15861TIP3    H269075   5.109   2.924  14.574 -0.2246 -0.9304 -1.3058
15862TIP3   OH269076   4.672   5.938   2.653 -0.4912 -0.3893 -0.5081
15862TIP3    H169077   4.610   6.008   2.676 -0.0775 -0.0961 -0.2528
15862TIP3    H269078   4.707   5.909   2.738  0.1020 -0.1880 -0.6750
15863TIP3   OH269079   2.962   4.239  14.481  0.2143 -0.3780  0.3939
15863TIP3    H169080   3.043   4.289  14.494 -0.2035  0.8680 -1.4608
15863TIP3    H269081   2.990   4.148  14.480  1.5673  0.0240 -0.0172
15864TIP3   OH269082   6.216   5.316  15.350  0.1468  0.6279  0.2501
15864TIP3    H169083   6.129   5.356  15.354 -0.3019 -0.1909 -0.8154
15864TIP3    H269084   6.238   5.316  15.256  1.0098  0.2196  0.4399
15865TIP3   OH269085   3.681   6.630  12.097 -0.3348  0.8639 -0.5670
15865TIP3    H169086   3.700   6.539  12.121 -2.7327  0.0466 -1.4050
15865TIP3    H269087   3.661   6.673  12.181 -1.0796  0.0913 -0.3351
15866TIP3   OH269088   0.348   1.446  13.785  0.3885 -0.4602 -0.1232
15866TIP3    H169089   0.351   1.540  13.769  1.5085 -0.5557 -0.5738
15866TIP3    H269090   0.262   1.431  13.822 -0.1526  0.6102 -0.8846
15867TIP3   OH269091   2.903   4.587  11.249 -0.0213 -0.8955 -0.1553
15867TIP3    H169092   2.903   4.626  11.162 -0.7886 -0.1899  0.1432
15867TIP3    H269093   2.857   4.504  11.239 -0.9449 -0.3870 -0.2587
15868TIP3   OH269094   2.249   0.961   4.465 -0.0153  0.1000 -0.0966
15868TIP3    H169095   2.257   0.910   4.545  0.3792  0.9722  0.4267
15868TIP3    H269096   2.187   1.031   4.487  0.0603  0.3198 -0.5637
15869TIP3   OH269097   6.733   4.547   5.514  0.4622  0.3414  0.0501
15869TIP3    H169098   6.665   4.585   5.459 -0.7218 -0.0260  1.2006
15869TIP3    H269099   6.732   4.454   5.492  1.2374  0.4648 -0.5662
15870TIP3   OH269100   4.516   2.810   0.850 -0.3148  0.6300 -1.1950
15870TIP3    H169101   4.571   2.861   0.790  0.9699  0.4447 -0.2203
15870TIP3    H269102   4.449   2.871   0.879  0.5230  1.4440 -0.9312
15871TIP3   OH269103   3.394   1.779   1.616  0.4078  0.2246 -0.3645
15871TIP3    H169104   3.319   1.719   1.618  0.2866  0.3867 -0.1163
15871TIP3    H269105   3.465   1.726   1.579  0.4883 -0.2845  0.4925
15872TIP3   OH269106   5.263   6.492  14.489  0.0933  0.1814  0.8443
15872TIP3    H169107   5.349   6.490  14.532  0.1630  0.6501  0.7412
15872TIP3    H269108   5.261   6.413  14.436  0.3999  0.0858  0.9684
15873TIP3   OH269109   3.024   5.118  16.385  0.3192 -0.0240  0.0419
15873TIP3    H169110   3.080   5.074  16.321  0.2332  3.7741 -3.0285
15873TIP3    H269111   3.081   5.184  16.424 -0.7671  0.5839  0.6356
15874TIP3   OH269112   5.523   0.611  14.853  0.4828  0.2942  0.1715
15874TIP3    H169113   5.599   0.642  14.902  1.4098 -1.5138 -0.0552
15874TIP3    H269114   5.510   0.521  14.883  0.4799 -0.5427 -2.1696
15875TIP3   OH269115   3.587   5.849  11.413 -0.0681  0.1908 -0.3921
15875TIP3    H169116   3.572   5.943  11.404  0.8454  0.4929  0.8437
15875TIP3    H269117   3.519   5.820  11.474  0.4989  0.3389  0.3228
15876TIP3   OH269118   4.010   0.889  15.067 -0.1588 -0.0683 -0.5525
15876TIP3    H169119   4.026   0.948  14.994 -1.3397  0.2720 -0.5670
15876TIP3    H269120   4.031   0.802  15.034 -0.8168  0.0695 -1.3440
15877TIP3   OH269121   1.656   4.022   2.753  0.3685  0.2836  0.1631
15877TIP3    H169122   1.744   4.053   2.773  0.4587 -1.0110  2.0034
15877TIP3    H269123   1.666   3.970   2.674  1.1070  0.8012 -0.0911
15878TIP3   OH269124   5.341   1.866   0.353 -0.3678  0.6369  0.5035
15878TIP3    H169125   5.377   1.779   0.370 -0.0419  0.8293  0.7973
15878TIP3    H269126   5.286   1.854   0.275  1.7833  0.7032 -1.1103
15879TIP3   OH269127   2.568   4.641  15.490  0.7739  0.0290  0.1024
15879TIP3    H169128   2.634   4.677  15.430 -0.8489 -0.2612 -1.9550
15879TIP3    H269129   2.485   4.678  15.459 -0.2533 -1.0488  1.4667
15880TIP3   OH269130   2.288   6.358   1.985 -0.2999  0.1026 -0.9117
15880TIP3    H169131   2.326   6.439   1.953  0.2565 -0.7216 -2.4192
15880TIP3    H269132   2.354   6.323   2.045  0.1025  0.0668 -1.3673
15881TIP3   OH269133   6.258   5.541  12.808  0.0190  0.5314  0.0493
15881TIP3    H169134   6.230   5.524  12.897 -1.3416  0.7773 -0.3181
15881TIP3    H269135   6.354   5.548  12.814 -0.1524  2.0406  1.7411
15882TIP3   OH269136   5.028   3.177  15.570 -0.2425 -0.0394 -0.4044
15882TIP3    H169137   5.058   3.242  15.506 -0.1220  2.8197  2.3357
15882TIP3    H269138   5.109   3.139  15.606 -0.2782 -0.5644 -0.8582
15883TIP3   OH269139   1.872   0.681   5.350  0.1684 -0.0711  0.2075
15883TIP3    H169140   1.794   0.652   5.398  0.6992 -0.2383  0.9755
15883TIP3    H269141   1.876   0.776   5.367  1.7172 -0.4750  2.5707
15884TIP3   OH269142   2.335   4.673   3.630  0.6174 -0.0993 -0.3277
15884TIP3    H169143   2.279   4.701   3.558 -1.5375  1.6279  1.8463
15884TIP3    H269144   2.276   4.626   3.689  2.1449 -0.8162  0.6875
15885TIP3   OH269145   6.142   0.773   2.385 -0.2505  0.1390 -0.7208
15885TIP3    H169146   6.200   0.749   2.313  2.2363 -0.7888  1.4226
15885TIP3    H269147   6.146   0.868   2.388  1.7742  0.0940 -0.2583
15886TIP3   OH269148   4.276   3.186  13.189  0.8061 -0.0064  0.3319
15886TIP3    H169149   4.199   3.158  13.139  0.6423  0.1177  0.5167
15886TIP3    H269150   4.309   3.106  13.229  1.4582 -0.2713 -0.6846
15887TIP3   OH269151   3.535   1.486  14.561 -0.8209 -0.0727  0.4572
15887TIP3    H169152   3.539   1.488  14.657  0.7974  1.1725  0.4120
15887TIP3    H269153   3.619   1.522  14.533 -0.9919 -1.0270 -1.4535
15888TIP3   OH269154   4.511   4.421  10.516  0.1884 -0.0694  0.1486
15888TIP3    H169155   4.551   4.440  10.601  0.1358  2.5094 -0.3249
15888TIP3    H269156   4.428   4.470  10.517  0.1703 -0.0215 -1.3438
15889TIP3   OH269157   0.538   4.600  11.360  0.5097  0.0913  0.0007
15889TIP3    H169158   0.631   4.581  11.376  0.7182 -0.8944 -2.0559
15889TIP3    H269159   0.515   4.544  11.286 -1.7675  0.2890  0.5087
15890TIP3   OH269160   5.301   6.702   2.995  0.0997 -0.1430  0.1898
15890TIP3    H169161   5.331   6.611   2.987 -1.0384 -0.4588 -0.8275
15890TIP3    H269162   5.284   6.714   3.088  2.2194 -0.2975  0.6440
15891TIP3   OH269163   1.135   2.013  16.408  0.4040  1.0214 -0.0797
15891TIP3    H169164   1.216   1.963  16.413  0.9956  1.8306 -0.9977
15891TIP3    H269165   1.144   2.081  16.475  0.5005  1.1181 -0.1888
15892TIP3   OH269166   0.854   5.572  16.758 -0.1329  0.3751 -0.3488
15892TIP3    H169167   0.929   5.514  16.772  0.0373  0.3215 -1.4069
15892TIP3    H269168   0.879   5.654  16.800 -0.0590 -0.0635  0.4971
15893TIP3   OH269169   5.788   3.698   3.791 -0.3472  0.6313 -0.6328
15893TIP3    H169170   5.749   3.663   3.871 -1.4774 -0.0183 -1.4522
15893TIP3    H269171   5.770   3.633   3.724  1.9285  0.4291 -1.1375
15894TIP3   OH269172   4.313   4.116   0.272  0.3132  0.2028  0.0038
15894TIP3    H169173   4.350   4.195   0.232  0.1627 -0.3847 -1.3642
15894TIP3    H269174   4.388   4.071   0.311  0.9271 -0.4631 -1.8467
15895TIP3   OH269175   5.576   0.935  16.222 -0.0785  0.3348 -0.3646
15895TIP3    H169176   5.497   0.902  16.265 -0.0415  0.6594 -0.0537
15895TIP3    H269177   5.647   0.913  16.282  0.0759  0.0015 -0.6653
15896TIP3   OH269178   0.285   5.944   5.105 -0.3256 -0.2919 -0.1424
15896TIP3    H169179   0.217   5.944   5.037  0.5594 -1.7174 -1.0828
15896TIP3    H269180   0.236   5.933   5.187 -1.3417  0.4835 -0.6137
15897TIP3   OH269181   3.788   2.124  15.404  0.1829 -0.3001 -0.0960
15897TIP3    H169182   3.759   2.083  15.485  0.0126 -1.2021 -0.5911
15897TIP3    H269183   3.806   2.215  15.427 -0.6650 -0.3363  0.7670
15898TIP3   OH269184   4.440   0.334  14.986 -0.1575 -0.2768 -0.0645
15898TIP3    H169185   4.350   0.305  15.003  0.2344 -3.0289 -2.0121
15898TIP3    H269186   4.457   0.401  15.053 -3.4392 -0.0296  0.6872
15899TIP3   OH269187   3.238   4.977  14.118  0.0185  0.3967  0.0810
15899TIP3    H169188   3.300   4.911  14.147 -0.3197 -0.8339 -1.8528
15899TIP3    H269189   3.215   4.952  14.029  0.1312  3.3019 -0.8828
15900TIP3   OH269190   6.592   3.461   3.599 -0.0272  1.2655  0.5121
15900TIP3    H169191   6.498   3.469   3.616 -0.0658 -0.0894  1.0261
15900TIP3    H269192   6.598   3.399   3.526  0.4791  1.0999  0.6893
15901TIP3   OH269193   4.941   5.138  13.730 -0.0634 -0.0785  0.2551
15901TIP3    H169194   4.890   5.192  13.790 -1.0358  0.7931 -1.2976
15901TIP3    H269195   5.000   5.200  13.687  1.4234 -0.8712  1.0736
15902TIP3   OH269196   4.651   4.847   1.949 -0.4950 -0.4589 -0.1294
15902TIP3    H169197   4.648   4.928   1.898 -1.2237 -0.4079 -0.0131
15902TIP3    H269198   4.744   4.823   1.950  0.0713  1.5186  1.6485
15903TIP3   OH269199   6.488   0.395   1.518  0.0829  0.1111  0.1986
15903TIP3    H169200   6.512   0.479   1.556 -1.3875  0.1112  1.1906
15903TIP3    H269201   6.447   0.347   1.589 -1.3454 -0.4811 -0.9721
15904TIP3   OH269202   2.971   0.815   5.075  0.6176  0.5570 -0.6843
15904TIP3    H169203   3.063   0.798   5.055  0.8363  0.4396  0.3623
15904TIP3    H269204   2.923   0.772   5.005  1.3394 -0.0347 -0.8325
15905TIP3   OH269205   5.492   1.994  13.310  0.1812 -0.1924  0.3904
15905TIP3    H169206   5.456   2.072  13.267 -1.2065 -0.9316  0.1496
15905TIP3    H269207   5.512   2.023  13.399  2.0403  1.0688 -0.3629
15906TIP3   OH269208   0.134   3.518   2.569  0.5270  0.7226  0.9748
15906TIP3    H169209   0.068   3.518   2.500  1.7801 -3.0040 -0.4890
15906TIP3    H269210   0.205   3.572   2.534 -0.6365  2.6291  1.4429
15907TIP3   OH269211   0.521   5.897   0.449 -0.7218  0.0730  0.4159
15907TIP3    H169212   0.602   5.846   0.447 -1.3654 -0.9585 -2.2700
15907TIP3    H269213   0.471   5.858   0.521  0.8380  0.3223  1.7147
15908TIP3   OH269214   3.265   1.471   3.685 -0.2015 -0.0075 -0.3247
15908TIP3    H169215   3.196   1.405   3.685 -0.7622  0.5663 -0.1682
15908TIP3    H269216   3.334   1.434   3.630 -1.3428  0.1222 -1.9240
15909TIP3   OH269217   6.751   1.190   5.203  0.7217 -0.2276  0.2393
15909TIP3    H169218   6.797   1.229   5.128  2.7591  0.3533  1.7043
15909TIP3    H269219   6.732   1.264   5.260 -0.9080 -0.6499  0.2786
15910TIP3   OH269220   4.166   1.065  17.138 -0.5890  0.3355 -0.3894
15910TIP3    H169221   4.144   1.015  17.059 -0.2122 -1.0691  0.3659
15910TIP3    H269222   4.141   1.008  17.211  1.2046  0.5945  0.4992
15911TIP3   OH269223   6.056   2.593   1.372 -0.5848 -0.3439  0.4432
15911TIP3    H169224   6.130   2.593   1.433 -0.7062  2.4343  0.6954
15911TIP3    H269225   6.097   2.584   1.285 -0.0959 -0.3826  0.6768
15912TIP3   OH269226   1.580   0.212  15.862 -0.0225  1.3222 -0.0891
15912TIP3    H169227   1.505   0.152  15.860 -0.4301  1.8387 -1.1364
15912TIP3    H269228   1.655   0.155  15.880 -0.1763  0.1934 -2.5917
15913TIP3   OH269229   0.639   1.889   0.937  0.1871  0.0219 -0.3033
15913TIP3    H169230   0.658   1.834   0.861 -1.9391 -0.4922 -0.5287
15913TIP3    H269231   0.702   1.861   1.003  0.0619 -1.7479 -0.8756
15914TIP3   OH269232   1.669   3.115   3.396  0.0913 -0.9674 -0.6176
15914TIP3    H169233   1.626   3.073   3.322 -1.5561  0.5538 -0.6019
15914TIP3    H269234   1.716   3.189   3.358  0.4303 -1.0208 -0.3079
15915TIP3   OH269235   3.386   3.069  12.027  0.1459  0.2070  0.0462
15915TIP3    H169236   3.380   3.105  11.938 -3.2624 -0.1809 -0.0026
15915TIP3    H269237   3.320   3.116  12.077 -1.5936 -2.9424  1.0330
15916TIP3   OH269238   0.655   0.251   2.342 -0.3305 -0.5324  0.2353
15916TIP3    H169239   0.692   0.340   2.344 -0.5000 -0.3955 -1.5600
15916TIP3    H269240   0.586   0.253   2.409 -1.2999  1.1461 -0.7378
15917TIP3   OH269241   2.348   4.947   6.877 -0.0837  0.1846  0.3533
15917TIP3    H169242   2.327   4.999   6.799 -0.3277 -0.3571  0.0587
15917TIP3    H269243   2.434   4.909   6.859 -0.7793 -1.1403 -0.2883
15918TIP3   OH269244   4.470   4.917  12.817  0.3995  0.0509 -0.3264
15918TIP3    H169245   4.519   4.964  12.885  0.5723 -0.1802 -0.2893
15918TIP3    H269246   4.499   4.826  12.825 -0.4172 -0.1890  0.0376
15919TIP3   OH269247   4.812   3.331  12.462  0.0525 -0.5604 -0.3572
15919TIP3    H169248   4.801   3.272  12.388 -0.9458 -1.7748  0.7213
15919TIP3    H269249   4.784   3.416  12.430 -2.6715 -1.5191 -0.7534
15920TIP3   OH269250   2.289   4.285   5.909 -0.6790 -0.2224 -0.1858
15920TIP3    H169251   2.294   4.201   5.953 -1.1635 -0.4332 -0.5278
15920TIP3    H269252   2.240   4.341   5.969  0.0426 -0.0433  0.2494
15921TIP3   OH269253   2.026   2.352  13.314 -0.6509 -0.0982  0.3646
15921TIP3    H169254   2.050   2.265  13.281  0.4551  0.6070 -0.7670
15921TIP3    H269255   1.931   2.355  13.305 -0.5712 -0.6508 -0.9994
15922TIP3   OH269256   2.651   2.648  13.483  0.3269 -0.0211 -0.3746
15922TIP3    H169257   2.560   2.676  13.498  0.1274  0.2644 -1.9406
15922TIP3    H269258   2.684   2.626  13.570 -0.2800  2.7709  0.6463
15923TIP3   OH269259   2.881   0.315   0.811  0.7085 -0.7139  0.4090
15923TIP3    H169260   2.839   0.353   0.888  1.1025  0.1263  0.2315
15923TIP3    H269261   2.905   0.226   0.837 -0.3665 -0.9027  0.7999
15924TIP3   OH269262   5.206   3.824   6.488  0.4677 -0.3850 -0.3278
15924TIP3    H169263   5.251   3.883   6.549  2.3586 -1.9930 -0.0700
15924TIP3    H269264   5.267   3.815   6.415 -0.6206 -0.5779 -1.2384
15925TIP3   OH269265   0.231   4.473   1.770 -0.1736  0.3447 -0.5969
15925TIP3    H169266   0.139   4.491   1.786  0.0567  1.0033  0.0728
15925TIP3    H269267   0.233   4.423   1.688 -0.8338  3.5217 -2.7084
15926TIP3   OH269268   1.271   5.233  16.695 -0.3126  0.1902  0.1845
15926TIP3    H169269   1.254   5.141  16.678  0.4526  0.2601 -1.1980
15926TIP3    H269270   1.300   5.268  16.610  1.1847  1.2714  1.0851
15927TIP3   OH269271   2.879   0.785  16.247 -0.5679 -0.3917 -0.4153
15927TIP3    H169272   2.875   0.750  16.158 -0.9327 -0.3724 -0.4075
15927TIP3    H269273   2.966   0.823  16.254 -0.2566 -1.0695 -0.5114
15928TIP3   OH269274   6.658   6.781  16.783 -0.2695 -0.4775 -0.6575
15928TIP3    H169275   6.581   6.748  16.829 -1.1773  3.6910  1.3260
15928TIP3    H269276   6.722   6.799  16.852  0.3025  1.2883 -1.5775
15929TIP3   OH269277   1.213   0.340  14.679 -0.3300 -0.2227  0.4616
15929TIP3    H169278   1.153   0.351  14.752 -1.8147  0.5327 -0.8183
15929TIP3    H269279   1.212   0.247  14.660 -1.7136 -0.1403  0.0028
15930TIP3   OH269280   2.019   3.063   5.507 -0.2006  0.3867 -0.3658
15930TIP3    H169281   1.961   3.057   5.583  0.1991  0.0599 -0.0772
15930TIP3    H269282   2.099   3.102   5.542  1.0479 -2.3289  0.0368
15931TIP3   OH269283   2.348   5.137   4.965  0.0551  0.2485  0.3279
15931TIP3    H169284   2.373   5.214   4.914 -1.8568  0.7856  0.1210
15931TIP3    H269285   2.383   5.154   5.053 -1.0646  1.7969  0.5159
15932TIP3   OH269286   1.713   1.019   1.885 -0.3539 -0.4868  0.1273
15932TIP3    H169287   1.673   0.934   1.870 -0.5150 -0.7934  2.1133
15932TIP3    H269288   1.775   1.005   1.956  1.8278  0.4350 -1.4646
15933TIP3   OH269289   0.015   5.707  11.758  0.4323 -0.1264  0.4099
15933TIP3    H169290   0.025   5.800  11.737  0.0984 -0.3267 -0.7526
15933TIP3    H269291  -0.067   5.702  11.808  2.1890  0.6030  3.6394
15934TIP3   OH269292   1.863   6.642   4.790 -0.2055 -0.5990  0.0837
15934TIP3    H169293   1.808   6.677   4.720  0.8434  0.0510 -0.4307
15934TIP3    H269294   1.809   6.574   4.831 -1.4335  0.0925 -0.3297
15935TIP3   OH269295   5.905   1.736  14.247  0.8268 -0.1266 -0.0590
15935TIP3    H169296   5.935   1.797  14.179  1.4832  0.0844  0.4147
15935TIP3    H269297   5.950   1.654  14.227 -0.0182 -0.4630 -0.6655
15936TIP3   OH269298   0.005   1.371  13.277  0.0103  0.1458 -0.0180
15936TIP3    H169299  -0.089   1.360  13.293 -0.2360 -1.4734 -2.1013
15936TIP3    H269300   0.038   1.282  13.269  1.6570  0.7055  0.2735
15937TIP3   OH269301   0.426   6.083   0.992  0.0497 -0.6567 -0.4054
15937TIP3    H169302   0.407   5.989   0.986 -1.9318 -0.1971 -3.0114
15937TIP3    H269303   0.355   6.125   0.943  0.5010  2.2899  1.2252
15938TIP3   OH269304   5.646   4.894  10.412 -0.5577  0.1196 -0.5276
15938TIP3    H169305   5.733   4.934  10.406 -0.5769  0.0377 -1.7008
15938TIP3    H269306   5.606   4.911  10.326 -1.9103  0.6108  0.1771
15939TIP3   OH269307   2.806   5.884  16.092 -0.0790 -0.2738  0.0663
15939TIP3    H169308   2.807   5.957  16.029  2.1022 -0.0689  0.2751
15939TIP3    H269309   2.733   5.905  16.151 -0.6783  0.7581 -0.9911
15940TIP3   OH269310   4.130   1.259   1.358  0.1086 -0.0322 -0.0264
15940TIP3    H169311   4.212   1.280   1.313  0.8952 -1.5103  0.6499
15940TIP3    H269312   4.115   1.166   1.338 -1.1146  0.0675  0.3296
15941TIP3   OH269313   3.594   3.838  12.309 -0.5547  0.3853 -0.2873
15941TIP3    H169314   3.618   3.923  12.272 -0.7187  0.5507 -0.0187
15941TIP3    H269315   3.501   3.830  12.292 -0.8548  0.9177  0.9534
15942TIP3   OH269316   0.685   0.331  11.870 -0.0290  0.5092  0.4197
15942TIP3    H169317   0.691   0.249  11.919  0.5549 -0.8965 -1.8588
15942TIP3    H269318   0.605   0.372  11.903  0.3341 -0.3190  2.5149
15943TIP3   OH269319   0.660   1.110  15.351 -0.3837  0.0968  0.1972
15943TIP3    H169320   0.745   1.115  15.394 -0.7613  2.0084  0.8273
15943TIP3    H269321   0.600   1.083  15.419 -0.1243 -3.0123 -0.6299
15944TIP3   OH269322   6.316   2.099  14.035 -0.5679 -0.0243 -0.5431
15944TIP3    H169323   6.232   2.111  14.080 -1.0039  0.8329 -1.5472
15944TIP3    H269324   6.346   2.188  14.015  1.2484 -0.2341  0.9411
15945TIP3   OH269325   1.053   6.487   3.048  0.1923 -0.0060 -0.0264
15945TIP3    H169326   1.016   6.424   2.986 -1.0140  0.0298  0.6276
15945TIP3    H269327   1.144   6.458   3.060  0.3582 -0.1852 -1.5636
15946TIP3   OH269328   5.855   3.710  10.462  0.4608  0.0931  0.6847
15946TIP3    H169329   5.785   3.748  10.516 -0.4804 -0.3821 -0.1640
15946TIP3    H269330   5.837   3.616  10.461 -1.4269  0.2951 -2.8671
15947TIP3   OH269331   3.363   0.019   5.156 -0.0352  0.0145 -0.1914
15947TIP3    H169332   3.390   0.032   5.065 -2.5520  0.8655 -0.9042
15947TIP3    H269333   3.353   0.108   5.191 -0.6920 -0.2660  0.3706
15948TIP3   OH269334   1.984   6.115  14.110  0.1543 -0.2953 -0.6851
15948TIP3    H169335   1.972   6.096  14.204  0.0982  0.7757 -0.4657
15948TIP3    H269336   1.919   6.060  14.067 -1.1474  0.6101  0.0519
15949TIP3   OH269337   0.921   2.853   2.566  0.6039 -0.0254  0.1595
15949TIP3    H169338   0.826   2.842   2.559  0.7070 -0.0408 -1.6911
15949TIP3    H269339   0.934   2.947   2.575  0.4505  0.0825 -0.6830
15950TIP3   OH269340   1.388   2.488   4.072  0.1701 -0.3290 -0.6207
15950TIP3    H169341   1.477   2.521   4.083 -0.4027  1.6073 -1.4175
15950TIP3    H269342   1.378   2.478   3.977 -0.9873  1.1652 -0.6951
15951TIP3   OH269343   1.570   6.093  13.469 -0.4632  0.3980 -0.2299
15951TIP3    H169344   1.626   6.140  13.408  1.1190 -0.2724  0.6537
15951TIP3    H269345   1.578   6.140  13.552  1.2545 -1.3838  0.7104
15952TIP3   OH269346   4.591   6.828   0.077  0.3648 -0.6219 -0.5233
15952TIP3    H169347   4.605   6.796   0.166  2.2455  0.0407 -0.5348
15952TIP3    H269348   4.496   6.833   0.068  0.1348 -0.3545  1.5699
15953TIP3   OH269349   1.020   2.079  11.267  0.2434 -0.3475  0.0880
15953TIP3    H169350   1.034   2.024  11.345 -2.2094 -2.5751 -0.8705
15953TIP3    H269351   0.931   2.112  11.277 -0.0222 -0.4701 -1.6059
15954TIP3   OH269352   4.624   0.554  16.516  0.6865  0.1863  0.4834
15954TIP3    H169353   4.685   0.627  16.525  2.2623 -0.8212 -1.3029
15954TIP3    H269354   4.671   0.489  16.464 -0.9900 -1.7526  1.2425
15955TIP3   OH269355   1.719   5.320  10.827  0.6810  0.3762  0.1965
15955TIP3    H169356   1.732   5.229  10.854 -1.7919  0.2802  1.2878
15955TIP3    H269357   1.697   5.315  10.734 -0.8869 -0.3194  0.5768
15956TIP3   OH269358   1.964   6.704   2.912  0.0789 -0.2997 -0.8919
15956TIP3    H169359   1.874   6.736   2.908  0.2247  0.2343  0.0405
15956TIP3    H269360   2.018   6.781   2.897  0.3898 -0.5561 -1.1044
15957TIP3   OH269361   4.583   2.911  10.337 -0.5006  0.0081  0.3028
15957TIP3    H169362   4.587   2.895  10.431  0.2445 -0.5754  0.1824
15957TIP3    H269363   4.499   2.872  10.310  0.4587 -2.2309  0.3224
15958TIP3   OH269364   5.348   6.760  15.475  0.5835  0.1133 -0.6119
15958TIP3    H169365   5.308   6.741  15.390  1.1499 -1.2981 -0.5828
15958TIP3    H269366   5.431   6.712  15.474  2.6274  3.3013 -0.8678
15959TIP3   OH269367   3.198   0.285   1.975  0.0910 -0.0808  0.1935
15959TIP3    H169368   3.289   0.312   1.962  0.7237 -1.4020  1.5712
15959TIP3    H269369   3.150   0.327   1.903  2.1137 -1.1268 -1.8995
15960TIP3   OH269370   1.746   4.693  17.127 -0.2042  0.0089 -0.0662
15960TIP3    H169371   1.828   4.654  17.157 -0.9816 -0.6620  1.2623
15960TIP3    H269372   1.689   4.618  17.108 -1.9720  0.3201  3.2229
15961TIP3   OH269373   2.385   2.741   0.563 -0.0074  0.2420  0.8819
15961TIP3    H169374   2.478   2.764   0.555  0.0890 -0.0225  1.2329
15961TIP3    H269375   2.379   2.653   0.527 -0.1065  0.2253  0.9395
15962TIP3   OH269376   1.095   6.010  16.045  0.0876 -0.0821 -0.0456
15962TIP3    H169377   1.087   6.007  16.140  2.5053 -0.5959  0.2008
15962TIP3    H269378   1.016   5.965  16.013 -1.3675  1.1313  1.6224
15963TIP3   OH269379   6.474   1.342  15.277  0.1315  0.2625 -0.3337
15963TIP3    H169380   6.428   1.425  15.283  0.3666  0.3429  0.3131
15963TIP3    H269381   6.432   1.286  15.342 -0.7109 -0.4647 -1.4439
15964TIP3   OH269382   5.248   4.449   2.156  0.2635  0.3550  0.1193
15964TIP3    H169383   5.217   4.364   2.187  1.7755 -0.0762  0.5504
15964TIP3    H269384   5.244   4.443   2.061  1.3140 -0.6263  0.1005
15965TIP3   OH269385   1.399   5.666  11.556 -0.4519  0.7008 -0.0246
15965TIP3    H169386   1.478   5.712  11.584 -0.6971  1.1766 -0.1161
15965TIP3    H269387   1.332   5.734  11.550 -0.9163  0.2726  0.2227
15966TIP3   OH269388   3.152   1.657  10.967  0.1175 -0.0097  0.3081
15966TIP3    H169389   3.231   1.710  10.956 -0.4327  0.7327 -0.2369
15966TIP3    H269390   3.180   1.582  11.019  1.4228 -0.3323 -0.8147
15967TIP3   OH269391   2.701   1.486  11.930  0.2305 -0.0929 -0.0930
15967TIP3    H169392   2.762   1.501  11.858  0.0326 -0.4499 -0.3362
15967TIP3    H269393   2.743   1.525  12.006  1.4683 -1.6778  0.0791
15968TIP3   OH269394   5.741   1.133  16.907 -0.0220  0.4858  0.5270
15968TIP3    H169395   5.786   1.075  16.969  1.6262  0.7815 -0.3299
15968TIP3    H269396   5.800   1.139  16.832 -0.7331  2.2539  0.0505
15969TIP3   OH269397   5.538   5.595   3.668  0.0560 -0.2782 -0.1067
15969TIP3    H169398   5.603   5.591   3.598  0.9367  1.0062  0.5952
15969TIP3    H269399   5.582   5.556   3.743 -0.2458 -0.0582  0.1849
15970TIP3   OH269400   4.941   2.338   2.425 -0.0694 -0.0083  0.1604
15970TIP3    H169401   5.014   2.379   2.378 -0.1254 -0.4407 -0.3106
15970TIP3    H269402   4.866   2.396   2.408 -0.2077 -0.4260 -0.7143
15971TIP3   OH269403   5.694   5.424  14.046 -0.4664 -0.0896  0.1683
15971TIP3    H169404   5.770   5.476  14.072 -0.3511  0.4987 -1.2176
15971TIP3    H269405   5.694   5.350  14.106  1.0881 -0.0052  0.3303
15972TIP3   OH269406   3.876   6.524  11.035  0.0766 -0.2837 -0.3825
15972TIP3    H169407   3.921   6.457  11.086 -1.0621 -0.8759 -0.1263
15972TIP3    H269408   3.891   6.605  11.084  0.1650 -0.6145  0.1419
15973TIP3   OH269409   3.169   5.592   5.948  0.3313 -0.4920  0.3709
15973TIP3    H169410   3.118   5.672   5.961  0.6480 -0.4988  1.8666
15973TIP3    H269411   3.257   5.614   5.979  0.8372 -0.9494 -0.6982
15974TIP3   OH269412   4.836   0.132   1.393 -0.0211  0.2227  0.1987
15974TIP3    H169413   4.896   0.150   1.321  0.6220  1.2883  0.9661
15974TIP3    H269414   4.829   0.215   1.440 -3.0500  0.4821 -0.5377
15975TIP3   OH269415   0.022   1.123  16.182 -0.1150 -0.6024  0.4609
15975TIP3    H169416   0.016   1.175  16.262 -0.2079  1.9510 -1.0991
15975TIP3    H269417   0.041   1.034  16.213  2.0224  0.6524  3.2377
15976TIP3   OH269418   0.251   0.085   3.822  0.2333  0.3767 -0.5144
15976TIP3    H169419   0.199   0.103   3.901 -1.5827 -1.0476 -1.3215
15976TIP3    H269420   0.209   0.010   3.782  2.8276 -0.7377 -1.3860
15977TIP3   OH269421   2.596   3.785  14.979 -0.1552  0.1270  0.1456
15977TIP3    H169422   2.645   3.852  14.931  1.5346 -1.2395 -0.1076
15977TIP3    H269423   2.660   3.747  15.040 -0.3726 -2.8286 -1.3177
15978TIP3   OH269424   5.982   3.066   5.740 -0.0747 -0.1745  0.2079
15978TIP3    H169425   5.925   3.082   5.815 -0.9228  0.2900 -0.5161
15978TIP3    H269426   6.069   3.090   5.770  0.1089 -2.5987  1.9363
15979TIP3   OH269427   3.965   0.683   5.450 -0.0166  0.4958  0.2673
15979TIP3    H169428   3.987   0.767   5.409  0.1804  0.2848 -0.0705
15979TIP3    H269429   4.050   0.644   5.471 -0.0162 -0.4041 -1.2006
15980TIP3   OH269430   6.041   6.540   1.983  0.1262  0.2992 -0.2188
15980TIP3    H169431   6.085   6.466   2.025 -0.0881 -0.2927 -1.0011
15980TIP3    H269432   5.993   6.583   2.053  1.1164  0.3397  0.4568
15981TIP3   OH269433   2.276   1.831  16.831  0.5088  0.0582 -0.1553
15981TIP3    H169434   2.214   1.903  16.817 -2.5603 -2.3765 -0.3447
15981TIP3    H269435   2.313   1.813  16.745 -1.9423 -1.1659 -1.0465
15982TIP3   OH269436   4.256   3.890  14.966  0.2672 -0.1549  0.0540
15982TIP3    H169437   4.202   3.851  14.897  0.7044 -0.2696 -0.2266
15982TIP3    H269438   4.248   3.830  15.040 -0.1893 -0.0424  0.1014
15983TIP3   OH269439   4.291   6.809   5.149 -0.0449  0.3999 -0.1070
15983TIP3    H169440   4.377   6.784   5.184  0.8080  1.8011 -1.0936
15983TIP3    H269441   4.286   6.766   5.064 -0.6561 -0.2842  0.2691
15984TIP3   OH269442   3.986   0.337   2.445 -0.1746  0.2588  0.0418
15984TIP3    H169443   4.079   0.314   2.444 -0.6998 -2.1181 -1.2965
15984TIP3    H269444   3.973   0.385   2.527  2.4545  1.8214 -0.3514
15985TIP3   OH269445   4.584   2.752   6.478  0.1925 -0.3044 -0.4173
15985TIP3    H169446   4.505   2.766   6.426  1.3802  1.7139 -1.8026
15985TIP3    H269447   4.599   2.657   6.474 -0.8364 -0.4353 -2.0815
15986TIP3   OH269448   6.380   3.551  10.169  0.0889 -0.8015  0.0191
15986TIP3    H169449   6.444   3.533  10.238 -1.4089  0.2728  1.7891
15986TIP3    H269450   6.311   3.486  10.184 -0.5065 -0.2041 -0.1071
15987TIP3   OH269451   0.419   2.439   3.087 -0.2712 -0.2441  0.1658
15987TIP3    H169452   0.439   2.458   2.995  1.1217  0.7818  0.6453
15987TIP3    H269453   0.324   2.442   3.091 -0.4068 -1.1200 -1.4034
15988TIP3   OH269454   2.126   3.351  14.468 -0.3276 -0.8594 -0.1634
15988TIP3    H169455   2.130   3.274  14.525 -1.9193 -1.4293 -0.7598
15988TIP3    H269456   2.207   3.399  14.487  0.6444 -2.5966  0.3179
15989TIP3   OH269457   1.383   4.340  16.696 -0.4841 -0.4344 -0.3422
15989TIP3    H169458   1.304   4.347  16.750 -0.7979  2.2698 -0.9968
15989TIP3    H269459   1.404   4.247  16.697 -2.9805 -1.0895  0.8513
15990TIP3   OH269460   0.163   0.572  16.091 -0.4563 -0.5100 -0.0466
15990TIP3    H169461   0.187   0.488  16.050  2.1010  0.4915 -0.7994
15990TIP3    H269462   0.136   0.627  16.018  0.2450  0.0590  0.1161
15991TIP3   OH269463   2.132   1.429   3.344 -0.2943 -0.2811 -0.1811
15991TIP3    H169464   2.145   1.382   3.427 -1.9776  0.3702  0.4880
15991TIP3    H269465   2.121   1.520   3.369 -1.4194 -0.1562 -1.0561
15992TIP3   OH269466   4.256   2.222   4.285  0.4181 -0.2077  0.1757
15992TIP3    H169467   4.334   2.191   4.331 -0.1958 -0.9956  0.7100
15992TIP3    H269468   4.203   2.265   4.353  0.3106  0.1846 -0.1510
15993TIP3   OH269469   2.261   0.789   3.718 -0.3789  0.0047 -0.0096
15993TIP3    H169470   2.284   0.719   3.780 -1.8218 -0.6814 -0.2221
15993TIP3    H269471   2.172   0.769   3.690  0.0279  0.6054 -1.9016
15994TIP3   OH269472   3.477   4.340  11.593  0.1085 -0.4746  0.5134
15994TIP3    H169473   3.427   4.364  11.515 -1.0373  1.5892  1.7837
15994TIP3    H269474   3.566   4.369  11.574 -0.0433 -0.4758 -0.2282
15995TIP3   OH269475   3.241   6.375  14.416 -0.2374 -0.0478  0.3808
15995TIP3    H169476   3.153   6.353  14.447 -0.0777  0.9122  1.5832
15995TIP3    H269477   3.227   6.443  14.349 -0.4610 -0.7017 -0.2512
15996TIP3   OH269478   4.904   6.065  11.197  0.3445 -0.2505  0.1671
15996TIP3    H169479   4.989   6.051  11.240 -0.0541 -0.3389  0.9491
15996TIP3    H269480   4.901   6.000  11.127  1.6910  0.9423 -1.0703
15997TIP3   OH269481   5.276   0.456  13.746 -0.1238 -0.2356  0.0356
15997TIP3    H169482   5.345   0.494  13.801  0.8182 -0.8235 -0.7027
15997TIP3    H269483   5.216   0.414  13.808  0.1055  0.3895  0.6988
15998TIP3   OH269484   5.431   1.741  13.224 -0.1277  0.6791 -0.1949
15998TIP3    H169485   5.430   1.816  13.284  0.3866 -0.5027  1.3489
15998TIP3    H269486   5.346   1.698  13.238  0.9991 -1.1162  1.7771
15999TIP3   OH269487   5.247   3.084   1.289  0.4325 -0.4203  0.5810
15999TIP3    H169488   5.172   3.144   1.291  0.5952 -0.1898  0.0186
15999TIP3    H269489   5.213   3.002   1.323 -0.5029 -0.7821 -1.1426
16000TIP3   OH269490   1.394   5.438  11.711 -0.6026 -0.1947 -0.0380
16000TIP3    H169491   1.378   5.501  11.641 -0.0542 -0.8734 -0.7809
16000TIP3    H269492   1.354   5.357  11.681  0.5873 -0.7885 -0.0663
16001TIP3   OH269493   5.610   1.622   2.075  0.0092  0.1978  0.5418
16001TIP3    H169494   5.678   1.555   2.088  1.8087  1.6288 -0.9349
16001TIP3    H269495   5.659   1.704   2.068 -2.1789  1.9134  3.3825
16002TIP3   OH269496   3.290   2.173  14.617 -0.1217  0.1596 -0.7035
16002TIP3    H169497   3.312   2.097  14.670 -2.5508  0.5292  0.9971
16002TIP3    H269498   3.303   2.145  14.527 -2.1368 -2.7531 -0.2122
16003TIP3   OH269499   6.180   3.457  15.855 -0.0326  0.4458 -0.4550
16003TIP3    H169500   6.198   3.412  15.938 -1.1973  1.8653  0.6296
16003TIP3    H269501   6.104   3.513  15.874  0.0722  1.3005 -2.3097
16004TIP3   OH269502   3.712   4.622  11.504  0.1108  0.2065 -0.1005
16004TIP3    H169503   3.748   4.540  11.536 -0.7456 -0.4028 -0.6733
16004TIP3    H269504   3.670   4.600  11.421 -0.1131  1.2233 -0.2766
16005TIP3   OH269505   0.370   5.450  15.065  0.1163  0.2211 -0.7648
16005TIP3    H169506   0.302   5.504  15.024  1.5123 -0.1655 -3.9095
16005TIP3    H269507   0.335   5.362  15.063 -0.4092  0.3932  0.3108
16006TIP3   OH269508   3.396   2.914  11.421 -0.9378  0.3055  0.1697
16006TIP3    H169509   3.489   2.892  11.428 -0.2754  3.1786  2.8107
16006TIP3    H269510   3.395   2.995  11.370 -2.3084 -0.7799 -1.6438
16007TIP3   OH269511   5.958   6.648  15.971  0.0899  0.3088  0.0300
16007TIP3    H169512   6.051   6.670  15.976 -0.0475  0.8054  0.3613
16007TIP3    H269513   5.925   6.662  16.059 -0.8176  2.4776 -0.6007
16008TIP3   OH269514   3.987   5.986   1.533  0.5630  0.7347 -0.0059
16008TIP3    H169515   3.935   6.039   1.472  0.2398 -0.9168 -1.2245
16008TIP3    H269516   4.030   5.921   1.478  3.0871  1.3300  1.1160
16009TIP3   OH269517   1.590   1.806  15.177 -0.4128  0.4032  0.6416
16009TIP3    H169518   1.686   1.813  15.171 -0.3876 -0.0624  0.4834
16009TIP3    H269519   1.558   1.884  15.132 -0.1126  0.1040 -0.1106
16010TIP3   OH269520   6.641   4.198   1.952 -0.1551 -1.0741 -0.4174
16010TIP3    H169521   6.671   4.255   2.023  0.8406  1.4409 -2.6547
16010TIP3    H269522   6.558   4.162   1.983  0.5007 -0.5474  2.1919
16011TIP3   OH269523   2.685   4.809   2.319 -0.0193 -0.2314  0.2025
16011TIP3    H169524   2.705   4.886   2.372 -0.2243  1.2525 -1.7559
16011TIP3    H269525   2.769   4.764   2.308  0.4703  0.7461 -0.1631
16012TIP3   OH269526   3.709   5.010  15.147  0.9044  0.2269 -0.1618
16012TIP3    H169527   3.685   5.057  15.067  3.0274  1.0745 -0.3676
16012TIP3    H269528   3.626   4.978  15.182 -0.3839  2.1725 -1.2462
16013TIP3   OH269529   1.788   0.511   0.022 -0.2233 -0.2275  0.4855
16013TIP3    H169530   1.857   0.559  -0.024 -1.7754  0.8831 -0.8006
16013TIP3    H269531   1.827   0.486   0.105  1.3232  1.4974  0.3404
16014TIP3   OH269532   0.351   5.913  13.476  0.3205  0.1301 -0.0938
16014TIP3    H169533   0.401   5.882  13.551 -0.7597  0.7839  0.9326
16014TIP3    H269534   0.351   5.840  13.414 -0.0255 -0.9874  1.1804
16015TIP3   OH269535   5.754   4.273   1.252 -0.3887 -0.2917  0.7137
16015TIP3    H169536   5.741   4.350   1.307 -0.2711 -1.2450  2.1407
16015TIP3    H269537   5.841   4.242   1.275  1.2459  1.2996 -2.6827
16016TIP3   OH269538   3.994   5.169   4.176  0.0647 -0.0149  1.0346
16016TIP3    H169539   4.074   5.205   4.136 -1.0508 -0.6634 -2.0109
16016TIP3    H269540   4.016   5.078   4.195  0.5396  0.2387  1.7388
16017TIP3   OH269541   1.379   1.626  12.697  0.1386  0.1531 -0.1484
16017TIP3    H169542   1.454   1.622  12.638  0.0679  2.3025 -0.4293
16017TIP3    H269543   1.323   1.694  12.661 -0.8823  0.0996  1.2754
16018TIP3   OH269544   4.042   4.423  12.055  0.6179 -0.6180 -0.0139
16018TIP3    H169545   4.026   4.355  12.119  1.9702  1.7835  3.1383
16018TIP3    H269546   3.979   4.492  12.077  1.1384  0.2900 -1.2371
16019TIP3   OH269547   2.792   5.642   5.852  0.0006  0.2870 -0.2106
16019TIP3    H169548   2.726   5.689   5.904 -0.3399 -2.0261  1.5915
16019TIP3    H269549   2.742   5.603   5.780 -1.3989 -3.8194  2.6571
16020TIP3   OH269550   2.610   5.770   6.676  0.7583 -0.0738 -0.0688
16020TIP3    H169551   2.572   5.733   6.756 -0.8441 -0.4505 -0.9517
16020TIP3    H269552   2.592   5.704   6.609  2.1203  0.2108 -0.7523
16021TIP3   OH269553   4.629   0.482  14.807 -0.1221 -0.4513  0.0277
16021TIP3    H169554   4.556   0.453  14.862 -0.1372 -0.3911  0.0395
16021TIP3    H269555   4.621   0.430  14.727 -0.9846  0.5242 -0.5380
16022TIP3   OH269556   2.597   5.574  15.998  0.2840 -0.0139 -0.2089
16022TIP3    H169557   2.514   5.526  15.994 -0.3725  0.6784  2.8227
16022TIP3    H269558   2.652   5.523  16.058  0.1254  2.0833  1.8693
16023TIP3   OH269559   2.666   2.962   4.417 -0.3016 -0.6926  0.4597
16023TIP3    H169560   2.739   2.914   4.379  0.8339  0.4081  1.1927
16023TIP3    H269561   2.645   3.029   4.351  0.4621  0.0528  0.9654
16024TIP3   OH269562   2.358   4.924  12.347  0.0822  0.0401 -0.4723
16024TIP3    H169563   2.392   5.002  12.302  1.1125 -1.0531 -1.6838
16024TIP3    H269564   2.434   4.887  12.390 -0.5754  0.1420  0.8132
16025TIP3   OH269565   0.111   3.664  12.313 -0.4956  0.7207 -0.1296
16025TIP3    H169566   0.163   3.710  12.378 -1.4103  0.7518  0.5968
16025TIP3    H269567   0.059   3.601  12.363 -0.6297  0.1823 -0.9144
16026TIP3   OH269568   5.862   5.069   1.664  0.6536 -0.3443 -0.1403
16026TIP3    H169569   5.800   5.084   1.736  1.4991 -0.1221  0.5503
16026TIP3    H269570   5.879   5.157   1.629 -0.4295 -0.5304 -1.2076
16027TIP3   OH269571   0.559   0.257   4.006  0.0178 -0.1811 -0.2110
16027TIP3    H169572   0.553   0.163   3.990 -0.9173 -0.1552 -0.0560
16027TIP3    H269573   0.615   0.290   3.936 -0.7265 -0.6612 -1.0518
16028TIP3   OH269574   6.289   1.674   3.326 -0.0252 -0.2960 -0.1335
16028TIP3    H169575   6.336   1.730   3.265 -1.0982 -1.5207 -2.2111
16028TIP3    H269576   6.355   1.646   3.390  2.2001 -2.0342 -2.9690
16029TIP3   OH269577   0.257   5.124   4.380 -0.0391 -0.5017  0.0419
16029TIP3    H169578   0.183   5.109   4.440  0.6562 -0.7531  0.8486
16029TIP3    H269579   0.291   5.037   4.362  0.5340 -0.3278  0.2745
16030TIP3   OH269580   2.993   1.134   6.267  0.3233  0.1970 -0.2803
16030TIP3    H169581   2.949   1.077   6.204 -1.3547  0.1917  0.8365
16030TIP3    H269582   2.990   1.221   6.227 -0.4046  0.1333 -0.3722
16031TIP3   OH269583   3.613   5.925   5.877  0.0768  0.0304 -0.1866
16031TIP3    H169584   3.598   5.895   5.788 -1.9960 -0.5252  0.2986
16031TIP3    H269585   3.527   5.918   5.920  0.8992  0.7711  1.7040
16032TIP3   OH269586   2.258   5.410   0.390 -0.1440  0.2275 -0.0972
16032TIP3    H169587   2.259   5.397   0.295  0.9489 -1.9469  0.1767
16032TIP3    H269588   2.313   5.341   0.426 -0.3669  1.1046  2.1436
16033TIP3   OH269589   3.250   2.844   2.080 -0.2056 -0.1645  0.1808
16033TIP3    H169590   3.166   2.836   2.036 -0.9861  3.0362  0.8339
16033TIP3    H269591   3.310   2.875   2.011 -0.2296  0.1174  0.2851
16034TIP3   OH269592   5.259   5.335  14.890  0.2613 -0.0360  0.3402
16034TIP3    H169593   5.164   5.325  14.898  0.2214 -1.4815 -1.4834
16034TIP3    H269594   5.287   5.357  14.979 -1.5915 -1.1993  1.2924
16035TIP3   OH269595   5.663   0.363   2.048  0.1328  0.3265 -0.7769
16035TIP3    H169596   5.576   0.333   2.071 -0.1999  0.4998 -1.7710
16035TIP3    H269597   5.686   0.427   2.116 -0.3529 -0.0057 -0.3019
16036TIP3   OH269598   6.824   3.438  11.969  0.2799  0.2056  0.1383
16036TIP3    H169599   6.904   3.472  11.931  0.1645  1.2696  0.8218
16036TIP3    H269600   6.843   3.428  12.062 -0.3473  0.3899  0.2957
16037TIP3   OH269601   4.385   5.602   1.954  0.2827 -0.3543 -0.4912
16037TIP3    H169602   4.422   5.525   1.997 -0.9632 -0.1045  1.1608
16037TIP3    H269603   4.291   5.587   1.954 -0.0644  1.4620  0.5770
16038TIP3   OH269604   1.726   2.603   5.959  0.0752  0.0790  0.2700
16038TIP3    H169605   1.647   2.635   5.914  0.8674  0.6614 -0.7660
16038TIP3    H269606   1.716   2.508   5.959 -1.4015  0.1921  1.6573
16039TIP3   OH269607   3.398   5.726  11.116 -0.0901  0.1211 -0.1736
16039TIP3    H169608   3.417   5.641  11.155  0.8174 -0.1322 -1.1457
16039TIP3    H269609   3.307   5.719  11.085  0.0914 -0.6055 -0.5449
16040TIP3   OH269610   5.229   0.335   0.514  0.4420 -0.0366 -0.2447
16040TIP3    H169611   5.297   0.280   0.477  0.2185 -0.3525 -0.1855
16040TIP3    H269612   5.158   0.332   0.449 -0.2569 -1.1951  0.5479
16041TIP3   OH269613   4.358   0.622  16.333  0.1326 -0.7045 -0.3111
16041TIP3    H169614   4.421   0.553  16.355  0.1930 -0.0152  1.9453
16041TIP3    H269615   4.274   0.576  16.327  0.2310 -1.0526  0.7772
16042TIP3   OH269616   4.034   3.777  14.807 -0.8586  0.1018 -0.1316
16042TIP3    H169617   3.964   3.841  14.824 -0.3799  0.5441  0.1813
16042TIP3    H269618   4.018   3.708  14.871 -0.2840  0.7932  0.7814
16043TIP3   OH269619   1.335   4.194  12.382 -0.1147  0.3336 -0.3091
16043TIP3    H169620   1.300   4.258  12.444  0.0543  0.8866 -0.7800
16043TIP3    H269621   1.353   4.244  12.303 -0.9486 -0.4826 -1.0389
16044TIP3   OH269622   3.238   5.880   3.259 -0.3278 -0.0895  0.4991
16044TIP3    H169623   3.243   5.950   3.194  1.6515  0.1657  0.8664
16044TIP3    H269624   3.286   5.807   3.221 -1.9251 -1.1204  0.3458
16045TIP3   OH269625   3.052   4.459  11.452 -0.7676 -0.0721 -0.4653
16045TIP3    H169626   3.027   4.500  11.369 -1.9576 -1.4168 -0.8078
16045TIP3    H269627   3.134   4.413  11.432 -0.8873 -0.1371 -0.8111
16046TIP3   OH269628   5.128   6.796   1.194  0.2509 -0.5562  0.3006
16046TIP3    H169629   5.061   6.731   1.174 -0.3178  0.0011  0.3716
16046TIP3    H269630   5.082   6.879   1.194  0.8194 -0.2271  0.9676
16047TIP3   OH269631   4.588   5.582  14.038 -0.1343  0.2808  0.4251
16047TIP3    H169632   4.557   5.509  13.983  1.1309 -0.3672  0.5400
16047TIP3    H269633   4.508   5.618  14.076 -1.0037  0.3730 -1.3616
16048TIP3   OH269634   4.592   1.508   5.195  0.2074 -0.7639 -0.4457
16048TIP3    H169635   4.686   1.510   5.179  0.7711 -2.1142  2.1776
16048TIP3    H269636   4.580   1.562   5.274 -1.3683  0.1477 -1.2570
16049TIP3   OH269637   2.330   5.094   4.582 -0.1072 -0.1886 -0.3344
16049TIP3    H169638   2.422   5.070   4.572 -0.3311 -1.5621  0.7131
16049TIP3    H269639   2.325   5.183   4.545  1.3831 -0.5317 -1.4807
16050TIP3   OH269640   6.355   6.396  15.015  0.1229  0.2629 -0.4325
16050TIP3    H169641   6.319   6.410  14.928 -0.9211 -0.6603 -0.1858
16050TIP3    H269642   6.430   6.337  15.001  0.8129  1.2118 -0.8278
16051TIP3   OH269643   5.274   2.179  12.788  0.0757  0.4643 -0.2176
16051TIP3    H169644   5.358   2.205  12.827  0.3148  0.3384 -0.6375
16051TIP3    H269645   5.267   2.233  12.709 -0.6158  1.0389  0.2297
16052TIP3   OH269646   3.563   3.960   4.639 -0.6735 -0.4512 -0.1488
16052TIP3    H169647   3.472   3.940   4.660 -0.4059  0.3480  2.0946
16052TIP3    H269648   3.575   4.050   4.668  1.0976 -0.9069  0.6930
16053TIP3   OH269649   6.329   2.211   0.519  0.2559 -0.4961 -0.0257
16053TIP3    H169650   6.334   2.169   0.433 -1.5368 -0.4332 -0.2009
16053TIP3    H269651   6.307   2.141   0.580  0.4777 -0.3657  0.2065
16054TIP3   OH269652   5.945   2.406   5.963 -0.2354  0.2764 -0.2583
16054TIP3    H169653   6.023   2.414   5.908 -0.5695 -0.9565 -0.9670
16054TIP3    H269654   5.976   2.359   6.041 -0.4901 -1.4993 -1.1609
16055TIP3   OH269655   3.093   0.454   1.772 -0.2057 -0.0506 -0.0284
16055TIP3    H169656   3.148   0.479   1.698  0.1467 -1.8590 -0.4209
16055TIP3    H269657   3.074   0.537   1.817 -0.5483  1.1209 -2.1965
16056TIP3   OH269658   6.510   4.817   3.818  0.3713  0.3090 -0.3985
16056TIP3    H169659   6.581   4.848   3.874  0.2979  0.0881 -0.1843
16056TIP3    H269660   6.494   4.890   3.758  0.7572  0.3737 -0.4277
16057TIP3   OH269661   2.292   3.508   5.324  0.2524  0.2650 -0.8446
16057TIP3    H169662   2.270   3.577   5.261 -0.6289 -0.4495 -1.3560
16057TIP3    H269663   2.292   3.428   5.272  0.8485 -0.1772 -0.1802
16058TIP3   OH269664   1.589   5.866  11.052 -0.0421 -0.1270 -0.8132
16058TIP3    H169665   1.645   5.813  11.109  0.6742  0.2256 -1.1796
16058TIP3    H269666   1.505   5.868  11.097 -0.4638 -2.5437 -1.3312
16059TIP3   OH269667   4.145   2.743   0.988 -0.4048  0.0945  0.3427
16059TIP3    H169668   4.153   2.812   0.922 -1.0670 -0.7672 -0.6645
16059TIP3    H269669   4.055   2.711   0.979 -0.5271 -0.0180  1.7080
16060TIP3   OH269670   2.188   2.725   3.122 -0.2644  0.7163 -0.2375
16060TIP3    H169671   2.111   2.733   3.065 -0.7765 -0.3995  0.2626
16060TIP3    H269672   2.260   2.762   3.071 -0.9954  1.0957 -1.0133
16061TIP3   OH269673   5.223   1.500  15.161 -0.1231 -0.5018 -0.5655
16061TIP3    H169674   5.291   1.559  15.193 -2.0301  0.4105  2.1972
16061TIP3    H269675   5.144   1.553  15.159 -1.8449 -2.7246  1.5961
16062TIP3   OH269676   6.013   2.519  12.969  0.2910  0.3490  1.1321
16062TIP3    H169677   6.060   2.469  12.902 -0.0593  0.1024  1.0670
16062TIP3    H269678   6.082   2.554  13.025  0.5715  0.3094  0.8138
16063TIP3   OH269679   0.125   6.536  11.419 -0.2962 -0.1645  0.1894
16063TIP3    H169680   0.070   6.496  11.352 -1.0652 -1.0281  1.3019
16063TIP3    H269681   0.079   6.617  11.443  0.2282  0.3946 -0.6408
16064TIP3   OH269682   0.849   0.210  15.813 -1.1694  0.0633  0.7343
16064TIP3    H169683   0.796   0.130  15.812 -1.7086  0.3989  1.4727
16064TIP3    H269684   0.849   0.237  15.904 -1.5640  1.2783  0.3909
16065TIP3   OH269685   2.420   0.533   3.609  0.3938  0.3129 -0.2442
16065TIP3    H169686   2.402   0.562   3.699  0.2601  0.1351 -0.2115
16065TIP3    H269687   2.511   0.502   3.612 -0.0775 -1.1298  0.2220
16066TIP3   OH269688   5.017   0.531  13.054  0.0596 -0.2892 -0.0984
16066TIP3    H169689   5.108   0.501  13.058 -0.0128 -0.4630  0.2988
16066TIP3    H269690   4.968   0.456  13.022  0.3298  0.4299 -2.3848
16067TIP3   OH269691   6.542   3.092  11.587 -0.3036  0.0863 -0.3838
16067TIP3    H169692   6.634   3.115  11.579  0.0496 -1.2660 -0.5710
16067TIP3    H269693   6.529   3.075  11.680  0.2485 -1.9107 -0.6164
16068TIP3   OH269694   1.436   6.425  12.002  0.0205  0.2580 -0.0186
16068TIP3    H169695   1.440   6.357  11.936 -1.1876  0.4672 -0.3162
16068TIP3    H269696   1.468   6.504  11.958  2.1755 -0.2356  0.5440
16069TIP3   OH269697   2.414   1.588  14.265 -0.9626 -0.1618  0.2160
16069TIP3    H169698   2.453   1.505  14.239 -1.0009 -0.0057 -0.3612
16069TIP3    H269699   2.435   1.597  14.358 -0.2117 -0.3981  0.0734
16070TIP3   OH269700   2.019   1.146   4.595  0.2032 -0.6528  0.0301
16070TIP3    H169701   2.054   1.185   4.675  1.6742 -0.9432 -0.4432
16070TIP3    H269702   1.945   1.093   4.625 -0.4210  0.6777  0.9549
16071TIP3   OH269703   2.481   3.572   2.180  0.1049 -0.0871  0.0644
16071TIP3    H169704   2.399   3.606   2.216  0.7225  0.5737  0.8953
16071TIP3    H269705   2.476   3.592   2.087 -0.3198  0.7212  0.2479
16072TIP3   OH269706   6.653   4.674  12.833 -0.4952  0.6428  0.4079
16072TIP3    H169707   6.704   4.717  12.764  1.2208  0.3408  1.4144
16072TIP3    H269708   6.655   4.581  12.809  0.8594  0.4218  1.2742
16073TIP3   OH269709   6.118   1.183   5.294  0.3559 -0.5521  0.2729
16073TIP3    H169710   6.032   1.153   5.264  0.9608  0.0152 -2.2627
16073TIP3    H269711   6.111   1.182   5.390 -3.5623  2.4881  0.2858
16074TIP3   OH269712   4.943   2.243   1.249  0.2186  0.5067 -0.1321
16074TIP3    H169713   4.870   2.305   1.246  1.1327  1.7952  1.5866
16074TIP3    H269714   4.913   2.174   1.308  1.1410  2.3094  2.6823
16075TIP3   OH269715   1.286   0.489   5.051 -0.4035 -0.5099 -0.3523
16075TIP3    H169716   1.245   0.502   4.965 -2.1195  1.5988  0.6851
16075TIP3    H269717   1.376   0.464   5.031 -0.9295 -0.6947 -2.7573
16076TIP3   OH269718   2.803   5.558  17.185  0.0239  0.3427 -0.0019
16076TIP3    H169719   2.885   5.581  17.141  0.1277 -2.6234 -1.6049
16076TIP3    H269720   2.749   5.519  17.116 -1.3285 -0.9471  1.7017
16077TIP3   OH269721   6.827   1.209  16.676  0.2856 -0.1454  0.0861
16077TIP3    H169722   6.802   1.244  16.761 -0.8093 -0.1219 -0.2392
16077TIP3    H269723   6.917   1.179  16.688 -0.5439 -2.1407  1.8859
16078TIP3   OH269724   0.292   0.917   3.332 -0.2548  0.4771  0.0808
16078TIP3    H169725   0.230   0.958   3.272  0.7269  1.1003 -0.5306
16078TIP3    H269726   0.358   0.985   3.348 -0.4417  0.3027  1.8071
16079TIP3   OH269727   5.891   6.387  10.883 -0.0910  0.3392 -0.2682
16079TIP3    H169728   5.841   6.432  10.951  0.1759  0.4173 -0.1207
16079TIP3    H269729   5.899   6.452  10.813 -0.1322  0.3516 -0.2610
16080TIP3   OH269730   5.748   6.017   6.319 -0.1634 -0.6049  0.4545
16080TIP3    H169731   5.699   5.953   6.370 -2.1984  0.4952 -0.0191
16080TIP3    H269732   5.700   6.099   6.330  1.1786  0.3892 -0.6412
16081TIP3   OH269733   3.818   0.093   4.032 -0.9555  0.3835 -0.1740
16081TIP3    H169734   3.735   0.124   4.068  0.6695  1.5368  3.0194
16081TIP3    H269735   3.836   0.012   4.081 -0.2610  0.0716 -0.9265
16082TIP3   OH269736   5.383   1.449   0.896  0.2054  0.4903 -0.2175
16082TIP3    H169737   5.410   1.376   0.952  1.3042  0.0238 -1.3016
16082TIP3    H269738   5.353   1.516   0.956 -0.7133 -0.8066  0.8188
16083TIP3   OH269739   5.332   3.743   0.856  0.2645  0.1069  0.4656
16083TIP3    H169740   5.241   3.733   0.883 -0.5566  1.5061 -1.5928
16083TIP3    H269741   5.364   3.817   0.908  0.9190 -1.5724  2.6308
16084TIP3   OH269742   2.354   0.601  12.817  0.1916 -0.1110  0.3322
16084TIP3    H169743   2.311   0.553  12.746 -1.7595  0.0378  1.3234
16084TIP3    H269744   2.346   0.693  12.792 -0.5463 -0.0551  0.7337
16085TIP3   OH269745   1.661   3.923  11.974 -0.3511 -0.4186  0.0559
16085TIP3    H169746   1.695   3.991  11.916  2.7072 -0.6270  1.3891
16085TIP3    H269747   1.611   3.865  11.916 -1.8254  2.0845 -1.3624
16086TIP3   OH269748   1.020   4.532  13.864 -0.1371  0.0934  0.1492
16086TIP3    H169749   1.083   4.602  13.847 -1.1723  1.0701  0.2645
16086TIP3    H269750   0.947   4.549  13.806  0.7307 -2.5481 -1.9487
16087TIP3   OH269751   4.200   5.668   6.621  0.5066 -0.6131  0.3660
16087TIP3    H169752   4.267   5.643   6.557  0.2733 -0.3227 -0.0006
16087TIP3    H269753   4.131   5.707   6.568  1.0896  1.3211  0.9561
16088TIP3   OH269754   4.573   1.814   3.649 -0.0715 -0.5427  0.0441
16088TIP3    H169755   4.552   1.830   3.741  1.0600  0.4125  0.1626
16088TIP3    H269756   4.632   1.738   3.650  0.6962  0.0448  0.2101
16089TIP3   OH269757   2.603   2.547  14.239  0.2379  0.3509  0.5354
16089TIP3    H169758   2.516   2.579  14.266  0.3117 -0.3163  1.6140
16089TIP3    H269759   2.610   2.460  14.279  0.5784 -0.4916 -1.2503
16090TIP3   OH269760   3.397   1.055  14.549  0.6767 -0.3252 -0.0912
16090TIP3    H169761   3.443   1.062  14.633  0.6947  0.6860 -0.1823
16090TIP3    H269762   3.462   1.019  14.489  1.2849  0.8429 -0.1562
16091TIP3   OH269763   4.701   4.298  16.730  0.0621  0.7519  0.7136
16091TIP3    H169764   4.689   4.328  16.820 -0.4519  1.4625  0.4163
16091TIP3    H269765   4.748   4.215  16.738  1.0428  1.3675  1.5790
16092TIP3   OH269766   4.468   5.371   4.390 -0.3300  0.7715 -0.3238
16092TIP3    H169767   4.485   5.394   4.482  1.2419  0.8027 -0.6029
16092TIP3    H269768   4.387   5.320   4.394  1.0027 -1.3876  1.4216
16093TIP3   OH269769   1.001   5.143  13.903  0.0827  0.2398 -0.0220
16093TIP3    H169770   1.016   5.211  13.837  0.1484 -0.3631 -0.6434
16093TIP3    H269771   0.953   5.075  13.856 -1.1516  0.4166  0.9278
16094TIP3   OH269772   0.156   4.511  13.214  0.3068 -0.0482 -0.3331
16094TIP3    H169773   0.076   4.493  13.262  0.9829 -1.2357  0.3944
16094TIP3    H269774   0.184   4.425  13.181  0.7786  0.4902 -1.3760
16095TIP3   OH269775   0.750   1.367  17.081  0.0609  0.5943  0.1873
16095TIP3    H169776   0.818   1.433  17.096  1.5292 -0.5437 -1.0209
16095TIP3    H269777   0.794   1.284  17.098 -1.7893 -0.1051  1.8778
16096TIP3   OH269778   1.658   2.026  13.723 -0.4184  0.5395 -0.4116
16096TIP3    H169779   1.607   2.101  13.694 -2.3341 -0.5000  0.0981
16096TIP3    H269780   1.717   2.007  13.650 -0.2378  2.2127 -0.7373
16097TIP3   OH269781   5.337   6.412   4.429  0.0569  0.5450 -0.5055
16097TIP3    H169782   5.291   6.333   4.457 -0.7910  1.1727 -0.0913
16097TIP3    H269783   5.428   6.397   4.453 -0.5000  0.7409  2.0007
16098TIP3   OH269784   1.651   3.850  11.469 -0.3746 -0.4930  0.0021
16098TIP3    H169785   1.687   3.934  11.499 -0.4915 -0.3761 -0.1886
16098TIP3    H269786   1.571   3.873  11.422 -0.2548 -0.6895 -0.2971
16099TIP3   OH269787   3.170   6.525  14.744 -0.2333  0.0575  0.5974
16099TIP3    H169788   3.192   6.435  14.767  2.2824  0.1356 -1.1202
16099TIP3    H269789   3.074   6.527  14.743 -0.3711 -2.9263 -0.4658
16100TIP3   OH269790   0.795   4.022  16.844  1.0863 -0.4307 -0.0998
16100TIP3    H169791   0.814   4.109  16.880  1.0928 -0.4185 -0.1325
16100TIP3    H269792   0.859   4.010  16.774  1.5902 -0.7878  0.4135
16101TIP3   OH269793   1.529   4.138   0.522 -0.0378 -0.1720  0.5132
16101TIP3    H169794   1.469   4.079   0.568 -1.3675  1.1505  0.5545
16101TIP3    H269795   1.593   4.164   0.589  0.7093 -1.6912  0.4391
16102TIP3   OH269796   3.951   6.072  15.214  0.2590  0.9185  0.0763
16102TIP3    H169797   4.007   6.116  15.151  1.0448  0.4023  0.3933
16102TIP3    H269798   4.006   6.061  15.292 -0.0522 -0.2057  0.1661
16103TIP3   OH269799   0.130   4.068   2.173 -0.1850  1.0139 -0.3331
16103TIP3    H169800   0.131   4.123   2.095 -1.0879  0.4498 -0.7575
16103TIP3    H269801   0.037   4.057   2.193  0.0308  0.9644  0.6959
16104TIP3   OH269802   2.208   2.094  11.959  0.4572  0.0629  0.7374
16104TIP3    H169803   2.132   2.077  11.903  1.0174  1.2296 -0.4268
16104TIP3    H269804   2.220   2.013  12.008 -0.7484 -0.5986 -0.0053
16105TIP3   OH269805   4.022   2.127  17.167  0.7149 -0.5648 -0.2936
16105TIP3    H169806   4.038   2.167  17.081  1.9301 -1.1752 -0.3636
16105TIP3    H269807   3.945   2.073  17.154 -0.8026  1.4524 -0.2771
16106TIP3   OH269808   2.072   0.195   3.358  0.0186 -0.0413  0.0161
16106TIP3    H169809   2.015   0.247   3.301 -0.9165 -1.1652 -0.1008
16106TIP3    H269810   2.159   0.203   3.318 -0.3150  0.5166 -0.6220
16107TIP3   OH269811   4.691   2.557   0.255 -0.0664 -0.4720  0.1593
16107TIP3    H169812   4.738   2.626   0.207 -1.9697  0.4384 -0.5189
16107TIP3    H269813   4.722   2.565   0.345 -0.5327  1.6124  0.1890
16108TIP3   OH269814   0.778   3.576   5.696  0.1411 -0.1886 -0.4615
16108TIP3    H169815   0.851   3.636   5.683  0.2081 -0.5470 -1.9931
16108TIP3    H269816   0.702   3.633   5.704  0.6795  0.2519  2.4464
16109TIP3   OH269817   6.143   1.649   1.194 -0.4243  0.2570 -0.0407
16109TIP3    H169818   6.204   1.650   1.120 -0.0831 -1.4347  0.1726
16109TIP3    H269819   6.105   1.561   1.192 -0.0924  0.0212  2.0265
16110TIP3   OH269820   3.748   5.882   6.226  0.4460  0.0702  0.2117
16110TIP3    H169821   3.664   5.840   6.212 -0.5711  2.1344 -0.3870
16110TIP3    H269822   3.803   5.851   6.154 -0.5542  0.4118 -0.7249
16111TIP3   OH269823   5.585   3.158   6.112  0.2769  0.3183  0.0544
16111TIP3    H169824   5.493   3.149   6.137  0.4487  1.5898  1.2477
16111TIP3    H269825   5.606   3.076   6.068 -0.4600 -1.5199  2.8606
16112TIP3   OH269826   4.168   2.082  11.155  0.3830  0.0081 -0.2951
16112TIP3    H169827   4.073   2.081  11.144  0.2033  1.8963  0.6308
16112TIP3    H269828   4.194   1.990  11.150 -1.5658 -0.6009 -0.0147
16113TIP3   OH269829   3.778   4.121   2.810 -0.0256  0.5522  0.0348
16113TIP3    H169830   3.867   4.090   2.824 -0.7607 -1.3590  0.8628
16113TIP3    H269831   3.723   4.044   2.826 -1.9859  2.2068  1.7921
16114TIP3   OH269832   4.046   4.274  11.235 -0.3136  0.0297  0.3046
16114TIP3    H169833   4.095   4.261  11.154 -0.2734 -1.1185  0.4918
16114TIP3    H269834   4.104   4.242  11.304 -0.2522  1.2263  0.8185
16115TIP3   OH269835   4.358   6.746  13.973  0.1188 -0.0003 -0.1121
16115TIP3    H169836   4.287   6.771  13.914 -0.5963 -1.8205 -0.0950
16115TIP3    H269837   4.337   6.789  14.056  0.1497  1.1054 -0.6608
16116TIP3   OH269838   1.332   2.353   0.831 -0.3739  0.4329  0.9101
16116TIP3    H169839   1.337   2.277   0.889  3.5710 -1.4599 -1.4699
16116TIP3    H269840   1.294   2.319   0.750 -0.0877  1.4242  0.3420
16117TIP3   OH269841   1.991   5.612   5.359  0.2786  0.5186 -0.3436
16117TIP3    H169842   2.025   5.650   5.440 -0.6426  0.9461 -0.1450
16117TIP3    H269843   1.918   5.669   5.334  1.9243  1.7468 -2.7102
16118TIP3   OH269844   0.260   3.527   3.033 -1.0128 -0.0851 -0.6370
16118TIP3    H169845   0.298   3.440   3.022 -1.6437 -0.4914  0.2563
16118TIP3    H269846   0.169   3.516   3.005 -1.3076  0.0827  0.2434
16119TIP3   OH269847   4.154   0.444   0.027 -0.4879 -0.4434  0.6746
16119TIP3    H169848   4.076   0.472   0.076 -0.1627  1.0786  0.3684
16119TIP3    H269849   4.169   0.515  -0.035 -0.6830 -2.1752 -1.4365
16120TIP3   OH269850   3.080   6.257   4.824 -0.0843 -0.0106 -0.5772
16120TIP3    H169851   3.122   6.342   4.830  0.9487 -0.5939  1.2766
16120TIP3    H269852   3.024   6.252   4.902 -0.4634 -0.8589 -0.8843
16121TIP3   OH269853   0.190   2.222  12.769  0.4370 -0.1722 -0.2950
16121TIP3    H169854   0.182   2.126  12.769 -2.3240 -0.0482 -1.4232
16121TIP3    H269855   0.208   2.244  12.860  0.6109 -1.7333  0.0786
16122TIP3   OH269856   3.392   6.047   0.046  0.0932  0.4083 -0.0395
16122TIP3    H169857   3.425   5.975   0.099 -2.1601 -0.9058 -0.2916
16122TIP3    H269858   3.449   6.048  -0.031 -1.4412 -3.1388 -1.4617
16123TIP3   OH269859   3.339   6.273  11.644  0.2181  0.4589 -0.0346
16123TIP3    H169860   3.282   6.335  11.598  0.9509  1.2947  0.1453
16123TIP3    H269861   3.396   6.238  11.575  0.4438  0.7227  0.0148
16124TIP3   OH269862   2.814   6.110   3.457 -0.1113 -0.2691  0.2615
16124TIP3    H169863   2.731   6.070   3.485  0.6490 -2.2170 -0.1050
16124TIP3    H269864   2.870   6.103   3.535  0.1119 -0.1385  0.1113
16125TIP3   OH269865   2.599   3.748   0.885 -0.8253 -0.4981  0.5305
16125TIP3    H169866   2.577   3.841   0.883  0.1970 -0.1987  1.7183
16125TIP3    H269867   2.597   3.720   0.794 -0.3529  0.8851  0.0771
16126TIP3   OH269868   0.508   3.240  13.384  0.5654 -0.4935  0.9653
16126TIP3    H169869   0.460   3.158  13.393 -1.5689  0.5288 -0.2733
16126TIP3    H269870   0.450   3.305  13.424  2.0754  0.4732  1.6429
16127TIP3   OH269871   3.690   6.187   3.227 -0.1517  0.2213 -0.0099
16127TIP3    H169872   3.716   6.188   3.135 -1.7770  0.6982 -0.5037
16127TIP3    H269873   3.740   6.258   3.267 -1.1159  1.5734 -1.0733
16128TIP3   OH269874   0.390   2.580   5.862  0.6179  0.2093  0.5950
16128TIP3    H169875   0.357   2.648   5.921  0.7747 -0.2862  1.2698
16128TIP3    H269876   0.312   2.533   5.834  0.7232 -2.3884  3.9321
16129TIP3   OH269877   3.433   2.452   1.978 -0.4870 -0.2842 -0.1510
16129TIP3    H169878   3.372   2.460   1.905  0.3539 -0.0244 -0.8352
16129TIP3    H269879   3.495   2.524   1.966  0.4223 -1.0153  0.0825
16130TIP3   OH269880   3.130   0.601  11.609 -0.5178 -0.1439 -0.3787
16130TIP3    H169881   3.186   0.648  11.547 -2.0934  2.4030 -0.0162
16130TIP3    H269882   3.045   0.645  11.602 -0.9680 -0.1999  3.0427
16131TIP3   OH269883   6.281   5.726  13.462 -0.0930  0.5272 -0.1505
16131TIP3    H169884   6.257   5.733  13.555 -2.0927  0.2017 -0.5794
16131TIP3    H269885   6.208   5.768  13.416  0.5437  0.0943 -1.6071
16132TIP3   OH269886   0.122   2.090   3.699  0.3694  0.3868 -0.9171
16132TIP3    H169887   0.170   2.063   3.621  1.8603  1.0613 -0.2808
16132TIP3    H269888   0.189   2.093   3.768 -0.0101  3.7232 -0.5174
16133TIP3   OH269889   4.374   2.313  15.596 -0.3095 -0.0431 -0.1925
16133TIP3    H169890   4.351   2.250  15.664  0.2447 -0.6248 -0.5374
16133TIP3    H269891   4.327   2.393  15.621  0.3170 -0.0704  1.1882
16134TIP3   OH269892   4.448   1.274   1.839  0.3327  0.3844  0.1417
16134TIP3    H169893   4.454   1.226   1.922  0.3899 -0.2539 -0.2243
16134TIP3    H269894   4.357   1.263   1.812 -0.5153  3.0898  1.5697
16135TIP3   OH269895   2.676   4.113   5.839  0.0764 -0.2261  0.0735
16135TIP3    H169896   2.690   4.103   5.745 -1.0049 -2.2302  0.0622
16135TIP3    H269897   2.581   4.118   5.848  0.1809  0.2370  1.0649
16136TIP3   OH269898   5.367   6.559   3.824 -0.4936 -0.0183  0.5593
16136TIP3    H169899   5.320   6.610   3.758 -0.3120 -0.5365  0.0176
16136TIP3    H269900   5.307   6.554   3.898 -1.5137 -1.0880 -0.3086
16137TIP3   OH269901   5.361   3.856  13.201 -0.2863  0.3617  0.2830
16137TIP3    H169902   5.431   3.838  13.138 -0.0492  1.6812  0.1506
16137TIP3    H269903   5.392   3.818  13.283  0.2846  0.3663  0.0737
16138TIP3   OH269904   0.946   0.425  14.149 -0.2502  0.0283  0.7056
16138TIP3    H169905   0.953   0.430  14.053 -1.7231  1.4495  0.6324
16138TIP3    H269906   0.881   0.491  14.172 -0.1386 -0.4856  2.6856
16139TIP3   OH269907   0.566   0.383   4.620  0.2873  0.3053  0.0843
16139TIP3    H169908   0.555   0.293   4.649 -0.0522  0.2407 -0.2314
16139TIP3    H269909   0.597   0.376   4.530 -0.5948  0.4939 -0.2470
16140TIP3   OH269910   5.198   0.483   3.594 -0.3585 -0.3659  0.1802
16140TIP3    H169911   5.187   0.423   3.521  1.2077  0.4763 -0.7914
16140TIP3    H269912   5.213   0.426   3.670  2.3649 -1.2857 -0.9202
16141TIP3   OH269913   3.111   2.692   0.733  0.3164 -0.0609  0.1498
16141TIP3    H169914   3.199   2.672   0.700  1.0584  1.3386  1.1808
16141TIP3    H269915   3.060   2.714   0.655  1.3299  0.6759 -0.3281
16142TIP3   OH269916   2.314   2.690  15.949  0.4608 -0.1884  0.3117
16142TIP3    H169917   2.235   2.637  15.961 -0.3774  0.8722 -0.2489
16142TIP3    H269918   2.315   2.749  16.025  1.0030 -0.5360  0.5787
16143TIP3   OH269919   1.306   2.107  13.122 -0.1956  0.0559  0.3432
16143TIP3    H169920   1.312   2.135  13.213  1.0375  1.5649 -0.1676
16143TIP3    H269921   1.385   2.143  13.080 -1.0365 -0.0823 -1.4602
16144TIP3   OH269922   0.172   0.741   1.959  0.0396  0.1019  0.2648
16144TIP3    H169923   0.137   0.654   1.979 -1.6707  0.4901 -0.8467
16144TIP3    H269924   0.180   0.742   1.864 -0.3039  1.2754  0.2427
16145TIP3   OH269925   0.204   6.475   3.795  0.4200 -0.4967 -0.1570
16145TIP3    H169926   0.130   6.530   3.769 -0.6705 -0.6648  2.3124
16145TIP3    H269927   0.205   6.404   3.731  0.8547  1.4406 -2.4462
16146TIP3   OH269928   5.087   6.115   4.392  0.2376 -0.1852  0.4915
16146TIP3    H169929   5.111   6.157   4.310  1.1086 -1.3908  0.1069
16146TIP3    H269930   5.129   6.030   4.389 -0.1118 -0.4429  1.9837
16147TIP3   OH269931   3.921   4.502  11.752  0.2418 -0.3580 -0.2607
16147TIP3    H169932   3.853   4.521  11.817  0.7652  1.2956 -0.1508
16147TIP3    H269933   3.973   4.433  11.793  1.0811  1.2224  1.5588
16148TIP3   OH269934   1.967   2.749  15.460 -0.6091 -0.1237 -0.3798
16148TIP3    H169935   1.882   2.713  15.486 -0.7788  0.8506  0.5033
16148TIP3    H269936   1.946   2.817  15.397 -0.4116 -0.4449 -0.7986
16149TIP3   OH269937   0.229   4.875  12.895 -0.0817  0.1372  0.0955
16149TIP3    H169938   0.180   4.941  12.944  0.1846  0.0283  0.5232
16149TIP3    H269939   0.300   4.925  12.853  0.1218  0.1321  0.4214
16150TIP3   OH269940   2.252   2.976  13.122  0.2915  0.6007 -0.1882
16150TIP3    H169941   2.290   2.992  13.036  0.1479 -0.5132 -0.4779
16150TIP3    H269942   2.315   3.013  13.184  0.3357  1.5085 -0.7745
16151TIP3   OH269943   2.532   4.999   5.824  0.2028  0.0789  0.6308
16151TIP3    H169944   2.521   4.933   5.892 -3.6850 -1.3425 -1.0708
16151TIP3    H269945   2.478   4.968   5.752  1.2243  3.3097 -1.7641
16152TIP3   OH269946   5.048   4.039  10.788  0.0256  0.1948 -0.7237
16152TIP3    H169947   5.007   4.102  10.728  1.0267 -0.9241 -2.6749
16152TIP3    H269948   4.975   4.005  10.840 -0.9765  0.7540 -1.7194
16153TIP3   OH269949   3.680   2.880  16.413  0.1603  0.3232 -0.3892
16153TIP3    H169950   3.719   2.930  16.341  0.1148  1.3811  0.3087
16153TIP3    H269951   3.667   2.944  16.483 -1.0743 -0.3983  0.0756
16154TIP3   OH269952   4.046   5.864  15.905 -0.3190  0.0171 -0.8258
16154TIP3    H169953   3.964   5.882  15.859 -0.4081 -1.0145 -1.0942
16154TIP3    H269954   4.062   5.771  15.890  0.3844 -0.0152  0.0661
16155TIP3   OH269955   1.335   5.054   2.086  0.4660 -0.2119  0.2219
16155TIP3    H169956   1.358   5.045   2.178 -0.0307 -1.6803  0.2211
16155TIP3    H269957   1.241   5.071   2.086  0.1190 -1.9471 -0.0468
16156TIP3   OH269958   0.075   5.506   0.626  0.3462  0.2470 -0.2875
16156TIP3    H169959   0.084   5.540   0.537 -0.8453  1.7052  0.1035
16156TIP3    H269960  -0.012   5.465   0.628  0.9637 -1.1071 -0.1840
16157TIP3   OH269961   1.352   6.698  17.123 -0.0271  0.2902 -0.2392
16157TIP3    H169962   1.311   6.743  17.050  0.4249 -1.5768 -1.7160
16157TIP3    H269963   1.402   6.766  17.168 -2.9987  2.2038  0.4314
16158TIP3   OH269964   5.931   1.668   3.697 -0.5960  0.0694  0.2030
16158TIP3    H169965   5.868   1.619   3.644 -0.8848  0.7490 -0.1014
16158TIP3    H269966   6.001   1.692   3.636  0.9612 -2.2878  0.9193
16159TIP3   OH269967   1.039   2.844  11.975  0.6010 -0.0836 -0.0771
16159TIP3    H169968   0.962   2.793  11.949  0.2743  0.4468 -0.1545
16159TIP3    H269969   1.095   2.844  11.897 -0.1001  0.9839 -0.5958
16160TIP3   OH269970   2.421   0.078   5.537  0.1018 -0.1130 -0.8158
16160TIP3    H169971   2.373   0.038   5.465  0.1504 -1.0659 -0.3349
16160TIP3    H269972   2.511   0.085   5.505  0.0569 -0.2274 -0.9693
16161TIP3   OH269973   2.477   4.172   6.190  0.4582 -0.1125  0.0133
16161TIP3    H169974   2.429   4.131   6.119 -0.0216 -0.8484  0.7410
16161TIP3    H269975   2.470   4.266   6.173 -0.8962 -0.2177 -0.1213
16162TIP3   OH269976   4.522   1.673  13.172 -0.1734 -0.3181 -1.1538
16162TIP3    H169977   4.473   1.743  13.129 -0.0364  0.7482  0.3627
16162TIP3    H269978   4.578   1.637  13.103 -1.3535  0.0269 -2.3258
16163TIP3   OH269979   1.748   2.693  11.302 -0.0810  0.1717 -0.1535
16163TIP3    H169980   1.776   2.766  11.357  1.9378 -0.1561 -0.6438
16163TIP3    H269981   1.705   2.734  11.227  0.3590  0.8200 -0.0590
16164TIP3   OH269982   3.301   0.525  15.810  0.4928 -0.1989 -0.4952
16164TIP3    H169983   3.317   0.618  15.793  0.0230  0.0419  0.3328
16164TIP3    H269984   3.291   0.519  15.905  0.8130 -1.1474 -0.5051
16165TIP3   OH269985   5.428   2.901   1.518 -0.1882  0.1097 -0.0383
16165TIP3    H169986   5.440   2.897   1.423  0.3430  0.9835 -0.0240
16165TIP3    H269987   5.485   2.973   1.546 -1.1549  0.5807  0.8029
16166TIP3   OH269988   6.761   3.227   5.165 -0.3486  0.2144  0.1333
16166TIP3    H169989   6.675   3.195   5.191 -1.2085  1.5441 -0.8985
16166TIP3    H269990   6.823   3.168   5.207 -1.7015  0.3106  2.3987
16167TIP3   OH269991   1.395   6.533  11.703  0.3221 -0.0677 -0.2200
16167TIP3    H169992   1.411   6.608  11.760  1.1524 -0.9193  0.6994
16167TIP3    H269993   1.416   6.566  11.615 -0.4323  1.0957  0.0113
16168TIP3   OH269994   4.007   3.840  11.623 -0.3693 -0.3766  0.0996
16168TIP3    H169995   4.002   3.880  11.710  1.0552  1.5794 -0.6353
16168TIP3    H269996   4.100   3.823  11.610 -0.4970 -0.1219 -1.2576
16169TIP3   OH269997   0.537   4.167   6.529 -0.0369  0.5536 -0.4725
16169TIP3    H169998   0.627   4.144   6.550 -0.0439  0.0885 -0.9201
16169TIP3    H269999   0.485   4.093   6.562 -0.2857  0.9255 -0.0030
16170TIP3   OH270000   0.332   3.232  11.794 -0.2375 -0.6749 -0.2614
16170TIP3    H170001   0.350   3.184  11.875 -0.0398 -0.8181 -0.3895
16170TIP3    H270002   0.373   3.179  11.726  1.2499  0.4015 -0.2511
16171TIP3   OH270003   0.578   3.996  15.898  0.3649  0.0433 -0.6996
16171TIP3    H170004   0.535   3.925  15.945  1.8838 -0.3414  0.1693
16171TIP3    H270005   0.568   3.972  15.805 -1.2073 -0.0406 -0.5321
16172TIP3   OH270006   4.014   5.682   3.652  0.1203 -0.1598 -0.6726
16172TIP3    H170007   4.019   5.773   3.680  2.1800 -0.4531  0.0918
16172TIP3    H270008   3.991   5.633   3.731  1.5236 -0.5281 -0.4629
16173TIP3   OH270009   4.532   1.727   5.394 -0.2354 -0.1973 -0.2865
16173TIP3    H170010   4.591   1.803   5.391 -0.9818  0.5455  1.5998
16173TIP3    H270011   4.445   1.766   5.388 -0.6364 -0.8649  0.9878
16174TIP3   OH270012   0.401   3.423   2.735 -0.0434  0.4310  0.5655
16174TIP3    H170013   0.312   3.406   2.706  0.0165 -1.1113  1.2138
16174TIP3    H270014   0.402   3.517   2.757 -1.3034  0.6041 -0.0829
16175TIP3   OH270015   6.138   3.912  16.108 -0.2368  0.2054  0.2425
16175TIP3    H170016   6.197   3.876  16.042  1.1619  1.5809  0.6748
16175TIP3    H270017   6.173   3.879  16.191  0.1373  1.2765  0.5253
16176TIP3   OH270018   3.726   5.801  15.981  0.2412  0.3237 -0.1952
16176TIP3    H170019   3.813   5.761  15.983  0.0715 -0.2373 -2.2475
16176TIP3    H270020   3.734   5.873  15.918 -1.1546 -0.7236 -1.6188
16177TIP3   OH270021   2.951   3.353  14.300  0.0698  0.2172  0.5179
16177TIP3    H170022   2.967   3.420  14.368 -1.6033  0.2217  0.9646
16177TIP3    H270023   2.885   3.393  14.243  0.8097 -0.1437 -0.6148
16178TIP3   OH270024   1.616   1.556   4.086 -0.6328 -0.0689 -0.2013
16178TIP3    H170025   1.558   1.587   4.156 -0.7821 -0.3125 -0.2149
16178TIP3    H270026   1.650   1.636   4.046  1.9341  0.1694  2.1246
16179TIP3   OH270027   1.711   2.263  15.454  0.8003  0.1656 -0.3353
16179TIP3    H170028   1.657   2.233  15.528 -0.7239  2.3403 -0.4727
16179TIP3    H270029   1.791   2.297  15.495  0.7269 -0.2424  0.1528
16180TIP3   OH270030   5.951   4.481  12.500  0.3079 -0.2465  0.5924
16180TIP3    H170031   6.021   4.490  12.564  0.3185 -1.2669  0.7404
16180TIP3    H270032   5.899   4.561  12.509  0.7132 -0.0677  1.3858
16181TIP3   OH270033   2.308   4.985  17.175  0.4174  0.1276 -0.0597
16181TIP3    H170034   2.255   5.062  17.154 -0.2788 -0.2756  0.1828
16181TIP3    H270035   2.250   4.929  17.226  1.1594 -0.2240  0.4181
16182TIP3   OH270036   0.818   2.966  11.305 -0.1887 -0.1666  0.0173
16182TIP3    H170037   0.838   3.035  11.242 -0.5236  0.4973  0.6150
16182TIP3    H270038   0.847   2.885  11.263  0.1674  0.3328 -0.7177
16183TIP3   OH270039   2.134   4.117   2.963 -0.7953 -0.2245  0.2451
16183TIP3    H170040   2.219   4.149   2.931 -1.2043  0.4862 -0.1504
16183TIP3    H270041   2.130   4.145   3.054 -0.4057 -0.6834  0.4117
16184TIP3   OH270042   4.785   1.064   0.727  0.2039  0.6270  0.1215
16184TIP3    H170043   4.820   0.976   0.719  0.2315  0.6863 -0.4756
16184TIP3    H270044   4.822   1.098   0.808 -0.9938 -0.4389  1.1637
16185TIP3   OH270045   1.439   6.247   4.663  0.0541 -0.3013  0.5667
16185TIP3    H170046   1.516   6.208   4.620 -0.9142 -1.3714 -0.2629
16185TIP3    H270047   1.407   6.177   4.721  0.3725  0.5511  1.8085
16186TIP3   OH270048   6.765   6.756   2.764  0.0241 -0.3653  0.1215
16186TIP3    H170049   6.797   6.778   2.851 -0.5139  1.1842 -0.0487
16186TIP3    H270050   6.694   6.694   2.779  1.0163 -1.3979  0.6690
16187TIP3   OH270051   5.081   1.880  11.508  0.2287  0.6022 -0.4166
16187TIP3    H170052   5.005   1.822  11.496  0.1846  0.6521 -0.3810
16187TIP3    H270053   5.149   1.823  11.543  1.0152 -0.0009 -2.7428
16188TIP3   OH270054   3.359   4.547   2.243 -0.1260 -0.2400 -0.1250
16188TIP3    H170055   3.345   4.535   2.337  0.5319 -0.1142 -0.0064
16188TIP3    H270056   3.438   4.601   2.237 -1.2314  1.4149 -0.7079
16189TIP3   OH270057   1.193   4.049   3.019 -0.2909  0.7877 -0.3411
16189TIP3    H170058   1.283   4.038   2.990 -0.2617  0.2203 -0.0447
16189TIP3    H270059   1.178   3.978   3.081 -1.7487 -0.8260 -2.3762
16190TIP3   OH270060   5.869   2.423  14.793  0.1556 -0.0257  0.4456
16190TIP3    H170061   5.854   2.400  14.885 -0.0498  0.6910  0.5927
16190TIP3    H270062   5.864   2.339  14.747 -1.5504 -0.1817  0.8558
16191TIP3   OH270063   6.814   6.674   3.343  0.5032  0.5991 -0.8202
16191TIP3    H170064   6.874   6.684   3.270  1.6274 -2.2862 -0.4239
16191TIP3    H270065   6.857   6.717   3.417  1.4827 -0.3084 -0.8506
16192TIP3   OH270066   1.387   1.938  10.533 -0.2126  0.0608  0.4914
16192TIP3    H170067   1.451   1.997  10.573  1.2780 -1.8214  1.0183
16192TIP3    H270068   1.411   1.851  10.565 -1.4918 -1.0316 -1.3241
16193TIP3   OH270069   6.150   3.335   3.715  0.2258 -0.3013 -0.2522
16193TIP3    H170070   6.192   3.406   3.666 -1.6962  0.1130 -1.3643
16193TIP3    H270071   6.221   3.273   3.732  1.7672  1.4292 -0.0330
16194TIP3   OH270072   1.988   3.152  11.766 -0.0307 -0.2336  0.3305
16194TIP3    H170073   1.972   3.063  11.797 -2.7366  0.2013  0.4225
16194TIP3    H270074   2.023   3.141  11.678 -0.9208 -1.4009  0.1070
16195TIP3   OH270075   4.459   4.878  13.629  0.2051 -0.0524 -0.3396
16195TIP3    H170076   4.374   4.880  13.584 -0.4489  1.5961  0.8639
16195TIP3    H270077   4.509   4.950  13.590 -0.1651  1.0379  1.1016
16196TIP3   OH270078   4.250   0.912  15.849  0.0507  0.5345 -0.4599
16196TIP3    H170079   4.166   0.867  15.841 -0.2884  0.6722  1.6502
16196TIP3    H270080   4.304   0.876  15.778 -1.2014 -0.8904 -0.7398
16197TIP3   OH270081   2.744   2.454  11.669  0.3370  0.2376  0.4774
16197TIP3    H170082   2.665   2.472  11.618 -1.2428 -2.5386  1.7079
16197TIP3    H270083   2.810   2.431  11.604 -0.7050 -0.1718 -0.4677
16198TIP3   OH270084   1.276   3.426  16.524 -0.5238 -0.3287  0.0723
16198TIP3    H170085   1.306   3.367  16.455 -1.2146 -0.6268  0.0204
16198TIP3    H270086   1.225   3.493  16.478 -3.5997 -2.1792  0.5121
16199TIP3   OH270087   0.894   6.209  12.437  0.7668 -0.5229 -0.2289
16199TIP3    H170088   0.955   6.223  12.508  1.4106  0.1489 -0.9032
16199TIP3    H270089   0.947   6.214  12.357  0.2073 -2.0241 -0.7403
16200TIP3   OH270090   0.331   6.649  10.297 -0.2674 -0.3123 -0.3011
16200TIP3    H170091   0.344   6.735  10.337 -1.1955  0.3728 -1.3831
16200TIP3    H270092   0.269   6.665  10.226  1.6431 -1.3581 -2.3383
16201TIP3   OH270093   6.771   5.634  16.171 -0.3930  0.2686 -0.0605
16201TIP3    H170094   6.839   5.699  16.191  0.9823 -0.7164 -1.2930
16201TIP3    H270095   6.758   5.588  16.254 -1.0892  1.7956  0.7254
16202TIP3   OH270096   3.805   2.696   0.830 -0.3672 -0.0095 -0.7345
16202TIP3    H170097   3.745   2.740   0.770  1.6759  1.7166 -1.6079
16202TIP3    H270098   3.861   2.642   0.774  0.4927  0.3223 -0.2034
16203TIP3   OH270099   4.690   1.846   0.900  0.5394  0.0587  0.2839
16203TIP3    H170100   4.710   1.938   0.921  1.2360  0.3613 -1.5822
16203TIP3    H270101   4.724   1.833   0.812  0.3157 -1.9745  0.4560
16204TIP3   OH270102   4.088   5.593  15.910  0.2006  0.1816 -0.1039
16204TIP3    H170103   4.092   5.502  15.879  1.9883 -0.4109  1.6566
16204TIP3    H270104   4.036   5.589  15.990  2.2741  0.1852  1.3395
16205TIP3   OH270105   3.865   2.894   4.480 -0.6707 -0.4907 -0.5804
16205TIP3    H170106   3.818   2.958   4.533  0.3884  0.4302 -0.7142
16205TIP3    H270107   3.884   2.940   4.398  0.5331 -0.7951 -0.4857
16206TIP3   OH270108   4.393   2.724  12.263 -0.0231  0.2105  0.0685
16206TIP3    H170109   4.437   2.721  12.178 -0.0149 -0.5311  0.0865
16206TIP3    H270110   4.411   2.638  12.301  0.9364  0.9334  1.3187
16207TIP3   OH270111   4.780   1.985   4.824  0.0674  0.1596 -0.0794
16207TIP3    H170112   4.699   2.035   4.833 -0.2255 -0.0637 -1.3043
16207TIP3    H270113   4.822   1.992   4.910 -2.2643 -1.4839  1.3086
16208TIP3   OH270114   5.507   4.708   1.450  0.0431  0.5452  0.7371
16208TIP3    H170115   5.437   4.667   1.400 -0.1277  0.5921  0.9346
16208TIP3    H270116   5.484   4.691   1.541  0.4771  0.2549  0.7956
16209TIP3   OH270117   4.953   3.770   5.130  0.6934 -0.3700  0.2600
16209TIP3    H170118   4.974   3.807   5.216  1.0472  0.9002 -0.3411
16209TIP3    H270119   5.004   3.824   5.068 -0.9554 -0.0600 -0.8928
16210TIP3   OH270120   6.540   3.447   3.967  0.7337  0.7851  0.4822
16210TIP3    H170121   6.479   3.405   4.028  0.1398  2.0360  0.7894
16210TIP3    H270122   6.515   3.540   3.969  1.4561  1.0260 -0.8009
16211TIP3   OH270123   2.355   6.625   0.100  0.1481  0.7411 -0.1202
16211TIP3    H170124   2.401   6.617   0.016  0.6148 -2.4338  0.2868
16211TIP3    H270125   2.423   6.647   0.163  0.2395  0.8005 -0.2389
16212TIP3   OH270126   3.881   0.854  16.569 -0.4822  0.4708  0.7211
16212TIP3    H170127   3.887   0.778  16.626 -1.6380  1.2125  1.8862
16212TIP3    H270128   3.966   0.898  16.578 -0.8090  0.8461  2.3068
16213TIP3   OH270129   5.480   6.354  11.994 -0.3278  0.6797 -0.0758
16213TIP3    H170130   5.495   6.343  11.900 -1.1519  0.4525 -0.1956
16213TIP3    H270131   5.546   6.417  12.022 -0.1629  0.8621 -0.8387
16214TIP3   OH270132   0.328   3.497  12.571  0.1673 -0.5692  0.3638
16214TIP3    H170133   0.282   3.414  12.586  2.2291 -1.8034  0.3435
16214TIP3    H270134   0.370   3.516  12.655  0.4793 -0.0405  0.0923
16215TIP3   OH270135   2.748   4.980  12.232 -0.6455  1.3651  0.2345
16215TIP3    H170136   2.741   5.057  12.176 -1.6019  0.8289 -0.4278
16215TIP3    H270137   2.675   4.924  12.205 -0.0151  0.2535  0.7289
16216TIP3   OH270138   6.722   6.322   4.327 -0.3061 -0.4075  0.3685
16216TIP3    H170139   6.672   6.328   4.409 -0.4754 -2.3294  0.4483
16216TIP3    H270140   6.813   6.334   4.354 -0.4618  0.2658  0.6300
16217TIP3   OH270141   0.702   5.280   2.370 -0.0451 -0.0969  0.5663
16217TIP3    H170142   0.669   5.190   2.377 -0.2166  0.0111  1.1849
16217TIP3    H270143   0.686   5.319   2.456  0.4202  0.3954  0.4399
16218TIP3   OH270144   6.478   0.870  10.479 -0.0388 -0.5033 -0.8077
16218TIP3    H170145   6.539   0.871  10.405  2.0739 -1.7103  0.7983
16218TIP3    H270146   6.468   0.962  10.503  2.7255 -0.3406  0.0302
16219TIP3   OH270147   4.569   4.014  11.968  0.0423 -0.3008  0.0091
16219TIP3    H170148   4.613   4.080  11.915  0.9222 -0.8966 -0.0254
16219TIP3    H270149   4.534   3.951  11.905 -0.2325 -0.2108  0.0704
16220TIP3   OH270150   4.969   1.296   3.797 -0.5821  0.1391 -0.3792
16220TIP3    H170151   4.930   1.321   3.713 -1.2675  1.3449  0.2658
16220TIP3    H270152   5.049   1.249   3.774  0.1468  1.9184 -1.6992
16221TIP3   OH270153   2.830   4.491   6.918 -0.6036 -0.1217 -0.4505
16221TIP3    H170154   2.904   4.431   6.930 -1.9718 -1.7829  0.2001
16221TIP3    H270155   2.858   4.573   6.958  0.8033 -0.7724 -0.0485
16222TIP3   OH270156   0.299   6.177   6.410 -0.0652  0.0850  0.3832
16222TIP3    H170157   0.213   6.138   6.428 -0.1472 -0.3725 -0.8979
16222TIP3    H270158   0.288   6.270   6.432 -0.3511 -0.2952  1.9041
16223TIP3   OH270159   5.452   3.726  16.852 -0.1387  0.1051  0.2400
16223TIP3    H170160   5.393   3.691  16.920 -0.3554  0.1076  0.0523
16223TIP3    H270161   5.465   3.817  16.877  0.9255 -0.2447  1.0885
16224TIP3   OH270162   5.221   1.207   5.500 -0.1829 -0.3269  0.4048
16224TIP3    H170163   5.221   1.135   5.562  0.1759  0.7273  1.6614
16224TIP3    H270164   5.310   1.208   5.464  0.0238 -0.0559  0.9252
16225TIP3   OH270165   5.702   3.348   3.119  0.3696 -0.0281 -0.3485
16225TIP3    H170166   5.695   3.290   3.043  1.0670  1.1698 -1.3734
16225TIP3    H270167   5.746   3.296   3.186 -0.7971 -1.3082 -0.5185
16226TIP3   OH270168   0.777   2.012  14.699  0.5210 -0.2150 -0.7203
16226TIP3    H170169   0.860   1.981  14.736  0.0228  1.1466  1.7355
16226TIP3    H270170   0.718   2.019  14.774 -1.1344  1.0776 -2.0497
16227TIP3   OH270171   5.012   3.169   4.267 -0.3926 -0.5954  0.1633
16227TIP3    H170172   4.949   3.171   4.339 -1.2416 -0.7328 -0.5566
16227TIP3    H270173   5.035   3.076   4.258  1.9354 -0.3150  2.0938
16228TIP3   OH270174   6.785   1.639  13.852 -0.1017 -0.1107 -0.0416
16228TIP3    H170175   6.800   1.674  13.940  0.7170  0.7356 -0.5009
16228TIP3    H270176   6.692   1.655  13.835 -0.9034 -2.3937  1.5468
16229TIP3   OH270177   4.874   4.769   3.886  0.5709 -0.2083  0.4314
16229TIP3    H170178   4.879   4.692   3.830  2.5751  0.4637 -0.3912
16229TIP3    H270179   4.955   4.766   3.938  0.3791  1.0090  0.8233
16230TIP3   OH270180   0.024   2.404  17.187 -0.1466  0.1364 -0.1401
16230TIP3    H170181  -0.010   2.408  17.276 -1.6296 -0.8097 -0.6275
16230TIP3    H270182  -0.040   2.452  17.135  0.3585  0.1179 -0.7923
16231TIP3   OH270183   6.079   4.977  13.439  0.2226  0.2068  0.8724
16231TIP3    H170184   6.156   4.969  13.495  1.0759  0.2246 -0.2696
16231TIP3    H270185   6.036   5.057  13.469  0.1455 -0.2561  2.0863
16232TIP3   OH270186   2.969   3.928   0.178  0.0253 -0.1471 -0.2159
16232TIP3    H170187   3.056   3.966   0.191  0.6967 -1.3623 -1.0193
16232TIP3    H270188   2.921   3.951   0.258  1.5583 -0.7332  0.9306
16233TIP3   OH270189   6.252   5.747  13.724  0.2380  0.4323 -0.1783
16233TIP3    H170190   6.286   5.773  13.810  0.5443  0.1419 -0.2086
16233TIP3    H270191   6.170   5.795  13.715 -0.1052 -0.0011  0.5386
16234TIP3   OH270192   5.152   2.735   3.819 -0.2933  0.2856 -0.1636
16234TIP3    H170193   5.235   2.754   3.863 -1.9384  0.1731  3.3108
16234TIP3    H270194   5.104   2.818   3.822 -1.1335 -0.1956 -0.1133
16235TIP3   OH270195   0.027   2.439  15.992  0.2912  0.7685  0.0103
16235TIP3    H170196  -0.033   2.364  15.990  0.6675  0.4802 -0.7430
16235TIP3    H270197  -0.024   2.511  15.954  0.7625  0.2442 -1.7216
16236TIP3   OH270198   3.959   5.663   3.126 -0.2943  0.0112  0.4695
16236TIP3    H170199   3.926   5.659   3.216  1.0005  0.9523  1.0237
16236TIP3    H270200   4.033   5.602   3.126 -1.0950 -1.0019 -0.3585
16237TIP3   OH270201   6.161   0.734   1.168 -0.1487  0.0324 -0.2427
16237TIP3    H170202   6.097   0.802   1.189  0.8377  1.0068 -0.3061
16237TIP3    H270203   6.113   0.672   1.114 -1.4616 -0.0733  0.9775
16238TIP3   OH270204   4.638   3.252   2.956  0.2330 -0.2830  0.6726
16238TIP3    H170205   4.629   3.157   2.964 -2.1713 -0.0488  1.8217
16238TIP3    H270206   4.656   3.283   3.045 -0.3437  0.4138  0.5627
16239TIP3   OH270207   4.653   1.181   4.620  0.3830 -0.3244  0.0037
16239TIP3    H170208   4.643   1.266   4.663 -3.9490 -0.2526 -0.6847
16239TIP3    H270209   4.678   1.121   4.690 -0.2075  0.8740  1.2845
16240TIP3   OH270210   0.565   0.024  17.142 -0.2125  0.0949 -0.5574
16240TIP3    H170211   0.611  -0.032  17.205 -0.9943  0.0400 -0.0246
16240TIP3    H270212   0.547   0.105  17.190 -1.1567 -0.0929 -0.5795
16241TIP3   OH270213   3.029   5.801   1.502 -0.0448 -0.2559  0.4356
16241TIP3    H170214   3.091   5.795   1.429 -0.1483  0.2384  0.3048
16241TIP3    H270215   3.085   5.804   1.580  0.1308  0.6129  0.2958
16242TIP3   OH270216   0.470   6.818  14.124 -0.3325 -0.1662  0.0966
16242TIP3    H170217   0.540   6.824  14.190 -1.0395  1.6560  0.7601
16242TIP3    H270218   0.413   6.892  14.144 -1.5085 -0.5910 -1.5240
16243TIP3   OH270219   1.701   2.632  15.122  0.0018 -0.2191 -0.0923
16243TIP3    H170220   1.772   2.568  15.116 -0.0198 -0.3243  0.6226
16243TIP3    H270221   1.651   2.622  15.041 -0.2400 -1.3903  0.1862
16244TIP3   OH270222   5.851   4.667  14.066  0.2585  0.5040  0.2703
16244TIP3    H170223   5.773   4.663  14.011 -0.3429  0.9443  1.0700
16244TIP3    H270224   5.826   4.624  14.147  0.0189  2.7378  1.4754
16245TIP3   OH270225   1.383   0.313  16.630 -0.4220  0.0858 -0.2691
16245TIP3    H170226   1.290   0.327  16.649 -0.6858 -1.8689  0.1526
16245TIP3    H270227   1.400   0.363  16.551 -1.5733  1.3006  0.2278
16246TIP3   OH270228   1.848   3.457  15.645  0.2120  0.4907  0.8101
16246TIP3    H170229   1.943   3.470  15.649  0.4937 -0.8960 -0.5120
16246TIP3    H270230   1.821   3.454  15.737  1.2687  1.9386  1.2033
16247TIP3   OH270231   2.305   6.628  11.401 -0.7372 -0.8394 -0.1075
16247TIP3    H170232   2.292   6.536  11.424  0.9417 -1.0239  0.2031
16247TIP3    H270233   2.389   6.651  11.441 -1.3507  0.9752  0.2308
16248TIP3   OH270234   1.949   4.837  16.486  0.6518  0.0269 -0.4276
16248TIP3    H170235   1.932   4.746  16.509 -1.4299  0.6743  0.9515
16248TIP3    H270236   1.936   4.841  16.391  1.3604 -1.1963 -0.5970
16249TIP3   OH270237   4.905   4.137  15.131  0.6469  0.7628  0.3383
16249TIP3    H170238   4.996   4.131  15.102 -0.1234 -0.2941 -2.1334
16249TIP3    H270239   4.856   4.160  15.053 -1.7024 -2.8163  0.5155
16250TIP3   OH270240   5.319   4.217  15.996 -0.3105  0.0663  0.1216
16250TIP3    H170241   5.322   4.190  16.088 -0.6771 -1.2713 -0.2372
16250TIP3    H270242   5.405   4.192  15.961 -0.2583  0.3609  0.0311
16251TIP3   OH270243   3.894   4.966  10.946 -0.2706 -0.4341  0.1384
16251TIP3    H170244   3.867   5.020  10.873  4.1566  0.1955 -1.3765
16251TIP3    H270245   3.883   4.876  10.915 -2.4818 -0.3269  0.5005
16252TIP3   OH270246   1.988   6.767   1.187  0.0158 -0.7257  0.2686
16252TIP3    H170247   1.954   6.683   1.157  1.0625 -1.0615 -0.0079
16252TIP3    H270248   1.982   6.825   1.111 -1.5644 -0.2639  0.7116
16253TIP3   OH270249   2.398   2.469  14.029 -0.4951 -0.4065  0.2586
16253TIP3    H170250   2.304   2.479  14.048 -0.4675 -1.0458  0.7874
16253TIP3    H270251   2.419   2.382  14.063 -0.0146 -0.8424 -1.1127
16254TIP3   OH270252   4.684   1.272   1.157 -0.0667 -0.1730  0.5063
16254TIP3    H170253   4.649   1.358   1.137  0.7116 -0.0707 -0.5030
16254TIP3    H270254   4.609   1.213   1.151 -0.3587  0.2476 -0.1335
16255TIP3   OH270255   2.148   1.169  15.177  0.0308 -0.2456 -0.3531
16255TIP3    H170256   2.225   1.128  15.137  0.5634  1.2740 -0.9652
16255TIP3    H270257   2.102   1.097  15.220  2.6433 -0.9685  1.4676
16256TIP3   OH270258   1.502   6.400  11.080  0.2767  0.4564 -0.5943
16256TIP3    H170259   1.524   6.483  11.038  1.3635  0.5760  0.1609
16256TIP3    H270260   1.412   6.382  11.054  0.4834  1.1844 -1.8769
16257TIP3   OH270261   2.113   0.275   2.331  0.1431  0.3032  0.1313
16257TIP3    H170262   2.192   0.233   2.295  2.1172  0.7929  3.5158
16257TIP3    H270263   2.056   0.286   2.255  2.7372 -1.3408 -2.2680
16258TIP3   OH270264   0.683   2.979  14.332  0.3172  0.0338  0.5433
16258TIP3    H170265   0.696   2.979  14.237  2.0145 -0.7362  0.7403
16258TIP3    H270266   0.765   3.015  14.367  0.5711 -1.6288  1.7843
16259TIP3   OH270267   5.110   5.323   1.298 -0.3599 -0.2440  0.1938
16259TIP3    H170268   5.108   5.416   1.321 -1.0788 -0.7787  2.5416
16259TIP3    H270269   5.184   5.315   1.237 -1.6530  2.2044 -1.9175
16260TIP3   OH270270   2.401   4.119   3.286 -0.6760  0.2396  0.5642
16260TIP3    H170271   2.323   4.146   3.335 -2.0922 -1.2910 -0.6987
16260TIP3    H270272   2.417   4.190   3.225 -2.0910 -0.1165 -0.2482
16261TIP3   OH270273   0.382   5.182   3.437 -1.0387  0.3964  0.3010
16261TIP3    H170274   0.471   5.216   3.446 -0.5835 -0.9411  1.1192
16261TIP3    H270275   0.374   5.163   3.343 -0.0501 -0.4912  0.3727
16262TIP3   OH270276   2.393   4.624   3.265 -0.4433  0.0292  0.5453
16262TIP3    H170277   2.398   4.719   3.275  0.3238 -0.0898  1.5386
16262TIP3    H270278   2.468   4.591   3.315 -1.9036 -1.2120  2.0466
16263TIP3   OH270279   4.999   2.329   4.078  0.6882  0.4627  0.0135
16263TIP3    H170280   4.964   2.240   4.081 -1.4916  1.2287 -0.9230
16263TIP3    H270281   4.933   2.383   4.122  1.7095  1.7046  0.0954
16264TIP3   OH270282   1.022   3.928   3.378  0.0791  0.0790  1.1084
16264TIP3    H170283   1.108   3.912   3.340 -0.2323  1.5327 -0.3079
16264TIP3    H270284   1.015   4.024   3.382 -0.4951  0.0093  3.5470
16265TIP3   OH270285   5.050   3.014  15.168 -0.2339  0.5900  0.3539
16265TIP3    H170286   4.998   3.013  15.248 -1.8414  1.6445 -0.5993
16265TIP3    H270287   5.078   3.105  15.159  0.7890  0.2723  0.2263
16266TIP3   OH270288   1.746   3.642  13.700  0.2820  0.3642  0.6389
16266TIP3    H170289   1.741   3.551  13.729 -1.4842 -0.7598 -2.6440
16266TIP3    H270290   1.661   3.680  13.725  0.9561  1.1660  1.8710
16267TIP3   OH270291   1.357   4.504  13.042  0.0533 -0.4852 -0.3634
16267TIP3    H170292   1.404   4.534  13.120 -0.0115 -0.0145 -0.5078
16267TIP3    H270293   1.313   4.581  13.008 -0.2019 -0.7626 -0.6736
16268TIP3   OH270294   3.724   6.639  16.919  0.3578 -0.6131  0.2260
16268TIP3    H170295   3.819   6.644  16.907  0.4231  0.2149  1.0342
16268TIP3    H270296   3.690   6.715  16.871  0.0507 -1.2016 -0.5042
16269TIP3   OH270297   1.896   6.689  15.161  0.1409  0.2890  0.2936
16269TIP3    H170298   1.872   6.597  15.158 -0.4076  0.4263  0.3387
16269TIP3    H270299   1.987   6.690  15.189  0.2214 -0.2473  0.0564
16270TIP3   OH270300   0.200   4.663  14.498 -0.4339 -0.0880  0.3284
16270TIP3    H170301   0.222   4.738  14.554 -2.4324  1.4301 -0.7913
16270TIP3    H270302   0.247   4.679  14.416 -0.0358 -0.6275  0.4468
16271TIP3   OH270303   6.582   1.998  15.875  0.1712  0.1472  0.0040
16271TIP3    H170304   6.562   1.949  15.796 -1.5565  1.8887 -0.7389
16271TIP3    H270305   6.657   1.953  15.914 -1.2168 -2.9631 -0.6137
16272TIP3   OH270306   6.225   4.211  13.951  0.4709  0.2312  0.3915
16272TIP3    H170307   6.219   4.174  14.039  0.6834 -2.0737 -0.4854
16272TIP3    H270308   6.143   4.258  13.939 -1.8211 -3.4415  0.1983
16273TIP3   OH270309   3.500   4.825   3.734  0.2336 -0.7089 -0.1228
16273TIP3    H170310   3.407   4.809   3.721  0.0590  0.6150 -0.6609
16273TIP3    H270311   3.507   4.860   3.823  0.1991 -0.7027 -0.1227
16274TIP3   OH270312   0.831   4.277  16.933  0.1143 -0.0472 -0.8187
16274TIP3    H170313   0.750   4.320  16.958  0.4708  0.1085  0.1086
16274TIP3    H270314   0.892   4.296  17.005 -0.1146 -3.2806  0.4418
16275TIP3   OH270315   0.820   5.395  13.501  0.0391 -0.1645  0.5684
16275TIP3    H170316   0.811   5.490  13.491 -1.2973 -0.3382 -0.0648
16275TIP3    H270317   0.910   5.383  13.533  1.1407  1.1650 -1.7547
16276TIP3   OH270318   3.428   6.313  14.181  0.2144 -0.2080 -0.1605
16276TIP3    H170319   3.478   6.330  14.261  0.8122  0.5437 -0.6825
16276TIP3    H270320   3.368   6.242  14.205  2.2607 -1.9041  0.1860
16277TIP3   OH270321   2.750   4.406  12.452 -0.0099 -0.1432 -0.2237
16277TIP3    H170322   2.703   4.350  12.390 -2.5665 -0.6891  2.0269
16277TIP3    H270323   2.741   4.494  12.416 -1.4969 -0.4411 -0.6622
16278TIP3   OH270324   4.673   3.723   4.494  0.1022  0.2686  0.5639
16278TIP3    H170325   4.679   3.680   4.580  0.7462  1.5589  1.1985
16278TIP3    H270326   4.580   3.727   4.475 -0.1182  0.8732  1.6935
16279TIP3   OH270327   0.253   2.078  10.970 -0.3633 -0.5178  0.5553
16279TIP3    H170328   0.169   2.101  10.930 -0.2321 -0.0374  0.5484
16279TIP3    H270329   0.291   2.014  10.910 -1.0577 -1.3221  0.9454
16280TIP3   OH270330   3.261   0.569   1.576  0.0465 -0.2803 -0.0898
16280TIP3    H170331   3.285   0.639   1.515 -0.6633  1.7752  1.8587
16280TIP3    H270332   3.344   0.533   1.605  0.5976  1.5632  0.7987
16281TIP3   OH270333   4.666   1.686  11.544  0.0672  0.0233 -0.1806
16281TIP3    H170334   4.695   1.762  11.495 -1.0412  0.3816 -0.3153
16281TIP3    H270335   4.573   1.702  11.560  0.7910  1.2446  4.3077
16282TIP3   OH270336   3.463   6.590  12.895 -0.5227  0.1129  0.2053
16282TIP3    H170337   3.512   6.517  12.858 -1.4199  0.6243 -2.2473
16282TIP3    H270338   3.442   6.563  12.984  1.4861 -1.4168  0.2813
16283TIP3   OH270339   1.049   0.566   1.113 -0.0779  0.2965  0.2261
16283TIP3    H170340   1.126   0.513   1.135  0.1941  0.9158  0.7998
16283TIP3    H270341   1.054   0.578   1.018  0.0781 -0.3457  0.1439
16284TIP3   OH270342   3.175   0.558   2.686  0.2749  0.7442  0.3935
16284TIP3    H170343   3.127   0.525   2.610  1.0619  0.6773 -0.0855
16284TIP3    H270344   3.159   0.652   2.685  1.6048  0.9854 -0.8274
16285TIP3   OH270345   4.682   1.343   6.080 -0.0115  0.5772  0.1124
16285TIP3    H170346   4.776   1.345   6.094  0.1738 -0.1536 -0.9369
16285TIP3    H270347   4.652   1.430   6.107  1.2179  1.4649 -1.2633
16286TIP3   OH270348   4.710   3.130  16.326 -0.3587 -0.6164  0.1162
16286TIP3    H170349   4.719   3.038  16.350 -2.5330 -0.4489  1.9244
16286TIP3    H270350   4.706   3.130  16.230 -2.2271 -2.6621  0.1207
16287TIP3   OH270351   1.595   3.193   4.101 -0.8825 -0.1113 -0.1003
16287TIP3    H170352   1.669   3.214   4.158 -0.3501 -0.8311 -0.5057
16287TIP3    H270353   1.619   3.109   4.061 -1.9200 -0.3489 -0.2396
16288TIP3   OH270354   3.357   0.981   5.708 -0.6086  0.0216 -0.3675
16288TIP3    H170355   3.270   0.962   5.744 -0.8541  1.5123 -0.1319
16288TIP3    H270356   3.351   1.071   5.677  1.8619  1.4443  2.7861
16289TIP3   OH270357   1.710   0.684   6.200 -0.1421  0.4505 -0.2371
16289TIP3    H170358   1.791   0.712   6.158  1.3028 -1.5903  1.0216
16289TIP3    H270359   1.715   0.588   6.202 -1.6752  0.3387  1.6090
16290TIP3   OH270360   1.512   6.455   2.839  0.2316  0.0039 -0.2852
16290TIP3    H170361   1.607   6.466   2.840  0.1475  0.8250 -0.4329
16290TIP3    H270362   1.495   6.403   2.760  0.8115 -2.9998  1.4518
16291TIP3   OH270363   6.381   5.587   0.159  0.7501 -0.0807 -0.2607
16291TIP3    H170364   6.327   5.514   0.126  0.8200 -0.8522  1.2079
16291TIP3    H270365   6.464   5.578   0.113  1.3301 -1.9635  0.9950
16292TIP3   OH270366   0.689   6.120   5.160  0.4630  0.2176 -0.2875
16292TIP3    H170367   0.731   6.204   5.174  1.1313  0.3871 -2.8000
16292TIP3    H270368   0.601   6.141   5.130  0.3464 -0.0060 -0.1101
16293TIP3   OH270369   0.437   3.153  15.087 -0.3231  0.4392 -0.3244
16293TIP3    H170370   0.352   3.113  15.106  0.2799 -0.3141  0.9206
16293TIP3    H270371   0.460   3.120  15.000 -1.4486  0.9166 -0.8074
16294TIP3   OH270372   2.648   6.292   6.139 -0.5489 -0.5196 -0.3364
16294TIP3    H170373   2.557   6.305   6.163 -0.0352  0.3465  1.2778
16294TIP3    H270374   2.659   6.341   6.058 -1.6992 -1.3364 -1.0137
16295TIP3   OH270375   3.633   4.958   5.467 -0.1388  0.3459  0.5707
16295TIP3    H170376   3.702   4.920   5.522  0.7451  1.2425  0.1026
16295TIP3    H270377   3.670   4.958   5.379 -1.7496 -1.6203 -0.2014
16296TIP3   OH270378   1.520   0.104  16.922  0.7247  0.0099  0.3213
16296TIP3    H170379   1.532   0.161  16.999 -0.1491  0.8942 -0.1696
16296TIP3    H270380   1.561   0.021  16.947  3.2683  1.2346  0.5735
16297TIP3   OH270381   5.485   1.914  12.109  0.5051  0.0225  0.3858
16297TIP3    H170382   5.485   1.821  12.088  0.0632  0.0551  0.2252
16297TIP3    H270383   5.415   1.951  12.055  2.4784  0.9541 -1.7185
16298TIP3   OH270384   3.589   5.515  16.215  0.7122  0.3780  0.0680
16298TIP3    H170385   3.495   5.509  16.199  0.7949  1.6909 -1.0909
16298TIP3    H270386   3.610   5.434  16.261 -0.7803 -0.4601 -0.6332
16299TIP3   OH270387   3.678   6.217   4.046  0.2576 -0.0345  0.9990
16299TIP3    H170388   3.598   6.174   4.076 -0.1923  0.2372  0.2024
16299TIP3    H270389   3.728   6.233   4.127 -0.9430  0.7173  1.6277
16300TIP3   OH270390   6.139   6.369  14.788  0.6702  0.0597  0.0644
16300TIP3    H170391   6.130   6.274  14.795  0.6485  0.0473 -0.1165
16300TIP3    H270392   6.091   6.403  14.863  1.1773 -0.0900  0.4681
16301TIP3   OH270393   0.472   4.741  13.622 -0.2488 -0.0949 -0.4780
16301TIP3    H170394   0.392   4.792  13.610  0.1362  1.1915  1.7939
16301TIP3    H270395   0.483   4.736  13.717  2.0565 -0.7476 -0.7187
16302TIP3   OH270396   1.303   6.021  14.016 -0.7295 -0.1708 -0.6150
16302TIP3    H170397   1.316   5.951  13.951 -0.1196 -0.5485 -0.0946
16302TIP3    H270398   1.373   6.008  14.080  0.9776  2.4331 -1.7936
16303TIP3   OH270399   4.924   5.003   2.949 -0.6994  0.2010  0.3849
16303TIP3    H170400   4.888   5.081   2.906  3.5474  1.7446 -0.9069
16303TIP3    H270401   4.983   5.038   3.015 -0.5411 -2.0630  1.5150
16304TIP3   OH270402   0.685   2.560  17.169  0.1113  0.7665 -0.3752
16304TIP3    H170403   0.728   2.514  17.097  1.3863 -0.8798  1.3360
16304TIP3    H270404   0.652   2.641  17.130  1.5896  0.3842 -2.5824
16305TIP3   OH270405   4.286   1.596   5.174 -0.0091  0.0894  0.2464
16305TIP3    H170406   4.361   1.647   5.143 -0.0723 -0.2227 -0.4313
16305TIP3    H270407   4.261   1.542   5.099 -0.9477  0.2323  0.4505
16306TIP3   OH270408   5.161   0.613   3.237  0.4757 -0.2477 -0.2917
16306TIP3    H170409   5.226   0.624   3.168  1.1769 -2.4898 -0.0364
16306TIP3    H270410   5.099   0.549   3.202 -0.0055 -0.2872  0.5960
16307TIP3   OH270411   4.505   5.386   2.106  0.6789 -0.1031 -0.1280
16307TIP3    H170412   4.509   5.328   2.030  1.8149  0.8027 -0.7897
16307TIP3    H270413   4.436   5.348   2.161  0.1461 -1.0361 -1.3814
16308TIP3   OH270414   1.027   1.022   5.130  0.1749  0.8577 -0.0730
16308TIP3    H170415   1.092   0.993   5.194 -0.9627 -1.9801 -0.0324
16308TIP3    H270416   0.943   0.992   5.166 -0.6241  0.2537 -2.2839
16309TIP3   OH270417   2.852   0.124   5.726 -0.0267  0.1951 -0.3409
16309TIP3    H170418   2.797   0.082   5.793 -0.2873 -0.7409 -1.1084
16309TIP3    H270419   2.912   0.179   5.775 -0.0712 -0.6373  0.6900
16310TIP3   OH270420   4.669   4.419   4.108 -0.2855  0.1035 -0.5901
16310TIP3    H170421   4.649   4.416   4.015 -0.3187 -0.2954 -0.5732
16310TIP3    H270422   4.682   4.327   4.133  3.5701  0.3634 -1.0235
16311TIP3   OH270423   1.928   0.490  12.896  0.5426 -0.1834 -0.0983
16311TIP3    H170424   1.962   0.404  12.871  0.9860 -0.0061 -0.1262
16311TIP3    H270425   1.989   0.521  12.963 -1.0968 -1.0102  1.8720
16312TIP3   OH270426   4.051   3.375   5.763 -0.5028  0.1938 -0.6466
16312TIP3    H170427   4.111   3.429   5.814 -0.2024 -0.3260 -0.4433
16312TIP3    H270428   3.968   3.379   5.810  0.2056 -1.6609  0.8668
16313TIP3   OH270429   5.049   6.198   3.488  0.3983  0.3801  0.4368
16313TIP3    H170430   5.051   6.239   3.574  2.6718  2.2882 -0.4270
16313TIP3    H270431   5.060   6.270   3.426  1.8166 -1.2065 -1.3088
16314TIP3   OH270432   6.551   4.534   0.991  0.1302  0.0769 -0.3703
16314TIP3    H170433   6.532   4.454   0.943 -0.3770 -0.2199  0.3078
16314TIP3    H270434   6.469   4.583   0.990  0.2705  0.3160 -0.2803
16315TIP3   OH270435   6.206   2.945  14.507  0.3744  0.0822 -0.5677
16315TIP3    H170436   6.224   2.879  14.440  4.1772 -0.5975  0.8828
16315TIP3    H270437   6.247   2.911  14.586 -1.7248  2.0397  1.5140
16316TIP3   OH270438   0.356   0.134  11.954  0.2388  0.7229 -0.3400
16316TIP3    H170439   0.372   0.099  11.866 -1.1831  1.4246 -0.9163
16316TIP3    H270440   0.396   0.070  12.013  0.3720 -0.2707 -1.4613
16317TIP3   OH270441   0.019   6.215  11.882 -0.5330 -0.6291 -0.0316
16317TIP3    H170442   0.078   6.265  11.825  0.8893  0.0807  1.9219
16317TIP3    H270443  -0.062   6.206  11.832  0.1832  1.0914 -1.6128
16318TIP3   OH270444   6.421   2.487   0.996  0.3167  0.2856  0.4531
16318TIP3    H170445   6.385   2.399   1.006 -0.5133  0.7110  1.4412
16318TIP3    H270446   6.370   2.526   0.925  1.2828 -0.3009 -0.6002
16319TIP3   OH270447   2.653   0.792   3.579  0.5863  1.0153 -0.2286
16319TIP3    H170448   2.683   0.716   3.630 -0.2723  0.7239 -0.1373
16319TIP3    H270449   2.716   0.798   3.507  0.5069  0.0295 -0.4021
16320TIP3   OH270450   2.730   3.881  12.625 -0.9640  0.1753 -0.2233
16320TIP3    H170451   2.779   3.954  12.663  0.9626 -1.2191  0.1044
16320TIP3    H270452   2.777   3.859  12.545  0.5111 -2.6720  1.2464
16321TIP3   OH270453   3.817   0.396  12.999  0.3828  0.3352 -0.1174
16321TIP3    H170454   3.884   0.406  13.067 -0.5938 -1.2191  1.1706
16321TIP3    H270455   3.807   0.301  12.990 -0.6956  0.5341 -1.2391
16322TIP3   OH270456   5.124   6.493   5.731 -0.4188 -0.0117  0.1986
16322TIP3    H170457   5.196   6.449   5.686  2.9108  2.0847  2.9234
16322TIP3    H270458   5.110   6.574   5.681 -1.5215 -0.7530 -0.7516
16323TIP3   OH270459   2.375   1.484   4.239 -0.4011  0.2646 -0.2372
16323TIP3    H170460   2.391   1.576   4.218 -0.1306 -0.0609 -1.5348
16323TIP3    H270461   2.362   1.442   4.154  0.7031 -1.1220  0.2519
16324TIP3   OH270462   5.463   5.220  10.259  0.0737  0.4874  0.6658
16324TIP3    H170463   5.374   5.219  10.222  0.0614 -1.7610  0.5889
16324TIP3    H270464   5.450   5.234  10.353 -0.3936  0.1503  0.6577
16325TIP3   OH270465   2.975   6.668   3.659  0.1744 -0.0849 -0.2042
16325TIP3    H170466   3.020   6.643   3.579  0.5523 -1.4955  0.4084
16325TIP3    H270467   3.035   6.643   3.729  0.8469  3.1678  0.5328
16326TIP3   OH270468   3.509   5.148   5.872  0.3211 -0.0710 -0.1415
16326TIP3    H170469   3.444   5.217   5.864 -0.3313 -0.6093  0.4231
16326TIP3    H270470   3.533   5.148   5.965  1.1116  0.0989 -0.3341
16327TIP3   OH270471   1.485   0.092   5.895  0.6772  0.1564 -0.0708
16327TIP3    H170472   1.450   0.047   5.818 -1.6538 -0.5858  1.3152
16327TIP3    H270473   1.572   0.123   5.867  0.3936 -1.0357 -2.6027
16328TIP3   OH270474   4.984   2.012   2.567 -0.9737 -0.0224  0.1410
16328TIP3    H170475   4.976   2.040   2.475 -0.2125  1.6244  0.5348
16328TIP3    H270476   5.008   1.920   2.562  0.5050  0.3944 -1.3793
16329TIP3   OH270477   6.536   3.795   3.680 -0.2444  0.5403 -0.4305
16329TIP3    H170478   6.527   3.762   3.770  0.5488  2.9242  0.6200
16329TIP3    H270479   6.488   3.878   3.681 -0.2089  0.6094 -2.2386
16330TIP3   OH270480   3.947   3.411   4.913  0.1547  0.0708 -0.0991
16330TIP3    H170481   4.042   3.423   4.907 -0.0316  1.2944 -0.8787
16330TIP3    H270482   3.921   3.464   4.989  0.0008  0.3372 -0.3380
16331TIP3   OH270483   5.478   4.107   5.131 -0.4037 -0.4370 -0.1597
16331TIP3    H170484   5.419   4.145   5.066  1.5221  0.6858 -1.3207
16331TIP3    H270485   5.485   4.174   5.199  0.0086 -0.3243 -0.3154
16332TIP3   OH270486   0.069   4.904   3.036 -0.5211 -0.3536 -0.1494
16332TIP3    H170487   0.134   4.841   3.069  0.7841  1.5264  1.0445
16332TIP3    H270488   0.120   4.966   2.984 -1.6135  0.3081 -0.4571
16333TIP3   OH270489   3.511   3.443   0.256 -0.0136 -0.0639  0.1255
16333TIP3    H170490   3.568   3.507   0.297 -0.3355 -0.3701  1.0666
16333TIP3    H270491   3.555   3.423   0.173  0.7919  0.3515  0.4331
16334TIP3   OH270492   5.882   3.209   2.747 -0.3958 -0.0609  0.5900
16334TIP3    H170493   5.827   3.240   2.675  1.3787 -1.0304 -1.2852
16334TIP3    H270494   5.920   3.289   2.784  1.0092  0.3674 -1.5744
16335TIP3   OH270495   5.374   1.242  13.150 -0.1235  0.2600  0.4853
16335TIP3    H170496   5.415   1.318  13.109 -1.6345  0.4049 -0.8430
16335TIP3    H270497   5.329   1.278  13.227  0.3362  0.4569  0.6685
16336TIP3   OH270498   0.235   6.249   3.632 -0.3564 -0.7546  0.2370
16336TIP3    H170499   0.313   6.214   3.675  0.2042 -0.2655 -0.3613
16336TIP3    H270500   0.259   6.254   3.539 -1.9322 -2.8500 -0.3643
16337TIP3   OH270501   1.834   2.534   2.786  0.1748  0.2893  0.5134
16337TIP3    H170502   1.790   2.613   2.751 -0.9299 -0.0207  1.1513
16337TIP3    H270503   1.907   2.568   2.838 -1.6107  1.0668  2.6664
16338TIP3   OH270504   3.661   5.096   2.623 -0.2937 -0.3465 -0.1266
16338TIP3    H170505   3.691   5.021   2.675 -0.0207 -0.4435 -0.4194
16338TIP3    H270506   3.692   5.172   2.672  2.3601 -0.4446 -1.4938
16339TIP3   OH270507   3.285   6.139   5.583 -0.2102  0.3576  0.0817
16339TIP3    H170508   3.246   6.150   5.669 -0.0659 -1.9630  0.5206
16339TIP3    H270509   3.236   6.067   5.543  1.2961 -0.2720 -0.7522
16340TIP3   OH270510   6.639   6.573   4.588 -0.3817 -0.1164  0.1335
16340TIP3    H170511   6.618   6.600   4.677 -0.7262 -1.2075  0.3964
16340TIP3    H270512   6.564   6.601   4.536 -0.4790 -0.0701  0.2987
16341TIP3   OH270513   1.042   5.037   2.983  0.2018 -0.3997  0.3128
16341TIP3    H170514   1.136   5.023   2.968  0.3821  0.7249  0.3266
16341TIP3    H270515   1.037   5.073   3.072 -0.2522 -0.5195  0.3371
16342TIP3   OH270516   1.014   5.773   1.284  0.5220  0.9633  0.1948
16342TIP3    H170517   0.942   5.766   1.221  1.2740  0.3707 -0.6240
16342TIP3    H270518   1.064   5.849   1.254  1.6142 -0.0860 -0.7249
16343TIP3   OH270519   4.263   4.402  16.482 -0.7836  0.4398  0.0881
16343TIP3    H170520   4.311   4.484  16.470 -1.6878  0.8441 -0.8783
16343TIP3    H270521   4.258   4.364  16.395  1.6932 -1.8974  0.8023
16344TIP3   OH270522   4.314   0.590   4.597 -0.4723 -0.2971 -0.3096
16344TIP3    H170523   4.405   0.580   4.625  0.0675  0.4828 -1.6715
16344TIP3    H270524   4.274   0.645   4.664  0.0160 -0.7599  0.3774
16345TIP3   OH270525   1.934   1.219  15.709  0.3397 -0.3324 -0.0507
16345TIP3    H170526   1.869   1.153  15.734  0.8196 -0.8181 -0.0550
16345TIP3    H270527   1.964   1.191  15.622 -1.5284  1.4918 -1.3903
16346TIP3   OH270528   1.318   1.999   6.176 -0.1086  0.0956 -0.2340
16346TIP3    H170529   1.231   2.040   6.181 -0.4669 -0.5188 -1.1502
16346TIP3    H270530   1.375   2.059   6.224 -1.1286  0.2437  0.8629
16347TIP3   OH270531   2.275   5.596  15.144 -0.2773 -0.3517 -0.1098
16347TIP3    H170532   2.332   5.618  15.218  0.1354 -0.4400 -0.4009
16347TIP3    H270533   2.286   5.502  15.132 -1.5847 -0.6379  0.7482
16348TIP3   OH270534   6.591   3.596   2.145 -0.3004 -0.2736  0.4728
16348TIP3    H170535   6.659   3.625   2.084 -0.4958 -0.4153  0.1827
16348TIP3    H270536   6.523   3.560   2.088 -1.9049  2.4104  0.5405
16349TIP3   OH270537   0.550   6.072   6.392  0.4334  0.0866 -0.0971
16349TIP3    H170538   0.530   5.980   6.374  1.3075 -0.1662  0.2076
16349TIP3    H270539   0.464   6.114   6.396 -0.1425 -1.1358  1.9751
16350TIP3   OH270540   3.569   0.515  13.994  0.1798 -0.2096 -0.0362
16350TIP3    H170541   3.573   0.443  14.058 -0.8760 -2.2023 -2.0441
16350TIP3    H270542   3.483   0.505  13.953  0.1119  2.0961 -0.5826
16351TIP3   OH270543   3.234   1.352  13.865  0.0849 -0.2071  0.2605
16351TIP3    H170544   3.283   1.293  13.808  1.1765  1.5606 -0.7233
16351TIP3    H270545   3.301   1.395  13.918 -0.7014  0.0491  1.0771
16352TIP3   OH270546   2.130   1.635  16.964  0.3369  0.4177 -0.1214
16352TIP3    H170547   2.173   1.565  17.012  0.8613 -0.1678 -1.4087
16352TIP3    H270548   2.200   1.697  16.943  0.6346 -0.5230 -2.1949
16353TIP3   OH270549   1.967   5.898   2.150  0.0711 -0.5800  0.0840
16353TIP3    H170550   1.967   5.839   2.075 -0.9110 -1.2189  0.5679
16353TIP3    H270551   2.023   5.971   2.123 -0.5157 -0.6395 -1.3994
16354TIP3   OH270552   2.026   5.357  13.600 -0.5019  0.3272 -0.1451
16354TIP3    H170553   2.106   5.362  13.548 -1.5054  0.5184 -1.7622
16354TIP3    H270554   1.981   5.280  13.565 -1.6572  1.0339 -0.2534
16355TIP3   OH270555   4.527   6.264  12.270  0.3340 -0.3040 -0.3438
16355TIP3    H170556   4.570   6.311  12.199 -0.7363  0.7481 -0.3343
16355TIP3    H270557   4.518   6.328  12.340 -0.0840 -0.8664  0.1311
16356TIP3   OH270558   4.975   4.948  12.185 -0.2497  0.0263  0.6866
16356TIP3    H170559   5.025   4.976  12.109  0.7179 -0.8948  0.9559
16356TIP3    H270560   4.887   4.931  12.152 -0.0578  0.4452 -0.0490
16357TIP3   OH270561   6.575   0.270  13.592  0.3308 -0.6141  0.7882
16357TIP3    H170562   6.503   0.259  13.529  1.6324 -1.3540 -0.6213
16357TIP3    H270563   6.625   0.344  13.559  1.3205 -1.3335  0.6319
16358TIP3   OH270564   5.355   2.357   5.675  0.0396  0.5621 -0.2688
16358TIP3    H170565   5.355   2.288   5.609  1.0981  1.0010 -0.7632
16358TIP3    H270566   5.322   2.434   5.629 -2.7851  0.0550  0.7265
16359TIP3   OH270567   5.941   1.603  11.998 -0.4899 -0.4725  0.6132
16359TIP3    H170568   5.923   1.513  12.024  1.0203 -0.7141  0.9182
16359TIP3    H270569   5.948   1.600  11.903 -0.3125 -0.7120  0.6332
16360TIP3   OH270570   3.592   2.962  15.149 -0.1571 -0.4085  0.4283
16360TIP3    H170571   3.569   3.009  15.069  0.4706  1.0631  1.0760
16360TIP3    H270572   3.520   2.901  15.163  1.2531 -3.2710 -3.1164
16361TIP3   OH270573   0.574   3.390   2.388 -0.4938  0.3532  0.2085
16361TIP3    H170574   0.514   3.432   2.450 -0.9721 -1.3360  0.9580
16361TIP3    H270575   0.574   3.447   2.312 -2.9011  0.5540  0.2764
16362TIP3   OH270576   4.126   1.453  16.827  0.1391 -0.2421  0.3063
16362TIP3    H170577   4.121   1.380  16.765  0.2152  0.4366 -0.5191
16362TIP3    H270578   4.076   1.523  16.786  2.3565  1.1139 -0.2888
16363TIP3   OH270579   2.107   5.636  11.875  0.4761  0.0615  0.0386
16363TIP3    H170580   2.057   5.564  11.914  1.1262  0.1110  0.9976
16363TIP3    H270581   2.040   5.698  11.844 -0.0655  0.0143  1.0802
16364TIP3   OH270582   3.385   2.895  13.912  0.8174  0.0077  0.1225
16364TIP3    H170583   3.424   2.951  13.845  0.4650 -0.1521 -0.2200
16364TIP3    H270584   3.459   2.864  13.964  0.9474  1.5221  0.8976
16365TIP3   OH270585   5.998   3.788  13.381 -0.1367 -0.1871 -0.8577
16365TIP3    H170586   5.945   3.841  13.321 -0.1085  1.1846  0.2892
16365TIP3    H270587   5.950   3.790  13.464  0.4062 -1.1125 -0.5040
16366TIP3   OH270588   3.375   4.514  15.996 -0.3305 -0.0437  0.0453
16366TIP3    H170589   3.361   4.450  15.927 -0.0920 -0.5321  0.4459
16366TIP3    H270590   3.434   4.471  16.058 -0.7572  0.2746  0.6933
16367TIP3   OH270591   4.946   5.958   3.157 -0.0913  0.4082 -0.3243
16367TIP3    H170592   5.015   5.988   3.098  0.9787 -3.7976 -1.5116
16367TIP3    H270593   4.983   5.970   3.245  0.3008  2.1771 -0.6856
16368TIP3   OH270594   5.248   1.862  16.179 -0.1107 -0.2775 -0.0540
16368TIP3    H170595   5.205   1.847  16.095 -1.0834 -2.0070  0.6962
16368TIP3    H270596   5.328   1.809  16.176 -1.6290 -2.8362  1.1487
16369TIP3   OH270597   3.875   1.813  11.256 -0.3587 -0.1692 -0.3695
16369TIP3    H170598   3.888   1.823  11.162  0.0469 -1.1255 -0.4304
16369TIP3    H270599   3.964   1.811  11.292 -0.5238  0.7827  0.1061
16370TIP3   OH270600   5.182   3.504  12.382 -0.1164 -0.4612 -0.0218
16370TIP3    H170601   5.124   3.526  12.455  0.0909 -0.4966  0.1515
16370TIP3    H270602   5.173   3.578  12.322 -0.9660 -0.8357 -0.3774
16371TIP3   OH270603   4.684   4.338   4.390  0.2596  0.0219 -0.2284
16371TIP3    H170604   4.676   4.259   4.337 -0.1473 -0.4766  0.5638
16371TIP3    H270605   4.611   4.393   4.363  0.1369 -0.1685 -0.2860
16372TIP3   OH270606   2.402   3.833   2.405  0.5061 -0.2127 -0.1072
16372TIP3    H170607   2.432   3.769   2.470 -0.3825  0.0410  0.5701
16372TIP3    H270608   2.322   3.795   2.369 -2.5142  2.2285  3.2757
16373TIP3   OH270609   4.825   0.102   2.364 -0.2999 -0.3890 -0.0707
16373TIP3    H170610   4.876   0.022   2.354 -2.2265 -1.8058  0.9301
16373TIP3    H270611   4.830   0.122   2.457  0.1334  0.6741 -0.3065
16374TIP3   OH270612   3.646   2.781  13.728  0.8491  0.0965  0.0647
16374TIP3    H170613   3.617   2.726  13.656 -0.7584  1.4245 -0.3496
16374TIP3    H270614   3.615   2.868  13.706  2.6279  1.0398  1.1034
16375TIP3   OH270615   1.212   1.669  16.974 -0.5396  0.0376  0.3029
16375TIP3    H170616   1.218   1.753  17.018  2.2700  0.9313 -1.5566
16375TIP3    H270617   1.130   1.673  16.925  0.5947  2.7626 -1.6046
16376TIP3   OH270618   2.625   3.659   0.625  0.2868  0.6536  0.2096
16376TIP3    H170619   2.630   3.736   0.568 -2.0237 -0.3017 -1.4491
16376TIP3    H270620   2.644   3.585   0.568 -1.8107 -0.3141  0.6804
16377TIP3   OH270621   4.258   6.097  12.535 -0.5416  0.3691  0.2178
16377TIP3    H170622   4.259   6.039  12.458  0.5884  0.3098  0.2568
16377TIP3    H270623   4.349   6.098  12.564 -0.7758  1.2339  0.9308
16378TIP3   OH270624   5.617   4.850  12.047 -0.3195 -0.0861  0.4932
16378TIP3    H170625   5.678   4.807  12.107 -1.4904 -0.9058  1.1334
16378TIP3    H270626   5.659   4.934  12.027  0.4893 -0.1419  1.8110
16379TIP3   OH270627   4.794   1.471  16.607 -0.3271  0.1803  0.4844
16379TIP3    H170628   4.887   1.487  16.624  0.1513 -0.5074 -1.3495
16379TIP3    H270629   4.771   1.533  16.537 -1.4597  0.8578  1.4111
16380TIP3   OH270630   0.324   3.649   4.790  0.7081 -0.4438 -0.0576
16380TIP3    H170631   0.241   3.672   4.832  1.3840  1.8748  0.1160
16380TIP3    H270632   0.376   3.610   4.860  0.8008  0.8085  0.6039
16381TIP3   OH270633   1.630   1.448  16.887  0.1544 -0.0023  0.1243
16381TIP3    H170634   1.635   1.372  16.945 -1.5481 -1.1720 -1.1664
16381TIP3    H270635   1.561   1.503  16.925 -0.4128 -0.3890 -0.3179
16382TIP3   OH270636   4.664   3.041  14.937 -0.1886  0.0952 -0.1384
16382TIP3    H170637   4.634   3.129  14.917 -0.1001  0.2021  0.1882
16382TIP3    H270638   4.759   3.050  14.949  0.4131 -0.6331 -3.4533
16383TIP3   OH270639   3.118   5.928  17.091 -0.1741  0.2863  0.2247
16383TIP3    H170640   3.145   5.978  17.168  1.1422  0.7486 -0.5122
16383TIP3    H270641   3.103   5.995  17.024 -1.7172 -0.0816  0.1717
16384TIP3   OH270642   6.072   1.495  14.216 -0.1270 -0.1388 -0.0944
16384TIP3    H170643   6.030   1.410  14.231  0.0061 -0.3749 -0.9929
16384TIP3    H270644   6.106   1.489  14.127  0.2987  0.6893  0.0065
16385TIP3   OH270645   5.024   0.217  16.871  0.2567  0.2482  0.6755
16385TIP3    H170646   5.094   0.272  16.836  0.3317  0.6032  1.3733
16385TIP3    H270647   5.067   0.158  16.933  0.2527 -0.9415 -0.4204
16386TIP3   OH270648   2.587   5.465  13.532 -0.8359 -0.1965 -0.5933
16386TIP3    H170649   2.575   5.542  13.476  0.1767 -0.1267 -0.7180
16386TIP3    H270650   2.606   5.394  13.472  1.7108  0.1607 -0.3020
16387TIP3   OH270651   3.602   0.945   0.960  0.0026  0.6186 -0.4490
16387TIP3    H170652   3.623   0.951   1.053  2.4354  0.1331 -0.9018
16387TIP3    H270653   3.627   1.031   0.924  1.1775  0.0799 -0.9800
16388TIP3   OH270654   3.812   1.662  15.514  0.5457 -0.3903 -0.0897
16388TIP3    H170655   3.728   1.680  15.471  0.9725 -1.0188 -1.2226
16388TIP3    H270656   3.858   1.604  15.454  1.3991 -0.8591  0.9826
16389TIP3   OH270657   4.800   0.014  12.656 -0.0326  0.1276 -0.2514
16389TIP3    H170658   4.757   0.031  12.740  0.6453  0.7986 -0.0313
16389TIP3    H270659   4.892  -0.001  12.679 -0.0909 -1.0923 -0.7356
16390TIP3   OH270660   3.876   0.806  16.207 -0.1933 -0.2487  0.4014
16390TIP3    H170661   3.967   0.811  16.236 -0.3511 -0.7282  1.0019
16390TIP3    H270662   3.847   0.897  16.202 -0.6161 -0.1343  3.2372
16391TIP3   OH270663   5.819   0.496   5.011  0.4028  0.2726 -0.0994
16391TIP3    H170664   5.789   0.443   5.084 -0.3134 -1.1328 -1.3587
16391TIP3    H270665   5.776   0.580   5.023 -2.2900 -0.9472 -0.5824
16392TIP3   OH270666   6.231   0.246  10.991 -0.5161  0.1931 -0.8148
16392TIP3    H170667   6.152   0.270  10.942 -1.5425 -0.9943  0.1960
16392TIP3    H270668   6.292   0.213  10.924 -2.3620 -2.6290 -1.2747
16393TIP3   OH270669   4.069   5.633   1.443 -0.5120 -0.7436 -0.4590
16393TIP3    H170670   4.011   5.561   1.468 -1.2573 -1.0321 -2.7461
16393TIP3    H270671   4.082   5.683   1.524 -0.7879 -2.8536  0.9741
16394TIP3   OH270672   4.455   6.159   4.312 -0.1269 -0.5387  0.2996
16394TIP3    H170673   4.513   6.158   4.388 -1.7452  0.5902  1.6286
16394TIP3    H270674   4.444   6.067   4.289  1.1429 -0.8417  0.8196
16395TIP3   OH270675   2.268   0.652   4.927  0.0875  0.1282 -0.7444
16395TIP3    H170676   2.350   0.607   4.909 -0.3250 -0.3069 -1.5394
16395TIP3    H270677   2.201   0.584   4.922 -0.2304  0.2457  1.0020
16396TIP3   OH270678   0.026   3.074  12.049 -0.5252  0.2794  0.2649
16396TIP3    H170679   0.060   3.123  12.124  0.3304  0.0543  0.0313
16396TIP3    H270680   0.038   2.982  12.073 -0.3297  0.2074 -0.1131
16397TIP3   OH270681   0.406   1.866   3.278  0.0861 -0.0682 -0.2849
16397TIP3    H170682   0.472   1.873   3.209 -0.1452 -1.2434 -0.6475
16397TIP3    H270683   0.335   1.923   3.249  0.7515  0.9120 -0.0753
16398TIP3   OH270684   5.002   1.204   5.873  0.6375 -0.9369  0.2042
16398TIP3    H170685   4.958   1.248   5.800  0.9211 -1.8442 -0.5314
16398TIP3    H270686   4.985   1.260   5.949  0.0758 -0.1402 -0.4973
16399TIP3   OH270687   4.794   2.256  16.826  0.0555  0.2922 -0.3327
16399TIP3    H170688   4.731   2.187  16.806  1.5921 -1.3354  0.1591
16399TIP3    H270689   4.829   2.232  16.912  1.4241  1.0842 -0.6348
16400TIP3   OH270690   2.139   2.850   5.327  0.5395  0.4909 -0.1161
16400TIP3    H170691   2.082   2.905   5.382 -0.2546  0.1704 -0.5940
16400TIP3    H270692   2.081   2.817   5.259  1.4544  0.6587 -0.9973
16401TIP3   OH270693   2.715   1.493   4.653 -0.2924 -0.1532  0.1033
16401TIP3    H170694   2.675   1.578   4.673 -0.9438 -0.5584  0.5411
16401TIP3    H270695   2.683   1.472   4.565 -0.1864  0.0125  0.0223
16402TIP3   OH270696   4.546   1.999   3.120  0.1439  0.2275 -0.7745
16402TIP3    H170697   4.571   1.991   3.028 -1.2632  0.5310 -1.2118
16402TIP3    H270698   4.562   2.091   3.141  0.3084  0.1953 -0.7529
16403TIP3   OH270699   5.215   6.228  14.652 -0.5314  0.2313  0.7449
16403TIP3    H170700   5.188   6.210  14.562  1.4098  1.1101 -0.0764
16403TIP3    H270701   5.197   6.321  14.664  0.2978  0.3905  0.8266
16404TIP3   OH270702   6.347   5.837  14.035 -0.8261  0.7018  0.0587
16404TIP3    H170703   6.334   5.928  14.061 -0.2465  0.9504 -0.4897
16404TIP3    H270704   6.275   5.789  14.076 -2.7322  1.7951 -1.8538
16405TIP3   OH270705   4.152   0.446   2.945 -0.2236 -0.1821  0.2442
16405TIP3    H170706   4.246   0.432   2.948 -0.4965 -2.3468  0.6302
16405TIP3    H270707   4.116   0.382   3.007 -1.9923 -0.0386 -0.5575
16406TIP3   OH270708   3.763   4.216  13.620  0.1138 -0.6582  0.1278
16406TIP3    H170709   3.854   4.220  13.649  0.4714 -0.2414 -0.9756
16406TIP3    H270710   3.767   4.234  13.526 -1.2993  1.3689  0.3829
16407TIP3   OH270711   5.230   1.680   2.366  0.8953  0.2238  0.3025
16407TIP3    H170712   5.205   1.726   2.286  0.6725 -0.5842 -0.1012
16407TIP3    H270713   5.187   1.595   2.359  1.0684  0.0562  1.1706
16408TIP3   OH270714   2.110   3.151  11.531 -0.0829 -0.5152  0.1518
16408TIP3    H170715   2.123   3.236  11.488  2.2912 -0.1715  1.3753
16408TIP3    H270716   2.130   3.087  11.462  1.8294  0.0075  0.1649
16409TIP3   OH270717   1.414   1.536   0.462 -0.1116  0.1653 -0.0851
16409TIP3    H170718   1.374   1.485   0.533  1.2095  2.9222  2.8537
16409TIP3    H270719   1.341   1.579   0.419 -0.7802  2.9610  3.4351
16410TIP3   OH270720   5.494   0.152   5.402  0.0839  0.0295  0.0329
16410TIP3    H170721   5.475   0.080   5.342  3.7674 -0.1370 -1.2175
16410TIP3    H270722   5.495   0.230   5.346  0.0915  0.4355  0.5913
16411TIP3   OH270723   1.604   2.758  16.922  0.2684 -0.5723  0.4231
16411TIP3    H170724   1.649   2.811  16.857  0.3538 -1.1431  0.0082
16411TIP3    H270725   1.606   2.811  17.002  0.0721  0.1746 -0.0568
16412TIP3   OH270726   1.118   0.419  15.591  0.1364  0.0813  0.0317
16412TIP3    H170727   1.083   0.508  15.587 -1.4505 -0.3892  1.8465
16412TIP3    H270728   1.160   0.413  15.677  1.2780 -0.6046 -0.5360
16413TIP3   OH270729   5.486   0.425  11.461  0.1439 -0.2400  0.1389
16413TIP3    H170730   5.555   0.395  11.402  1.1421  1.5576  0.3099
16413TIP3    H270731   5.514   0.397  11.548 -0.7312 -1.8522 -0.0667
16414TIP3   OH270732   4.678   2.463   2.359 -0.5335  0.7858 -0.0149
16414TIP3    H170733   4.626   2.493   2.433 -0.4681  0.4150  0.1788
16414TIP3    H270734   4.635   2.503   2.283 -1.0461  0.5619  0.1490
16415TIP3   OH270735   4.240   1.398   2.894 -0.0264  0.2194 -0.0882
16415TIP3    H170736   4.322   1.397   2.944 -0.9165  2.4186  1.6284
16415TIP3    H270737   4.197   1.316   2.917  0.1157  0.6552  1.9838
16416TIP3   OH270738   1.918   6.374   5.332  0.2896 -0.0718  0.0506
16416TIP3    H170739   1.974   6.359   5.256  1.2692  0.4089  0.6595
16416TIP3    H270740   1.978   6.403   5.401 -0.6539  0.0452  0.8462
16417TIP3   OH270741   1.405   2.047   5.146  0.4862 -0.4323 -0.6345
16417TIP3    H170742   1.366   1.976   5.198  0.7062  1.3712  2.2283
16417TIP3    H270743   1.356   2.046   5.064 -3.4418 -0.4156  1.4308
16418TIP3   OH270744   5.159   6.619  10.866  0.1197  0.6731  0.3045
16418TIP3    H170745   5.246   6.636  10.831 -0.2977  1.0964 -0.5626
16418TIP3    H270746   5.137   6.531  10.835  0.1046  0.6966  0.2491
16419TIP3   OH270747   3.564   3.193  10.989 -0.7207  0.5123 -0.2996
16419TIP3    H170748   3.502   3.125  10.961 -1.6357  0.3125  1.9876
16419TIP3    H270749   3.517   3.275  10.978  0.4005  0.9001 -3.1022
16420TIP3   OH270750   1.355   6.779  15.259 -0.5249 -0.5817 -0.1275
16420TIP3    H170751   1.340   6.688  15.284 -0.3558 -0.4586  0.4245
16420TIP3    H270752   1.291   6.829  15.309 -0.3353 -0.3552 -0.1068
16421TIP3   OH270753   1.947   3.222   2.443 -0.0049 -0.3434 -0.1846
16421TIP3    H170754   1.938   3.160   2.515 -0.3860 -2.1745 -1.7383
16421TIP3    H270755   2.027   3.194   2.398  0.7786  1.3867  0.0494
16422TIP3   OH270756   1.386   4.512   0.546 -0.4163  0.2231  0.0777
16422TIP3    H170757   1.390   4.510   0.451  1.7971  0.3057  0.1122
16422TIP3    H270758   1.453   4.575   0.572 -0.1832 -0.6312  1.7164
16423TIP3   OH270759   2.475   0.597   4.605 -0.3126 -0.5945  0.3331
16423TIP3    H170760   2.528   0.577   4.528  1.0525  2.9203  0.1433
16423TIP3    H270761   2.385   0.596   4.574  0.0061 -1.8229 -0.6070
16424TIP3   OH270762   5.976   3.335   0.731 -0.1628 -0.3235 -0.2049
16424TIP3    H170763   5.893   3.288   0.725 -0.0302 -0.6253  0.2577
16424TIP3    H270764   6.032   3.278   0.784 -0.2861  0.7650  1.1546
16425TIP3   OH270765   6.302   3.752   0.297  0.5136  0.6026 -0.2728
16425TIP3    H170766   6.350   3.733   0.377 -0.4356  0.3664  0.2503
16425TIP3    H270767   6.367   3.742   0.227  0.9452 -0.8224  0.3143
16426TIP3   OH270768   4.510   3.856  12.231  0.1385  0.0137  0.1141
16426TIP3    H170769   4.428   3.814  12.206  0.2002  0.2149 -0.4490
16426TIP3    H270770   4.536   3.905  12.153  0.4747  0.4512  0.4937
16427TIP3   OH270771   1.771   2.786  14.402  0.1335 -0.4040  0.1641
16427TIP3    H170772   1.704   2.854  14.399  1.5713  1.0782  0.0607
16427TIP3    H270773   1.801   2.785  14.492  0.0339 -1.0182  0.1979
16428TIP3   OH270774   0.351   0.064   1.895 -0.0768 -0.7158 -0.2762
16428TIP3    H170775   0.389   0.008   1.828 -0.7433 -1.7500  0.1944
16428TIP3    H270776   0.412   0.058   1.969 -0.5567 -1.4960  0.0728
16429TIP3   OH270777   3.237   6.059  14.203  0.3712 -0.6281 -0.6123
16429TIP3    H170778   3.156   6.087  14.160 -0.7497 -1.0131  1.1491
16429TIP3    H270779   3.252   5.970  14.170 -0.0602 -0.6394 -0.7807
16430TIP3   OH270780   2.968   4.363   3.325  0.5603 -0.2114 -0.4593
16430TIP3    H170781   2.882   4.321   3.330 -0.2146  1.0254 -2.3247
16430TIP3    H270782   3.026   4.294   3.292 -0.6612 -0.0378 -3.3093
16431TIP3   OH270783   2.692   4.623   4.660  0.4103  0.3395 -0.3719
16431TIP3    H170784   2.718   4.715   4.659  0.9321  0.2059  0.2877
16431TIP3    H270785   2.686   4.600   4.752  3.1696 -1.0508 -0.4251
16432TIP3   OH270786   3.646   2.805   1.337 -0.3130  0.4782  0.1980
16432TIP3    H170787   3.553   2.821   1.355 -0.3678 -0.1345  0.4788
16432TIP3    H270788   3.679   2.765   1.417  0.2787  0.9961  0.2249
16433TIP3   OH270789   4.666   5.919   1.886 -0.1615  0.4488  0.2222
16433TIP3    H170790   4.619   5.904   1.968  0.2753  0.1406  0.4163
16433TIP3    H270791   4.750   5.875   1.897 -0.1772  0.2288 -0.4679
16434TIP3   OH270792   0.319   1.784  15.327 -0.6068  0.2574 -0.1476
16434TIP3    H170793   0.406   1.757  15.356 -0.3654  0.4736 -0.6552
16434TIP3    H270794   0.268   1.792  15.408  0.1050  1.0392  0.2423
16435TIP3   OH270795   0.998   5.883  15.435  0.1494 -0.1968 -0.3893
16435TIP3    H170796   1.036   5.831  15.506 -0.5736 -1.2561 -0.7548
16435TIP3    H270797   0.910   5.905  15.465 -0.2917 -0.9454 -1.0653
16436TIP3   OH270798   5.474   4.774  16.459  0.7843  0.0078 -0.0454
16436TIP3    H170799   5.405   4.780  16.394  0.6556 -2.4515 -0.2160
16436TIP3    H270800   5.525   4.855  16.448  0.7639 -0.2911 -3.1936
16437TIP3   OH270801   3.084   4.699  15.944 -0.0225  0.1114 -0.2145
16437TIP3    H170802   3.118   4.614  15.972 -0.0755  0.7271  1.9236
16437TIP3    H270803   2.989   4.687  15.943 -0.0157  0.0536 -0.1861
16438TIP3   OH270804   0.956   5.682  10.722  0.0398 -0.5463 -0.0416
16438TIP3    H170805   0.943   5.764  10.771  1.0628  1.2435 -2.5361
16438TIP3    H270806   0.881   5.628  10.746 -0.2196  0.7435  2.3836
16439TIP3   OH270807   1.608   5.200  12.041 -0.6249 -0.7158  0.1041
16439TIP3    H170808   1.642   5.245  12.118 -0.2216 -2.0719  0.7448
16439TIP3    H270809   1.576   5.270  11.984 -0.8839  0.3135  1.4722
16440TIP3   OH270810   1.958   1.533  15.471  0.1816 -0.4219 -0.1634
16440TIP3    H170811   1.886   1.471  15.480  0.3505 -0.5066  0.6731
16440TIP3    H270812   1.921   1.606  15.420  0.3381 -1.7413 -2.2717
16441TIP3   OH270813   0.984   2.606  15.634  0.1555  0.1047 -0.1515
16441TIP3    H170814   0.890   2.589  15.627 -0.1232  0.6566  1.7321
16441TIP3    H270815   0.992   2.701  15.624  0.3910  0.1729  0.6287
16442TIP3   OH270816   4.543   4.214  14.438  0.1263 -0.0976  0.2639
16442TIP3    H170817   4.549   4.302  14.401  1.2319 -0.6543 -0.9460
16442TIP3    H270818   4.464   4.177  14.398 -1.4749  0.9508  2.2493
16443TIP3   OH270819   3.551   1.898  16.961 -0.3528 -0.6436 -0.1793
16443TIP3    H170820   3.576   1.831  16.898 -0.2696  0.9923 -1.9963
16443TIP3    H270821   3.455   1.892  16.966 -0.4803 -0.0869 -1.3846
16444TIP3   OH270822   4.818   3.734  12.913  0.1264 -0.2524  0.1309
16444TIP3    H170823   4.792   3.825  12.929  2.1918  0.7629 -1.7078
16444TIP3    H270824   4.911   3.732  12.933  0.2423 -1.8168 -0.4582
16445TIP3   OH270825   5.890   4.950  11.160 -0.3587 -0.0815 -0.7377
16445TIP3    H170826   5.939   4.881  11.116  1.6005  1.3380 -0.8822
16445TIP3    H270827   5.898   4.930  11.253  0.0181 -0.1606 -0.7880
16446TIP3   OH270828   1.202   6.356   1.028  0.0013  0.5082  0.0541
16446TIP3    H170829   1.197   6.427   0.964  0.8134  1.9298  1.4936
16446TIP3    H270830   1.154   6.390   1.104  0.0472 -0.6695  0.6164
16447TIP3   OH270831   0.279   2.506  10.390 -0.3896  0.0959 -0.4613
16447TIP3    H170832   0.329   2.435  10.432 -0.0424 -0.9625 -2.5597
16447TIP3    H270833   0.331   2.585  10.408  0.2923 -0.4871  0.1875
16448TIP3   OH270834   4.992   2.415  11.063 -0.1500  0.6585  0.2248
16448TIP3    H170835   4.955   2.489  11.014 -0.5288  1.2311  1.3342
16448TIP3    H270836   4.925   2.394  11.128  0.3617 -0.0575  0.5265
16449TIP3   OH270837   1.439   4.332   5.240 -0.2052  0.0642 -0.4282
16449TIP3    H170838   1.366   4.280   5.274 -0.7051  1.6277  1.1106
16449TIP3    H270839   1.400   4.419   5.225  0.8133  0.2848 -1.9292
16450TIP3   OH270840   5.875   5.757   5.410  0.1053 -0.0562 -0.2349
16450TIP3    H170841   5.892   5.663   5.404 -2.0372 -0.4269 -2.7891
16450TIP3    H270842   5.943   5.797   5.356  0.6976 -0.1789  0.4128
16451TIP3   OH270843   5.422   4.694  16.949 -0.2646 -0.1310  0.0536
16451TIP3    H170844   5.388   4.610  16.982 -0.7657 -0.8459 -2.1575
16451TIP3    H270845   5.500   4.670  16.899 -0.1829  0.7723 -0.2732
16452TIP3   OH270846   1.126   4.849   3.333 -0.0620 -0.0411 -0.5554
16452TIP3    H170847   1.048   4.877   3.381 -0.2028  0.1580 -0.8918
16452TIP3    H270848   1.094   4.782   3.273 -0.2816  1.1416 -1.7988
16453TIP3   OH270849   0.339   0.225   0.310 -0.0399  0.5722 -0.0877
16453TIP3    H170850   0.268   0.285   0.333 -0.2687 -0.7543  3.1786
16453TIP3    H270851   0.295   0.145   0.282  0.0047 -0.5161  2.6638
16454TIP3   OH270852   0.494   2.540   0.176 -0.2021 -0.2121 -0.0013
16454TIP3    H170853   0.560   2.561   0.110  0.0295 -0.4269  0.1609
16454TIP3    H270854   0.411   2.548   0.130 -0.1437  1.3749  0.1352
16455TIP3   OH270855   0.598   6.769  15.431 -0.2366  0.6392 -0.3018
16455TIP3    H170856   0.653   6.837  15.390  0.2826 -0.6501 -1.8453
16455TIP3    H270857   0.531   6.750  15.366  0.0958 -0.8675 -0.2322
16456TIP3   OH270858   6.577   6.514   4.174 -0.0924 -0.5565 -0.0803
16456TIP3    H170859   6.642   6.454   4.211  1.0242 -0.7487 -2.2094
16456TIP3    H270860   6.527   6.460   4.113 -1.6984 -0.1914  0.8538
16457TIP3   OH270861   0.381   3.941  17.173  0.0932  0.1492  0.7363
16457TIP3    H170862   0.468   3.909  17.152  0.8166  1.5831  1.4008
16457TIP3    H270863   0.383   4.034  17.151 -1.5773  0.0327 -0.1120
16458TIP3   OH270864   5.683   5.539  16.364 -0.4691 -0.0836 -0.1384
16458TIP3    H170865   5.738   5.573  16.434 -0.4718 -0.0700 -0.1430
16458TIP3    H270866   5.642   5.461  16.401  0.2814 -0.6403 -0.4422
16459TIP3   OH270867   0.036   0.199  16.592  0.3290  0.0777  0.1641
16459TIP3    H170868  -0.024   0.269  16.618  1.3476  1.0099  0.0964
16459TIP3    H270869   0.040   0.206  16.496  0.0244 -0.4321  0.1112
16460TIP3   OH270870   3.585   3.634   4.702  0.5760  0.6768 -0.3470
16460TIP3    H170871   3.508   3.652   4.755  0.3783 -0.7838 -0.1008
16460TIP3    H270872   3.585   3.539   4.690  1.4018  0.8235 -1.7733
16461TIP3   OH270873   4.702   3.672  12.649  0.6688  0.1321  0.0482
16461TIP3    H170874   4.633   3.613  12.679  0.9833 -0.6193 -0.6602
16461TIP3    H270875   4.724   3.725  12.726  0.8262 -1.1157  0.8936
16462TIP3   OH270876   5.603   6.383   3.785 -0.0992  0.3506 -0.7792
16462TIP3    H170877   5.548   6.461   3.792  1.1550  1.1268  1.3485
16462TIP3    H270878   5.635   6.368   3.874  2.3363 -0.6140 -1.7249
16463TIP3   OH270879   6.099   4.583  14.784 -0.5881  0.2252 -0.0379
16463TIP3    H170880   6.175   4.605  14.730 -2.1999 -4.3908 -5.2317
16463TIP3    H270881   6.041   4.659  14.777  0.9752  1.3350 -1.5577
16464TIP3   OH270882   3.068   5.112  14.827  0.1424 -0.3059 -0.3804
16464TIP3    H170883   3.147   5.156  14.798  0.9119 -1.3981 -0.0139
16464TIP3    H270884   3.028   5.079  14.747  0.7448 -0.8519 -0.4632
16465TIP3   OH270885   1.858   4.259   5.827  0.0677  0.6940  0.4599
16465TIP3    H170886   1.822   4.323   5.889 -4.2061 -0.0015 -1.0417
16465TIP3    H270887   1.842   4.174   5.868 -3.7766  0.1435 -1.6942
16466TIP3   OH270888   0.289   3.589   2.088 -0.0184 -0.1626 -0.0709
16466TIP3    H170889   0.263   3.648   2.017  0.2886  0.4059  0.2856
16466TIP3    H270890   0.383   3.600   2.096 -0.1412  0.3177  0.8938
16467TIP3   OH270891   2.079   0.150   4.027  0.8906 -0.6566  0.3024
16467TIP3    H170892   2.093   0.096   3.949 -0.4853 -2.1426  1.0302
16467TIP3    H270893   2.156   0.207   4.030  0.5623  0.1100 -2.6325
16468TIP3   OH270894   4.922   2.646   6.239 -0.5005 -0.5265 -0.2858
16468TIP3    H170895   4.871   2.712   6.285  1.7579  0.2917  1.2628
16468TIP3    H270896   5.002   2.638   6.291  0.7934 -1.9689 -2.3528
16469TIP3   OH270897   1.031   0.850  16.157  0.2543 -0.2671 -0.3450
16469TIP3    H170898   1.033   0.800  16.239  0.8969 -2.2513 -1.4990
16469TIP3    H270899   1.042   0.941  16.184 -0.8317 -0.7301  1.8537
16470TIP3   OH270900   1.843   2.520   1.056 -0.5619 -0.1828 -0.1393
16470TIP3    H170901   1.926   2.473   1.062 -0.6212 -0.3815 -0.8478
16470TIP3    H270902   1.866   2.606   1.023 -0.4408  0.3455  1.2538
16471TIP3   OH270903   0.874   3.595  15.478  0.0132  1.0045 -0.0301
16471TIP3    H170904   0.875   3.668  15.416 -1.3727  0.3796 -0.8313
16471TIP3    H270905   0.785   3.560  15.473  1.1804 -2.0492 -1.2215
16472TIP3   OH270906   6.373   1.152  15.458  0.1200 -0.1251 -0.1519
16472TIP3    H170907   6.297   1.164  15.514  0.0702 -1.0979  0.0100
16472TIP3    H270908   6.396   1.059  15.468  1.9015  0.3495  0.5346
16473TIP3   OH270909   3.740   4.577  15.377  0.2931  0.3211  0.3251
16473TIP3    H170910   3.693   4.494  15.372  1.5175 -0.3367 -1.4029
16473TIP3    H270911   3.777   4.589  15.290  2.5149  1.2453  1.3073
16474TIP3   OH270912   0.664   5.532   4.809 -0.0449 -0.5629  0.4966
16474TIP3    H170913   0.573   5.562   4.814 -0.8293 -2.8461  1.4838
16474TIP3    H270914   0.678   5.513   4.716 -0.3954  0.2312  0.2712
16475TIP3   OH270915   6.173   1.248   3.791  0.0345  0.8913  0.8089
16475TIP3    H170916   6.235   1.200   3.737 -1.8049 -2.3529  1.3332
16475TIP3    H270917   6.118   1.296   3.729  0.3782  0.2970  0.0303
16476TIP3   OH270918   3.421   1.909  14.824 -0.1214 -0.7838 -0.1902
16476TIP3    H170919   3.508   1.912  14.863 -0.8076 -1.2761  1.4659
16476TIP3    H270920   3.392   2.000  14.821  0.5857 -0.5756 -1.1187
16477TIP3   OH270921   6.439   3.947  11.200  0.2677 -0.0425 -0.0619
16477TIP3    H170922   6.384   4.016  11.163 -0.3795  0.2076  1.2838
16477TIP3    H270923   6.409   3.867  11.157  1.8653  0.6037 -2.5624
16478TIP3   OH270924   1.135   3.492   2.698  0.1852 -1.2303 -0.3420
16478TIP3    H170925   1.061   3.462   2.645  0.5780 -0.5344 -1.3191
16478TIP3    H270926   1.212   3.474   2.644  0.6872 -1.4467  0.4335
16479TIP3   OH270927   3.822   2.071   5.122  0.5346 -0.2979  0.0148
16479TIP3    H170928   3.872   2.010   5.175  1.5435  0.1358 -0.4180
16479TIP3    H270929   3.873   2.151   5.122  0.8319 -0.4279 -1.9972
16480TIP3   OH270930   1.381   1.290   5.834  0.2578 -0.5064  0.2000
16480TIP3    H170931   1.446   1.299   5.903 -0.8263  1.5972  1.0299
16480TIP3    H270932   1.312   1.236   5.873 -0.1389  0.2922  0.6268
16481TIP3   OH270933   3.511   5.336  12.324  0.1128 -0.3965  0.1123
16481TIP3    H170934   3.541   5.246  12.339 -0.0709 -0.5235 -0.2700
16481TIP3    H270935   3.495   5.340  12.230 -2.1588 -0.6758  0.4481
16482TIP3   OH270936   5.164   0.681   4.688  0.3187  0.4925  0.8395
16482TIP3    H170937   5.147   0.679   4.594  2.5053  1.6965  0.3553
16482TIP3    H270938   5.166   0.588   4.713 -0.8824  0.1665 -0.1342
16483TIP3   OH270939   1.219   0.479  14.232  0.2068 -0.7045 -0.2523
16483TIP3    H170940   1.146   0.433  14.191 -0.1417 -0.1992 -0.2075
16483TIP3    H270941   1.235   0.555  14.175  0.7686 -0.8651 -0.3218
16484TIP3   OH270942   0.851   2.421  12.027  0.0734 -0.2718  0.2461
16484TIP3    H170943   0.772   2.461  11.991  1.2745 -0.9108 -3.5713
16484TIP3    H270944   0.895   2.492  12.073 -0.0916  1.7077 -2.3835
16485TIP3   OH270945   6.720   5.930   3.509 -0.4413  0.3129  0.3838
16485TIP3    H170946   6.625   5.923   3.501 -0.7005  2.2087  1.4248
16485TIP3    H270947   6.735   5.959   3.598  1.2031 -0.7314  0.4962
16486TIP3   OH270948   0.066   0.792  13.169 -0.2777  0.4107 -0.2482
16486TIP3    H170949   0.039   0.827  13.254 -0.2687  0.0950 -0.1156
16486TIP3    H270950   0.157   0.820  13.160  0.1819 -0.7744  0.4992
16487TIP3   OH270951   3.956   3.752  15.895 -0.1112  0.0589  0.5357
16487TIP3    H170952   3.871   3.734  15.934 -0.3809 -0.8488 -0.4388
16487TIP3    H270953   3.936   3.778  15.805  0.7551 -3.1324 -0.6959
16488TIP3   OH270954   6.270   1.027   2.803 -0.0008  0.8251  0.3989
16488TIP3    H170955   6.341   0.964   2.790 -1.2653 -0.5847  0.0403
16488TIP3    H270956   6.303   1.109   2.767  0.3243 -0.5493 -2.7595
16489TIP3   OH270957   5.110   1.674   0.975  0.0156  0.0655 -0.4725
16489TIP3    H170958   5.085   1.753   1.025  0.8399  0.1410 -0.1741
16489TIP3    H270959   5.144   1.614   1.041  1.9319  0.4860 -1.0286
16490TIP3   OH270960   2.948   3.040  15.436 -0.5982  0.5693 -0.0868
16490TIP3    H170961   2.938   3.093  15.357 -0.0080 -0.7989 -1.1121
16490TIP3    H270962   3.041   3.045  15.458 -0.6838  0.5962  0.2899
16491TIP3   OH270963   2.950   0.754  15.969  0.7935  0.0841 -0.0685
16491TIP3    H170964   3.021   0.815  15.988  0.5918  0.1177  0.5972
16491TIP3    H270965   2.956   0.739  15.875  0.3540  1.7677 -0.4073
16492TIP3   OH270966   2.628   0.750  12.649 -0.1048  0.0118 -0.5382
16492TIP3    H170967   2.554   0.724  12.704 -0.5030  0.5276 -0.8262
16492TIP3    H270968   2.588   0.790  12.572  0.4731  0.2566 -0.7162
16493TIP3   OH270969   5.257   1.112   2.589  0.0941 -0.1638  0.1498
16493TIP3    H170970   5.215   1.139   2.508  2.5730  0.7821 -0.9428
16493TIP3    H270971   5.324   1.179   2.605  0.8663 -1.2878  1.9920
16494TIP3   OH270972   3.995   6.716  13.566  0.6769 -0.3188  0.6907
16494TIP3    H170973   3.978   6.784  13.500  1.6555  0.8034  1.5383
16494TIP3    H270974   4.049   6.651  13.521  0.8194  0.1285  0.2117
16495TIP3   OH270975   4.610   3.729  11.615 -0.0157 -0.2789  0.3899
16495TIP3    H170976   4.534   3.750  11.562  0.3889  0.1788 -0.0175
16495TIP3    H270977   4.684   3.768  11.569  0.3848 -0.1333  1.1267
16496TIP3   OH270978   4.897   3.386   5.807 -0.3809 -0.5118  0.4051
16496TIP3    H170979   4.945   3.415   5.884 -0.6629 -0.4157  0.5474
16496TIP3    H270980   4.959   3.333   5.758 -0.6252 -1.7652  1.4112
16497TIP3   OH270981   5.814   5.671   0.922  0.2370 -0.1972 -0.2373
16497TIP3    H170982   5.847   5.596   0.972  2.4810  1.1707  0.5033
16497TIP3    H270983   5.891   5.727   0.911 -1.0229  1.2601 -2.1344
16498TIP3   OH270984   2.308   2.029  13.032 -0.7941 -0.5597 -0.2104
16498TIP3    H170985   2.385   2.084  13.048 -1.2641 -0.1763  0.8125
16498TIP3    H270986   2.338   1.964  12.969 -0.0584  0.5141 -1.0110
16499TIP3   OH270987   0.329   2.419  14.066  0.6252  0.2455  0.2366
16499TIP3    H170988   0.384   2.391  14.140 -0.0082 -1.5245  0.0854
16499TIP3    H270989   0.286   2.499  14.097  1.3521  0.2595  1.2801
16500TIP3   OH270990   1.290   2.281  12.465 -0.3080  0.1224  0.6220
16500TIP3    H170991   1.200   2.292  12.496  0.3554  1.1841  2.3892
16500TIP3    H270992   1.291   2.319  12.377 -1.3287  1.2561  1.0765
16501TIP3   OH270993   3.654   3.671   5.562  0.1052  0.0760 -0.0009
16501TIP3    H170994   3.662   3.755   5.518  0.1604 -0.7773 -1.6771
16501TIP3    H270995   3.607   3.691   5.643 -2.3373  1.3164 -1.6128
16502TIP3   OH270996   4.207   3.278   0.171 -0.7477 -0.0631 -0.4833
16502TIP3    H170997   4.237   3.222   0.099 -0.3500 -0.7404  0.2069
16502TIP3    H270998   4.171   3.355   0.126  0.3230 -0.0589 -1.3975
16503TIP3   OH270999   3.114   0.254   1.067 -0.3892 -0.1310  0.0226
16503TIP3    H171000   3.171   0.177   1.054  3.0874  1.3877  3.9937
16503TIP3    H271001   3.159   0.324   1.021 -0.1810  0.6728  1.4128
16504TIP3   OH271002   2.229   1.479   2.801  0.6702  0.1691 -0.1754
16504TIP3    H171003   2.136   1.503   2.797 -0.1576 -2.5981  0.6074
16504TIP3    H271004   2.270   1.550   2.850 -1.3288  0.6762  0.8457
16505TIP3   OH271005   2.443   2.025   1.939  0.2818  0.2753 -0.0015
16505TIP3    H171006   2.427   2.007   2.031  0.3787 -0.8952 -0.1923
16505TIP3    H271007   2.414   1.945   1.894  3.0186 -0.4286 -0.7089
16506TIP3   OH271008   4.463   0.241  12.961 -0.1677  0.5683 -0.2811
16506TIP3    H171009   4.459   0.221  12.868 -0.4231 -0.0218 -0.1481
16506TIP3    H271010   4.554   0.225  12.986 -0.0428  0.9542 -0.4704
16507TIP3   OH271011   2.838   1.736   0.099 -0.1131  0.1139  0.3584
16507TIP3    H171012   2.823   1.830   0.087  0.4985  0.1537 -0.2008
16507TIP3    H271013   2.887   1.710   0.021  1.3745 -0.2758  1.3812
16508TIP3   OH271014   6.663   5.571  14.876 -0.0520  0.2063 -0.2289
16508TIP3    H171015   6.702   5.584  14.962  0.4053  1.9670 -0.6643
16508TIP3    H271016   6.732   5.530  14.824 -0.5395 -1.4608  0.3764
16509TIP3   OH271017   5.223   2.939  14.245  0.2705  0.2996  0.0085
16509TIP3    H171018   5.190   2.963  14.331  1.3000  2.4978 -0.1255
16509TIP3    H271019   5.153   2.888  14.205 -0.0697 -1.1606  2.2536
16510TIP3   OH271020   2.852   1.164   3.450 -0.0810  0.4549 -0.5831
16510TIP3    H171021   2.894   1.243   3.416 -1.8394  1.5772 -0.3459
16510TIP3    H271022   2.838   1.183   3.543  0.7600 -0.7682 -0.1768
16511TIP3   OH271023   4.907   5.477  15.603 -0.3132  0.2727  0.4653
16511TIP3    H171024   4.993   5.487  15.644 -0.3295 -0.2272  0.6330
16511TIP3    H271025   4.911   5.532  15.525  0.6541 -0.7770 -0.2757
16512TIP3   OH271026   3.854   5.295   1.860  0.5343 -0.5956  0.1974
16512TIP3    H171027   3.917   5.225   1.844  0.5553 -0.3777 -0.7142
16512TIP3    H271028   3.907   5.367   1.894  0.6066 -0.7882  0.5028
16513TIP3   OH271029   0.303   0.484   3.973  0.2175 -0.0768 -0.2357
16513TIP3    H171030   0.344   0.397   3.973 -0.2118 -0.2837  0.4233
16513TIP3    H271031   0.375   0.544   3.955  0.5918 -0.5409 -0.3073
16514TIP3   OH271032   0.108   1.598  12.150 -0.2070 -0.2700 -1.1164
16514TIP3    H171033   0.181   1.551  12.192  0.5823  1.2826 -0.6723
16514TIP3    H271034   0.047   1.614  12.222 -0.2272 -0.1658 -1.1574
16515TIP3   OH271035   4.624   6.378  16.420  0.3511  0.3136 -0.3723
16515TIP3    H171036   4.570   6.363  16.498  1.0603 -2.1884 -0.2877
16515TIP3    H271037   4.713   6.359  16.450  0.6162 -0.8567 -1.8044
16516TIP3   OH271038   1.767   6.181   2.799  0.5095 -0.2831 -0.2833
16516TIP3    H171039   1.840   6.129   2.833  0.9079 -0.0649 -0.7850
16516TIP3    H271040   1.789   6.271   2.824  0.2055 -0.2644 -0.0801
16517TIP3   OH271041   2.121   4.766  12.376  0.8123 -0.0490 -0.2615
16517TIP3    H171042   2.195   4.822  12.349  0.9173 -0.0961 -0.0732
16517TIP3    H271043   2.163   4.689  12.414  0.6704 -0.3670 -0.7373
16518TIP3   OH271044   0.253   4.797   3.245 -0.7762 -0.0088 -0.3986
16518TIP3    H171045   0.316   4.754   3.304  0.4195 -0.7434 -2.1234
16518TIP3    H271046   0.173   4.803   3.296 -0.7493 -3.4876  0.2884
16519TIP3   OH271047   3.305   2.340   5.757  0.2900 -0.4067 -0.0849
16519TIP3    H171048   3.301   2.267   5.819 -0.1729 -1.3608 -1.2031
16519TIP3    H271049   3.248   2.314   5.685 -0.2945  1.2966 -0.2888
16520TIP3   OH271050   3.202   1.271   0.674  0.0070  0.2174 -0.1935
16520TIP3    H171051   3.188   1.177   0.669  1.1114 -0.0309  0.9656
16520TIP3    H271052   3.241   1.294   0.590 -0.0510 -0.3828 -0.3904
16521TIP3   OH271053   4.058   3.747   3.765  0.4380 -0.3158 -0.7072
16521TIP3    H171054   4.095   3.720   3.849  0.1850 -0.5900 -0.6824
16521TIP3    H271055   3.991   3.682   3.747 -2.2265  1.8492  0.7503
16522TIP3   OH271056   5.868   5.863  10.411  0.2649  0.8854 -0.9331
16522TIP3    H171057   5.952   5.882  10.368 -0.2565 -0.2815 -2.5595
16522TIP3    H271058   5.876   5.902  10.498  2.2463  1.3624 -1.2876
16523TIP3   OH271059   2.421   0.668  13.333 -0.6373 -0.1375  0.3200
16523TIP3    H171060   2.472   0.590  13.357 -0.4145  0.1115  0.6701
16523TIP3    H271061   2.377   0.644  13.252 -0.2920 -0.5099  0.2388
16524TIP3   OH271062   1.092   1.045  15.213  0.4863 -0.4243 -0.2017
16524TIP3    H171063   1.108   1.110  15.145  0.1650  0.4695  0.5495
16524TIP3    H271064   1.001   1.019  15.201 -0.0960  0.9692  0.8696
16525TIP3   OH271065   3.882   1.871  12.251  0.5274 -0.5212 -0.1566
16525TIP3    H171066   3.927   1.955  12.250 -1.4239  0.7442  3.3377
16525TIP3    H271067   3.820   1.877  12.178 -1.0576  2.0845  1.2593
16526TIP3   OH271068   4.344   5.088   0.424  0.6304  0.1209  0.7808
16526TIP3    H171069   4.299   5.114   0.344 -1.0550  0.7588  1.8814
16526TIP3    H271070   4.298   5.009   0.453  0.7982  0.2667  1.4653
16527TIP3   OH271071   2.957   5.505   3.420 -0.1735 -0.2745  0.3204
16527TIP3    H171072   2.874   5.465   3.394  0.0376  0.1699 -1.1634
16527TIP3    H271073   2.959   5.589   3.372  1.6912 -0.8545 -0.7402
16528TIP3   OH271074   5.898   0.497  14.850 -0.4658 -0.3053 -0.2131
16528TIP3    H171075   5.944   0.580  14.840  0.4555 -0.6894  0.7013
16528TIP3    H271076   5.855   0.504  14.935  0.8837 -1.3498  0.5789
16529TIP3   OH271077   1.940   0.094  15.317  0.5530 -0.1974 -0.2729
16529TIP3    H171078   1.950   0.014  15.264  2.2418 -1.3091  1.6159
16529TIP3    H271079   1.985   0.162  15.266  0.9729 -0.9235 -0.8973
16530TIP3   OH271080   2.136   1.240   3.569 -0.4160  0.3160 -0.0435
16530TIP3    H171081   2.222   1.265   3.601 -0.3122 -2.2906  2.1173
16530TIP3    H271082   2.074   1.291   3.621 -0.2193  0.9733 -0.4424
16531TIP3   OH271083   6.144   2.082  11.157 -0.1460 -0.0750  0.6391
16531TIP3    H171084   6.059   2.100  11.117 -0.5850 -0.9140  1.1708
16531TIP3    H271085   6.125   2.017  11.225  0.8509  0.0676  1.0657
16532TIP3   OH271086   5.914   1.316   0.928  0.1437  0.3121 -0.1302
16532TIP3    H171087   5.952   1.327   1.015  0.4625  0.9538 -0.3485
16532TIP3    H271088   5.988   1.301   0.870  0.0003  0.7225 -0.4242
16533TIP3   OH271089   5.996   5.263  13.119 -0.3662  0.2729 -0.0652
16533TIP3    H171090   6.049   5.185  13.135  0.5382  0.7145 -0.7460
16533TIP3    H271091   5.942   5.272  13.197  1.3767  0.4152  1.1816
16534TIP3   OH271092   3.554   4.027   2.986 -0.4141  0.2742  0.4965
16534TIP3    H171093   3.483   3.987   3.035  0.1189 -1.0542  0.2502
16534TIP3    H271094   3.517   4.043   2.899 -0.8350  0.9788  0.7970
16535TIP3   OH271095   1.030   3.374   3.113  0.0495 -0.4638  0.4579
16535TIP3    H171096   1.032   3.433   3.037  1.1641 -0.5526  0.3965
16535TIP3    H271097   1.075   3.422   3.182  0.7074 -1.1123  0.4951
16536TIP3   OH271098   2.470   1.120  14.879  0.6460  0.3895 -0.1685
16536TIP3    H171099   2.488   1.197  14.933  0.5885  0.7165 -0.6104
16536TIP3    H271100   2.556   1.081  14.863  0.5826 -0.2014  0.8726
16537TIP3   OH271101   5.125   2.529  12.740  0.6708 -0.1941  0.3666
16537TIP3    H171102   5.194   2.543  12.805 -0.1112  1.7288  0.8392
16537TIP3    H271103   5.072   2.608  12.744 -0.4051 -0.7747 -1.4196
16538TIP3   OH271104   1.511   1.110  14.586  0.1043  0.0050  0.2900
16538TIP3    H171105   1.523   1.076  14.674 -1.5871  0.1192  0.6065
16538TIP3    H271106   1.461   1.042  14.540 -0.1992  0.5141 -0.1564
16539TIP3   OH271107   5.757   1.168  16.594 -0.5409  0.0493 -0.3136
16539TIP3    H171108   5.830   1.109  16.610 -0.4762  0.3774  0.7290
16539TIP3    H271109   5.681   1.110  16.585 -0.3355 -0.2351 -0.2368
16540TIP3   OH271110   4.825   2.781   1.556 -0.0341  0.1261 -0.3716
16540TIP3    H171111   4.736   2.754   1.578  0.1885  0.4821  1.0244
16540TIP3    H271112   4.876   2.762   1.634  1.2318 -0.5067 -1.3047
16541TIP3   OH271113   1.938   4.005  13.390 -0.5055 -0.1161  0.2501
16541TIP3    H171114   1.932   3.911  13.403 -1.6969  0.0022  0.6535
16541TIP3    H271115   1.869   4.042  13.445 -0.1739  0.9796 -0.0394
16542TIP3   OH271116   0.592   6.745   3.898 -0.1814  0.3883  0.9734
16542TIP3    H171117   0.647   6.684   3.850  1.4801  2.1388  0.4853
16542TIP3    H271118   0.523   6.769   3.837 -0.1841 -0.1398  0.7664
16543TIP3   OH271119   0.274   3.197   2.206 -0.9624 -0.1324  0.2975
16543TIP3    H171120   0.363   3.177   2.235 -0.6736 -0.9350 -1.0457
16543TIP3    H271121   0.218   3.137   2.256 -0.7326  0.1936  0.9547
16544TIP3   OH271122   1.613   2.053  12.322 -0.1086  0.2253  0.2577
16544TIP3    H171123   1.691   2.005  12.294 -1.2036 -1.5606  0.1017
16544TIP3    H271124   1.613   2.132  12.269  1.0308 -0.2499 -0.4932
16545TIP3   OH271125   1.898   5.968   2.926 -0.1892  0.3439 -0.3098
16545TIP3    H171126   1.916   5.886   2.880 -2.6862 -0.2435 -0.3685
16545TIP3    H271127   1.844   5.942   3.001  2.4560  1.4717  2.1856
16546TIP3   OH271128   4.400   0.218  16.041 -0.8409 -0.2480  0.0220
16546TIP3    H171129   4.459   0.159  15.994 -1.3018 -0.4872 -0.2679
16546TIP3    H271130   4.361   0.272  15.972  0.6030  1.3765  0.3895
16547TIP3   OH271131   1.521   6.104  10.323  0.5087 -0.2501  0.1041
16547TIP3    H171132   1.513   6.173  10.258  3.0567 -1.4463 -1.6227
16547TIP3    H271133   1.592   6.133  10.380  0.6602 -0.8083  0.2037
16548TIP3   OH271134   5.811   6.357  14.265  0.3130  0.5367 -0.0062
16548TIP3    H171135   5.801   6.298  14.191 -0.7375 -1.6981  1.7873
16548TIP3    H271136   5.900   6.342  14.297  1.2623  2.4855 -1.4888
16549TIP3   OH271137   3.194   4.326  14.078  0.3222  0.4389  0.0292
16549TIP3    H171138   3.187   4.255  14.015  1.9292  0.9590 -0.7878
16549TIP3    H271139   3.215   4.283  14.161  0.2125 -0.1086 -0.2241
16550TIP3   OH271140   6.270   0.475   3.713 -0.1738  0.6386  0.0897
16550TIP3    H171141   6.246   0.393   3.756  0.9135 -0.3865 -1.1218
16550TIP3    H271142   6.202   0.488   3.647 -0.2095  0.5647  0.1116
16551TIP3   OH271143   3.834   2.511  14.081 -0.7583  0.0583 -0.8515
16551TIP3    H171144   3.738   2.512  14.087 -0.6904 -0.1429  0.4747
16551TIP3    H271145   3.855   2.589  14.031 -1.6479 -0.2859 -1.8030
16552TIP3   OH271146   6.491   6.683  14.923 -0.3028 -0.1754 -0.4623
16552TIP3    H171147   6.469   6.672  14.830  1.3802  1.4501 -1.1091
16552TIP3    H271148   6.447   6.764  14.948  0.5247  0.2372 -0.3050
16553TIP3   OH271149   6.441   2.794  13.555  0.0656  0.1290  0.3039
16553TIP3    H171150   6.462   2.712  13.599 -1.3544 -0.7469 -0.5430
16553TIP3    H271151   6.525   2.828  13.525  0.6861 -0.9903  0.7307
16554TIP3   OH271152   6.718   3.377   4.352  0.7540 -0.8263 -0.4953
16554TIP3    H171153   6.669   3.404   4.430 -1.1176 -0.1455 -1.8356
16554TIP3    H271154   6.787   3.442   4.344 -0.5367  0.5672 -0.7419
16555TIP3   OH271155   5.647   1.437   3.237  0.6551 -0.1538  0.7498
16555TIP3    H171156   5.642   1.391   3.322  0.8280  0.0450  0.8691
16555TIP3    H271157   5.563   1.481   3.229  0.4735 -0.5160  0.6201
16556TIP3   OH271158   4.342   1.681   1.868  0.2053 -0.0134 -0.1101
16556TIP3    H171159   4.418   1.661   1.814 -1.1357  0.4869 -2.2925
16556TIP3    H271160   4.292   1.599   1.871  0.7959 -0.3639  1.3834
16557TIP3   OH271161   2.566   1.021   5.945 -0.2420  0.1118 -0.0416
16557TIP3    H171162   2.513   0.985   6.016  0.1502 -2.2474 -0.8560
16557TIP3    H271163   2.523   0.989   5.865  0.8304  0.4925 -0.7856
16558TIP3   OH271164   3.800   1.566  14.579 -0.0237 -0.4164  0.0367
16558TIP3    H171165   3.843   1.614  14.509 -2.2965  1.2493 -0.3132
16558TIP3    H271166   3.855   1.582  14.656 -0.1212  1.9255 -0.3098
16559TIP3   OH271167   3.698   1.326   5.821 -0.0444 -0.1280 -0.3489
16559TIP3    H171168   3.768   1.379   5.784 -0.0409  1.8983  2.2545
16559TIP3    H271169   3.743   1.255   5.867 -0.0090 -1.7680 -2.6925
16560TIP3   OH271170   1.843   6.135  13.793 -0.3359 -0.4539 -0.1204
16560TIP3    H171171   1.872   6.226  13.808 -1.7520 -0.0456  0.2394
16560TIP3    H271172   1.784   6.116  13.866 -0.5378 -1.4607 -0.5311
16561TIP3   OH271173   0.102   3.834  11.656  0.7020 -0.6721  0.1610
16561TIP3    H171174   0.029   3.793  11.610 -0.1569 -1.7641  2.3870
16561TIP3    H271175   0.177   3.776  11.641  0.4973 -0.8769 -0.0655
16562TIP3   OH271176   3.967   5.257   1.301 -0.5431  0.1070  0.5741
16562TIP3    H171177   3.993   5.291   1.386 -2.1922  0.2526  1.0629
16562TIP3    H271178   3.884   5.301   1.282  0.3060  0.9061 -1.6366
16563TIP3   OH271179   2.032   2.112  12.988  0.1773 -0.0696  0.6335
16563TIP3    H171180   2.122   2.121  13.021 -0.2896 -0.9751  2.2343
16563TIP3    H271181   1.977   2.147  13.057 -0.7247  0.8163 -0.4939
16564TIP3   OH271182   1.665   5.416  13.025  0.0353  0.3174 -0.1731
16564TIP3    H171183   1.633   5.422  13.115  1.6906 -0.6870  0.5306
16564TIP3    H271184   1.695   5.326  13.016  1.2880  0.8075 -1.2330
16565TIP3   OH271185   5.127   1.553   2.030 -0.4643 -0.1961  0.1140
16565TIP3    H171186   5.074   1.512   1.962  0.0737  0.1336 -0.5160
16565TIP3    H271187   5.215   1.555   1.994 -0.2772  0.5019  0.5830
16566TIP3   OH271188   5.159   4.899  16.624  0.0279 -0.3581 -0.1552
16566TIP3    H171189   5.182   4.992  16.619  0.0073 -0.3158  0.5499
16566TIP3    H271190   5.150   4.872  16.532  1.2295  0.0382 -0.4132
16567TIP3   OH271191   3.563   0.772  14.750  0.4429 -0.1297 -0.6952
16567TIP3    H171192   3.485   0.805  14.794  1.0058  0.9550 -0.4950
16567TIP3    H271193   3.635   0.789  14.811  0.9637 -0.3473 -1.2354
16568TIP3   OH271194   4.169   1.018   4.051 -0.6621 -0.5328  0.0120
16568TIP3    H171195   4.249   1.024   4.104  0.3447  0.9315 -1.5677
16568TIP3    H271196   4.104   1.067   4.100  0.7979  2.6206 -0.9423
16569TIP3   OH271197   5.390   1.462  15.538  0.2224  0.1278  0.3583
16569TIP3    H171198   5.394   1.368  15.559  0.8208  0.5379  2.2171
16569TIP3    H271199   5.444   1.471  15.460 -0.1222 -1.1163 -0.0596
16570TIP3   OH271200   4.845   6.641   0.408 -0.2738  0.3577  0.0378
16570TIP3    H171201   4.912   6.704   0.382 -1.0322  0.1422 -2.7557
16570TIP3    H271202   4.789   6.689   0.469  0.3862  1.6865 -0.3601
16571TIP3   OH271203   6.478   0.179  13.146  0.4966 -0.1244  0.2329
16571TIP3    H171204   6.402   0.189  13.089  1.4400  0.1329 -1.0336
16571TIP3    H271205   6.442   0.147  13.229 -0.7980 -1.6814 -0.8714
16572TIP3   OH271206   0.995   3.909   3.707  0.4098  0.1765 -0.1686
16572TIP3    H171207   0.953   3.877   3.628 -3.3715 -0.4892  1.8359
16572TIP3    H271208   1.004   3.831   3.763 -2.2881  1.2547  2.0443
16573TIP3   OH271209   5.362   0.946  12.755  0.5380  0.0480  0.7147
16573TIP3    H171210   5.275   0.936  12.793  0.3901  2.7789  1.3240
16573TIP3    H271211   5.355   1.024  12.700  1.7101 -1.7455 -2.1770
16574TIP3   OH271212   2.017   6.170   0.213  0.4585  0.6055  0.0095
16574TIP3    H171213   2.094   6.225   0.198  0.0099  1.2326 -0.0401
16574TIP3    H271214   1.946   6.214   0.166 -0.2754  0.9102  1.3275
16575TIP3   OH271215   0.157   4.459   0.093  0.6496 -0.5343  0.5176
16575TIP3    H171216   0.140   4.394   0.162  0.1100 -0.2331  0.6729
16575TIP3    H271217   0.193   4.534   0.141 -2.9336  1.0748  1.0592
16576TIP3   OH271218   0.820   2.847  15.645 -0.4805 -0.2147 -0.0888
16576TIP3    H171219   0.835   2.884  15.732  2.1869 -2.4041  0.5114
16576TIP3    H271220   0.764   2.771  15.661  0.4132 -0.9080 -0.1697
16577TIP3   OH271221   3.313   3.983   1.590  0.3373  0.2173  0.1670
16577TIP3    H171222   3.353   4.069   1.585 -0.6741  0.6570 -0.9321
16577TIP3    H271223   3.231   3.992   1.541 -0.3509 -1.0524  1.0178
16578TIP3   OH271224   2.327   0.289   5.268 -0.7103  0.4304 -0.7083
16578TIP3    H171225   2.356   0.199   5.281  0.4211  0.7185 -1.0474
16578TIP3    H271226   2.344   0.332   5.352 -1.1766  0.3512 -0.5708
16579TIP3   OH271227   2.779   6.419  11.306 -0.2195 -0.6038  0.1307
16579TIP3    H171228   2.803   6.337  11.348  0.5098 -0.4537  0.0134
16579TIP3    H271229   2.711   6.456  11.363  2.3282  0.7245  2.5339
16580TIP3   OH271230   3.464   5.683  10.792  0.0092  0.4416  0.3313
16580TIP3    H171231   3.418   5.701  10.710 -0.7793 -0.9095  0.4468
16580TIP3    H271232   3.416   5.610  10.831  0.7516  0.6463  1.6975
16581TIP3   OH271233   0.039   4.099  11.222  0.3983  0.0269 -0.2319
16581TIP3    H171234  -0.011   4.103  11.141  1.4243  0.4161 -0.8702
16581TIP3    H271235   0.065   4.190  11.238  0.6656 -0.1292  0.2306
16582TIP3   OH271236   0.215   0.611  12.045 -1.0481  0.1477  0.4529
16582TIP3    H171237   0.131   0.653  12.030 -1.1056 -0.0320  0.2697
16582TIP3    H271238   0.209   0.528  11.999 -1.1289 -0.2992  1.2557
16583TIP3   OH271239   0.498   3.288  15.632  0.0884  0.7890  0.3249
16583TIP3    H171240   0.547   3.214  15.597  0.4200  0.9529  0.4395
16583TIP3    H271241   0.409   3.276  15.600  0.2031  0.4837  0.1252
16584TIP3   OH271242   2.636   3.686  14.250 -0.8520 -0.0377 -0.1325
16584TIP3    H171243   2.598   3.741  14.317  0.6549  0.1448  0.6069
16584TIP3    H271244   2.604   3.598  14.270 -0.4461  0.0183  0.8379
16585TIP3   OH271245   6.589   0.695   3.432  0.0983 -0.3269  0.0672
16585TIP3    H171246   6.631   0.649   3.504 -1.3322 -2.5514 -0.4309
16585TIP3    H271247   6.662   0.728   3.379  1.1596  0.1491  1.7574
16586TIP3   OH271248   0.386   1.016   3.012 -0.0358  0.8522 -0.4686
16586TIP3    H171249   0.422   1.092   2.966 -0.5213  0.6147 -1.2476
16586TIP3    H271250   0.348   0.962   2.944  0.7438 -0.3489  0.0139
16587TIP3   OH271251   0.442   5.800   3.019  0.1723  0.0765 -0.4021
16587TIP3    H171252   0.364   5.836   3.062 -0.7697 -1.5136 -0.7100
16587TIP3    H271253   0.408   5.742   2.952  1.6394 -0.6017 -0.5956
16588TIP3   OH271254   5.246   4.577  11.306  0.2042  0.0517  0.2710
16588TIP3    H171255   5.250   4.624  11.390 -0.7701  1.0201 -0.1911
16588TIP3    H271256   5.154   4.583  11.281  0.2131 -1.4781 -0.1823
16589TIP3   OH271257   6.505   3.371  16.397 -0.0905 -0.0468 -0.2779
16589TIP3    H171258   6.424   3.342  16.355 -0.3772 -0.5445  0.5893
16589TIP3    H271259   6.571   3.368  16.328 -0.7143 -0.0739 -0.8846
16590TIP3   OH271260   1.970   3.786  15.113  0.0927 -0.0164 -0.4793
16590TIP3    H171261   2.051   3.791  15.063  0.6430  0.0681  0.4066
16590TIP3    H271262   1.904   3.824  15.055  0.6768 -0.0719 -1.2028
16591TIP3   OH271263   5.968   1.514   1.451  0.1836  0.4296 -0.0083
16591TIP3    H171264   5.874   1.528   1.465  0.1427 -0.8546  1.2613
16591TIP3    H271265   5.982   1.423   1.478  1.7772  0.5653 -0.3174
16592TIP3   OH271266   2.595   0.648  15.467  0.0854 -0.0247 -0.5535
16592TIP3    H171267   2.548   0.627  15.548  1.0496  0.4406  0.1441
16592TIP3    H271268   2.533   0.626  15.397 -0.4040 -1.3883  0.2664
16593TIP3   OH271269   1.967   1.754   0.307 -0.1372 -0.1350  0.0145
16593TIP3    H171270   1.893   1.815   0.302 -0.0177 -0.0591 -1.2452
16593TIP3    H271271   1.995   1.743   0.216  1.7406  0.2419  0.5054
16594TIP3   OH271272   0.726   6.603   3.680  0.6121 -0.7057 -0.2106
16594TIP3    H171273   0.635   6.592   3.652  0.2034 -2.9140  1.6739
16594TIP3    H271274   0.776   6.606   3.599 -0.9575 -1.4613 -1.2497
16595TIP3   OH271275   6.025   1.638   0.642  0.1391  0.4516  0.1786
16595TIP3    H171276   6.075   1.669   0.566 -1.5358 -0.6119 -1.4485
16595TIP3    H271277   6.045   1.544   0.645  1.0189  0.6598  1.7614
16596TIP3   OH271278   0.314   4.022   5.835 -0.0043 -0.3222 -0.1085
16596TIP3    H171279   0.252   3.988   5.770 -0.0058 -1.0345  0.2507
16596TIP3    H271280   0.266   4.089   5.882  0.5955  1.6478 -2.1153
16597TIP3   OH271281   2.612   6.728  12.252 -0.5475 -0.3194 -0.9070
16597TIP3    H171282   2.563   6.711  12.171 -0.9004  0.8039 -0.9463
16597TIP3    H271283   2.620   6.823  12.256  1.1620 -0.4541 -0.5951
16598TIP3   OH271284   0.120   6.781   0.962  0.7892  0.6584  0.1464
16598TIP3    H171285   0.141   6.873   0.977 -0.6587  1.7057 -3.3224
16598TIP3    H271286   0.165   6.759   0.880 -0.0745 -1.3030  0.1416
16599TIP3   OH271287   4.428   6.331   3.910 -0.5584  0.3298  0.1139
16599TIP3    H171288   4.485   6.406   3.926  0.7205 -0.9966  2.0876
16599TIP3    H271289   4.460   6.295   3.827  0.4751  0.4948  0.4259
16600TIP3   OH271290   2.864   5.848  12.568  0.6584  0.3357 -0.3063
16600TIP3    H171291   2.779   5.838  12.527  0.6410 -1.6556  0.0701
16600TIP3    H271292   2.846   5.843  12.662  1.1724 -0.3029 -0.2281
16601TIP3   OH271293   2.651   2.974   5.954  0.2280  0.4956 -0.2989
16601TIP3    H171294   2.590   3.045   5.974  0.9241  0.9785  0.1593
16601TIP3    H271295   2.726   2.990   6.011  0.5312 -0.4319 -0.4237
16602TIP3   OH271296   0.615   1.339   2.214  0.3949 -0.0841  0.1488
16602TIP3    H171297   0.616   1.358   2.307 -0.6843  1.9184 -0.1870
16602TIP3    H271298   0.707   1.321   2.192  0.6728 -0.4771  1.5442
16603TIP3   OH271299   3.919   0.084   5.892  0.2104  0.0903  0.2375
16603TIP3    H171300   3.888   0.091   5.802 -0.8220 -3.6564  0.1195
16603TIP3    H271301   4.009   0.053   5.884 -1.1140 -4.4413  0.1902
16604TIP3   OH271302   6.335   0.154  15.005 -0.0011  0.0946  0.0640
16604TIP3    H171303   6.406   0.174  14.945 -1.5133  0.4722 -1.6891
16604TIP3    H271304   6.307   0.239  15.039  0.4182 -0.0586  0.8056
16605TIP3   OH271305   5.029   5.793   2.850 -0.2869 -0.1972 -0.0351
16605TIP3    H171306   5.087   5.858   2.891 -1.3646  0.5912  0.3057
16605TIP3    H271307   5.075   5.710   2.860  1.1176  0.4914 -0.4362
16606TIP3   OH271308   4.239   1.081  13.770  0.1847  0.3092  0.4947
16606TIP3    H171309   4.170   1.030  13.814 -0.3194  1.4803  1.0964
16606TIP3    H271310   4.303   1.015  13.742 -0.8500 -0.7446  0.5036
16607TIP3   OH271311   2.473   2.111  12.495  0.5105  0.0189  0.1617
16607TIP3    H171312   2.549   2.069  12.456  1.3572 -0.4257  2.2015
16607TIP3    H271313   2.398   2.067  12.454  1.3506 -0.4976 -0.8508
16608TIP3   OH271314   5.681   1.584   1.776  0.0396 -0.8836  0.0394
16608TIP3    H171315   5.775   1.604   1.770  0.0585 -1.3408 -2.7530
16608TIP3    H271316   5.655   1.614   1.863  2.9046 -1.3833  1.1732
16609TIP3   OH271317   3.336   4.477  10.808 -0.5229 -0.0234 -0.9199
16609TIP3    H171318   3.415   4.504  10.760  1.6402 -3.9282 -0.0293
16609TIP3    H271319   3.286   4.426  10.745  0.1679 -1.5506 -0.2861
16610TIP3   OH271320   2.560   5.136  11.467  0.1233 -0.2835  0.1191
16610TIP3    H171321   2.559   5.041  11.479  0.9771 -0.2852  0.2375
16610TIP3    H271322   2.653   5.159  11.467 -0.0953  0.6456  0.8203
16611TIP3   OH271323   4.895   3.277   4.723 -0.2025  0.2761  0.6364
16611TIP3    H171324   4.887   3.364   4.683 -1.0066  0.2863  0.7992
16611TIP3    H271325   4.904   3.217   4.649 -0.5007  0.4154  0.4845
16612TIP3   OH271326   4.254   0.998   0.352  0.0738  0.1624 -0.2853
16612TIP3    H171327   4.339   1.042   0.353  0.9483 -1.1924 -2.9737
16612TIP3    H271328   4.191   1.066   0.376  1.7879  1.5272  0.5759
16613TIP3   OH271329   1.771   0.564  13.492 -0.6934 -0.0273 -0.0561
16613TIP3    H171330   1.772   0.660  13.488 -3.8736  0.3546  3.2893
16613TIP3    H271331   1.768   0.544  13.585 -0.2326 -3.4439 -0.6574
16614TIP3   OH271332   6.025   0.746  12.209  0.6952  0.4252 -0.2719
16614TIP3    H171333   5.938   0.747  12.248  0.5877 -2.3214 -0.2214
16614TIP3    H271334   6.074   0.682  12.262  1.8385 -0.2228 -2.0058
16615TIP3   OH271335   4.978   3.388  12.961  0.1693 -0.2393 -0.2097
16615TIP3    H171336   4.896   3.431  12.985 -0.1131 -1.3969  1.0438
16615TIP3    H271337   4.957   3.338  12.882 -1.0386 -2.2840  1.2783
16616TIP3   OH271338   0.876   3.788  16.992  0.8269 -0.0536 -0.3579
16616TIP3    H171339   0.959   3.773  16.947  1.5989 -0.9025  1.2505
16616TIP3    H271340   0.839   3.865  16.950  2.5471  0.4824 -0.9582
16617TIP3   OH271341   3.208   4.639   0.968  0.1278 -0.4883  0.5066
16617TIP3    H171342   3.219   4.689   0.887  0.5659 -1.3267  0.0359
16617TIP3    H271343   3.117   4.655   0.994  0.5748  1.4868  1.0170
16618TIP3   OH271344   4.384   2.742  13.779 -0.5830  0.4797  0.2520
16618TIP3    H171345   4.334   2.660  13.787 -0.0259  0.2750  2.0736
16618TIP3    H271346   4.374   2.784  13.864  2.8043  0.1460  0.9254
16619TIP3   OH271347   4.638   5.608   1.710  0.4045 -0.6838  0.5156
16619TIP3    H171348   4.562   5.627   1.765  0.2212 -1.5410  0.5792
16619TIP3    H271349   4.636   5.676   1.642  0.1470 -0.1227  1.0801
16620TIP3   OH271350   0.343   6.676  14.621  0.8018  0.2400  0.1271
16620TIP3    H171351   0.275   6.673  14.555  1.1768  1.1900 -0.3077
16620TIP3    H271352   0.371   6.767  14.624  1.6161 -0.0156  0.7475
16621TIP3   OH271353   0.974   3.593   0.880 -0.3716  0.4038  0.0821
16621TIP3    H171354   1.058   3.636   0.898 -1.8881  2.6441  2.7134
16621TIP3    H271355   0.958   3.539   0.957 -1.0562 -0.5421 -0.7083
16622TIP3   OH271356   1.376   2.665  11.171 -0.1799 -0.1312 -0.4414
16622TIP3    H171357   1.406   2.734  11.112 -0.0243 -1.2705 -1.7717
16622TIP3    H271358   1.331   2.603  11.113 -0.9178 -0.7938  0.8109
16623TIP3   OH271359   1.362   0.318   3.696 -0.3653  0.0095  0.0530
16623TIP3    H171360   1.392   0.355   3.613  0.8336 -0.1913  0.3862
16623TIP3    H271361   1.416   0.240   3.709 -2.0200 -1.2047 -0.0337
16624TIP3   OH271362   2.264   6.702  10.879 -0.2536 -0.1600 -1.1039
16624TIP3    H171363   2.256   6.611  10.851  0.4780  0.0405 -2.0099
16624TIP3    H271364   2.248   6.753  10.799 -0.7514  0.5089 -0.5845
16625TIP3   OH271365   3.652   5.945  13.194 -0.5381  1.0245  0.4048
16625TIP3    H171366   3.729   5.909  13.239  0.7114  0.5006 -1.9785
16625TIP3    H271367   3.689   6.001  13.125 -2.2853  0.6886 -0.8720
16626TIP3   OH271368   4.416   4.396   4.472  0.1147  0.2137  0.3235
16626TIP3    H171369   4.330   4.406   4.431  0.3165 -0.6488 -0.3567
16626TIP3    H271370   4.418   4.305   4.502  0.8077  0.2073  0.2866
16627TIP3   OH271371   3.653   6.249   0.256  0.2674  0.7659  0.2307
16627TIP3    H171372   3.620   6.205   0.334 -1.7222  1.7322 -0.0185
16627TIP3    H271373   3.692   6.179   0.204 -2.6140 -0.7564 -0.0741
16628TIP3   OH271374   2.494   3.927   5.131 -0.3598 -0.5327 -0.6543
16628TIP3    H171375   2.576   3.972   5.110  0.6228 -1.7487  0.4134
16628TIP3    H271376   2.480   3.868   5.057 -1.1680  0.8182 -1.6182
16629TIP3   OH271377   0.729   2.385  15.852  0.5743  0.1912  0.2750
16629TIP3    H171378   0.662   2.318  15.839  2.4400 -1.1993 -4.4630
16629TIP3    H271379   0.802   2.339  15.895  0.0794  0.5744  1.5547
16630TIP3   OH271380   1.445   1.291   4.884 -0.1723  0.4085 -0.0481
16630TIP3    H171381   1.417   1.363   4.828 -0.5616  0.3171  0.0271
16630TIP3    H271382   1.440   1.327   4.973 -2.3621 -0.3147  0.1867
16631TIP3   OH271383   2.523   5.201  14.255 -0.2910 -0.3562  0.2607
16631TIP3    H171384   2.573   5.277  14.225 -0.4433  0.3122  1.5844
16631TIP3    H271385   2.440   5.238  14.285 -0.7187 -1.1679  0.0795
16632TIP3   OH271386   3.725   4.478  13.342  0.3084 -0.4608  0.0471
16632TIP3    H171387   3.786   4.536  13.296  0.7305  1.1231  2.4178
16632TIP3    H271388   3.744   4.492  13.434 -1.5891 -2.2592  0.7845
16633TIP3   OH271389   1.344   3.065   4.164  0.1676  0.3396 -0.1790
16633TIP3    H171390   1.418   3.083   4.105  0.1120 -2.1413 -1.1214
16633TIP3    H271391   1.311   2.979   4.136 -0.2057 -0.7376  3.1188
16634TIP3   OH271392   3.576   1.879   2.461  0.1348  0.0668  0.2547
16634TIP3    H171393   3.569   1.869   2.556  1.9896  2.5778  0.7482
16634TIP3    H271394   3.541   1.967   2.444  1.5692  0.4203 -1.0911
16635TIP3   OH271395   5.102   2.719  11.914  0.4100  0.1637  0.1952
16635TIP3    H171396   5.010   2.739  11.894  0.4904 -0.6177 -1.1385
16635TIP3    H271397   5.132   2.792  11.967 -0.3117  1.7277 -1.4271
16636TIP3   OH271398   0.687   6.244  15.391 -0.3570 -0.4455  0.1413
16636TIP3    H171399   0.664   6.314  15.331  0.3810 -0.8299 -0.6111
16636TIP3    H271400   0.663   6.277  15.477 -1.1317  0.2410 -0.3268
16637TIP3   OH271401   4.253   3.803  11.521 -0.1241  0.5716 -0.2872
16637TIP3    H171402   4.259   3.708  11.514 -0.7842  0.4455  0.7337
16637TIP3    H271403   4.324   3.835  11.465  0.8120 -0.5358  0.2326
16638TIP3   OH271404   3.145   1.323   3.956 -0.2266 -0.6485  0.3630
16638TIP3    H171405   3.171   1.302   4.045  2.1978 -2.4095 -0.6648
16638TIP3    H271406   3.128   1.239   3.915  0.4051 -0.0208 -1.2868
16639TIP3   OH271407   4.864   2.051  17.029  0.3123  0.5905 -0.0486
16639TIP3    H171408   4.862   2.060  17.124  1.2359 -1.1569  0.1674
16639TIP3    H271409   4.829   1.964  17.013  1.1330  0.4671 -1.2446
16640TIP3   OH271410   2.289   1.022   1.205 -0.0857 -0.2689 -0.3270
16640TIP3    H171411   2.380   1.035   1.230 -0.0545  1.4322 -1.1683
16640TIP3    H271412   2.239   1.044   1.283  0.1765  0.3188 -0.3208
16641TIP3   OH271413   5.554   4.534  11.984  0.6469  0.2445 -0.0769
16641TIP3    H171414   5.525   4.534  11.893  0.9071  0.7035 -0.1605
16641TIP3    H271415   5.627   4.472  11.986  2.1561  1.9016 -0.6822
16642TIP3   OH271416   4.865   1.417   5.702  0.2518  0.0049 -0.3110
16642TIP3    H171417   4.857   1.481   5.630 -2.8773  0.9519  0.7376
16642TIP3    H271418   4.862   1.470   5.781 -0.4218 -1.2833  0.5591
16643TIP3   OH271419   0.816   4.487  15.884  0.4804 -0.3548  0.2922
16643TIP3    H171420   0.806   4.577  15.853  0.9247 -0.0888  0.9047
16643TIP3    H271421   0.790   4.433  15.809 -1.4633  0.2678  0.4572
16644TIP3   OH271422   0.685   6.319  13.331 -0.1451  0.1173  0.3602
16644TIP3    H171423   0.767   6.353  13.366  0.4832  0.0382 -0.9592
16644TIP3    H271424   0.618   6.348  13.393  0.7699  0.9385  0.9959
16645TIP3   OH271425   0.983   1.520   4.200 -1.1818 -0.0256 -0.1403
16645TIP3    H171426   1.003   1.489   4.112 -1.5204  0.4477 -0.3885
16645TIP3    H271427   0.989   1.443   4.255 -0.2197 -0.1922 -0.4605
16646TIP3   OH271428   1.719   1.876   0.564 -0.1873 -0.9306 -0.2700
16646TIP3    H171429   1.624   1.874   0.578 -0.4208 -0.8130 -1.6617
16646TIP3    H271430   1.756   1.867   0.651 -1.4756 -1.3328  0.2672
16647TIP3   OH271431   1.289   6.478  15.147 -0.6556  0.1161  0.3452
16647TIP3    H171432   1.292   6.398  15.200  0.6223 -1.5644 -2.1144
16647TIP3    H271433   1.196   6.494  15.133 -1.0117  0.3234  2.5817
16648TIP3   OH271434   2.700   5.169   5.004  0.4493  0.3102  0.0476
16648TIP3    H171435   2.670   5.184   4.914  0.5476 -1.2906 -0.2897
16648TIP3    H271436   2.747   5.249   5.027  1.1671  0.4316 -1.6460
16649TIP3   OH271437   4.505   3.781  13.107  0.3958 -0.0105  0.1090
16649TIP3    H171438   4.553   3.763  13.188 -1.5929 -0.7975  1.1773
16649TIP3    H271439   4.431   3.720  13.108 -0.0451  0.3858 -2.0161
16650TIP3   OH271440   2.532   3.645  12.770 -0.0020  0.2449  0.3818
16650TIP3    H171441   2.455   3.588  12.764  0.4320 -0.3681  0.6203
16650TIP3    H271442   2.556   3.661  12.678  0.9253 -1.3995  0.3029
16651TIP3   OH271443   6.823   1.393   0.091  0.1444 -0.3036  0.1501
16651TIP3    H171444   6.888   1.369   0.025  0.5129  1.5993 -0.2435
16651TIP3    H271445   6.875   1.427   0.164 -0.3200 -1.1101  0.8687
16652TIP3   OH271446   5.962   2.363  10.915 -0.2809 -0.2377 -0.1852
16652TIP3    H171447   6.050   2.364  10.875 -0.0108 -0.1783  0.4040
16652TIP3    H271448   5.938   2.271  10.917  0.3265 -0.3854  0.8471
16653TIP3   OH271449   4.744   1.377   4.802 -0.2217 -0.1087 -0.1673
16653TIP3    H171450   4.714   1.329   4.879  0.7556  2.5499  2.0577
16653TIP3    H271451   4.826   1.333   4.778  0.2913 -0.0625  1.3530
16654TIP3   OH271452   0.849   3.001   0.274 -1.0540  0.2302  0.2503
16654TIP3    H171453   0.914   2.980   0.341 -0.4611  3.0136  0.6576
16654TIP3    H271454   0.817   2.915   0.245  0.9583 -1.1628  1.8016
16655TIP3   OH271455   5.408   3.755   4.434 -0.7600  0.4441 -0.0492
16655TIP3    H171456   5.380   3.699   4.507  1.8683 -1.6063 -0.4656
16655TIP3    H271457   5.462   3.823   4.475  4.0179 -2.8651 -0.0360
16656TIP3   OH271458   2.782   0.421  17.037 -0.0038 -0.5241 -0.0016
16656TIP3    H171459   2.737   0.488  16.985 -0.1966 -1.0309 -0.5018
16656TIP3    H271460   2.716   0.391  17.100  0.3721  0.4245  0.8682
16657TIP3   OH271461   2.678   6.018  16.539 -0.0263  0.6652  0.6959
16657TIP3    H171462   2.632   5.956  16.481  2.0839 -0.3130 -0.0331
16657TIP3    H271463   2.770   6.005  16.519  0.6831  1.5438  3.0927
16658TIP3   OH271464   6.386   5.018   3.649  0.9021 -0.4113 -0.2508
16658TIP3    H171465   6.360   5.060   3.731  0.4171 -0.4372 -0.3885
16658TIP3    H271466   6.378   5.086   3.583 -1.5571 -1.0974 -0.7794
16659TIP3   OH271467   1.528   0.382  11.927  0.7507  0.1510  0.7561
16659TIP3    H171468   1.580   0.455  11.894  0.6471 -0.2751 -0.3937
16659TIP3    H271469   1.440   0.418  11.939  0.7515  0.2739  0.3966
16660TIP3   OH271470   5.788   2.555  10.792  0.1670  0.3949  0.5576
16660TIP3    H171471   5.867   2.519  10.832 -1.3822 -1.1369  2.3960
16660TIP3    H271472   5.726   2.482  10.791 -0.9994  1.3153 -1.6203
16661TIP3   OH271473   5.366   3.851   4.189 -0.6636 -0.1732 -0.0626
16661TIP3    H171474   5.440   3.909   4.175 -0.3994 -1.0862 -3.1080
16661TIP3    H271475   5.383   3.810   4.273  0.9531  1.4701  0.4769
16662TIP3   OH271476   4.777   1.241  10.692  0.3281 -0.7540 -0.0007
16662TIP3    H171477   4.838   1.277  10.756  0.0848 -0.3884  0.0239
16662TIP3    H271478   4.828   1.233  10.611 -0.1030  1.4253 -0.5457
16663TIP3   OH271479   3.667   4.337   4.409  0.3744 -0.0339 -0.2477
16663TIP3    H171480   3.611   4.382   4.346  0.3813 -0.2945 -0.4390
16663TIP3    H271481   3.676   4.248   4.375  0.7073 -0.0616 -0.0932
16664TIP3   OH271482   2.346   4.702  16.660  0.2078  0.6609  0.2248
16664TIP3    H171483   2.387   4.656  16.733  3.4452 -0.3314 -1.9768
16664TIP3    H271484   2.270   4.649  16.637  0.2220 -0.0357  1.7014
16665TIP3   OH271485   2.506   0.408  12.064 -0.0054 -0.4527  0.0880
16665TIP3    H171486   2.519   0.344  11.994  1.0058 -1.4191  1.1256
16665TIP3    H271487   2.426   0.379  12.108 -0.0379 -0.4876  0.0060
16666TIP3   OH271488   0.533   3.627  13.623  0.4522  0.3335 -0.3692
16666TIP3    H171489   0.612   3.662  13.581  0.6713 -0.6191 -0.7601
16666TIP3    H271490   0.473   3.609  13.551  0.2226  0.2027 -0.1466
16667TIP3   OH271491   4.572   2.013  13.322  0.3132  0.2950 -0.8695
16667TIP3    H171492   4.648   1.955  13.332  0.4990  0.7082  0.1879
16667TIP3    H271493   4.610   2.098  13.299  0.1255  0.3451 -0.9920
16668TIP3   OH271494   4.663   1.954   1.807  0.1830 -0.0554  0.4739
16668TIP3    H171495   4.617   1.991   1.882 -1.8876  2.2804 -1.7634
16668TIP3    H271496   4.634   1.862   1.804 -0.8235  0.1992  1.6765
16669TIP3   OH271497   3.818   1.317   2.387  0.4262  0.2671 -0.4980
16669TIP3    H171498   3.814   1.236   2.335  2.0021  0.0605 -0.3452
16669TIP3    H271499   3.841   1.385   2.324 -0.6047  0.5533 -0.5735
16670TIP3   OH271500   5.965   2.675   3.287  0.0627  0.4428  0.0641
16670TIP3    H171501   5.959   2.762   3.325  1.0009  1.0172 -1.0182
16670TIP3    H271502   5.962   2.690   3.192  1.3166 -0.5637 -0.1718
16671TIP3   OH271503   4.624   5.360   1.827 -0.3801  0.2643  0.0957
16671TIP3    H171504   4.628   5.431   1.763  0.3758  2.1993  2.1495
16671TIP3    H271505   4.670   5.287   1.785 -0.3178  1.3021 -1.7118
16672TIP3   OH271506   5.275   4.338  15.619 -0.9717 -0.6147  0.2776
16672TIP3    H171507   5.217   4.402  15.661 -0.4734 -0.8797  1.4129
16672TIP3    H271508   5.326   4.390  15.557 -2.2900 -0.3513 -0.6395
16673TIP3   OH271509   6.652   3.938  12.427  0.4263  0.2259 -0.1994
16673TIP3    H171510   6.743   3.965  12.440  1.0365 -1.7423 -0.0651
16673TIP3    H271511   6.636   3.953  12.334  1.5876 -1.2456 -0.6829
16674TIP3   OH271512   1.784   4.010   4.727  0.5421 -0.3788 -0.4686
16674TIP3    H171513   1.813   4.075   4.790 -0.0940  0.4972 -1.0578
16674TIP3    H271514   1.688   4.014   4.730  0.4753 -1.6764 -0.1180
16675TIP3   OH271515   4.599   0.712   2.389 -0.2938  0.3098 -0.6053
16675TIP3    H171516   4.630   0.645   2.449 -0.4059  0.8848  0.1153
16675TIP3    H271517   4.677   0.741   2.342 -0.2410 -0.2978 -0.8861
16676TIP3   OH271518   4.323   5.654   2.728  0.6556  0.5218 -0.0874
16676TIP3    H171519   4.270   5.598   2.670  0.0093 -0.1135  1.0739
16676TIP3    H271520   4.359   5.721   2.670  0.4076 -0.3534 -1.3046
16677TIP3   OH271521   2.936   1.520  13.920 -0.2137 -0.0989 -0.3246
16677TIP3    H171522   2.937   1.430  13.952 -0.7387  0.1625  0.4472
16677TIP3    H271523   2.914   1.512  13.827  1.6222 -0.8821 -0.7356
16678TIP3   OH271524   5.414   0.585   3.050  0.1731  0.0201 -0.5239
16678TIP3    H171525   5.439   0.500   3.014  0.7989 -0.4075  0.8384
16678TIP3    H271526   5.497   0.630   3.065  0.0107 -0.1264  1.0399
16679TIP3   OH271527   4.604   5.136   5.122  0.2228  0.1800 -0.0849
16679TIP3    H171528   4.628   5.103   5.208  1.6256 -0.0981 -0.5456
16679TIP3    H271529   4.515   5.104   5.107  0.1115 -0.0894  1.0930
16680TIP3   OH271530   1.071   0.143  12.139  0.0504  0.0785 -0.7711
16680TIP3    H171531   1.051   0.230  12.172  1.1514  0.4642 -1.0492
16680TIP3    H271532   0.993   0.091  12.156 -1.1765  1.4843 -1.9041
16681TIP3   OH271533   3.771   2.509  13.361 -0.4820 -0.2383  0.0812
16681TIP3    H171534   3.700   2.546  13.309  0.2747  1.4792  0.2009
16681TIP3    H271535   3.806   2.437  13.308 -1.7631 -0.5715 -0.3264
16682TIP3   OH271536   1.922   4.760   2.714  0.1953 -0.4310 -0.3864
16682TIP3    H171537   1.908   4.834   2.655 -0.3205  0.0245  0.2924
16682TIP3    H271538   1.835   4.737   2.745  0.5985  0.6793  1.7831
16683TIP3   OH271539   6.482   5.782   3.840  0.2901 -0.3795 -0.2317
16683TIP3    H171540   6.532   5.864   3.845 -1.2725  0.6526 -0.8379
16683TIP3    H271541   6.448   5.769   3.929  1.2825 -0.8915  0.0927
16684TIP3   OH271542   5.935   5.858  15.743 -0.2623  0.2514 -0.4567
16684TIP3    H171543   5.852   5.826  15.776  0.7018 -0.9074  0.9672
16684TIP3    H271544   5.949   5.941  15.790 -0.3634  0.1880 -0.3154
16685TIP3   OH271545   1.767   6.322   5.719 -0.0181 -0.3661  0.1889
16685TIP3    H171546   1.717   6.365   5.787  1.0493 -0.5621  1.1225
16685TIP3    H271547   1.731   6.233   5.716 -1.7781  0.3209 -1.2931
16686TIP3   OH271548   3.461   2.153  15.308 -0.4167  0.1016 -0.0884
16686TIP3    H171549   3.422   2.240  15.320 -0.1840  0.4536 -1.6114
16686TIP3    H271550   3.390   2.092  15.327 -0.5767  0.6153  1.0193
16687TIP3   OH271551   2.438   5.224   0.524  0.3062  0.1702 -0.6270
16687TIP3    H171552   2.413   5.164   0.454  2.9210  0.6486 -2.1063
16687TIP3    H271553   2.506   5.177   0.572  0.2728  0.8022  0.0522
16688TIP3   OH271554   6.778   5.968   4.150  0.3295  0.1723  0.1610
16688TIP3    H171555   6.703   5.926   4.193  2.5170 -2.2301  1.9214
16688TIP3    H271556   6.754   5.969   4.057 -2.0743 -0.0267  0.7076
16689TIP3   OH271557   2.170   0.496   2.859  0.5298 -0.6110  0.0614
16689TIP3    H171558   2.177   0.418   2.803  0.6279  0.4914 -1.5218
16689TIP3    H271559   2.094   0.543   2.826  0.2764 -0.1861  1.2176
16690TIP3   OH271560   2.068   3.994   4.126  0.4566  0.6114 -0.0777
16690TIP3    H171561   2.162   3.993   4.111  0.5183  1.1026  0.2618
16690TIP3    H271562   2.056   3.954   4.211  0.3267  0.2187 -0.2796
16691TIP3   OH271563   3.113   4.528   1.691 -0.2872 -0.5000 -0.2357
16691TIP3    H171564   3.169   4.600   1.662  0.0975 -0.5577  0.3509
16691TIP3    H271565   3.151   4.450   1.651 -0.6106 -0.4048 -0.7416
16692TIP3   OH271566   5.790   3.664   2.078  0.3900  0.3326 -0.1544
16692TIP3    H171567   5.750   3.585   2.113  0.6053  0.1381 -0.3381
16692TIP3    H271568   5.719   3.709   2.033  0.0037  0.8279  0.9372
16693TIP3   OH271569   3.273   4.358  12.887  0.4561  0.1172  0.2769
16693TIP3    H171570   3.202   4.357  12.823 -0.0272 -0.6765  0.8069
16693TIP3    H271571   3.352   4.337  12.836 -0.0367 -1.2721  0.0656
16694TIP3   OH271572   0.547   5.715   3.693  0.5666 -0.2222  0.3430
16694TIP3    H171573   0.613   5.774   3.729  0.0317 -0.7385  2.2749
16694TIP3    H271574   0.506   5.675   3.769  0.5939 -2.7645 -0.8545
16695TIP3   OH271575   3.626   5.017  16.303 -0.6670  0.1738  0.2108
16695TIP3    H171576   3.614   5.080  16.232 -0.9570  0.6306  0.6585
16695TIP3    H271577   3.615   5.068  16.383 -0.7355 -0.4071  0.5817
16696TIP3   OH271578   1.080   0.291   0.187  1.2886 -0.7793  0.1742
16696TIP3    H171579   1.032   0.372   0.206  1.0878 -0.5277 -1.3217
16696TIP3    H271580   1.124   0.308   0.104  0.1955 -2.6551 -0.8585
16697TIP3   OH271581   4.024   1.121   0.392  0.0150 -0.2875 -0.4673
16697TIP3    H171582   3.978   1.144   0.311 -0.3095  1.0129  0.0654
16697TIP3    H271583   3.974   1.048   0.429 -0.3125 -0.3454 -1.0160
16698TIP3   OH271584   2.295   5.720  11.211 -0.1186 -0.2501  0.1606
16698TIP3    H171585   2.353   5.735  11.136 -1.2234  0.4634 -0.5817
16698TIP3    H271586   2.306   5.627  11.231 -0.4786 -0.6876 -1.4965
16699TIP3   OH271587   5.395   3.177  16.076 -0.1107 -0.4364  0.0383
16699TIP3    H171588   5.377   3.241  16.144 -0.2601 -0.4093 -0.0257
16699TIP3    H271589   5.464   3.216  16.023 -0.5839 -0.0857 -0.3279
16700TIP3   OH271590   2.324   2.697   1.883 -0.7083  0.2842 -0.2685
16700TIP3    H171591   2.263   2.764   1.914 -0.0788  1.4984 -1.5537
16700TIP3    H271592   2.410   2.739   1.888  0.0101 -1.2295  1.0355
16701TIP3   OH271593   4.371   6.718   5.604  0.0326  0.1259 -0.0575
16701TIP3    H171594   4.403   6.687   5.519  0.3680  0.8161 -0.1901
16701TIP3    H271595   4.427   6.674   5.668 -2.0021 -2.6107  0.0009
16702TIP3   OH271596   0.891   1.455   4.956  0.7223 -0.8427  0.1648
16702TIP3    H171597   0.961   1.403   4.917 -0.0054 -0.2828 -1.9909
16702TIP3    H271598   0.828   1.468   4.886 -0.0582  1.3125  1.1731
16703TIP3   OH271599   3.607   6.094  13.659  0.1629 -0.1889 -0.5377
16703TIP3    H171600   3.631   6.006  13.687 -2.2813 -1.7373 -2.8068
16703TIP3    H271601   3.682   6.124  13.608  1.2456 -0.6823  0.6997
16704TIP3   OH271602   4.052   6.037   4.031 -0.7221 -0.3832 -0.0191
16704TIP3    H171603   4.135   6.077   4.058 -0.0792 -1.0743 -0.8805
16704TIP3    H271604   3.995   6.046   4.106  0.5634 -1.0596  1.0839
16705TIP3   OH271605   5.369   3.713  12.951 -0.5100 -0.1945  0.5556
16705TIP3    H171606   5.348   3.692  12.860  1.6234 -2.2653  0.4773
16705TIP3    H271607   5.348   3.634  13.000  0.4488  0.1142  1.5091
16706TIP3   OH271608   6.017   3.347  14.105  0.5204 -0.0330 -0.5579
16706TIP3    H171609   6.017   3.381  14.016 -0.1833  1.5663  0.0062
16706TIP3    H271610   5.942   3.390  14.147 -0.2712 -2.1285  0.3219
16707TIP3   OH271611   2.649   5.435   1.977 -0.4498  0.3483 -0.2526
16707TIP3    H171612   2.648   5.511   2.035 -2.0989 -0.4870  0.8913
16707TIP3    H271613   2.703   5.370   2.023 -1.7686 -0.3193  0.4016
16708TIP3   OH271614   0.144   3.534  13.651 -0.3023 -0.3045 -0.4301
16708TIP3    H171615   0.192   3.524  13.733  1.9508 -0.2819 -1.6903
16708TIP3    H271616   0.122   3.627  13.647 -0.6386 -0.3449  0.2275
16709TIP3   OH271617   4.041   4.171  12.937 -0.6403 -0.3057 -0.2679
16709TIP3    H171618   3.975   4.215  12.883 -2.8996 -0.4669  2.1238
16709TIP3    H271619   4.072   4.238  12.997  2.8512  0.2319 -2.4085
16710TIP3   OH271620   2.900   1.886  11.071  0.2105 -0.0553 -0.1474
16710TIP3    H171621   2.832   1.834  11.028  0.0289  0.3138 -0.3186
16710TIP3    H271622   2.971   1.825  11.087 -0.1719 -0.4555  0.0572
16711TIP3   OH271623   0.786   0.074   3.583 -0.6717 -0.4625  0.0167
16711TIP3    H171624   0.733   0.116   3.650 -1.1086  0.2215 -0.7340
16711TIP3    H271625   0.743   0.098   3.500  0.0813 -0.9512 -0.5295
16712TIP3   OH271626   0.164   1.232  12.477 -0.5430 -0.0268 -0.0065
16712TIP3    H171627   0.084   1.279  12.455 -1.0420 -0.6645  0.4014
16712TIP3    H271628   0.184   1.180  12.399  0.2199  1.1114 -0.6021
16713TIP3   OH271629   0.898   3.286  16.306  0.2670 -0.5272  0.0223
16713TIP3    H171630   0.957   3.352  16.269  1.4546 -2.0405 -0.9383
16713TIP3    H271631   0.923   3.281  16.398 -0.0661  0.5832  0.1814
16714TIP3   OH271632   3.208   2.636   5.886  0.4133 -0.4585 -0.7099
16714TIP3    H171633   3.170   2.685   5.813 -0.6919 -0.3288 -0.0679
16714TIP3    H271634   3.164   2.551   5.882  0.4565 -0.5001 -0.2896
16715TIP3   OH271635   4.637   4.736  14.361  0.3216 -0.3857  0.1052
16715TIP3    H171636   4.627   4.823  14.325 -0.7257 -0.5222  0.0478
16715TIP3    H271637   4.675   4.750  14.448  1.8622 -0.0030 -0.5907
16716TIP3   OH271638   0.923   6.005   3.748  0.6394 -0.3015 -0.5009
16716TIP3    H171639   0.997   5.980   3.803 -0.2521 -2.1121 -0.0849
16716TIP3    H271640   0.933   6.100   3.737  2.9660 -0.4828 -0.4043
16717TIP3   OH271641   0.959   2.426  13.056 -0.1505  0.0936  0.1265
16717TIP3    H171642   1.016   2.445  12.982  1.3024  2.7959  1.7664
16717TIP3    H271643   0.998   2.348  13.097  2.5783  1.8494  1.2019
16718TIP3   OH271644   2.281   5.802   2.680 -0.0858  0.3744 -0.3484
16718TIP3    H171645   2.301   5.719   2.723 -1.9733 -0.2137 -0.5656
16718TIP3    H271646   2.361   5.824   2.632  0.6591 -0.9716  0.2364
16719TIP3   OH271647   5.374   0.522  10.774 -0.2123 -0.4779 -0.1675
16719TIP3    H171648   5.317   0.598  10.785  1.5895  0.9494 -0.1828
16719TIP3    H271649   5.316   0.447  10.786 -2.1114  0.8713 -0.3747
16720TIP3   OH271650   1.363   4.827  11.902  0.3874 -0.0883  0.8261
16720TIP3    H171651   1.458   4.833  11.886  0.4072 -1.8719 -0.0633
16720TIP3    H271652   1.343   4.734  11.888 -1.6331  0.3990  0.1974
16721TIP3   OH271653   1.130   1.539   2.099  0.3641  0.4472 -0.1875
16721TIP3    H171654   1.205   1.523   2.041 -0.3793 -0.2026 -0.9870
16721TIP3    H271655   1.094   1.452   2.116  0.7647  0.5835  1.5508
16722TIP3   OH271656   4.121   1.130  15.256 -0.1158 -0.1325  0.3964
16722TIP3    H171657   4.099   1.055  15.201 -1.9917 -0.0150  0.9285
16722TIP3    H271658   4.209   1.110  15.289  0.3128 -1.0404 -1.2045
16723TIP3   OH271659   6.738   3.167   2.499  0.1436  0.7347  0.1753
16723TIP3    H171660   6.687   3.160   2.580 -2.1156  0.2968 -1.2025
16723TIP3    H271661   6.701   3.243   2.455  2.4463  1.9591  0.2192
16724TIP3   OH271662   6.140   4.741  11.512  0.0745 -0.1550  0.5515
16724TIP3    H171663   6.157   4.657  11.555 -1.7378 -0.6855  0.3148
16724TIP3    H271664   6.051   4.732  11.477  0.8047  0.9147 -1.7517
16725TIP3   OH271665   5.947   2.419  13.799  0.2735 -0.2836  0.1460
16725TIP3    H171666   5.894   2.498  13.806 -0.8727 -1.0111 -0.0199
16725TIP3    H271667   5.939   2.391  13.708  0.8058 -0.5044  0.1585
16726TIP3   OH271668   5.626   6.516   4.726 -0.0413 -0.1766  0.3643
16726TIP3    H171669   5.553   6.500   4.786 -2.5392  2.8178 -1.5478
16726TIP3    H271670   5.618   6.447   4.661 -0.8501 -0.2234  0.4977
16727TIP3   OH271671   0.207   0.344  12.015  0.3048  0.1338 -0.1312
16727TIP3    H171672   0.258   0.269  11.986 -1.4288 -1.5508  0.9477
16727TIP3    H271673   0.132   0.347  11.954  0.3562  1.0007 -0.1633
16728TIP3   OH271674   4.441   1.665  15.414 -0.1507 -0.2886  0.5196
16728TIP3    H171675   4.403   1.683  15.499 -0.1508 -0.3739  0.5364
16728TIP3    H271676   4.429   1.747  15.365 -0.3683 -0.3205  0.5194
16729TIP3   OH271677   3.659   4.151   1.538  0.7366  0.2839 -0.1347
16729TIP3    H171678   3.735   4.184   1.490  0.7861 -0.5180 -0.6282
16729TIP3    H271679   3.695   4.081   1.594  0.0250 -1.8702 -2.2224
16730TIP3   OH271680   2.522   6.268   0.247  0.2338  0.4462 -0.3175
16730TIP3    H171681   2.572   6.339   0.287 -1.4445  0.1495  2.6013
16730TIP3    H271682   2.568   6.188   0.271 -0.2915  0.3221  0.3259
16731TIP3   OH271683   0.904   0.984   5.550  0.0306 -0.3434 -0.1887
16731TIP3    H171684   0.901   1.078   5.534  3.2582  0.1285  1.2095
16731TIP3    H271685   0.883   0.974   5.643  0.0616 -0.9550 -0.2420
16732TIP3   OH271686   0.762   0.532   1.611 -0.2186  0.0434  0.2366
16732TIP3    H171687   0.816   0.545   1.533 -0.3678 -0.9639 -0.0515
16732TIP3    H271688   0.712   0.613   1.620  1.8840  1.3394  0.9637
16733TIP3   OH271689   3.039   2.068   0.702  0.5192  0.3448 -0.1724
16733TIP3    H171690   3.070   2.041   0.788 -0.5840 -0.4400 -0.0060
16733TIP3    H271691   3.095   2.021   0.640  1.0173  0.5664  0.0983
16734TIP3   OH271692   5.832   6.207   5.850 -0.9678 -0.8435  0.4150
16734TIP3    H171693   5.874   6.250   5.924 -1.6224 -0.1711  0.4073
16734TIP3    H271694   5.866   6.118   5.851  0.0836 -0.4515  0.6894
16735TIP3   OH271695   5.033   0.926  12.479  0.6296 -0.2488 -0.3787
16735TIP3    H171696   5.024   0.855  12.542  0.7350  0.1978  0.1526
16735TIP3    H271697   5.010   1.005  12.528 -0.1830  0.0150 -1.1428
16736TIP3   OH271698   1.244   4.346   0.085  0.2454  0.1206  0.3921
16736TIP3    H171699   1.331   4.333   0.124  0.3754  1.3969  0.5664
16736TIP3    H271700   1.244   4.289   0.008  1.5048  0.5896  0.0079
16737TIP3   OH271701   6.052   2.072   5.085  0.0636  0.2077  0.4174
16737TIP3    H171702   6.137   2.103   5.116  0.1174 -1.1083  1.7219
16737TIP3    H271703   6.068   2.045   4.994  1.5970 -1.8610  1.2127
16738TIP3   OH271704   6.425   1.943   1.241  0.3544 -0.1988  0.1845
16738TIP3    H171705   6.507   1.952   1.193 -1.3164  0.1759 -2.9224
16738TIP3    H271706   6.388   2.032   1.243 -1.5312 -0.8452 -1.7447
16739TIP3   OH271707   6.793   0.699  14.859  0.1538 -0.5962 -0.5154
16739TIP3    H171708   6.820   0.613  14.892 -0.9824 -1.3509 -1.4379
16739TIP3    H271709   6.852   0.761  14.901 -1.5161 -1.3576  3.3759
16740TIP3   OH271710   4.733   2.833  12.326  0.0985  0.4413 -0.3958
16740TIP3    H171711   4.709   2.744  12.353  0.0692  0.8210  0.8965
16740TIP3    H271712   4.821   2.824  12.292 -0.0576 -0.1571 -0.6663
16741TIP3   OH271713   1.200   4.010  10.950  0.5553 -0.7133  0.3708
16741TIP3    H171714   1.121   4.042  10.906  0.9493  2.2687  1.5740
16741TIP3    H271715   1.241   3.951  10.887 -1.0635  0.0583 -1.4882
16742TIP3   OH271716   3.086   5.272   5.010  0.3057  0.4570  0.1435
16742TIP3    H171717   3.075   5.232   5.097 -1.2273  0.7784  0.1406
16742TIP3    H271718   3.180   5.287   5.002  0.5942 -0.4907  1.3346
16743TIP3   OH271719   3.891   2.913  16.799  0.0139  0.4194  0.4159
16743TIP3    H171720   3.979   2.941  16.774  0.6478  0.3756  2.4412
16743TIP3    H271721   3.898   2.818  16.807 -1.1030 -0.0284 -2.5041
16744TIP3   OH271722   1.042   6.225  12.194  0.0074 -0.0198  0.4081
16744TIP3    H171723   1.084   6.180  12.120 -0.9560 -0.9557  0.4090
16744TIP3    H271724   1.091   6.307  12.203  0.9691 -0.4799 -0.4323
16745TIP3   OH271725   1.143   2.072   5.706  0.4425 -0.4668  0.4541
16745TIP3    H171726   1.065   2.109   5.749  0.4580  0.2772 -0.1442
16745TIP3    H271727   1.157   1.988   5.751 -0.3297 -0.3204  0.9948
16746TIP3   OH271728   5.012   3.955  14.335 -0.3715  0.2548  0.2606
16746TIP3    H171729   4.982   3.871  14.370 -0.8763  0.5014  0.4349
16746TIP3    H271730   4.950   3.975  14.265 -0.0110  0.2906 -0.0528
16747TIP3   OH271731   5.239   4.952   4.895 -0.2675  0.1094 -0.3738
16747TIP3    H171732   5.157   4.903   4.889  0.4259 -1.3661  1.2807
16747TIP3    H271733   5.221   5.021   4.959 -0.3439  0.0437 -0.3234
16748TIP3   OH271734   5.098   5.513  11.234  0.4485  0.6322  0.8094
16748TIP3    H171735   5.019   5.559  11.263 -1.2089 -2.1566  1.1477
16748TIP3    H271736   5.115   5.546  11.146 -0.8464  1.5770  0.8843
16749TIP3   OH271737   3.750   3.459   1.121 -0.1638  0.0588  0.5253
16749TIP3    H171738   3.793   3.378   1.150 -0.9871 -0.1314  1.2325
16749TIP3    H271739   3.782   3.526   1.182  0.2757  0.2247  0.1283
16750TIP3   OH271740   6.396   2.890  16.663  0.8015 -0.0101 -0.0880
16750TIP3    H171741   6.466   2.951  16.638  1.8317 -1.4548 -0.8692
16750TIP3    H271742   6.436   2.835  16.730 -0.6232  1.1214  1.7815
16751TIP3   OH271743   1.530   5.038   6.601  0.1598  0.1251 -0.5113
16751TIP3    H171744   1.546   5.064   6.510 -0.2147 -1.1943 -0.9894
16751TIP3    H271745   1.602   5.076   6.650  1.5903 -0.9125 -1.7139
16752TIP3   OH271746   5.417   1.257   0.694  0.6525 -0.0834  0.0721
16752TIP3    H171747   5.386   1.324   0.755  0.7904 -0.0691  0.1285
16752TIP3    H271748   5.351   1.189   0.696  0.0319  0.4756 -0.7004
16753TIP3   OH271749   6.218   4.608   5.807 -0.1310  0.1812  0.2251
16753TIP3    H171750   6.305   4.604   5.848  0.0647  1.1280 -0.0824
16753TIP3    H271751   6.207   4.520   5.769  1.5822  0.6208 -1.4789
16754TIP3   OH271752   2.469   2.858  15.109 -0.1664  0.4823 -0.0979
16754TIP3    H171753   2.453   2.898  15.194 -1.4308  1.6841 -0.8552
16754TIP3    H271754   2.437   2.768  15.117  1.3957 -0.0101  1.2046
16755TIP3   OH271755   2.834   6.343   4.544  0.3163  0.2120 -0.4140
16755TIP3    H171756   2.902   6.284   4.512  2.1293  1.6507  0.6206
16755TIP3    H271757   2.797   6.298   4.620  3.3456  1.2511  1.8891
16756TIP3   OH271758   4.282   0.190   1.862  0.2002  0.2794  0.3653
16756TIP3    H171759   4.370   0.221   1.883  0.7928 -1.1002  0.0997
16756TIP3    H271760   4.260   0.131   1.935  0.0093 -0.3190 -0.1710
16757TIP3   OH271761   0.296   6.551   0.297 -0.4917  0.4560 -0.5362
16757TIP3    H171762   0.361   6.605   0.341 -0.8814  1.1957 -0.8428
16757TIP3    H271763   0.328   6.543   0.207 -0.1731 -0.2579 -0.3589
16758TIP3   OH271764   0.551   0.639  11.586 -0.3075 -0.3738 -0.1005
16758TIP3    H171765   0.545   0.594  11.501  4.5215 -2.1760  0.1549
16758TIP3    H271766   0.610   0.713  11.569  2.2224 -1.7934  1.8126
16759TIP3   OH271767   2.756   0.685   3.994  0.2603  0.0482 -0.2731
16759TIP3    H171768   2.789   0.646   3.913  0.9446 -2.3099  1.0280
16759TIP3    H271769   2.671   0.644   4.008  0.5916 -0.3648  0.6761
16760TIP3   OH271770   3.319   3.755   0.125  0.3845  0.6441 -0.1680
16760TIP3    H171771   3.295   3.841   0.091 -0.8801 -0.2249 -1.6410
16760TIP3    H271772   3.301   3.759   0.219 -0.7804  1.6351 -0.4151
16761TIP3   OH271773   5.656   6.421  11.084 -0.1944 -0.0095  0.4145
16761TIP3    H171774   5.622   6.489  11.026 -0.0220  0.0530  0.3860
16761TIP3    H271775   5.628   6.339  11.044  0.3686  0.0140 -0.0464
16762TIP3   OH271776   5.602   4.598   5.142  0.1236 -0.3893  0.3520
16762TIP3    H171777   5.639   4.661   5.204  2.1805 -1.2942  0.1186
16762TIP3    H271778   5.582   4.650   5.064  1.4474  0.0587  0.2951
16763TIP3   OH271779   6.576   1.315  10.590 -0.0293  0.0009  0.0223
16763TIP3    H171780   6.628   1.357  10.658 -0.4613 -0.1163  0.4229
16763TIP3    H271781   6.639   1.263  10.540  0.7203  1.8454 -1.0920
16764TIP3   OH271782   2.993   3.283   5.056  0.3471 -0.5571  0.7176
16764TIP3    H171783   2.995   3.294   4.961 -0.7166  2.4430  0.9335
16764TIP3    H271784   2.908   3.241   5.073  1.1472 -2.4329  0.3182
16765TIP3   OH271785   3.920   1.986  14.801  0.4990  0.2995 -0.1196
16765TIP3    H171786   3.922   2.027  14.714  0.0550  0.6406  0.0275
16765TIP3    H271787   3.975   1.908  14.792  0.4829  0.3507 -0.6981
16766TIP3   OH271788   2.746   3.239  13.172  0.4424  0.2214  0.1601
16766TIP3    H171789   2.755   3.331  13.146  2.1319  0.1080  0.1934
16766TIP3    H271790   2.828   3.199  13.144 -0.6449 -1.5077 -0.7104
16767TIP3   OH271791   2.276   3.809   1.762 -0.0865  0.3533 -0.1630
16767TIP3    H171792   2.303   3.850   1.680 -0.1284  0.1685 -0.2695
16767TIP3    H271793   2.263   3.717   1.740  1.9833 -0.1434  0.5359
16768TIP3   OH271794   2.901   0.996  11.728  0.3473 -0.4811 -0.0998
16768TIP3    H171795   2.816   1.036  11.714  0.7606  0.0838 -1.1456
16768TIP3    H271796   2.946   1.006  11.644  1.3093 -1.0866  0.3246
16769TIP3   OH271797   6.115   2.523  13.271 -0.2999  0.5599 -0.0384
16769TIP3    H171798   6.163   2.584  13.216 -1.9181  0.5439 -1.5308
16769TIP3    H271799   6.025   2.555  13.270 -0.7635 -0.6247  0.9275
16770TIP3   OH271800   5.819   2.819   1.110 -0.2713 -0.6850 -0.0166
16770TIP3    H171801   5.855   2.781   1.030 -0.3131 -1.3221  0.2607
16770TIP3    H271802   5.736   2.858   1.082 -0.4497 -1.1992 -0.2316
16771TIP3   OH271803   3.724   6.146   2.958 -0.4177  0.2315  0.5723
16771TIP3    H171804   3.658   6.185   2.901  0.6283 -0.0194 -0.8640
16771TIP3    H271805   3.800   6.132   2.902 -0.3588 -2.8876  1.2339
16772TIP3   OH271806   6.048   1.583  11.388 -0.0563  0.0946 -0.3103
16772TIP3    H171807   6.007   1.639  11.454  0.0380 -0.0717 -0.1127
16772TIP3    H271808   5.994   1.596  11.310  0.7612  1.5237 -0.6658
16773TIP3   OH271809   0.197   5.877   3.139  0.2339 -0.1168  0.0527
16773TIP3    H171810   0.190   5.971   3.152 -1.3728 -0.2627  0.4290
16773TIP3    H271811   0.123   5.840   3.187  1.5042 -1.6768  0.8925
16774TIP3   OH271812   2.714   3.539  13.186 -0.0640  0.2548  0.4883
16774TIP3    H171813   2.632   3.576  13.218 -0.6012 -0.4542 -0.0307
16774TIP3    H271814   2.766   3.525  13.265 -1.0838 -0.7966  1.0088
16775TIP3   OH271815   2.637   5.825  12.352  0.4701 -0.5211  0.5796
16775TIP3    H171816   2.613   5.734  12.373  1.1118 -0.4038  1.9545
16775TIP3    H271817   2.593   5.843  12.269  0.5029 -2.1614  0.1659
16776TIP3   OH271818   0.613   5.233  14.937  0.1340 -0.7970 -0.0314
16776TIP3    H171819   0.659   5.178  15.000 -0.2267 -0.4515  0.5463
16776TIP3    H271820   0.606   5.318  14.981 -1.0686 -0.8514 -0.0933
16777TIP3   OH271821   1.987   2.753  12.092 -0.1216 -0.0995  0.1816
16777TIP3    H171822   2.023   2.810  12.160 -0.3920  1.9950 -1.3267
16777TIP3    H271823   2.060   2.697  12.065  0.5909  0.5851  0.6731
16778TIP3   OH271824   2.178   5.384   3.766 -0.5837  0.0110  0.1572
16778TIP3    H171825   2.091   5.417   3.791 -0.9838  0.1602 -1.3173
16778TIP3    H271826   2.183   5.400   3.672  0.5393 -1.1719 -0.0056
16779TIP3   OH271827   5.997   5.298  16.375  0.0464  0.2637  0.1484
16779TIP3    H171828   5.911   5.265  16.351 -0.3253  0.2680  1.3659
16779TIP3    H271829   6.004   5.279  16.469  0.6142  1.8676  0.4667
16780TIP3   OH271830   3.315   2.682   4.522 -0.1726  0.1929  0.0507
16780TIP3    H171831   3.283   2.647   4.605  2.1564 -0.7828  0.5885
16780TIP3    H271832   3.331   2.605   4.468  2.7287  0.4798  0.3821
16781TIP3   OH271833   5.397   6.233   1.621 -0.3064 -0.2476  0.0012
16781TIP3    H171834   5.456   6.241   1.547  0.2888  0.5482  0.5485
16781TIP3    H271835   5.412   6.144   1.655  1.6964  0.4363  1.0386
16782TIP3   OH271836   1.571   2.624  11.569 -0.3823  0.2921 -0.5835
16782TIP3    H171837   1.578   2.674  11.650 -0.5976  1.0538 -1.0290
16782TIP3    H271838   1.549   2.689  11.502 -1.5678 -0.5176 -1.0149
16783TIP3   OH271839   5.809   3.114   4.799 -0.4584  0.3944  0.2408
16783TIP3    H171840   5.779   3.192   4.846 -0.2005  0.5734  0.1104
16783TIP3    H271841   5.755   3.112   4.720  0.0421  0.8579 -0.1168
16784TIP3   OH271842   3.864   4.840   5.151 -0.2389  0.0185  0.4504
16784TIP3    H171843   3.871   4.783   5.074  0.4046  0.9010 -0.1593
16784TIP3    H271844   3.841   4.781   5.222  1.5785 -1.2136  0.0849
16785TIP3   OH271845   6.437   3.185  13.337 -0.3847 -0.0469  0.1677
16785TIP3    H171846   6.400   3.174  13.424  0.3726  0.9121  0.6289
16785TIP3    H271847   6.396   3.116  13.285 -1.6010 -0.0185  1.0317
16786TIP3   OH271848   3.382   5.690   3.129  0.3073 -0.7157  0.0714
16786TIP3    H171849   3.421   5.603   3.138 -0.2027 -1.0367 -0.7415
16786TIP3    H271850   3.449   5.742   3.085  0.4030 -0.8481  0.0593
16787TIP3   OH271851   2.629   2.053  16.289  0.0092  0.7948  0.1976
16787TIP3    H171852   2.697   2.016  16.233 -0.6485 -0.3623  0.1320
16787TIP3    H271853   2.562   2.085  16.228  0.0298  1.0186  0.2902
16788TIP3   OH271854   1.235   4.781   5.479  1.1941 -0.2400 -0.1861
16788TIP3    H171855   1.153   4.799   5.524  2.0152 -0.2288  1.3829
16788TIP3    H271856   1.215   4.710   5.418  0.3954 -1.4363  1.4096
16789TIP3   OH271857   3.688   3.780   4.496  0.3470  0.2756  0.1064
16789TIP3    H171858   3.667   3.712   4.559 -2.1120  1.9341  1.2598
16789TIP3    H271859   3.643   3.858   4.529  0.8683  1.8164 -2.5001
16790TIP3   OH271860   5.285   4.620  16.620 -0.0964 -0.3174  0.4555
16790TIP3    H171861   5.203   4.665  16.636 -0.1664 -0.1764 -0.2821
16790TIP3    H271862   5.324   4.666  16.545 -0.1260 -1.4062 -0.2510
16791TIP3   OH271863   2.033   5.664   3.664 -0.4708 -0.3807  0.4770
16791TIP3    H171864   1.954   5.689   3.615 -0.0759  0.3088  0.1657
16791TIP3    H271865   2.002   5.609   3.735 -1.1925 -0.4303  0.1273
16792TIP3   OH271866   4.267   3.009   6.328  0.0826  0.0188 -0.0472
16792TIP3    H171867   4.293   2.929   6.372  0.2354 -0.4598 -0.9921
16792TIP3    H271868   4.342   3.068   6.338  1.4624 -1.1967 -2.3883
16793TIP3   OH271869   0.592   5.106  16.651 -0.1741 -0.0156 -0.1098
16793TIP3    H171870   0.505   5.143  16.666 -0.3533  0.0707 -1.2257
16793TIP3    H271871   0.645   5.140  16.723 -0.6985  1.2176 -0.2685
16794TIP3   OH271872   4.840   0.319  12.820 -0.3812 -0.2601 -0.3924
16794TIP3    H171873   4.783   0.323  12.743 -0.8143  1.1193 -0.0278
16794TIP3    H271874   4.927   0.339  12.785 -0.7544  1.5407 -0.3917
16795TIP3   OH271875   0.485   2.671  10.495 -0.3284 -0.7111  0.0982
16795TIP3    H171876   0.520   2.638  10.577 -0.1819  1.4736  0.9810
16795TIP3    H271877   0.556   2.725  10.458 -1.5651  1.1736  0.3333
16796TIP3   OH271878   0.753   1.757   1.439 -0.1950 -0.4553  0.3059
16796TIP3    H171879   0.781   1.846   1.420 -0.0661 -0.4619  0.4647
16796TIP3    H271880   0.747   1.754   1.535  0.3061 -0.7730  0.3259
16797TIP3   OH271881   4.508   4.077  12.450  0.2253 -0.0353 -0.0197
16797TIP3    H171882   4.559   4.000  12.422  0.1664 -0.0247 -0.1563
16797TIP3    H271883   4.423   4.066  12.407  0.2974  0.2296 -0.2344
16798TIP3   OH271884   5.175   6.030   2.357 -0.4594  0.4705  0.2551
16798TIP3    H171885   5.224   5.957   2.319 -0.7018  1.0719 -1.2966
16798TIP3    H271886   5.084   6.013   2.332 -0.6431  0.8467  0.6572
16799TIP3   OH271887   0.646   0.268  14.177 -0.3998 -0.1291 -0.1227
16799TIP3    H171888   0.650   0.231  14.089  0.8960 -2.4017  0.8039
16799TIP3    H271889   0.655   0.193  14.235 -1.7847  1.2410  1.9931
16800TIP3   OH271890   1.482   6.746   6.094  0.5934 -0.6037 -0.3923
16800TIP3    H171891   1.478   6.831   6.050 -1.7246 -1.3660 -1.8554
16800TIP3    H271892   1.412   6.749   6.159 -1.3507 -2.2057 -2.2599
16801TIP3   OH271893   5.283   3.145   0.761  0.2241  0.0533 -0.3769
16801TIP3    H171894   5.367   3.128   0.717  1.5497  0.5570  1.7740
16801TIP3    H271895   5.282   3.083   0.834 -0.9577  0.5170  0.0189
16802TIP3   OH271896   5.599   2.876   1.980 -0.1606 -0.1775 -0.1831
16802TIP3    H171897   5.585   2.941   1.911  0.3928 -1.5453 -1.6742
16802TIP3    H271898   5.540   2.804   1.957 -0.1532 -0.5556  0.9274
16803TIP3   OH271899   1.664   5.411   6.412  0.2622  0.7363  0.4080
16803TIP3    H171900   1.600   5.341   6.397  1.2051  0.3914 -3.0070
16803TIP3    H271901   1.729   5.371   6.470 -0.0759 -0.7088 -0.1444
16804TIP3   OH271902   2.194   0.479  12.617 -0.3047 -0.2773 -0.0530
16804TIP3    H171903   2.111   0.485  12.570 -0.0600 -0.3081 -0.5002
16804TIP3    H271904   2.235   0.399  12.584 -0.5225 -0.7902  0.8756
16805TIP3   OH271905   4.947   6.028   0.622 -0.1746 -0.0563  0.4252
16805TIP3    H171906   4.968   5.963   0.689  3.6665  2.3121  1.8651
16805TIP3    H271907   4.912   6.103   0.670  2.3295  1.5640 -0.0489
16806TIP3   OH271908   6.787   6.324  14.998  0.4523 -0.0082  0.0819
16806TIP3    H171909   6.739   6.394  15.042 -0.9362 -1.3113  0.7296
16806TIP3    H271910   6.720   6.272  14.955  1.3561 -1.3522  0.2231
16807TIP3   OH271911   3.563   1.915  11.840  0.0536 -0.0872 -0.2648
16807TIP3    H171912   3.598   1.828  11.821 -0.8180 -0.8066  1.2350
16807TIP3    H271913   3.532   1.947  11.755  3.5301  0.2890 -1.5273
16808TIP3   OH271914   2.763   5.235   2.200  0.0997 -0.0935 -0.1502
16808TIP3    H171915   2.729   5.228   2.289  0.9192  0.6544  0.2463
16808TIP3    H271916   2.810   5.153   2.186 -2.1383 -1.3256 -0.8680
16809TIP3   OH271917   1.195   1.913  17.107 -0.1095 -0.6693  0.5898
16809TIP3    H171918   1.109   1.931  17.144 -1.1042  0.6290 -2.0434
16809TIP3    H271919   1.250   1.987  17.134 -1.5818  1.7771 -2.4911
16810TIP3   OH271920   5.683   6.818   4.280 -0.3564  0.0906  0.6887
16810TIP3    H171921   5.750   6.852   4.221 -0.3414 -1.9435 -0.5670
16810TIP3    H271922   5.627   6.765   4.224 -0.9756 -1.0541  2.3313
16811TIP3   OH271923   4.044   0.181   0.747 -0.1966 -0.4318  0.0360
16811TIP3    H171924   3.996   0.116   0.798  0.3907 -1.3626 -0.5667
16811TIP3    H271925   3.999   0.183   0.663 -4.0699  4.3794  1.7925
16812TIP3   OH271926   1.682   4.016  15.860  0.3766 -0.1587  0.2172
16812TIP3    H171927   1.693   3.948  15.927  0.4863  0.1686  0.5384
16812TIP3    H271928   1.770   4.050  15.845 -0.0197  2.3322  2.6537
16813TIP3   OH271929   3.281   2.520   6.149  0.1969 -0.6090  0.7796
16813TIP3    H171930   3.208   2.539   6.208  0.5370 -0.2615  1.0974
16813TIP3    H271931   3.264   2.574   6.072 -1.0971 -2.2512 -0.1576
16814TIP3   OH271932   0.320   1.074  14.812 -0.2691  0.2249 -0.3025
16814TIP3    H171933   0.288   1.122  14.736 -0.5846  1.5712  0.6541
16814TIP3    H271934   0.352   1.141  14.871 -0.7290 -0.7329  1.0809
16815TIP3   OH271935   6.068   0.973  10.790  0.3907  0.1344 -0.1873
16815TIP3    H171936   6.065   0.877  10.798 -0.0282 -0.1814 -2.9099
16815TIP3    H271937   6.016   0.991  10.711  0.4447  2.6219  0.2820
16816TIP3   OH271938   0.914   6.669   3.488 -0.4116  0.2229  0.2790
16816TIP3    H171939   0.984   6.675   3.422 -0.9297  0.9760 -0.2181
16816TIP3    H271940   0.881   6.758   3.495  0.8361  0.5766  2.9203
16817TIP3   OH271941   1.422   6.145   2.937 -0.4574  0.1695  0.4140
16817TIP3    H171942   1.447   6.213   3.000  0.1107  0.8495 -0.5149
16817TIP3    H271943   1.452   6.179   2.852 -2.4642 -0.0354 -0.4397
16818TIP3   OH271944   1.804   6.240  11.893  0.3630  0.1052 -0.2457
16818TIP3    H171945   1.728   6.290  11.922  0.0005 -1.1618  1.1214
16818TIP3    H271946   1.808   6.256  11.798 -2.2881 -0.6703 -0.5774
16819TIP3   OH271947   2.382   3.484   1.416  0.0149  0.2401  0.0682
16819TIP3    H171948   2.420   3.419   1.358 -1.1853 -0.9012  0.5069
16819TIP3    H271949   2.403   3.568   1.375  0.8400 -0.4535 -0.9759
16820TIP3   OH271950   6.383   2.166   2.944  0.0113 -0.1404  0.6581
16820TIP3    H171951   6.306   2.184   2.892 -0.2448  0.0286  1.0895
16820TIP3    H271952   6.354   2.102   3.009  0.0570  0.4275  1.2480
16821TIP3   OH271953   1.189   0.201  15.804  0.3224 -0.5389 -0.0970
16821TIP3    H171954   1.103   0.163  15.789 -0.2760  1.1453 -1.2419
16821TIP3    H271955   1.180   0.251  15.885  0.2394 -0.4196 -0.1797
16822TIP3   OH271956   6.806   0.498   0.139 -0.6416  0.4239  0.0769
16822TIP3    H171957   6.713   0.494   0.160 -0.7602  0.5630 -0.4036
16822TIP3    H271958   6.809   0.505   0.044 -0.1146 -0.3447  0.0252
16823TIP3   OH271959   6.639   6.801   0.080  0.2109  0.4449  0.1013
16823TIP3    H171960   6.692   6.870   0.119 -2.5869  2.8999 -0.0327
16823TIP3    H271961   6.624   6.831  -0.010  0.0282 -1.0348 -0.3724
16824TIP3   OH271962   6.425   0.393   0.486 -0.4601 -0.1755  0.5974
16824TIP3    H171963   6.393   0.410   0.574 -1.2633 -0.2803  0.3352
16824TIP3    H271964   6.405   0.301   0.469 -2.1882  0.3389 -0.4248
16825TIP3   OH271965   4.813   0.828  13.686  0.4776 -0.0136 -0.6634
16825TIP3    H171966   4.841   0.853  13.598 -1.0636 -0.9594 -1.4568
16825TIP3    H271967   4.871   0.878  13.744  2.8110 -0.8194 -2.1738
16826TIP3   OH271968   1.159   5.566   4.432  0.1934  0.6271  0.3864
16826TIP3    H171969   1.179   5.475   4.408 -0.7002  0.7898 -1.1118
16826TIP3    H271970   1.188   5.573   4.523 -1.9649 -1.8800  1.4154
16827TIP3   OH271971   2.992   3.548  12.235  0.8081 -0.1087  0.1631
16827TIP3    H171972   2.973   3.489  12.308  0.0245  1.5566  1.3530
16827TIP3    H271973   3.075   3.516  12.200 -0.2897 -2.8379 -0.2368
16828TIP3   OH271974   4.273   4.170   5.175  0.3216 -0.2803  0.0774
16828TIP3    H171975   4.182   4.198   5.168  0.1409 -1.0932 -1.0125
16828TIP3    H271976   4.296   4.187   5.266 -0.5457  1.0402  0.0788
16829TIP3   OH271977   0.685   3.067  16.421 -0.1242 -0.3546  0.8066
16829TIP3    H171978   0.720   3.103  16.339 -1.1687 -1.0810  0.0011
16829TIP3    H271979   0.697   2.972  16.412 -0.4329 -0.4540  1.4021
16830TIP3   OH271980   4.691   3.148   0.497 -0.4850  0.0573  0.5159
16830TIP3    H171981   4.664   3.063   0.462  2.8034 -0.5180 -0.9411
16830TIP3    H271982   4.748   3.185   0.430 -0.4797  2.7043  1.8519
16831TIP3   OH271983   5.218   4.319   0.108  0.0327  0.2551  0.5214
16831TIP3    H171984   5.217   4.245   0.048 -1.3889 -1.3810  2.4023
16831TIP3    H271985   5.167   4.387   0.064  1.0686  0.0417 -1.0954
16832TIP3   OH271986   0.033   2.633   4.417  0.3899  0.1528 -0.5579
16832TIP3    H171987  -0.007   2.696   4.357  1.3478 -0.4490 -1.8714
16832TIP3    H271988   0.127   2.650   4.410  0.5096  0.5984  1.4060
16833TIP3   OH271989   0.386   1.351  16.052  0.3957  0.1650 -0.6861
16833TIP3    H171990   0.410   1.443  16.038  1.2253 -0.1069 -1.1538
16833TIP3    H271991   0.465   1.311  16.089  0.4438 -0.5943 -1.5573
16834TIP3   OH271992   2.680   1.311  13.081  0.6264 -0.5829 -0.3033
16834TIP3    H171993   2.653   1.225  13.049 -1.0347 -0.1271 -0.1955
16834TIP3    H271994   2.775   1.303  13.093  0.4842 -2.4455 -0.1489
16835TIP3   OH271995   6.088   1.832   2.561  0.0225 -0.0268  0.7326
16835TIP3    H171996   6.030   1.757   2.573  0.6538 -0.7600 -0.5422
16835TIP3    H271997   6.128   1.846   2.647  2.8028 -3.6479  0.2442
16836TIP3   OH271998   3.836   5.558  13.569 -0.3441  0.2064 -0.1561
16836TIP3    H171999   3.882   5.530  13.490 -1.6966  1.1744 -1.3577
16836TIP3    H272000   3.750   5.517  13.562 -0.5276  0.4230  0.7476
16837TIP3   OH272001   0.882   3.112   0.958  0.0790  0.3839  0.2330
16837TIP3    H172002   0.867   3.068   1.041  0.0344  1.5354  0.8505
16837TIP3    H272003   0.843   3.054   0.893  0.9869 -1.0176  0.8924
16838TIP3   OH272004   2.559   3.410  12.945 -0.5387  0.4549 -0.2631
16838TIP3    H172005   2.585   3.340  12.885 -0.9920  0.3747 -0.3650
16838TIP3    H272006   2.471   3.387  12.973 -0.3588  0.5309  0.3826
16839TIP3   OH272007   0.409   4.557   1.945 -0.0461  0.0075 -0.1208
16839TIP3    H172008   0.392   4.651   1.942 -0.7510 -0.1375 -1.1996
16839TIP3    H272009   0.364   4.522   1.868 -1.6716 -1.5252  1.4447
16840TIP3   OH272010   0.415   0.521  15.883 -0.8527  0.0046  0.0869
16840TIP3    H172011   0.395   0.612  15.862  0.3317  0.4933  0.9738
16840TIP3    H272012   0.509   0.513  15.870 -1.2063 -1.6638 -1.9652
16841TIP3   OH272013   3.575   2.688   2.910 -0.1369 -0.3284  0.0859
16841TIP3    H172014   3.538   2.708   2.996 -1.4181 -0.4700 -0.4076
16841TIP3    H272015   3.579   2.592   2.909 -0.6431 -0.3507 -0.2073
16842TIP3   OH272016   2.602   2.573   2.415 -0.3489 -0.1466  0.2820
16842TIP3    H172017   2.656   2.606   2.344 -0.9891 -1.7309 -0.9939
16842TIP3    H272018   2.616   2.479   2.415 -1.9857 -0.4245  0.8713
16843TIP3   OH272019   3.364   6.221   7.039  0.2367  0.2845  0.0542
16843TIP3    H172020   3.313   6.270   7.103  0.9025 -1.0488  1.6490
16843TIP3    H272021   3.300   6.195   6.972 -0.6706  0.8062  0.6945
16844TIP3   OH272022   0.609   4.039  15.248  0.5870  0.0355 -0.6037
16844TIP3    H172023   0.569   4.125  15.233 -0.6738 -0.3624  0.3938
16844TIP3    H272024   0.614   4.000  15.161 -1.8069 -0.1473 -0.7116
16845TIP3   OH272025   3.884   4.010   2.459 -0.3684 -0.3792 -0.0270
16845TIP3    H172026   3.846   3.933   2.501 -2.6471  1.2426  1.1254
16845TIP3    H272027   3.815   4.040   2.400  0.4160  0.8803 -0.3251
16846TIP3   OH272028   6.474   1.142  11.418  0.0895 -0.5102  0.1952
16846TIP3    H172029   6.523   1.223  11.425  1.4528 -1.2577 -0.4051
16846TIP3    H272030   6.424   1.151  11.337  1.1414 -0.7270 -0.4959
16847TIP3   OH272031   4.917   3.158   1.924 -0.5909 -0.2195 -0.1579
16847TIP3    H172032   4.845   3.221   1.917 -0.0103  0.5135  0.3174
16847TIP3    H272033   4.877   3.080   1.962 -1.2286  0.0135 -0.3377
16848TIP3   OH272034   5.373   0.035  11.907 -0.4476  0.0726  0.1905
16848TIP3    H172035   5.354  -0.015  11.986 -1.3965  3.1131  2.0456
16848TIP3    H272036   5.287   0.059  11.873 -0.0237 -0.2642 -1.1946
16849TIP3   OH272037   5.092   4.747   4.335  0.0322  0.0375  0.3174
16849TIP3    H172038   5.058   4.753   4.245 -0.1371 -1.3313  0.2702
16849TIP3    H272039   5.075   4.656   4.361 -0.0477  0.4584  1.7979
16850TIP3   OH272040   5.254   0.175   4.877  0.3539  0.1189 -0.2501
16850TIP3    H172041   5.316   0.238   4.839  2.5294 -2.0136 -0.4835
16850TIP3    H272042   5.301   0.139   4.952 -1.3944 -0.2739  0.6941
16851TIP3   OH272043   4.006   4.940   1.009 -0.2592  0.1067 -0.6082
16851TIP3    H172044   4.032   4.997   0.937  0.6353 -1.6424 -1.7587
16851TIP3    H272045   3.983   4.857   0.967 -2.6319 -0.0772  0.8838
16852TIP3   OH272046   2.341   3.942  13.545 -0.3905  0.2649 -0.2593
16852TIP3    H172047   2.297   3.928  13.629 -0.6840 -0.4376 -0.5250
16852TIP3    H272048   2.291   3.891  13.483  0.5257 -0.1659 -0.6576
16853TIP3   OH272049   4.396   0.595   2.170  0.0978 -0.5065  0.4244
16853TIP3    H172050   4.307   0.606   2.137 -0.5379  0.2724  2.2364
16853TIP3    H272051   4.416   0.679   2.211  2.4083 -0.0362 -1.4948
16854TIP3   OH272052   0.471   0.813   2.697  0.3626  0.5847  0.6003
16854TIP3    H172053   0.466   0.793   2.603 -0.3919 -0.4135  0.8397
16854TIP3    H272054   0.495   0.905   2.700 -1.1487  1.0583 -0.5972
16855TIP3   OH272055   4.113   4.758   1.195  0.1816 -0.5378 -0.3129
16855TIP3    H172056   4.120   4.833   1.136  0.6061 -0.2574  0.0867
16855TIP3    H272057   4.019   4.738   1.198  0.0668 -0.0153 -0.4099
16856TIP3   OH272058   4.012   0.887   1.684  0.5669  0.0022 -0.2308
16856TIP3    H172059   4.029   0.981   1.677  0.2726  0.0466 -0.3725
16856TIP3    H272060   4.018   0.854   1.594  1.1117 -0.1944 -0.1269
16857TIP3   OH272061   0.662   1.277  10.542 -0.1707  0.2414  0.1729
16857TIP3    H172062   0.749   1.261  10.507 -0.8021 -1.3646 -0.7764
16857TIP3    H272063   0.676   1.324  10.624  1.6177 -0.8394  0.5178
16858TIP3   OH272064   4.868   2.813  11.001  0.4359 -0.3877  0.2886
16858TIP3    H172065   4.864   2.777  11.090 -0.3571 -1.2682 -0.0981
16858TIP3    H272066   4.783   2.855  10.988  0.6036 -0.1368 -0.0097
16859TIP3   OH272067   3.461   6.338  15.602  0.4006  0.6595  0.0230
16859TIP3    H172068   3.432   6.252  15.571 -0.9395  0.8804  0.6042
16859TIP3    H272069   3.445   6.335  15.697  4.2593  0.0275  0.8322
16860TIP3   OH272070   2.825   3.174   1.681 -0.1163  0.1088 -0.1428
16860TIP3    H172071   2.778   3.095   1.655 -0.1003 -0.6059  1.8414
16860TIP3    H272072   2.916   3.157   1.657 -0.5030  0.7269 -2.2704
16861TIP3   OH272073   6.011   3.589  10.981 -0.7500  0.5896  0.0364
16861TIP3    H172074   5.997   3.502  10.943 -1.1528  0.6071  0.1360
16861TIP3    H272075   5.984   3.650  10.912 -0.0818  0.6461 -0.1831
16862TIP3   OH272076   5.159   5.705   4.244 -0.5188 -0.4583 -0.0577
16862TIP3    H172077   5.067   5.681   4.236 -0.9157  0.3158  1.6352
16862TIP3    H272078   5.207   5.625   4.224 -1.6728 -1.7913  2.0991
16863TIP3   OH272079   1.759   3.452   2.925  0.5902 -0.5699 -0.2300
16863TIP3    H172080   1.691   3.390   2.953  1.1144 -0.2366  2.0261
16863TIP3    H272081   1.747   3.528   2.982  1.3693  0.4795 -1.4225
16864TIP3   OH272082   1.329   0.565  11.292 -0.3136  0.0703 -0.3024
16864TIP3    H172083   1.337   0.609  11.208  1.0719  1.0140  0.3035
16864TIP3    H272084   1.234   0.560  11.307 -0.5477  0.9345 -1.3626
16865TIP3   OH272085   6.791   3.658   4.540 -0.2452  0.2784  0.4343
16865TIP3    H172086   6.761   3.672   4.450 -0.9711  0.3794  0.6807
16865TIP3    H272087   6.865   3.718   4.550 -0.4266  0.5802  0.0297
16866TIP3   OH272088   0.857   4.155   3.640 -0.2728 -0.2026  0.0962
16866TIP3    H172089   0.913   4.185   3.568 -0.7666  0.0761 -0.1776
16866TIP3    H272090   0.905   4.080   3.677  2.2837  2.3893  2.4904
16867TIP3   OH272091   5.803   2.701   3.794 -0.1191  1.1292 -0.9608
16867TIP3    H172092   5.839   2.670   3.877 -0.1914 -1.3593 -1.7836
16867TIP3    H272093   5.709   2.686   3.801 -0.5918  3.6992 -0.4473
16868TIP3   OH272094   0.070   0.401  14.595  0.8466 -0.1784  1.0860
16868TIP3    H172095   0.110   0.359  14.519 -1.1590 -1.5539  0.7046
16868TIP3    H272096   0.077   0.495  14.577  2.1755 -0.4362  0.1697
16869TIP3   OH272097   4.847   6.621   2.845  0.1395 -0.8796 -0.2206
16869TIP3    H172098   4.817   6.537   2.808  2.2011 -2.2252  0.9574
16869TIP3    H272099   4.830   6.685   2.776  0.7791 -2.6961 -2.1935
16870TIP3   OH272100   2.607   1.764   1.164  0.2802  0.0386 -0.0048
16870TIP3    H172101   2.561   1.823   1.225 -0.3335  0.2158 -0.6339
16870TIP3    H272102   2.658   1.706   1.221 -2.6021 -1.8043  0.8905
16871TIP3   OH272103   2.911   4.278  17.023 -0.0523  0.4158  0.1455
16871TIP3    H172104   2.887   4.234  16.942  0.0903  0.0319  0.3109
16871TIP3    H272105   2.994   4.239  17.048  0.0854  0.7944  0.2835
16872TIP3   OH272106   3.622   1.004  15.189  0.2291 -0.3919  0.2553
16872TIP3    H172107   3.644   1.095  15.167 -0.6480 -0.0411  0.7912
16872TIP3    H272108   3.592   1.008  15.280 -1.8441 -0.8684 -0.3745
16873TIP3   OH272109   0.764   4.949  14.861  0.0786  0.6157  0.3261
16873TIP3    H172110   0.828   4.884  14.887 -1.4534 -1.3444 -0.5289
16873TIP3    H272111   0.765   5.014  14.931  1.5105 -0.4130  1.3085
16874TIP3   OH272112   0.036   2.259  13.025  0.4097 -0.0758  0.3696
16874TIP3    H172113   0.084   2.236  13.105 -1.4415  0.1190  1.6053
16874TIP3    H272114   0.056   2.351  13.011 -1.2409  0.6292  2.1617
16875TIP3   OH272115   6.016   1.917   1.003 -0.8287  0.7797  0.1529
16875TIP3    H172116   5.971   1.858   0.943 -1.4170  0.1067  1.2258
16875TIP3    H272117   6.042   1.991   0.948 -0.0935 -0.4357 -1.2249
16876TIP3   OH272118   4.877   0.390  17.167 -0.1173  0.0301  0.2430
16876TIP3    H172119   4.929   0.432  17.235  0.5049 -0.1929 -0.0879
16876TIP3    H272120   4.909   0.426  17.085  0.2132 -0.8340 -0.0261
16877TIP3   OH272121   3.151   1.510  10.419 -0.3898 -0.0009 -0.3240
16877TIP3    H172122   3.073   1.565  10.435 -0.2065 -0.1999  1.4594
16877TIP3    H272123   3.221   1.573  10.401 -0.5402  0.2767  0.0490
16878TIP3   OH272124   4.185   4.439   4.315 -0.3992 -0.7266  0.1235
16878TIP3    H172125   4.241   4.400   4.247 -0.4355 -0.8467  0.1639
16878TIP3    H272126   4.100   4.397   4.303  0.2276 -2.6516  1.8765
16879TIP3   OH272127   6.757   1.766   4.574  0.2152  0.5748 -0.0059
16879TIP3    H172128   6.664   1.769   4.550 -0.0856 -0.9059  0.8631
16879TIP3    H272129   6.793   1.848   4.540 -0.9866  0.3457 -1.9935
16880TIP3   OH272130   1.559   2.890  12.368 -0.0798  0.1552  0.5184
16880TIP3    H172131   1.581   2.930  12.284  1.0910  0.7175  1.0729
16880TIP3    H272132   1.464   2.899  12.374  0.1283  3.2042  0.7653
16881TIP3   OH272133   2.393   4.173   2.896  0.7183  0.7502 -0.2324
16881TIP3    H172134   2.455   4.244   2.881  2.2570 -0.6286 -0.5881
16881TIP3    H272135   2.443   4.093   2.882 -0.3006 -0.4973  2.5043
16882TIP3   OH272136   2.689   6.348  14.981 -0.1177  0.5469 -0.5205
16882TIP3    H172137   2.746   6.289  14.932  0.2064 -0.1455  0.6630
16882TIP3    H272138   2.747   6.414  15.018 -0.0539 -0.1707  0.7047
16883TIP3   OH272139   0.012   3.473  15.987  0.4594  0.4355  0.3629
16883TIP3    H172140  -0.014   3.524  15.910 -1.9118  0.5179  1.1479
16883TIP3    H272141   0.063   3.535  16.041  1.2033  0.6884 -0.5931
16884TIP3   OH272142   6.735   4.402   2.156 -0.5270  0.0202 -0.3907
16884TIP3    H172143   6.803   4.422   2.221  0.8596  0.4897 -1.9076
16884TIP3    H272144   6.662   4.460   2.178  0.1628  0.6240  0.3618
16885TIP3   OH272145   1.523   1.767  14.352  0.1904  0.5269  0.1202
16885TIP3    H172146   1.543   1.721  14.271  0.5892  0.6000  0.1739
16885TIP3    H272147   1.514   1.859  14.326  0.1419  0.5252  0.1303
16886TIP3   OH272148   1.583   2.884   4.017 -0.1124 -0.2651 -0.0702
16886TIP3    H172149   1.497   2.849   4.039 -0.6547  1.4150  0.7371
16886TIP3    H272150   1.645   2.815   4.042 -1.0793 -0.5310  1.8164
16887TIP3   OH272151   2.166   3.925  16.033  0.4020  0.0176  0.4517
16887TIP3    H172152   2.223   3.949  15.961 -1.2791  0.9544 -0.6471
16887TIP3    H272153   2.139   4.009  16.071 -2.0771 -0.2049 -0.6108
16888TIP3   OH272154   0.543   1.655  12.829  0.1593  0.1042 -0.0710
16888TIP3    H172155   0.621   1.703  12.857  0.5105  0.5153 -1.6255
16888TIP3    H272156   0.542   1.576  12.882  1.7156  0.0376 -0.1115
16889TIP3   OH272157   2.842   3.859   5.030  0.1217 -0.0523 -0.6218
16889TIP3    H172158   2.834   3.932   5.091 -1.3509 -0.2203 -0.5704
16889TIP3    H272159   2.902   3.798   5.072  1.6052  1.2206 -0.7963
16890TIP3   OH272160   2.611   1.527  12.551  0.1380 -0.2113  0.5264
16890TIP3    H172161   2.593   1.433  12.555 -1.0044 -0.0097  0.2733
16890TIP3    H272162   2.699   1.535  12.590  0.7602 -1.4996 -0.5060
16891TIP3   OH272163   0.183   3.430   3.938 -0.1914  0.4863  0.1537
16891TIP3    H172164   0.192   3.389   3.852 -0.4618  3.2078 -1.2908
16891TIP3    H272165   0.268   3.472   3.954 -0.6668  1.3847  0.4074
16892TIP3   OH272166   3.285   3.958   4.678 -0.2756  0.0622 -0.2852
16892TIP3    H172167   3.200   3.913   4.675  0.4058 -1.1928 -1.6185
16892TIP3    H272168   3.265   4.047   4.650 -1.4425  0.3218  1.2087
16893TIP3   OH272169   5.279   6.814  15.882  0.4736 -0.4251  0.7456
16893TIP3    H172170   5.215   6.853  15.942 -0.2513 -0.5834  0.0974
16893TIP3    H272171   5.338   6.886  15.860 -0.3481  0.1159  0.2283
16894TIP3   OH272172   1.113   2.221  14.995 -0.8161 -0.0733  0.0621
16894TIP3    H172173   1.055   2.252  14.925 -0.0274  0.5107 -0.3487
16894TIP3    H272174   1.163   2.150  14.954 -0.5067  0.1251  0.0990
16895TIP3   OH272175   1.280   4.941   4.217  0.7983 -0.3379  0.1002
16895TIP3    H172176   1.263   5.022   4.168  2.9470  0.4422  0.5210
16895TIP3    H272177   1.375   4.929   4.211  0.5045 -3.0832 -0.2662
16896TIP3   OH272178   6.735   3.500  12.809 -0.1410 -0.2456 -0.1921
16896TIP3    H172179   6.735   3.410  12.777  0.2363 -0.6835  0.9819
16896TIP3    H272180   6.827   3.519  12.827 -0.4236 -0.4547  1.7202
16897TIP3   OH272181   2.514   3.907   4.839  0.1792 -0.4135  0.0057
16897TIP3    H172182   2.579   3.946   4.781 -0.1479 -1.7805 -1.3525
16897TIP3    H272183   2.504   3.818   4.807 -2.3594 -0.2531  0.1707
16898TIP3   OH272184   6.677   4.647   6.699 -0.4085 -0.0681 -0.3614
16898TIP3    H172185   6.604   4.624   6.756 -0.2518 -1.0007 -0.5171
16898TIP3    H272186   6.682   4.574   6.637 -0.4534  0.8248 -1.4515
16899TIP3   OH272187   6.174   6.710  12.818 -0.7348  0.6394  0.2995
16899TIP3    H172188   6.120   6.637  12.787  0.0189  0.3908 -0.4978
16899TIP3    H272189   6.250   6.709  12.759 -0.5389  1.8434  0.5147
16900TIP3   OH272190   0.872   0.721  13.311 -0.4553  0.1150  0.2293
16900TIP3    H172191   0.802   0.762  13.259 -0.2443  1.4673  0.9578
16900TIP3    H272192   0.825   0.674  13.380 -0.7277 -1.5138 -1.0038
16901TIP3   OH272193   3.858   0.924  15.543 -0.2045 -0.3760  0.5387
16901TIP3    H172194   3.948   0.933  15.575 -0.6885 -0.0270  1.8375
16901TIP3    H272195   3.826   0.843  15.582 -0.2844 -0.7988 -0.3773
16902TIP3   OH272196   1.992   1.991   4.923 -0.6471  0.5225  0.2327
16902TIP3    H172197   1.910   2.026   4.958  0.0751  1.1811  1.3542
16902TIP3    H272198   1.984   2.000   4.828 -1.9697  0.3147  0.3010
16903TIP3   OH272199   1.617   4.232   0.790 -0.1396  0.0140  0.1753
16903TIP3    H172200   1.683   4.299   0.810 -1.2206  1.3676 -0.6370
16903TIP3    H272201   1.654   4.151   0.825  1.1849  1.0364  1.2448
16904TIP3   OH272202   5.749   1.561  14.066  0.4303  0.5530 -0.0053
16904TIP3    H172203   5.734   1.654  14.080 -2.2650  0.4271 -1.5195
16904TIP3    H272204   5.809   1.558  13.991 -0.9276  1.1033 -1.1486
16905TIP3   OH272205   1.928   3.088   4.992  0.4804 -0.7416 -0.4242
16905TIP3    H172206   1.941   3.024   4.922  3.7882 -1.1464  0.3588
16905TIP3    H272207   1.943   3.038   5.073  0.9705  0.5391  0.3105
16906TIP3   OH272208   0.463   3.947  13.641  0.1609  0.2923  0.1518
16906TIP3    H172209   0.539   3.958  13.698  0.6429 -0.7033 -0.2633
16906TIP3    H272210   0.458   3.852  13.626 -2.8599 -0.0987  2.4442
16907TIP3   OH272211   6.122   3.050  11.307  0.0803  0.1786  0.4036
16907TIP3    H172212   6.132   3.119  11.242  3.5066 -2.8296 -2.7449
16907TIP3    H272213   6.210   3.036  11.342 -0.4794 -2.4646  0.9865
16908TIP3   OH272214   2.603   6.019  13.410 -0.5447  0.4045 -0.2279
16908TIP3    H172215   2.521   6.054  13.374 -0.7786 -0.0428 -0.1407
16908TIP3    H272216   2.650   6.096  13.441 -1.2294  0.6091  0.3376
16909TIP3   OH272217   5.900   2.975  13.540 -0.0022  0.1603  0.3571
16909TIP3    H172218   5.868   2.926  13.464 -3.4918  2.1838  0.3323
16909TIP3    H272219   5.953   3.046  13.502  0.2119 -0.2006 -0.0203
16910TIP3   OH272220   2.872   1.884  16.627 -0.2398 -0.0566  0.0061
16910TIP3    H172221   2.811   1.867  16.699 -1.4672 -1.1245 -1.2251
16910TIP3    H272222   2.851   1.973  16.598 -0.2888  0.0791  0.4536
16911TIP3   OH272223   2.560   4.996  14.057 -0.2969  0.4010  0.0853
16911TIP3    H172224   2.469   4.987  14.029 -0.6224 -0.4285  1.3443
16911TIP3    H272225   2.559   5.066  14.122  0.0981  0.8471 -0.3701
16912TIP3   OH272226   1.027   1.082   3.591  0.7675  0.3527  0.1250
16912TIP3    H172227   1.052   0.990   3.591 -1.3751 -0.3716  3.4511
16912TIP3    H272228   0.937   1.082   3.559  0.9616  1.4083 -0.4657
16913TIP3   OH272229   5.821   2.322  15.397  0.2964 -0.2900  0.0082
16913TIP3    H172230   5.754   2.325  15.464  0.3289  0.5337  0.0111
16913TIP3    H272231   5.870   2.242  15.416 -0.5658 -0.8079  0.1042
16914TIP3   OH272232   3.896   4.792   5.459 -0.0328 -0.4536  0.2661
16914TIP3    H172233   3.915   4.851   5.531 -0.7694 -1.3711  1.2469
16914TIP3    H272234   3.938   4.710   5.483 -2.1982 -1.4782  0.8303
16915TIP3   OH272235   2.575   0.225   4.829  0.3125  0.8336 -0.2606
16915TIP3    H172236   2.541   0.196   4.745  2.3073  0.1631 -0.8876
16915TIP3    H272237   2.667   0.198   4.829  1.2356  3.5590  0.8296
16916TIP3   OH272238   2.952   1.874  13.124 -0.3034  0.6270 -0.0829
16916TIP3    H172239   2.953   1.945  13.189 -0.5515  0.3281  0.2521
16916TIP3    H272240   2.950   1.794  13.177  0.7179  0.3478 -0.4451
16917TIP3   OH272241   2.749   3.355   4.502  0.9051 -0.2585  0.6292
16917TIP3    H172242   2.788   3.398   4.578  0.8074  1.2954 -0.1692
16917TIP3    H272243   2.704   3.425   4.455  0.3639 -1.3246 -0.4902
16918TIP3   OH272244   1.207   0.343   1.458 -0.3460  0.5420 -0.0101
16918TIP3    H172245   1.153   0.359   1.535  0.1525  0.3485  0.3831
16918TIP3    H272246   1.237   0.430   1.430  1.5411  0.4475  1.5243
16919TIP3   OH272247   0.867   5.057  11.667  0.0211 -0.1297  0.6287
16919TIP3    H172248   0.808   4.995  11.709 -2.5096  0.7603 -1.3587
16919TIP3    H272249   0.829   5.143  11.684  1.4637  0.6164  0.3295
16920TIP3   OH272250   5.979   5.475  15.393 -0.2298 -0.6509 -0.3422
16920TIP3    H172251   6.009   5.506  15.479  1.7240 -2.6732 -0.2049
16920TIP3    H272252   5.949   5.554  15.349 -0.8792  0.5165  2.0232
16921TIP3   OH272253   1.247   5.831   5.837 -0.1194  0.0452 -0.4065
16921TIP3    H172254   1.152   5.830   5.842 -0.0498 -0.6883  1.2843
16921TIP3    H272255   1.276   5.775   5.909  1.6181  1.4655  0.0683
16922TIP3   OH272256   1.918   4.990   2.551  0.4853 -0.0681 -0.2947
16922TIP3    H172257   1.866   5.060   2.591 -0.0768 -0.2539 -0.6825
16922TIP3    H272258   1.899   4.997   2.457 -0.9247 -1.7823 -0.1974
16923TIP3   OH272259   0.503   2.318   0.998  0.0769 -0.4984  0.8216
16923TIP3    H172260   0.569   2.328   1.067  0.1006 -1.9619  1.0406
16923TIP3    H272261   0.419   2.331   1.042  0.1637  0.4891  0.7185
16924TIP3   OH272262   0.719   4.087   4.287 -0.0472  0.0017  0.0605
16924TIP3    H172263   0.710   3.992   4.293  0.1786 -0.0697 -0.5795
16924TIP3    H272264   0.787   4.100   4.220 -0.5832  0.6154 -0.3817
16925TIP3   OH272265   4.926   5.186   1.138  0.1295 -0.3873 -0.2993
16925TIP3    H172266   4.989   5.231   1.195  2.3841 -1.6866 -1.5967
16925TIP3    H272267   4.856   5.250   1.123  0.7468  0.8646  1.8299
16926TIP3   OH272268   0.719   4.402   3.541  0.2709 -1.0338  0.3627
16926TIP3    H172269   0.748   4.315   3.569 -0.6874 -1.3647  0.3782
16926TIP3    H272270   0.624   4.394   3.533  0.3360 -0.5229 -1.4906
16927TIP3   OH272271   2.572   5.243   4.368  0.1697 -0.0635 -0.0882
16927TIP3    H172272   2.639   5.304   4.337 -0.0512 -0.9254 -2.4968
16927TIP3    H272273   2.617   5.189   4.432  0.4367  2.3578  1.9009
16928TIP3   OH272274   1.857   3.706  16.985 -0.0332 -0.2964 -0.0596
16928TIP3    H172275   1.781   3.684  17.040 -1.3502 -1.5361 -2.2047
16928TIP3    H272276   1.931   3.666  17.028 -0.4803  1.2378  2.2970
16929TIP3   OH272277   6.113   1.290  13.465 -0.6979  0.6699  0.2572
16929TIP3    H172278   6.044   1.248  13.414  0.4075 -0.1598 -0.6243
16929TIP3    H272279   6.178   1.317  13.400  0.4995  0.0927  1.1683
16930TIP3   OH272280   5.341   5.225  12.612  0.4795 -0.1358  0.1818
16930TIP3    H172281   5.280   5.157  12.639  0.9905 -1.4578 -1.7685
16930TIP3    H272282   5.427   5.193  12.638  0.8651 -0.9351 -1.8642
16931TIP3   OH272283   5.301   4.491  14.988 -0.6945  0.3043 -0.7327
16931TIP3    H172284   5.233   4.556  15.000 -1.2148 -0.0237 -1.7224
16931TIP3    H272285   5.344   4.484  15.073 -2.4663 -0.1183  0.1879
16932TIP3   OH272286   0.352   5.333  15.703  0.0679  0.1213 -0.3247
16932TIP3    H172287   0.400   5.322  15.621 -2.1445  1.2519 -1.8786
16932TIP3    H272288   0.358   5.427  15.721  0.3880 -0.0901  0.7678
16933TIP3   OH272289   5.251   0.317   3.381 -0.2392  0.2326  0.1000
16933TIP3    H172290   5.341   0.331   3.408  0.5275 -1.4298 -1.4169
16933TIP3    H272291   5.256   0.300   3.287 -2.0370 -0.7367  0.1297
16934TIP3   OH272292   5.644   3.728   6.123  0.0989  0.3738 -0.2900
16934TIP3    H172293   5.599   3.742   6.207  0.2780 -1.7582  0.2055
16934TIP3    H272294   5.678   3.815   6.100  0.5008  0.9205  2.1141
16935TIP3   OH272295   2.054   1.824  13.056  0.5528 -0.5122  0.3835
16935TIP3    H172296   2.067   1.913  13.021  1.3349  0.9284  3.8439
16935TIP3    H272297   1.961   1.806  13.042  1.1901 -1.3272 -4.5902
16936TIP3   OH272298   6.128   0.120  13.908  0.2940  0.1411 -0.0260
16936TIP3    H172299   6.190   0.059  13.868  0.0867  0.7347 -1.3143
16936TIP3    H272300   6.088   0.071  13.979  1.4703 -0.6050  0.1497
16937TIP3   OH272301   6.128   1.578  16.442 -0.0339 -0.1358 -0.1636
16937TIP3    H172302   6.160   1.612  16.526  2.2534 -3.3960  0.4569
16937TIP3    H272303   6.053   1.524  16.465 -1.5260  1.5728 -0.7429
16938TIP3   OH272304   3.517   1.312  11.588 -0.4375  0.1934  0.0646
16938TIP3    H172305   3.523   1.245  11.520 -0.0386  1.4792 -1.1997
16938TIP3    H272306   3.423   1.326  11.600 -0.5030  0.0498 -0.2950
16939TIP3   OH272307   0.033   6.134   1.246  0.2524 -0.0610  0.1000
16939TIP3    H172308   0.037   6.204   1.181  2.6501 -0.1009  0.1155
16939TIP3    H272309   0.121   6.131   1.284  0.6290 -3.6928 -0.6224
16940TIP3   OH272310   1.185   3.999  12.137  0.0547 -0.0836 -0.1540
16940TIP3    H172311   1.097   4.024  12.108 -0.5769 -2.0476 -0.0786
16940TIP3    H272312   1.235   3.991  12.056 -0.6162 -1.6140 -0.4607
16941TIP3   OH272313   6.164   6.801  15.489  0.2433 -0.2615  0.3432
16941TIP3    H172314   6.130   6.772  15.405  0.1868  2.5014 -0.6745
16941TIP3    H272315   6.134   6.735  15.551 -0.2305 -2.0435 -1.6743
16942TIP3   OH272316   4.014   0.152   3.842  0.0549 -0.3824 -0.9531
16942TIP3    H172317   3.944   0.161   3.907  1.9012  0.8731  1.0135
16942TIP3    H272318   3.973   0.108   3.768 -2.5168 -0.6687  0.5269
16943TIP3   OH272319   5.949   5.199  13.552  0.7291 -0.0317  0.1453
16943TIP3    H172320   5.976   5.183  13.643 -3.2362  1.0702  1.7392
16943TIP3    H272321   5.978   5.288  13.534 -0.8471  0.8186  1.4919
16944TIP3   OH272322   1.366   4.501  16.021 -0.4195  0.4026  0.0579
16944TIP3    H172323   1.424   4.539  15.955 -0.6333  0.3456 -0.1597
16944TIP3    H272324   1.308   4.443  15.973  0.0343 -0.3707  0.4159
16945TIP3   OH272325   4.017   3.464  10.647 -0.9527  0.1832 -0.5319
16945TIP3    H172326   3.972   3.480  10.730 -1.6894  2.1875 -1.2537
16945TIP3    H272327   3.977   3.384  10.613 -0.9198 -0.4400  0.8374
16946TIP3   OH272328   3.691   3.533   3.819 -0.0767  0.1603  0.1461
16946TIP3    H172329   3.669   3.443   3.795  0.9191  0.2787 -1.3475
16946TIP3    H272330   3.607   3.575   3.837 -1.0581  0.0645 -3.3648
16947TIP3   OH272331   0.593   4.205  16.120 -0.2791  0.6896  0.3211
16947TIP3    H172332   0.503   4.226  16.145 -0.5372  0.0749 -0.0596
16947TIP3    H272333   0.584   4.148  16.044  0.3994 -0.5342  1.1325
16948TIP3   OH272334   3.260   4.804   5.963  0.0454 -0.4037  0.4173
16948TIP3    H172335   3.346   4.790   5.922 -0.6896 -0.9985 -0.9856
16948TIP3    H272336   3.256   4.740   6.033  0.6163 -0.5878  0.2891
16949TIP3   OH272337   4.061   3.152   0.360 -0.0080  0.5369 -0.1473
16949TIP3    H172338   4.109   3.199   0.292 -2.1576  0.3346 -1.9217
16949TIP3    H272339   3.984   3.117   0.315 -1.1157 -0.3123  2.2349
16950TIP3   OH272340   0.347   6.364   6.101  0.1262 -0.0657 -0.1620
16950TIP3    H172341   0.287   6.308   6.152 -1.5135  2.1146  0.4841
16950TIP3    H272342   0.359   6.442   6.156  0.4859  1.2165 -1.9632
16951TIP3   OH272343   2.911   3.772  14.899  0.5485  0.3243  0.2176
16951TIP3    H172344   2.886   3.718  14.974  0.5965  0.6290  0.4531
16951TIP3    H272345   3.002   3.798  14.916  0.2994  1.0716  0.4638
16952TIP3   OH272346   1.499   0.121   1.186  0.6054 -0.1111 -0.4592
16952TIP3    H172347   1.569   0.179   1.213 -0.4902  0.9997  0.0840
16952TIP3    H272348   1.535   0.033   1.197  1.3839  0.3938  1.3149
16953TIP3   OH272349   2.301   5.721  12.920  0.6137  0.3589 -0.0551
16953TIP3    H172350   2.349   5.725  12.838  2.3509  0.9879  0.9256
16953TIP3    H272351   2.369   5.726  12.988 -0.7954  0.5764  1.4192
16954TIP3   OH272352   4.315   3.546  11.780  0.3149 -0.1775 -0.3744
16954TIP3    H172353   4.329   3.562  11.687 -0.8740 -0.7141 -0.6643
16954TIP3    H272354   4.387   3.488  11.805  1.4323  1.0475 -0.6131
16955TIP3   OH272355   6.489   4.314   3.731 -0.3206  0.1321  0.2692
16955TIP3    H172356   6.444   4.378   3.786 -0.5298 -1.2794  1.8424
16955TIP3    H272357   6.559   4.279   3.786  0.7682  0.0908 -1.0833
16956TIP3   OH272358   1.606   3.165  14.464  0.5032 -0.1097 -0.2683
16956TIP3    H172359   1.663   3.242  14.459 -1.3315  1.5442  2.0618
16956TIP3    H272360   1.641   3.115  14.539 -0.1384  0.0649  0.1488
16957TIP3   OH272361   4.439   6.450  13.274 -0.0046  0.2443  0.2426
16957TIP3    H172362   4.495   6.372  13.277  0.2545  0.4445  2.2316
16957TIP3    H272363   4.382   6.435  13.199  1.6149 -0.7337 -0.8798
16958TIP3   OH272364   4.515   5.607  16.027  0.5970 -0.5493 -0.0348
16958TIP3    H172365   4.463   5.686  16.039  1.4310  0.2788 -1.4652
16958TIP3    H272366   4.461   5.536  16.062  0.2897  0.7487  2.3124
16959TIP3   OH272367   2.166   6.739  16.617 -0.0778 -0.1874  0.2729
16959TIP3    H172368   2.213   6.701  16.691 -0.2218  0.3448  0.6323
16959TIP3    H272369   2.131   6.822  16.649 -2.0150 -0.9526  0.2781
16960TIP3   OH272370   1.149   3.421   3.862  0.0464 -0.8907 -0.4190
16960TIP3    H172371   1.220   3.443   3.802  0.2839  2.3716  0.8471
16960TIP3    H272372   1.194   3.388   3.940  0.0842 -0.2886 -0.1831
16961TIP3   OH272373   0.720   5.840   5.841 -0.2823  0.0236  0.1685
16961TIP3    H172374   0.793   5.783   5.814 -0.0489 -0.1277  1.0945
16961TIP3    H272375   0.649   5.780   5.863 -0.8474  0.1813 -1.1118
16962TIP3   OH272376   2.651   0.439   1.792  0.5270 -0.0802  0.1866
16962TIP3    H172377   2.612   0.465   1.708 -1.6423 -2.1402  0.4597
16962TIP3    H272378   2.740   0.410   1.769 -0.4114 -1.7532 -1.6900
16963TIP3   OH272379   5.894   4.646  16.635 -0.3046 -0.0081 -0.2633
16963TIP3    H172380   5.912   4.692  16.717 -0.8856  1.5048 -0.9512
16963TIP3    H272381   5.952   4.570  16.637 -0.0574  0.1922  1.3809
16964TIP3   OH272382   3.511   1.402  11.237  0.1014 -0.1475 -0.0837
16964TIP3    H172383   3.555   1.471  11.187  0.6249 -0.5753 -0.2227
16964TIP3    H272384   3.582   1.352  11.277 -0.2386 -1.0232 -0.5482
16965TIP3   OH272385   0.842   6.281   6.496 -0.5242 -0.4942 -0.4887
16965TIP3    H172386   0.761   6.228   6.499 -0.5415 -0.4342  1.7174
16965TIP3    H272387   0.824   6.355   6.554  1.8378 -1.6320  1.8922
16966TIP3   OH272388   5.474   4.206  11.874  1.1383 -0.2846  0.0314
16966TIP3    H172389   5.414   4.147  11.829  1.4720 -0.2199 -0.5001
16966TIP3    H272390   5.423   4.241  11.947  1.2025 -1.9530  0.9414
16967TIP3   OH272391   6.673   4.158   0.917  0.1568  0.3723  0.7884
16967TIP3    H172392   6.767   4.168   0.901 -0.4006  1.1634 -2.9832
16967TIP3    H272393   6.633   4.228   0.865 -2.6007 -1.6280 -0.0305
16968TIP3   OH272394   2.032   4.467   1.573  0.0216  0.2379  0.3696
16968TIP3    H172395   2.101   4.409   1.607  0.4726  0.5443 -0.0027
16968TIP3    H272396   2.053   4.476   1.480  0.2828  1.4285  0.5242
16969TIP3   OH272397   1.632   4.376   5.997  0.0335 -0.3129 -0.1797
16969TIP3    H172398   1.558   4.422   6.036  0.9400  0.2004  0.9861
16969TIP3    H272399   1.592   4.304   5.948 -1.2292 -0.0558  0.4361
16970TIP3   OH272400   1.516   3.299  15.894  0.7863 -0.2983  0.1038
16970TIP3    H172401   1.474   3.354  15.828  0.5842  0.7298  1.0722
16970TIP3    H272402   1.541   3.220  15.846 -1.5597 -0.6443 -0.6879
16971TIP3   OH272403   0.393   1.154   3.805 -0.2616  0.7209 -0.3031
16971TIP3    H172404   0.360   1.216   3.870  0.6856  2.4795 -1.4179
16971TIP3    H272405   0.483   1.183   3.788  0.6029 -1.6229 -0.1132
16972TIP3   OH272406   2.847   4.250  13.925 -0.5579 -0.1433  0.1301
16972TIP3    H172407   2.808   4.334  13.948 -0.5562 -0.5571  1.7173
16972TIP3    H272408   2.941   4.269  13.917 -0.5014 -0.0791  0.9180
16973TIP3   OH272409   6.439   4.735  11.162  0.5562  0.4397  0.4430
16973TIP3    H172410   6.447   4.787  11.082  2.1962  1.9189  1.5081
16973TIP3    H272411   6.369   4.778  11.212 -0.6255 -0.6188 -0.2504
16974TIP3   OH272412   0.691   4.152  13.210  0.8860  0.3191  0.1395
16974TIP3    H172413   0.704   4.245  13.230 -2.5844  1.8134 -3.2425
16974TIP3    H272414   0.614   4.127  13.261  0.0109  0.2980 -1.1211
16975TIP3   OH272415   5.027   5.732   5.026 -0.3565 -0.4541  0.3445
16975TIP3    H172416   5.000   5.684   5.104 -0.0884 -2.2333 -0.6038
16975TIP3    H272417   5.116   5.701   5.008 -0.3276  0.1004 -0.5372
16976TIP3   OH272418   3.384   4.062   4.299  0.5009  0.6325 -0.2634
16976TIP3    H172419   3.329   4.109   4.362 -0.6018 -1.8148  0.7186
16976TIP3    H272420   3.474   4.082   4.326  0.0471  0.6414  1.3247
16977TIP3   OH272421   4.418   4.221  16.706 -0.3679 -0.6420 -0.0365
16977TIP3    H172422   4.489   4.236  16.644 -0.2639 -1.1254 -0.0408
16977TIP3    H272423   4.446   4.265  16.786  0.4595 -1.7478  0.3136
16978TIP3   OH272424   2.996   2.777  12.624 -0.0495  0.1076 -0.6087
16978TIP3    H172425   2.981   2.770  12.718 -1.0086  0.3576 -0.7411
16978TIP3    H272426   2.961   2.695  12.588  0.5942 -0.1256 -0.7274
16979TIP3   OH272427   5.770   3.737  12.354 -0.1741  0.5923  0.2762
16979TIP3    H172428   5.762   3.815  12.409  0.6723 -0.0651  1.3598
16979TIP3    H272429   5.703   3.749  12.286 -1.6316  1.1713  1.7508
16980TIP3   OH272430   6.438   5.990  15.883 -0.7622 -0.2272  0.1276
16980TIP3    H172431   6.460   5.970  15.974  1.8485  0.6345 -0.2045
16980TIP3    H272432   6.513   5.957  15.833 -1.5249  0.4719 -1.5750
16981TIP3   OH272433   5.277   0.074  10.883 -0.2409  0.1875  0.0903
16981TIP3    H172434   5.257   0.001  10.824 -3.3642  0.6417  0.4523
16981TIP3    H272435   5.373   0.074  10.888 -0.0295 -2.4437 -1.6886
16982TIP3   OH272436   4.590   2.111   5.831 -0.3246 -0.1821 -0.7149
16982TIP3    H172437   4.533   2.134   5.905 -1.5466 -2.6413 -0.7678
16982TIP3    H272438   4.673   2.089   5.872 -0.0051  1.4318 -0.4237
16983TIP3   OH272439   6.197   1.758  15.535 -0.2689 -0.6106 -0.0278
16983TIP3    H172440   6.214   1.695  15.605 -0.3755 -0.2510  0.3251
16983TIP3    H272441   6.243   1.837  15.563  0.8998 -0.8854 -1.0479
16984TIP3   OH272442   4.796   1.038  15.225  0.0891  0.6992 -0.5557
16984TIP3    H172443   4.854   1.109  15.195 -0.6836  1.0675 -1.1971
16984TIP3    H272444   4.771   1.065  15.314  1.4532  0.1834  0.0084
16985TIP3   OH272445   1.919   4.109   2.762  0.6000  0.0751  0.2749
16985TIP3    H172446   1.985   4.100   2.830  1.3713  0.0973 -0.4498
16985TIP3    H272447   1.926   4.200   2.733  0.1441  0.1201  0.2930
16986TIP3   OH272448   2.553   2.490  16.675 -0.1379  0.0811 -0.7244
16986TIP3    H172449   2.548   2.569  16.729 -0.1967 -1.1497  1.1700
16986TIP3    H272450   2.644   2.462  16.683 -0.6859 -1.4427  0.8160
16987TIP3   OH272451   3.528   4.583  11.757 -0.5990 -0.0104  0.3135
16987TIP3    H172452   3.460   4.535  11.711  0.2993 -0.1064 -0.9765
16987TIP3    H272453   3.544   4.660  11.702  1.0272 -0.5096  0.0337
16988TIP3   OH272454   4.626   1.157  16.211 -0.0632 -0.6639  0.1748
16988TIP3    H172455   4.650   1.098  16.282 -0.4835 -0.1977  0.7194
16988TIP3    H272456   4.683   1.233  16.222 -0.2195 -0.5337  0.0952
16989TIP3   OH272457   3.332   2.904  14.855  0.1410 -0.1798 -0.3807
16989TIP3    H172458   3.254   2.910  14.800  0.5648  0.2193 -0.9490
16989TIP3    H272459   3.343   2.810  14.871  0.6628 -0.4012 -1.9252
16990TIP3   OH272460   4.814   4.748   0.059  0.1343 -0.4166 -0.1962
16990TIP3    H172461   4.730   4.769   0.019  0.3104 -0.8456 -0.8027
16990TIP3    H272462   4.834   4.824   0.115 -1.0946 -0.7212  0.6936
16991TIP3   OH272463   1.546   5.295   2.962 -0.0897  0.4558  0.4110
16991TIP3    H172464   1.583   5.214   2.925 -1.6782 -0.6766  1.1558
16991TIP3    H272465   1.555   5.284   3.056 -1.8570  0.2986  0.6075
16992TIP3   OH272466   5.015   6.761  15.333  0.6076 -0.2062 -0.2020
16992TIP3    H172467   5.037   6.789  15.421 -0.9957 -1.4085  0.6271
16992TIP3    H272468   4.965   6.681  15.345 -2.4268  1.2447 -1.9853
16993TIP3   OH272469   2.325   2.323  15.216  0.0796  0.1104  0.0736
16993TIP3    H172470   2.408   2.283  15.191  0.4778  0.8409  0.2070
16993TIP3    H272471   2.266   2.304  15.143 -0.1908 -2.0075  0.7710
16994TIP3   OH272472   1.825   5.657   0.149  0.4209  0.1497  0.0145
16994TIP3    H172473   1.861   5.730   0.198  0.4957 -0.5910  1.1153
16994TIP3    H272474   1.823   5.585   0.213  1.7209 -1.2253 -1.4099
16995TIP3   OH272475   3.230   6.136   6.788 -0.2529  0.3365  0.1512
16995TIP3    H172476   3.264   6.072   6.726 -0.1530 -0.1646  0.7065
16995TIP3    H272477   3.183   6.199   6.735 -0.2817 -0.1565 -0.4184
16996TIP3   OH272478   3.975   3.275  13.827  0.5905  0.3411  0.2732
16996TIP3    H172479   3.963   3.290  13.920 -0.3726 -1.8534  0.5764
16996TIP3    H272480   3.890   3.242  13.797  1.2381 -0.1594 -1.1032
16997TIP3   OH272481   4.034   3.659  12.124 -0.0502  0.2012  0.2864
16997TIP3    H172482   4.027   3.564  12.136 -1.1889  0.4591  2.1443
16997TIP3    H272483   3.944   3.689  12.120  0.2965  1.1496 -1.2556
16998TIP3   OH272484   0.461   2.020   0.561 -0.7594 -0.3038  0.4096
16998TIP3    H172485   0.478   2.041   0.653 -2.4327 -1.3226  0.9874
16998TIP3    H272486   0.369   1.995   0.558 -0.5895 -0.8796 -1.4461
16999TIP3   OH272487   6.638   2.061   1.760 -0.2793  0.2779  0.3941
16999TIP3    H172488   6.595   1.978   1.744  0.4643  0.1019 -0.8424
16999TIP3    H272489   6.592   2.124   1.704  0.3724  0.3022 -0.1235
17000TIP3   OH272490   4.719   4.428   1.323  0.1899 -0.0800 -0.3721
17000TIP3    H172491   4.666   4.428   1.244  0.1329 -1.7600 -0.3562
17000TIP3    H272492   4.696   4.510   1.367 -1.2187 -0.0361 -1.1385
17001TIP3   OH272493   4.255   5.535  12.924 -0.3966  0.1344 -0.7554
17001TIP3    H172494   4.163   5.508  12.912 -0.5570  0.4023 -0.1370
17001TIP3    H272495   4.286   5.552  12.835  0.1293 -3.3748 -1.3968
17002TIP3   OH272496   5.801   1.643   1.136 -0.5964  0.2674  0.5712
17002TIP3    H172497   5.848   1.705   1.191  2.3682 -0.4462 -0.9437
17002TIP3    H272498   5.850   1.642   1.054 -3.9519  0.2064 -1.6243
17003TIP3   OH272499   1.776   1.352  14.229 -0.4011  0.6123  0.1538
17003TIP3    H172500   1.687   1.366  14.261 -0.1296 -0.2736  1.3467
17003TIP3    H272501   1.795   1.260  14.249 -0.0097  0.1306 -2.0952
17004TIP3   OH272502   5.816   4.754  15.987 -0.1215 -0.5013 -0.2024
17004TIP3    H172503   5.772   4.778  15.906  1.0488  1.0502 -0.4027
17004TIP3    H272504   5.909   4.748  15.964  0.3620  0.9302  1.1893
17005TIP3   OH272505   1.205   0.635  16.417 -0.5920 -0.1918  0.4998
17005TIP3    H172506   1.251   0.683  16.348 -2.3719  0.3570 -0.3756
17005TIP3    H272507   1.175   0.703  16.478 -0.1175 -0.5488  1.1373
17006TIP3   OH272508   1.491   1.679  16.976 -0.1322  0.2267  0.0787
17006TIP3    H172509   1.403   1.660  16.944  0.4306  0.6606 -1.8316
17006TIP3    H272510   1.496   1.774  16.976  1.0879  0.2185 -2.1479
17007TIP3   OH272511   3.808   3.227  12.447  0.7124 -0.2668  0.2871
17007TIP3    H172512   3.850   3.205  12.530  1.6975  0.3608 -0.0275
17007TIP3    H272513   3.726   3.177  12.448  0.3213  0.3226  1.9794
17008TIP3   OH272514   0.980   5.629  12.400  0.1400  0.2625 -0.3925
17008TIP3    H172515   0.899   5.679  12.410 -0.6525 -0.6278 -1.8855
17008TIP3    H272516   0.999   5.595  12.487 -2.4017 -1.3747 -0.3718
17009TIP3   OH272517   5.784   1.848   0.346 -0.2156 -0.1943  0.3628
17009TIP3    H172518   5.727   1.814   0.415 -1.3170 -2.1955 -1.4234
17009TIP3    H272519   5.780   1.783   0.277  1.2914  1.4567 -1.4016
17010TIP3   OH272520   6.037   4.791   3.669 -0.5250 -0.4070 -0.1670
17010TIP3    H172521   6.040   4.880   3.703 -0.2462  1.2275 -3.9944
17010TIP3    H272522   6.124   4.776   3.632 -0.7286 -2.1164 -0.0465
17011TIP3   OH272523   1.840   0.809  13.238  0.0705 -0.0957 -0.0737
17011TIP3    H172524   1.895   0.887  13.229  0.0451 -0.2415 -1.8671
17011TIP3    H272525   1.797   0.819  13.323  1.2441  1.0694  0.4095
17012TIP3   OH272526   2.581   0.758  16.682 -0.3273  0.2402 -0.2513
17012TIP3    H172527   2.574   0.724  16.771  0.6121 -1.2488 -0.7167
17012TIP3    H272528   2.620   0.845  16.693  3.2367 -1.3189  0.6251
17013TIP3   OH272529   5.619   2.347  10.701 -0.1186 -0.2492  0.2814
17013TIP3    H172530   5.679   2.277  10.726 -1.9315 -1.5328  1.3162
17013TIP3    H272531   5.575   2.313  10.623 -2.4485 -1.2905  1.9124
17014TIP3   OH272532   4.800   6.302   5.564  0.6082 -0.3420 -0.5311
17014TIP3    H172533   4.763   6.374   5.615  1.7529 -1.1944  1.6061
17014TIP3    H272534   4.833   6.240   5.629  1.2818 -1.9650 -2.3141
17015TIP3   OH272535   3.395   2.685  16.466 -0.0843 -0.3074  0.1369
17015TIP3    H172536   3.376   2.728  16.549 -1.0609  1.1580 -0.7770
17015TIP3    H272537   3.315   2.696  16.415  0.1361 -2.0526 -0.6651
17016TIP3   OH272538   4.968   6.106   1.795 -0.3570  0.1667 -0.3594
17016TIP3    H172539   4.947   6.150   1.878 -0.2573 -0.1253 -0.1769
17016TIP3    H272540   4.907   6.032   1.791 -0.7402  0.5043 -0.8205
17017TIP3   OH272541   0.116   4.669   1.323  0.2211 -0.1760 -0.5269
17017TIP3    H172542   0.121   4.760   1.352 -0.6013 -0.9684  2.4087
17017TIP3    H272543   0.030   4.661   1.281 -0.7102 -0.0693  1.2692
17018TIP3   OH272544   2.615   2.004  11.387 -0.6960 -0.3874  0.2574
17018TIP3    H172545   2.606   1.966  11.475 -0.1004 -2.3581 -0.4595
17018TIP3    H272546   2.539   1.971  11.339 -0.4589 -0.2121 -0.2426
17019TIP3   OH272547   4.790   0.689   0.969  0.0123  0.2108 -0.0819
17019TIP3    H172548   4.786   0.739   1.050  0.7131  0.5600 -0.2548
17019TIP3    H272549   4.698   0.676   0.944 -0.3606 -2.0004  2.0199
17020TIP3   OH272550   1.646   3.713  12.177  0.3076  0.1998  0.0634
17020TIP3    H172551   1.708   3.710  12.251 -0.3757  1.0249  0.6939
17020TIP3    H272552   1.661   3.798  12.136 -0.2589  0.3216  0.0974
17021TIP3   OH272553   4.646   4.907   2.700 -0.4473 -0.4745 -0.3671
17021TIP3    H172554   4.624   4.941   2.787  0.0617 -1.3345  0.1182
17021TIP3    H272555   4.563   4.902   2.654 -0.9653 -1.4249  0.6074
17022TIP3   OH272556   6.185   2.466  11.597 -0.4400  0.0941  0.1094
17022TIP3    H172557   6.276   2.441  11.610 -0.2634  1.0218  0.7651
17022TIP3    H272558   6.166   2.443  11.506  0.5254  0.1097 -0.1037
17023TIP3   OH272559   0.261   3.930  11.292 -0.4995  0.5222 -0.6173
17023TIP3    H172560   0.213   4.011  11.278 -1.0838  0.3694  0.4351
17023TIP3    H272561   0.347   3.946  11.253 -1.3151  0.8588 -2.3908
17024TIP3   OH272562   5.540   0.854  14.666  0.3874  1.0122 -0.1215
17024TIP3    H172563   5.463   0.837  14.611  0.2670  0.4112  0.2259
17024TIP3    H272564   5.528   0.798  14.742  1.8287 -0.1306 -0.6802
17025TIP3   OH272565   3.982   4.082   6.975  0.1851 -0.2363 -0.4850
17025TIP3    H172566   3.954   4.160   6.927 -0.9045 -0.2198  0.1161
17025TIP3    H272567   4.061   4.053   6.931  1.1035  1.6993 -0.2031
17026TIP3   OH272568   1.282   3.885   3.252 -0.0568  0.2096 -0.2252
17026TIP3    H172569   1.366   3.899   3.296 -0.9675 -2.4433  2.7143
17026TIP3    H272570   1.302   3.824   3.181  0.4052 -1.5512  1.3392
17027TIP3   OH272571   6.399   3.303  10.719  0.5264 -0.0580  0.1792
17027TIP3    H172572   6.315   3.287  10.762  0.8634 -0.0082  0.8820
17027TIP3    H272573   6.426   3.217  10.687  0.1225 -0.0415 -0.2151
17028TIP3   OH272574   4.651   6.570   1.182 -0.4023 -0.5331 -0.0552
17028TIP3    H172575   4.602   6.578   1.100  2.0587 -1.8414 -1.7687
17028TIP3    H272576   4.603   6.504   1.232 -1.1410 -0.8013 -1.0915
17029TIP3   OH272577   3.946   0.615  10.991  0.6554 -0.7171  0.7421
17029TIP3    H172578   3.916   0.671  11.062  1.2516  1.4597 -0.6444
17029TIP3    H272579   3.936   0.668  10.912 -0.5078 -3.2236 -0.9391
17030TIP3   OH272580   4.891   3.052  14.792 -0.2942  0.4842 -0.1349
17030TIP3    H172581   4.985   3.052  14.813 -0.4103  0.8267  0.3908
17030TIP3    H272582   4.880   2.978  14.733  0.1878  0.0063  0.3615
17031TIP3   OH272583   0.692   3.991   3.835 -0.0768  0.3073  0.0847
17031TIP3    H172584   0.714   3.980   3.743  0.2848  0.3767  0.1614
17031TIP3    H272585   0.694   4.086   3.849  3.0965  0.2407  0.9204
17032TIP3   OH272586   2.393   6.597   0.888 -0.1645 -0.6682 -0.2033
17032TIP3    H172587   2.405   6.653   0.811  0.6454  0.3134  0.6013
17032TIP3    H272588   2.354   6.654   0.954 -1.2008 -1.5975  0.0200
17033TIP3   OH272589   6.367   6.634   3.651  0.4790 -0.2670 -0.0618
17033TIP3    H172590   6.406   6.550   3.674  1.7534  0.3058 -0.0714
17033TIP3    H272591   6.303   6.650   3.720  0.9615 -0.7603  0.5119
17034TIP3   OH272592   4.682   0.999   3.227 -0.1228  0.5734 -0.3015
17034TIP3    H172593   4.658   1.058   3.155 -0.1832  0.0448 -0.7230
17034TIP3    H272594   4.734   1.053   3.286 -1.4315  1.4515  0.0844
17035TIP3   OH272595   4.243   3.181   0.549  0.2015 -0.6071  0.5527
17035TIP3    H172596   4.265   3.266   0.511  0.1335 -0.7670  0.1546
17035TIP3    H272597   4.178   3.144   0.490  0.2162 -0.9311  0.7344
17036TIP3   OH272598   4.995   6.428   4.693 -0.0969  0.1093  0.4129
17036TIP3    H172599   4.956   6.432   4.606 -0.2196  0.0100  0.4644
17036TIP3    H272600   5.037   6.342   4.697  0.2525  0.2720  0.3043
17037TIP3   OH272601   4.796   4.901  13.697  0.2207  0.3467  0.0324
17037TIP3    H172602   4.829   4.989  13.711  0.2889  0.3607 -0.2076
17037TIP3    H272603   4.748   4.906  13.614 -0.0339  0.2303  0.1734
17038TIP3   OH272604   0.536   4.984   2.462  0.9019 -0.4394 -0.1190
17038TIP3    H172605   0.477   4.936   2.404  2.5557 -0.8381 -1.5548
17038TIP3    H272606   0.490   4.986   2.546 -0.3970 -2.2165 -0.7174
17039TIP3   OH272607   6.713   4.338   5.812  0.0819 -0.2737 -0.1605
17039TIP3    H172608   6.695   4.432   5.813  0.6235 -0.1556  1.4164
17039TIP3    H272609   6.628   4.297   5.795 -0.6760  0.4551  1.5778
17040TIP3   OH272610   3.529   4.658   2.796 -0.1731 -0.0664  0.1761
17040TIP3    H172611   3.468   4.705   2.738  0.1041  0.1614  0.0614
17040TIP3    H272612   3.544   4.574   2.753 -0.3690 -0.1016  0.1793
17041TIP3   OH272613   3.105   2.735  16.399 -0.0898  0.1633  0.2197
17041TIP3    H172614   3.041   2.665  16.412 -1.2508  1.4615  1.9208
17041TIP3    H272615   3.093   2.793  16.474  3.2664  0.3522  0.7837
17042TIP3   OH272616   3.742   4.344  11.512  0.2684  0.2025 -0.3185
17042TIP3    H172617   3.748   4.349  11.417  0.1009 -1.0647 -0.4161
17042TIP3    H272618   3.809   4.280  11.536 -0.9752 -0.9255  0.2300
17043TIP3   OH272619   2.404   1.759   3.685 -0.5100 -0.1568 -0.2516
17043TIP3    H172620   2.433   1.758   3.594 -1.7395  1.2665 -0.6890
17043TIP3    H272621   2.310   1.777   3.681 -0.2690  1.9134  1.3529
17044TIP3   OH272622   2.436   2.694  11.911  0.3247  0.9131 -0.0354
17044TIP3    H172623   2.487   2.733  11.840  0.9780 -0.0320 -0.0949
17044TIP3    H272624   2.492   2.700  11.988  1.3492 -1.8022 -0.4844
17045TIP3   OH272625   0.700   2.229  15.336 -0.1252 -0.8850 -0.1809
17045TIP3    H172626   0.723   2.319  15.358  2.2577 -2.0317  2.6686
17045TIP3    H272627   0.610   2.219  15.367 -0.6252  0.6251 -1.0507
17046TIP3   OH272628   1.872   5.846   5.844 -0.1026 -0.2988 -0.4347
17046TIP3    H172629   1.911   5.933   5.842 -0.1899 -0.2330  0.4462
17046TIP3    H272630   1.938   5.789   5.805 -0.8245  0.4354 -2.8990
17047TIP3   OH272631   5.289   2.179   4.402  0.1231  0.0974 -0.6788
17047TIP3    H172632   5.254   2.116   4.465 -1.6301  0.5646 -1.1415
17047TIP3    H272633   5.352   2.128   4.350 -1.0466 -1.2167 -0.8670
17048TIP3   OH272634   6.464   0.487   1.051  0.0800 -0.0251 -0.0859
17048TIP3    H172635   6.382   0.465   1.006 -0.1355 -0.9416  0.7221
17048TIP3    H272636   6.518   0.527   0.983 -0.6063 -0.4713 -0.9213
17049TIP3   OH272637   5.705   4.453  17.071  0.0716  0.2526  0.2818
17049TIP3    H172638   5.791   4.494  17.079 -0.1885  0.7177  0.8211
17049TIP3    H272639   5.668   4.459  17.159 -0.3886 -0.2285  0.1286
17050TIP3   OH272640   2.262   2.922  11.675 -0.2995 -0.6274 -0.2193
17050TIP3    H172641   2.236   2.954  11.588  1.6242 -0.2698 -0.6955
17050TIP3    H272642   2.336   2.864  11.659 -0.1485 -0.8508  1.1581
17051TIP3   OH272643   4.228   6.828   2.083 -0.1210  0.4381 -0.5957
17051TIP3    H172644   4.280   6.806   2.160 -0.5719 -0.6100 -0.5716
17051TIP3    H272645   4.222   6.746   2.034 -2.1118  0.4216 -0.3882
17052TIP3   OH272646   3.439   6.054   1.480 -0.6523 -0.2137 -0.2371
17052TIP3    H172647   3.486   6.040   1.562 -0.2558  1.1440 -0.2099
17052TIP3    H272648   3.443   5.970   1.435  1.5205 -0.2337 -0.0878
17053TIP3   OH272649   3.242   2.401   2.233 -0.7154 -0.8699  0.4277
17053TIP3    H172650   3.323   2.433   2.194 -0.2799  0.1107  2.0444
17053TIP3    H272651   3.245   2.306   2.221  1.6935 -1.1192  2.2141
17054TIP3   OH272652   1.927   0.656  12.668  0.1745 -0.2049 -0.5579
17054TIP3    H172653   1.936   0.606  12.749 -0.7929  0.3348 -0.1034
17054TIP3    H272654   1.916   0.589  12.600  3.2564 -0.7886 -0.6418
17055TIP3   OH272655   0.364   6.122  15.329 -0.4598 -0.2656 -0.0029
17055TIP3    H172656   0.302   6.079  15.270 -0.7241 -0.2232  0.2464
17055TIP3    H272657   0.449   6.112  15.285 -0.2824 -2.2794  0.7248
17056TIP3   OH272658   6.252   3.995   0.553  0.1771  0.0792 -0.1701
17056TIP3    H172659   6.285   4.009   0.465 -0.5486 -0.7795 -0.5943
17056TIP3    H272660   6.174   3.940   0.542 -1.3644  1.9472  0.7968
17057TIP3   OH272661   0.546   3.975   6.312  0.3023 -0.7293  0.5385
17057TIP3    H172662   0.566   3.881   6.316  1.4662 -0.4608  1.3668
17057TIP3    H272663   0.631   4.017   6.304 -0.1910  0.2852  0.5540
17058TIP3   OH272664   2.678   4.339  16.090 -0.0574 -0.2096 -0.2139
17058TIP3    H172665   2.706   4.261  16.041  1.7295  0.0196  0.3805
17058TIP3    H272666   2.694   4.412  16.029  3.8931  0.2933  1.1191
17059TIP3   OH272667   1.330   6.065  16.504 -0.1280  1.1201  0.0463
17059TIP3    H172668   1.358   5.979  16.536 -0.7554  1.3377  1.2502
17059TIP3    H272669   1.265   6.094  16.567 -1.4679  1.5816 -1.4773
17060TIP3   OH272670   5.138   1.418   5.669 -0.1686  0.1535 -0.2369
17060TIP3    H172671   5.044   1.403   5.659 -0.5024  1.8146  0.1023
17060TIP3    H272672   5.179   1.349   5.617 -1.5844 -0.0990 -1.0699
17061TIP3   OH272673   2.503   3.493  11.607  0.8300  0.0457  0.3643
17061TIP3    H172674   2.422   3.488  11.556  0.7118 -0.2616  0.5825
17061TIP3    H272675   2.523   3.587  11.612  0.3046  0.1451  0.5983
17062TIP3   OH272676   2.836   6.013   4.409 -0.1259 -0.2498  0.1261
17062TIP3    H172677   2.822   6.020   4.503  0.3295  1.9324  0.0819
17062TIP3    H272678   2.924   6.047   4.395  0.1307 -1.2914 -1.0361
17063TIP3   OH272679   2.226   5.323   1.759 -0.0634  0.1061 -0.3044
17063TIP3    H172680   2.179   5.247   1.726 -1.7203  0.5099  1.0194
17063TIP3    H272681   2.211   5.391   1.693 -1.6810  0.3287  0.2500
17064TIP3   OH272682   6.581   5.346  13.138  0.6121  0.0892 -0.2576
17064TIP3    H172683   6.653   5.283  13.138  0.9509  0.3236  3.0831
17064TIP3    H272684   6.502   5.292  13.138  0.7472 -0.1837 -1.9363
17065TIP3   OH272685   4.570   5.294  10.704 -0.1656  0.0959 -0.2949
17065TIP3    H172686   4.489   5.299  10.653  1.0115  0.7572 -2.1675
17065TIP3    H272687   4.557   5.357  10.776 -0.8961  1.0097 -1.2025
17066TIP3   OH272688   1.573   2.770  13.475 -0.2518 -0.3578  0.0487
17066TIP3    H172689   1.643   2.708  13.490  0.0130  0.5987  3.8269
17066TIP3    H272690   1.503   2.743  13.535 -1.4238  1.1300 -0.5658
17067TIP3   OH272691   6.131   2.688   1.088  0.2776 -0.2269 -0.0289
17067TIP3    H172692   6.178   2.718   1.010  1.6391 -2.2565 -0.0488
17067TIP3    H272693   6.054   2.642   1.054 -1.0738  1.8539 -0.0194
17068TIP3   OH272694   4.070   0.577   1.683  0.1566 -0.1977  0.4864
17068TIP3    H172695   4.033   0.662   1.708  0.2315 -0.4184  1.3613
17068TIP3    H272696   4.045   0.518   1.753  2.4161 -0.2954  1.2828
17069TIP3   OH272697   3.977   1.815   0.461 -0.4560 -1.0509  0.1116
17069TIP3    H172698   4.038   1.820   0.534 -1.0635  0.8987  0.5568
17069TIP3    H272699   3.891   1.808   0.503 -0.7995 -0.0061 -0.3787
17070TIP3   OH272700   5.934   4.611  17.122 -0.0877 -0.2945 -0.3584
17070TIP3    H172701   5.897   4.588  17.208 -0.3131  1.9643  0.2191
17070TIP3    H272702   6.023   4.575  17.124 -0.2434 -0.6580  0.6613
17071TIP3   OH272703   2.681   3.455  11.112  0.4114 -0.3127  0.3572
17071TIP3    H172704   2.666   3.543  11.147  0.8031 -0.2574  0.3940
17071TIP3    H272705   2.616   3.445  11.043 -0.4791 -0.4860  1.2121
17072TIP3   OH272706   3.594   1.630  16.021 -0.3091 -0.0339 -0.0268
17072TIP3    H172707   3.627   1.604  16.107 -2.1532  0.1619  0.7903
17072TIP3    H272708   3.668   1.615  15.962  1.1295  0.1659  1.6223
17073TIP3   OH272709   3.164   0.381   3.973  0.0781 -0.2903  0.2829
17073TIP3    H172710   3.079   0.347   3.945 -0.2357 -1.0230  1.9971
17073TIP3    H272711   3.143   0.449   4.037  0.7495  2.0647 -1.8432
17074TIP3   OH272712   2.766   1.833   2.165 -0.4198  0.0589 -0.1023
17074TIP3    H172713   2.769   1.919   2.123 -0.5811  0.1194  0.0120
17074TIP3    H272714   2.859   1.811   2.180 -0.4067  0.6629  0.7790
17075TIP3   OH272715   0.428   2.541   5.424  0.0947  0.5032  0.3296
17075TIP3    H172716   0.509   2.524   5.377 -0.0094 -1.7456  0.8477
17075TIP3    H272717   0.362   2.551   5.355  0.7524  2.4248 -0.0956
17076TIP3   OH272718   1.224   5.959  15.820  0.6702 -0.0059  0.2609
17076TIP3    H172719   1.234   6.053  15.806 -1.7821  0.1517 -0.9865
17076TIP3    H272720   1.185   5.951  15.907 -2.2949  0.4765 -0.9019
17077TIP3   OH272721   0.693   0.138  14.841  0.1299 -0.1618  0.0905
17077TIP3    H172722   0.662   0.196  14.772 -1.4038 -0.2384  0.6702
17077TIP3    H272723   0.765   0.186  14.883 -0.7366  1.0925  0.2038
17078TIP3   OH272724   6.416   5.501  11.927  0.2310 -1.3590 -0.4731
17078TIP3    H172725   6.341   5.531  11.875  0.2145  0.5249  0.5587
17078TIP3    H272726   6.470   5.452  11.865  0.3147  0.9629 -2.3580
17079TIP3   OH272727   1.486   2.659   1.684  0.0727 -0.3036 -0.0969
17079TIP3    H172728   1.404   2.666   1.636 -1.2780 -1.7185  1.8457
17079TIP3    H272729   1.554   2.668   1.617 -1.6603 -0.5856 -1.9935
17080TIP3   OH272730   3.040   2.755  11.201 -0.1673  0.3214 -0.2867
17080TIP3    H172731   2.989   2.830  11.231 -1.6231 -0.6246 -0.2819
17080TIP3    H272732   2.979   2.705  11.147  1.0945 -0.3114 -1.1629
17081TIP3   OH272733   3.400   5.752   1.575  0.1196  0.3880 -0.1709
17081TIP3    H172734   3.320   5.752   1.629  1.2614 -0.6704  1.6301
17081TIP3    H272735   3.469   5.777   1.635  1.1140  1.8262 -1.8377
17082TIP3   OH272736   5.920   5.736   2.918  0.0831  0.3948 -0.3663
17082TIP3    H172737   5.977   5.666   2.887  1.4668  1.3797 -0.1597
17082TIP3    H272738   5.876   5.699   2.995  0.3517 -0.4219 -0.5930
17083TIP3   OH272739   4.615   4.127   6.444 -0.2177  0.6528  0.2543
17083TIP3    H172740   4.633   4.152   6.353  0.6879  1.4457  0.6365
17083TIP3    H272741   4.617   4.031   6.443 -0.0636  0.6555 -0.5376
17084TIP3   OH272742   6.446   6.217  13.362 -0.5714  0.3165 -0.0411
17084TIP3    H172743   6.473   6.214  13.270 -1.7217  0.0603 -0.3936
17084TIP3    H272744   6.527   6.228  13.411 -0.0002  1.2690 -1.1351
17085TIP3   OH272745   4.347   0.821  13.445 -0.4101  0.6035 -0.0241
17085TIP3    H172746   4.301   0.877  13.382 -1.4197 -1.2153 -1.0094
17085TIP3    H272747   4.316   0.732  13.425 -0.0410 -0.1699  2.4352
17086TIP3   OH272748   4.031   4.864   4.157 -0.6922 -0.1617 -0.1237
17086TIP3    H172749   3.999   4.809   4.229  0.1393  0.1411  0.5063
17086TIP3    H272750   4.025   4.809   4.080  0.8747 -1.4679  0.6162
17087TIP3   OH272751   2.845   2.686   2.296 -0.2710 -0.7792  0.0409
17087TIP3    H172752   2.833   2.750   2.227 -2.5757 -0.4793  0.6303
17087TIP3    H272753   2.888   2.612   2.254 -0.9327 -0.2990 -1.5328
17088TIP3   OH272754   5.883   1.116  14.045  0.3872  0.0024  0.2950
17088TIP3    H172755   5.880   1.143  13.953 -0.0624 -0.4380  0.1712
17088TIP3    H272756   5.850   1.026  14.044 -0.9519  0.4526  1.0623
17089TIP3   OH272757   1.352   4.128   4.991 -0.4298  0.4397 -0.6198
17089TIP3    H172758   1.393   4.177   4.920  0.3847  0.4244 -0.1760
17089TIP3    H272759   1.286   4.074   4.948  0.8452 -0.4548 -1.5312
17090TIP3   OH272760   5.398   1.532   1.881  0.3689  0.1369  0.0813
17090TIP3    H172761   5.477   1.572   1.918  0.0939  2.0583 -1.2477
17090TIP3    H272762   5.389   1.573   1.795 -0.1952 -2.5675 -1.2540
17091TIP3   OH272763   5.166   6.583  14.017 -0.6263  0.5887 -0.0932
17091TIP3    H172764   5.089   6.552  14.066  0.5133 -0.1033  1.3430
17091TIP3    H272765   5.196   6.660  14.066 -0.3483  0.8002 -0.5882
17092TIP3   OH272766   1.810   0.767   3.253  0.0460 -0.7289 -0.1030
17092TIP3    H172767   1.898   0.768   3.291  0.3880 -1.5390 -0.8279
17092TIP3    H272768   1.823   0.801   3.164 -0.6146  0.4597  0.2387
17093TIP3   OH272769   0.368   0.349   2.154 -0.4527 -0.0270 -0.1562
17093TIP3    H172770   0.428   0.294   2.205 -1.0566 -0.8244 -0.2748
17093TIP3    H272771   0.282   0.332   2.193 -0.9002 -0.5142 -1.3174
17094TIP3   OH272772   3.588   5.532   1.575  0.0659  0.1482 -0.1672
17094TIP3    H172773   3.510   5.477   1.583 -0.5155  0.1066 -4.0659
17094TIP3    H272774   3.565   5.596   1.508  2.5338  1.8493  0.4586
17095TIP3   OH272775   4.605   6.146  12.665  0.1138  0.6082 -0.3005
17095TIP3    H172776   4.687   6.104  12.692  1.0163  2.4632  0.0059
17095TIP3    H272777   4.614   6.157  12.570 -1.3616 -2.3486 -0.8887
17096TIP3   OH272778   5.784   6.382   5.105  0.5117 -0.0901 -0.3879
17096TIP3    H172779   5.768   6.371   5.199  0.4127 -0.9922 -0.4991
17096TIP3    H272780   5.838   6.306   5.082  0.7843  0.2882 -0.9989
17097TIP3   OH272781   1.161   5.184  16.140 -0.4865 -0.0970  0.5280
17097TIP3    H172782   1.207   5.259  16.103  0.4935 -1.2333 -0.6184
17097TIP3    H272783   1.225   5.142  16.197  0.2350 -2.0600 -1.5750
17098TIP3   OH272784   4.531   1.021   5.183  0.2527 -0.1286 -0.5491
17098TIP3    H172785   4.557   1.003   5.273  0.2348 -0.3687 -0.5911
17098TIP3    H272786   4.572   0.952   5.131  0.5493  0.2090 -0.7695
17099TIP3   OH272787   1.310   6.451   6.158  0.1863  0.2187  0.5400
17099TIP3    H172788   1.266   6.536   6.163 -1.4452 -0.6246  1.2662
17099TIP3    H272789   1.266   6.398   6.224  0.9500 -1.2998 -0.1378
17100TIP3   OH272790   4.670   6.564   3.474 -0.1843 -0.0387  0.0554
17100TIP3    H172791   4.589   6.615   3.462 -0.5554 -0.6955 -0.3125
17100TIP3    H272792   4.719   6.613   3.539 -0.7399  0.5449  0.0538
17101TIP3   OH272793   5.571   0.453  14.591 -0.2559 -0.0353 -0.3631
17101TIP3    H172794   5.628   0.507  14.645  0.7744  0.0564 -1.4976
17101TIP3    H272795   5.499   0.511  14.566  0.6873  0.7494 -1.3299
17102TIP3   OH272796   5.477   2.039   3.207  0.0504 -0.1071 -0.0157
17102TIP3    H172797   5.422   1.978   3.157  0.0407 -0.0479 -0.0774
17102TIP3    H272798   5.567   2.014   3.185  0.0665 -0.8162  0.8192
17103TIP3   OH272799   4.675   2.984   1.944  0.0645  0.1410  0.2001
17103TIP3    H172800   4.627   2.935   1.878  2.5720  1.1844 -2.6259
17103TIP3    H272801   4.607   3.027   1.997 -2.1640 -4.2503  1.3719
17104TIP3   OH272802   5.653   5.480  14.569  0.1726  0.1995 -0.1722
17104TIP3    H172803   5.588   5.424  14.611  2.1157 -1.1513  1.1894
17104TIP3    H272804   5.685   5.428  14.495  0.4389  0.4311 -0.2215
17105TIP3   OH272805   0.630   6.727  16.554  0.4677  0.4017 -0.0206
17105TIP3    H172806   0.571   6.677  16.610 -0.3134  0.7515 -0.5039
17105TIP3    H272807   0.716   6.715  16.593  0.3591 -1.5552 -0.2971
17106TIP3   OH272808   1.588   0.652  11.428  0.5424 -0.2369 -0.1357
17106TIP3    H172809   1.633   0.622  11.349  3.6563  2.7279  0.2353
17106TIP3    H272810   1.548   0.735  11.402 -1.4746 -0.9267  0.6018
17107TIP3   OH272811   5.730   2.705   4.917 -0.2823 -0.6080  0.1930
17107TIP3    H172812   5.642   2.735   4.939 -0.4147 -0.8828  0.0537
17107TIP3    H272813   5.788   2.776   4.945 -0.2881 -1.5405  2.8820
17108TIP3   OH272814   0.755   3.637  13.464  0.1323  0.7269  0.4141
17108TIP3    H172815   0.718   3.675  13.385 -1.8666 -1.5954  0.0987
17108TIP3    H272816   0.850   3.650  13.455 -0.0306  0.6579 -2.3064
17109TIP3   OH272817   4.679   4.211   2.497 -0.5367  0.1212  0.0798
17109TIP3    H172818   4.749   4.273   2.475 -1.4158  1.7227  1.5485
17109TIP3    H272819   4.648   4.179   2.412  0.7392  0.7982 -0.6725
17110TIP3   OH272820   3.312   6.309   0.360 -0.3821 -0.1485 -0.1181
17110TIP3    H172821   3.382   6.252   0.327 -0.7970 -0.6734 -0.0961
17110TIP3    H272822   3.292   6.276   0.447  1.0360  1.5225  0.9200
17111TIP3   OH272823   1.900   5.541   0.722  0.7044  0.7747 -0.0340
17111TIP3    H172824   1.893   5.613   0.659 -0.8362  0.5645 -0.1465
17111TIP3    H272825   1.900   5.462   0.667 -1.2586  0.5619  0.2037
17112TIP3   OH272826   4.266   2.271   0.898  0.4750 -0.2070  0.2767
17112TIP3    H172827   4.311   2.353   0.918  0.9874  0.1892 -2.1901
17112TIP3    H272828   4.188   2.298   0.850  1.1395 -1.1451 -1.4215
17113TIP3   OH272829   0.485   5.485  14.746 -0.3352  0.2031  0.2716
17113TIP3    H172830   0.421   5.543  14.704 -0.7815 -0.0499  0.5898
17113TIP3    H272831   0.471   5.400  14.704  0.3615  0.3322 -0.2383
17114TIP3   OH272832   4.623   5.321  15.512  0.5544  0.1029  0.0138
17114TIP3    H172833   4.688   5.328  15.583  0.0601 -0.8762  0.5865
17114TIP3    H272834   4.554   5.267  15.549 -0.1981  0.4295 -0.8876
17115TIP3   OH272835   6.071   5.650  13.182 -0.7326 -0.1379  0.8160
17115TIP3    H172836   6.085   5.734  13.139  1.6163  0.6733  2.8826
17115TIP3    H272837   6.125   5.589  13.132 -0.0858  0.2437  1.0268
17116TIP3   OH272838   2.931   2.796   1.539 -0.3597  0.1304  0.0349
17116TIP3    H172839   2.931   2.810   1.445 -1.4896 -0.7406 -0.1188
17116TIP3    H272840   3.024   2.789   1.563  0.0597  2.4692 -0.6414
17117TIP3   OH272841   3.562   5.036  11.703  0.0514 -0.1895  0.3305
17117TIP3    H172842   3.652   5.009  11.684  0.4481  1.7792 -0.8148
17117TIP3    H272843   3.571   5.100  11.773 -0.2084  1.5833 -1.2084
17118TIP3   OH272844   5.328   3.497   4.332  0.3961 -0.5496  0.0278
17118TIP3    H172845   5.369   3.578   4.362 -0.1761 -0.1232 -0.3333
17118TIP3    H272846   5.261   3.478   4.397  1.1635 -1.2606  0.6316
17119TIP3   OH272847   4.024   2.006  14.449  0.2314  0.0440  0.3472
17119TIP3    H172848   4.052   2.089  14.489  0.8808  1.0926 -2.0850
17119TIP3    H272849   4.089   1.942  14.479 -1.3388 -0.1492  3.8212
17120TIP3   OH272850   2.799   3.130  14.540  0.1651  0.3084  0.0251
17120TIP3    H172851   2.869   3.146  14.477 -1.1961  0.6863 -1.4641
17120TIP3    H272852   2.738   3.072  14.494 -0.5696  0.0617  1.2459
17121TIP3   OH272853   0.498   2.759  13.139 -0.1858 -0.5820  0.1846
17121TIP3    H172854   0.552   2.698  13.089 -1.3107 -1.5915  0.1674
17121TIP3    H272855   0.485   2.716  13.223  0.2459  0.3298  0.7477
17122TIP3   OH272856   6.768   2.694   6.066 -0.6313  0.0591 -0.1908
17122TIP3    H172857   6.768   2.601   6.087  0.9707  0.5057  2.0981
17122TIP3    H272858   6.720   2.735   6.138 -0.8028  1.0962 -0.8668
17123TIP3   OH272859   5.008   1.629  13.015 -0.6102  0.4041 -0.7607
17123TIP3    H172860   5.001   1.596  13.105  2.7693 -0.3927 -0.6567
17123TIP3    H272861   4.991   1.723  13.022  0.5802  0.5366  0.9326
17124TIP3   OH272862   4.920   6.211   2.072 -0.7968  0.3596  0.6437
17124TIP3    H172863   4.841   6.158   2.083 -0.7735  0.1594 -0.1315
17124TIP3    H272864   4.901   6.293   2.118 -1.3156  0.1757  0.7572
17125TIP3   OH272865   5.814   4.199  17.013  0.0011 -0.4515 -0.5051
17125TIP3    H172866   5.757   4.126  17.038 -1.1251  0.4601 -0.3287
17125TIP3    H272867   5.760   4.277  17.027  1.2489  0.4340 -0.4920
17126TIP3   OH272868   3.254   0.104  14.824 -0.1604 -0.4915 -0.0377
17126TIP3    H172869   3.333   0.109  14.771  0.3813  3.8452  0.8168
17126TIP3    H272870   3.281   0.056  14.902  0.7015 -1.7388 -1.0706
17127TIP3   OH272871   4.315   1.934  12.241 -0.1448 -0.2160  0.3488
17127TIP3    H172872   4.346   1.877  12.171 -0.0244  0.2546  0.0102
17127TIP3    H272873   4.362   1.905  12.318  0.5810  0.0023 -0.0054
17128TIP3   OH272874   3.264   3.515   5.113  0.0206  0.0411 -0.0168
17128TIP3    H172875   3.278   3.423   5.134 -2.9808 -0.7803 -1.2300
17128TIP3    H272876   3.323   3.532   5.039 -1.6684 -1.8754 -1.9127
17129TIP3   OH272877   1.838   5.148  15.100  0.4962  0.1671  0.0179
17129TIP3    H172878   1.795   5.100  15.029 -0.1331 -0.5657  0.8582
17129TIP3    H272879   1.824   5.240  15.078 -0.1415 -0.0487 -0.5457
17130TIP3   OH272880   0.494   6.368   1.409  0.3285  0.3111  0.0918
17130TIP3    H172881   0.491   6.434   1.339  1.5292 -0.0831 -0.3474
17130TIP3    H272882   0.566   6.311   1.385 -0.1370 -0.6565  0.9424
17131TIP3   OH272883   2.804   4.006   2.697 -0.1838 -0.5400  0.5620
17131TIP3    H172884   2.739   3.996   2.628  0.6995 -0.0819 -0.3512
17131TIP3    H272885   2.884   3.967   2.662  0.6236  0.8206  0.7952
17132TIP3   OH272886   2.186   4.903  11.125  0.3707 -0.0378 -0.0421
17132TIP3    H172887   2.091   4.902  11.142  0.3772 -0.1198 -0.0103
17132TIP3    H272888   2.193   4.899  11.030  0.3179  1.3873 -0.1241
17133TIP3   OH272889   0.184   3.580  11.371 -0.0634 -0.0533  0.1241
17133TIP3    H172890   0.169   3.671  11.396 -1.9928 -0.4061  0.4438
17133TIP3    H272891   0.130   3.529  11.432  0.5341 -1.3757 -0.4081
17134TIP3   OH272892   2.551   6.407   4.913  0.1231 -0.1502  0.5386
17134TIP3    H172893   2.598   6.479   4.954 -0.5954  0.3497  0.5124
17134TIP3    H272894   2.506   6.363   4.985  0.2313 -0.3173  0.5040
17135TIP3   OH272895   1.241   4.714  16.645 -0.1822 -0.3425 -0.0220
17135TIP3    H172896   1.272   4.652  16.580 -0.1373 -0.8267  0.4498
17135TIP3    H272897   1.303   4.706  16.717  0.3919  0.9680 -0.3500
17136TIP3   OH272898   3.239   0.655   1.902 -0.0941  0.1611 -0.0827
17136TIP3    H172899   3.243   0.658   1.998  0.6830  0.0504 -0.1097
17136TIP3    H272900   3.220   0.563   1.883  0.7783 -0.0234 -0.0678
17137TIP3   OH272901   3.815   0.969  14.582 -0.5544  0.0459 -0.0622
17137TIP3    H172902   3.767   0.996  14.504 -1.7358 -0.9037  0.2968
17137TIP3    H272903   3.835   0.876  14.568 -2.6930 -0.7581  1.6229
17138TIP3   OH272904   2.504   1.621  13.392 -0.2593 -0.5796  0.9404
17138TIP3    H172905   2.502   1.568  13.472 -3.4318 -0.9161  0.7532
17138TIP3    H272906   2.460   1.568  13.326 -0.5222  0.9571 -0.1849
17139TIP3   OH272907   2.415   4.729  11.183  0.6284  0.0553  0.2690
17139TIP3    H172908   2.491   4.786  11.176  1.7137 -1.5439 -3.1124
17139TIP3    H272909   2.340   4.787  11.168  1.5046  1.0482 -0.4243
17140TIP3   OH272910   6.734   6.627  15.475  0.0268 -0.3691 -0.0124
17140TIP3    H172911   6.726   6.599  15.566  2.2227 -1.0257  0.0508
17140TIP3    H272912   6.824   6.603  15.451 -0.9227 -1.5128 -2.8110
17141TIP3   OH272913   5.985   4.367   6.072  0.1642  0.0181  0.0731
17141TIP3    H172914   6.062   4.315   6.048 -0.5229 -1.2054  0.4015
17141TIP3    H272915   5.939   4.312   6.135 -0.4350  1.1928  0.6771
17142TIP3   OH272916   6.240   2.908  16.407 -0.1791 -0.8080  0.4917
17142TIP3    H172917   6.281   2.901  16.493 -0.4973 -2.5868  0.5300
17142TIP3    H272918   6.297   2.858  16.348 -0.2416 -0.0438 -0.2415
17143TIP3   OH272919   0.384   4.009  12.141 -0.4459  0.0271  0.2552
17143TIP3    H172920   0.368   4.035  12.051 -0.7360 -0.4257  0.1720
17143TIP3    H272921   0.343   3.923  12.149 -1.3812  0.5286  1.1116
17144TIP3   OH272922   3.485   5.020  13.725 -0.1020  0.0519 -0.9804
17144TIP3    H172923   3.513   5.097  13.677 -1.2244  0.4283 -1.0643
17144TIP3    H272924   3.391   5.033  13.739  0.3127  0.3937  2.1151
17145TIP3   OH272925   2.013   5.738   2.788 -0.4063  0.3273 -0.3941
17145TIP3    H172926   2.081   5.749   2.721 -0.4341 -1.0427 -0.6747
17145TIP3    H272927   1.987   5.647   2.781  1.5471 -0.7373  3.2768
17146TIP3   OH272928   4.160   2.050   5.717 -0.0186 -0.2315 -0.6855
17146TIP3    H172929   4.144   2.076   5.808 -1.9221  0.3267 -1.1298
17146TIP3    H272930   4.208   2.123   5.678  0.1907 -0.1693 -0.3102
17147TIP3   OH272931   4.027   1.142   5.189 -0.0986  0.7639  0.9514
17147TIP3    H172932   4.078   1.068   5.219 -0.2721 -0.7629 -2.1272
17147TIP3    H272933   3.938   1.108   5.179 -0.2327  1.3831 -0.3035
17148TIP3   OH272934   2.782   6.429  11.672  0.4738  0.1992 -0.1832
17148TIP3    H172935   2.704   6.411  11.619 -0.8839  0.6106  1.5786
17148TIP3    H272936   2.750   6.485  11.743  1.8663 -1.4774  1.8843
17149TIP3   OH272937   0.532   4.819  14.836  0.4674  0.1276  0.0354
17149TIP3    H172938   0.539   4.764  14.758  2.4630 -0.4743  0.5770
17149TIP3    H272939   0.596   4.888  14.822 -0.1624  0.8288  0.5325
17150TIP3   OH272940   4.613   6.103  11.237 -0.5182 -0.2462 -0.2873
17150TIP3    H172941   4.708   6.099  11.224 -0.5281 -1.2467 -0.1419
17150TIP3    H272942   4.592   6.196  11.231  1.1502  0.7195  4.4939
17151TIP3   OH272943   0.658   4.185  12.937 -0.3276  0.3607  0.3765
17151TIP3    H172944   0.605   4.236  12.877 -0.5045 -1.3550 -0.9862
17151TIP3    H272945   0.628   4.211  13.024 -2.1610  0.7173 -0.3291
17152TIP3   OH272946   3.435   3.912  16.588 -0.5313  0.8385 -0.0703
17152TIP3    H172947   3.491   3.921  16.664  0.3713  0.9305 -0.7299
17152TIP3    H272948   3.392   3.997  16.580 -0.3238  0.9610  0.0999
17153TIP3   OH272949   5.923   4.626   2.513 -0.1426 -0.5846  0.1338
17153TIP3    H172950   5.853   4.561   2.522 -0.2186 -0.6592 -0.9425
17153TIP3    H272951   5.912   4.682   2.590 -0.0815 -1.8219  1.0760
17154TIP3   OH272952   6.473   3.997   2.102  0.3852  0.2437  0.0630
17154TIP3    H172953   6.457   3.958   2.016  0.1327  0.0529  0.1947
17154TIP3    H272954   6.385   4.013   2.138  0.4696 -1.0960  0.9275
17155TIP3   OH272955   6.472   0.848  11.370 -0.0962  0.0024 -0.3584
17155TIP3    H172956   6.485   0.940  11.392  2.6725 -0.4770  0.4158
17155TIP3    H272957   6.470   0.847  11.274  0.3194  0.8349 -0.3875
17156TIP3   OH272958   0.049   0.742  13.757 -0.4759  0.0227  0.2959
17156TIP3    H172959  -0.001   0.667  13.789 -1.8156  0.6398 -0.2401
17156TIP3    H272960   0.119   0.754  13.821 -0.6611 -1.2395  0.7600
17157TIP3   OH272961   5.018   6.690   3.370 -0.4437 -0.6415 -0.7612
17157TIP3    H172962   5.026   6.594   3.365  0.3016 -0.5946 -0.6258
17157TIP3    H272963   4.978   6.706   3.456  2.9658 -0.7124  1.0470
17158TIP3   OH272964   0.540   3.243  11.160 -0.3074 -1.0055 -0.1437
17158TIP3    H172965   0.590   3.184  11.103  0.1461 -0.2769 -0.5092
17158TIP3    H272966   0.451   3.240  11.124  0.2618  0.5703 -1.8561
17159TIP3   OH272967   4.302   1.323   3.693  0.5595  0.4230  0.3287
17159TIP3    H172968   4.363   1.340   3.765  1.9193 -0.5035 -0.5616
17159TIP3    H272969   4.311   1.400   3.636  1.1489  0.1511  0.0449
17160TIP3   OH272970   5.682   0.348  12.477  0.3814  0.1417  0.0391
17160TIP3    H172971   5.723   0.326  12.393  1.6905  0.6874  0.5047
17160TIP3    H272972   5.594   0.310  12.472  1.5502 -2.8474 -0.2618
17161TIP3   OH272973   0.651   0.005  10.537  0.5675 -0.0442 -0.1528
17161TIP3    H172974   0.610  -0.022  10.619 -0.8510  0.0715 -0.7987
17161TIP3    H272975   0.579   0.012  10.475  1.4808  0.8457 -1.1595
17162TIP3   OH272976   6.046   2.395   5.426 -0.6402  0.0104 -0.0939
17162TIP3    H172977   6.099   2.327   5.468 -1.0330  0.0249  0.4361
17162TIP3    H272978   6.087   2.477   5.454 -1.5517  0.0586  1.1857
17163TIP3   OH272979   5.774   1.237  11.595 -0.0017  0.4256 -0.5335
17163TIP3    H172980   5.686   1.206  11.614  0.1451 -0.3510 -1.0663
17163TIP3    H272981   5.784   1.225  11.500  0.3936  1.2502 -0.6017
17164TIP3   OH272982   0.481   4.355   5.818  0.2750 -0.4491 -0.5218
17164TIP3    H172983   0.465   4.400   5.901 -2.1847 -0.9904 -0.6218
17164TIP3    H272984   0.537   4.281   5.841 -0.2233 -0.4812  0.6258
17165TIP3   OH272985   2.945   5.140   3.951  0.4034  0.2008  0.1218
17165TIP3    H172986   2.912   5.080   3.884  0.4500  1.2113 -0.8277
17165TIP3    H272987   2.877   5.207   3.959 -0.4879 -0.8710  2.4682
17166TIP3   OH272988   0.547   4.523   1.558  0.5619 -0.5385  0.2369
17166TIP3    H172989   0.611   4.575   1.509  2.7651 -2.2804  1.0984
17166TIP3    H272990   0.528   4.449   1.500  0.2968 -0.6820  0.5069
17167TIP3   OH272991   4.143   1.264   2.385  0.1900  0.4611 -0.3019
17167TIP3    H172992   4.111   1.354   2.386 -1.1060  0.0318  1.1119
17167TIP3    H272993   4.072   1.213   2.347  0.2236 -0.1771  0.4647
17168TIP3   OH272994   4.237   5.510  16.767 -0.0537  0.0029 -0.1396
17168TIP3    H172995   4.306   5.571  16.744 -0.6433 -0.1340 -2.5655
17168TIP3    H272996   4.263   5.474  16.852  1.6680  1.5945  0.0535
17169TIP3   OH272997   3.981   3.987   4.910  0.8562  0.1655 -0.0093
17169TIP3    H172998   3.992   3.949   4.997 -2.2626 -0.3113  0.2935
17169TIP3    H272999   3.910   3.937   4.870  0.7977  1.7117 -2.0226
17170TIP3   OH273000   3.131   1.911  14.283  0.7751 -0.6787 -0.0412
17170TIP3    H173001   3.223   1.902  14.257  0.6063  0.3346 -1.0453
17170TIP3    H273002   3.093   1.825  14.264  1.8389 -1.6237  1.8639
17171TIP3   OH273003   5.454   6.623   0.905  0.4243  0.2971  0.1087
17171TIP3    H173004   5.482   6.640   0.994  0.7579  0.6227 -0.0562
17171TIP3    H273005   5.383   6.559   0.913  0.5054  0.2721  0.5977
17172TIP3   OH273006   4.068   4.031   1.293 -0.0885  0.1293 -0.6108
17172TIP3    H173007   4.099   3.985   1.371  1.0685 -0.2225 -1.2667
17172TIP3    H273008   3.977   4.002   1.284 -0.0622 -0.2727  0.2805
17173TIP3   OH273009   3.726   3.952  11.937 -0.1242 -0.4252 -0.1738
17173TIP3    H173010   3.725   3.856  11.941  0.7977 -0.4596 -0.6550
17173TIP3    H273011   3.689   3.980  12.020 -0.6748 -1.2010 -0.1509
17174TIP3   OH273012   5.545   0.839  13.414 -0.5766 -0.1938  0.3204
17174TIP3    H173013   5.466   0.867  13.460  0.2394  1.2060  0.9272
17174TIP3    H273014   5.564   0.911  13.354  0.0539 -0.6650 -0.0524
17175TIP3   OH273015   4.107   3.817   4.454 -0.3976 -0.2658  0.2379
17175TIP3    H173016   4.140   3.829   4.365  0.3205 -0.2036  0.5089
17175TIP3    H273017   4.111   3.904   4.493 -0.7498 -0.2864  0.3190
17176TIP3   OH273018   4.379   4.657   2.199  0.0072 -0.1453  0.3552
17176TIP3    H173019   4.373   4.647   2.295  2.9324  1.2484  0.7602
17176TIP3    H273020   4.472   4.657   2.180 -0.4641  0.9604 -2.3930
17177TIP3   OH273021   1.026   0.623   5.231  0.5345 -0.2761 -0.3805
17177TIP3    H173022   1.082   0.700   5.220  0.4018 -0.0705  0.3094
17177TIP3    H273023   1.007   0.594   5.142  0.2368  0.7417 -0.6667
17178TIP3   OH273024   3.171   4.017  14.428 -0.1874 -0.7475 -0.4056
17178TIP3    H173025   3.216   3.943  14.468 -0.4455 -1.7270 -1.8256
17178TIP3    H273026   3.096   3.977  14.383 -0.3463  0.3795 -1.1642
17179TIP3   OH273027   5.784   0.120   4.664  0.5208  0.7276  0.0236
17179TIP3    H173028   5.752   0.058   4.730  0.6374 -0.3702 -0.9223
17179TIP3    H273029   5.708   0.177   4.646  0.8689  1.9075  2.0279
17180TIP3   OH273030   0.844   1.022  15.132  0.0033 -0.9343  0.1699
17180TIP3    H173031   0.819   1.057  15.047  0.5285 -2.2343 -0.5526
17180TIP3    H273032   0.766   1.031  15.186  0.3086  1.9389  0.2768
17181TIP3   OH273033   1.429   3.547   3.497 -0.4530  0.2306 -0.2894
17181TIP3    H173034   1.353   3.542   3.556 -0.0840  3.2358  0.6173
17181TIP3    H273035   1.397   3.593   3.420  0.2198  0.7157 -0.2897
17182TIP3   OH273036   2.991   6.374  16.277  0.7392  0.4970  0.4874
17182TIP3    H173037   2.951   6.317  16.342  1.3598  0.3165  0.7065
17182TIP3    H273038   3.056   6.319  16.233  0.7909  0.8081  0.1694
17183TIP3   OH273039   0.653   5.260  12.252  0.1057  0.0191  0.2279
17183TIP3    H173040   0.622   5.327  12.190  1.0550 -0.4406 -0.7819
17183TIP3    H273041   0.745   5.281  12.266  0.2617 -0.7316  0.3616
17184TIP3   OH273042   5.151   0.757  11.028 -0.1490  0.2808 -0.4510
17184TIP3    H173043   5.208   0.753  10.951  0.5632  1.6956 -0.0272
17184TIP3    H273044   5.159   0.847  11.060 -0.8286 -0.1347  0.9922
17185TIP3   OH273045   2.901   0.704  12.026 -0.7650 -0.1703  0.5274
17185TIP3    H173046   2.972   0.708  11.961 -1.1340 -0.9138  0.0668
17185TIP3    H273047   2.928   0.766  12.094 -1.0310  1.7196 -0.9954
17186TIP3   OH273048   0.145   4.646   2.869 -0.0671 -0.2420 -0.3531
17186TIP3    H173049   0.147   4.563   2.918 -2.6564 -1.2272 -1.7692
17186TIP3    H273050   0.156   4.621   2.778 -0.9025  0.9734 -0.8154
17187TIP3   OH273051   2.617   6.301  13.098  0.4672 -0.2424 -0.2816
17187TIP3    H173052   2.696   6.302  13.045  0.5830  0.5385 -0.1031
17187TIP3    H273053   2.554   6.352  13.048  0.7811  1.0722  0.6213
17188TIP3   OH273054   1.503   3.438   4.013  0.2773 -0.2630 -0.5133
17188TIP3    H173055   1.413   3.416   4.035  0.2078 -1.0263 -1.5034
17188TIP3    H273056   1.554   3.360   4.035  0.8362  0.4255  0.7575
17189TIP3   OH273057   1.048   0.473  11.634 -0.0596 -1.0412  0.0756
17189TIP3    H173058   1.062   0.511  11.547  1.0331  1.8399  1.4087
17189TIP3    H273059   0.953   0.464  11.641 -0.2576  0.0802 -0.8873
17190TIP3   OH273060   4.224   4.927  12.958 -0.1432  0.2649 -0.0609
17190TIP3    H173061   4.260   4.946  12.871 -1.7204  1.5526 -0.4751
17190TIP3    H273062   4.246   5.004  13.010  1.4186 -0.8005  0.9384
17191TIP3   OH273063   2.630   2.722  10.787 -0.3281  0.2449 -0.3679
17191TIP3    H173064   2.555   2.702  10.842 -0.9723  1.1957 -0.8714
17191TIP3    H273065   2.652   2.639  10.745 -2.0577  0.2490 -1.3591
17192TIP3   OH273066   1.128   1.453  11.819 -0.0849 -0.2716  0.4015
17192TIP3    H173067   1.184   1.392  11.867 -1.1431  0.0284  2.1216
17192TIP3    H273068   1.128   1.532  11.873  1.3693  1.3809 -1.8363
17193TIP3   OH273069   5.679   5.659  13.760  0.4962 -0.6653 -0.2020
17193TIP3    H173070   5.614   5.632  13.825 -0.5087  1.0863 -0.4012
17193TIP3    H273071   5.648   5.745  13.730  0.9191 -1.3953 -3.0011
17194TIP3   OH273072   3.514   5.982   3.148  0.4372 -0.2384 -0.0060
17194TIP3    H173073   3.434   6.033   3.140  0.2655 -0.6186 -0.9252
17194TIP3    H273074   3.585   6.047   3.142  0.2529 -0.1719 -2.3833
17195TIP3   OH273075   4.379   0.010  13.091 -0.1699  0.0556 -0.1073
17195TIP3    H173076   4.382  -0.076  13.050 -1.2194 -0.3287  0.5921
17195TIP3    H273077   4.381   0.072  13.018 -2.1672 -0.6044 -0.7801
17196TIP3   OH273078   1.907   0.087   0.936  0.6428  0.1168 -0.1337
17196TIP3    H173079   1.813   0.079   0.917  0.8637 -0.9282 -0.8856
17196TIP3    H273080   1.948   0.023   0.878  1.7273 -0.2667  1.0350
17197TIP3   OH273081   5.197   3.924  12.516  0.1685 -0.0956  0.0537
17197TIP3    H173082   5.267   3.970  12.469 -1.3645 -0.8083 -3.2038
17197TIP3    H273083   5.121   3.981  12.509 -0.0289 -0.0382  2.1590
17198TIP3   OH273084   1.975   4.945   3.153  0.5581  0.0174 -0.4089
17198TIP3    H173085   1.886   4.936   3.188 -0.0947  1.5694 -1.5597
17198TIP3    H273086   1.966   5.006   3.080  2.7266  0.9099 -0.0031
17199TIP3   OH273087   4.908   5.246   3.555  0.4904  0.2086  0.1979
17199TIP3    H173088   4.982   5.289   3.599 -0.7970  0.5291  2.1948
17199TIP3    H273089   4.834   5.263   3.612 -1.5698  1.4160 -2.6003
17200TIP3   OH273090   2.875   4.807   1.864 -0.1343 -0.0033  0.0812
17200TIP3    H173091   2.791   4.852   1.856 -1.2681 -1.9481  0.3994
17200TIP3    H273092   2.893   4.773   1.776  0.3774  0.4843 -0.0080
17201TIP3   OH273093   1.267   5.677   0.047  0.3584 -0.1012 -0.3347
17201TIP3    H173094   1.353   5.694   0.085  0.9386 -2.3105 -0.4868
17201TIP3    H273095   1.286   5.640  -0.039 -0.6711 -1.6683  0.0652
17202TIP3   OH273096   0.593   2.405  16.783  0.7842 -0.2787 -0.1490
17202TIP3    H173097   0.628   2.322  16.813  0.7345  0.2993  1.5953
17202TIP3    H273098   0.520   2.381  16.725  0.6442 -1.4442  0.4890
17203TIP3   OH273099   2.106   6.286   2.273  0.2877  0.5902 -0.2913
17203TIP3    H173100   2.112   6.198   2.311 -1.9291  0.5254  0.0278
17203TIP3    H273101   2.139   6.276   2.184  1.1898 -0.2768  0.1189
17204TIP3   OH273102   0.140   1.176  11.808  0.1534 -0.2921 -0.0999
17204TIP3    H173103   0.189   1.209  11.883 -0.4615 -0.6319  0.4635
17204TIP3    H273104   0.168   1.085  11.799 -0.2727 -0.4442  0.1317
17205TIP3   OH273105   6.605   5.634   1.336 -0.0110  0.4927  0.3515
17205TIP3    H173106   6.579   5.648   1.245  0.8515  0.2927  0.0597
17205TIP3    H273107   6.686   5.583   1.330 -1.6346 -2.4256  1.3101
17206TIP3   OH273108   4.222   0.496  16.026  0.2687  0.7666 -0.5092
17206TIP3    H173109   4.148   0.556  16.023  0.0815  0.5522 -3.9676
17206TIP3    H273110   4.216   0.454  16.112 -1.8131  2.9057  0.4851
17207TIP3   OH273111   6.578   0.993   5.283 -0.5927  0.2575  0.2798
17207TIP3    H173112   6.528   1.075   5.278  1.5013  1.8442  2.8601
17207TIP3    H273113   6.669   1.019   5.269 -0.0124 -1.8628 -0.1777
17208TIP3   OH273114   4.582   6.511  15.292 -0.3357  0.0718  0.0800
17208TIP3    H173115   4.497   6.500  15.335 -0.3139  2.0550  0.7576
17208TIP3    H273116   4.607   6.601  15.312  1.7121 -0.3070 -0.5264
17209TIP3   OH273117   5.966   3.347   1.645  0.1423  0.3576  0.2911
17209TIP3    H173118   5.934   3.258   1.660  0.1233  0.5548  1.5516
17209TIP3    H273119   5.886   3.399   1.633  0.1691 -0.2274 -3.6140
17210TIP3   OH273120   1.665   6.255  11.253 -0.2069  0.0252  0.3229
17210TIP3    H173121   1.606   6.304  11.197  1.4856 -1.2673 -2.8182
17210TIP3    H273122   1.607   6.202  11.309 -2.0397 -0.1442 -1.6275
17211TIP3   OH273123   1.566   1.407  12.373 -0.0757 -0.1249  0.3208
17211TIP3    H173124   1.598   1.385  12.460  0.2586  1.9818  0.7807
17211TIP3    H273125   1.558   1.503  12.373 -1.5310 -0.1758 -1.4580
17212TIP3   OH273126   0.743   1.667   5.369 -0.0518 -0.1160 -0.5538
17212TIP3    H173127   0.684   1.739   5.392  1.6136  1.0213  0.4165
17212TIP3    H273128   0.778   1.690   5.283 -2.0069 -1.5163 -1.8108
17213TIP3   OH273129   2.347   4.099   4.482  0.7517 -0.1755  0.0753
17213TIP3    H173130   2.287   4.170   4.461  0.7616 -0.4728 -1.0579
17213TIP3    H273131   2.315   4.062   4.564 -1.1890 -0.9216 -0.9618
17214TIP3   OH273132   6.215   2.317  10.837  0.8131  0.6760  0.3883
17214TIP3    H173133   6.263   2.337  10.757  2.6805 -0.4880  1.1567
17214TIP3    H273134   6.186   2.226  10.826  1.3820  0.3904  1.1505
17215TIP3   OH273135   1.315   5.346   2.577  0.2103 -0.5586 -0.0255
17215TIP3    H173136   1.278   5.345   2.489  0.2849  1.4852 -0.1251
17215TIP3    H273137   1.257   5.289   2.628 -1.2287  0.0957 -0.8693
17216TIP3   OH273138   3.813   6.624   5.127 -0.3322 -0.7150  0.3717
17216TIP3    H173139   3.725   6.606   5.158 -1.3318  0.7090 -1.3849
17216TIP3    H273140   3.848   6.688   5.189 -1.3054  0.1701  0.0323
17217TIP3   OH273141   3.430   1.583  12.915  0.0829  0.0288 -0.3351
17217TIP3    H173142   3.505   1.614  12.865  1.1395 -1.0937  0.4814
17217TIP3    H273143   3.447   1.490  12.929 -0.7665  0.0511  1.0750
17218TIP3   OH273144   1.612   4.182  15.483 -0.4501 -0.2616 -0.1635
17218TIP3    H173145   1.575   4.108  15.434  0.6762 -0.0033 -1.4809
17218TIP3    H273146   1.556   4.256  15.460 -0.0254 -0.1774 -0.9721
17219TIP3   OH273147   0.220   3.278   4.291 -0.1997  0.4479  0.2818
17219TIP3    H173148   0.174   3.359   4.269 -1.9337 -0.6802 -0.5041
17219TIP3    H273149   0.255   3.293   4.379  0.0759  2.2516 -0.0900
17220TIP3   OH273150   6.249   3.205  16.534  0.2189 -0.4844 -0.2427
17220TIP3    H173151   6.339   3.173  16.542  0.5328  0.8696  3.1748
17220TIP3    H273152   6.254   3.297  16.560 -2.3147 -0.7737  1.6485
17221TIP3   OH273153   5.620   6.199   4.813  0.0834  0.1937 -0.3195
17221TIP3    H173154   5.598   6.226   4.902 -1.5193  3.9417 -1.6725
17221TIP3    H273155   5.536   6.194   4.767  1.0107  0.5992 -2.1756
17222TIP3   OH273156   2.941   1.322   2.624 -0.3871 -0.2465  0.8141
17222TIP3    H173157   3.011   1.329   2.559 -1.1030 -0.0062  0.0372
17222TIP3    H273158   2.980   1.276   2.698  0.5467 -0.2237  0.3469
17223TIP3   OH273159   5.855   0.192  16.588 -0.3515 -0.6285 -0.2185
17223TIP3    H173160   5.857   0.225  16.498 -2.1481 -0.6085 -0.2706
17223TIP3    H273161   5.773   0.225  16.624 -0.2448 -1.6844  1.0388
17224TIP3   OH273162   6.280   0.756   1.806 -0.3158  0.7014  0.4916
17224TIP3    H173163   6.256   0.816   1.735 -0.0935  0.2906  0.0661
17224TIP3    H273164   6.365   0.788   1.837  0.0169  0.3501 -0.0352
17225TIP3   OH273165   2.663   0.073  15.185  0.2411 -0.2669 -0.7943
17225TIP3    H173166   2.661  -0.010  15.232 -0.1659  0.7162  1.0348
17225TIP3    H273167   2.756   0.087  15.164  0.1861 -1.6875 -2.1587
17226TIP3   OH273168   1.288   2.018  14.868 -0.2848 -0.4404  0.1141
17226TIP3    H173169   1.298   1.931  14.906 -0.6276 -0.4756  0.1288
17226TIP3    H273170   1.365   2.066  14.896 -0.3779 -0.5666  0.5907
17227TIP3   OH273171   2.279   5.852  11.892 -0.0084  0.4757  0.2878
17227TIP3    H173172   2.225   5.775  11.874 -0.3806  0.7165  0.3787
17227TIP3    H273173   2.359   5.837  11.841  0.3354 -0.4344  1.0574
17228TIP3   OH273174   0.202   3.263  14.400  0.5409 -0.1046  0.3034
17228TIP3    H173175   0.212   3.168  14.393  1.6381 -0.3733  3.7619
17228TIP3    H273176   0.258   3.288  14.473  0.8563  3.3738 -0.9457
17229TIP3   OH273177   2.058   4.915   5.159  0.2847 -0.1115  0.0838
17229TIP3    H173178   2.042   4.955   5.244 -0.2616 -0.4617  0.1467
17229TIP3    H273179   2.144   4.875   5.167  0.5300  0.4332  0.2486
17230TIP3   OH273180   0.361   1.110   0.917 -0.1982  0.1678 -0.0474
17230TIP3    H173181   0.297   1.052   0.958 -0.2846 -0.7767 -1.4519
17230TIP3    H273182   0.430   1.120   0.983 -1.3949  0.5979  1.2061
17231TIP3   OH273183   6.797   4.865  16.819  0.0671 -0.1978  0.6531
17231TIP3    H173184   6.855   4.941  16.812 -0.3128 -0.0007 -0.8193
17231TIP3    H273185   6.809   4.818  16.736 -0.9261 -0.8317  0.8433
17232TIP3   OH273186   3.042   2.967  16.645 -0.0127  0.2275 -0.4852
17232TIP3    H173187   3.110   3.018  16.687  0.8082  0.6880 -2.2794
17232TIP3    H273188   3.026   2.894  16.705  2.3277 -0.0992 -0.1687
17233TIP3   OH273189   0.930   3.980   0.804 -0.5415  0.0093 -0.2169
17233TIP3    H173190   0.968   4.065   0.781 -0.0777 -0.2425 -0.4023
17233TIP3    H273191   0.864   4.000   0.869 -1.3528  0.6669 -1.2055
17234TIP3   OH273192   0.730   4.895  11.831  0.5142 -0.1211 -0.1141
17234TIP3    H173193   0.713   4.855  11.916 -1.3237  0.7908  0.0104
17234TIP3    H273194   0.701   4.829  11.767  0.7867 -0.3482 -0.0030
17235TIP3   OH273195   3.759   0.616   4.211  0.0692 -0.1507  0.2447
17235TIP3    H173196   3.664   0.618   4.203  0.0244 -0.2567  0.7391
17235TIP3    H273197   3.782   0.524   4.199 -0.1251 -0.5694  2.5859
17236TIP3   OH273198   2.485   3.073   4.105  0.1732  0.3336  0.5363
17236TIP3    H173199   2.482   2.984   4.140  0.7510  0.4507  0.8960
17236TIP3    H273200   2.572   3.106   4.130 -0.5970  1.5434  1.7387
17237TIP3   OH273201   3.527   4.699   4.349  0.3893  0.4403 -0.3149
17237TIP3    H173202   3.500   4.767   4.287  0.3024  0.2139 -0.5281
17237TIP3    H273203   3.613   4.671   4.316  0.9914  1.3109  0.4841
17238TIP3   OH273204   3.343   3.876  12.167 -0.1269  0.5651  0.4943
17238TIP3    H173205   3.262   3.849  12.123  0.3240  0.0518 -0.0452
17238TIP3    H273206   3.394   3.919  12.098  1.0441 -1.1958  0.2072
17239TIP3   OH273207   0.206   1.592  16.644  0.5557 -0.3457  0.1252
17239TIP3    H173208   0.118   1.615  16.614  0.9496 -0.5738 -1.2488
17239TIP3    H273209   0.261   1.666  16.617  1.3328 -1.5772 -1.8723
17240TIP3   OH273210   5.618   4.802   1.921  0.0012  0.0210 -0.8703
17240TIP3    H173211   5.650   4.729   1.868  0.4798 -1.2232  1.0147
17240TIP3    H273212   5.537   4.769   1.961  1.5565 -0.5706  2.0638
17241TIP3   OH273213   2.008   5.184   3.567  0.0554  0.1118 -0.1541
17241TIP3    H173214   2.098   5.213   3.581  0.3608 -0.4397 -0.9183
17241TIP3    H273215   2.001   5.103   3.616  0.6237 -0.9406 -1.7293
17242TIP3   OH273216   4.110   5.943  14.205  0.4407 -0.1499  0.2564
17242TIP3    H173217   4.126   5.883  14.132  1.2656 -0.0995  0.3918
17242TIP3    H273218   4.104   5.887  14.282 -1.2773 -0.2899  0.0613
17243TIP3   OH273219   5.864   5.915  16.140  0.1822 -0.1482  0.1312
17243TIP3    H173220   5.939   5.956  16.099  1.1698 -0.8673  1.1494
17243TIP3    H273221   5.892   5.825  16.158 -1.5425 -0.9854 -1.0744
17244TIP3   OH273222   5.139   1.095  13.002 -0.0352  0.6855  0.1320
17244TIP3    H173223   5.111   1.163  13.064 -0.0320 -1.5380  2.7268
17244TIP3    H273224   5.213   1.052  13.045  0.4031 -0.5619 -1.7503
17245TIP3   OH273225   0.670   4.265  12.109  0.0862 -0.0341 -0.4915
17245TIP3    H173226   0.595   4.319  12.134  0.5690  0.2770  0.3214
17245TIP3    H273227   0.641   4.219  12.030 -0.7224  0.5762 -0.5637
17246TIP3   OH273228   1.891   4.258  13.011  0.3572  0.3355 -0.2325
17246TIP3    H173229   1.885   4.338  13.064 -0.0245 -0.3366  0.7747
17246TIP3    H273230   1.920   4.288  12.925 -0.2089  1.6122 -0.0032
17247TIP3   OH273231   2.817   2.429  16.730 -0.4974  0.3757  0.0694
17247TIP3    H173232   2.895   2.398  16.683  0.6701  1.2496  1.3350
17247TIP3    H273233   2.801   2.362  16.796 -0.2925  0.6019  0.3518
17248TIP3   OH273234   0.783   4.115  14.918  0.3095 -0.5356  0.1751
17248TIP3    H173235   0.875   4.090  14.928  0.2737 -0.4755  0.6682
17248TIP3    H273236   0.734   4.042  14.954  0.2085  0.3773  1.9911
17249TIP3   OH273237   5.056   6.795   4.016  0.1330  0.3996 -0.0468
17249TIP3    H173238   4.975   6.769   4.060  1.3302 -1.1199  1.3638
17249TIP3    H273239   5.101   6.713   3.997  2.1354  1.2488  0.7429
17250TIP3   OH273240   1.521   5.950  13.777  0.2659  0.0095  0.4286
17250TIP3    H173241   1.531   5.877  13.838 -1.4534 -0.8670 -0.2701
17250TIP3    H273242   1.553   6.027  13.825  0.4586 -0.9133  1.8253
17251TIP3   OH273243   4.916   5.518   5.235 -0.5445  0.2304  0.4609
17251TIP3    H173244   4.843   5.491   5.179  0.4494  1.6250 -1.6211
17251TIP3    H273245   4.874   5.563   5.308 -1.8203 -0.1560  0.0006
17252TIP3   OH273246   5.399   2.564  12.847 -0.4957 -0.4831 -0.2442
17252TIP3    H173247   5.416   2.493  12.909  1.7007  0.5660  0.4805
17252TIP3    H273248   5.478   2.568  12.794 -1.1277  0.5853 -1.1395
17253TIP3   OH273249   3.830   1.279  16.330  0.9066 -0.0712  0.1401
17253TIP3    H173250   3.845   1.229  16.410  1.5225 -0.5547 -0.2642
17253TIP3    H273251   3.918   1.295  16.296  0.6111 -1.9514 -1.6934
17254TIP3   OH273252   6.576   3.318   4.610 -0.3022  0.6027 -0.0268
17254TIP3    H173253   6.536   3.232   4.602 -0.1918  0.3727  1.4451
17254TIP3    H273254   6.505   3.380   4.593 -0.2662  0.2355 -1.5708
17255TIP3   OH273255   6.239   4.795  16.928  0.3928  0.6095 -0.0128
17255TIP3    H173256   6.333   4.801  16.910  0.1421 -0.0062 -1.6939
17255TIP3    H273257   6.232   4.728  16.996  1.2913  2.0822  1.6161
17256TIP3   OH273258   3.482   2.038   3.212 -0.3865 -0.5812 -0.2937
17256TIP3    H173259   3.478   2.085   3.295  0.8760 -1.0174  0.0365
17256TIP3    H273260   3.469   1.946   3.237 -0.1106 -0.7013 -0.5948
17257TIP3   OH273261   2.321   4.220  12.997 -0.3277  0.3006  0.6011
17257TIP3    H173262   2.414   4.226  12.977 -0.0064 -1.8762  1.1431
17257TIP3    H273263   2.307   4.284  13.066  0.5009  1.4543 -0.2655
17258TIP3   OH273264   4.873   0.196  16.470 -0.1092 -0.0234  0.2075
17258TIP3    H173265   4.841   0.167  16.555  1.7014 -1.8366  0.3684
17258TIP3    H273266   4.949   0.251  16.490 -1.5650  2.2336 -0.2082
17259TIP3   OH273267   3.828   1.133   5.957  0.0718  0.1012  0.5939
17259TIP3    H173268   3.745   1.114   5.999  0.4328 -0.7395  0.9447
17259TIP3    H273269   3.868   1.047   5.941  0.2403  0.4175 -0.8702
17260TIP3   OH273270   4.341   1.729   4.919 -0.4066  0.0245 -0.5687
17260TIP3    H173271   4.308   1.746   4.830  0.9357  1.6865 -0.8064
17260TIP3    H273272   4.436   1.739   4.911 -0.2401 -0.1014  1.0151
17261TIP3   OH273273   0.151   5.629   5.265  0.4954  0.2711  0.7995
17261TIP3    H173274   0.183   5.664   5.348  1.7891 -0.4259  0.6224
17261TIP3    H273275   0.223   5.643   5.203  0.5778 -1.4797  0.4249
17262TIP3   OH273276   5.742   5.591   3.418 -0.3159 -0.1393 -0.5455
17262TIP3    H173277   5.811   5.526   3.411  0.3344 -0.0392  3.1294
17262TIP3    H273278   5.786   5.674   3.401  0.8483  0.0097  2.5143
17263TIP3   OH273279   1.536   1.283  14.033  1.1234  0.6642 -0.0181
17263TIP3    H173280   1.543   1.198  14.075 -0.3425 -0.0032 -1.0412
17263TIP3    H273281   1.627   1.313  14.022  1.6123 -0.3358  1.1709
17264TIP3   OH273282   5.264   0.351   3.840 -0.2683 -0.0723 -0.0493
17264TIP3    H173283   5.312   0.270   3.826  0.8943  0.7699 -1.3207
17264TIP3    H273284   5.181   0.324   3.878 -0.4003 -1.9560 -1.5388
17265TIP3   OH273285   0.614   4.407  17.050 -0.1139 -0.0277  0.2717
17265TIP3    H173286   0.544   4.471  17.039  0.0529  0.1932  0.4666
17265TIP3    H273287   0.653   4.429  17.135 -0.8729 -1.1853  0.9391
17266TIP3   OH273288   1.035   1.049  11.916  0.7113  0.7079  0.4197
17266TIP3    H173289   1.088   1.124  11.944  1.5343  0.6663 -0.9293
17266TIP3    H273290   1.039   1.051  11.820 -0.1940 -0.4093  0.3297
17267TIP3   OH273291   6.205   1.677   5.949 -0.0872 -0.2050  0.2794
17267TIP3    H173292   6.233   1.765   5.973 -1.3847 -0.0816  1.4604
17267TIP3    H273293   6.266   1.619   5.994  0.7748  0.0581 -0.5050
17268TIP3   OH273294   2.824   6.006   4.691  0.1334 -0.2676  0.4256
17268TIP3    H173295   2.799   5.924   4.734 -2.5460 -0.8280 -1.9005
17268TIP3    H273296   2.767   6.072   4.731 -1.2524 -0.5128 -1.0484
17269TIP3   OH273297   6.288   3.536   2.602  0.1874 -0.0145  0.2857
17269TIP3    H173298   6.380   3.513   2.615  0.8212  0.3749 -2.8663
17269TIP3    H273299   6.245   3.453   2.581  0.5500  0.2417 -1.5994
17270TIP3   OH273300   5.692   1.979  16.390  0.3718  0.1366  0.3315
17270TIP3    H173301   5.621   2.030  16.351 -0.1909  0.0609  1.2334
17270TIP3    H273302   5.683   1.892  16.351 -2.1766 -0.8970  2.8270
17271TIP3   OH273303   0.576   3.821  12.948 -0.0004 -0.0006 -0.2151
17271TIP3    H173304   0.666   3.839  12.921  0.5418 -1.1950  0.7222
17271TIP3    H273305   0.584   3.761  13.022 -1.5335  0.9168  0.7494
17272TIP3   OH273306   3.063   2.531  14.481 -0.2575 -0.0343  0.0113
17272TIP3    H173307   3.001   2.459  14.473 -2.5152  1.7850  0.1873
17272TIP3    H273308   3.013   2.609  14.456  1.5508  1.7313  1.5335
17273TIP3   OH273309   4.504   6.643   2.089 -0.9443  0.7600  0.0742
17273TIP3    H173310   4.570   6.710   2.072 -0.2404 -0.1001 -0.6984
17273TIP3    H273311   4.545   6.585   2.153 -1.6105  1.1283  0.8553
17274TIP3   OH273312   5.438   6.293  12.973 -0.0697 -0.4011 -0.4498
17274TIP3    H173313   5.455   6.199  12.980  0.7677 -0.2165 -0.0077
17274TIP3    H273314   5.516   6.329  12.932 -1.1515 -0.1499 -2.4507
17275TIP3   OH273315   5.842   0.398  15.529 -0.2660  0.5355 -0.4327
17275TIP3    H173316   5.833   0.363  15.440 -0.3148  1.6826 -0.8968
17275TIP3    H273317   5.934   0.425  15.535  1.0088 -3.4294  1.3839
17276TIP3   OH273318   3.575   0.995   6.778  0.0217  0.3654  0.0962
17276TIP3    H173319   3.663   1.033   6.783 -0.4610  1.4730  0.5279
17276TIP3    H273320   3.545   1.016   6.690 -0.0321  0.4893  0.1443
17277TIP3   OH273321   6.415   4.585  12.228  0.4311  0.4103 -0.3042
17277TIP3    H173322   6.501   4.592  12.270 -0.4265 -2.3699  2.1867
17277TIP3    H273323   6.376   4.672  12.240  1.6931  0.8116  1.2780
17278TIP3   OH273324   2.772   1.864  12.019 -0.1474  0.6556 -0.2549
17278TIP3    H173325   2.793   1.792  12.079  0.5115  0.2436 -0.9697
17278TIP3    H273326   2.857   1.900  11.993 -0.4195  0.7934 -0.9808
17279TIP3   OH273327   5.173   4.226   1.407  0.7155  0.3269 -0.4160
17279TIP3    H173328   5.190   4.253   1.317 -0.6233  0.6822 -0.5793
17279TIP3    H273329   5.201   4.134   1.410  1.8152  0.6412 -0.8751
17280TIP3   OH273330   1.083   5.440  15.777  0.0589 -0.2906  0.1579
17280TIP3    H173331   1.053   5.405  15.861 -0.0022 -2.4593 -0.6841
17280TIP3    H273332   1.003   5.459  15.729  0.0895  1.3464  0.6883
17281TIP3   OH273333   1.327   3.269  16.308 -0.3959  0.0618  0.4973
17281TIP3    H173334   1.414   3.255  16.271 -1.1394 -1.1539 -0.8648
17281TIP3    H273335   1.282   3.324  16.244 -1.6314 -1.8981 -0.3909
17282TIP3   OH273336   1.670   4.202   1.370  0.2383  0.3822 -0.3659
17282TIP3    H173337   1.674   4.226   1.462  1.1543 -2.2234  0.3802
17282TIP3    H273338   1.579   4.216   1.345 -0.5169 -0.7336  1.5440
17283TIP3   OH273339   1.492   4.790  15.840 -0.4199  0.0806  0.1758
17283TIP3    H173340   1.451   4.873  15.864  0.2379  0.5744 -0.4037
17283TIP3    H273341   1.427   4.746  15.785 -1.2381 -0.3071  1.4160
17284TIP3   OH273342   5.138   4.457  14.761 -0.3617  0.5107  0.0309
17284TIP3    H173343   5.205   4.397  14.728 -0.9222 -0.0819 -0.0609
17284TIP3    H273344   5.161   4.472  14.852 -0.7523 -0.6124  0.3226
17285TIP3   OH273345   6.644   0.776  12.591  0.3063  0.1541 -0.0733
17285TIP3    H173346   6.580   0.794  12.521  1.6652 -2.0575 -2.0594
17285TIP3    H273347   6.591   0.744  12.664 -0.9992 -0.1650 -1.1111
17286TIP3   OH273348   0.128   5.925   1.501  0.0610 -0.3996  0.1827
17286TIP3    H173349   0.079   5.945   1.580  0.8339 -1.3103  0.9141
17286TIP3    H273350   0.188   5.999   1.491  0.6035 -0.7145  0.9912
17287TIP3   OH273351   1.145   6.722  10.640 -0.0772 -0.3750  0.6332
17287TIP3    H173352   1.186   6.686  10.720 -1.2565  1.2860  2.0720
17287TIP3    H273353   1.178   6.812  10.636 -1.4193  0.1133  0.2488
17288TIP3   OH273354   1.500   4.041   5.252  0.6374  0.2812  0.3926
17288TIP3    H173355   1.455   4.089   5.182  1.7519 -1.7683 -1.8704
17288TIP3    H273356   1.593   4.053   5.234  1.0142  0.8099  2.3941
17289TIP3   OH273357   0.239   4.277  12.605  0.4340 -0.0578 -0.2169
17289TIP3    H173358   0.324   4.283  12.562 -0.6514 -0.8131 -2.6553
17289TIP3    H273359   0.194   4.358  12.581  0.4480  0.3713  1.1191
17290TIP3   OH273360   1.078   4.900   5.254 -0.5455  0.3325 -0.2468
17290TIP3    H173361   1.079   4.954   5.175  0.1956 -0.4930 -0.8173
17290TIP3    H273362   1.171   4.887   5.275 -0.7301 -0.1162  0.3040
17291TIP3   OH273363   0.706   5.208  14.378  0.2383 -0.2497 -0.0413
17291TIP3    H173364   0.680   5.290  14.419 -0.0274 -0.4215  0.1398
17291TIP3    H273365   0.802   5.208  14.382  0.2240 -1.1075  2.3316
17292TIP3   OH273366   4.781   2.707  14.413 -0.0251  0.5421 -0.0065
17292TIP3    H173367   4.820   2.634  14.366  1.2002  0.2832  1.3319
17292TIP3    H273368   4.691   2.678  14.432 -0.1917  0.2310 -1.2324
17293TIP3   OH273369   3.361   3.504  14.222  0.2860 -0.0908 -0.3524
17293TIP3    H173370   3.301   3.429  14.227  1.3425 -0.9634 -0.6430
17293TIP3    H273371   3.303   3.580  14.224 -0.7261 -0.8256  2.0810
17294TIP3   OH273372   1.255   4.963  12.330 -0.3838 -0.1694  0.1397
17294TIP3    H173373   1.176   4.924  12.368 -0.0902  0.3977  1.4116
17294TIP3    H273374   1.276   4.908  12.255 -0.6551 -1.7515  1.1763
17295TIP3   OH273375   1.380   1.846   5.952  0.7057  0.3348  0.3145
17295TIP3    H173376   1.358   1.900   6.028 -0.1042 -1.5065  1.4430
17295TIP3    H273377   1.302   1.849   5.896  0.5333  0.0854  0.5386
17296TIP3   OH273378   2.214   0.722  14.430 -0.4919 -0.0716  0.1171
17296TIP3    H173379   2.142   0.775  14.463 -1.6055 -1.1755 -0.4732
17296TIP3    H273380   2.192   0.704  14.339  0.7264 -0.1110 -0.1884
17297TIP3   OH273381   2.570   5.780  16.737 -0.0221  0.1265 -0.3458
17297TIP3    H173382   2.572   5.863  16.689  1.0398 -0.0080 -0.5732
17297TIP3    H273383   2.575   5.713  16.669 -0.1697 -0.1093 -0.1269
17298TIP3   OH273384   3.353   1.128   4.809 -0.1679  0.6047  0.0293
17298TIP3    H173385   3.390   1.215   4.801 -1.0506  0.8875 -1.1995
17298TIP3    H273386   3.346   1.096   4.719 -0.4442 -0.4717  0.4215
17299TIP3   OH273387   2.111   5.036  15.033 -0.2259 -0.0392  0.1160
17299TIP3    H173388   2.034   5.085  15.061 -0.2574 -0.0599  0.0645
17299TIP3    H273389   2.080   4.947  15.022 -0.2774  0.0247 -0.2618
17300TIP3   OH273390   5.657   1.221   3.846 -0.0165  0.2100 -0.2625
17300TIP3    H173391   5.708   1.232   3.766  1.5791  0.3076  0.7119
17300TIP3    H273392   5.713   1.167   3.902 -0.3212  1.5367  1.4047
17301TIP3   OH273393   2.969   5.272   3.234 -0.0247  0.4651 -0.3990
17301TIP3    H173394   2.964   5.252   3.140  1.9600  0.8682 -0.6362
17301TIP3    H273395   2.986   5.188   3.276  1.8006  0.6358 -0.7207
17302TIP3   OH273396   1.501   4.828  16.527 -0.3603  0.1172 -0.1183
17302TIP3    H173397   1.551   4.765  16.475  2.1477  1.6531  0.2208
17302TIP3    H273398   1.440   4.867  16.465 -1.4733 -2.0422 -0.4924
17303TIP3   OH273399   5.317   1.204   4.789 -0.0420  0.0153  0.2002
17303TIP3    H173400   5.388   1.233   4.733 -0.9858  0.3161 -0.8818
17303TIP3    H273401   5.342   1.232   4.877  0.5336  1.3132 -0.3657
17304TIP3   OH273402   2.503   5.064  11.807  0.1582  0.3686 -0.3237
17304TIP3    H173403   2.578   5.122  11.790 -0.8940  1.2825 -2.1837
17304TIP3    H273404   2.539   4.976  11.799  1.0371  0.7889 -1.3347
17305TIP3   OH273405   5.818   0.477   3.998 -0.0892  0.0653 -0.0150
17305TIP3    H173406   5.838   0.543   4.065 -0.3269  0.1768 -0.0527
17305TIP3    H273407   5.744   0.427   4.034 -0.3403  0.2460 -0.2727
17306TIP3   OH273408   3.004   5.777   5.760  0.1085 -0.2635  0.0520
17306TIP3    H173409   2.929   5.719   5.770  0.3748 -0.7965 -0.9263
17306TIP3    H273410   2.992   5.843   5.829 -1.5704  0.0198 -0.4659
17307TIP3   OH273411   2.933   0.109  14.565 -0.3179  0.2213 -0.1423
17307TIP3    H173412   2.910   0.176  14.500  0.6283 -0.1357 -0.8718
17307TIP3    H273413   3.026   0.122  14.580 -0.4999  0.2183  1.0864
17308TIP3   OH273414   4.084   0.840   0.129  0.1173 -0.7199  0.3841
17308TIP3    H173415   4.090   0.745   0.130 -2.6513 -0.9650  0.6995
17308TIP3    H273416   4.112   0.867   0.217  0.4575 -1.2569  0.4472
17309TIP3   OH273417   1.439   1.274  12.958  0.2913 -0.0823 -0.3825
17309TIP3    H173418   1.423   1.182  12.980 -1.2079  0.2520  0.0912
17309TIP3    H273419   1.375   1.322  13.011  3.1976  1.5517  1.9433
17310TIP3   OH273420   4.905   1.098  12.654  0.0391  0.3879  0.4225
17310TIP3    H173421   4.884   1.034  12.722  0.8199  1.3688  1.6289
17310TIP3    H273422   4.919   1.180  12.701  2.5660  0.6810 -0.6548
17311TIP3   OH273423   2.014   4.869  15.615 -0.3106 -0.2397  0.2264
17311TIP3    H173424   1.951   4.830  15.554 -0.2564  0.1992 -0.1097
17311TIP3    H273425   2.032   4.799  15.679 -2.5670  0.1898  1.4436
17312TIP3   OH273426   5.012   0.272  15.309  0.0789 -0.4596 -0.4871
17312TIP3    H173427   4.980   0.235  15.391 -1.5464  1.4288 -0.2056
17312TIP3    H273428   5.107   0.280  15.321 -0.2845  1.2460  1.8891
17313TIP3   OH273429   3.636   0.000   3.241  0.2531  0.1348  0.0059
17313TIP3    H173430   3.638  -0.008   3.336 -3.1102  0.4107  0.2471
17313TIP3    H273431   3.632  -0.090   3.210  2.4294 -0.0019 -0.0177
17314TIP3   OH273432   6.223   3.233  12.787 -0.0153  0.0443 -0.2118
17314TIP3    H173433   6.188   3.213  12.874 -2.1852 -0.2449 -1.0913
17314TIP3    H273434   6.178   3.313  12.761 -0.8291 -0.8750 -1.7887
17315TIP3   OH273435   3.743   0.011   3.499  0.1758 -0.5356  0.0951
17315TIP3    H173436   3.732  -0.035   3.583  2.7752 -1.3407  0.0944
17315TIP3    H273437   3.801   0.084   3.520 -1.0332  0.6708 -0.6140
17316TIP3   OH273438   0.205   0.420  15.750  0.0736 -1.0321 -0.2806
17316TIP3    H173439   0.295   0.419  15.783  0.0054 -0.0437 -0.0308
17316TIP3    H273440   0.154   0.381  15.821 -0.0046  0.6286  0.6096
17317TIP3   OH273441   0.980   2.116   6.299 -0.2256 -0.2622  0.1052
17317TIP3    H173442   0.968   2.021   6.290  0.4744 -0.1991 -1.9042
17317TIP3    H273443   0.937   2.153   6.223  0.9280  0.9087 -0.0027
17318TIP3   OH273444   1.522   2.277  13.601  0.5691  0.3050  0.3561
17318TIP3    H173445   1.516   2.268  13.696 -1.1617 -1.7627  0.1308
17318TIP3    H273446   1.494   2.367  13.583 -0.0789  0.3998  1.7288
17319TIP3   OH273447   2.053   2.321   4.743  0.2033 -0.8227 -0.5998
17319TIP3    H173448   1.959   2.303   4.737  0.0768 -0.3787 -0.0633
17319TIP3    H273449   2.081   2.332   4.652 -0.5961  0.6336 -0.7056
17320TIP3   OH273450   5.142   2.155  11.644  0.0416  0.3525  0.4236
17320TIP3    H173451   5.166   2.218  11.576 -0.4391  2.3111  1.9690
17320TIP3    H273452   5.188   2.074  11.619  5.0345  2.6170  1.0178
17321TIP3   OH273453   5.842   6.573   2.968 -0.6901 -0.2681  0.0768
17321TIP3    H173454   5.903   6.619   3.025 -0.9676  0.0325  0.1330
17321TIP3    H273455   5.856   6.612   2.881  0.3272 -1.2948 -0.2577
17322TIP3   OH273456   0.706   5.022   3.630  0.1790 -1.0863 -0.4335
17322TIP3    H173457   0.615   4.994   3.643  0.2318 -1.8236 -1.5214
17322TIP3    H273458   0.721   5.086   3.700 -1.1007 -1.1089 -0.1013
17323TIP3   OH273459   3.681   3.053   4.603  0.2085  0.3855  0.2409
17323TIP3    H173460   3.678   3.142   4.567  0.3486  0.5933  0.7394
17323TIP3    H273461   3.593   3.018   4.587 -0.3851  1.2097  1.5348
17324TIP3   OH273462   0.972   3.592  11.610  0.0211  0.0016  0.2668
17324TIP3    H173463   0.888   3.635  11.625  0.1108  0.4047 -0.3427
17324TIP3    H273464   1.036   3.662  11.620  0.4122 -0.5795  2.0993
17325TIP3   OH273465   6.334   5.856   5.448 -0.0536 -0.6091 -0.3318
17325TIP3    H173466   6.387   5.925   5.487 -0.8068 -0.2153  0.0193
17325TIP3    H273467   6.383   5.775   5.464  0.7352 -0.1868 -0.5668
17326TIP3   OH273468   1.761   3.571   4.050  0.6927 -0.5902 -0.3451
17326TIP3    H173469   1.785   3.568   4.143  1.9663  0.1709 -0.6258
17326TIP3    H273470   1.678   3.522   4.045  1.5416 -2.2463  0.8848
17327TIP3   OH273471   0.352   4.020   5.387  0.0336  0.5191  0.1318
17327TIP3    H173472   0.336   3.944   5.331 -0.0007 -0.4662  1.4480
17327TIP3    H273473   0.286   4.084   5.360 -2.3383 -1.2569  1.4211
17328TIP3   OH273474   2.769   1.482  14.568 -0.1704 -0.0988  0.2113
17328TIP3    H173475   2.836   1.480  14.500  1.9738 -2.8988  2.1446
17328TIP3    H273476   2.810   1.531  14.639 -1.3089  0.5182  0.4559
17329TIP3   OH273477   2.637   6.171   2.928  0.1528 -0.0390  0.3678
17329TIP3    H173478   2.631   6.098   2.866 -2.2096 -0.5615  1.1117
17329TIP3    H273479   2.615   6.249   2.877  0.5238 -0.1377  0.0531
17330TIP3   OH273480   3.225   0.699   0.205  0.3007  0.7296  0.8776
17330TIP3    H173481   3.307   0.650   0.215  0.1247  0.5203  1.3116
17330TIP3    H273482   3.188   0.702   0.293 -0.8467 -0.3788  0.4485
17331TIP3   OH273483   5.625   6.108   0.864 -0.5425 -0.3516 -0.2018
17331TIP3    H173484   5.558   6.146   0.808 -1.0864 -2.2434 -0.8925
17331TIP3    H273485   5.693   6.176   0.870 -1.0220  0.3514 -2.1519
17332TIP3   OH273486   4.516   1.502  14.514 -0.0007 -0.4464 -0.0226
17332TIP3    H173487   4.507   1.582  14.566  0.6109 -1.2520  1.3853
17332TIP3    H273488   4.607   1.503  14.484 -0.3042 -0.0707 -0.9697
17333TIP3   OH273489   2.718   3.912   0.480  0.1750 -0.4777 -0.0777
17333TIP3    H173490   2.683   3.870   0.402  2.1069  1.3813 -2.0944
17333TIP3    H273491   2.641   3.940   0.530 -1.1013 -2.0677 -1.0961
17334TIP3   OH273492   4.529   0.344   3.870 -0.8190  0.5617  0.0247
17334TIP3    H173493   4.501   0.293   3.794  0.7555  0.0609 -0.2733
17334TIP3    H273494   4.464   0.413   3.878 -2.4444 -0.8819 -0.1973
17335TIP3   OH273495   4.400   1.159  11.224 -0.3722 -0.0543 -0.3060
17335TIP3    H173496   4.383   1.242  11.271  0.2185  0.6176 -1.2520
17335TIP3    H273497   4.492   1.163  11.200 -0.3644 -0.9528 -0.4594
17336TIP3   OH273498   4.723   1.603  16.369  0.0236  0.3335  0.5556
17336TIP3    H173499   4.630   1.588  16.351 -0.1320  3.3045 -1.9251
17336TIP3    H273500   4.765   1.521  16.347 -1.8977 -0.8351  0.9914
17337TIP3   OH273501   2.228   6.283  10.852  0.4482  0.1751 -0.0670
17337TIP3    H173502   2.246   6.339  10.777 -1.5138  0.5010 -0.3578
17337TIP3    H273503   2.229   6.343  10.927 -1.7760  0.7094 -0.3932
17338TIP3   OH273504   1.657   1.516  16.053 -0.4471 -0.6963 -0.5626
17338TIP3    H173505   1.699   1.446  16.103  1.1616  0.1043 -0.7433
17338TIP3    H273506   1.667   1.490  15.962  1.3879  0.3922 -0.7058
17339TIP3   OH273507   5.130   1.293  14.481  0.6614  0.0193 -0.3388
17339TIP3    H173508   5.214   1.254  14.506  0.8766  0.4987 -0.2956
17339TIP3    H273509   5.140   1.313  14.388 -0.4631 -2.5998 -1.1230
17340TIP3   OH273510   4.350   3.408   2.853  0.8492 -0.2797  0.4174
17340TIP3    H173511   4.328   3.462   2.929 -0.7183 -1.7982  1.1094
17340TIP3    H273512   4.271   3.358   2.835  1.5812 -0.8504 -1.4867
17341TIP3   OH273513   0.001   6.459  11.092  0.0725  0.4473 -0.1579
17341TIP3    H173514  -0.002   6.552  11.114  0.3702  0.2476  0.7914
17341TIP3    H273515  -0.071   6.446  11.031  0.3065  1.3860 -0.6429
17342TIP3   OH273516   5.842   0.068   2.355 -0.1457  0.6761 -0.3781
17342TIP3    H173517   5.784  -0.005   2.377 -0.7149  1.0405 -0.6425
17342TIP3    H273518   5.786   0.146   2.360  0.8382  1.3328  1.6125
17343TIP3   OH273519   3.779   4.740   0.306  0.1025  0.0727 -0.3067
17343TIP3    H173520   3.685   4.726   0.313 -0.0669  0.0593 -2.0751
17343TIP3    H273521   3.793   4.828   0.342 -0.7284  0.4236 -0.8178
17344TIP3   OH273522   1.646   2.177   3.409  0.5242 -0.5354  0.1656
17344TIP3    H173523   1.726   2.128   3.389  0.3385 -0.1844 -1.6790
17344TIP3    H273524   1.672   2.269   3.406  0.1775 -0.4354  0.0897
17345TIP3   OH273525   5.431   2.733   4.822 -0.1253 -0.6387  0.0013
17345TIP3    H173526   5.435   2.762   4.913  1.7368 -1.8286  0.3374
17345TIP3    H273527   5.378   2.653   4.825 -2.0536  0.5545 -0.3669
17346TIP3   OH273528   0.499   4.402   0.452 -1.0042  0.3084 -0.0263
17346TIP3    H173529   0.541   4.352   0.522 -2.3283  0.2786  0.7800
17346TIP3    H273530   0.534   4.365   0.371  2.0677  1.6262  0.5478
17347TIP3   OH273531   0.361   4.111   4.286 -0.3278  0.0294  0.3812
17347TIP3    H173532   0.379   4.040   4.225  0.0670  1.9397 -1.8997
17347TIP3    H273533   0.411   4.090   4.364  2.1876 -0.7801 -1.3348
17348TIP3   OH273534   4.376   2.533   0.496 -0.0714  0.0177  0.3752
17348TIP3    H173535   4.348   2.505   0.409 -2.1802 -0.6048  1.1938
17348TIP3    H273536   4.305   2.506   0.554  0.8773  1.2035  2.1828
17349TIP3   OH273537   6.340   5.366  12.587  0.2821  0.1710  0.0531
17349TIP3    H173538   6.372   5.412  12.509  2.1304  0.9299  1.1995
17349TIP3    H273539   6.325   5.435  12.651  2.0420 -0.6964  1.4616
17350TIP3   OH273540   6.357   6.035  14.758 -0.1454 -0.5682 -0.0563
17350TIP3    H173541   6.404   6.005  14.836  0.4979 -0.7314 -0.4912
17350TIP3    H273542   6.265   6.020  14.778  0.0228 -0.7906  0.5918
17351TIP3   OH273543   1.885   5.944  15.517  0.2707 -0.5394  0.4185
17351TIP3    H173544   1.981   5.947  15.512  0.2539 -1.1973 -0.6209
17351TIP3    H273545   1.855   5.986  15.436 -0.3363  0.1144  0.9675
17352TIP3   OH273546   6.815   6.597   3.722 -0.5473 -0.3068  0.3161
17352TIP3    H173547   6.773   6.674   3.685 -3.1415 -1.2918  1.0015
17352TIP3    H273548   6.788   6.525   3.665  1.5844 -0.8152 -0.1473
17353TIP3   OH273549   3.622   0.780  11.500 -0.5535 -0.0147  0.5916
17353TIP3    H173550   3.615   0.730  11.418  0.6225  1.3855 -0.4008
17353TIP3    H273551   3.610   0.714  11.568 -1.1175 -1.2994 -0.6884
17354TIP3   OH273552   6.091   5.403  13.954  0.2806  0.7598 -0.1687
17354TIP3    H173553   6.113   5.483  13.907 -0.4779  1.0349 -0.0676
17354TIP3    H273554   6.129   5.415  14.041 -0.5974  1.4134  0.1391
17355TIP3   OH273555   1.995   4.124  14.670  0.3764  0.5231 -0.6475
17355TIP3    H173556   2.039   4.059  14.725  0.6555  1.1712 -0.0907
17355TIP3    H273557   1.907   4.089  14.657  0.0555  0.6870  0.8392
17356TIP3   OH273558   1.944   1.481   0.418  0.3896 -0.2126 -0.5279
17356TIP3    H173559   1.852   1.456   0.426 -0.0391  0.6593 -2.2542
17356TIP3    H273560   1.942   1.572   0.390  1.8060 -0.0310 -0.1363
17357TIP3   OH273561   5.155   0.677  11.960  0.4420  0.1757 -0.0399
17357TIP3    H173562   5.080   0.729  11.932  1.3433  1.4695 -0.1942
17357TIP3    H273563   5.138   0.589  11.927 -0.2975  0.7935 -1.4010
17358TIP3   OH273564   1.692   6.345   4.401 -0.5495  0.5761  0.5284
17358TIP3    H173565   1.689   6.306   4.488 -0.0833  0.7446  0.6242
17358TIP3    H273566   1.784   6.369   4.389 -0.2313 -1.0531 -0.7102
17359TIP3   OH273567   6.619   1.377   2.652 -0.0561 -0.3240 -0.1098
17359TIP3    H173568   6.601   1.460   2.695 -3.2023 -1.3953  0.9388
17359TIP3    H273569   6.689   1.396   2.591  2.6472  2.0026  3.3140
17360TIP3   OH273570   0.675   2.727   6.540  0.0658  0.0434  0.0755
17360TIP3    H173571   0.761   2.691   6.562  0.1593 -1.1969 -2.0857
17360TIP3    H273572   0.691   2.791   6.471 -0.7004  0.1010 -0.0640
17361TIP3   OH273573   0.396   6.461   4.392 -0.3825 -0.2235  0.2697
17361TIP3    H173574   0.374   6.502   4.308  1.2385  0.2539  0.0390
17361TIP3    H273575   0.348   6.512   4.457 -0.0467  0.7312 -0.2093
17362TIP3   OH273576   5.287   2.455  16.361 -0.1597  0.2907  0.0266
17362TIP3    H173577   5.290   2.537  16.410 -0.3223  0.5784 -0.4401
17362TIP3    H273578   5.295   2.481  16.269  1.4327 -0.3241 -0.0477
17363TIP3   OH273579   5.190   2.554  11.694  0.6946  0.2436 -0.0971
17363TIP3    H173580   5.265   2.495  11.683 -0.7842 -1.7817  0.1599
17363TIP3    H273581   5.133   2.509  11.757 -0.7579  1.7243 -0.2892
17364TIP3   OH273582   6.488   6.041   5.005 -0.2944  0.4148  0.1794
17364TIP3    H173583   6.582   6.025   5.012 -0.3456 -0.5078 -0.9161
17364TIP3    H273584   6.456   6.030   5.094  0.7714  1.7809  0.7608
17365TIP3   OH273585   1.837   3.275   4.208 -0.4996 -0.0746 -0.4215
17365TIP3    H173586   1.861   3.324   4.286 -1.1123  1.3591 -1.0914
17365TIP3    H273587   1.895   3.309   4.140 -2.0015  0.9205 -1.2546
17366TIP3   OH273588   2.926   1.685  14.418 -0.4302  0.0271 -0.0018
17366TIP3    H173589   2.900   1.683  14.326  0.6000 -0.1605 -0.3083
17366TIP3    H273590   2.880   1.760  14.455 -0.1667  0.6504 -0.8960
17367TIP3   OH273591   0.355   4.413  15.573 -0.8911 -0.1921 -0.4564
17367TIP3    H173592   0.336   4.482  15.638 -3.0921 -0.7126 -0.4749
17367TIP3    H273593   0.319   4.333  15.612  0.7396 -1.1687 -0.8841
17368TIP3   OH273594   4.638   4.408   3.827  0.2617  0.4278 -0.0505
17368TIP3    H173595   4.706   4.434   3.765  0.2646  0.3714 -0.0712
17368TIP3    H273596   4.604   4.325   3.793 -0.0314  0.6107 -0.2055
17369TIP3   OH273597   4.396   1.107   4.832  0.1822  0.1274 -0.3515
17369TIP3    H173598   4.400   1.170   4.904 -2.6308  1.6139 -1.3069
17369TIP3    H273599   4.386   1.162   4.754  2.2634 -1.4539 -1.8466
17370TIP3   OH273600   0.724   6.568   1.324  0.0128 -0.5648  0.3787
17370TIP3    H173601   0.677   6.571   1.240  0.5645  1.5498  0.0778
17370TIP3    H273602   0.709   6.480   1.357 -3.4386 -0.2895 -0.1109
17371TIP3   OH273603   2.050   4.113  15.360 -0.3181 -0.0528 -0.2673
17371TIP3    H173604   1.969   4.086  15.404  0.2954  0.1896  1.0572
17371TIP3    H273605   2.031   4.202  15.329 -0.4019  0.1924  0.4704
17372TIP3   OH273606   4.962   0.837   2.948  0.2718 -0.1357  0.2868
17372TIP3    H173607   5.001   0.908   2.897  0.9550 -0.1397  0.7793
17372TIP3    H273608   4.941   0.878   3.032  2.0514 -0.8236  1.1270
17373TIP3   OH273609   0.662   4.545   4.122 -0.3096  0.4069 -0.0554
17373TIP3    H173610   0.632   4.458   4.151 -1.3567  0.5799 -0.5980
17373TIP3    H273611   0.590   4.604   4.144  0.8240  1.3580  1.3128
17374TIP3   OH273612   4.587   3.925  15.113  0.2020  0.1243  0.1041
17374TIP3    H173613   4.532   3.862  15.159 -1.3882  0.6418 -1.0128
17374TIP3    H273614   4.538   4.007  15.118  1.5697  0.9691  0.3057
17375TIP3   OH273615   0.454   6.632   3.610 -0.2325  0.2403  0.1467
17375TIP3    H173616   0.381   6.575   3.585  1.1224 -0.5673 -2.3386
17375TIP3    H273617   0.429   6.718   3.577 -0.3767  0.1028 -0.1131
17376TIP3   OH273618   2.349   1.429  13.255 -0.2839 -0.1881 -0.1537
17376TIP3    H173619   2.273   1.455  13.308  1.7034  3.1775  1.3344
17376TIP3    H273620   2.337   1.474  13.172  0.7173  1.6438  0.6352
17377TIP3   OH273621   5.061   0.226   2.571  0.3638  0.4796  0.1983
17377TIP3    H173622   5.135   0.270   2.614  0.2334  1.2108 -0.3185
17377TIP3    H273623   5.096   0.196   2.488  0.3707 -0.1500  0.4223
17378TIP3   OH273624   2.986   5.323  12.939 -0.4125 -0.4576 -0.3017
17378TIP3    H173625   2.995   5.229  12.950  2.9025 -0.3473 -0.9620
17378TIP3    H273626   3.034   5.342  12.858  2.0792  2.1133  1.5748
17379TIP3   OH273627   5.780   0.736  11.697 -0.4034 -0.1038 -0.5750
17379TIP3    H173628   5.844   0.673  11.729 -1.2033 -0.0644  1.1596
17379TIP3    H273629   5.810   0.820  11.733 -0.9002  0.0623 -0.5456
17380TIP3   OH273630   0.640   5.260   0.748  0.5757 -0.2161  0.2922
17380TIP3    H173631   0.670   5.170   0.734  3.3683  0.6488  0.1019
17380TIP3    H273632   0.679   5.310   0.676 -2.4075  0.9290 -0.6818
17381TIP3   OH273633   1.628   0.429   5.262  0.2499 -0.0757 -0.3503
17381TIP3    H173634   1.548   0.375   5.263 -0.6600  1.2234  0.4270
17381TIP3    H273635   1.638   0.456   5.171  0.4525 -1.1631 -0.6608
17382TIP3   OH273636   3.245   0.424  15.166  0.8220  0.2777  0.1300
17382TIP3    H173637   3.292   0.496  15.124 -1.3063  0.9715 -1.2680
17382TIP3    H273638   3.193   0.386  15.095 -2.7600  1.2957  2.0006
17383TIP3   OH273639   6.261   2.256  11.841  0.2216 -0.2889 -0.4104
17383TIP3    H173640   6.253   2.164  11.815 -0.6736 -0.8389  1.5723
17383TIP3    H273641   6.340   2.287  11.797  0.5507 -2.0133 -1.1120
17384TIP3   OH273642   5.401   3.109   0.337  0.0190 -0.4035  0.1211
17384TIP3    H173643   5.344   3.132   0.263  1.0631 -1.4999 -1.0766
17384TIP3    H273644   5.365   3.027   0.370 -0.1006 -0.2141  0.4645
17385TIP3   OH273645   1.314   6.020   5.138  0.4514 -0.0174 -0.1833
17385TIP3    H173646   1.266   6.102   5.130  0.1425 -0.0624  1.0862
17385TIP3    H273647   1.406   6.046   5.148  0.9719  0.0555 -3.6598
17386TIP3   OH273648   1.717   5.442  14.438 -0.0230 -0.4794 -0.5966
17386TIP3    H173649   1.653   5.380  14.473  1.0053 -0.4419  1.5022
17386TIP3    H273650   1.754   5.485  14.515  3.6080 -1.5661 -1.5644
17387TIP3   OH273651   3.395   3.298  13.424  0.3297  0.7977 -0.4484
17387TIP3    H173652   3.460   3.352  13.379  0.5389  2.7567  1.9643
17387TIP3    H273653   3.311   3.341  13.406  0.2110  0.6279 -0.3066
17388TIP3   OH273654   4.652   5.191  14.770 -0.3207 -0.1754  0.5180
17388TIP3    H173655   4.582   5.254  14.790 -0.8134 -0.1904 -1.0552
17388TIP3    H273656   4.722   5.244  14.732  1.1119  0.0324  3.1828
17389TIP3   OH273657   4.323   1.737  16.456 -0.1392  0.5218 -0.0963
17389TIP3    H173658   4.242   1.752  16.406 -0.1284  0.6354 -0.0782
17389TIP3    H273659   4.302   1.764  16.545 -0.2493  0.0420  0.0256
17390TIP3   OH273660   6.439   0.596   5.002 -0.0369  0.1544  0.4737
17390TIP3    H173661   6.403   0.658   5.066  0.7062  0.9068  0.1833
17390TIP3    H273662   6.381   0.520   5.007 -0.9585  0.8629  0.8613
17391TIP3   OH273663   2.282   6.727   1.117  0.7578 -0.6896  0.2592
17391TIP3    H173664   2.195   6.704   1.151  0.0228  2.4901  0.8341
17391TIP3    H273665   2.331   6.754   1.195  1.4243 -0.1123 -0.3566
17392TIP3   OH273666   3.474   3.414  14.716  0.9388  0.2780 -0.4561
17392TIP3    H173667   3.519   3.435  14.634 -1.0593  1.5284 -1.3181
17392TIP3    H273668   3.393   3.371  14.688 -0.5209  2.0970  0.7055
17393TIP3   OH273669   3.912   3.454   5.211  0.3031 -0.3283 -0.1971
17393TIP3    H173670   3.984   3.392   5.209  0.1647 -0.4707 -1.3686
17393TIP3    H273671   3.934   3.515   5.281  0.7695 -1.2992  0.5072
17394TIP3   OH273672   5.267   5.907   6.307  0.3768  0.3965 -0.1677
17394TIP3    H173673   5.255   5.998   6.335  0.3621  0.3552 -0.0397
17394TIP3    H273674   5.191   5.890   6.251  0.0694  0.2794  0.2766
17395TIP3   OH273675   5.051   3.685   2.808 -0.1425  0.2317  0.3475
17395TIP3    H173676   5.084   3.775   2.801  2.7017 -0.7759 -0.5851
17395TIP3    H273677   5.121   3.637   2.852 -2.0452 -1.3723  1.8056
17396TIP3   OH273678   2.364   2.688   2.489 -1.2397  0.1706 -0.1325
17396TIP3    H173679   2.402   2.774   2.472 -0.8832 -0.0424 -0.4336
17396TIP3    H273680   2.432   2.626   2.462 -1.1516 -0.1995  0.9122
17397TIP3   OH273681   6.310   0.483  11.129  0.0787 -0.6057 -0.6959
17397TIP3    H173682   6.272   0.405  11.088 -1.2427  2.1844 -5.5924
17397TIP3    H273683   6.403   0.478  11.110 -0.0294 -0.9040 -1.1392
17398TIP3   OH273684   2.927   3.116  12.900 -0.5623 -0.2422 -0.0897
17398TIP3    H173685   2.970   3.058  12.962  1.0561 -1.2796 -2.0913
17398TIP3    H273686   2.958   3.089  12.814 -2.1728  1.5848 -1.3648
17399TIP3   OH273687   4.890   4.670  12.561  0.8420 -0.3957 -0.4963
17399TIP3    H173688   4.944   4.672  12.640 -0.5904  0.9893  0.5023
17399TIP3    H273689   4.827   4.600  12.576  0.1454  0.3107 -0.1139
17400TIP3   OH273690   4.174   5.645  14.648 -0.1375 -0.4974 -0.5445
17400TIP3    H173691   4.249   5.598  14.683  0.3720  0.2158 -0.6366
17400TIP3    H273692   4.101   5.622  14.705  0.4213 -0.2647  0.2825
17401TIP3   OH273693   6.131   1.871  17.003 -0.2496  0.0765 -0.6384
17401TIP3    H173694   6.043   1.868  17.041 -0.3920 -1.7595 -1.0040
17401TIP3    H273695   6.117   1.865  16.909  0.2623 -2.8155 -0.6196
17402TIP3   OH273696   6.596   3.964  11.410 -0.0008 -0.1833  0.4216
17402TIP3    H173697   6.552   3.960  11.325 -0.7651  0.4243  0.7764
17402TIP3    H273698   6.634   4.052  11.413  1.2258 -0.6827  0.1396
17403TIP3   OH273699   2.080   1.299  16.010  0.1243  0.0404  0.4319
17403TIP3    H173700   2.060   1.389  16.037 -0.4250 -0.2450  1.0055
17403TIP3    H273701   2.175   1.300  15.996  0.6710 -0.0045  3.4147
17404TIP3   OH273702   1.573   2.544  13.920 -0.2253 -0.1308  0.3354
17404TIP3    H173703   1.544   2.604  13.989  0.8113  0.8708 -0.0675
17404TIP3    H273704   1.664   2.569  13.903 -0.5481 -0.0986 -1.6177
17405TIP3   OH273705   2.860   5.384   2.525 -0.7769  0.3093 -0.3754
17405TIP3    H173706   2.880   5.465   2.478 -0.2211  0.2647 -0.2245
17405TIP3    H273707   2.862   5.408   2.618 -0.8928  0.1855 -0.3398
17406TIP3   OH273708   2.669   4.542   3.332  0.1039  0.3775 -0.1129
17406TIP3    H173709   2.720   4.613   3.294  2.0879 -0.6101  0.5277
17406TIP3    H273710   2.708   4.529   3.419 -1.1484 -0.5546  0.3409
17407TIP3   OH273711   6.513   2.083  15.323  0.4290 -0.6125  0.0665
17407TIP3    H173712   6.540   2.170  15.296  0.2988  0.3658  2.7856
17407TIP3    H273713   6.441   2.061  15.264  0.7952  0.8887 -0.9854
17408TIP3   OH273714   5.437   1.609   1.605 -0.0503 -0.2599 -0.0293
17408TIP3    H173715   5.394   1.695   1.596 -0.1192 -0.1921  0.8843
17408TIP3    H273716   5.530   1.628   1.593 -0.2576 -0.5241 -2.8220
17409TIP3   OH273717   1.469   3.474   2.308  0.0903 -0.2210 -0.0158
17409TIP3    H173718   1.458   3.562   2.272 -0.6022  0.8069  2.4756
17409TIP3    H273719   1.549   3.478   2.360  0.9120 -1.5569 -1.1092
17410TIP3   OH273720   2.923   3.509  16.280  0.0327 -0.2010  0.7304
17410TIP3    H173721   2.902   3.574  16.347 -0.8907  0.1848  0.0842
17410TIP3    H273722   2.874   3.431  16.306  0.5810 -0.4183  1.1214
17411TIP3   OH273723   4.369   3.409   0.403  0.1401  0.2123 -0.1511
17411TIP3    H173724   4.350   3.393   0.311  2.3965  1.3016 -0.8614
17411TIP3    H273725   4.370   3.505   0.411  1.3212  0.1456  0.6919
17412TIP3   OH273726   3.246   1.479   4.337  0.5018 -0.4439  0.0647
17412TIP3    H173727   3.219   1.402   4.288  0.3560 -0.6046  0.3928
17412TIP3    H273728   3.212   1.464   4.426  0.8368 -0.2024  0.2367
17413TIP3   OH273729   6.030   5.389  15.858  0.3670  0.2203 -0.1670
17413TIP3    H173730   6.050   5.302  15.822 -0.4302 -0.6777  1.4599
17413TIP3    H273731   6.070   5.389  15.945 -2.5281  0.1286  1.2794
17414TIP3   OH273732   4.264   1.900  17.051 -0.0205  0.3547 -0.3768
17414TIP3    H173733   4.285   1.949  17.130  1.7811  1.1204 -1.2909
17414TIP3    H273734   4.340   1.845  17.035  0.9385  2.2828 -3.1103
17415TIP3   OH273735   2.893   2.016   6.097 -0.3753  0.6435  0.7450
17415TIP3    H173736   2.941   2.084   6.049  1.0357  0.2147  1.5122
17415TIP3    H273737   2.817   1.998   6.041 -0.0441  1.8496 -0.1550
17416TIP3   OH273738   1.583   0.881  16.454  0.1751 -0.0206 -0.5170
17416TIP3    H173739   1.580   0.882  16.549  0.1153  1.1347 -0.5186
17416TIP3    H273740   1.660   0.932  16.432 -0.6932  1.0804 -1.1047
17417TIP3   OH273741   3.700   4.867  14.529  0.0138  0.0151 -0.2472
17417TIP3    H173742   3.628   4.925  14.553  0.0470  0.2230 -0.6379
17417TIP3    H273743   3.729   4.829  14.611  0.7898  1.4805  0.1984
17418TIP3   OH273744   0.917   4.269  13.057  0.2011 -0.4026  0.3448
17418TIP3    H173745   0.841   4.215  13.034 -0.7542  0.3157  1.6652
17418TIP3    H273746   0.906   4.287  13.150  0.7555  1.6346  0.0549
17419TIP3   OH273747   4.846   2.169  12.869 -0.0608  0.0292 -0.1164
17419TIP3    H173748   4.758   2.151  12.903 -0.0099 -1.1898 -0.5599
17419TIP3    H273749   4.883   2.234  12.929 -1.0049  0.0228  0.4850
17420TIP3   OH273750   4.407   2.109  14.381  0.3783  0.0589  0.1788
17420TIP3    H173751   4.334   2.131  14.439 -0.2233 -1.1428 -0.0713
17420TIP3    H273752   4.384   2.150  14.298 -0.8436 -1.5925 -0.3524
17421TIP3   OH273753   3.633   5.897   4.010  0.0524 -0.0283  0.6430
17421TIP3    H173754   3.586   5.942   4.080  2.0892  2.7478  0.3832
17421TIP3    H273755   3.613   5.947   3.931 -0.1927 -1.6114 -0.3578
17422TIP3   OH273756   0.629   6.800  13.731 -0.5495  0.1930 -0.1035
17422TIP3    H173757   0.601   6.721  13.776 -2.1278  0.6223 -0.2685
17422TIP3    H273758   0.723   6.788  13.716 -0.6602 -1.3829  0.3591
17423TIP3   OH273759   4.291   0.809   0.587  0.6608  0.2576  0.0902
17423TIP3    H173760   4.280   0.869   0.513  0.3490  0.8363  0.5981
17423TIP3    H273761   4.254   0.726   0.557 -0.2434  0.7191 -0.1064
17424TIP3   OH273762   2.935   0.115  15.127  0.0411  0.2706 -0.2679
17424TIP3    H173763   2.968   0.184  15.070  1.2875  0.5971  0.7998
17424TIP3    H273764   3.010   0.093  15.183 -0.6107 -1.2914  0.0382
17425TIP3   OH273765   5.912   4.624  13.545  0.0645 -0.7425 -0.6390
17425TIP3    H173766   5.909   4.647  13.452  0.4774 -0.9596 -0.7081
17425TIP3    H273767   5.851   4.685  13.586  0.7932  0.1869 -0.8763
17426TIP3   OH273768   1.242   5.663   4.207 -0.0873  0.4057  0.2592
17426TIP3    H173769   1.219   5.655   4.300  0.8516  0.5172  0.5102
17426TIP3    H273770   1.247   5.757   4.192  1.8061  0.4095  0.6449
17427TIP3   OH273771   6.803   3.898   4.884 -0.2667  0.0920  0.0544
17427TIP3    H173772   6.745   3.822   4.875  1.1695 -0.9283 -1.0905
17427TIP3    H273773   6.762   3.966   4.831  0.4631 -1.2002 -2.2752
17428TIP3   OH273774   1.981   0.880   4.683 -0.1742 -0.5409  0.2976
17428TIP3    H173775   1.947   0.872   4.772 -0.0837 -0.9179  0.3007
17428TIP3    H273776   2.074   0.897   4.695 -0.2212 -0.2668  0.2782
17429TIP3   OH273777   6.176   0.424  15.728 -0.2244 -0.4844 -0.1535
17429TIP3    H173778   6.147   0.333  15.740 -1.0200 -0.1108  0.9541
17429TIP3    H273779   6.206   0.451  15.815  1.9478 -0.2997 -0.8829
17430TIP3   OH273780   1.581   0.469   1.403 -0.1126  0.5562  0.1804
17430TIP3    H173781   1.529   0.483   1.323  0.7191  0.6399 -0.3570
17430TIP3    H273782   1.592   0.557   1.440  0.2647  0.6287 -0.1018
17431TIP3   OH273783   0.877   1.355  13.622 -0.6285 -0.3156  0.1722
17431TIP3    H173784   0.867   1.270  13.665 -2.7487  1.1266  2.8172
17431TIP3    H273785   0.931   1.336  13.545  0.1643 -3.7814  1.3779
17432TIP3   OH273786   4.871   0.995  13.023 -0.5467 -0.1030  0.0388
17432TIP3    H173787   4.947   1.053  13.017 -0.4751 -0.1754  0.2210
17432TIP3    H273788   4.909   0.907  13.027 -0.5443 -0.0580  1.9362
17433TIP3   OH273789   2.218   4.112   1.837  0.5304  0.4528 -0.1897
17433TIP3    H173790   2.171   4.030   1.847  0.1706  0.7662  0.7899
17433TIP3    H273791   2.241   4.138   1.926 -0.8481  2.2824 -0.3206
17434TIP3   OH273792   5.772   4.742   6.071  0.0870  0.4013 -0.8171
17434TIP3    H173793   5.684   4.705   6.079  0.5317 -0.4675  0.2072
17434TIP3    H273794   5.769   4.792   5.989 -1.8342  1.7284  0.0053
17435TIP3   OH273795   4.749   5.491  16.638 -0.5197 -0.2969 -0.2800
17435TIP3    H173796   4.707   5.480  16.724  0.6617  0.2725  0.3869
17435TIP3    H273797   4.833   5.446  16.646 -0.3874 -0.2270 -1.1491
17436TIP3   OH273798   4.546   5.255   2.440 -0.2192 -0.5212 -0.0328
17436TIP3    H173799   4.631   5.214   2.456  0.9697  2.1711  1.2501
17436TIP3    H273800   4.564   5.323   2.376 -1.7870 -0.9457 -0.9660
17437TIP3   OH273801   5.092   1.614  17.103 -0.0691 -0.3446 -0.3292
17437TIP3    H173802   5.071   1.691  17.050 -0.0413 -0.8329 -1.0659
17437TIP3    H273803   5.115   1.649  17.189 -2.5511  0.3255  0.1375
17438TIP3   OH273804   1.213   5.898   2.221  0.4284  0.4671 -0.4533
17438TIP3    H173805   1.191   5.804   2.219 -0.7666  0.7313 -0.5046
17438TIP3    H273806   1.161   5.933   2.293  1.1348  1.0464 -0.2107
17439TIP3   OH273807   3.341   0.057   2.735 -0.2597  0.0513  0.3473
17439TIP3    H173808   3.430   0.091   2.728 -0.3775  0.2079 -0.5150
17439TIP3    H273809   3.309   0.091   2.818  1.0178 -1.3066  1.4470
17440TIP3   OH273810   2.518   1.103   4.143 -0.7552 -0.1017  0.0567
17440TIP3    H173811   2.547   1.063   4.224  2.1679  0.3459 -0.6556
17440TIP3    H273812   2.569   1.059   4.075 -2.1794  0.4341 -1.4358
17441TIP3   OH273813   0.335   5.113   3.711  0.0563 -0.3445  0.4045
17441TIP3    H173814   0.362   5.151   3.627 -1.5806 -1.9912 -0.9485
17441TIP3    H273815   0.340   5.186   3.773  0.7188  1.0787 -1.2387
17442TIP3   OH273816   3.992   5.568  14.829  0.6221 -0.1892  0.3753
17442TIP3    H173817   4.061   5.517  14.870  0.2550  1.1305  2.8785
17442TIP3    H273818   3.925   5.577  14.897  0.7339  3.6611  0.1982
17443TIP3   OH273819   0.865   0.174   0.863 -0.3690 -0.0599  0.5676
17443TIP3    H173820   0.949   0.151   0.904  0.6944  3.1511  0.5313
17443TIP3    H273821   0.811   0.203   0.936 -1.0824 -1.0584  0.4532
17444TIP3   OH273822   1.535   6.658   5.213 -0.0640 -0.3275 -0.3619
17444TIP3    H173823   1.449   6.695   5.233  0.1309  0.4900 -1.0203
17444TIP3    H273824   1.516   6.572   5.175 -0.6317  0.2380 -1.3747
17445TIP3   OH273825   4.118   1.859  12.033  0.0378 -0.5177 -0.1934
17445TIP3    H173826   4.136   1.868  12.127  0.1077 -2.5539  0.0335
17445TIP3    H273827   4.205   1.859  11.992 -0.0292  2.9760 -0.6341
17446TIP3   OH273828   0.016   2.255  16.565 -0.1026 -0.3336  0.1616
17446TIP3    H173829   0.034   2.264  16.472 -1.3340 -0.0036 -0.0650
17446TIP3    H273830  -0.001   2.345  16.595  0.4229 -0.4170  0.7426
17447TIP3   OH273831   3.766   1.440  13.506 -0.5451  0.5893  0.6209
17447TIP3    H173832   3.814   1.500  13.563  0.6540  1.1464 -0.8928
17447TIP3    H273833   3.828   1.420  13.435 -1.9881 -0.0113 -0.5224
17448TIP3   OH273834   2.981   3.590   4.393  0.3650  0.1682  0.0074
17448TIP3    H173835   3.057   3.562   4.443  1.0249  0.9044 -0.5515
17448TIP3    H273836   2.962   3.517   4.334 -0.6969 -0.8898  1.5880
17449TIP3   OH273837   1.418   1.131  17.192 -0.2101 -0.2251 -0.1334
17449TIP3    H173838   1.465   1.184  17.257 -0.2114 -0.0167 -0.3035
17449TIP3    H273839   1.408   1.046  17.234  0.0823 -0.1901  0.0110
17450TIP3   OH273840   0.790   1.727   1.704  0.5569  0.1863 -0.9885
17450TIP3    H173841   0.730   1.669   1.753 -0.3844  2.3702  0.6226
17450TIP3    H273842   0.877   1.693   1.724  0.1965  0.7606  2.1107
17451TIP3   OH273843   3.814   1.478  11.769  0.4988 -0.4434 -0.0255
17451TIP3    H173844   3.887   1.509  11.822  2.0172 -3.9278  0.1797
17451TIP3    H273845   3.795   1.390  11.802  0.0729 -1.9433 -3.6942
17452TIP3   OH273846   2.414   1.581  12.729 -0.5940 -0.2107  0.0689
17452TIP3    H173847   2.451   1.615  12.647 -0.1440 -0.8531 -0.0002
17452TIP3    H273848   2.439   1.489  12.729  0.5290  0.0621  1.5446
17453TIP3   OH273849   5.052   0.790  15.988 -0.1409  0.2291  0.1066
17453TIP3    H173850   5.083   0.785  15.897 -1.9967 -1.8347 -0.5065
17453TIP3    H273851   4.981   0.854  15.985  0.6188  1.1152  0.4217
17454TIP3   OH273852   5.804   4.167  16.417 -0.0659 -0.1017 -0.1491
17454TIP3    H173853   5.789   4.187  16.509  2.2075 -3.2524  1.0560
17454TIP3    H273854   5.717   4.149  16.382 -1.0138  1.5178  1.2031
17455TIP3   OH273855   2.714   0.813  13.500  0.0106  0.4647  0.5526
17455TIP3    H173856   2.765   0.891  13.521  1.2807  0.0119 -0.6958
17455TIP3    H273857   2.662   0.839  13.424 -0.2027  0.3468  0.6582
17456TIP3   OH273858   4.405   3.984   1.337 -0.0127 -0.3601  0.4137
17456TIP3    H173859   4.455   4.065   1.351 -1.3367  0.4251  0.8267
17456TIP3    H273860   4.373   3.960   1.424 -0.5468 -0.7130  0.1255
17457TIP3   OH273861   0.858   5.302   4.190 -0.3283  0.1200 -0.2934
17457TIP3    H173862   0.774   5.297   4.144 -0.3062 -1.6177 -0.2161
17457TIP3    H273863   0.876   5.212   4.216  0.5639  0.7725  1.5226
17458TIP3   OH273864   4.588   0.176  14.029  0.5976 -0.2281  0.8713
17458TIP3    H173865   4.521   0.184  14.097  1.8799 -1.5444  2.3488
17458TIP3    H273866   4.546   0.212  13.950 -1.5220 -0.2006  1.9429
17459TIP3   OH273867   1.184   5.977   3.903  0.8709 -0.2099  0.0384
17459TIP3    H173868   1.278   5.968   3.921  0.6656  0.0461  1.2895
17459TIP3    H273869   1.166   6.070   3.914  0.4952 -0.2213 -0.4098
17460TIP3   OH273870   6.421   4.069  13.352  0.1904 -0.5240  0.5618
17460TIP3    H173871   6.513   4.095  13.347  0.2199 -0.3499  1.7956
17460TIP3    H273872   6.402   4.032  13.266  1.1086  0.4338 -0.0747
17461TIP3   OH273873   5.222   1.136  13.761 -0.1574  0.3638 -1.0012
17461TIP3    H173874   5.160   1.206  13.783 -1.2650 -1.2073  1.2009
17461TIP3    H273875   5.305   1.181  13.747 -1.0099  2.1949 -0.4499
17462TIP3   OH273876   2.505   0.347  15.911 -0.0875  0.0149 -0.7377
17462TIP3    H173877   2.588   0.310  15.939  0.3144  0.2887 -1.5457
17462TIP3    H273878   2.468   0.283  15.851  0.3214  0.6134 -1.6569
17463TIP3   OH273879   5.317   3.163   4.226  0.2224 -0.2795  0.3859
17463TIP3    H173880   5.345   3.230   4.164  2.2978 -1.2532  0.1790
17463TIP3    H273881   5.229   3.190   4.253  0.1816  1.3874 -1.2286
17464TIP3   OH273882   5.605   6.017  11.200 -0.0494  0.3009 -0.1949
17464TIP3    H173883   5.587   6.079  11.129 -0.5430 -0.9826 -1.2235
17464TIP3    H273884   5.692   5.982  11.180  0.0584  0.3724  0.1536
17465TIP3   OH273885   2.458   1.475  13.014 -0.4024  0.0177 -0.5362
17465TIP3    H173886   2.532   1.447  13.068 -0.4316 -0.9965 -0.9972
17465TIP3    H273887   2.497   1.535  12.950  0.0675 -0.6878 -0.9212
17466TIP3   OH273888   5.610   5.093   4.285 -0.1982 -0.1747  0.5829
17466TIP3    H173889   5.583   5.061   4.371  0.4021  0.8417  1.1631
17466TIP3    H273890   5.537   5.070   4.227 -0.3523 -1.3960  1.2266
17467TIP3   OH273891   0.232   3.917   4.834  0.4600  0.9810 -0.0415
17467TIP3    H173892   0.149   3.948   4.869  0.6437 -0.2183  1.5724
17467TIP3    H273893   0.297   3.942   4.900  0.5530 -3.1169  1.7276
17468TIP3   OH273894   5.598   0.417   1.292 -0.0628 -0.0841 -0.4714
17468TIP3    H173895   5.670   0.390   1.234  1.8056  2.5046  0.4816
17468TIP3    H273896   5.590   0.345   1.355  1.9016 -0.3545 -0.4600
17469TIP3   OH273897   2.046   0.174   4.728  0.5537  0.2591  0.0685
17469TIP3    H173898   1.978   0.171   4.661  0.7116 -0.6703 -0.0575
17469TIP3    H273899   2.000   0.196   4.809  0.2389  0.5311 -0.1829
17470TIP3   OH273900   2.666   6.674   3.352 -0.4826 -0.1891  0.0784
17470TIP3    H173901   2.651   6.650   3.443 -1.4880 -1.1144 -0.3178
17470TIP3    H273902   2.756   6.708   3.351  0.8500 -3.3176  0.8408
17471TIP3   OH273903   4.745   1.423  15.059 -0.3448 -0.1831  0.3797
17471TIP3    H173904   4.724   1.471  15.140 -1.9087  1.8358 -1.1315
17471TIP3    H273905   4.681   1.351  15.057 -1.8119  1.0901 -0.1212
17472TIP3   OH273906   2.627   0.479  12.895  0.0078  0.8659 -0.4671
17472TIP3    H173907   2.630   0.407  12.958 -0.0236  2.6745  1.7490
17472TIP3    H273908   2.536   0.484  12.868 -0.2310  0.7785  0.2882
17473TIP3   OH273909   3.540   2.252   3.928 -0.0059 -0.0839  0.1489
17473TIP3    H173910   3.512   2.235   4.018  0.7191  0.5855  0.5092
17473TIP3    H273911   3.586   2.336   3.932  0.1998 -0.1346 -0.8141
17474TIP3   OH273912   4.935   2.544  14.259  0.3777 -0.1181 -0.4826
17474TIP3    H173913   5.007   2.540  14.322 -0.1790  1.4388  0.3139
17474TIP3    H273914   4.960   2.483  14.189  2.1283 -0.1054  0.0905
17475TIP3   OH273915   4.657   2.270  10.585 -0.6544 -0.4545  0.0974
17475TIP3    H173916   4.607   2.204  10.537 -1.9300  1.3905 -1.2326
17475TIP3    H273917   4.740   2.226  10.605 -1.1709 -2.2336 -1.3400
17476TIP3   OH273918   2.817   4.632   0.298  0.4826  0.1561  0.3335
17476TIP3    H173919   2.885   4.579   0.256 -1.0457 -1.5324 -0.1322
17476TIP3    H273920   2.741   4.574   0.304 -1.8179  2.6722 -1.6048
17477TIP3   OH273921   6.349   1.954  13.787  0.9496  0.1720  0.1472
17477TIP3    H173922   6.356   2.002  13.869 -0.4522  0.6980 -0.0188
17477TIP3    H273923   6.318   2.019  13.723 -0.8209 -0.8561 -0.1150
17478TIP3   OH273924   3.444   2.920   2.409  0.2279  0.3553  0.5692
17478TIP3    H173925   3.477   3.010   2.400  0.0018  0.8603  3.6959
17478TIP3    H273926   3.402   2.901   2.325  0.5526  3.0592 -0.2897
17479TIP3   OH273927   0.538   0.360  16.121 -0.3000  0.4195  0.1777
17479TIP3    H173928   0.510   0.418  16.051 -4.2507 -0.1348  1.0483
17479TIP3    H273929   0.550   0.274  16.079  2.2561  1.0180 -0.5153
17480TIP3   OH273930   2.167   0.186  17.087 -0.5472  0.0577  0.5448
17480TIP3    H173931   2.101   0.163  17.153 -1.9667  0.8300 -0.5390
17480TIP3    H273932   2.142   0.274  17.059  0.0797 -0.2154 -0.9265
17481TIP3   OH273933   3.572   3.367  13.816 -0.2121 -0.3107  0.0458
17481TIP3    H173934   3.606   3.378  13.905 -1.7125 -3.0616  1.0900
17481TIP3    H273935   3.634   3.307  13.774 -0.5823 -0.6333 -0.0497
17482TIP3   OH273936   0.697   0.278  16.350 -0.1357 -0.6636  0.5771
17482TIP3    H173937   0.721   0.201  16.299  1.0494  0.1199 -0.0952
17482TIP3    H273938   0.617   0.310  16.308  1.8770  1.1439 -2.2222
17483TIP3   OH273939   1.894   4.524   1.955 -0.7262 -0.2060 -0.2344
17483TIP3    H173940   1.827   4.513   2.022 -0.3972  2.0212  0.5396
17483TIP3    H273941   1.972   4.481   1.992 -0.7305  0.4203  0.5201
17484TIP3   OH273942   6.168   6.366  13.407 -0.4650 -0.5841  0.2606
17484TIP3    H173943   6.090   6.367  13.461 -0.9954 -0.1303 -0.4979
17484TIP3    H273944   6.142   6.407  13.325  1.1299  1.6877  0.7816
17485TIP3   OH273945   2.514   5.673  14.003  0.1354 -0.5534  0.2490
17485TIP3    H173946   2.590   5.649  14.056  0.8538  1.8536  0.4710
17485TIP3    H273947   2.513   5.610  13.930  1.8750 -1.1070  0.6703
17486TIP3   OH273948   1.659   3.289  14.813 -0.1932 -0.5060 -0.3291
17486TIP3    H173949   1.672   3.286  14.908  0.3861  0.7517 -0.3467
17486TIP3    H273950   1.744   3.316  14.778 -0.3627 -1.0864 -1.2192
17487TIP3   OH273951   6.816   1.894   0.764 -0.0401 -0.2637 -0.1694
17487TIP3    H173952   6.879   1.952   0.807  0.8710 -1.1800 -0.2423
17487TIP3    H273953   6.806   1.929   0.676  1.1716 -0.6972 -0.4958
17488TIP3   OH273954   3.194   1.001   0.624  0.3379 -0.8287  0.8885
17488TIP3    H173955   3.164   0.915   0.594  1.7523 -0.9607 -0.2592
17488TIP3    H273956   3.282   0.984   0.658 -0.3758 -0.2930  3.2473
17489TIP3   OH273957   0.118   1.435  16.097  0.2321  0.0960  0.0948
17489TIP3    H173958   0.089   1.359  16.148 -0.0295  0.3679  0.3549
17489TIP3    H273959   0.213   1.425  16.092  0.3438  0.4629  1.2793
17490TIP3   OH273960   3.772   6.021  11.291  0.7765 -0.5730 -0.1427
17490TIP3    H173961   3.840   5.963  11.326 -0.0029 -1.5546 -0.2203
17490TIP3    H273962   3.769   6.001  11.197 -0.4689 -1.4579  0.0611
17491TIP3   OH273963   5.736   0.675   1.188  0.8881 -0.4131  0.0395
17491TIP3    H173964   5.667   0.661   1.254  0.9045  1.0695  0.4158
17491TIP3    H273965   5.799   0.605   1.204  0.9545 -0.0246  1.7169
17492TIP3   OH273966   4.840   5.962   4.461 -0.2075 -0.3132  0.8340
17492TIP3    H173967   4.917   5.994   4.414 -1.4922  0.6782 -0.6838
17492TIP3    H273968   4.836   5.869   4.440 -0.4763  0.0152 -0.6646
17493TIP3   OH273969   3.262   1.962   4.703  0.2254 -0.1000  0.0278
17493TIP3    H173970   3.172   1.989   4.684 -0.6240 -1.7709  1.4184
17493TIP3    H273971   3.265   1.870   4.677  2.1080  0.3745 -1.6640
17494TIP3   OH273972   5.834   1.637  15.564  0.0303  0.6377  0.5406
17494TIP3    H173973   5.887   1.672  15.635 -0.4156  3.6026 -0.4598
17494TIP3    H273974   5.888   1.649  15.486 -0.3511 -0.5457  0.0700
17495TIP3   OH273975   5.175   3.426  16.851  0.2083  0.3867  0.1160
17495TIP3    H173976   5.241   3.390  16.910  0.3109  1.0468  0.4128
17495TIP3    H273977   5.093   3.385  16.878  0.4017 -0.0136  0.1086
17496TIP3   OH273978   5.870   1.733   0.854  0.0277 -0.1375  0.5631
17496TIP3    H173979   5.942   1.701   0.801 -0.7400 -0.0549 -0.5604
17496TIP3    H273980   5.791   1.699   0.811 -0.9926  4.1290 -1.4833
17497TIP3   OH273981   2.292   6.199   4.335 -0.1767 -0.3832 -0.3814
17497TIP3    H173982   2.295   6.291   4.311 -3.1176  1.0281  3.5832
17497TIP3    H273983   2.383   6.175   4.353  0.7675  1.3340 -2.4653
17498TIP3   OH273984   6.752   3.794   1.465 -0.2300  0.0098  0.5340
17498TIP3    H173985   6.823   3.847   1.501  0.2684  0.1302 -0.6071
17498TIP3    H273986   6.725   3.840   1.385 -2.3975  0.6241  1.5350
17499TIP3   OH273987   1.514   0.581   0.042  0.0072 -0.1964  0.3389
17499TIP3    H173988   1.603   0.546   0.053  0.4069  0.3105 -1.0872
17499TIP3    H273989   1.497   0.575  -0.052 -1.1284  0.5455  0.4751
17500TIP3   OH273990   5.456   1.353  12.447 -0.0642 -0.5115  0.2770
17500TIP3    H173991   5.530   1.348  12.507  0.2478 -0.1809 -0.0716
17500TIP3    H273992   5.394   1.413  12.489  0.1906 -0.2145  0.2301
17501TIP3   OH273993   0.434   2.618  13.389 -0.2363  0.5775  0.3813
17501TIP3    H173994   0.504   2.628  13.454  0.3277 -0.6255 -0.0075
17501TIP3    H273995   0.430   2.523  13.373 -1.0235  0.7662 -0.6246
17502TIP3   OH273996   4.498   0.058   0.411  0.0927 -0.1754 -0.2158
17502TIP3    H173997   4.449   0.031   0.489  0.8437  0.1569  0.3940
17502TIP3    H273998   4.504  -0.021   0.357 -2.9936  0.2725 -1.3925
17503TIP3   OH273999   1.910   5.354  16.269  0.1217 -0.0183 -0.3854
17503TIP3    H174000   1.937   5.263  16.257  1.7361  0.4709 -0.8224
17503TIP3    H274001   1.862   5.375  16.189  0.5019 -0.2402 -0.6766
17504TIP3   OH274002   5.056   0.798   5.769  0.4557  0.6366  0.2640
17504TIP3    H174003   5.004   0.775   5.847  1.0277 -0.9967  0.2016
17504TIP3    H274004   4.999   0.775   5.695  0.2471  1.3805  0.1834
17505TIP3   OH274005   6.561   5.257  14.207  0.1051  0.6045  0.4902
17505TIP3    H174006   6.512   5.207  14.141 -0.9630  0.6733  1.2099
17505TIP3    H274007   6.642   5.207  14.219 -0.3700 -0.2470  0.2467
17506TIP3   OH274008   1.989   1.278  12.488  0.3485 -0.3775 -0.2710
17506TIP3    H174009   1.934   1.244  12.558  0.1669 -0.1320 -0.2929
17506TIP3    H274010   1.990   1.209  12.422  0.0651 -0.3799 -0.2721
17507TIP3   OH274011   6.452   1.776  11.105  0.2824 -0.0612  0.3165
17507TIP3    H174012   6.491   1.863  11.113  3.4400 -1.2952 -0.3759
17507TIP3    H274013   6.498   1.723  11.169 -1.5477 -1.3101  0.6830
17508TIP3   OH274014   4.881   1.428  17.098  0.3517 -0.3937 -0.3013
17508TIP3    H174015   4.851   1.442  17.188  0.3325 -0.8755 -0.2298
17508TIP3    H274016   4.957   1.486  17.089 -0.7183  1.0159 -0.5617
17509TIP3   OH274017   6.516   4.617  11.833 -0.1240 -0.3592 -0.0018
17509TIP3    H174018   6.450   4.687  11.834 -0.3006 -0.4932 -1.0227
17509TIP3    H274019   6.581   4.645  11.897 -0.9159  0.0229  0.6710
17510TIP3   OH274020   5.678   2.205   2.032 -0.0725  0.0153  0.3576
17510TIP3    H174021   5.758   2.153   2.022  0.2061  0.5075  0.0274
17510TIP3    H274022   5.684   2.272   1.965 -0.3903  0.5313  0.8344
17511TIP3   OH274023   5.370   1.877   1.570  0.0711 -0.3817 -0.1625
17511TIP3    H174024   5.289   1.914   1.535 -0.0635 -0.8709 -0.3692
17511TIP3    H274025   5.403   1.945   1.629  0.7270  0.8300 -1.8421
17512TIP3   OH274026   0.868   1.136   2.921  0.1536  0.0808  0.9923
17512TIP3    H174027   0.842   1.049   2.951  1.1951  0.1778  2.2194
17512TIP3    H274028   0.805   1.156   2.851  1.3577 -2.6729 -1.0736
17513TIP3   OH274029   3.928   0.962   3.461  0.6337  0.0736 -0.0462
17513TIP3    H174030   4.008   0.909   3.467  1.6618  1.4821 -0.8538
17513TIP3    H274031   3.877   0.922   3.390  0.3225 -1.1690  0.8402
17514TIP3   OH274032   1.044   5.571  12.657  0.0690  0.0423 -0.1000
17514TIP3    H174033   1.052   5.483  12.693 -0.6363 -0.6768 -1.5896
17514TIP3    H274034   0.963   5.606  12.695  0.2494 -0.0353  0.3482
17515TIP3   OH274035   2.959   4.923  11.602  0.4610 -0.3482 -0.2527
17515TIP3    H174036   3.030   4.888  11.549  0.0328 -0.0910 -0.9989
17515TIP3    H274037   2.908   4.846  11.629  1.2000 -0.5660  0.5621
17516TIP3   OH274038   0.194   6.246   4.533  0.1371 -0.4471  0.1651
17516TIP3    H174039   0.167   6.217   4.445  0.4493 -1.0298  0.2619
17516TIP3    H274040   0.262   6.311   4.517 -0.6473  0.3483 -0.0549
17517TIP3   OH274041   0.506   2.769  15.401 -0.0794  0.3405 -0.4463
17517TIP3    H174042   0.411   2.771  15.397 -0.2783 -1.6640  1.3081
17517TIP3    H274043   0.533   2.727  15.320 -0.7288  0.4628 -0.7287
17518TIP3   OH274044   1.423   0.337   0.900  0.1131  0.5506  0.3517
17518TIP3    H174045   1.422   0.393   0.822  2.1943  0.7212  0.3925
17518TIP3    H274046   1.394   0.251   0.867  0.1219  0.8325 -0.4248
17519TIP3   OH274047   3.860   2.432   1.935  0.2973  0.1363  0.0606
17519TIP3    H174048   3.782   2.379   1.918  1.1034 -1.3656  0.8575
17519TIP3    H274049   3.888   2.462   1.848 -1.7930  1.7061 -0.1533
17520TIP3   OH274050   5.481   3.677   1.973  0.5146  0.0495 -0.3924
17520TIP3    H174051   5.514   3.619   1.904 -0.7562 -1.0759 -0.1063
17520TIP3    H274052   5.477   3.621   2.051 -0.8443  0.4976 -0.1261
17521TIP3   OH274053   3.686   0.684   2.161  0.0840 -0.1525  0.2355
17521TIP3    H174054   3.611   0.669   2.218  0.5833 -2.1414  0.4310
17521TIP3    H274055   3.758   0.704   2.220  0.1035  0.0396  0.1488
17522TIP3   OH274056   5.086   6.805   2.690 -0.1238 -0.2823 -0.0575
17522TIP3    H174057   5.179   6.785   2.699 -0.1074 -0.3458 -0.3359
17522TIP3    H274058   5.084   6.890   2.645 -0.1940  0.3155  1.0593
17523TIP3   OH274059   6.369   3.034   6.467 -0.4084  0.3412 -0.3127
17523TIP3    H174060   6.455   3.049   6.427 -0.5682 -0.8255 -1.1264
17523TIP3    H274061   6.371   2.944   6.497 -1.2578  0.3800 -0.1028
17524TIP3   OH274062   2.818   0.021   0.052 -0.4666 -0.2282  0.0129
17524TIP3    H174063   2.844   0.059  -0.032  1.1140 -0.8605  0.1864
17524TIP3    H274064   2.772   0.092   0.096  1.7880  1.3540  0.0259
17525TIP3   OH274065   2.081   0.986  11.280 -0.1863  0.0226  0.1747
17525TIP3    H174066   2.140   0.957  11.350  0.0325 -1.0992 -0.4351
17525TIP3    H274067   2.003   0.932  11.291  0.0999 -0.6429 -0.7962
17526TIP3   OH274068   6.798   5.185   1.101 -0.4356  0.1995  0.4117
17526TIP3    H174069   6.872   5.199   1.160 -0.4042  1.1566  0.1625
17526TIP3    H274070   6.729   5.150   1.157  0.2290 -0.7828  0.6322
17527TIP3   OH274071   4.137   4.564  16.224  0.3057 -0.3065  0.1586
17527TIP3    H174072   4.130   4.596  16.134  0.9492 -1.8507 -0.4655
17527TIP3    H274073   4.107   4.473  16.219  0.5598 -0.4697  1.4743
17528TIP3   OH274074   3.053   1.594  13.502  0.3281 -0.1269 -0.0918
17528TIP3    H174075   3.123   1.534  13.475  0.2875 -0.1092 -0.2415
17528TIP3    H274076   3.086   1.636  13.581 -0.6527 -2.1507  1.4589
17529TIP3   OH274077   6.823   6.007   4.644  0.6189 -0.3152 -0.4813
17529TIP3    H174078   6.805   5.916   4.667  0.9571 -0.6674 -1.5459
17529TIP3    H274079   6.763   6.026   4.572  0.6196  0.2709 -0.3303
17530TIP3   OH274080   1.989   3.850   5.805 -0.0881  0.0906 -0.0122
17530TIP3    H174081   1.969   3.888   5.890 -2.1724 -1.1830  0.1275
17530TIP3    H274082   1.986   3.923   5.744 -1.3110  0.6035  0.6313
17531TIP3   OH274083   5.146   0.082   5.318 -0.3037  0.3696 -0.1035
17531TIP3    H174084   5.231   0.089   5.276 -0.2871 -0.0420 -0.1459
17531TIP3    H274085   5.086   0.058   5.248 -0.8984  2.8544 -0.5392
17532TIP3   OH274086   1.056   2.433   0.850 -0.4153  0.7148 -1.2082
17532TIP3    H174087   1.046   2.528   0.846 -0.9615  0.7693  0.6227
17532TIP3    H274088   1.150   2.419   0.854 -0.2723  1.0811 -2.6179
17533TIP3   OH274089   3.527   6.666   3.938  0.2704 -0.1815 -0.1097
17533TIP3    H174090   3.564   6.579   3.926 -0.2346 -0.3178 -0.7909
17533TIP3    H274091   3.527   6.680   4.032  1.5371 -0.3904 -0.0700
17534TIP3   OH274092   4.816   2.666  12.913  0.0067  0.0872 -0.0666
17534TIP3    H174093   4.823   2.726  12.988  0.7658 -0.2249  0.1165
17534TIP3    H274094   4.901   2.671  12.870 -0.9599  1.5958 -1.9621
17535TIP3   OH274095   0.112   4.056  16.774 -0.0927 -0.1974 -0.0177
17535TIP3    H174096   0.134   3.969  16.808  1.0585 -0.0172 -0.2417
17535TIP3    H274097   0.195   4.090  16.740 -0.2786  1.4574  1.0764
17536TIP3   OH274098   5.215   5.449  15.633  0.1935 -0.1101 -0.3376
17536TIP3    H174099   5.290   5.402  15.670  2.5798  2.7407 -1.2288
17536TIP3    H274100   5.194   5.403  15.552 -0.2016 -1.9270  0.7420
17537TIP3   OH274101   4.350   2.201   1.660  0.1270 -0.1693  0.1586
17537TIP3    H174102   4.364   2.109   1.638 -1.6121 -0.5103  0.3784
17537TIP3    H274103   4.255   2.213   1.659  0.3295  2.1218 -1.8265
17538TIP3   OH274104   6.472   5.090  12.373 -0.6967  0.0550 -0.3334
17538TIP3    H174105   6.551   5.107  12.425 -0.2196 -2.0877 -0.2480
17538TIP3    H274106   6.466   5.164  12.313  1.6584  0.0801 -0.6472
17539TIP3   OH274107   6.584   4.065  10.687 -0.1999  0.3306 -0.2651
17539TIP3    H174108   6.607   4.134  10.625  0.7946 -0.1384 -0.4320
17539TIP3    H274109   6.627   3.987  10.653  1.5679  0.3394  1.7486
17540TIP3   OH274110   4.447   4.566   3.933 -0.1421 -0.2763 -0.2807
17540TIP3    H174111   4.518   4.529   3.881 -1.6843 -0.2366 -2.5766
17540TIP3    H274112   4.458   4.661   3.924 -0.1936 -0.2658 -0.2342
17541TIP3   OH274113   4.265   3.527   5.108  0.7537  0.4098 -0.2762
17541TIP3    H174114   4.220   3.582   5.171 -0.4981  0.6453 -1.3261
17541TIP3    H274115   4.339   3.580   5.079  0.3095  1.0247 -0.3166
17542TIP3   OH274116   4.575   3.798  13.503 -0.0387  0.2206 -0.0501
17542TIP3    H174117   4.487   3.829  13.526  0.4674  1.3134  0.4957
17542TIP3    H274118   4.625   3.878  13.486 -0.0312 -0.4299 -3.9717
17543TIP3   OH274119   2.087   5.748  12.164 -0.3798 -0.1206 -0.2426
17543TIP3    H174120   2.067   5.841  12.167  2.0609  0.4497  1.8476
17543TIP3    H274121   2.164   5.742  12.107  0.5026 -0.5902  0.9699
17544TIP3   OH274122   1.850   1.942   2.737 -0.6071 -0.0280  0.4070
17544TIP3    H174123   1.927   1.966   2.685  0.4384 -0.9026  1.5024
17544TIP3    H274124   1.828   2.022   2.784 -1.0047  0.5129 -0.6633
17545TIP3   OH274125   2.142   1.815   3.676  0.2691  0.0124  0.5837
17545TIP3    H174126   2.068   1.821   3.615  1.2583  0.7183 -0.5916
17545TIP3    H274127   2.117   1.870   3.750 -0.8275 -0.6273  0.7112
17546TIP3   OH274128   2.303   2.967  14.476  0.3239  0.2547  0.4657
17546TIP3    H174129   2.334   3.054  14.453  3.3484 -0.0298  2.8229
17546TIP3    H274130   2.243   2.982  14.550 -0.6547  0.3937 -0.3274
17547TIP3   OH274131   2.163   0.057   5.048  0.4984 -0.1628  0.1823
17547TIP3    H174132   2.106   0.124   5.010  1.1630 -0.1286 -0.7795
17547TIP3    H274133   2.155  -0.018   4.989 -1.2597 -1.4657  1.9440
17548TIP3   OH274134   4.147   0.473  12.564  0.4024  0.6173 -0.2558
17548TIP3    H174135   4.235   0.447  12.537  0.5027 -1.4680  1.7824
17548TIP3    H274136   4.091   0.400  12.538 -0.2319  0.6742  0.8570
17549TIP3   OH274137   0.491   0.747   1.270 -0.1142 -0.5200  0.1503
17549TIP3    H174138   0.432   0.817   1.299  0.1449 -0.8819  1.6600
17549TIP3    H274139   0.434   0.679   1.235 -0.3482  0.5730 -1.7291
17550TIP3   OH274140   3.943   3.185   2.762 -0.4082 -0.9728  0.7852
17550TIP3    H174141   3.938   3.174   2.668 -0.3403  0.2504  0.6228
17550TIP3    H274142   3.854   3.209   2.789 -0.0217  0.5896  0.7440
17551TIP3   OH274143   1.266   1.291  14.027  0.1875 -0.6132 -0.2141
17551TIP3    H174144   1.348   1.335  14.007  0.6222 -1.3518 -0.0604
17551TIP3    H274145   1.284   1.238  14.104 -0.3744 -0.9406 -0.2984
17552TIP3   OH274146   2.799   0.044   3.945 -0.7110 -0.2745 -0.0924
17552TIP3    H174147   2.734  -0.007   3.897  0.9968 -0.7494 -2.0675
17552TIP3    H274148   2.830  -0.015   4.014 -1.1235 -0.6797 -0.2517
17553TIP3   OH274149   3.415   3.589  11.590 -0.1728 -0.3085 -0.6339
17553TIP3    H174150   3.328   3.577  11.629  0.1033 -1.2600 -0.2719
17553TIP3    H274151   3.440   3.501  11.560  0.0446  0.2279 -2.0792
17554TIP3   OH274152   0.630   4.924  14.556 -0.1861  0.3732 -0.0431
17554TIP3    H174153   0.708   4.971  14.527 -0.2455  0.1910 -0.4975
17554TIP3    H274154   0.557   4.965  14.509 -0.1667 -0.5832 -0.9477
17555TIP3   OH274155   4.982   2.581  15.038 -0.6578  0.2363  0.4736
17555TIP3    H174156   4.917   2.646  15.009  0.0124  1.2053  1.0733
17555TIP3    H274157   4.969   2.506  14.980 -0.7921  1.2843 -0.9044
17556TIP3   OH274158   5.326   1.651   3.512  0.2599  0.2376 -0.3130
17556TIP3    H174159   5.350   1.582   3.574 -2.0282  0.5205  0.9867
17556TIP3    H274160   5.296   1.604   3.435  0.0933 -0.1945  0.0088
17557TIP3   OH274161   6.276   3.737  13.848 -0.1910  1.0821 -0.4182
17557TIP3    H174162   6.339   3.785  13.903  1.0600 -0.2140 -0.6581
17557TIP3    H274163   6.309   3.748  13.759  0.9057 -1.2470 -0.3657
17558TIP3   OH274164   1.958   5.247  13.868 -0.1258  0.6092  0.7356
17558TIP3    H174165   2.004   5.296  13.799 -0.6735  0.1758  0.0542
17558TIP3    H274166   1.869   5.282  13.867 -0.7588 -0.9445 -0.3177
17559TIP3   OH274167   4.931   1.370   0.752 -0.5906 -0.1241 -0.1011
17559TIP3    H174168   4.930   1.320   0.833 -0.1178  1.4911  0.9543
17559TIP3    H274169   4.890   1.454   0.775 -2.3422 -0.3359 -2.0533
17560TIP3   OH274170   0.148   6.443  11.994  0.4280  0.1241  0.3070
17560TIP3    H174171   0.058   6.412  12.010  0.5813 -0.3778  0.2078
17560TIP3    H274172   0.139   6.504  11.920  0.5270 -2.0162 -1.5911
17561TIP3   OH274173   1.688   3.106  11.756 -0.5024 -0.1475 -0.2783
17561TIP3    H174174   1.764   3.140  11.805 -0.9728 -0.4111  0.6667
17561TIP3    H274175   1.697   3.143  11.669  0.3411  0.3898  0.0239
17562TIP3   OH274176   6.762   3.210  12.724 -0.0425  0.3142 -0.5476
17562TIP3    H174177   6.780   3.133  12.777 -1.8728 -0.7790 -1.4212
17562TIP3    H274178   6.667   3.211  12.714 -0.1252  2.9891 -0.1586
17563TIP3   OH274179   3.621   3.169  11.385 -0.2045 -0.6344 -0.7029
17563TIP3    H174180   3.701   3.132  11.348  0.1379  1.4139 -2.2224
17563TIP3    H274181   3.550   3.119  11.345  0.1679 -4.1711  2.5299
17564TIP3   OH274182   5.687   6.313  16.930  0.4536  0.3824  0.6126
17564TIP3    H174183   5.710   6.402  16.903  0.3944  0.2395  0.0673
17564TIP3    H274184   5.591   6.310  16.920  0.5478 -0.0295 -0.3035
17565TIP3   OH274185   3.180   5.561   6.348 -0.4923  0.5072 -0.2827
17565TIP3    H174186   3.084   5.554   6.349 -0.4638  0.0845 -0.5490
17565TIP3    H274187   3.198   5.637   6.403 -0.9228 -0.0693  0.6712
17566TIP3   OH274188   3.152   2.883   4.257 -0.6557  0.0800 -0.4580
17566TIP3    H174189   3.146   2.852   4.167 -1.9505  1.1562 -0.7716
17566TIP3    H274190   3.229   2.838   4.293 -0.9114 -1.3863 -1.6716
17567TIP3   OH274191   3.214   5.291  16.480 -0.0401 -0.3462 -0.7236
17567TIP3    H174192   3.292   5.276  16.533  0.3671 -0.1330 -1.2568
17567TIP3    H274193   3.184   5.378  16.505 -0.6546 -0.7994  0.1634
17568TIP3   OH274194   2.526   2.090  13.676 -0.0937  0.0013  0.0313
17568TIP3    H174195   2.557   2.008  13.637  0.2242  0.3365 -0.4362
17568TIP3    H274196   2.431   2.082  13.676 -0.0988 -0.0684 -0.6999
17569TIP3   OH274197   1.070   4.382   4.294  0.2532 -0.7155  0.1352
17569TIP3    H174198   1.013   4.399   4.219  0.6545 -0.6957 -0.1643
17569TIP3    H274199   1.017   4.327   4.352 -0.1827 -0.4430 -0.0010
17570TIP3   OH274200   5.992   2.722   4.459  0.6241 -0.3009 -0.1591
17570TIP3    H174201   6.034   2.689   4.380  0.0495  1.6108 -1.2993
17570TIP3    H274202   6.050   2.694   4.530  1.5632 -1.3552 -1.2997
17571TIP3   OH274203   4.785   0.488   6.180 -0.9840 -0.6810  0.3628
17571TIP3    H174204   4.833   0.530   6.109 -3.2185 -0.6446 -1.2301
17571TIP3    H274205   4.830   0.405   6.194 -0.4262 -0.6409 -1.0129
17572TIP3   OH274206   6.540   0.082   4.516  0.7010 -0.1884  0.2979
17572TIP3    H174207   6.532   0.013   4.450  0.0785 -0.0629  0.2404
17572TIP3    H274208   6.450   0.112   4.530  1.1493  2.2103 -1.3594
17573TIP3   OH274209   6.471   1.458   0.553  0.2762 -0.1924 -0.3310
17573TIP3    H174210   6.553   1.438   0.507  0.3105  1.2498 -0.9336
17573TIP3    H274211   6.450   1.377   0.600  2.9561 -0.0916  1.2572
17574TIP3   OH274212   4.781   3.016   0.773 -0.7596 -0.2172  0.0556
17574TIP3    H174213   4.831   2.969   0.706 -1.1470  1.8551 -1.7789
17574TIP3    H274214   4.838   3.015   0.850  0.3498 -1.3910 -0.7429
17575TIP3   OH274215   3.359   3.824  15.575 -0.2184  0.1038 -0.6059
17575TIP3    H174216   3.440   3.788  15.611  1.6511  3.5416 -0.9739
17575TIP3    H274217   3.291   3.792  15.635  1.8101 -0.3347  1.6597
17576TIP3   OH274218   3.006   5.644   2.574  0.1951  0.0063  0.0215
17576TIP3    H174219   3.031   5.699   2.499 -0.9580  0.0749 -0.3248
17576TIP3    H274220   2.965   5.705   2.635 -2.4028 -0.6174 -0.9694
17577TIP3   OH274221   2.468   3.864   4.354  0.4602  0.1832  0.1313
17577TIP3    H174222   2.401   3.806   4.317  0.7837 -0.4748  0.5616
17577TIP3    H274223   2.418   3.928   4.405  0.0743  0.5314 -0.6790
17578TIP3   OH274224   5.534   0.304   3.431  0.0334 -0.4255  0.5673
17578TIP3    H174225   5.581   0.254   3.364 -1.0005 -2.6926  1.4181
17578TIP3    H274226   5.557   0.395   3.415  4.2781 -1.3078  0.6163
17579TIP3   OH274227   4.061   5.906  16.947 -0.4044 -0.2831 -0.1736
17579TIP3    H174228   4.047   5.812  16.959  0.1275 -0.4935 -1.1281
17579TIP3    H274229   4.110   5.933  17.025 -1.9788 -0.4489  0.9253
17580TIP3   OH274230   0.209   1.052   0.715  0.5660 -0.8561 -0.1629
17580TIP3    H174231   0.170   0.965   0.721  1.6628 -1.5312 -1.9855
17580TIP3    H274232   0.277   1.052   0.782 -1.1570 -0.3723  1.6913
17581TIP3   OH274233   3.155   3.679  15.173 -0.4464 -0.6281  0.8218
17581TIP3    H174234   3.164   3.755  15.116 -0.5349 -1.1263  0.1227
17581TIP3    H274235   3.128   3.715  15.257  0.0539  0.1581  0.6623
17582TIP3   OH274236   6.326   4.712   1.779  0.6467  0.3695  0.5316
17582TIP3    H174237   6.258   4.779   1.771  0.7393  0.3858 -0.1267
17582TIP3    H274238   6.292   4.652   1.846  1.8255  2.5944  3.3634
17583TIP3   OH274239   2.198   1.762   6.586 -1.0319 -0.2227  0.2961
17583TIP3    H174240   2.267   1.826   6.569 -1.4207  0.0663 -0.2167
17583TIP3    H274241   2.139   1.806   6.647  0.1107 -1.0865  2.1153
17584TIP3   OH274242   3.890   1.401   0.772  0.6177 -0.0396 -0.1263
17584TIP3    H174243   3.936   1.448   0.703 -2.0454  0.7328 -1.5516
17584TIP3    H274244   3.817   1.458   0.795 -1.4647 -2.4339 -0.3022
17585TIP3   OH274245   1.315   5.558  11.279  0.5323 -0.3518  0.1564
17585TIP3    H174246   1.336   5.577  11.371 -0.0172 -0.5750  0.3326
17585TIP3    H274247   1.251   5.488  11.283 -0.5751  0.5915 -0.3339
17586TIP3   OH274248   5.105   5.875  13.508 -0.7018  0.4797  0.3407
17586TIP3    H174249   5.027   5.822  13.494 -1.0577  0.6347  1.6268
17586TIP3    H274250   5.072   5.962  13.528 -0.1448  0.9705 -0.7849
17587TIP3   OH274251   4.906   5.823   1.789  0.1198 -0.4649 -0.1833
17587TIP3    H174252   4.900   5.811   1.694 -0.4345  0.3891 -0.2721
17587TIP3    H274253   4.958   5.749   1.820 -0.7392 -1.4479 -1.0077
17588TIP3   OH274254   4.005   3.218  13.404 -0.5826  0.0382 -0.7939
17588TIP3    H174255   4.036   3.193  13.317 -2.0729  1.3367 -1.7580
17588TIP3    H274256   3.910   3.210  13.399 -0.8582  2.0830  0.0363
17589TIP3   OH274257   0.914   2.156  13.884 -0.2176  0.6861  0.3270
17589TIP3    H174258   0.941   2.138  13.794 -0.6361  3.2022 -0.3818
17589TIP3    H274259   0.995   2.178  13.930  0.0022 -0.6465  0.6040
17590TIP3   OH274260   2.055   1.368   0.902  0.5885  0.0866  0.3150
17590TIP3    H174261   2.140   1.325   0.911  1.8874  1.6307 -2.9816
17590TIP3    H274262   2.006   1.311   0.842  0.5773  0.8380 -0.4014
17591TIP3   OH274263   1.411   2.600  16.667 -0.5163  0.1008 -0.4049
17591TIP3    H174264   1.456   2.538  16.724  0.4536  1.8658  0.8444
17591TIP3    H274265   1.328   2.617  16.711 -0.1211  0.8330  0.0772
17592TIP3   OH274266   0.855   3.379  13.523  0.4938 -0.0774  0.8114
17592TIP3    H174267   0.804   3.458  13.540  1.2396  0.4295  0.7446
17592TIP3    H274268   0.792   3.308  13.533 -0.3755  0.5619  0.1185
17593TIP3   OH274269   5.186   5.507   2.235  0.3457  0.2795  0.3879
17593TIP3    H174270   5.145   5.471   2.157  0.0853  0.1363  0.5907
17593TIP3    H274271   5.280   5.507   2.215  0.1261  2.6554 -0.9460
17594TIP3   OH274272   2.018   5.737   3.280 -0.3178  0.0717  0.0284
17594TIP3    H174273   2.041   5.714   3.370  0.2837 -1.1765 -0.4198
17594TIP3    H274274   1.931   5.698   3.267 -0.3823  0.2072  0.0539
17595TIP3   OH274275   5.765   0.016   5.315 -0.3495 -0.1781  0.3604
17595TIP3    H174276   5.739  -0.077   5.312 -0.3258 -0.2543  1.7906
17595TIP3    H274277   5.692   0.060   5.358  1.0155 -0.1107  2.8208
17596TIP3   OH274278   0.897   4.712  12.707  0.5385 -0.0392  0.0108
17596TIP3    H174279   0.934   4.628  12.734  0.4393  0.0869  0.5588
17596TIP3    H274280   0.874   4.755  12.790  1.6564  1.0139 -0.2000
17597TIP3   OH274281   6.067   0.131  10.550 -0.1282  0.7376 -0.4652
17597TIP3    H174282   6.086   0.223  10.532 -1.9231  0.9497 -1.5016
17597TIP3    H274283   6.153   0.089  10.552  0.9658  2.8014  2.5566
17598TIP3   OH274284   6.413   6.503  11.245  0.3522  0.0198  0.1162
17598TIP3    H174285   6.379   6.523  11.158 -0.0931 -0.5474  0.1502
17598TIP3    H274286   6.423   6.588  11.288  2.5698  0.5034 -1.1968
17599TIP3   OH274287   6.309   0.419   0.725  0.5276 -0.0275  0.4802
17599TIP3    H174288   6.386   0.372   0.756 -0.0864 -1.6597 -0.3370
17599TIP3    H274289   6.247   0.414   0.797  1.3747  1.9292  1.4300
17600TIP3   OH274290   1.279   2.412   6.895  0.0300  0.1347 -0.2717
17600TIP3    H174291   1.348   2.464   6.936 -1.8408  1.1521  1.7535
17600TIP3    H274292   1.263   2.456   6.811  1.2714  0.3287 -0.4282
17601TIP3   OH274293   1.777   4.508  15.556 -0.2379  0.4350 -0.1588
17601TIP3    H174294   1.807   4.562  15.483  0.8106 -1.7526 -1.4556
17601TIP3    H274295   1.684   4.495  15.538 -0.0144 -0.0011 -1.1025
17602TIP3   OH274296   6.599   5.166   3.022 -0.0730 -0.2200 -0.3949
17602TIP3    H174297   6.628   5.193   2.934  2.5661 -3.5002 -0.7623
17602TIP3    H274298   6.678   5.172   3.075 -1.0115 -0.7095  1.1024
17603TIP3   OH274299   2.854   5.502   2.251 -0.5287  0.3120  0.1638
17603TIP3    H174300   2.864   5.407   2.246  1.2549  0.4159  1.0766
17603TIP3    H274301   2.781   5.516   2.312  1.0056 -0.4777  2.2727
17604TIP3   OH274302   3.063   2.273  15.903  0.2832 -0.0297 -0.6355
17604TIP3    H174303   3.123   2.303  15.972 -0.4905  3.2945 -1.2343
17604TIP3    H274304   2.989   2.235  15.950  1.2091 -0.7945  0.2282
17605TIP3   OH274305   5.050   1.497   1.766 -0.3675  0.3716  0.4200
17605TIP3    H174306   5.047   1.585   1.730  1.5933  0.7711  1.1111
17605TIP3    H274307   5.114   1.451   1.711 -0.8450 -0.4118  0.5086
17606TIP3   OH274308   5.711   4.142  15.533  0.2394 -0.3527  0.0776
17606TIP3    H174309   5.671   4.184  15.457 -0.4031  1.2351  1.2367
17606TIP3    H274310   5.639   4.128  15.594  0.7138 -1.7682  0.3661
17607TIP3   OH274311   2.310   0.582  13.094  0.1012 -0.5098  0.4199
17607TIP3    H174312   2.345   0.577  13.005 -2.7423 -0.7040 -0.7948
17607TIP3    H274313   2.284   0.492  13.114  1.4599 -0.6285  1.8540
17608TIP3   OH274314   3.726   1.656  15.113 -0.1191  0.4117 -0.1574
17608TIP3    H174315   3.821   1.664  15.119 -0.1832  0.5218  0.8906
17608TIP3    H274316   3.704   1.584  15.173 -0.5270 -0.9279 -1.8186
17609TIP3   OH274317   5.964   4.313  14.392 -0.0324  0.1222  0.0972
17609TIP3    H174318   6.052   4.351  14.400  1.1163 -2.3646  0.2377
17609TIP3    H274319   5.977   4.233  14.341 -2.3164 -0.0961 -0.2538
17610TIP3   OH274320   2.551   0.143  12.482  0.0017 -0.1629 -0.4397
17610TIP3    H174321   2.607   0.164  12.407 -1.2380  0.3114 -1.2467
17610TIP3    H274322   2.563   0.216  12.543  0.7040 -0.3571 -0.3335
17611TIP3   OH274323   3.936   4.908  14.004  0.3138  0.3720  0.0833
17611TIP3    H174324   4.018   4.874  14.039 -0.1028  1.6963  2.5596
17611TIP3    H274325   3.868   4.861  14.052 -0.3108  1.1854  0.0184
17612TIP3   OH274326   3.795   5.847   4.566  0.3453  0.5133 -0.2901
17612TIP3    H174327   3.772   5.935   4.596  0.7758  0.3898  0.4420
17612TIP3    H274328   3.754   5.789   4.631  0.8926  0.2152 -0.2088
17613TIP3   OH274329   4.972   0.802  14.888  0.3871 -0.2623 -0.2128
17613TIP3    H174330   5.030   0.872  14.917  0.2034 -0.3888  0.4848
17613TIP3    H274331   4.891   0.816  14.938  0.1004 -0.5552 -0.5893
17614TIP3   OH274332   4.537   2.809   2.620  0.1359  0.5617 -0.2777
17614TIP3    H174333   4.473   2.869   2.660  0.3442  1.3921 -1.1368
17614TIP3    H274334   4.596   2.867   2.571  1.1207 -0.2572 -0.0783
17615TIP3   OH274335   6.579   6.035   5.277 -0.2060 -0.1937  0.3833
17615TIP3    H174336   6.522   6.047   5.353 -2.1666  0.1210 -1.0570
17615TIP3    H274337   6.625   6.119   5.268 -0.1553 -0.1431  1.0530
17616TIP3   OH274338   1.332   4.999   2.395 -0.7239 -0.3922 -0.0450
17616TIP3    H174339   1.310   4.969   2.483 -1.9332 -1.1676 -0.5854
17616TIP3    H274340   1.312   5.093   2.395  0.6517 -0.0759  0.9093
17617TIP3   OH274341   2.614   0.872  13.245  0.1376 -0.4865 -0.1709
17617TIP3    H174342   2.617   0.936  13.174  1.2971  1.3697  1.4362
17617TIP3    H274343   2.525   0.837  13.242  0.3460 -0.9647 -2.8859
17618TIP3   OH274344   6.369   2.174  12.888  0.3501 -0.2971  0.5495
17618TIP3    H174345   6.325   2.089  12.887 -2.8549  1.2152 -0.9972
17618TIP3    H274346   6.436   2.168  12.820  0.1815 -1.5833  0.4785
17619TIP3   OH274347   1.319   0.876   2.536  0.6473  0.5932  0.1466
17619TIP3    H174348   1.331   0.961   2.579 -1.0902  0.8397  0.2190
17619TIP3    H274349   1.292   0.817   2.606 -0.2273  0.5182 -0.2333
17620TIP3   OH274350   3.598   0.987   1.242  0.3144  0.1599 -0.3465
17620TIP3    H174351   3.588   0.895   1.263 -1.3032  0.1423 -1.0762
17620TIP3    H274352   3.673   1.016   1.294 -0.3703 -1.0789  1.4040
17621TIP3   OH274353   0.204   3.985  13.458  0.0426 -0.0408  0.3301
17621TIP3    H174354   0.110   3.990  13.474 -0.1344  0.8160 -0.7558
17621TIP3    H274355   0.214   3.911  13.398  0.2259 -0.8828  1.3790
17622TIP3   OH274356   1.184   1.238   4.155 -0.5797 -0.5384 -0.8870
17622TIP3    H174357   1.200   1.193   4.071  0.6952 -0.6913 -0.5882
17622TIP3    H274358   1.117   1.185   4.198 -0.2378 -1.2672 -1.2270
17623TIP3   OH274359   5.303   4.651  14.333  0.3891  0.0923  0.0666
17623TIP3    H174360   5.342   4.598  14.403  0.1780 -0.5917 -0.3235
17623TIP3    H274361   5.211   4.657  14.356 -0.1183 -1.8807 -1.1746
17624TIP3   OH274362   6.833   6.116  16.559 -0.7302  0.3669 -0.1559
17624TIP3    H174363   6.855   6.159  16.642  0.3117  1.6838 -1.0672
17624TIP3    H274364   6.811   6.188  16.500  1.6216 -0.2352 -1.8926
17625TIP3   OH274365   2.729   3.383  15.095  0.3732 -0.3097 -0.0803
17625TIP3    H174366   2.647   3.338  15.118 -0.3533  0.9307 -0.1225
17625TIP3    H274367   2.798   3.324  15.125 -0.5119 -1.7754 -0.7617
17626TIP3   OH274368   5.967   3.733  12.184  0.3604 -0.5352  0.4002
17626TIP3    H174369   5.907   3.750  12.256  2.4787  1.6689  1.7772
17626TIP3    H274370   6.005   3.818  12.163  2.1735 -1.6441 -1.1632
17627TIP3   OH274371   4.832   5.272   3.006  0.0147 -0.6463 -0.0233
17627TIP3    H174372   4.820   5.206   3.075 -1.0090 -0.4811 -0.0150
17627TIP3    H274373   4.797   5.352   3.044  1.7849  0.0664  0.1761
17628TIP3   OH274374   1.217   6.492  11.197 -0.3689  0.4543  0.0978
17628TIP3    H174375   1.238   6.450  11.113  1.1398  1.4303 -0.0508
17628TIP3    H274376   1.175   6.575  11.171  0.9217  1.1805  0.2542
17629TIP3   OH274377   0.185   3.877  14.093  1.0334  0.5636 -0.6690
17629TIP3    H174378   0.145   3.791  14.108  1.2060  0.2530 -1.8365
17629TIP3    H274379   0.203   3.911  14.180 -0.6420  0.1799 -0.1408
17630TIP3   OH274380   3.332   3.988  11.754  0.3312 -0.6339  0.2628
17630TIP3    H174381   3.304   4.078  11.737  1.8583 -0.2338 -0.3064
17630TIP3    H274382   3.250   3.939  11.768 -0.5599  0.6684 -0.2436
17631TIP3   OH274383   1.093   2.415  12.830  0.5530  0.6771  0.5150
17631TIP3    H174384   1.163   2.444  12.771  0.8002  0.7248  0.8241
17631TIP3    H274385   1.045   2.349  12.781  2.0871 -0.8846  1.0180
17632TIP3   OH274386   3.408   5.179   0.708 -0.2079  0.1957 -0.8489
17632TIP3    H174387   3.490   5.211   0.671  0.0784  0.4377 -0.0282
17632TIP3    H274388   3.385   5.104   0.653  1.2981 -0.7425 -0.2506
17633TIP3   OH274389   0.804   5.988   4.638 -0.1780 -0.4391  0.2987
17633TIP3    H174390   0.828   5.896   4.648 -0.4934 -0.4064  1.5026
17633TIP3    H274391   0.776   6.016   4.725  0.2787  0.9099  0.0485
17634TIP3   OH274392   6.040   6.633  16.282 -0.1514 -0.2643 -0.1714
17634TIP3    H174393   6.042   6.684  16.363  0.8222  1.2569 -1.1024
17634TIP3    H274394   5.949   6.636  16.254 -0.1891  0.6417  0.0136
17635TIP3   OH274395   4.314   1.369  11.396 -0.1330  0.0254 -0.0780
17635TIP3    H174396   4.364   1.409  11.467 -0.7318  0.0619  0.3343
17635TIP3    H274397   4.308   1.437  11.330 -2.1189  1.0799  1.0889
17636TIP3   OH274398   6.120   5.766  15.260 -0.3194  0.6766 -0.2350
17636TIP3    H174399   6.189   5.703  15.238 -2.1834 -1.2519 -1.0133
17636TIP3    H274400   6.146   5.803  15.344  0.4014 -1.9595  0.8013
17637TIP3   OH274401   2.403   3.733   3.649 -0.1342 -0.0855 -0.2497
17637TIP3    H174402   2.472   3.727   3.715  0.1275 -2.2012 -0.6644
17637TIP3    H274403   2.430   3.673   3.580 -2.3495 -0.9231 -0.4528
17638TIP3   OH274404   4.033   6.220  10.910 -0.3282  0.0682 -0.4393
17638TIP3    H174405   4.051   6.138  10.864  0.0920 -0.5828  0.8179
17638TIP3    H274406   4.082   6.212  10.992 -2.7235  0.2111  1.0920
17639TIP3   OH274407   5.728   5.798   4.795  0.0960 -0.4722 -0.6010
17639TIP3    H174408   5.655   5.760   4.844  0.1127  1.9400  1.5196
17639TIP3    H274409   5.695   5.809   4.706 -0.8571 -2.6003 -0.5700
17640TIP3   OH274410   2.185   0.830   5.961 -0.2353 -0.0874 -0.8903
17640TIP3    H174411   2.184   0.883   5.881 -1.1431  1.9123  0.3620
17640TIP3    H274412   2.250   0.871   6.017 -0.3228 -0.8435 -0.2036
17641TIP3   OH274413   1.036   0.055   3.180  0.3573  0.5059  0.5586
17641TIP3    H174414   1.129   0.075   3.183  1.1913 -2.0581 -2.6662
17641TIP3    H274415   1.028  -0.032   3.221 -0.2654 -0.0948 -0.7704
17642TIP3   OH274416   3.755   0.118  11.177 -0.1602 -0.2835  0.0673
17642TIP3    H174417   3.773   0.181  11.107 -0.1212 -0.0869  0.2542
17642TIP3    H274418   3.840   0.102  11.218  0.5575 -3.1402 -2.1826
17643TIP3   OH274419   5.816   6.047  15.089  0.0141  0.0696 -0.2985
17643TIP3    H174420   5.807   6.120  15.028 -2.0156  0.3868  0.2894
17643TIP3    H274421   5.863   6.084  15.164  1.4458 -0.0074 -1.1166
17644TIP3   OH274422   4.398   5.589  13.320 -1.1419 -0.3426  0.2368
17644TIP3    H174423   4.448   5.669  13.337  0.1721 -1.2557  0.7627
17644TIP3    H274424   4.423   5.529  13.390 -0.9207 -1.7696 -1.0172
17645TIP3   OH274425   4.061   4.637  14.268 -0.3929  0.3817  0.0445
17645TIP3    H174426   4.128   4.677  14.212 -0.3835 -0.1785 -0.3482
17645TIP3    H274427   4.037   4.706  14.330  1.6971  0.1050  1.2411
17646TIP3   OH274428   1.656   6.074   5.794 -0.0662  0.1439  0.2919
17646TIP3    H174429   1.584   6.037   5.743  0.1653  1.0754 -0.7368
17646TIP3    H274430   1.712   5.999   5.815 -0.4167 -0.3259 -0.4212
17647TIP3   OH274431   3.599   2.300  12.708  0.3306  0.0627  0.0956
17647TIP3    H174432   3.679   2.294  12.761  1.1882 -0.8130 -1.2279
17647TIP3    H274433   3.535   2.248  12.756  0.8183  0.0515  0.7516
17648TIP3   OH274434   3.168   0.226   1.364  0.8338  0.0833  0.5151
17648TIP3    H174435   3.168   0.322   1.371  1.8635  0.1719 -0.3812
17648TIP3    H274436   3.154   0.209   1.271 -0.2532 -0.6774  0.7975
17649TIP3   OH274437   2.348   5.648  14.605 -0.4244  0.1911  0.0967
17649TIP3    H174438   2.382   5.689  14.685  1.1438  0.0431 -0.4724
17649TIP3    H274439   2.277   5.706  14.577  0.1604  1.1929  0.6374
17650TIP3   OH274440   4.658   5.908  11.451  0.0749  0.1035 -0.4134
17650TIP3    H174441   4.717   5.848  11.404  1.1366  0.8217 -0.0418
17650TIP3    H274442   4.597   5.938  11.384 -0.1359 -0.9694 -0.7276
17651TIP3   OH274443   5.309   2.671   1.141 -0.2925  0.1857 -0.3348
17651TIP3    H174444   5.248   2.689   1.212 -0.3943 -0.3329 -0.2899
17651TIP3    H274445   5.327   2.578   1.148 -0.4537  0.0913 -1.1122
17652TIP3   OH274446   1.955   3.020  14.184  0.0426  0.1243 -0.4074
17652TIP3    H174447   1.870   3.055  14.212  0.5526  0.4220  0.8765
17652TIP3    H274448   1.935   2.965  14.109 -0.9480  2.3687 -1.8954
17653TIP3   OH274449   3.440   0.327   2.556  0.3012 -0.4781 -0.0837
17653TIP3    H174450   3.412   0.381   2.630  1.4297 -0.8341  0.6312
17653TIP3    H274451   3.533   0.347   2.546 -0.0177  0.2843 -2.0374
17654TIP3   OH274452   6.615   1.690   0.561  0.0314 -0.0293 -0.0812
17654TIP3    H174453   6.577   1.763   0.610 -0.9708 -0.6114  0.0227
17654TIP3    H274454   6.549   1.621   0.565  1.2303 -1.1819  0.3653
17655TIP3   OH274455   1.144   6.695   3.342  0.0641 -0.3648  0.1033
17655TIP3    H174456   1.199   6.737   3.408 -0.2540 -0.9651  0.7688
17655TIP3    H274457   1.203   6.633   3.298 -0.4039 -2.2242  1.9294
17656TIP3   OH274458   4.664   5.562   2.716  0.4544 -0.2754  0.7151
17656TIP3    H174459   4.686   5.469   2.711 -0.4395 -0.5013  0.7451
17656TIP3    H274460   4.590   5.572   2.657  1.8622  0.8559 -0.9360
17657TIP3   OH274461   5.490   6.474   5.709 -0.5879 -0.2709 -0.0324
17657TIP3    H174462   5.464   6.502   5.622 -1.1155  0.0771  0.2297
17657TIP3    H274463   5.456   6.542   5.768 -1.2030 -1.0434  0.5382
17658TIP3   OH274464   2.572   4.520   2.577  0.0618 -0.4660  0.4256
17658TIP3    H174465   2.505   4.550   2.516  1.9966 -1.0610 -2.2068
17658TIP3    H274466   2.624   4.457   2.526  1.3158 -1.6820  3.0078
17659TIP3   OH274467   6.284   3.825   1.359  0.5575  0.0634  0.5927
17659TIP3    H174468   6.342   3.863   1.292  1.8247  0.4600  1.8459
17659TIP3    H274469   6.282   3.732   1.340  2.0359 -0.0344  0.7764
17660TIP3   OH274470   6.005   2.672   3.619 -0.2344 -0.1179  0.3783
17660TIP3    H174471   5.938   2.655   3.685  0.8100 -1.4197  1.1649
17660TIP3    H274472   6.042   2.756   3.643  0.3511 -0.7195  1.6897
17661TIP3   OH274473   3.240   1.550   2.608 -0.0074 -0.2186 -0.2987
17661TIP3    H174474   3.325   1.517   2.639  0.8680  0.7208 -1.5673
17661TIP3    H274475   3.230   1.635   2.651 -0.3956 -0.4009 -0.0240
17662TIP3   OH274476   2.366   0.744   2.877 -0.3109  0.1811  0.7699
17662TIP3    H174477   2.324   0.663   2.847 -0.8611  0.0507  1.8319
17662TIP3    H274478   2.351   0.807   2.806 -1.4951 -0.1395  0.7095
17663TIP3   OH274479   2.154   3.123   1.810 -0.0391  0.0317 -0.5367
17663TIP3    H174480   2.121   3.120   1.721 -0.9380 -2.5372 -0.2068
17663TIP3    H274481   2.144   3.215   1.837  0.1725  0.8362 -3.0012
17664TIP3   OH274482   6.196   6.007  16.813 -0.0247 -0.3048 -0.2802
17664TIP3    H174483   6.104   6.029  16.829 -0.1631 -0.0525 -1.3174
17664TIP3    H274484   6.212   5.931  16.868 -1.4877 -1.6808 -1.6327
17665TIP3   OH274485   0.976   3.989  11.526  0.9462 -0.5470  0.5807
17665TIP3    H174486   0.938   3.941  11.453  0.2480  0.4143  0.2943
17665TIP3    H274487   1.015   3.921  11.581  1.6680 -1.2872 -0.7663
17666TIP3   OH274488   1.006   1.124  16.813  0.2472  0.4411 -0.2821
17666TIP3    H174489   0.969   1.035  16.809 -1.5395  1.1147  0.2968
17666TIP3    H274490   1.088   1.114  16.860  0.4218 -1.0124 -0.8436
17667TIP3   OH274491   4.387   5.439  12.087 -0.1755  0.1541 -0.7070
17667TIP3    H174492   4.421   5.469  12.171  2.7758 -2.6299 -0.7073
17667TIP3    H274493   4.437   5.488  12.021  0.1898 -0.2885 -0.7662
17668TIP3   OH274494   6.552   2.580   2.104  0.3811 -0.0687 -0.1679
17668TIP3    H174495   6.478   2.626   2.065  0.4537 -0.1706 -0.4252
17668TIP3    H274496   6.515   2.497   2.136  0.2535  0.1579  0.2838
17669TIP3   OH274497   6.806   1.721  14.378  0.4261  0.5251  0.0597
17669TIP3    H174498   6.828   1.760  14.463  2.0136  1.1660 -0.6193
17669TIP3    H274499   6.845   1.633  14.381  0.1376  0.3991  0.1425
17670TIP3   OH274500   4.539   5.706  12.849  0.0947  0.0499 -0.3526
17670TIP3    H174501   4.469   5.772  12.853  0.0794 -0.0348  2.4098
17670TIP3    H274502   4.503   5.637  12.794 -1.8903  0.1808  0.6710
17671TIP3   OH274503   0.105   3.179  11.346 -0.8727 -0.1676  0.5770
17671TIP3    H174504   0.093   3.162  11.253 -2.4518 -0.7646  0.8637
17671TIP3    H274505   0.178   3.242  11.350  0.3381 -1.4061 -0.9395
17672TIP3   OH274506   6.292   3.318   2.280 -0.5446 -0.1636 -0.3213
17672TIP3    H174507   6.316   3.410   2.297  2.3220 -0.7004 -0.8325
17672TIP3    H274508   6.198   3.320   2.266 -1.1187  2.1796  2.8561
17673TIP3   OH274509   0.859   0.038   0.645 -0.9226  0.5469  0.1181
17673TIP3    H174510   0.839  -0.048   0.683 -2.7161  0.4564 -0.9595
17673TIP3    H274511   0.863   0.097   0.721 -1.3404 -0.1787  0.7162
17674TIP3   OH274512   3.333   6.208   2.499  0.2539 -0.0755  0.3093
17674TIP3    H174513   3.334   6.274   2.430  0.6308 -0.6423 -0.2395
17674TIP3    H274514   3.243   6.207   2.531 -0.0795 -0.2546 -0.6122
17675TIP3   OH274515   1.364   0.336  11.614 -0.3505  0.3517  0.3316
17675TIP3    H174516   1.415   0.416  11.630 -0.7156  0.7550 -0.4172
17675TIP3    H274517   1.429   0.266  11.609 -0.0232  0.6121  0.9681
17676TIP3   OH274518   3.023   4.917   0.027 -0.8001 -0.2753 -0.0972
17676TIP3    H174519   2.941   4.935  -0.018 -1.0570  1.2730  0.9322
17676TIP3    H274520   3.090   4.959  -0.027 -0.7517 -0.9322 -0.5608
17677TIP3   OH274521   2.090   4.709   3.085  0.4018  0.3231 -0.3949
17677TIP3    H174522   2.050   4.789   3.118 -0.1470  0.1936 -0.7228
17677TIP3    H274523   2.018   4.663   3.041  0.8711 -0.0067 -0.8304
17678TIP3   OH274524   4.051   2.878   4.881 -0.6802  0.7528  0.2729
17678TIP3    H174525   4.060   2.972   4.862 -2.5249  1.4791  2.4604
17678TIP3    H274526   3.958   2.867   4.903 -0.5456 -1.6499 -0.1195
17679TIP3   OH274527   3.027   3.316  13.058 -0.1214 -0.0827  0.5199
17679TIP3    H174528   3.004   3.250  12.993  0.1615  0.0746  0.2617
17679TIP3    H274529   3.000   3.399  13.020  0.5804  0.0720  0.3480
17680TIP3   OH274530   2.214   4.580   6.482  0.3027 -0.2469 -0.1764
17680TIP3    H174531   2.270   4.611   6.553  2.0754  1.6370 -2.2342
17680TIP3    H274532   2.218   4.485   6.488 -0.6662 -0.2153  2.9296
17681TIP3   OH274533   6.111   0.132   2.350 -0.3649  0.0672 -0.1105
17681TIP3    H174534   6.127   0.162   2.440  1.3478 -1.2059  0.0649
17681TIP3    H274535   6.018   0.107   2.349 -0.3298 -0.2325  1.4188
17682TIP3   OH274536   1.528   2.759  12.052  0.0932  0.1569  0.0488
17682TIP3    H174537   1.608   2.714  12.024 -0.6048 -0.8350 -0.4291
17682TIP3    H274538   1.474   2.690  12.090 -1.2634  0.4383 -1.2515
17683TIP3   OH274539   3.305   3.916   6.483 -0.0646 -0.0269 -0.4011
17683TIP3    H174540   3.315   3.958   6.569  0.5657 -1.3912  0.2193
17683TIP3    H274541   3.211   3.915   6.468 -0.2681 -0.6571  0.7549
17684TIP3   OH274542   4.284   0.461   5.065  0.9025  0.5054 -0.0648
17684TIP3    H174543   4.280   0.371   5.099  1.7152  0.1123 -0.9727
17684TIP3    H274544   4.370   0.466   5.023  1.5959  2.2318  1.4220
17685TIP3   OH274545   1.009   3.741  13.180  0.2415  0.1242 -0.3501
17685TIP3    H174546   1.063   3.745  13.101  0.5551 -2.6001 -0.3569
17685TIP3    H274547   0.920   3.755  13.148  0.3574 -0.9725 -1.2245
17686TIP3   OH274548   5.366   5.671   2.058  0.0457 -0.5265 -0.7744
17686TIP3    H174549   5.400   5.689   1.970 -0.3893  0.0463 -0.8381
17686TIP3    H274550   5.391   5.581   2.076  2.1492  0.0700 -0.5524
17687TIP3   OH274551   5.182   1.506  16.151 -0.5940 -0.3092 -0.0617
17687TIP3    H174552   5.227   1.573  16.203  0.1337 -0.6455 -0.2482
17687TIP3    H274553   5.126   1.461  16.214  2.6677 -2.8821  1.2674
17688TIP3   OH274554   2.269   4.211  16.683 -0.1739 -0.4837 -0.1032
17688TIP3    H174555   2.208   4.137  16.686 -1.0954  0.0323 -2.9869
17688TIP3    H274556   2.317   4.199  16.602 -0.0455  1.8276 -0.4245
17689TIP3   OH274557   2.076   4.636  15.436  0.0190  0.0865  0.2614
17689TIP3    H174558   2.155   4.615  15.487 -0.1527  0.6472  0.7669
17689TIP3    H274559   2.060   4.729  15.453 -0.2805  0.1777 -0.4998
17690TIP3   OH274560   0.354   1.376  14.990 -0.3405 -0.1340  0.2066
17690TIP3    H174561   0.418   1.405  14.924 -1.1965 -0.3332 -0.7351
17690TIP3    H274562   0.271   1.412  14.960 -1.1137 -1.9636  0.0127
17691TIP3   OH274563   1.081   6.231  14.791 -0.3658 -0.0164  0.1152
17691TIP3    H174564   1.010   6.275  14.744  0.5594  2.4022  0.8107
17691TIP3    H274565   1.052   6.233  14.883  0.3326  0.5023  0.3311
17692TIP3   OH274566   1.653   4.874  12.976 -0.2544 -0.2944  0.4595
17692TIP3    H174567   1.706   4.865  12.896 -0.4203  1.0372  0.1722
17692TIP3    H274568   1.715   4.856  13.047  0.0059 -1.0370  0.0607
17693TIP3   OH274569   0.958   5.046   2.408 -0.0968  0.7233  0.4499
17693TIP3    H174570   1.012   5.115   2.371 -1.7291  1.4802 -0.6137
17693TIP3    H274571   0.926   4.997   2.333  0.7495 -1.0510  1.1583
17694TIP3   OH274572   4.960   1.207   4.223  0.1863  0.0711 -0.4791
17694TIP3    H174573   4.912   1.280   4.263  0.5273 -0.0211  0.0999
17694TIP3    H274574   4.919   1.197   4.137  0.3973  1.2150 -0.7388
17695TIP3   OH274575   4.746   3.138  16.070  0.5881  0.3552  0.4171
17695TIP3    H174576   4.780   3.116  15.983  0.2783 -1.9047  0.8152
17695TIP3    H274577   4.651   3.136  16.060  0.5500  1.2159  0.5621
17696TIP3   OH274578   3.766   5.055   3.262 -0.2383 -0.7134  0.3272
17696TIP3    H174579   3.776   5.090   3.351  1.6200  1.9059 -0.8022
17696TIP3    H274580   3.679   5.084   3.235 -0.5087 -0.8699  0.9904
17697TIP3   OH274581   1.947   6.545  11.057 -0.0772  0.4351 -0.1330
17697TIP3    H174582   1.948   6.536  10.961  1.2094 -0.2910 -0.0782
17697TIP3    H274583   1.892   6.621  11.073 -0.8661  0.1785 -1.4168
17698TIP3   OH274584   3.734   0.933   1.666 -0.2071  0.0608  0.4757
17698TIP3    H174585   3.806   0.909   1.725 -0.8834  0.6069  1.5614
17698TIP3    H274586   3.655   0.902   1.711 -0.6934 -0.1118 -0.4740
17699TIP3   OH274587   4.618   2.427   5.915 -0.1294  0.4259  0.5397
17699TIP3    H174588   4.713   2.436   5.922  0.4828 -3.3446 -0.6891
17699TIP3    H274589   4.598   2.348   5.966 -1.7497 -1.7688 -3.1371
17700TIP3   OH274590   3.991   1.892  12.836  0.0116  0.2567 -0.0914
17700TIP3    H174591   3.981   1.932  12.750 -1.8462  1.7155  0.7477
17700TIP3    H274592   4.040   1.957  12.887  0.1472 -0.1329  0.2871
17701TIP3   OH274593   6.782   0.446  11.417  0.4352  0.3026  0.2721
17701TIP3    H174594   6.771   0.532  11.377  0.3932  0.5234  0.7653
17701TIP3    H274595   6.837   0.398  11.354  0.6010  0.7428  0.0790
17702TIP3   OH274596   4.960   6.436  11.269 -0.1713  0.3442 -0.1163
17702TIP3    H174597   4.905   6.357  11.267  0.3936 -0.1318  1.4977
17702TIP3    H274598   5.021   6.421  11.341  0.4298  1.9539 -0.2490
17703TIP3   OH274599   4.195   2.220  13.927  0.2650 -0.2289 -0.3783
17703TIP3    H174600   4.115   2.252  13.887  0.0992 -0.7381 -0.4646
17703TIP3    H274601   4.233   2.161  13.862 -0.5916 -1.9532  0.6118
17704TIP3   OH274602   1.311   5.167   5.061 -0.0769  0.1808  0.5731
17704TIP3    H174603   1.309   5.120   5.144  0.3916  2.3668  1.9067
17704TIP3    H274604   1.377   5.121   5.009 -1.6994 -2.3696  0.6145
17705TIP3   OH274605   0.932   2.554  16.319  0.0535  0.4140  0.3050
17705TIP3    H174606   1.019   2.574  16.352 -0.7962  1.7829  1.8830
17705TIP3    H274607   0.932   2.459  16.307  1.5399  0.3072  0.9787
17706TIP3   OH274608   0.106   5.959  11.917 -0.2365  0.0168  0.0272
17706TIP3    H174609   0.082   6.051  11.922  0.6384  0.3480 -1.2185
17706TIP3    H274610   0.119   5.943  11.823 -2.2923 -1.9000 -0.0101
17707TIP3   OH274611   2.338   2.514   0.451  0.0096 -0.1748  0.7214
17707TIP3    H174612   2.245   2.491   0.461 -0.7913  2.0566 -0.8238
17707TIP3    H274613   2.367   2.461   0.376 -0.8832  1.1968 -0.6613
17708TIP3   OH274614   5.937   3.041  14.550  0.5778 -0.5185  0.9511
17708TIP3    H174615   5.953   3.134  14.532  0.3556 -0.8618 -1.2760
17708TIP3    H274616   6.024   3.001  14.550  0.5237 -0.9134 -2.2371
17709TIP3   OH274617   6.779   2.453  13.336 -0.2586 -0.7246  0.1142
17709TIP3    H174618   6.815   2.542  13.333  0.5479 -1.0277  0.4317
17709TIP3    H274619   6.835   2.407  13.398 -0.4406 -1.5545 -0.3257
17710TIP3   OH274620   4.057   0.477  13.104 -0.2473  0.2891  0.2989
17710TIP3    H174621   4.066   0.525  13.187  0.6387 -0.4554  0.6491
17710TIP3    H274622   4.064   0.545  13.037  0.8161  0.6853  0.7920
17711TIP3   OH274623   3.218   3.707   2.069 -0.7743 -0.4674 -0.2536
17711TIP3    H174624   3.137   3.749   2.100  0.3234  0.5942  1.3122
17711TIP3    H274625   3.225   3.628   2.122 -1.9195 -1.7836 -1.9746
17712TIP3   OH274626   3.202   2.629  16.763 -0.1147  0.0790  0.2130
17712TIP3    H174627   3.254   2.548  16.755 -0.4028 -0.1060  0.2138
17712TIP3    H274628   3.256   2.686  16.819  0.1440 -0.0655  0.1147
17713TIP3   OH274629   0.800   3.310  15.789  0.0407  0.2112  0.7858
17713TIP3    H174630   0.799   3.217  15.812 -1.1465 -0.9019 -3.0378
17713TIP3    H274631   0.827   3.312  15.698 -1.5714  3.4769  0.2273
17714TIP3   OH274632   3.480   2.788   3.136  0.0292 -0.5582 -0.5442
17714TIP3    H174633   3.520   2.873   3.150 -1.6179  0.2393 -0.4109
17714TIP3    H274634   3.495   2.740   3.218  0.5793 -0.2483 -0.4586
17715TIP3   OH274635   4.620   4.657   0.418  0.2450 -0.4110  0.5007
17715TIP3    H174636   4.615   4.717   0.344 -0.3618 -0.4102  0.5411
17715TIP3    H274637   4.529   4.636   0.439  0.4555 -1.6794  0.2284
17716TIP3   OH274638   4.490   3.016   3.294 -0.1068  0.1666 -0.5565
17716TIP3    H174639   4.516   2.930   3.262 -0.1004 -0.2371  0.4677
17716TIP3    H274640   4.475   3.068   3.216  2.7079  0.1063 -1.2484
17717TIP3   OH274641   3.678   3.966   5.968 -0.1612  0.5119  0.3659
17717TIP3    H174642   3.666   3.905   6.041 -0.2931 -0.4568 -0.4479
17717TIP3    H274643   3.718   4.043   6.008  0.3346 -0.2360  1.3656
17718TIP3   OH274644   0.467   6.753  12.131 -0.2560 -0.1997  0.2264
17718TIP3    H174645   0.446   6.660  12.137 -0.5245 -0.2114 -0.7347
17718TIP3    H274646   0.530   6.768  12.201  0.6010 -1.3439 -0.2626
17719TIP3   OH274647   3.641   2.758   2.485  0.2637  0.1816  0.3762
17719TIP3    H174648   3.566   2.817   2.479 -0.4526 -0.8035 -0.6081
17719TIP3    H274649   3.603   2.673   2.507  1.2369 -0.0539  1.2588
17720TIP3   OH274650   1.928   1.532   3.965 -0.3009  0.0768 -1.2334
17720TIP3    H174651   1.967   1.610   4.005  0.1928 -0.6486 -0.2627
17720TIP3    H274652   1.994   1.502   3.902  0.8787 -1.2936  0.5879
17721TIP3   OH274653   5.893   3.254  15.069  0.0701  0.4645 -0.0062
17721TIP3    H174654   5.921   3.252  14.977  1.9167  1.6473  0.4777
17721TIP3    H274655   5.838   3.176  15.079  0.2055  0.0669 -1.9970
17722TIP3   OH274656   6.126   0.916   4.141  0.6860 -0.3668  0.7720
17722TIP3    H174657   6.219   0.917   4.119  0.2673  0.2245 -1.2090
17722TIP3    H274658   6.095   1.005   4.121 -0.1261 -0.2594  2.3367
17723TIP3   OH274659   0.371   1.028  13.389 -0.0986 -0.7044 -0.1956
17723TIP3    H174660   0.459   1.037  13.426 -0.3536  1.5068  0.0349
17723TIP3    H274661   0.321   0.980  13.456  0.0543  1.1699  1.3625
17724TIP3   OH274662   2.988   1.252  16.602  0.2187 -0.1100 -0.7179
17724TIP3    H174663   3.038   1.176  16.630  1.1549  0.0532 -1.8734
17724TIP3    H274664   2.939   1.279  16.680 -0.0407 -1.8145 -0.2632
17725TIP3   OH274665   0.886   3.263   1.256 -0.5680 -0.8745  0.0219
17725TIP3    H174666   0.830   3.204   1.306 -2.5136  0.7325 -0.1527
17725TIP3    H274667   0.962   3.278   1.313 -1.9159 -0.4550  1.8124
17726TIP3   OH274668   0.786   3.304  15.238  0.4268 -0.3047  0.3083
17726TIP3    H174669   0.810   3.213  15.223 -0.0387 -0.8317  2.4288
17726TIP3    H274670   0.860   3.354  15.202  0.2350 -1.4158 -1.7807
17727TIP3   OH274671   4.340   4.040  16.974 -0.4203  0.0531  0.2190
17727TIP3    H174672   4.396   4.098  17.025 -0.0054 -1.2110  1.2570
17727TIP3    H274673   4.265   4.023  17.031 -0.8536  0.0927 -0.3341
17728TIP3   OH274674   4.532   4.531   6.301 -0.0217 -0.2085  0.6321
17728TIP3    H174675   4.446   4.530   6.344 -0.7497 -0.4802 -0.7516
17728TIP3    H274676   4.577   4.605   6.341 -1.8724  1.5502 -0.3344
17729TIP3   OH274677   1.956   3.571  10.776  0.1197  0.0362 -0.2285
17729TIP3    H174678   2.020   3.600  10.840  0.6937  0.8639 -1.1574
17729TIP3    H274679   1.890   3.640  10.774 -0.6522 -0.6468  0.4669
17730TIP3   OH274680   2.627   0.420   0.946  0.1905 -0.4355 -0.3869
17730TIP3    H174681   2.556   0.480   0.924  0.5529  0.2540  0.2605
17730TIP3    H274682   2.673   0.463   1.018  1.6209 -0.5821 -1.1764
17731TIP3   OH274683   4.320   3.211   5.815 -0.2805 -0.1426  0.1193
17731TIP3    H174684   4.272   3.275   5.762 -1.6144 -1.6086 -0.5337
17731TIP3    H274685   4.262   3.190   5.888 -0.2106 -1.1669 -0.0987
17732TIP3   OH274686   0.385   1.581  14.590  0.3583 -0.1532 -0.4630
17732TIP3    H174687   0.320   1.538  14.646 -0.2112 -0.0716 -1.0574
17732TIP3    H274688   0.469   1.553  14.627 -0.0055 -0.9716 -0.2195
17733TIP3   OH274689   0.807   6.337  14.677 -0.4552  0.3749 -0.2958
17733TIP3    H174690   0.729   6.394  14.679  0.1803  1.2529  0.7311
17733TIP3    H274691   0.877   6.393  14.709 -0.0746 -1.4137  2.2483
17734TIP3   OH274692   5.114   5.910  15.221  0.5331  0.2253 -0.1391
17734TIP3    H174693   5.120   5.831  15.276  1.8260 -0.2916 -0.9804
17734TIP3    H274694   5.046   5.963  15.264 -0.4539 -1.3687  0.3919
17735TIP3   OH274695   5.038   3.608  15.058  0.3890  0.0022  0.1343
17735TIP3    H174696   4.946   3.592  15.078  1.1190 -1.8940  2.4904
17735TIP3    H274697   5.046   3.704  15.057 -1.8997  0.2748 -2.1024
17736TIP3   OH274698   0.263   0.785   5.358  0.3935  0.0521  0.3598
17736TIP3    H174699   0.230   0.743   5.278  0.8644 -2.2170  1.2768
17736TIP3    H274700   0.229   0.731   5.429 -0.1030  2.0984  1.7420
17737TIP3   OH274701   6.360   0.363   3.073 -0.1124  0.0789 -0.2468
17737TIP3    H174702   6.302   0.312   3.017  1.3415 -1.1233 -0.7189
17737TIP3    H274703   6.387   0.437   3.019  1.4238 -1.1720 -1.2414
17738TIP3   OH274704   4.825   2.821  11.610 -0.1865  0.0105  0.1638
17738TIP3    H174705   4.754   2.808  11.673  0.2226 -1.3764  0.3677
17738TIP3    H274706   4.818   2.747  11.550  0.6185  0.2743 -0.2698
17739TIP3   OH274707   2.577   2.998  13.182  0.2424 -0.0714 -0.4287
17739TIP3    H174708   2.649   3.061  13.182  1.2102 -1.1440 -0.7979
17739TIP3    H274709   2.540   3.003  13.270 -1.4715  2.9179 -1.1645
17740TIP3   OH274710   3.459   2.143  14.996 -0.3740 -0.0889 -0.4815
17740TIP3    H174711   3.440   2.202  14.924 -0.4953  1.7501  0.9944
17740TIP3    H274712   3.379   2.141  15.048 -0.2492 -1.2983 -0.2988
17741TIP3   OH274713   5.962   4.456  13.245 -0.0456  1.1170 -0.2759
17741TIP3    H174714   5.947   4.550  13.233 -0.4360  0.8984 -1.8015
17741TIP3    H274715   5.947   4.418  13.158  0.9772 -0.2548  0.1030
17742TIP3   OH274716   4.124   5.797  13.313  0.5566  0.5814  0.1553
17742TIP3    H174717   4.105   5.879  13.268 -0.7648 -0.0667 -0.5356
17742TIP3    H274718   4.144   5.823  13.403  0.4014  1.6723 -0.1125
17743TIP3   OH274719   4.959   3.747  15.514  0.8131  0.2821 -0.4419
17743TIP3    H174720   4.993   3.754  15.424  0.3763  0.0392 -0.6283
17743TIP3    H274721   5.026   3.698  15.561  1.9759  2.0372 -0.1434
17744TIP3   OH274722   1.680   2.290  12.516 -0.0739  0.0060 -0.6080
17744TIP3    H174723   1.658   2.373  12.558  0.4756  0.1555 -0.6012
17744TIP3    H274724   1.676   2.308  12.422 -0.9358 -0.2304 -0.6280
17745TIP3   OH274725   5.351   0.155  10.466 -0.4449  0.2542  0.4192
17745TIP3    H174726   5.331   0.061  10.465 -1.5690  0.4312 -1.7858
17745TIP3    H274727   5.443   0.160  10.439 -0.0070 -0.2403  1.7623
17746TIP3   OH274728   3.079   5.637  14.796  0.5951  0.4334  0.3667
17746TIP3    H174729   3.075   5.564  14.734 -1.2800  0.7465  0.0677
17746TIP3    H274730   3.151   5.692  14.764  0.1079  0.2342 -1.1433
17747TIP3   OH274731   4.302   1.585  12.818 -0.6841  0.7930 -0.4346
17747TIP3    H174732   4.264   1.527  12.752  1.3410  0.7835 -1.6819
17747TIP3    H274733   4.286   1.674  12.784 -1.4107  0.8796  0.1098
17748TIP3   OH274734   5.319   2.480   0.515 -0.6758  0.3869 -0.1889
17748TIP3    H174735   5.392   2.446   0.567 -1.9568 -0.3922  1.2085
17748TIP3    H274736   5.295   2.409   0.456 -0.3354  0.6280 -0.6207
17749TIP3   OH274737   1.415   1.811  10.968  0.4593 -0.3430 -0.0188
17749TIP3    H174738   1.498   1.780  10.932 -0.7307 -0.9244 -2.4982
17749TIP3    H274739   1.355   1.737  10.957 -1.0944  0.9936 -1.0475
17750TIP3   OH274740   4.980   3.593  12.576 -0.1713  0.0667 -0.4299
17750TIP3    H174741   5.029   3.669  12.605  0.6026 -0.1217 -1.1800
17750TIP3    H274742   4.891   3.608  12.607  0.2322  0.6848  0.4809
17751TIP3   OH274743   6.173   5.047  16.835  0.6902 -0.2497 -0.0584
17751TIP3    H174744   6.202   5.115  16.896  2.1120 -0.5669 -0.3443
17751TIP3    H274745   6.210   4.966  16.870 -0.6954 -0.8489  0.0835
17752TIP3   OH274746   0.081   3.019  14.086 -0.6884  0.9137 -0.5140
17752TIP3    H174747   0.111   2.990  14.172 -0.9117  2.3872  0.0874
17752TIP3    H274748   0.107   2.949  14.026 -2.1836 -1.0570  1.0060
17753TIP3   OH274749   5.147   4.400  11.521  0.1065  0.0189 -0.3652
17753TIP3    H174750   5.239   4.378  11.536 -0.0687  0.3472  1.2590
17753TIP3    H274751   5.149   4.491  11.492  0.0998  1.3137  3.2500
17754TIP3   OH274752   4.829   3.850  13.322 -0.3019  0.2128  0.0592
17754TIP3    H174753   4.838   3.900  13.404 -1.1188  0.8744 -0.2316
17754TIP3    H274754   4.918   3.823  13.300 -0.2802 -1.8885  2.3132
17755TIP3   OH274755   0.719   2.094   3.309  0.1764 -0.3778  0.3348
17755TIP3    H174756   0.740   2.182   3.278 -0.1137  0.6089  2.6894
17755TIP3    H274757   0.713   2.041   3.230  2.1979  1.2983 -1.0678
17756TIP3   OH274758   5.178   4.134  15.085 -0.6788  0.6564  0.3682
17756TIP3    H174759   5.226   4.210  15.119 -0.0926 -0.4025  2.0285
17756TIP3    H274760   5.222   4.112  15.003  1.3331  0.1248  1.5065
17757TIP3   OH274761   6.764   6.588   0.201 -0.2558 -0.3949 -0.0376
17757TIP3    H174762   6.851   6.566   0.168  0.0203 -0.5937  0.7959
17757TIP3    H274763   6.725   6.641   0.132  1.2239  1.2592  0.3220
17758TIP3   OH274764   3.848   3.806   6.259 -0.0469  0.4693 -0.0816
17758TIP3    H174765   3.847   3.887   6.311 -1.0186  0.1366  0.4308
17758TIP3    H274766   3.776   3.816   6.197  0.0979  0.1679 -0.3005
17759TIP3   OH274767   1.758   5.591   3.241  0.1272 -0.2362 -0.3162
17759TIP3    H174768   1.677   5.603   3.291  0.6715 -0.1247  0.5563
17759TIP3    H274769   1.764   5.496   3.227 -0.1730 -0.2411 -0.4202
17760TIP3   OH274770   4.198   2.767  15.064 -0.3562 -0.1799  0.0019
17760TIP3    H174771   4.115   2.722  15.045  0.0151 -0.5752 -0.7524
17760TIP3    H274772   4.230   2.794  14.978 -0.1087  0.7101  0.3692
17761TIP3   OH274773   6.239   3.754   1.671  0.4023  0.3327  0.3274
17761TIP3    H174774   6.270   3.745   1.581 -0.2842 -0.3519  0.1508
17761TIP3    H274775   6.192   3.838   1.672  1.1200  0.7405  0.2663
17762TIP3   OH274776   5.920   6.156  15.838  0.5010 -0.2823  0.2909
17762TIP3    H174777   5.829   6.179  15.824 -0.1561 -2.2182  0.9429
17762TIP3    H274778   5.968   6.238  15.827 -1.2671  0.7322 -0.3243
17763TIP3   OH274779   2.457   6.053  12.974 -0.0146 -0.0933  0.8392
17763TIP3    H174780   2.490   5.973  13.015  0.6081  0.6557  1.8428
17763TIP3    H274781   2.492   6.124  13.027 -2.6161  0.8080  1.5271
17764TIP3   OH274782   2.488   3.183  12.648 -0.3454 -0.6421  0.0740
17764TIP3    H174783   2.543   3.169  12.571 -0.4495 -1.6502  0.1639
17764TIP3    H274784   2.546   3.165  12.723 -0.4552 -0.4559  0.2035
17765TIP3   OH274785   5.913   2.843  17.203  0.0833  0.6839  0.3525
17765TIP3    H174786   5.932   2.896  17.126 -1.2101  0.8246  0.1155
17765TIP3    H274787   5.928   2.753  17.174  0.4253  0.7871  0.2000
17766TIP3   OH274788   0.685   4.406  13.314  0.1099  0.1802 -0.1001
17766TIP3    H174789   0.614   4.468  13.300 -0.4226 -0.1775  0.8954
17766TIP3    H274790   0.681   4.386  13.408  1.2384 -0.1925 -0.1198
17767TIP3   OH274791   4.613   4.624   3.620  0.0315 -0.6202  0.0396
17767TIP3    H174792   4.598   4.703   3.672 -0.0675 -0.4153 -0.2958
17767TIP3    H274793   4.534   4.572   3.632  0.0295 -0.5949  0.1351
17768TIP3   OH274794   0.203   4.932  17.126 -0.2144  0.6310 -0.7134
17768TIP3    H174795   0.140   4.868  17.159  0.7973  1.2534  2.9685
17768TIP3    H274796   0.282   4.882  17.107 -1.3085 -0.0046 -4.4072
17769TIP3   OH274797   5.200   1.411  14.262 -0.2287  0.1748  0.2220
17769TIP3    H174798   5.280   1.441  14.218  0.4425 -1.3907  0.3351
17769TIP3    H274799   5.145   1.490  14.267  1.2823  1.2812  0.1316
17770TIP3   OH274800   4.693   6.322   0.250 -0.0178  0.2101 -0.0341
17770TIP3    H174801   4.782   6.288   0.243  0.4854  0.6159  3.1258
17770TIP3    H274802   4.695   6.404   0.201  1.2249  0.0438 -0.3055
17771TIP3   OH274803   0.428   3.278   1.339  0.0893 -0.8755  0.4543
17771TIP3    H174804   0.366   3.221   1.294 -0.7508 -0.9277  1.6264
17771TIP3    H274805   0.434   3.242   1.427  0.2273  0.3164  0.9585
17772TIP3   OH274806   5.191   2.804  15.556 -0.0070 -0.0744 -0.4433
17772TIP3    H174807   5.133   2.795  15.480 -1.3396 -0.8528  0.6366
17772TIP3    H274808   5.171   2.729  15.611  0.8566  0.5354  0.7387
17773TIP3   OH274809   6.642   3.631  11.903  0.7535  0.0423  0.4832
17773TIP3    H174810   6.674   3.635  11.813  2.0616 -0.4501  0.9040
17773TIP3    H274811   6.695   3.564  11.945 -0.8819 -0.8495  1.2320
17774TIP3   OH274812   3.654   0.288   4.713 -0.2388  0.2132  0.0765
17774TIP3    H174813   3.589   0.222   4.735  0.3856 -0.4714 -0.1201
17774TIP3    H274814   3.673   0.332   4.796  0.7970 -1.1706  0.5900
17775TIP3   OH274815   0.997   1.178   3.262 -0.4498 -0.5138  0.1133
17775TIP3    H174816   0.946   1.211   3.188 -0.4508 -0.6530  0.0503
17775TIP3    H274817   0.941   1.112   3.302 -1.3092  0.9778  1.4900
17776TIP3   OH274818   5.891   3.489   4.050  0.1347 -0.4067  0.3267
17776TIP3    H174819   5.800   3.496   4.078  0.0936 -0.8840  0.3081
17776TIP3    H274820   5.893   3.416   3.989  0.7173 -1.0623  1.0958
17777TIP3   OH274821   3.840   2.051  13.975 -0.6651 -0.2504  0.3096
17777TIP3    H174822   3.899   1.995  13.924 -0.3981 -0.2842  0.6454
17777TIP3    H274823   3.868   2.038  14.066 -1.2150 -0.2870  0.4747
17778TIP3   OH274824   5.302   2.356  14.204  0.2595 -0.5179  0.0146
17778TIP3    H174825   5.300   2.448  14.178  0.2679 -0.8757 -1.3067
17778TIP3    H274826   5.364   2.315  14.143  0.2304 -1.4114  0.5637
17779TIP3   OH274827   5.554   1.028   6.131 -0.1207  0.5900 -0.2371
17779TIP3    H174828   5.564   0.935   6.112  1.8719  0.7936 -0.4597
17779TIP3    H274829   5.485   1.058   6.072  0.2920 -0.4445 -1.2864
17780TIP3   OH274830   3.677   4.930   5.816 -0.0366  0.2325  0.3727
17780TIP3    H174831   3.616   5.001   5.798 -0.8775 -0.3031  1.0062
17780TIP3    H274832   3.625   4.865   5.864  0.5642 -1.0228 -0.5847
17781TIP3   OH274833   1.811   5.936   4.066  0.1265 -0.4668  0.4749
17781TIP3    H174834   1.869   6.004   4.032 -1.0884  0.4846  0.2570
17781TIP3    H274835   1.745   5.983   4.116  0.6520 -1.6758  2.4236
17782TIP3   OH274836   2.737   6.252   4.796  0.3116  0.1251  0.4346
17782TIP3    H174837   2.810   6.254   4.859 -0.4050 -1.3232  1.3683
17782TIP3    H274838   2.669   6.305   4.836  0.4340  0.5255  0.1134
17783TIP3   OH274839   2.462   1.043   0.548  0.6979  0.4078  0.4353
17783TIP3    H174840   2.527   0.986   0.507  0.6652  1.5004 -1.2241
17783TIP3    H274841   2.378   1.010   0.518  0.6227  0.5998  0.4303
17784TIP3   OH274842   4.326   6.346  13.034 -0.0217  0.7639 -0.4227
17784TIP3    H174843   4.252   6.300  12.993  0.4356 -0.6086  0.2453
17784TIP3    H274844   4.395   6.342  12.968  0.3125 -0.3469 -0.0255
17785TIP3   OH274845   2.420   4.582   6.278  0.4066  0.3210  1.0934
17785TIP3    H174846   2.363   4.570   6.354  2.7574 -0.0902  2.9059
17785TIP3    H274847   2.424   4.677   6.266  0.9268  0.4679  2.2690
17786TIP3   OH274848   4.652   2.342   4.261  0.5527 -0.2514  0.1645
17786TIP3    H174849   4.673   2.262   4.309 -2.7716 -1.1612  0.2778
17786TIP3    H274850   4.657   2.316   4.169  0.4382 -0.3279  0.1794
17787TIP3   OH274851   0.381   0.762  12.860  0.4800 -0.1846 -0.0636
17787TIP3    H174852   0.294   0.801  12.867 -0.2362 -1.0131 -3.0540
17787TIP3    H274853   0.441   0.833  12.884 -0.9381  0.8890  0.4309
17788TIP3   OH274854   4.958   6.097  15.373 -0.6205 -0.7315 -0.1616
17788TIP3    H174855   4.914   6.154  15.310  0.2708 -0.6926 -0.7702
17788TIP3    H274856   5.009   6.156  15.428  0.5126 -0.9320 -0.9597
17789TIP3   OH274857   1.530   3.482   0.466  0.0539 -0.3793 -0.4705
17789TIP3    H174858   1.503   3.448   0.381 -2.4788  0.3511 -0.0396
17789TIP3    H274859   1.518   3.408   0.526  0.3828 -0.4568 -0.4986
17790TIP3   OH274860   2.128   1.150  12.117  0.1370  0.1281 -0.6963
17790TIP3    H174861   2.111   1.215  12.048 -1.3384  1.1807  0.5723
17790TIP3    H274862   2.044   1.105  12.127  0.9473 -1.5043 -1.0429
17791TIP3   OH274863   4.017   1.595   3.334  0.5029 -0.2460  0.0232
17791TIP3    H174864   4.004   1.611   3.240 -0.5182 -0.7094  0.0664
17791TIP3    H274865   4.099   1.546   3.339 -0.2097 -1.5924 -0.7909
17792TIP3   OH274866   3.030   3.529   3.990 -0.1597  0.0247 -0.7929
17792TIP3    H174867   2.993   3.502   4.074 -1.4333  2.7849 -0.3703
17792TIP3    H274868   2.962   3.506   3.926  0.2962 -0.9459 -0.9611
17793TIP3   OH274869   3.484   5.491   5.958 -0.4272 -1.0788 -0.1642
17793TIP3    H174870   3.455   5.455   6.041 -0.9229 -0.0171  0.1300
17793TIP3    H274871   3.504   5.583   5.976 -0.8241 -0.7532 -1.2732
17794TIP3   OH274872   0.527   3.949   2.899 -0.1902 -0.1129 -0.3423
17794TIP3    H174873   0.587   3.927   2.828 -0.8056 -0.2426 -0.8397
17794TIP3    H274874   0.442   3.960   2.855 -0.2167  1.7139  0.1095
17795TIP3   OH274875   1.701   1.767  14.819  0.4953 -0.6193 -0.0926
17795TIP3    H174876   1.698   1.685  14.869 -1.8330 -0.0844  0.8085
17795TIP3    H274877   1.630   1.758  14.755 -0.2912  0.9325  0.5031
17796TIP3   OH274878   5.592   0.450  15.656  0.1589  0.4410 -0.4487
17796TIP3    H174879   5.666   0.437  15.597  0.2412  0.4860 -0.3553
17796TIP3    H274880   5.616   0.526  15.709  0.2394  0.1878 -0.1195
17797TIP3   OH274881   0.996   6.635   1.377  0.0192 -0.1654  0.4386
17797TIP3    H174882   0.910   6.650   1.339  0.7279  1.1888 -0.7310
17797TIP3    H274883   1.052   6.702   1.337  2.2175 -2.6186 -0.8723
17798TIP3   OH274884   1.086   1.406  12.932 -0.2968 -0.7934 -0.4796
17798TIP3    H174885   1.006   1.432  12.979  1.4390  1.2288  1.5977
17798TIP3    H274886   1.114   1.325  12.976 -0.7160 -1.0268 -0.6339
17799TIP3   OH274887   3.336   3.310   0.920 -0.4657  0.4089 -0.0348
17799TIP3    H174888   3.380   3.234   0.957 -0.5487  0.5971  0.4553
17799TIP3    H274889   3.390   3.384   0.946 -0.7414  0.5804  0.0514
17800TIP3   OH274890   1.229   0.591   1.734  0.1984 -0.0423 -0.2214
17800TIP3    H174891   1.289   0.593   1.808  1.4602 -3.8394 -0.9504
17800TIP3    H274892   1.280   0.552   1.663 -1.7405  1.0945 -2.3820
17801TIP3   OH274893   2.991   6.385   5.778 -0.2502 -0.4219 -0.2974
17801TIP3    H174894   3.078   6.372   5.816 -0.2892  0.9858  0.3468
17801TIP3    H274895   2.988   6.325   5.703  0.6352 -1.7134  0.6516
17802TIP3   OH274896   2.680   3.790   3.227  0.1285 -0.2666 -0.2480
17802TIP3    H174897   2.687   3.872   3.277  1.1531  0.2396 -1.1766
17802TIP3    H274898   2.599   3.799   3.176 -0.1697 -0.1761  0.2377
17803TIP3   OH274899   2.268   1.657   0.748 -0.1094 -0.0780 -0.2117
17803TIP3    H174900   2.269   1.578   0.693  1.2177 -0.5934  0.4873
17803TIP3    H274901   2.332   1.638   0.817 -1.2964  0.7828  1.1769
17804TIP3   OH274902   6.823   2.400  14.000  0.5193 -0.1057 -0.1837
17804TIP3    H174903   6.805   2.492  14.019 -1.6449 -0.4061 -0.4825
17804TIP3    H274904   6.821   2.395  13.905 -0.8586 -0.6766 -0.1485
17805TIP3   OH274905   4.201   3.595   5.882  0.0675  1.2261  0.1067
17805TIP3    H174906   4.217   3.564   5.971  1.0591  0.6185 -0.2710
17805TIP3    H274907   4.200   3.690   5.889  0.0561  1.1809  0.7710
17806TIP3   OH274908   1.723   4.465   1.255 -0.2114 -0.2730 -0.7501
17806TIP3    H174909   1.720   4.383   1.303 -0.7769  0.7624  1.0559
17806TIP3    H274910   1.693   4.531   1.317 -0.3325  1.2349 -2.3296
17807TIP3   OH274911   5.279   5.863   1.433 -0.0580  0.5222 -0.3757
17807TIP3    H174912   5.317   5.852   1.346  0.3118 -0.9691 -0.0432
17807TIP3    H274913   5.334   5.810   1.491 -1.5923 -0.2679  0.4155
17808TIP3   OH274914   6.799   0.934   1.375 -0.3078 -0.7073  0.0881
17808TIP3    H174915   6.822   0.949   1.467  0.8645  1.5641 -0.5073
17808TIP3    H274916   6.728   0.996   1.357 -0.2898 -0.8850 -0.6198
17809TIP3   OH274917   3.951   0.875   1.058  0.2414  0.3078  0.5232
17809TIP3    H174918   3.996   0.844   0.979  0.5554  0.7512  0.5232
17809TIP3    H274919   3.930   0.796   1.106 -0.0563  0.0216 -0.0625
17810TIP3   OH274920   0.293   1.834   5.499  0.0118 -0.0578  0.6079
17810TIP3    H174921   0.324   1.915   5.540 -0.0035 -0.3746  1.2686
17810TIP3    H274922   0.222   1.804   5.556 -1.7229  0.7829 -1.0276
17811TIP3   OH274923   1.986   6.152   2.568  0.2074 -0.1106  0.3235
17811TIP3    H174924   1.992   6.077   2.509 -0.1978 -0.5129  0.7863
17811TIP3    H274925   2.014   6.118   2.653  0.4012  0.3632  0.4523
17812TIP3   OH274926   6.489   4.324   3.238 -0.0441 -0.4079 -0.5422
17812TIP3    H174927   6.540   4.405   3.231  0.4453 -0.6065  0.4922
17812TIP3    H274928   6.554   4.254   3.232 -0.3311 -0.6950 -0.3630
17813TIP3   OH274929   0.163   1.561  13.404  0.1076 -0.5238  0.2276
17813TIP3    H174930   0.115   1.488  13.365  0.9485 -1.2490  0.4998
17813TIP3    H274931   0.248   1.523  13.428  0.9048  0.7776 -0.4570
17814TIP3   OH274932   2.333   1.911  16.267 -0.3512  0.1206  0.1153
17814TIP3    H174933   2.326   1.997  16.225 -0.4903 -0.0269 -0.1626
17814TIP3    H274934   2.383   1.858  16.205 -3.4641 -1.1490 -1.5378
17815TIP3   OH274935   3.739   5.569   4.404 -0.5980 -0.6067 -0.1402
17815TIP3    H174936   3.784   5.510   4.343  0.9821 -0.9245  1.2662
17815TIP3    H274937   3.703   5.638   4.348  0.6130 -0.9978 -1.4589
17816TIP3   OH274938   5.827   4.453  12.946  0.6666  0.2997  0.5385
17816TIP3    H174939   5.763   4.398  12.900  0.1265  0.2223  1.3642
17816TIP3    H274940   5.814   4.541  12.909  2.3104 -0.2688 -1.6143
17817TIP3   OH274941   3.066   5.307   0.373  0.0819  0.4183  0.2756
17817TIP3    H174942   3.109   5.329   0.456 -2.5362  0.7698  1.6445
17817TIP3    H274943   2.995   5.248   0.398  0.5395 -1.2327 -2.0468
17818TIP3   OH274944   1.660   3.398   4.625  0.5019  0.2380  0.3583
17818TIP3    H174945   1.628   3.312   4.597 -2.7370  1.7042 -0.8918
17818TIP3    H274946   1.637   3.403   4.718 -0.0503  0.0348  0.2382
17819TIP3   OH274947   6.264   5.253   0.434  0.0651  0.5127  0.3410
17819TIP3    H174948   6.341   5.261   0.490 -0.3920  1.1268  0.9124
17819TIP3    H274949   6.224   5.170   0.461  0.4704  0.2366  0.1054
17820TIP3   OH274950   1.039   3.652  14.237 -0.2201 -0.4049 -1.1589
17820TIP3    H174951   0.968   3.715  14.251 -0.0221 -0.4407  0.1656
17820TIP3    H274952   1.012   3.602  14.160 -0.2409  1.4629 -2.4304
17821TIP3   OH274953   6.331   0.421   5.983 -0.1150 -0.5252 -0.2922
17821TIP3    H174954   6.286   0.489   5.932 -0.1206 -0.0582  0.3286
17821TIP3    H274955   6.365   0.361   5.917 -2.0583 -1.1774 -0.7616
17822TIP3   OH274956   3.603   5.098  14.198 -0.1985  0.8000 -0.7606
17822TIP3    H174957   3.615   5.072  14.107 -2.7914  0.6605 -1.1351
17822TIP3    H274958   3.520   5.058  14.225  0.8087  0.2712  1.9107
17823TIP3   OH274959   5.877   2.973   6.006 -0.0952 -1.0795  0.5935
17823TIP3    H174960   5.805   2.949   6.065 -1.7664  1.1589 -0.3959
17823TIP3    H274961   5.842   2.958   5.918  0.5023  0.3483  0.0883
17824TIP3   OH274962   1.713   1.314  13.073  0.6769  0.3211 -0.1949
17824TIP3    H174963   1.659   1.362  13.011  0.1309  0.7686  0.6086
17824TIP3    H274964   1.667   1.322  13.157  1.2580 -0.4881  0.2232
17825TIP3   OH274965   3.135   4.461  11.855 -0.0759 -0.4548 -0.0213
17825TIP3    H174966   3.063   4.425  11.803 -1.8823  0.7621  1.5387
17825TIP3    H274967   3.112   4.553  11.867  0.4778 -0.5922  2.5546
17826TIP3   OH274968   0.712   4.771  13.515 -0.1428 -0.9260 -0.2711
17826TIP3    H174969   0.702   4.866  13.508  1.0083 -0.6145  1.6794
17826TIP3    H274970   0.625   4.739  13.535 -0.3897 -0.1919 -0.1501
17827TIP3   OH274971   3.220   3.855  13.948  0.1994  0.4626  0.1980
17827TIP3    H174972   3.250   3.808  13.870  1.8482  0.8997  0.5377
17827TIP3    H274973   3.247   3.945  13.934 -0.8367  0.8538  0.6168
17828TIP3   OH274974   5.001   3.310   5.457  0.0823  0.5399  0.1642
17828TIP3    H174975   4.983   3.289   5.365 -2.5849 -1.9410  1.1000
17828TIP3    H274976   4.944   3.384   5.476 -0.3358  0.2298  0.1317
17829TIP3   OH274977   0.453   5.515  12.381 -0.7883  0.3031 -0.1417
17829TIP3    H174978   0.499   5.518  12.297  1.3311 -1.5816  0.8346
17829TIP3    H274979   0.375   5.462  12.364  0.5045 -1.5441 -0.6013
17830TIP3   OH274980   2.275   3.684   4.285 -0.1356 -0.3661  0.5742
17830TIP3    H174981   2.192   3.691   4.332 -0.0217  2.1205  0.5265
17830TIP3    H274982   2.250   3.677   4.193 -0.3468  1.2520  0.4755
17831TIP3   OH274983   5.386   1.127  14.440 -0.1925 -0.3376  0.5936
17831TIP3    H174984   5.422   1.062  14.379 -0.5614 -0.9477  1.0054
17831TIP3    H274985   5.349   1.074  14.511 -0.9004  0.3126  0.7215
17832TIP3   OH274986   1.636   1.426   1.279 -0.1465 -0.1538  0.0375
17832TIP3    H174987   1.627   1.351   1.337 -0.7469 -2.2234 -2.5629
17832TIP3    H274988   1.555   1.476   1.292 -1.6950 -2.2228 -1.1103
17833TIP3   OH274989   5.094   1.400  16.399  0.3718  0.1211 -0.7219
17833TIP3    H174990   5.115   1.492  16.413 -0.2691  0.1574  0.1030
17833TIP3    H274991   5.134   1.355  16.473  0.9228 -0.3089 -1.2695
17834TIP3   OH274992   5.898   5.946  10.686 -0.2210 -0.4421  0.5005
17834TIP3    H174993   5.878   6.010  10.754 -0.5013 -1.9327  1.9028
17834TIP3    H274994   5.947   5.878  10.732 -0.0096 -1.2654 -0.9068
17835TIP3   OH274995   4.698   3.723  16.662 -0.0022 -0.5756  0.0755
17835TIP3    H174996   4.788   3.751  16.673  0.2391 -1.4687  0.4505
17835TIP3    H274997   4.646   3.794  16.700  0.6517 -1.3366  2.5520
17836TIP3   OH274998   1.856   1.898  16.055 -0.0727  0.0284  0.2688
17836TIP3    H174999   1.950   1.883  16.043 -0.0483  1.1721 -1.3639
17836TIP3    H275000   1.849   1.936  16.142  0.7773 -1.4490  1.0190
17837TIP3   OH275001   6.251   4.141   1.357  0.4554  0.2167 -1.0350
17837TIP3    H175002   6.339   4.103   1.356  0.4432 -0.3069  2.7188
17837TIP3    H275003   6.192   4.067   1.348  0.4902 -0.4664  2.5850
17838TIP3   OH275004   5.709   4.501   3.331 -0.5506  0.3248 -0.3673
17838TIP3    H175005   5.662   4.582   3.349  0.9005  1.2515 -0.5428
17838TIP3    H275006   5.700   4.489   3.236 -0.7242  0.3187 -0.3493
17839TIP3   OH275007   4.717   0.612   4.901  0.3362  0.2045  0.9785
17839TIP3    H175008   4.809   0.591   4.918 -0.3067 -1.3836  2.9661
17839TIP3    H275009   4.715   0.707   4.894  2.0330  0.3209  1.6023
17840TIP3   OH275010   5.883   4.119  13.673 -0.0057 -0.4813 -0.6734
17840TIP3    H175011   5.822   4.174  13.721  0.0280 -0.8910 -0.1536
17840TIP3    H275012   5.881   4.153  13.584  0.0717  0.4075 -0.3431
17841TIP3   OH275013   0.291   0.377  16.345 -0.5670  0.2433 -0.0083
17841TIP3    H175014   0.332   0.319  16.281 -1.0552 -1.2841  1.0005
17841TIP3    H275015   0.323   0.465  16.323 -0.9163 -0.1935 -2.4658
17842TIP3   OH275016   0.348   2.655   3.715  0.0774 -0.2783  0.1972
17842TIP3    H175017   0.397   2.613   3.786  1.4272  1.9741  0.6905
17842TIP3    H275018   0.284   2.589   3.688  1.0691 -2.0510  1.9215
17843TIP3   OH275019   1.475   1.074   2.871  0.2324  0.4901  0.1226
17843TIP3    H175020   1.381   1.066   2.855  0.3245 -0.2602 -0.0885
17843TIP3    H275021   1.515   1.040   2.791  0.6889  2.1315 -0.3906
17844TIP3   OH275022   0.726   4.677  15.727  0.2586  0.1059 -0.1027
17844TIP3    H175023   0.710   4.692  15.633 -0.4503  2.2720  0.3244
17844TIP3    H275024   0.798   4.736  15.748  1.0837 -1.0968  0.5392
17845TIP3   OH275025   0.457   1.946   0.105 -0.2625 -0.6186  0.2409
17845TIP3    H175026   0.497   1.885   0.043 -0.5871  0.4097 -1.0178
17845TIP3    H275027   0.531   1.986   0.151  0.0987 -0.0906 -0.7641
17846TIP3   OH275028   4.179   3.116   2.018 -0.0575 -0.0563  0.2040
17846TIP3    H175029   4.150   3.030   1.989 -1.9565  0.6278 -0.0643
17846TIP3    H275030   4.198   3.163   1.937  1.1891 -0.2619  0.3563
17847TIP3   OH275031   0.636   3.270  14.214  0.2725  0.9000 -1.1547
17847TIP3    H175032   0.714   3.313  14.249  0.2089  0.9976 -1.1353
17847TIP3    H275033   0.591   3.235  14.290  0.9333 -0.2272 -1.2493
17848TIP3   OH275034   6.179   1.419  16.211 -0.3722 -0.2964  0.7365
17848TIP3    H175035   6.108   1.459  16.260  0.4183  1.8750  0.2206
17848TIP3    H275036   6.258   1.458  16.247  0.3055  0.4353 -1.4062
17849TIP3   OH275037   0.273   6.360  11.012  0.4710 -0.5490 -0.1561
17849TIP3    H175038   0.223   6.287  10.975  1.3582 -0.5803 -1.3508
17849TIP3    H275039   0.215   6.397  11.079 -0.0154 -2.3030  0.4396
17850TIP3   OH275040   0.983   4.564  16.701  0.0939 -0.4060  0.1333
17850TIP3    H175041   0.917   4.580  16.768  0.6064 -1.2584  0.8532
17850TIP3    H275042   1.041   4.640  16.706 -1.1704  0.6890 -0.9661
17851TIP3   OH275043   4.064   5.381   5.899 -0.1597 -0.4510  0.4120
17851TIP3    H175044   4.102   5.435   5.829 -0.1339 -0.9210  0.0536
17851TIP3    H275045   3.975   5.361   5.867 -0.3549 -0.1852  0.7845
17852TIP3   OH275046   2.529   6.608  15.712  0.3480  0.3327 -0.0555
17852TIP3    H175047   2.559   6.664  15.640  0.5567 -0.7718 -0.8579
17852TIP3    H275048   2.552   6.657  15.791  0.5017  1.3843 -0.7294
17853TIP3   OH275049   6.107   5.156  15.730  0.3209  0.2198 -0.3875
17853TIP3    H175050   6.072   5.115  15.651 -0.8174 -0.9921  0.6870
17853TIP3    H275051   6.139   5.083  15.783 -2.2374  0.5119  1.8228
17854TIP3   OH275052   6.724   6.700  12.456 -0.2336 -0.1615  0.1211
17854TIP3    H175053   6.746   6.717  12.365 -0.4792 -1.2638 -0.1561
17854TIP3    H275054   6.751   6.609  12.471 -1.9057 -0.6101  0.6085
17855TIP3   OH275055   4.437   3.725   5.672  0.5957 -0.3506  0.6328
17855TIP3    H175056   4.522   3.683   5.661 -0.1370 -1.9130  0.7038
17855TIP3    H275057   4.398   3.683   5.748 -0.9304 -0.8705 -0.3811
17856TIP3   OH275058   3.387   0.848  14.934 -0.3782 -0.1525 -0.2210
17856TIP3    H175059   3.364   0.930  14.979  0.8620 -2.1735  4.8033
17856TIP3    H275060   3.307   0.795  14.938  0.4016 -1.3304  2.5380
17857TIP3   OH275061   4.138   6.426  11.368  0.1968 -0.2635  0.2618
17857TIP3    H175062   4.047   6.399  11.372  0.0482  0.2235  0.2469
17857TIP3    H275063   4.136   6.521  11.380  0.6953 -0.2404  0.2074
17858TIP3   OH275064   3.190   4.695  14.261  0.1794 -0.0326 -0.1624
17858TIP3    H175065   3.119   4.681  14.325  0.7064 -1.5065  0.1421
17858TIP3    H275066   3.162   4.647  14.184  0.5577 -0.0706 -0.2750
17859TIP3   OH275067   1.761   3.968   0.659  0.0931 -0.4564  0.1469
17859TIP3    H175068   1.792   3.981   0.749 -0.7027 -0.0706  0.3751
17859TIP3    H275069   1.830   4.007   0.604  0.7424 -0.9851  0.5640
17860TIP3   OH275070   4.821   2.876  10.644 -0.0499  0.1369  0.4010
17860TIP3    H175071   4.727   2.874  10.629  0.0082  0.4819 -0.0370
17860TIP3    H275072   4.837   2.962  10.684  0.3383  0.9689 -1.4433
17861TIP3   OH275073   3.863   6.075   1.296  0.5742  0.0377 -0.3524
17861TIP3    H175074   3.940   6.121   1.264 -1.2772  2.7383 -1.3507
17861TIP3    H275075   3.802   6.076   1.222 -1.0597 -0.3804  0.9199
17862TIP3   OH275076   4.711   1.858  14.495 -0.2788 -0.2406 -0.4648
17862TIP3    H175077   4.714   1.867  14.400 -0.0450 -1.5221 -0.5986
17862TIP3    H275078   4.802   1.864  14.523 -0.2587 -0.6902 -0.4195
17863TIP3   OH275079   2.593   5.389  17.058  0.0852  0.8413  0.0413
17863TIP3    H175080   2.516   5.442  17.034 -0.5313 -0.3698 -0.7607
17863TIP3    H275081   2.631   5.362  16.975  0.1604 -0.2844  0.4166
17864TIP3   OH275082   3.888   0.873   3.728 -1.0872 -0.1781  0.1950
17864TIP3    H175083   3.901   0.779   3.710  1.8661  0.3210 -0.7958
17864TIP3    H275084   3.889   0.914   3.642 -2.2830  0.7944  0.6312
17865TIP3   OH275085   5.364   0.098   3.639 -0.1769  0.0385  0.1774
17865TIP3    H175086   5.282   0.145   3.651  0.2648  0.4574  1.7081
17865TIP3    H275087   5.337   0.011   3.608 -1.1366  0.4239 -0.1108
17866TIP3   OH275088   3.871   0.922  11.928 -0.5013  0.4379 -0.7004
17866TIP3    H175089   3.826   0.915  11.844  0.7458  1.3225 -1.4741
17866TIP3    H275090   3.926   1.000  11.920 -1.7322  1.6682  1.6003
17867TIP3   OH275091   5.004   3.142  14.365  0.8305 -0.3493 -0.2466
17867TIP3    H175092   5.063   3.108  14.432 -0.8548  0.6411  1.8414
17867TIP3    H275093   5.061   3.190  14.305  2.4199 -1.4106  0.3582
17868TIP3   OH275094   0.605   4.024  10.775 -0.7640 -0.1077  0.3768
17868TIP3    H175095   0.644   4.013  10.862 -0.1049  1.5344  0.3273
17868TIP3    H275096   0.553   4.105  10.783 -0.6132  0.1121 -0.7761
17869TIP3   OH275097   1.564   1.263   2.195 -0.5903 -0.0316  0.1745
17869TIP3    H175098   1.638   1.216   2.233  0.4045  1.4535  0.1447
17869TIP3    H275099   1.604   1.323   2.131 -1.6184  1.9664  1.3108
17870TIP3   OH275100   2.709   1.028  12.054 -0.2479 -0.1135  0.0001
17870TIP3    H175101   2.785   1.005  12.108  0.2504  1.4484  0.0125
17870TIP3    H275102   2.730   0.995  11.967 -0.4366 -1.4061  0.4187
17871TIP3   OH275103   6.804   0.108  13.988  0.3370 -0.1392 -0.3498
17871TIP3    H175104   6.841   0.082  13.903  0.9141 -0.4929  0.0012
17871TIP3    H275105   6.715   0.072  13.987  0.8935 -1.5834 -0.1512
17872TIP3   OH275106   1.678   6.256   0.817 -0.3980 -0.2316 -0.2983
17872TIP3    H175107   1.759   6.222   0.852 -0.4954 -0.1752 -0.0188
17872TIP3    H275108   1.609   6.205   0.859 -0.5260  0.0185 -0.2011
17873TIP3   OH275109   6.671   4.710  10.699 -0.4406  0.0172  0.0225
17873TIP3    H175110   6.750   4.760  10.680  0.5071 -1.4610 -0.1128
17873TIP3    H275111   6.603   4.748  10.643 -0.3440  2.5121  1.4633
17874TIP3   OH275112   1.908   2.443   5.045 -0.1664  0.0595 -0.5090
17874TIP3    H175113   1.930   2.380   4.977  3.2591 -1.1350  1.4416
17874TIP3    H275114   1.825   2.412   5.081  0.8260 -2.7702 -0.3948
17875TIP3   OH275115   3.305   0.392  16.971 -0.1705 -0.8980 -0.1580
17875TIP3    H175116   3.277   0.387  17.062  2.8336 -0.0218  0.9156
17875TIP3    H275117   3.333   0.303  16.950  0.4246 -0.8181  0.2630
17876TIP3   OH275118   1.252   1.201   3.381  0.4823  0.1547 -0.1077
17876TIP3    H175119   1.171   1.209   3.332  1.3389  0.4257 -1.5477
17876TIP3    H275120   1.321   1.211   3.315  1.6844 -0.2604  1.0396
17877TIP3   OH275121   5.919   5.072   2.279 -0.1203 -0.5567 -0.0912
17877TIP3    H175122   5.946   5.074   2.187  2.1053 -0.5204  0.5194
17877TIP3    H275123   5.995   5.102   2.328 -0.2412 -3.2385  1.9946
17878TIP3   OH275124   3.973   6.178  17.051 -0.2686  0.0377 -0.3869
17878TIP3    H175125   3.958   6.084  17.057  1.3582 -0.2674 -0.8632
17878TIP3    H275126   3.910   6.208  16.984  0.3125 -0.9815 -1.4187
17879TIP3   OH275127   0.953   1.094   0.763 -0.7701 -0.2611  0.0408
17879TIP3    H175128   0.962   1.168   0.823 -2.3445 -0.5499  0.6873
17879TIP3    H275129   0.886   1.121   0.701 -0.4733 -0.6801 -0.4716
17880TIP3   OH275130   0.086   0.698   0.357 -1.3282  0.0191 -0.2569
17880TIP3    H175131   0.066   0.631   0.291 -1.3053 -0.2685  0.0293
17880TIP3    H275132   0.100   0.778   0.306  0.9027 -0.6481 -0.8314
17881TIP3   OH275133   1.923   2.663  10.958 -0.6093 -0.3241  0.5524
17881TIP3    H175134   1.959   2.610  11.028 -1.6472 -0.0977  1.2865
17881TIP3    H275135   1.854   2.714  11.000  0.2138  1.4575 -0.1746
17882TIP3   OH275136   3.715   1.402   4.830  0.1797 -0.2752  0.1812
17882TIP3    H175137   3.783   1.339   4.852  1.4633  0.5759 -1.1277
17882TIP3    H275138   3.740   1.482   4.875 -0.2366 -0.1002  0.1078
17883TIP3   OH275139   6.029   6.366   1.720  0.3326 -0.3863  0.1220
17883TIP3    H175140   5.974   6.428   1.768  0.1172 -0.3737 -0.1399
17883TIP3    H275141   6.048   6.409   1.636  0.1176 -0.7043 -0.0940
17884TIP3   OH275142   2.002   3.870   3.868  0.5459 -0.0530  0.2522
17884TIP3    H175143   2.073   3.903   3.812  1.1483  0.6053  1.3447
17884TIP3    H275144   2.004   3.928   3.944 -0.2537 -0.9089  0.9484
17885TIP3   OH275145   5.964   0.993  14.702  0.1108 -0.2222 -0.2974
17885TIP3    H175146   5.889   0.985  14.643 -0.3133 -2.5246  0.4650
17885TIP3    H275147   5.932   1.048  14.773 -1.3989 -2.2017  0.6802
17886TIP3   OH275148   2.329   0.067   3.194 -1.1548  0.0976  0.3574
17886TIP3    H175149   2.379   0.138   3.233  0.1870 -0.2033 -0.7092
17886TIP3    H275150   2.396   0.006   3.161 -2.1253  0.4034 -2.4775
17887TIP3   OH275151   2.941   6.259   3.745 -0.4088  0.5776 -0.3459
17887TIP3    H175152   2.988   6.205   3.809  0.5767  0.1720 -1.3774
17887TIP3    H275153   3.010   6.300   3.693 -1.1868  1.1671 -0.9315
17888TIP3   OH275154   6.731   1.783  12.685  0.3291 -0.2510 -0.6461
17888TIP3    H175155   6.734   1.839  12.763  1.4988  2.9976 -2.8526
17888TIP3    H275156   6.819   1.786  12.649 -0.4043 -0.8549 -2.6495
17889TIP3   OH275157   0.307   1.446   0.995 -0.0453  0.1969  0.5640
17889TIP3    H175158   0.389   1.399   1.010 -0.4713 -0.6119  0.3951
17889TIP3    H275159   0.252   1.384   0.947 -0.9910  0.5068  1.2213
17890TIP3   OH275160   5.645   6.376   1.066 -0.4522 -0.2373 -0.4338
17890TIP3    H175161   5.610   6.301   1.113  1.8307 -1.2185 -0.1762
17890TIP3    H275162   5.625   6.451   1.122 -3.0394 -0.5149 -0.8396
17891TIP3   OH275163   3.631   5.804   2.976  0.3661  1.1269  0.6505
17891TIP3    H175164   3.612   5.869   3.044 -1.1876  0.0581  1.3078
17891TIP3    H275165   3.564   5.820   2.909 -2.7794 -2.1632  2.6074
17892TIP3   OH275166   2.462   1.241  15.313 -0.8169 -0.5756  0.4341
17892TIP3    H175167   2.400   1.310  15.289 -0.9829 -0.6621  0.6104
17892TIP3    H275168   2.411   1.160  15.307 -0.4690 -0.7470 -0.3454
17893TIP3   OH275169   2.820   2.725  13.866  0.5855  0.2938  0.0816
17893TIP3    H175170   2.759   2.652  13.876  0.5124  0.0520 -1.7797
17893TIP3    H275171   2.764   2.803  13.867  0.2855  0.1082 -1.0441
17894TIP3   OH275172   3.979   4.040  15.190 -0.3846 -0.3243 -0.0405
17894TIP3    H175173   3.982   4.059  15.283  0.1027 -0.2973 -0.0565
17894TIP3    H275174   3.956   3.947  15.184  0.9302 -0.6836  0.1571
17895TIP3   OH275175   3.762   2.458   2.849 -0.1916  0.2172 -0.2987
17895TIP3    H175176   3.675   2.422   2.866  0.2485 -0.1088  1.4576
17895TIP3    H275177   3.798   2.401   2.780 -1.1274 -0.0034 -0.6278
17896TIP3   OH275178   4.842   0.276  13.571 -0.3451 -0.2897 -0.0629
17896TIP3    H175179   4.775   0.215  13.602 -0.1566  0.2304  1.4541
17896TIP3    H275180   4.806   0.362  13.590  1.7227  0.0081  3.1719
17897TIP3   OH275181   4.050   1.632   4.548 -0.7076 -0.0910  0.4036
17897TIP3    H175182   4.093   1.647   4.464 -0.3033 -1.1023  0.4211
17897TIP3    H275183   4.094   1.692   4.608 -0.4209  0.0336  0.0725
17898TIP3   OH275184   6.794   3.371   2.732 -0.1719  0.3155 -0.4903
17898TIP3    H175185   6.844   3.309   2.786 -0.7581  0.9699  0.8636
17898TIP3    H275186   6.858   3.408   2.672  1.0445  1.2402  1.2949
17899TIP3   OH275187   1.182   2.008   1.384 -0.2092 -0.1864 -0.1527
17899TIP3    H175188   1.165   2.029   1.292  1.5989 -1.1364 -0.7573
17899TIP3    H275189   1.098   2.021   1.428 -1.3526 -0.6227 -2.1033
17900TIP3   OH275190   0.404   6.223  11.613  0.1681 -0.3245 -0.3935
17900TIP3    H175191   0.326   6.206  11.561 -0.1599 -1.6169  0.4719
17900TIP3    H275192   0.373   6.223  11.704  1.0543 -0.1222 -0.0746
17901TIP3   OH275193   3.175   4.164  15.017  0.1910  0.8174  0.0471
17901TIP3    H175194   3.103   4.221  15.044 -0.5689 -0.0064 -0.2224
17901TIP3    H275195   3.253   4.205  15.056 -0.5727  1.0109  1.4508
17902TIP3   OH275196   0.688   5.598  17.053 -0.1676  0.1092 -0.3493
17902TIP3    H175197   0.735   5.531  17.004  0.8042 -0.5235  1.3694
17902TIP3    H275198   0.734   5.603  17.137 -1.8501  1.0426  0.5623
17903TIP3   OH275199   6.271   2.655  11.300  0.4881  0.5532 -0.0738
17903TIP3    H175200   6.203   2.719  11.319 -0.0299  0.8315 -2.5523
17903TIP3    H275201   6.343   2.707  11.264 -0.1410 -0.2228 -2.6108
17904TIP3   OH275202   4.210   6.678   2.793  0.0889 -0.4932 -0.8351
17904TIP3    H175203   4.297   6.672   2.833 -0.6251 -0.5980  0.8001
17904TIP3    H275204   4.190   6.589   2.765  0.3800 -0.5285 -0.9396
17905TIP3   OH275205   0.988   6.664   0.991 -0.1108 -0.1410  0.2703
17905TIP3    H175206   0.973   6.758   0.981  0.5430  0.1350  1.5975
17905TIP3    H275207   1.075   6.650   0.953 -0.6215 -0.3913 -0.8097
17906TIP3   OH275208   0.918   3.610  16.494  0.2736  0.2297 -0.1882
17906TIP3    H175209   0.931   3.546  16.564  0.4503  1.1522  0.6448
17906TIP3    H275210   0.919   3.694  16.538 -0.0636  0.8107 -1.2558
17907TIP3   OH275211   4.858   5.453  11.882 -0.3550  0.2120  0.1434
17907TIP3    H175212   4.775   5.501  11.885  0.3830  1.5265  1.3253
17907TIP3    H275213   4.901   5.485  11.803 -0.0407  1.2839  0.7161
17908TIP3   OH275214   1.678   3.152   5.947  0.1099 -0.3462 -0.2654
17908TIP3    H175215   1.734   3.168   6.022  0.5671  0.1331 -0.7084
17908TIP3    H275216   1.601   3.108   5.984  1.2290 -2.0247  0.2155
17909TIP3   OH275217   6.166   3.729  11.165  0.0723 -0.2035 -0.1171
17909TIP3    H175218   6.256   3.734  11.132  0.6230 -1.0000  1.1726
17909TIP3    H275219   6.116   3.694  11.092  0.5844  1.2880 -1.2189
17910TIP3   OH275220   0.839   2.891  15.924  0.5338 -0.0234 -0.2915
17910TIP3    H175221   0.910   2.948  15.953  1.7524 -1.3380 -0.5743
17910TIP3    H275222   0.822   2.833  15.998 -0.0240  0.0626 -0.3457
17911TIP3   OH275223   1.263   4.526  11.509 -0.0556  0.1646 -0.2276
17911TIP3    H175224   1.254   4.467  11.434  0.5551  0.5301 -0.5996
17911TIP3    H275225   1.294   4.608  11.471  1.2454  0.0498  0.5262
17912TIP3   OH275226   1.392   2.072   4.644 -0.1414  0.6903  0.5135
17912TIP3    H175227   1.390   2.075   4.548  1.7182  0.0812  0.4241
17912TIP3    H275228   1.462   2.132   4.669  0.8428 -0.7341  1.3516
17913TIP3   OH275229   5.713   5.230   3.539  0.3369 -0.1824  0.2932
17913TIP3    H175230   5.670   5.157   3.584 -0.7593  0.5447  0.4519
17913TIP3    H275231   5.644   5.270   3.486  1.5615 -0.9548 -2.0288
17914TIP3   OH275232   4.018   2.877  12.640 -0.3690  0.0490  0.1835
17914TIP3    H175233   4.062   2.885  12.725  0.8437 -1.2503 -0.2841
17914TIP3    H275234   4.033   2.961  12.597  0.0524  0.2850  0.7778
17915TIP3   OH275235   3.733   1.442  15.307  0.4492  0.1484  0.2692
17915TIP3    H175236   3.715   1.403  15.393  0.1534 -0.9873 -0.2866
17915TIP3    H275237   3.812   1.396  15.277 -0.5548 -0.8780 -0.8943
17916TIP3   OH275238   3.612   5.250  11.885  0.3221 -0.3310  0.5164
17916TIP3    H175239   3.586   5.316  11.949 -0.0837 -2.2683  2.4730
17916TIP3    H275240   3.618   5.298  11.803 -2.1209  1.6996  1.3786
17917TIP3   OH275241   0.258   2.363  11.549  0.0968  0.1748  0.6452
17917TIP3    H175242   0.242   2.410  11.467 -2.9837  0.7624  1.4441
17917TIP3    H275243   0.182   2.304  11.558  0.2953  0.1829  3.0827
17918TIP3   OH275244   4.472   3.111  14.253  0.4347  0.1871 -0.1128
17918TIP3    H175245   4.564   3.136  14.262  1.0593 -2.0228  0.1904
17918TIP3    H275246   4.432   3.184  14.207  2.4015  1.0869 -0.5060
17919TIP3   OH275247   5.516   3.917  12.540  0.1733 -0.2915 -0.0752
17919TIP3    H175248   5.558   3.841  12.499  0.4004  0.0189 -0.4315
17919TIP3    H275249   5.513   3.896  12.633  0.7306 -0.5052 -0.1002
17920TIP3   OH275250   3.790   0.941  11.678 -0.8676  0.5675 -0.5007
17920TIP3    H175251   3.724   0.914  11.614 -0.6954  0.4845 -0.6431
17920TIP3    H275252   3.873   0.931  11.632 -0.6525 -0.5730  0.0877
17921TIP3   OH275253   3.647   3.954   6.456 -0.9009  0.3511 -0.5841
17921TIP3    H175254   3.567   3.926   6.411 -2.4626  1.9058  1.0533
17921TIP3    H275255   3.635   3.925   6.546  1.3021 -1.0545 -0.6831
17922TIP3   OH275256   0.023   6.557   5.298  0.5964 -0.2944  0.3699
17922TIP3    H175257  -0.055   6.599   5.261  0.4770 -0.4911  0.3972
17922TIP3    H275258  -0.010   6.504   5.370  0.9397  0.8556  1.4053
17923TIP3   OH275259   3.341   4.784  16.929 -0.1121 -0.6332 -0.4228
17923TIP3    H175260   3.429   4.746  16.934 -0.4898 -1.4629  0.1390
17923TIP3    H275261   3.282   4.711  16.947 -0.8447  0.3963  1.7325
17924TIP3   OH275262   0.640   1.559   1.881  0.0424  0.3527  0.6489
17924TIP3    H175263   0.607   1.475   1.914 -0.5796  0.8802  1.3998
17924TIP3    H275264   0.655   1.611   1.960 -2.1829  1.9385  0.1074
17925TIP3   OH275265   6.221   6.016   0.992  0.8264 -0.5325  0.7491
17925TIP3    H175266   6.261   6.096   0.959 -0.1886  0.3852  1.6405
17925TIP3    H275267   6.262   6.001   1.078  0.2752 -0.3705  1.0460
17926TIP3   OH275268   4.174   6.647   0.822  0.9526  0.0982 -0.2279
17926TIP3    H175269   4.188   6.697   0.903  0.0327  0.7103 -0.4183
17926TIP3    H275270   4.245   6.584   0.819  0.7114 -0.2948  1.3364
17927TIP3   OH275271   2.991   6.014  11.704  0.3605 -0.1432  0.7854
17927TIP3    H175272   2.929   5.958  11.658  0.2339  1.1653 -0.7363
17927TIP3    H275273   2.948   6.099  11.707  2.2927  0.9944 -0.9540
17928TIP3   OH275274   0.525   5.869   1.485  0.6652  0.1755 -0.0625
17928TIP3    H175275   0.620   5.872   1.470  0.5755 -1.7893 -1.4160
17928TIP3    H275276   0.512   5.921   1.564  2.9460  0.0261  0.4878
17929TIP3   OH275277   4.902   2.522  14.629  0.2642  0.5740 -0.3733
17929TIP3    H175278   4.856   2.491  14.552  0.1001 -0.9122  0.2902
17929TIP3    H275279   4.994   2.508  14.610  0.2623  0.7909 -0.5415
17930TIP3   OH275280   6.507   5.127  11.733 -0.1213 -0.0257 -0.3361
17930TIP3    H175281   6.502   5.146  11.639  0.1552  0.6508 -0.2194
17930TIP3    H275282   6.544   5.039  11.738 -0.6413 -0.2755 -0.8761
17931TIP3   OH275283   2.642   1.907  11.730  0.5540 -0.5085 -0.3934
17931TIP3    H175284   2.718   1.877  11.780  1.3091 -0.2229 -1.3596
17931TIP3    H275285   2.660   1.998  11.709 -0.2297 -0.3257 -0.3240
17932TIP3   OH275286   0.352   6.432   2.301  0.3318  0.3449 -0.2758
17932TIP3    H175287   0.330   6.339   2.306 -2.0257  0.8222 -0.7532
17932TIP3    H275288   0.291   6.468   2.237  0.1962  2.4912  0.9508
17933TIP3   OH275289   5.145   3.354   0.954  0.3936 -0.7741  0.1599
17933TIP3    H175290   5.214   3.419   0.948  0.7013 -1.1696 -0.7535
17933TIP3    H275291   5.172   3.284   0.894 -0.0678 -1.6128  0.8933
17934TIP3   OH275292   3.412   5.761  11.599  0.0584 -0.1668  0.3541
17934TIP3    H175293   3.382   5.695  11.661 -1.6730  1.4707  1.3438
17934TIP3    H275294   3.371   5.843  11.628  2.7709  1.5847 -0.2825
17935TIP3   OH275295   0.398   2.218   1.420  0.2085 -0.2511  0.2245
17935TIP3    H175296   0.352   2.139   1.448 -2.1258  0.3332 -1.6785
17935TIP3    H275297   0.442   2.249   1.499 -0.3725 -2.3972  1.4732
17936TIP3   OH275298   0.421   0.375   0.754  0.1979  0.2073 -0.5586
17936TIP3    H175299   0.455   0.323   0.681 -1.6725 -1.7463 -0.1492
17936TIP3    H275300   0.335   0.405   0.723 -0.2078  0.1522  0.4836
17937TIP3   OH275301   0.543   5.648  16.720  0.3209  0.3109 -0.0892
17937TIP3    H175302   0.547   5.729  16.669  1.6363  1.2481  1.3912
17937TIP3    H275303   0.626   5.647  16.768 -1.0207 -0.2793  2.3385
17938TIP3   OH275304   6.733   0.172  11.561  0.2616  0.3561 -0.8151
17938TIP3    H175305   6.772   0.225  11.492 -0.1576 -0.3235 -1.5833
17938TIP3    H275306   6.639   0.189  11.556  0.2936  0.8323  0.0467
17939TIP3   OH275307   6.085   0.190   5.361  0.0379 -0.0279  0.1886
17939TIP3    H175308   6.027   0.140   5.419 -1.4496  0.6013 -0.6910
17939TIP3    H275309   6.106   0.269   5.410 -0.2068 -0.0648  0.3585
17940TIP3   OH275310   3.147   4.740   4.201  0.4893 -0.2197 -0.4163
17940TIP3    H175311   3.073   4.680   4.203  0.3778 -0.1007 -0.9718
17940TIP3    H275312   3.109   4.824   4.174  1.2103 -0.7215 -3.2837
17941TIP3   OH275313   3.288   3.760   0.783 -0.7341  0.8170  0.1247
17941TIP3    H175314   3.261   3.692   0.845  0.0211  1.3724  1.0941
17941TIP3    H275315   3.382   3.748   0.773 -0.3565  2.4436  1.2678
17942TIP3   OH275316   1.951   1.065  16.103 -0.0662  0.2191 -0.1972
17942TIP3    H175317   2.001   1.002  16.154 -0.8973  0.4027  0.8870
17942TIP3    H275318   2.015   1.131  16.077  0.3793  0.1411  0.6584
17943TIP3   OH275319   4.699   3.457   2.131 -0.0274  0.1616  0.0303
17943TIP3    H175320   4.754   3.492   2.061  0.2818  1.6400  0.9679
17943TIP3    H275321   4.677   3.368   2.102  0.3221  0.6191 -1.7905
17944TIP3   OH275322   4.503   2.890  15.139  0.0019  0.6934  0.3836
17944TIP3    H175323   4.513   2.952  15.066 -2.7682 -1.2389 -1.8984
17944TIP3    H275324   4.411   2.900  15.166  0.4154 -0.1075  2.2324
17945TIP3   OH275325   0.338   4.338   3.010 -0.4590 -0.0675  0.1387
17945TIP3    H175326   0.382   4.358   2.927  0.1341 -0.4978  0.3381
17945TIP3    H275327   0.245   4.351   2.992 -0.4340 -1.1388 -0.8960
17946TIP3   OH275328   6.254   3.213  11.102  0.2030  0.4541  0.1343
17946TIP3    H175329   6.334   3.161  11.096  0.1718  0.3544  0.5798
17946TIP3    H275330   6.212   3.203  11.016 -0.0282 -0.6262  0.3652
17947TIP3   OH275331   3.693   6.479  15.593  0.3898  0.0337  0.3787
17947TIP3    H175332   3.663   6.388  15.589  4.0421 -1.2978 -1.6622
17947TIP3    H275333   3.630   6.527  15.539 -0.3738 -1.7557 -0.4139
17948TIP3   OH275334   3.458   1.953   3.962  0.2745 -0.3022  0.2895
17948TIP3    H175335   3.368   1.925   3.980 -0.3272  0.1832 -1.7053
17948TIP3    H275336   3.458   2.047   3.978  0.1314 -0.1252 -0.6883
17949TIP3   OH275337   1.338   1.865   0.326 -0.0108 -0.0564  0.3878
17949TIP3    H175338   1.268   1.817   0.371 -1.6597  3.0572  1.4212
17949TIP3    H275339   1.384   1.912   0.396  2.2769 -0.9235 -0.4494
17950TIP3   OH275340   4.907   1.615  12.644 -0.5770 -0.2168 -0.7248
17950TIP3    H175341   4.895   1.663  12.562 -0.1930 -0.0946 -0.7076
17950TIP3    H275342   4.836   1.645  12.700 -0.8596 -0.3219 -1.0207
17951TIP3   OH275343   0.813   4.527   5.399  0.2345  0.5628 -0.8116
17951TIP3    H175344   0.837   4.575   5.320  1.4652  0.7310 -0.3657
17951TIP3    H275345   0.791   4.595   5.463  1.6213  0.5653 -0.2916
17952TIP3   OH275346   1.495   2.097   2.837 -0.0178  0.3867  0.4652
17952TIP3    H175347   1.468   2.140   2.918  0.3759  0.3366  0.6237
17952TIP3    H275348   1.534   2.014   2.866 -0.6757 -0.0314  0.1710
17953TIP3   OH275349   2.260   4.836  11.740  0.4534  0.1334  0.1442
17953TIP3    H175350   2.300   4.916  11.708 -0.4640  0.1360 -1.0336
17953TIP3    H275351   2.210   4.863  11.817  0.5233  0.6118  0.0219
17954TIP3   OH275352   3.109   6.681  12.107  0.2026 -0.0446  0.2464
17954TIP3    H175353   3.083   6.714  12.193  0.3543 -1.0863  0.7162
17954TIP3    H275354   3.200   6.654  12.118 -0.1226 -1.2874  0.1229
17955TIP3   OH275355   2.851   5.609   1.622  0.3813  0.0849 -0.0228
17955TIP3    H175356   2.889   5.523   1.604  2.6090  0.8060  0.8396
17955TIP3    H275357   2.911   5.670   1.580 -1.6642  1.2435 -1.4298
17956TIP3   OH275358   0.333   6.256  14.802  0.2441 -0.6858  0.0143
17956TIP3    H175359   0.301   6.277  14.889  0.6512  1.1276 -0.2274
17956TIP3    H275360   0.295   6.323  14.746  1.0774 -1.0106 -0.9732
17957TIP3   OH275361   6.269   5.136  11.040 -0.1659 -0.3273  0.8489
17957TIP3    H175362   6.272   5.096  10.953 -1.2726 -2.2072  1.6185
17957TIP3    H275363   6.359   5.165  11.056  0.0169  0.1775 -0.9644
17958TIP3   OH275364   3.006   4.886  16.817 -0.4241  0.7566  0.2642
17958TIP3    H175365   3.021   4.903  16.910 -0.9015 -1.4585  0.8031
17958TIP3    H275366   3.073   4.938  16.772  0.1885  1.4123  1.8733
17959TIP3   OH275367   5.357   6.444  11.655 -0.3504  0.9049 -0.0647
17959TIP3    H175368   5.300   6.520  11.652 -1.0274  0.5124  1.7773
17959TIP3    H275369   5.438   6.473  11.613 -0.8195  2.4257  0.0380
17960TIP3   OH275370   1.833   1.942  12.900 -0.3224 -0.4133 -0.4422
17960TIP3    H175371   1.807   1.983  12.817 -1.8749  1.4299  0.8546
17960TIP3    H275372   1.889   2.007  12.942  0.3738 -1.2911  0.0168
17961TIP3   OH275373   4.850   1.379  16.258  0.7968  0.0684  0.3589
17961TIP3    H175374   4.863   1.313  16.190  1.5036  0.0819  0.4724
17961TIP3    H275375   4.927   1.370  16.315  1.5682  1.8178 -0.3096
17962TIP3   OH275376   2.120   6.612  14.249 -0.0058  0.6441  0.8728
17962TIP3    H175377   2.029   6.638  14.237 -0.4267 -0.6110  1.1341
17962TIP3    H275378   2.144   6.568  14.167  0.1369  0.3777  1.0527
17963TIP3   OH275379   6.431   2.845   1.514  0.2205 -0.3297  0.5319
17963TIP3    H175380   6.398   2.934   1.516 -3.2666 -1.4728  1.2944
17963TIP3    H275381   6.487   2.838   1.591  0.3044  1.0866  0.6194
17964TIP3   OH275382   3.182   2.210  15.088 -0.5104 -0.9045 -0.4872
17964TIP3    H175383   3.212   2.286  15.137 -0.4989 -0.2161 -1.5177
17964TIP3    H275384   3.172   2.141  15.153  0.1119 -0.2068  0.3688
17965TIP3   OH275385   6.208   5.581   3.863 -0.3126 -0.2492 -0.3283
17965TIP3    H175386   6.204   5.670   3.899 -0.2201  0.0577 -1.0497
17965TIP3    H275387   6.232   5.594   3.771 -2.5065 -0.8671 -1.0571
17966TIP3   OH275388   6.274   6.305  16.614 -1.1818  0.0267 -0.5621
17966TIP3    H175389   6.195   6.253  16.625 -0.0136 -1.5455  1.0761
17966TIP3    H275390   6.323   6.261  16.545 -0.9764 -0.0319 -0.3801
17967TIP3   OH275391   1.733   5.624   2.300  0.6086  0.1257  0.6950
17967TIP3    H175392   1.771   5.600   2.215  0.9914 -0.3700  1.0040
17967TIP3    H275393   1.659   5.680   2.278 -1.6894 -3.0112 -0.1642
17968TIP3   OH275394   5.807   2.143  12.492 -0.4841  0.0385 -0.2736
17968TIP3    H175395   5.878   2.178  12.439 -1.8212  2.2975 -0.7205
17968TIP3    H275396   5.729   2.152  12.436 -2.0234  2.8834  2.0319
17969TIP3   OH275397   5.557   0.441   4.098 -0.6793 -0.2153  0.6994
17969TIP3    H175398   5.563   0.527   4.139 -2.3129  0.7166 -0.8720
17969TIP3    H275399   5.474   0.405   4.128 -0.4707 -0.8292  0.5623
17970TIP3   OH275400   1.508   3.703  13.781 -0.2373  0.6248 -0.1919
17970TIP3    H175401   1.458   3.625  13.803 -0.4953  0.5821 -0.8892
17970TIP3    H275402   1.457   3.745  13.711  1.1141  0.1164 -1.5588
17971TIP3   OH275403   2.170   6.101  11.943  0.1529  0.2177  0.2508
17971TIP3    H175404   2.216   6.018  11.952  0.7153  0.3882 -0.8743
17971TIP3    H275405   2.078   6.080  11.960  0.5826 -0.1370  2.4870
17972TIP3   OH275406   1.227   5.780   3.289  0.0175 -0.0699 -0.2355
17972TIP3    H175407   1.141   5.808   3.321 -0.7081  0.0071 -2.1314
17972TIP3    H275408   1.280   5.860   3.291 -0.7337  0.4958 -1.4366
17973TIP3   OH275409   2.816   1.382   5.637  0.0600 -0.1724 -0.3454
17973TIP3    H175410   2.812   1.289   5.657  2.2231 -0.2415  0.0341
17973TIP3    H275411   2.885   1.416   5.695  0.0608  1.4405 -1.2302
17974TIP3   OH275412   5.941   3.410   2.926 -0.6464 -0.3771 -0.1812
17974TIP3    H175413   5.861   3.409   2.979 -0.1343 -0.6008  0.6127
17974TIP3    H275414   6.011   3.387   2.988  0.0531 -0.0316 -0.8269
17975TIP3   OH275415   3.387   1.255  15.819 -0.7283  0.2745 -0.4218
17975TIP3    H175416   3.354   1.292  15.901  2.2474  0.9515  0.5961
17975TIP3    H275417   3.416   1.330  15.768  0.6622 -0.2958 -0.5328
17976TIP3   OH275418   2.882   0.987  14.082 -1.0199  0.8902  0.0548
17976TIP3    H175419   2.827   1.020  14.011 -0.6217  0.8087 -0.2936
17976TIP3    H275420   2.924   0.909  14.046 -1.9965 -0.0518  0.8933
17977TIP3   OH275421   1.805   4.196  16.262 -0.5295 -0.0702 -0.0183
17977TIP3    H175422   1.833   4.268  16.318  0.7246  0.1391 -0.8745
17977TIP3    H275423   1.814   4.118  16.317  0.3458  0.1709  0.1982
17978TIP3   OH275424   6.174   2.388  12.789 -0.6288  0.1324 -0.1578
17978TIP3    H175425   6.261   2.378  12.828 -1.3521 -1.0014  1.2518
17978TIP3    H275426   6.191   2.427  12.703  1.4694 -2.1272 -0.8670
17979TIP3   OH275427   5.792   5.766   5.669 -0.2172  0.2066  0.0089
17979TIP3    H175428   5.840   5.761   5.587 -1.2347  1.3957 -0.7090
17979TIP3    H275429   5.710   5.810   5.646 -2.3638 -3.0237  0.8697
17980TIP3   OH275430   5.898   2.599   1.991 -0.1114  0.3177  0.1468
17980TIP3    H175431   5.977   2.585   1.939 -0.5622  0.1523 -0.5040
17980TIP3    H275432   5.930   2.636   2.074  0.8009 -1.1843  0.5070
17981TIP3   OH275433   0.741   1.802  12.269 -0.1375 -0.1823 -0.0111
17981TIP3    H175434   0.742   1.753  12.351  0.8597 -0.8550 -0.4010
17981TIP3    H275435   0.653   1.791  12.235 -1.0571  1.3617  1.6827
17982TIP3   OH275436   3.126   1.635  16.275  0.4834 -0.1454 -0.5450
17982TIP3    H175437   3.100   1.545  16.293  1.5686  0.0206  2.4243
17982TIP3    H275438   3.217   1.640  16.304 -0.0789  2.3160  1.0951
17983TIP3   OH275439   3.574   5.270   1.950 -0.4181 -0.0001 -0.1003
17983TIP3    H175440   3.662   5.305   1.935 -0.4773  1.7308  2.7153
17983TIP3    H275441   3.522   5.347   1.974 -1.9579 -1.3529  1.0876
17984TIP3   OH275442   4.169   3.319   4.319 -0.1038 -0.1080 -0.3033
17984TIP3    H175443   4.106   3.382   4.283 -1.0552 -0.4553  0.6849
17984TIP3    H275444   4.244   3.372   4.345 -0.9194  0.6517  0.5864
17985TIP3   OH275445   5.546   4.762  14.745 -0.3889 -0.3715 -0.4198
17985TIP3    H175446   5.602   4.832  14.778 -0.2146  0.3297 -2.1170
17985TIP3    H275447   5.459   4.802  14.738 -0.6634 -0.8383  0.1990
17986TIP3   OH275448   4.817   4.803  14.560  0.1639 -0.2147  0.5720
17986TIP3    H175449   4.893   4.802  14.501 -0.4227 -1.4776 -0.2305
17986TIP3    H275450   4.776   4.887  14.544 -0.0052 -0.5417 -0.9096
17987TIP3   OH275451   5.164   1.093   2.263 -0.4271  0.4649  0.1977
17987TIP3    H175452   5.116   1.174   2.281 -1.0094  0.0997  0.2747
17987TIP3    H275453   5.135   1.068   2.175  0.2504  0.6895 -0.0995
17988TIP3   OH275454   1.164   1.222  16.025  0.3124 -0.2351  0.0452
17988TIP3    H175455   1.220   1.300  16.025 -0.6634  0.4929 -0.4203
17988TIP3    H275456   1.199   1.168  15.955 -1.0277  1.3595 -1.9789
17989TIP3   OH275457   6.099   5.333  14.868  0.4989  0.3751  0.4125
17989TIP3    H175458   6.169   5.368  14.812  1.1767 -1.5357  0.0073
17989TIP3    H275459   6.103   5.387  14.947  2.3602  0.3996  0.3442
17990TIP3   OH275460   3.524   0.092   1.692 -0.2289  0.0195 -0.4057
17990TIP3    H175461   3.597   0.090   1.630 -0.7174 -0.8089 -0.9715
17990TIP3    H275462   3.542   0.168   1.747  1.9763 -1.1105  0.5881
17991TIP3   OH275463   3.410   6.565  11.548 -0.0622 -0.4033 -0.2147
17991TIP3    H175464   3.482   6.614  11.588 -0.2381 -0.9839  0.8496
17991TIP3    H275465   3.331   6.609  11.578 -0.2163 -1.2202  0.6172
17992TIP3   OH275466   6.241   1.399   0.095  0.1826  0.0340  0.4418
17992TIP3    H175467   6.241   1.495   0.099 -0.6023  0.0641  0.0128
17992TIP3    H275468   6.306   1.372   0.159 -0.7660  0.8297  1.7998
17993TIP3   OH275469   3.613   0.833   3.699  0.4303 -0.2951  0.5912
17993TIP3    H175470   3.698   0.869   3.721  0.2702 -0.3811  1.3835
17993TIP3    H275471   3.550   0.903   3.718  0.3581 -0.0446 -0.4924
17994TIP3   OH275472   2.726   6.016  10.623 -0.0492  1.0668 -0.0161
17994TIP3    H175473   2.738   5.921  10.628  1.8407  1.3307  1.9861
17994TIP3    H275474   2.737   6.036  10.530  2.0784 -0.4338 -0.1724
17995TIP3   OH275475   4.612   0.707   0.135 -0.4303 -0.1612  0.1183
17995TIP3    H175476   4.611   0.635   0.071 -1.1854 -0.4512  0.4406
17995TIP3    H275477   4.521   0.716   0.161  0.0129 -0.8327  2.0170
17996TIP3   OH275478   4.632   2.393   3.421 -0.2398 -0.0085  0.4064
17996TIP3    H175479   4.582   2.472   3.440 -1.0717 -0.3897 -0.1082
17996TIP3    H275480   4.718   2.408   3.460 -0.6288  0.8324  0.9635
17997TIP3   OH275481   3.920   0.268  17.094  0.1928  0.6853  0.0135
17997TIP3    H175482   4.010   0.265  17.059  0.2246  0.5632  0.1057
17997TIP3    H275483   3.904   0.180  17.126 -0.5751  0.2237 -1.5432
17998TIP3   OH275484   6.239   3.194   0.843  0.5793  0.3939  0.1276
17998TIP3    H175485   6.159   3.140   0.843 -0.2865  1.4491 -3.2833
17998TIP3    H275486   6.220   3.264   0.905 -1.2084  0.6456 -0.6457
17999TIP3   OH275487   3.733   1.687   0.545 -0.2884  0.5972  0.4196
17999TIP3    H175488   3.656   1.638   0.574  0.4777  0.4661  2.3618
17999TIP3    H275489   3.770   1.725   0.625  0.2669  2.7551 -0.7631
18000TIP3   OH275490   4.517   1.691   4.201  0.3924 -0.2274 -0.0889
18000TIP3    H175491   4.592   1.632   4.210 -0.1135 -0.7018  1.1969
18000TIP3    H275492   4.447   1.635   4.167 -0.0133 -0.3169  0.8776
18001TIP3   OH275493   3.167   4.879  11.096 -0.9002 -0.2307  0.1731
18001TIP3    H175494   3.118   4.925  11.028 -0.2780  0.0792 -0.0796
18001TIP3    H275495   3.183   4.792  11.060 -2.2497 -0.7245  0.7326
18002TIP3   OH275496   6.513   3.177  12.810  1.2669  0.3430  0.2934
18002TIP3    H175497   6.426   3.214  12.819  1.3100  0.6825 -0.5314
18002TIP3    H275498   6.517   3.106  12.874  1.0643  1.5433  1.6672
18003TIP3   OH275499   0.297   2.609   0.848  0.6065 -0.1789 -0.3696
18003TIP3    H175500   0.294   2.688   0.901 -1.4311 -0.5018  0.0666
18003TIP3    H275501   0.262   2.636   0.763  0.9664 -0.3566 -0.5755
18004TIP3   OH275502   0.731   6.751   5.946 -0.1227 -0.1496  0.1041
18004TIP3    H175503   0.728   6.657   5.965  0.2422 -0.0758  0.5261
18004TIP3    H275504   0.699   6.793   6.025 -0.3359  0.0841 -0.1045
18005TIP3   OH275505   1.695   6.167  17.058  0.1497 -0.2085 -0.2449
18005TIP3    H175506   1.782   6.180  17.020 -0.1227  0.8682 -0.5241
18005TIP3    H275507   1.692   6.073  17.079  1.2145 -0.3389 -0.6186
18006TIP3   OH275508   4.563   3.457   1.022 -0.4878 -0.2649 -0.3377
18006TIP3    H175509   4.586   3.518   0.952  0.0643 -0.0111  0.0601
18006TIP3    H275510   4.582   3.371   0.986 -1.3316 -0.2214 -0.9267
18007TIP3   OH275511   3.264   2.315  15.426  0.0067 -0.3913 -0.3601
18007TIP3    H175512   3.237   2.367  15.351  0.5459 -1.9485 -1.7162
18007TIP3    H275513   3.182   2.283  15.464 -0.2583 -0.4733 -0.9805
18008TIP3   OH275514   3.725   2.417   3.290  0.5053  0.0807  0.4955
18008TIP3    H175515   3.704   2.389   3.379  2.2614  1.0113  1.2477
18008TIP3    H275516   3.725   2.336   3.239 -2.4719 -0.2714  0.8348
18009TIP3   OH275517   6.692   3.493   0.448 -0.0232  0.6069 -0.9192
18009TIP3    H175518   6.619   3.448   0.405  0.0538  0.4108 -0.8453
18009TIP3    H275519   6.751   3.423   0.476 -0.4650  0.6804  0.2363
18010TIP3   OH275520   0.345   6.168  16.646  0.0929  0.0223  0.4796
18010TIP3    H175521   0.274   6.157  16.582  0.0270 -0.4859  0.6325
18010TIP3    H275522   0.309   6.224  16.714 -0.3745 -0.7465  0.8714
18011TIP3   OH275523   0.966   2.919   1.421 -0.1909  0.5491  0.5761
18011TIP3    H175524   1.017   2.958   1.492 -0.7413 -1.6913  2.2957
18011TIP3    H275525   0.906   2.858   1.464 -1.3293 -0.0916 -1.7342
18012TIP3   OH275526   4.307   4.574   5.847  0.2503  0.5103  0.0458
18012TIP3    H175527   4.399   4.585   5.871  0.7499 -0.3737 -1.3321
18012TIP3    H275528   4.261   4.568   5.930  1.7828 -1.5769  0.8361
18013TIP3   OH275529   0.267   4.291  13.559  0.2617 -0.2293  0.6480
18013TIP3    H175530   0.329   4.340  13.612 -0.3989  0.7361  0.5516
18013TIP3    H275531   0.213   4.358  13.516  0.1065 -1.0059 -0.4219
18014TIP3   OH275532   2.067   2.517   1.951  0.0541  0.2450  0.0428
18014TIP3    H175533   2.096   2.593   2.001 -1.3563  0.9306 -0.1561
18014TIP3    H275534   2.018   2.552   1.877  2.0323 -0.7544 -1.8793
18015TIP3   OH275535   2.571   6.092   5.767  0.2061 -0.0329  0.5106
18015TIP3    H175536   2.539   6.006   5.740 -1.2828  0.3930  0.8157
18015TIP3    H275537   2.511   6.119   5.836  0.9794  1.0273  0.7879
18016TIP3   OH275538   3.008   5.814   0.160 -0.4658 -0.5026 -0.0801
18016TIP3    H175539   3.043   5.897   0.128  0.7093 -0.0003  2.2738
18016TIP3    H275540   2.913   5.824   0.157 -0.3560  0.3953 -1.0439
18017TIP3   OH275541   5.804   3.798   0.182 -0.3599  0.2477  0.3097
18017TIP3    H175542   5.829   3.728   0.242  0.6947  0.5835  0.2852
18017TIP3    H275543   5.883   3.815   0.130 -0.1375  2.3889  1.2561
18018TIP3   OH275544   4.416   4.116   4.875  0.3011 -0.4699  0.2376
18018TIP3    H175545   4.366   4.057   4.932  0.7004 -0.8500  0.1997
18018TIP3    H275546   4.496   4.068   4.855  1.0080  0.3993  0.8608
18019TIP3   OH275547   1.342   1.298  12.235 -0.2475 -0.2034  0.3020
18019TIP3    H175548   1.437   1.297  12.247  0.0409 -0.1418 -1.5755
18019TIP3    H275549   1.306   1.308  12.323  1.4287 -1.6824  1.2103
18020TIP3   OH275550   5.349   2.189   5.405 -0.5850  0.3493  0.1387
18020TIP3    H175551   5.397   2.260   5.363 -0.7994  1.2598  1.3768
18020TIP3    H275552   5.264   2.227   5.426 -1.4043 -0.8542 -0.8521
18021TIP3   OH275553   4.171   2.977  16.808  0.2108 -0.3087 -0.2640
18021TIP3    H175554   4.180   3.028  16.727  0.6983  1.5295  0.8818
18021TIP3    H275555   4.240   2.912  16.803  1.8603  1.3495 -0.2893
18022TIP3   OH275556   6.241   5.750   4.779 -0.2526  0.0608  0.3721
18022TIP3    H175557   6.250   5.833   4.732 -1.9190 -1.3255 -2.6590
18022TIP3    H275558   6.163   5.710   4.743  0.0541 -2.5362  2.2987
18023TIP3   OH275559   3.536   1.581  14.247 -0.8878  0.3999  0.2727
18023TIP3    H175560   3.631   1.587  14.241 -0.8961  0.9234  0.6518
18023TIP3    H275561   3.505   1.671  14.240 -1.5131  0.0767 -2.2852
18024TIP3   OH275562   6.516   4.661   5.372 -0.2072  0.2445  0.2663
18024TIP3    H175563   6.424   4.644   5.394 -0.0939 -1.3503 -0.3542
18024TIP3    H275564   6.535   4.745   5.414 -1.9261  0.5886  0.4457
18025TIP3   OH275565   2.015   4.232   3.991 -0.0194  0.6500 -0.2538
18025TIP3    H175566   1.937   4.222   3.936 -0.6605  0.3660  0.6899
18025TIP3    H275567   2.015   4.156   4.048  0.8425  0.7559 -0.0976
18026TIP3   OH275568   2.473   6.549  11.742  0.7975  0.2552 -0.7270
18026TIP3    H175569   2.486   6.481  11.676 -0.3025 -1.3124  0.5809
18026TIP3    H275570   2.385   6.584  11.724  0.4999 -0.1645 -0.1493
18027TIP3   OH275571   2.449   5.501  10.863 -0.3385  0.4891 -0.4355
18027TIP3    H175572   2.367   5.488  10.909 -1.6241  1.2338 -2.3759
18027TIP3    H275573   2.475   5.412  10.836 -0.6260  0.2724 -0.0109
18028TIP3   OH275574   1.042   4.447  10.148 -0.2683 -0.4171 -0.0947
18028TIP3    H175575   0.999   4.369  10.184 -0.3246  0.4046  1.6937
18028TIP3    H275576   0.979   4.518  10.162  0.5470  0.3001  0.0196
18029TIP3   OH275577   4.134   4.291  12.307  0.4149  0.3345  0.0400
18029TIP3    H175578   4.171   4.203  12.299  0.2367  0.0650  1.7936
18029TIP3    H275579   4.039   4.276  12.309  0.3694  0.6058 -0.0609
18030TIP3   OH275580   5.585   5.314  12.320  0.7288 -0.3386 -0.5641
18030TIP3    H175581   5.626   5.347  12.240  0.4868  0.8846 -0.2038
18030TIP3    H275582   5.657   5.285  12.375  0.8662 -1.8045 -1.4668
18031TIP3   OH275583   2.639   5.270   0.089  0.0304  0.2962 -0.5853
18031TIP3    H175584   2.628   5.297  -0.002 -0.6987 -1.3705 -1.0261
18031TIP3    H275585   2.554   5.234   0.114 -0.1471  1.8284  1.1699
18032TIP3   OH275586   0.704   3.009   4.920  0.0397 -0.2307  0.4657
18032TIP3    H175587   0.768   3.075   4.892  0.4200 -0.4993  0.6904
18032TIP3    H275588   0.711   3.008   5.015 -0.2355 -0.3278  0.4851
18033TIP3   OH275589   2.814   0.130  11.020 -0.4846 -0.0064 -0.2543
18033TIP3    H175590   2.820   0.214  11.067 -2.4976  0.2513 -0.3811
18033TIP3    H275591   2.723   0.126  10.990  0.3372 -0.8557 -2.8691
18034TIP3   OH275592   5.958   5.042  14.419  0.2018  0.0519  0.3711
18034TIP3    H175593   5.889   5.105  14.403 -0.0035  0.1724  1.6410
18034TIP3    H275594   5.915   4.957  14.416 -0.1908  0.1641  1.9367
18035TIP3   OH275595   6.387   3.043  11.377  0.2968 -0.0769  0.1785
18035TIP3    H175596   6.404   3.052  11.471 -0.4812  2.1817  0.1459
18035TIP3    H275597   6.439   2.966  11.351 -0.8242 -1.8592  2.7579
18036TIP3   OH275598   1.231   3.547   3.266 -0.5286 -0.2313  0.1416
18036TIP3    H175599   1.273   3.461   3.259 -2.1016 -1.0644  0.4773
18036TIP3    H275600   1.277   3.601   3.202 -0.6888 -1.8195 -1.3957
18037TIP3   OH275601   4.682   2.710   1.273  0.0004 -0.2444 -0.2847
18037TIP3    H175602   4.755   2.668   1.228 -0.2752 -0.8766 -0.1553
18037TIP3    H275603   4.704   2.703   1.366  0.0576  0.1013 -0.2707
18038TIP3   OH275604   2.197   2.425  11.497  0.0007  0.0926  0.1118
18038TIP3    H175605   2.174   2.513  11.468 -0.4488  0.3385  1.1584
18038TIP3    H275606   2.278   2.437  11.548  0.4233 -0.2343 -0.4713
18039TIP3   OH275607   3.209   5.666   3.652 -0.1982  0.0210  0.1189
18039TIP3    H175608   3.249   5.630   3.573 -0.8082  0.1507 -0.2551
18039TIP3    H275609   3.274   5.729   3.685  0.5454 -0.8330  0.3586
18040TIP3   OH275610   0.221   3.482  11.852 -0.3673 -0.1693 -0.0857
18040TIP3    H175611   0.266   3.400  11.870  3.0553  1.4228 -0.6075
18040TIP3    H275612   0.250   3.507  11.765 -1.3966  1.5562  0.0229
18041TIP3   OH275613   4.113   6.338  12.438 -0.2009  0.4785 -0.2863
18041TIP3    H175614   4.134   6.246  12.421 -0.2910  0.6906 -1.6822
18041TIP3    H275615   4.084   6.340  12.529 -1.7953 -1.1712 -0.7048
18042TIP3   OH275616   6.598   1.273  16.842 -0.5966 -0.3361  0.3256
18042TIP3    H175617   6.627   1.346  16.896 -0.5040  0.9682 -1.4312
18042TIP3    H275618   6.598   1.198  16.902 -0.6906  1.0723  2.1718
18043TIP3   OH275619   5.897   5.609  16.172  0.2690  0.0103  0.5219
18043TIP3    H175620   5.827   5.591  16.234  0.3841 -0.0443  0.6359
18043TIP3    H275621   5.866   5.571  16.089  0.1113  0.0931  0.5436
18044TIP3   OH275622   2.018   5.790  13.986  0.2109 -0.7166 -0.7966
18044TIP3    H175623   2.030   5.859  13.920  1.3145 -1.5330 -1.4789
18044TIP3    H275624   1.985   5.715  13.937  0.6422 -1.2020 -0.3570
18045TIP3   OH275625   0.959   0.789  12.696  0.0813  0.3778  0.3432
18045TIP3    H175626   0.999   0.842  12.627 -1.1180  1.5850  0.5329
18045TIP3    H275627   0.869   0.821  12.702 -0.5412 -1.3227  0.8585
18046TIP3   OH275628   0.753   2.946  11.658 -0.2080  0.7510  0.5563
18046TIP3    H175629   0.805   2.995  11.594 -0.1247  0.8108  0.6695
18046TIP3    H275630   0.781   2.855  11.647 -0.0051  0.7962  0.6853
18047TIP3   OH275631   1.551   2.121  10.658 -0.1945  0.0669  0.0675
18047TIP3    H175632   1.473   2.165  10.623 -0.2230 -1.8631 -2.5753
18047TIP3    H275633   1.623   2.150  10.602  0.3002 -0.9671  0.1508
18048TIP3   OH275634   1.348   3.569  12.539 -0.8646 -0.2281  0.0393
18048TIP3    H175635   1.349   3.592  12.632 -0.6991 -1.4944  0.3769
18048TIP3    H275636   1.279   3.503  12.531 -1.2908  0.3081 -0.8595
18049TIP3   OH275637   6.471   5.207  11.477  0.0062  0.3608  0.5360
18049TIP3    H175638   6.435   5.282  11.432 -0.3284 -0.4306 -0.5576
18049TIP3    H275639   6.495   5.146  11.408  1.9428  0.1836  1.3124
18050TIP3   OH275640   3.981   3.676  12.841 -0.2579  0.2399 -0.1066
18050TIP3    H175641   4.012   3.596  12.798 -0.5160 -0.0031  0.1490
18050TIP3    H275642   3.926   3.644  12.913 -2.3217  0.6459 -1.4124
18051TIP3   OH275643   3.481   6.388  13.446  0.6639 -0.3211 -0.7008
18051TIP3    H175644   3.459   6.462  13.503  1.6717  0.7235 -1.6089
18051TIP3    H275645   3.529   6.327  13.502  2.1450  0.9487 -0.5235
18052TIP3   OH275646   5.919   4.599  11.831 -0.1794 -0.9049  0.6314
18052TIP3    H175647   5.987   4.572  11.893 -0.8111 -0.8045  1.3784
18052TIP3    H275648   5.889   4.684  11.864  1.0193  0.2535 -1.0640
18053TIP3   OH275649   6.305   4.653  14.628  0.0877 -0.1793  0.2140
18053TIP3    H175650   6.284   4.737  14.587  0.4238  1.2804  2.7564
18053TIP3    H275651   6.400   4.643  14.615 -0.2685 -1.3326 -1.9493
18054TIP3   OH275652   0.146   0.794   3.048 -0.0741 -0.5231  0.8236
18054TIP3    H175653   0.217   0.852   3.079 -1.3796  1.2783  0.6270
18054TIP3    H275654   0.070   0.852   3.039 -1.0657 -1.9925 -0.9313
18055TIP3   OH275655   0.684   6.670  11.544  0.7171 -0.2574  0.0267
18055TIP3    H175656   0.748   6.665  11.615 -0.4832  0.3022  1.1767
18055TIP3    H275657   0.636   6.587  11.549  3.1977 -2.0889 -2.7567
18056TIP3   OH275658   3.734   1.145  10.534 -0.0746  0.4177 -0.4626
18056TIP3    H175659   3.829   1.141  10.519 -0.3451 -0.6974 -2.0855
18056TIP3    H275660   3.707   1.227  10.494  0.2966  1.1860  0.7914
18057TIP3   OH275661   0.703   4.981   0.044  0.1050  0.1561 -0.4919
18057TIP3    H175662   0.707   4.921  -0.031 -0.6014 -0.2140 -0.2404
18057TIP3    H275663   0.790   5.022   0.047  0.6251 -0.9252 -0.5964
18058TIP3   OH275664   4.997   1.541   2.898 -0.2324  0.0991 -0.4709
18058TIP3    H175665   4.967   1.575   2.983  0.3374 -0.8229  0.1190
18058TIP3    H275666   4.917   1.534   2.846 -0.5657  0.8535 -0.0777
18059TIP3   OH275667   5.138   2.068   1.813 -0.3505 -0.2171  0.4442
18059TIP3    H175668   5.120   1.981   1.848 -0.3468  0.0046  0.9978
18059TIP3    H275669   5.071   2.081   1.746 -0.1009 -0.8097  0.0711
18060TIP3   OH275670   3.582   0.855   2.803 -0.0704  0.1087 -0.4165
18060TIP3    H175671   3.525   0.877   2.876 -0.2591  0.2428 -0.6021
18060TIP3    H275672   3.669   0.844   2.842 -0.2661 -0.3350 -0.0938
18061TIP3   OH275673   6.491   4.831   5.580 -0.5282  0.1191 -0.1171
18061TIP3    H175674   6.507   4.852   5.672  0.9817 -0.0221 -0.3308
18061TIP3    H275675   6.525   4.907   5.532  2.2531 -1.4140 -0.7401
18062TIP3   OH275676   5.362   4.103   0.938  0.2692  0.3494 -0.4465
18062TIP3    H175677   5.359   4.199   0.939  1.1717  0.3925  0.6790
18062TIP3    H275678   5.314   4.078   1.017 -0.4769 -0.1672 -1.0488
18063TIP3   OH275679   0.140   0.770   0.628 -0.7791 -0.5876  0.0492
18063TIP3    H175680   0.101   0.767   0.541 -2.2659  0.9491  0.6017
18063TIP3    H275681   0.234   0.779   0.611 -1.1685  1.4023 -1.4712
18064TIP3   OH275682   6.578   4.076   4.244  0.7601  0.0946  0.1455
18064TIP3    H175683   6.573   4.167   4.273  0.6400 -0.4668  2.0793
18064TIP3    H275684   6.487   4.047   4.239  0.7818  0.1881 -0.8721
18065TIP3   OH275685   4.392   0.685  10.733  0.3462  0.9776 -0.5043
18065TIP3    H175686   4.445   0.726  10.664  1.0125 -0.2744 -0.7682
18065TIP3    H275687   4.456   0.645  10.792 -0.2618  0.4354 -0.1981
18066TIP3   OH275688   5.510   4.232  10.634  0.1561 -0.9911 -0.2372
18066TIP3    H175689   5.555   4.295  10.690  0.7791 -1.1062 -0.5959
18066TIP3    H275690   5.416   4.251  10.647  0.3058 -0.7002  0.4601
18067TIP3   OH275691   5.996   0.366   0.092  0.1920 -0.3001 -0.2096
18067TIP3    H175692   6.019   0.319   0.013 -1.9707 -1.2370 -0.3696
18067TIP3    H275693   5.999   0.300   0.161  2.3114  0.5630  0.5837
18068TIP3   OH275694   5.814   5.362   5.323  0.5262  0.0833 -0.0705
18068TIP3    H175695   5.891   5.416   5.340  0.4897  0.2994 -0.5529
18068TIP3    H275696   5.850   5.276   5.302  0.6311  0.1412 -0.1332
18069TIP3   OH275697   2.740   6.786  16.871 -0.2058 -0.2707  0.2025
18069TIP3    H175698   2.661   6.780  16.817 -1.5641 -0.1942  2.0648
18069TIP3    H275699   2.767   6.695  16.884  0.9461 -0.2384 -1.6601
18070TIP3   OH275700   0.410   1.724  12.601 -0.7453  0.0185  0.0081
18070TIP3    H175701   0.387   1.632  12.588 -3.9118  0.5223  1.2401
18070TIP3    H275702   0.451   1.727  12.688 -0.5329 -0.2282 -0.0822
18071TIP3   OH275703   6.681   2.190   4.240 -0.4685 -0.5387 -0.0189
18071TIP3    H175704   6.711   2.269   4.287 -2.8897  0.3344  0.2116
18071TIP3    H275705   6.681   2.216   4.148 -0.3599 -0.5973 -0.0354
18072TIP3   OH275706   1.949   5.548   1.373 -0.0623  0.3336  0.7874
18072TIP3    H175707   2.003   5.483   1.419 -0.2183  0.7450  1.5609
18072TIP3    H275708   2.012   5.601   1.324  0.1209  0.0032  0.6632
18073TIP3   OH275709   3.429   6.649   0.759  0.6001 -0.0991  0.1541
18073TIP3    H175710   3.470   6.579   0.709 -1.7374  0.2885 -2.6541
18073TIP3    H275711   3.404   6.609   0.842 -0.8031 -2.7451 -1.4058
18074TIP3   OH275712   0.422   6.564  13.863 -0.0946  0.7642 -0.3485
18074TIP3    H175713   0.369   6.621  13.919 -0.2409  1.1327 -0.8536
18074TIP3    H275714   0.500   6.545  13.915 -1.1009 -0.5294  0.7758
18075TIP3   OH275715   6.207   1.630   1.808  0.2784  0.4737 -0.6790
18075TIP3    H175716   6.252   1.594   1.732  0.1774 -0.7364 -0.1938
18075TIP3    H275717   6.240   1.580   1.882  0.1454  1.4222  0.0429
18076TIP3   OH275718   5.817   6.235   2.973 -0.4602 -0.8080 -0.3246
18076TIP3    H175719   5.816   6.323   3.011 -0.2755 -1.3524  0.9852
18076TIP3    H275720   5.770   6.244   2.890  0.0826  0.6512 -0.5027
18077TIP3   OH275721   1.414   3.035   5.041 -0.3259  0.8436 -0.0464
18077TIP3    H175722   1.493   3.032   4.987 -1.2861  0.4327 -1.4924
18077TIP3    H275723   1.427   3.110   5.099  1.3959  0.3889  0.2168
18078TIP3   OH275724   5.747   0.996  13.268 -0.3795  0.6214 -0.4693
18078TIP3    H175725   5.677   1.021  13.207  0.1953 -0.5410 -1.6534
18078TIP3    H275726   5.821   1.052  13.242 -0.0537 -0.0575 -1.0453
18079TIP3   OH275727   2.539   2.249   2.743  0.0055 -0.6420  0.6724
18079TIP3    H175728   2.478   2.302   2.794 -0.0475 -0.2268  0.1884
18079TIP3    H275729   2.623   2.295   2.749 -0.4985  0.7302 -1.5020
18080TIP3   OH275730   6.446   5.779  16.383 -0.7993  0.0101  0.6880
18080TIP3    H175731   6.357   5.744  16.391 -1.3088  1.1792  0.2661
18080TIP3    H275732   6.456   5.835  16.460 -0.5342  0.0939  0.5914
18081TIP3   OH275733   5.349   1.867  12.730 -0.6079 -0.2867  0.1639
18081TIP3    H175734   5.363   1.955  12.766  1.7272 -0.7661  0.5736
18081TIP3    H275735   5.264   1.840  12.764 -0.5428  1.1025  1.5305
18082TIP3   OH275736   5.626   0.968   2.747 -0.2069 -0.1977 -0.4253
18082TIP3    H175737   5.671   0.992   2.828  1.1412  2.0239 -1.7103
18082TIP3    H275738   5.664   0.884   2.721  0.0574 -0.4402  0.7230
18083TIP3   OH275739   3.074   5.374   1.278  0.1271 -0.1991 -0.4030
18083TIP3    H175740   3.138   5.303   1.277 -0.5326 -0.9162  1.8890
18083TIP3    H275741   3.062   5.396   1.185  1.5446 -1.9677 -1.0847
18084TIP3   OH275742   5.458   6.200  11.569  0.6449  0.0448  0.6651
18084TIP3    H175743   5.421   6.279  11.608 -1.0009 -1.5125  2.4541
18084TIP3    H275744   5.456   6.217  11.474  0.0625  2.0090  0.9942
18085TIP3   OH275745   3.526   0.482  14.389  0.3409  0.0896 -0.3171
18085TIP3    H175746   3.511   0.540  14.314 -1.4832  0.4149  0.2349
18085TIP3    H275747   3.531   0.541  14.464  2.0151 -0.2439 -0.1414
18086TIP3   OH275748   4.868   0.410   5.067 -0.0980 -0.1454 -0.2079
18086TIP3    H175749   4.822   0.352   5.128 -0.9704 -0.8428 -1.4813
18086TIP3    H275750   4.887   0.354   4.991  1.0353  0.6790 -0.5627
18087TIP3   OH275751   4.135   2.169  11.730 -0.4909  0.5288 -0.0354
18087TIP3    H175752   4.040   2.157  11.739 -0.3403 -0.1012  0.7797
18087TIP3    H275753   4.163   2.204  11.814  0.0030  0.7327 -0.2806
18088TIP3   OH275754   4.155   3.060  14.956  0.6623 -0.2318  0.0625
18088TIP3    H175755   4.151   3.154  14.972 -0.4038 -0.1786 -0.4668
18088TIP3    H275756   4.192   3.024  15.037  1.5547  0.6721  0.0846
18089TIP3   OH275757   3.818   6.742  14.434 -0.4452  0.3680  0.2218
18089TIP3    H175758   3.755   6.776  14.497 -0.5894 -1.6837  1.2541
18089TIP3    H275759   3.899   6.733  14.483  0.1219  1.0701 -0.5584
18090TIP3   OH275760   2.909   4.195  15.783 -0.3349  0.2247 -0.5317
18090TIP3    H175761   2.829   4.159  15.822 -0.2296  0.6041  0.0417
18090TIP3    H275762   2.890   4.198  15.689 -0.6391 -0.5695 -0.5055
18091TIP3   OH275763   3.590   5.587   5.425 -0.2622  0.0917  0.1937
18091TIP3    H175764   3.672   5.554   5.461 -0.6709 -1.0795  0.0831
18091TIP3    H275765   3.575   5.535   5.347 -1.0717  0.3587  0.1603
18092TIP3   OH275766   2.206   2.538  12.294 -0.2520 -0.6061 -0.2848
18092TIP3    H175767   2.224   2.628  12.268 -1.0429 -0.4720 -0.4006
18092TIP3    H275768   2.112   2.537  12.312 -0.4274 -1.6400 -1.2055
18093TIP3   OH275769   6.405   4.152   5.257 -0.4715 -0.1768 -0.8855
18093TIP3    H175770   6.326   4.167   5.205 -1.0148 -1.8463 -0.5946
18093TIP3    H275771   6.470   4.118   5.195 -0.9008 -1.5024 -0.6404
18094TIP3   OH275772   4.685   1.291   3.283  0.2667 -0.1214 -0.3462
18094TIP3    H175773   4.625   1.299   3.210 -0.8837 -0.0670  0.5806
18094TIP3    H275774   4.709   1.381   3.306 -0.5209 -0.0585  0.2584
18095TIP3   OH275775   3.989   1.779  15.055 -0.5427 -0.5514 -0.1200
18095TIP3    H175776   4.032   1.849  15.005 -1.0485 -0.6232 -0.6792
18095TIP3    H275777   4.059   1.719  15.078 -0.1137  0.0936  0.2897
18096TIP3   OH275778   2.342   4.706  14.894 -0.8061  0.2272  0.1044
18096TIP3    H175779   2.395   4.770  14.848 -0.6245  0.6731  0.9072
18096TIP3    H275780   2.338   4.739  14.984 -2.5835  0.3031  0.0341
18097TIP3   OH275781   5.833   5.516   4.988  0.0701  0.5336  0.5107
18097TIP3    H175782   5.906   5.467   5.025 -0.9127 -1.0190  0.4480
18097TIP3    H275783   5.823   5.482   4.899 -0.5536  0.9299  0.4208
18098TIP3   OH275784   2.869   0.193   3.245  0.0899  0.5042 -0.2144
18098TIP3    H175785   2.848   0.251   3.318  1.8775  0.3381  0.4868
18098TIP3    H275786   2.962   0.206   3.230  0.5071 -1.9583 -0.2029
18099TIP3   OH275787   4.391   3.480   4.440  0.0666 -0.5131 -0.1756
18099TIP3    H175788   4.373   3.574   4.431 -1.0242 -0.7306 -0.4437
18099TIP3    H275789   4.439   3.473   4.522 -0.5520  0.2014  0.2662
18100TIP3   OH275790   6.382   6.137  10.455 -0.7562 -0.6437  0.5331
18100TIP3    H175791   6.400   6.205  10.520 -1.5396  0.3691 -0.2706
18100TIP3    H275792   6.402   6.179  10.371 -1.4742 -1.3312  0.0136
18101TIP3   OH275793   4.728   0.749  11.798  0.3615  0.3369 -0.4744
18101TIP3    H175794   4.679   0.765  11.879  1.4489  1.7641 -0.0650
18101TIP3    H275795   4.665   0.703  11.742 -0.2623 -1.1377  1.3207
18102TIP3   OH275796   0.197   1.365  16.812  0.1253  1.0056  0.1134
18102TIP3    H175797   0.278   1.326  16.780  1.4342  1.9837  2.0517
18102TIP3    H275798   0.180   1.437  16.752  0.0473  0.1374 -0.9470
18103TIP3   OH275799   0.751   1.874   2.712 -0.0633  0.5378 -0.4292
18103TIP3    H175800   0.753   1.798   2.771 -0.4589  0.4875 -0.4787
18103TIP3    H275801   0.817   1.854   2.645 -0.0792  0.2935 -0.3722
18104TIP3   OH275802   0.157   4.047  16.465 -0.4288 -0.0702  0.0934
18104TIP3    H175803   0.136   3.964  16.508 -0.9289 -0.9421 -1.7240
18104TIP3    H275804   0.074   4.074  16.425 -0.0966  0.9493  0.0696
18105TIP3   OH275805   5.790   3.404  12.966 -0.4017  0.4111  0.5687
18105TIP3    H175806   5.763   3.312  12.968  0.2290  0.1076 -1.8573
18105TIP3    H275807   5.804   3.427  13.058  1.4116 -2.5263  1.1601
18106TIP3   OH275808   3.577   4.133  16.191 -0.2220 -0.4058  1.0879
18106TIP3    H175809   3.586   4.088  16.107 -0.8483  0.5231  0.5095
18106TIP3    H275810   3.575   4.062  16.256  1.4377 -1.0919  0.4541
18107TIP3   OH275811   5.785   4.969  13.223  0.3332 -0.1368 -0.6649
18107TIP3    H175812   5.695   4.963  13.254  0.1178  3.6710 -0.0674
18107TIP3    H275813   5.778   4.965  13.128 -0.5327  0.4479 -0.6363
18108TIP3   OH275814   2.689   0.027   2.454  0.0770  0.4345 -0.1854
18108TIP3    H175815   2.616  -0.036   2.456  0.6371 -0.2104  1.4124
18108TIP3    H275816   2.663   0.095   2.516 -0.0740  1.2860 -1.1658
18109TIP3   OH275817   3.184   5.102   0.869 -0.2630 -0.1561  0.3641
18109TIP3    H175818   3.267   5.142   0.845 -1.1051  1.8674  0.5752
18109TIP3    H275819   3.141   5.083   0.786  0.1273 -0.5809  0.2596
18110TIP3   OH275820   2.423   2.033   2.946  0.1356  0.0274  0.1404
18110TIP3    H175821   2.483   2.034   3.021 -1.0240 -0.3076  1.1214
18110TIP3    H275822   2.450   2.108   2.892 -0.4371  1.7611  2.1035
18111TIP3   OH275823   3.686   4.944   1.373 -0.2840 -1.0377  0.1730
18111TIP3    H175824   3.638   5.027   1.368 -1.2786 -1.5946  0.2907
18111TIP3    H275825   3.733   4.938   1.290 -0.9184 -0.7858 -0.2062
18112TIP3   OH275826   5.830   1.070  13.556  0.4169  0.1191 -0.1774
18112TIP3    H175827   5.826   1.049  13.463  1.1559  0.1522 -0.2227
18112TIP3    H275828   5.771   1.008  13.598 -2.8530  2.4206 -1.0259
18113TIP3   OH275829   3.754   4.713   6.508 -0.2083 -0.7099  0.1395
18113TIP3    H175830   3.766   4.804   6.536  0.0701 -0.4209 -0.8573
18113TIP3    H275831   3.660   4.699   6.511 -0.3798  0.0605 -0.9774
18114TIP3   OH275832   1.447   2.762   6.435  0.1791 -0.4292  0.0109
18114TIP3    H175833   1.488   2.727   6.356 -1.8499  1.0262 -1.8075
18114TIP3    H275834   1.373   2.702   6.451 -0.2270  0.0528 -0.0387
18115TIP3   OH275835   2.846   1.534  12.897 -0.0807 -0.2525 -0.0894
18115TIP3    H175836   2.940   1.514  12.889  0.0439 -0.1087  0.8755
18115TIP3    H275837   2.811   1.461  12.948 -0.3011  0.1895  0.3977
18116TIP3   OH275838   0.089   1.291   0.880  0.2653 -0.1271 -0.0525
18116TIP3    H175839   0.004   1.257   0.909  0.6017 -0.3893  0.6542
18116TIP3    H275840   0.111   1.238   0.803 -1.0150  1.1173 -1.3535
18117TIP3   OH275841   5.171   5.431   3.322 -0.0139 -0.5668  0.3073
18117TIP3    H175842   5.172   5.339   3.350  2.5219 -0.7756 -0.2539
18117TIP3    H275843   5.232   5.475   3.382 -0.4226  0.5521 -0.0729
18118TIP3   OH275844   2.871   1.998   4.191  0.6758  0.2110  0.2380
18118TIP3    H175845   2.893   1.905   4.195 -3.1440 -0.9637 -1.2626
18118TIP3    H275846   2.882   2.029   4.281  1.6572 -1.7939  0.8638
18119TIP3   OH275847   6.332   1.373   6.247 -0.1406 -0.5845  0.6556
18119TIP3    H175848   6.418   1.361   6.288  1.1398 -1.3056 -2.0770
18119TIP3    H275849   6.334   1.319   6.168 -2.9472 -0.2263  0.2253
18120TIP3   OH275850   3.216   5.273   2.843 -0.5206  0.0539 -0.3280
18120TIP3    H175851   3.223   5.205   2.776 -1.0511  0.4249 -0.7657
18120TIP3    H275852   3.163   5.233   2.912  0.5559 -0.5516  0.1673
18121TIP3   OH275853   1.960   5.367  17.045 -0.5662  0.6213  0.3324
18121TIP3    H175854   1.952   5.457  17.012 -0.1639  0.0241 -1.5640
18121TIP3    H275855   1.885   5.355  17.103 -0.4343  2.2812  0.8965
18122TIP3   OH275856   6.512   1.697  13.773  0.2961  0.3315  0.4659
18122TIP3    H175857   6.489   1.789  13.783 -0.1450  0.5713 -2.0293
18122TIP3    H275858   6.442   1.661  13.717  2.4694 -0.4959 -1.9575
18123TIP3   OH275859   6.526   0.949  14.273  0.8333 -0.0550  0.1958
18123TIP3    H175860   6.474   1.029  14.285  2.6951  1.1735  0.5788
18123TIP3    H275861   6.498   0.915  14.188  1.6951  2.4436 -1.2170
18124TIP3   OH275862   5.257   3.483   2.393  0.1575 -0.1612 -0.1760
18124TIP3    H175863   5.170   3.459   2.361  0.0978  0.6998 -0.6888
18124TIP3    H275864   5.246   3.494   2.487 -0.1968 -0.4479 -0.1807
18125TIP3   OH275865   3.345   4.580   0.019  0.2204 -0.2825 -0.2051
18125TIP3    H175866   3.419   4.519   0.019 -0.2124 -0.8368 -1.4878
18125TIP3    H275867   3.323   4.590   0.112  2.3680  0.4930  0.2847
18126TIP3   OH275868   5.568   1.403   6.380 -0.2794 -0.1636  0.3483
18126TIP3    H175869   5.491   1.438   6.423 -0.5167 -0.8532  0.4864
18126TIP3    H275870   5.597   1.473   6.321 -1.4233 -0.1679 -0.2376
18127TIP3   OH275871   4.599   6.708   4.881  0.0656  0.3569 -0.3067
18127TIP3    H175872   4.643   6.700   4.796 -0.9554 -0.2104 -0.8122
18127TIP3    H275873   4.585   6.617   4.908  2.0607  0.4885  1.4115
18128TIP3   OH275874   4.838   3.937  12.050 -0.3509  0.7154 -0.9117
18128TIP3    H175875   4.849   3.911  11.959  1.0980  1.6170 -1.0273
18128TIP3    H275876   4.749   3.972  12.054 -0.6452  0.1104 -1.8339
18129TIP3   OH275877   3.939   5.135   0.229  0.6389 -0.2372 -0.4029
18129TIP3    H175878   3.924   5.076   0.302 -0.1815  1.0978  0.5471
18129TIP3    H275879   3.968   5.217   0.269  0.7125  0.3571 -1.6078
18130TIP3   OH275880   3.516   3.173   3.515  0.2443 -0.4269  0.1476
18130TIP3    H175881   3.544   3.119   3.590 -1.0479 -0.8506  0.3507
18130TIP3    H275882   3.458   3.115   3.465 -0.5610  0.5205 -0.0449
18131TIP3   OH275883   5.928   1.013  17.064 -0.0447  0.7222 -0.4868
18131TIP3    H175884   5.979   1.093  17.079  0.5230  0.3679 -0.5090
18131TIP3    H275885   5.954   0.955  17.135  0.9081 -0.1076 -1.4773
18132TIP3   OH275886   5.585   4.828   4.041 -0.0621 -0.3509  0.3504
18132TIP3    H175887   5.561   4.920   4.033  0.9455 -0.0357  0.7860
18132TIP3    H275888   5.647   4.812   3.970 -1.6754 -1.2221 -0.9233
18133TIP3   OH275889   6.600   0.479   2.705 -0.1221  0.1469 -0.0744
18133TIP3    H175890   6.688   0.483   2.668 -0.4072 -1.4604 -1.0427
18133TIP3    H275891   6.585   0.566   2.741  1.0279  1.1148 -1.7989
18134TIP3   OH275892   4.842   3.507   5.103  0.0876 -0.1919  0.2385
18134TIP3    H175893   4.811   3.510   5.194 -0.2151  0.6325  0.1130
18134TIP3    H275894   4.870   3.597   5.084 -1.7014  0.1238 -1.1291
18135TIP3   OH275895   0.551   0.586   4.347  0.1339  0.3541 -1.0404
18135TIP3    H175896   0.517   0.501   4.319  0.8734 -0.5375  0.6207
18135TIP3    H275897   0.474   0.642   4.352 -0.5526 -0.5598 -1.0060
18136TIP3   OH275898   0.214   2.731   5.016  0.0419 -0.5500 -0.4823
18136TIP3    H175899   0.229   2.822   4.992 -0.2695 -0.9488 -2.3607
18136TIP3    H275900   0.217   2.683   4.933  0.9310 -2.3690  0.5247
18137TIP3   OH275901   1.682   6.767   1.461 -0.4519 -0.3524 -0.0605
18137TIP3    H175902   1.722   6.724   1.536  1.0464  0.2675 -0.4747
18137TIP3    H275903   1.603   6.809   1.496 -0.7876 -1.6315  0.7625
18138TIP3   OH275904   6.360   6.133   0.420  0.4236 -0.1327  0.5441
18138TIP3    H175905   6.277   6.180   0.434  0.0342  0.3541 -2.6618
18138TIP3    H275906   6.360   6.065   0.486 -1.4341  1.2605  2.1108
18139TIP3   OH275907   0.510   2.213   2.185 -0.3417  0.4700  0.4746
18139TIP3    H175908   0.452   2.137   2.191  0.0861  0.1400  0.4760
18139TIP3    H275909   0.578   2.196   2.250  1.0856 -0.2997 -1.1676
18140TIP3   OH275910   1.943   5.604  15.302  0.1472 -0.0342 -0.6976
18140TIP3    H175911   2.029   5.635  15.332 -0.0525 -2.1415  2.4739
18140TIP3    H275912   1.891   5.684  15.292  0.8061  1.1132  3.2900
18141TIP3   OH275913   3.063   6.168   4.514  0.3283 -0.8641  0.4715
18141TIP3    H175914   3.118   6.245   4.527 -0.3943 -0.1900 -0.3607
18141TIP3    H275915   3.037   6.142   4.602 -0.1643  0.3976  0.7208
18142TIP3   OH275916   5.473   6.329  16.325 -0.1768 -0.0367  0.5211
18142TIP3    H175917   5.530   6.406  16.319  1.5722 -1.3577 -0.6815
18142TIP3    H275918   5.409   6.340  16.255 -0.3630  0.6141  0.7833
18143TIP3   OH275919   3.110   4.759  13.263 -0.6598  0.0273  0.4986
18143TIP3    H175920   3.055   4.719  13.331  0.3395  0.4059  1.5686
18143TIP3    H275921   3.115   4.694  13.194 -1.0370 -0.7083  1.1505
18144TIP3   OH275922   3.182   6.243  10.508 -0.2990  0.2734  0.7553
18144TIP3    H175923   3.126   6.293  10.567 -0.4442  1.5057 -0.3675
18144TIP3    H275924   3.266   6.289  10.510  0.2716 -0.7614  1.3871
18145TIP3   OH275925   3.374   3.819  14.449  0.2203 -0.4203  0.1431
18145TIP3    H175926   3.379   3.827  14.354 -1.3966  0.2277  0.0750
18145TIP3    H275927   3.463   3.836  14.479  0.2949  1.8786 -1.1273
18146TIP3   OH275928   6.306   6.727  14.192 -0.0278 -0.1992 -0.2503
18146TIP3    H175929   6.269   6.694  14.110 -2.1578  1.2919  0.0289
18146TIP3    H275930   6.361   6.801  14.165 -0.1153 -0.1845 -0.3911
18147TIP3   OH275931   2.482   1.219  16.728 -0.7024 -0.7435  0.0466
18147TIP3    H175932   2.405   1.167  16.749 -1.0748 -0.3970 -0.4485
18147TIP3    H275933   2.479   1.292  16.789 -0.1539 -1.3054  0.7753
18148TIP3   OH275934   5.902   1.878   1.623  0.2227 -0.1928  0.0711
18148TIP3    H175935   5.907   1.810   1.691 -0.0618 -1.4923 -1.1675
18148TIP3    H275936   5.820   1.923   1.640  1.3754  1.3392  2.2064
18149TIP3   OH275937   4.707   5.277  11.739  0.3929  0.2240  0.1441
18149TIP3    H175938   4.772   5.280  11.669  1.3030  1.0116  0.9907
18149TIP3    H275939   4.744   5.331  11.809 -1.0697  0.5000  0.7510
18150TIP3   OH275940   6.527   0.846   1.891  0.1548  0.1779 -0.1911
18150TIP3    H175941   6.533   0.885   1.979 -1.2497 -2.0067  0.9850
18150TIP3    H275942   6.604   0.789   1.885 -0.5031 -0.8085  0.3020
18151TIP3   OH275943   5.853   0.390   5.279  0.0700  0.8083  0.4944
18151TIP3    H175944   5.789   0.359   5.343  2.0482 -1.5647  1.4797
18151TIP3    H275945   5.929   0.417   5.331  0.4199  2.3002 -0.7014
18152TIP3   OH275946   4.180   0.621   4.349  0.5142 -0.4364  0.1994
18152TIP3    H175947   4.219   0.618   4.436 -1.7560 -0.4847  1.2609
18152TIP3    H275948   4.107   0.682   4.357  0.6558  0.0933 -1.8639
18153TIP3   OH275949   5.028   5.392   2.030  0.0882  0.0288 -0.5043
18153TIP3    H175950   4.963   5.419   1.964  0.7502 -0.6293 -1.4613
18153TIP3    H275951   4.985   5.321   2.078 -0.3255  0.3684 -0.3747
18154TIP3   OH275952   5.706   4.555   4.719  0.1871 -0.4757  0.2062
18154TIP3    H175953   5.779   4.605   4.679  0.4241 -2.9051 -2.7911
18154TIP3    H275954   5.629   4.585   4.671 -0.0912 -0.9843  0.3383
18155TIP3   OH275955   6.593   0.863  14.755 -0.2220  0.6493 -0.4784
18155TIP3    H175956   6.664   0.809  14.792 -2.4800 -1.4763  1.1373
18155TIP3    H275957   6.564   0.815  14.678 -2.0411 -0.4126  0.7891
18156TIP3   OH275958   5.116   0.404  12.763 -0.1261  0.4225 -0.2224
18156TIP3    H175959   5.183   0.357  12.712 -0.8054 -1.2963  0.4061
18156TIP3    H275960   5.139   0.387  12.854 -1.1634  0.1549  0.0012
18157TIP3   OH275961   0.977   5.596  11.039 -0.3336 -0.5635 -0.0175
18157TIP3    H175962   0.946   5.591  10.949  0.2926  2.3674 -0.4751
18157TIP3    H275963   1.046   5.530  11.044  1.6043  1.0574 -2.6125
18158TIP3   OH275964   6.724   0.678   1.839 -0.8004  0.1845  0.1483
18158TIP3    H175965   6.759   0.597   1.876 -0.3023  0.7588  0.9608
18158TIP3    H275966   6.675   0.649   1.762  3.6033 -0.5354 -2.7674
18159TIP3   OH275967   1.378   0.797  16.282 -0.1788  0.1127 -0.1141
18159TIP3    H175968   1.415   0.809  16.195  0.5746 -0.9926  0.0298
18159TIP3    H275969   1.449   0.817  16.342  0.1221 -1.6569  0.1712
18160TIP3   OH275970   2.378   6.220   2.201  0.0854  0.3248  0.1263
18160TIP3    H175971   2.337   6.163   2.266 -1.9123 -0.8154 -1.9854
18160TIP3    H275972   2.457   6.173   2.174 -0.7446 -0.7704 -0.4948
18161TIP3   OH275973   4.333   5.153   1.646  0.1537  0.2043 -0.2680
18161TIP3    H175974   4.305   5.242   1.626 -0.7884  0.0694  0.3616
18161TIP3    H275975   4.316   5.104   1.565  1.1082  0.6795 -0.7658
18162TIP3   OH275976   2.097   0.181  16.120  0.1748 -0.0434 -0.4525
18162TIP3    H175977   2.043   0.260  16.109 -0.4242 -0.7086 -2.7616
18162TIP3    H275978   2.053   0.132  16.189  0.3676  1.4512  0.7903
18163TIP3   OH275979   6.547   6.485  10.474  0.5218 -0.4139  0.4066
18163TIP3    H175980   6.473   6.444  10.519  0.9417 -0.4194  1.0969
18163TIP3    H275981   6.565   6.564  10.525  0.3959  0.0778 -0.3034
18164TIP3   OH275982   1.965   4.396  13.438 -0.3189 -0.3401  0.1484
18164TIP3    H175983   2.019   4.334  13.390 -0.6901  0.2679 -1.1136
18164TIP3    H275984   1.926   4.345  13.509 -0.2410 -1.4280 -0.5714
18165TIP3   OH275985   0.602   3.821  12.446 -0.3870  0.1663 -1.0189
18165TIP3    H175986   0.650   3.781  12.373  0.3276 -0.1892 -0.3773
18165TIP3    H275987   0.641   3.908  12.456  0.9741 -0.5372  0.2319
18166TIP3   OH275988   3.696   6.093  12.572  0.5614 -0.0194 -0.5416
18166TIP3    H175989   3.703   6.176  12.619 -1.3010  0.4529 -1.0169
18166TIP3    H275990   3.754   6.034  12.620 -0.2683  0.7724  1.5638
18167TIP3   OH275991   4.425   2.511  15.937  0.3900  0.1590 -0.0816
18167TIP3    H175992   4.483   2.587  15.937  1.3361 -0.5447 -0.3436
18167TIP3    H275993   4.481   2.438  15.911 -0.8053 -0.3899 -1.2629
18168TIP3   OH275994   0.310   3.172   3.352 -0.3645  0.8297  0.2895
18168TIP3    H175995   0.251   3.207   3.285 -1.0514  2.1593  1.5405
18168TIP3    H275996   0.281   3.082   3.364 -1.4705  1.1427  0.1126
18169TIP3   OH275997   6.414   3.200   3.116  0.3295 -0.3076  0.0773
18169TIP3    H175998   6.465   3.228   3.039  1.5319 -0.0025  0.9533
18169TIP3    H275999   6.476   3.150   3.168 -0.9588 -2.0325  0.0336
18170TIP3   OH276000   1.928   5.069   4.506  0.0220 -0.0367 -0.1476
18170TIP3    H176001   1.904   5.021   4.585 -2.4899  0.6847 -0.3745
18170TIP3    H276002   1.996   5.016   4.465 -1.0826 -2.2564  0.7337
18171TIP3   OH276003   3.507   2.499   2.517 -0.0382  0.1977 -0.7337
18171TIP3    H176004   3.580   2.458   2.563 -0.6989  0.4828  0.6312
18171TIP3    H276005   3.501   2.452   2.434  0.1088 -1.5202  0.1795
18172TIP3   OH276006   4.869   3.747   6.102 -0.4546  0.1289  0.3135
18172TIP3    H176007   4.850   3.653   6.106 -0.9575  0.1944 -0.4929
18172TIP3    H276008   4.893   3.769   6.192  0.3391 -0.9036  0.3858
18173TIP3   OH276009   1.833   5.433  16.688  0.3505  0.3999  0.1068
18173TIP3    H176010   1.792   5.485  16.757 -1.7941  0.2719 -1.0116
18173TIP3    H276011   1.854   5.350  16.730 -0.1214  0.6301  0.8214
18174TIP3   OH276012   6.039   2.926   1.452 -0.1685 -0.5394 -0.0174
18174TIP3    H176013   6.063   2.924   1.359  0.3437 -2.3526  0.1153
18174TIP3    H276014   6.052   2.836   1.482  0.0031  0.0785  1.9054
18175TIP3   OH276015   1.038   4.632  10.918  0.3857  0.7834  0.1078
18175TIP3    H176016   0.953   4.666  10.890 -0.4370 -1.2644 -0.0737
18175TIP3    H276017   1.045   4.547  10.874  1.7550  0.1406  1.4842
18176TIP3   OH276018   4.555   1.326  16.583  0.1744  0.1731 -0.1134
18176TIP3    H176019   4.645   1.358  16.589  0.5063 -0.8628  0.9780
18176TIP3    H276020   4.522   1.361  16.500  1.5655  0.6196 -0.5065
18177TIP3   OH276021   5.585   2.359   4.560  0.2907 -0.0615 -0.0270
18177TIP3    H176022   5.598   2.363   4.465  0.1485 -2.6913 -0.2295
18177TIP3    H276023   5.659   2.407   4.596 -1.4330  4.0783 -1.4057
18178TIP3   OH276024   2.598   6.274  16.530 -0.3779  0.3547  0.0387
18178TIP3    H176025   2.506   6.274  16.557 -0.5865 -0.4371 -0.6655
18178TIP3    H276026   2.615   6.185  16.500  0.5990  0.5199  0.0676
18179TIP3   OH276027   2.188   1.247  14.532  0.3160  0.1863  0.2093
18179TIP3    H176028   2.144   1.201  14.604 -0.0464  1.6656  0.9527
18179TIP3    H276029   2.281   1.235  14.549  0.2351  0.7399  1.0660
18180TIP3   OH276030   2.888   5.432  13.749  0.1848 -0.1718 -0.2627
18180TIP3    H176031   2.875   5.380  13.670  0.0553 -0.8306  0.1787
18180TIP3    H276032   2.812   5.412  13.803  1.1254 -1.1305  0.7690
18181TIP3   OH276033   6.461   2.518  16.823 -0.3745 -0.0667  0.0330
18181TIP3    H176034   6.373   2.483  16.827 -0.2012 -0.8922 -2.2238
18181TIP3    H276035   6.518   2.441  16.819  0.4131  0.4672  0.4947
18182TIP3   OH276036   4.683   0.498   2.555 -0.1893  0.1642  0.8589
18182TIP3    H176037   4.747   0.435   2.587  1.9797  1.0459 -1.4026
18182TIP3    H276038   4.613   0.445   2.518 -0.0122 -0.8458  1.9059
18183TIP3   OH276039   0.667   2.463  16.381 -0.8512 -1.2738  0.2286
18183TIP3    H176040   0.673   2.506  16.296 -0.7646 -3.3840 -0.9170
18183TIP3    H276041   0.757   2.461  16.413 -1.0676  0.7552  1.0694
18184TIP3   OH276042   5.552   1.509  13.062 -0.1529  0.5375  0.0277
18184TIP3    H176043   5.547   1.550  12.976 -2.2125  0.7090  0.1797
18184TIP3    H276044   5.532   1.580  13.123 -0.2243  0.0835  0.5359
18185TIP3   OH276045   2.762   0.567   1.135  0.1110 -0.0939  0.6776
18185TIP3    H176046   2.843   0.592   1.090 -0.1186 -0.3165  0.1367
18185TIP3    H276047   2.721   0.650   1.157  0.1226  0.0201  0.2828
18186TIP3   OH276048   2.298   3.181   3.544  0.0461 -0.0277  0.4761
18186TIP3    H176049   2.345   3.262   3.525  0.6659 -0.0424  1.8113
18186TIP3    H276050   2.359   3.130   3.598 -0.6933 -0.9811  0.4430
18187TIP3   OH276051   1.374   1.495  11.972 -0.1547  0.2388  0.5108
18187TIP3    H176052   1.402   1.503  12.063 -1.0536 -1.2297  0.9340
18187TIP3    H276053   1.386   1.583  11.936  1.2881  0.5810  1.7145
18188TIP3   OH276054   1.436   4.930   0.998  0.2964  0.0561  0.8159
18188TIP3    H176055   1.517   4.913   0.950  0.5244  1.9908  0.4222
18188TIP3    H276056   1.461   4.992   1.066 -0.6005 -0.4214  1.6106
18189TIP3   OH276057   2.355   2.415   0.944  0.5363 -0.7346 -0.4638
18189TIP3    H176058   2.335   2.356   0.872 -0.1872 -1.0309 -0.0249
18189TIP3    H276059   2.326   2.369   1.022 -0.4599  0.3805 -0.1485
18190TIP3   OH276060   2.662   2.507  14.598  0.0106 -0.5547  0.6323
18190TIP3    H176061   2.714   2.449  14.542  1.0551  1.5846 -0.7850
18190TIP3    H276062   2.575   2.506  14.558 -0.2719 -1.8955  1.2424
18191TIP3   OH276063   0.996   0.819   0.140 -0.8407  0.0084 -0.4109
18191TIP3    H176064   0.979   0.881   0.069 -0.1085 -0.0509 -0.6441
18191TIP3    H276065   1.020   0.738   0.097  2.4173  0.7083 -0.1847
18192TIP3   OH276066   5.181   4.090   3.497 -0.1532 -0.4415  0.0667
18192TIP3    H176067   5.222   4.144   3.429  0.6265  0.2742  1.0714
18192TIP3    H276068   5.252   4.033   3.527  0.7249  1.9767  3.0310
18193TIP3   OH276069   5.873   5.625  12.887  0.1364 -0.4863  0.0407
18193TIP3    H176070   5.907   5.676  12.960 -0.7141  0.7737 -0.4005
18193TIP3    H276071   5.903   5.671  12.809 -2.4279  0.6753 -0.3690
18194TIP3   OH276072   4.696   2.640  13.352  0.5182 -0.1050 -0.2683
18194TIP3    H176073   4.726   2.617  13.440 -1.2256 -1.3673  0.0590
18194TIP3    H276074   4.622   2.582  13.336 -0.3938  1.3910 -1.8462
18195TIP3   OH276075   2.112   5.663  14.848  0.0309 -0.2506  0.3612
18195TIP3    H176076   2.077   5.752  14.842  0.9624  0.0933 -0.2322
18195TIP3    H276077   2.098   5.626  14.761 -2.1005 -1.3953  1.1207
18196TIP3   OH276078   4.222   5.477   1.235  0.0023  0.2013  0.2766
18196TIP3    H176079   4.220   5.488   1.140  2.3611  1.1979  0.2728
18196TIP3    H276080   4.146   5.527   1.266 -2.3558 -2.2477 -1.1524
18197TIP3   OH276081   0.018   4.998   0.487  0.1651  0.3200 -0.3630
18197TIP3    H176082  -0.024   4.912   0.484 -0.2786  0.5347 -0.3824
18197TIP3    H276083   0.099   4.984   0.536  0.0754 -0.1002 -0.3336
18198TIP3   OH276084   2.560   3.580  13.434  0.2302  0.2494 -0.0216
18198TIP3    H176085   2.497   3.570  13.505  0.2244  1.1392  0.1101
18198TIP3    H276086   2.581   3.491  13.407  0.6878 -0.1179  1.4823
18199TIP3   OH276087   4.516   0.574  12.468  0.2220 -0.0079  0.1654
18199TIP3    H176088   4.450   0.644  12.463 -0.9739 -0.8506  2.7555
18199TIP3    H276089   4.471   0.497  12.435  1.0137  0.0494 -1.1167
18200TIP3   OH276090   2.116   0.428  15.855 -0.2636  0.0319  0.1647
18200TIP3    H176091   2.167   0.348  15.872 -1.4089 -0.5694  0.9529
18200TIP3    H276092   2.051   0.401  15.790 -0.3888  0.4383  0.1205
18201TIP3   OH276093   6.017   0.137  16.085  0.2866 -0.0520 -0.3565
18201TIP3    H176094   6.028   0.168  16.175  0.8485 -0.5675 -0.2441
18201TIP3    H276095   5.958   0.062  16.093 -1.5283  1.2667 -0.6912
18202TIP3   OH276096   1.705   6.737   3.134 -0.1613 -0.5294  0.0749
18202TIP3    H176097   1.786   6.689   3.151 -0.0634 -0.4658 -0.2077
18202TIP3    H276098   1.713   6.767   3.043 -0.9484 -1.3933 -0.2983
18203TIP3   OH276099   6.308   2.662   3.764 -0.2757  0.1246 -0.3518
18203TIP3    H176100   6.214   2.678   3.772 -0.8233 -1.1822 -3.1215
18203TIP3    H276101   6.318   2.569   3.786  0.2664  0.0848 -0.7620
18204TIP3   OH276102   1.274   2.927  12.746  0.0148 -0.4606 -0.0922
18204TIP3    H176103   1.193   2.966  12.713  0.8875  1.0563 -0.5296
18204TIP3    H276104   1.305   2.872  12.675 -1.2314 -2.0581  0.5315
18205TIP3   OH276105   4.637   4.640   0.903 -0.3632  0.2988 -0.6428
18205TIP3    H176106   4.721   4.595   0.902  0.3741  1.3822  1.8955
18205TIP3    H276107   4.597   4.615   0.987 -3.3396 -1.3375 -2.3640
18206TIP3   OH276108   2.747   1.167  12.824 -0.4794  0.0348 -0.1201
18206TIP3    H176109   2.832   1.211  12.820 -1.0178  1.2029  0.8356
18206TIP3    H276110   2.751   1.102  12.754  1.7702 -0.9851  0.8694
18207TIP3   OH276111   5.047   5.163  11.674 -0.3337 -0.0627  0.0374
18207TIP3    H176112   5.126   5.213  11.656  0.4395 -1.2572 -0.0045
18207TIP3    H276113   4.976   5.216  11.638  0.6491  0.0777 -1.8102
18208TIP3   OH276114   1.785   3.333  13.025  0.8638  0.0140 -0.1268
18208TIP3    H176115   1.835   3.256  12.999  0.7950  0.2412 -0.9792
18208TIP3    H276116   1.709   3.333  12.966 -0.4716 -0.6406  1.5184
18209TIP3   OH276117   4.901   1.425  12.411 -0.3809  0.0421  0.1528
18209TIP3    H176118   4.907   1.449  12.503 -0.9954  1.0023 -0.0420
18209TIP3    H276119   4.817   1.460  12.382  0.2962  0.7641 -1.0491
18210TIP3   OH276120   2.044   1.512  10.794  0.0147  0.3193  0.0176
18210TIP3    H176121   2.123   1.504  10.740 -1.0099  0.4830 -1.5519
18210TIP3    H276122   2.035   1.606  10.810 -0.0921  0.3338 -0.1345
18211TIP3   OH276123   5.064   2.339  11.812  0.1583 -0.0245 -0.0627
18211TIP3    H176124   5.091   2.263  11.760  0.0978 -0.6572  0.8191
18211TIP3    H276125   4.969   2.332  11.818  0.1840 -0.0838  0.3213
18212TIP3   OH276126   1.549   6.793  10.646 -0.8039 -0.4601 -0.1313
18212TIP3    H176127   1.501   6.757  10.571  0.0230 -0.9329 -0.4489
18212TIP3    H276128   1.619   6.730  10.661  0.2691  0.6857 -0.2546
18213TIP3   OH276129   3.685   1.595  17.126 -0.0060  0.5445 -0.1322
18213TIP3    H176130   3.700   1.559  17.213  1.2502  0.1563 -0.4984
18213TIP3    H276131   3.592   1.577  17.108 -0.5565  1.5237  1.5160
18214TIP3   OH276132   6.833   4.090  13.023  0.6008 -0.7791  0.4870
18214TIP3    H176133   6.814   4.110  12.932  1.3684  3.1717  1.0367
18214TIP3    H276134   6.923   4.055  13.022  0.2017 -1.8535 -0.2978
18215TIP3   OH276135   5.992   6.404   4.498  0.0278  0.4363 -0.3525
18215TIP3    H176136   5.993   6.309   4.506 -0.8647  0.2613 -1.8886
18215TIP3    H276137   6.009   6.436   4.586 -1.3125 -1.1513  0.5293
18216TIP3   OH276138   4.049   3.916   3.541  0.0544 -0.0514 -0.5920
18216TIP3    H176139   4.124   3.876   3.499 -0.3692  0.4974 -1.9259
18216TIP3    H276140   4.028   3.858   3.614  1.8976 -0.0912 -0.0377
18217TIP3   OH276141   2.013   2.251   1.340  0.4478  0.8089  0.4167
18217TIP3    H176142   2.055   2.214   1.418  0.4345  1.0155  0.5207
18217TIP3    H276143   1.921   2.228   1.349  0.5305  0.3828  0.2045
18218TIP3   OH276144   0.438   0.738  15.521 -0.1212 -0.6073  0.3520
18218TIP3    H176145   0.349   0.704  15.529  0.0987 -1.5279 -0.8002
18218TIP3    H276146   0.467   0.708  15.434  1.3463 -0.4091  0.7510
18219TIP3   OH276147   1.361   1.572   2.536  0.4856  1.0683  0.1359
18219TIP3    H176148   1.376   1.600   2.627  2.0422  2.8020 -0.5882
18219TIP3    H276149   1.397   1.643   2.483  0.9945 -0.5965 -1.8748
18220TIP3   OH276150   1.470   2.000   3.624  0.0567 -0.1812 -0.0081
18220TIP3    H176151   1.538   2.029   3.564 -0.4672 -1.2967 -1.2063
18220TIP3    H276152   1.422   1.933   3.574 -0.4992 -1.0321  1.6100
18221TIP3   OH276153   6.570   2.654   0.796 -1.0135  0.1830 -0.3558
18221TIP3    H176154   6.610   2.645   0.709 -0.2334  2.6447 -0.3357
18221TIP3    H276155   6.554   2.564   0.824  1.9952 -0.8847 -1.5735
18222TIP3   OH276156   3.567   0.368   6.195 -0.1634  0.5031 -0.1380
18222TIP3    H176157   3.536   0.444   6.146 -1.3642 -0.5583 -1.0874
18222TIP3    H276158   3.489   0.332   6.236  0.0304 -1.2774 -1.2279
18223TIP3   OH276159   3.576   5.583   3.391  0.4254 -0.2741 -0.1025
18223TIP3    H176160   3.630   5.575   3.312  0.5579 -1.2080  0.0723
18223TIP3    H276161   3.635   5.623   3.456  1.4415 -2.6171  0.5342
18224TIP3   OH276162   0.354   5.809   1.010 -0.4448  0.5081  0.1858
18224TIP3    H176163   0.402   5.758   1.075  0.8032  0.7480 -0.5208
18224TIP3    H276164   0.265   5.774   1.014  0.3608 -1.7597 -0.2624
18225TIP3   OH276165   1.973   4.043  16.950  0.0910  0.0838  0.2581
18225TIP3    H176166   1.912   4.078  17.015 -2.7911 -3.8418  0.0155
18225TIP3    H276167   1.999   3.958  16.984  1.2250 -0.6142 -2.1151
18226TIP3   OH276168   0.641   1.586  16.647  0.3598  0.4280  0.0483
18226TIP3    H176169   0.697   1.519  16.608  0.9956 -0.4555  2.3199
18226TIP3    H276170   0.556   1.575  16.604  1.3149  0.4321 -1.9921
18227TIP3   OH276171   1.933   4.203   1.955  0.0293 -0.1976  0.3774
18227TIP3    H176172   1.994   4.131   1.937  0.5730  0.5383 -0.8062
18227TIP3    H276173   1.989   4.279   1.967 -0.6743  0.7456 -1.9529
18228TIP3   OH276174   6.401   2.523   1.856  0.2737 -0.0784  0.4124
18228TIP3    H176175   6.477   2.578   1.835 -0.2223  0.4523 -0.0426
18228TIP3    H276176   6.406   2.450   1.794 -0.3290  0.6707 -0.5437
18229TIP3   OH276177   1.245   2.279  11.394 -0.2391  0.3390  0.0175
18229TIP3    H176178   1.178   2.249  11.455  0.3850  1.2055  1.1745
18229TIP3    H276179   1.327   2.267  11.441  0.4611 -0.8442 -1.4309
18230TIP3   OH276180   2.595   1.525   0.462  0.1554 -0.0269 -0.3324
18230TIP3    H176181   2.527   1.458   0.455  0.3112 -0.0070 -2.6320
18230TIP3    H276182   2.648   1.514   0.384  1.8584  1.0121  0.6167
18231TIP3   OH276183   0.929   1.367  15.809  0.4497  0.6689  0.0652
18231TIP3    H176184   1.020   1.369  15.778  0.8105  1.2446  1.1021
18231TIP3    H276185   0.933   1.317  15.891 -0.3372 -0.1168 -0.3606
18232TIP3   OH276186   4.967   4.505   4.684  0.1911 -0.3087  0.4634
18232TIP3    H176187   5.008   4.427   4.645  1.2577  0.4506  0.0165
18232TIP3    H276188   5.022   4.526   4.759 -0.1462 -0.0339  0.6378
18233TIP3   OH276189   5.071   6.505  14.664  0.1393 -0.3914 -0.2180
18233TIP3    H176190   4.979   6.522  14.645 -0.2793 -0.7963  1.3008
18233TIP3    H276191   5.114   6.510  14.579 -1.3539 -0.6581 -1.0307
18234TIP3   OH276192   6.790   6.416  12.494  0.3214 -0.9789 -0.6730
18234TIP3    H176193   6.741   6.432  12.574  1.0895 -0.9276 -0.2013
18234TIP3    H276194   6.772   6.325  12.472  1.1609 -1.4056  0.3160
18235TIP3   OH276195   6.227   1.693  16.746 -0.1114 -0.4763 -0.0217
18235TIP3    H176196   6.143   1.647  16.750 -1.0785  1.2257  0.2662
18235TIP3    H276197   6.203   1.783  16.724  1.7885 -0.3090 -1.6227
18236TIP3   OH276198   4.951   6.301   0.715 -0.3210  0.6584 -0.4501
18236TIP3    H176199   4.877   6.307   0.655 -1.1216 -0.3022  0.4095
18236TIP3    H276200   5.022   6.347   0.670 -1.0360  0.4048 -1.8992
18237TIP3   OH276201   2.685   1.006  16.735  0.2961  0.0730  0.4793
18237TIP3    H176202   2.711   1.035  16.647  2.1489 -1.6863  0.3814
18237TIP3    H276203   2.630   1.077  16.768 -0.0399  1.0249 -1.8903
18238TIP3   OH276204   4.993   3.092   5.634 -0.5193 -1.2296  0.4435
18238TIP3    H176205   4.987   3.153   5.561  0.7599  0.7380  1.8692
18238TIP3    H276206   4.977   3.006   5.596 -2.6443 -0.0251 -1.6332
18239TIP3   OH276207   6.596   6.182   2.447  0.1985  0.5632 -0.4695
18239TIP3    H176208   6.548   6.195   2.365 -0.1359  0.4499 -0.2947
18239TIP3    H276209   6.591   6.266   2.492 -1.2199  0.1265  0.2691
18240TIP3   OH276210   3.845   3.930   4.125  0.5778  0.3253  0.2456
18240TIP3    H176211   3.934   3.963   4.136  1.1330 -1.2915  0.9498
18240TIP3    H276212   3.855   3.835   4.126 -1.1155  0.1106 -0.1582
18241TIP3   OH276213   2.520   6.388   2.843 -0.3671 -0.3650  0.5323
18241TIP3    H176214   2.434   6.356   2.871 -0.7718 -0.9921 -1.2882
18241TIP3    H276215   2.503   6.473   2.803  0.1039  0.2186  1.5315
18242TIP3   OH276216   4.991   3.282   4.012  0.1332  0.3728  0.5471
18242TIP3    H176217   4.990   3.257   4.104 -2.8964 -0.6372  0.3805
18242TIP3    H276218   4.919   3.345   4.004  1.2641  1.5553 -0.9040
18243TIP3   OH276219   6.147   2.519  14.867  0.0670 -0.5107  0.0408
18243TIP3    H176220   6.059   2.508  14.832  0.1209  0.4582 -0.4399
18243TIP3    H276221   6.204   2.522  14.790  0.0627  2.7440  0.0107
18244TIP3   OH276222   1.911   0.699   0.691  0.4081  0.2560  0.2455
18244TIP3    H176223   1.903   0.787   0.655 -0.3186 -0.3145 -1.0712
18244TIP3    H276224   1.827   0.681   0.733 -0.3190 -0.6135 -1.4758
18245TIP3   OH276225   1.705   0.508   3.329  0.1144 -0.8710  0.0168
18245TIP3    H176226   1.735   0.527   3.418 -0.8830  0.5305  0.0908
18245TIP3    H276227   1.752   0.571   3.274  0.5859 -1.6063 -0.4286
18246TIP3   OH276228   3.991   5.758   6.458  0.5323  0.0229 -0.5174
18246TIP3    H176229   4.009   5.852   6.449 -0.3412  0.0082 -3.4511
18246TIP3    H276230   3.895   5.753   6.464  0.5989 -0.6820  0.0963
18247TIP3   OH276231   5.481   2.341   3.137 -0.0257  0.1078 -0.8963
18247TIP3    H176232   5.441   2.292   3.064 -1.0830 -0.8547  0.2774
18247TIP3    H276233   5.472   2.282   3.212  3.1260  0.0995 -0.4154
18248TIP3   OH276234   0.352   1.514  13.121  0.6508 -0.1776 -0.1979
18248TIP3    H176235   0.360   1.473  13.207 -0.8590 -2.1096 -0.9202
18248TIP3    H276236   0.422   1.474  13.069  0.7932  0.0969 -0.2223
18249TIP3   OH276237   1.379   3.441   2.616  0.4979 -0.0567  0.1773
18249TIP3    H176238   1.390   3.524   2.570  2.0695  0.2436  1.0434
18249TIP3    H276239   1.451   3.386   2.587 -0.4630 -1.1239 -0.3077
18250TIP3   OH276240   3.321   2.144  11.352  0.5980  0.2361  0.6868
18250TIP3    H176241   3.319   2.092  11.272  1.0922 -1.0360  1.4784
18250TIP3    H276242   3.353   2.230  11.324  1.2151 -0.3266 -0.4018
18251TIP3   OH276243   3.958   1.250   3.357 -0.3845  0.3622  0.1917
18251TIP3    H176244   3.983   1.266   3.448  0.5883  0.1242 -0.0225
18251TIP3    H276245   3.995   1.164   3.336 -0.2898  0.5721 -0.5400
18252TIP3   OH276246   5.442   6.267   2.893  0.0882 -0.2826  0.4639
18252TIP3    H176247   5.429   6.356   2.926  0.7496 -0.0290  0.0683
18252TIP3    H276248   5.489   6.279   2.810 -0.7043 -0.9470 -0.1050
18253TIP3   OH276249   3.205   0.916   5.987 -0.6223  0.0122  0.0505
18253TIP3    H176250   3.299   0.901   5.985 -0.7037 -0.4552 -0.3262
18253TIP3    H276251   3.172   0.856   6.054 -0.4145  1.5824  1.6340
18254TIP3   OH276252   1.988   6.585  13.073 -0.6782  0.2300 -0.6320
18254TIP3    H176253   1.922   6.603  13.141  0.8861  0.8986  0.7769
18254TIP3    H276254   1.992   6.489  13.070 -1.5721  0.1800 -0.6022
18255TIP3   OH276255   3.610   5.176  14.952 -0.0605  0.5472 -0.3429
18255TIP3    H176256   3.533   5.210  14.998  0.3687 -0.4685  1.1934
18255TIP3    H276257   3.575   5.132  14.874 -0.9642  0.7262 -0.0465
18256TIP3   OH276258   6.080   5.854   4.476  0.0780 -0.0071 -0.0678
18256TIP3    H176259   6.148   5.802   4.433 -0.4185  0.0198 -0.9093
18256TIP3    H276260   6.121   5.939   4.489  0.1850  0.0392 -0.6543
18257TIP3   OH276261   5.334   0.028   5.593  0.0773 -0.3275 -0.5653
18257TIP3    H176262   5.346   0.075   5.675 -1.4149  1.8372 -1.4891
18257TIP3    H276263   5.375   0.084   5.527 -0.7316 -0.8755 -1.5690
18258TIP3   OH276264   3.290   6.039   5.071  0.1162 -0.3598 -0.5081
18258TIP3    H176265   3.214   5.981   5.068 -0.6114  0.5914 -2.7546
18258TIP3    H276266   3.315   6.041   5.163 -2.0542 -1.3717  0.1740
18259TIP3   OH276267   3.611   3.059   2.666  0.1863  0.0328 -0.1432
18259TIP3    H176268   3.632   3.051   2.759  1.0631 -0.2806 -0.3571
18259TIP3    H276269   3.551   3.133   2.661 -0.7087 -0.6048  0.7923
18260TIP3   OH276270   6.163   1.699   0.411  0.0846  0.4750 -0.2231
18260TIP3    H176271   6.106   1.736   0.343  1.7823  0.7959 -1.5520
18260TIP3    H276272   6.239   1.667   0.363 -0.4315 -3.1054  1.0947
18261TIP3   OH276273   6.781   6.362   2.796 -0.0472 -0.4428 -0.1054
18261TIP3    H176274   6.780   6.355   2.700  1.2471  2.3653 -0.3965
18261TIP3    H276275   6.700   6.408   2.818  0.4351  0.3560  0.0005
18262TIP3   OH276276   6.577   1.725  14.765  0.4736  0.3158 -0.0259
18262TIP3    H176277   6.582   1.632  14.746  1.1560  0.4535 -0.5546
18262TIP3    H276278   6.523   1.762  14.695  1.0729  0.4724 -0.4110
18263TIP3   OH276279   5.986   3.033  17.024 -0.0006  0.1244 -0.1364
18263TIP3    H176280   5.930   3.073  16.958  0.2651  1.3219  0.3431
18263TIP3    H276281   6.012   3.105  17.081 -0.4808 -0.9062  1.4823
18264TIP3   OH276282   2.086   0.835  17.118 -0.2503 -1.3210  0.0836
18264TIP3    H176283   2.050   0.786  17.044  0.9940  0.0912 -1.5421
18264TIP3    H276284   2.061   0.784  17.195 -0.3924 -3.6173 -1.3866
18265TIP3   OH276285   2.876   3.705  11.630 -0.6801  0.0944 -0.6560
18265TIP3    H176286   2.784   3.719  11.649 -0.5696 -0.5002  0.4178
18265TIP3    H276287   2.886   3.610  11.629 -0.4384  0.0823 -2.7135
18266TIP3   OH276288   3.581   2.237   5.746 -0.0851  0.0374 -0.0809
18266TIP3    H176289   3.605   2.260   5.836  0.6915 -0.1587 -0.2375
18266TIP3    H276290   3.496   2.279   5.734  0.0242  0.4777  0.5841
18267TIP3   OH276291   6.266   2.395  16.005 -0.4603 -0.2250 -0.4695
18267TIP3    H176292   6.203   2.407  16.076 -2.0277 -1.1563 -1.6410
18267TIP3    H276293   6.300   2.307  16.018 -0.5207 -0.2809 -0.6774
18268TIP3   OH276294   0.125   0.912  16.330  0.2214 -0.1093  0.2585
18268TIP3    H176295   0.134   0.923  16.425 -0.1597 -0.1346  0.2975
18268TIP3    H276296   0.194   0.850  16.307  0.4939  0.1095  0.4792
18269TIP3   OH276297   6.101   1.125   1.840 -0.3177 -0.3728 -0.4370
18269TIP3    H176298   6.025   1.146   1.895  0.4731  1.0461  0.1952
18269TIP3    H276299   6.123   1.208   1.797  1.2672 -0.5700 -0.0784
18270TIP3   OH276300   6.056   6.326   5.741  0.5713 -0.6743  0.3878
18270TIP3    H176301   6.041   6.406   5.792 -0.8487 -0.7320  0.1137
18270TIP3    H276302   5.968   6.292   5.725  1.1204 -1.8713 -0.1801
18271TIP3   OH276303   4.725   3.354  11.779  0.3547  0.4420 -0.3554
18271TIP3    H176304   4.709   3.441  11.816 -1.1231  0.7074 -1.5376
18271TIP3    H276305   4.649   3.302  11.804  1.1974 -0.5336  0.2889
18272TIP3   OH276306   2.970   1.754   0.707 -0.0206 -0.1330 -0.1500
18272TIP3    H176307   2.876   1.745   0.690 -0.1305 -2.6396  1.3192
18272TIP3    H276308   2.998   1.667   0.737  2.3822  1.0005  1.2192
18273TIP3   OH276309   1.313   1.448  16.253 -0.5446 -0.2929  0.3990
18273TIP3    H176310   1.378   1.498  16.302 -0.9553 -0.1402  0.7966
18273TIP3    H276311   1.364   1.387  16.201 -0.0130  0.7358 -0.3224
18274TIP3   OH276312   2.728   5.145  16.220 -0.9632  0.1605 -0.5155
18274TIP3    H176313   2.676   5.078  16.177 -1.5230 -0.9315  1.7216
18274TIP3    H276314   2.809   5.101  16.244  0.6591  1.5697 -3.0250
18275TIP3   OH276315   4.818   1.116  11.628  0.0449 -0.1777  0.0348
18275TIP3    H176316   4.779   1.034  11.600 -0.2956 -0.3437  0.9671
18275TIP3    H276317   4.761   1.184  11.591  0.1346 -0.3635 -0.4505
18276TIP3   OH276318   0.711   6.353   4.955 -0.4024  0.2479 -0.1836
18276TIP3    H176319   0.715   6.415   4.883 -1.3466 -0.0277 -0.4827
18276TIP3    H276320   0.683   6.271   4.915 -0.0681 -0.1403  0.3601
18277TIP3   OH276321   0.985   2.682   2.367 -0.5430 -0.0682  0.1819
18277TIP3    H176322   0.990   2.763   2.417 -2.8460  0.7682 -0.7934
18277TIP3    H276323   1.024   2.616   2.424 -1.4222  1.1577  2.3173
18278TIP3   OH276324   4.103   2.947  11.841  0.1808 -0.0614 -0.6156
18278TIP3    H176325   4.031   2.990  11.795  0.9357  2.6969  0.6232
18278TIP3    H276326   4.063   2.913  11.922  0.0558  0.4622 -0.4575
18279TIP3   OH276327   6.452   3.789   3.946  0.1842  0.2806 -0.2478
18279TIP3    H176328   6.360   3.793   3.918  0.5755  0.2700 -1.6321
18279TIP3    H276329   6.448   3.781   4.041 -1.2161  3.0068  0.0242
18280TIP3   OH276330   2.653   0.806  16.391  0.2432 -0.0878  0.4305
18280TIP3    H176331   2.713   0.785  16.319  2.7682  2.1926  1.6646
18280TIP3    H276332   2.612   0.723  16.414 -0.0545 -1.0469 -3.0434
18281TIP3   OH276333   3.158   4.466  10.594 -0.1079 -0.3456 -0.5499
18281TIP3    H176334   3.186   4.421  10.515  1.1630 -1.3844  0.4294
18281TIP3    H276335   3.092   4.407  10.633  0.5980 -0.7422  0.0676
18282TIP3   OH276336   2.118   5.169   4.162  0.1685 -0.3011  0.0587
18282TIP3    H176337   2.194   5.115   4.185  1.7190  1.2086 -1.2515
18282TIP3    H276338   2.155   5.247   4.121 -2.1220  0.1419 -1.3758
18283TIP3   OH276339   2.416   3.429  13.761  0.2587  0.2768  0.0398
18283TIP3    H176340   2.355   3.445  13.833  1.1776  2.0255  0.5027
18283TIP3    H276341   2.399   3.500  13.699 -0.2326 -0.9697 -1.3203
18284TIP3   OH276342   1.295   2.032   4.901  0.0732  0.2158  0.7763
18284TIP3    H176343   1.317   1.956   4.848 -2.9795  0.2278 -0.7291
18284TIP3    H276344   1.339   2.105   4.858  0.1111 -0.2165  0.0655
18285TIP3   OH276345   2.370   6.431   2.375 -0.5173 -0.2767  0.4149
18285TIP3    H176346   2.344   6.368   2.308 -0.6066 -0.8163  0.9434
18285TIP3    H276347   2.428   6.382   2.433  0.5385  0.5170  0.0629
18286TIP3   OH276348   4.203   4.647  12.402  0.3854 -0.4414  0.3035
18286TIP3    H176349   4.171   4.558  12.416 -0.0849 -0.2214  0.6559
18286TIP3    H276350   4.172   4.696  12.479 -2.8221  0.9765 -1.7196
18287TIP3   OH276351   0.801   0.382   1.063 -0.1840 -0.5147 -0.4751
18287TIP3    H176352   0.881   0.352   1.105 -1.4543 -2.4802  0.7016
18287TIP3    H276353   0.809   0.478   1.062  1.0484 -0.5207  1.9863
18288TIP3   OH276354   0.190   2.658  14.153  0.3272 -0.3073 -0.1851
18288TIP3    H176355   0.105   2.653  14.110  0.1319 -2.7490  0.3198
18288TIP3    H276356   0.171   2.696  14.239 -0.1531 -0.2934 -0.2965
18289TIP3   OH276357   5.031   1.430   3.223 -0.0064  0.4132 -0.4763
18289TIP3    H176358   5.025   1.488   3.148  1.2489 -1.1622 -1.8806
18289TIP3    H276359   4.945   1.436   3.265 -0.0037  3.0028 -0.6970
18290TIP3   OH276360   0.504   4.826  11.540  0.1446  0.5415 -0.0325
18290TIP3    H176361   0.452   4.791  11.468  0.5668 -1.2788  0.5154
18290TIP3    H276362   0.458   4.800  11.619  0.8328  0.6399  0.4153
18291TIP3   OH276363   0.605   4.335   1.085 -0.0509  0.2580  0.0707
18291TIP3    H176364   0.602   4.403   1.019  1.1775 -0.7012 -1.0182
18291TIP3    H276365   0.517   4.297   1.085  0.1964 -0.4233 -1.8101
18292TIP3   OH276366   1.607   2.503  11.185  0.7477  0.2262 -0.2564
18292TIP3    H176367   1.522   2.548  11.188  0.4626 -0.3325  2.1079
18292TIP3    H276368   1.660   2.550  11.249  1.4237 -0.9360  0.0556
18293TIP3   OH276369   5.068   3.398   0.367 -0.1499  0.3290 -0.0204
18293TIP3    H176370   5.109   3.363   0.446  1.7159  1.4639 -0.4246
18293TIP3    H276371   5.128   3.374   0.296 -0.0016  2.2693 -0.6118
18294TIP3   OH276372   3.368   0.799  15.763 -0.0751 -0.1305 -0.6317
18294TIP3    H176373   3.319   0.815  15.682  2.5365  1.0460 -2.0813
18294TIP3    H276374   3.428   0.873  15.771  0.9590 -1.0917  1.4850
18295TIP3   OH276375   3.803   2.891   1.070  0.0127  0.2712  0.0955
18295TIP3    H176376   3.813   2.857   0.982 -2.5034  2.2974 -1.0884
18295TIP3    H276377   3.768   2.817   1.121 -2.7175  0.1788 -1.7211
18296TIP3   OH276378   4.896   5.306  14.639 -0.5188 -0.2305  0.4939
18296TIP3    H176379   4.889   5.384  14.584 -2.4786 -0.2959  0.5729
18296TIP3    H276380   4.977   5.264  14.611  0.5940  1.8056  0.4487
18297TIP3   OH276381   6.397   2.081  11.003 -0.5204  0.3818  0.1299
18297TIP3    H176382   6.339   2.098  11.078 -1.5328 -0.6171 -0.3986
18297TIP3    H276383   6.338   2.081  10.927  0.3755  0.5825 -0.5819
18298TIP3   OH276384   3.514   0.484   1.721 -0.0150  0.0286  0.1701
18298TIP3    H176385   3.547   0.494   1.810 -0.2938 -1.5022  0.4740
18298TIP3    H276386   3.587   0.508   1.665  1.1547 -1.7677  0.8337
18299TIP3   OH276387   1.074   4.412  12.547  0.6191  0.4698 -0.0293
18299TIP3    H176388   1.024   4.332  12.534 -0.2258  0.8090  1.0011
18299TIP3    H276389   1.038   4.473  12.483  0.3488  0.4167  0.0675
18300TIP3   OH276390   4.295   2.889   2.754  0.4458 -0.2426 -0.0522
18300TIP3    H176391   4.263   2.945   2.825 -0.2962 -0.5335 -0.1582
18300TIP3    H276392   4.273   2.800   2.782  0.0224 -0.3480 -0.7088
18301TIP3   OH276393   4.859   1.034   4.809  0.4350  0.1352  0.8376
18301TIP3    H176394   4.940   1.041   4.759  0.7999 -0.7348  1.2906
18301TIP3    H276395   4.851   1.118   4.854 -0.1013  1.0940 -0.9466
18302TIP3   OH276396   5.385   5.474  11.242  0.1630  0.1775  0.6994
18302TIP3    H176397   5.440   5.537  11.289 -0.8066  0.2902  1.7270
18302TIP3    H276398   5.295   5.503  11.261 -0.2675 -0.6948  0.0274
18303TIP3   OH276399   6.752   6.815  15.176  0.5167 -0.4514 -0.1621
18303TIP3    H176400   6.807   6.772  15.110 -0.2710  1.3597 -2.1415
18303TIP3    H276401   6.814   6.847  15.242  1.5059 -1.0527 -0.7656
18304TIP3   OH276402   0.390   3.209   0.624 -0.1741 -0.3729 -0.8851
18304TIP3    H176403   0.363   3.298   0.649  0.5215 -0.4999  0.3833
18304TIP3    H276404   0.479   3.220   0.590 -0.1899 -0.5522 -0.9866
18305TIP3   OH276405   6.005   6.220  11.669 -0.2571  0.6250  0.1038
18305TIP3    H176406   5.995   6.130  11.637 -0.9090  1.0919 -1.0479
18305TIP3    H276407   5.932   6.268  11.630  0.6581  1.8789 -0.1422
18306TIP3   OH276408   4.803   3.577   1.299 -0.1494  0.1067 -0.4048
18306TIP3    H176409   4.714   3.562   1.266 -0.2113 -0.8815  0.1886
18306TIP3    H276410   4.801   3.668   1.330 -0.9511  0.0884 -0.3758
18307TIP3   OH276411   2.804   2.381   5.160 -0.4099  0.5862  0.2326
18307TIP3    H176412   2.828   2.345   5.245 -0.4931  0.1973  0.0907
18307TIP3    H276413   2.710   2.366   5.153 -0.1849 -0.5674 -0.4897
18308TIP3   OH276414   0.272   4.904  15.886  0.0261 -0.1254 -0.2566
18308TIP3    H176415   0.315   4.980  15.846 -0.3615 -0.0532 -0.5347
18308TIP3    H276416   0.179   4.924  15.883 -0.2342 -1.3476 -1.8993
18309TIP3   OH276417   1.054   2.101   5.026  0.2989  0.1037  0.4113
18309TIP3    H176418   1.126   2.058   4.980  0.7382  1.2305  0.0110
18309TIP3    H276419   0.978   2.046   5.009  1.0247 -1.0104  0.6987
18310TIP3   OH276420   3.309   4.300  11.383  0.3698  0.0898  0.4528
18310TIP3    H176421   3.300   4.209  11.353 -0.4768  0.5603 -0.7668
18310TIP3    H276422   3.308   4.352  11.303 -0.6252  1.2918  1.2136
18311TIP3   OH276423   5.774   2.719  14.147 -0.0348  0.6674  0.0105
18311TIP3    H176424   5.746   2.805  14.116  2.9124  1.6618 -0.2203
18311TIP3    H276425   5.817   2.737  14.232  0.2579 -0.6190  0.1530
18312TIP3   OH276426   1.216   3.369  12.368 -0.0538 -0.3815  0.1526
18312TIP3    H176427   1.151   3.386  12.300 -0.6728 -2.8969  0.0061
18312TIP3    H276428   1.298   3.357  12.320 -0.2638 -1.0168 -0.0560
18313TIP3   OH276429   1.814   4.605  16.591 -0.2886  0.0271 -0.0503
18313TIP3    H176430   1.774   4.659  16.659 -1.0297 -0.2416 -0.2711
18313TIP3    H276431   1.819   4.518  16.631  0.3221  0.1115  0.0703
18314TIP3   OH276432   5.262   2.963   2.782  0.1933 -0.5386  0.2326
18314TIP3    H176433   5.284   3.043   2.734 -0.9554  0.4980  1.3387
18314TIP3    H276434   5.216   2.994   2.860  2.0669 -2.1026  2.1140
18315TIP3   OH276435   4.017   0.482  15.752 -0.2782  0.3790  0.3748
18315TIP3    H176436   4.032   0.573  15.775 -2.4825  0.7233  0.7224
18315TIP3    H276437   3.956   0.487  15.677  0.2427 -0.8033 -0.1472
18316TIP3   OH276438   6.438   1.648  16.093  0.1549 -0.5050 -0.5774
18316TIP3    H176439   6.515   1.609  16.135  1.4469  0.8859 -1.4994
18316TIP3    H276440   6.429   1.601  16.011 -1.3250 -2.0802  0.4287
18317TIP3   OH276441   3.900   5.086   1.537 -0.3362 -0.1071  0.2348
18317TIP3    H176442   3.918   5.125   1.451 -0.6167 -0.2181  0.1238
18317TIP3    H276443   3.822   5.131   1.568 -0.2147 -0.0428  0.4492
18318TIP3   OH276444   1.428   3.231  15.275  0.3366 -0.1944 -0.3297
18318TIP3    H176445   1.523   3.220  15.278  0.3525 -0.0200 -0.1115
18318TIP3    H276446   1.410   3.297  15.343  0.0058 -0.5990 -0.0221
18319TIP3   OH276447   0.346   5.919   2.453 -0.1665  0.4408 -0.1848
18319TIP3    H176448   0.314   5.832   2.430 -0.1112  0.4972 -0.4859
18319TIP3    H276449   0.312   5.936   2.541  0.6130 -0.2775  0.2685
18320TIP3   OH276450   2.741   4.125  16.760  0.2894 -0.2799 -0.0949
18320TIP3    H176451   2.802   4.182  16.714  0.4361 -0.4255 -0.0812
18320TIP3    H276452   2.676   4.185  16.797 -0.1179 -0.2091 -0.9186
18321TIP3   OH276453   0.353   2.056  15.271  0.4634 -1.3238 -0.3045
18321TIP3    H176454   0.342   1.963  15.292  2.6042 -1.1831  1.9219
18321TIP3    H276455   0.385   2.095  15.352  0.2472  1.2753 -1.3725
18322TIP3   OH276456   5.261   3.230  12.420  0.0977  0.0415  0.1954
18322TIP3    H176457   5.349   3.241  12.456 -0.1447  0.6768  0.6074
18322TIP3    H276458   5.219   3.314  12.434 -0.8978 -0.5553  0.8873
18323TIP3   OH276459   4.858   1.410  15.397 -0.0250 -0.3534  0.1695
18323TIP3    H176460   4.813   1.405  15.482  0.5009 -2.4563  0.3696
18323TIP3    H276461   4.791   1.440  15.336 -0.2304  1.9420  1.4108
18324TIP3   OH276462   4.206   4.828   5.719  0.0475 -0.4614 -0.0316
18324TIP3    H176463   4.122   4.859   5.752  1.0338  1.0981  1.1529
18324TIP3    H276464   4.228   4.754   5.776 -0.5867 -0.9863 -0.4576
18325TIP3   OH276465   2.172   3.920  11.491 -0.3650  0.6250 -0.6336
18325TIP3    H176466   2.230   3.850  11.462 -1.2909 -0.0965 -0.8298
18325TIP3    H276467   2.227   3.998  11.495  0.3307  0.2458 -2.0556
18326TIP3   OH276468   0.935   4.989   1.409  0.2023 -0.0402 -0.2310
18326TIP3    H176469   0.873   4.983   1.336 -0.9198 -1.7088  0.7944
18326TIP3    H276470   1.004   4.928   1.388  0.8533  0.8508 -0.7465
18327TIP3   OH276471   4.339   4.987  11.879 -0.0917 -0.3419  0.6528
18327TIP3    H176472   4.324   5.054  11.946 -2.9520  1.1217 -1.2607
18327TIP3    H276473   4.378   5.035  11.806 -1.0277 -0.9845 -0.2897
18328TIP3   OH276474   0.996   2.255   2.653 -0.2754 -0.1685 -0.2653
18328TIP3    H176475   1.026   2.164   2.660  0.7102  0.1758  0.1468
18328TIP3    H276476   1.045   2.302   2.720  1.3558  1.2217 -2.3094
18329TIP3   OH276477   1.551   5.589   2.493 -0.5981 -0.4876 -0.2617
18329TIP3    H176478   1.624   5.590   2.431  0.3042 -0.9384  0.7751
18329TIP3    H276479   1.568   5.513   2.549  0.0915  1.3911  2.2625
18330TIP3   OH276480   3.071   4.073  12.981  0.1166  0.5242  0.2732
18330TIP3    H176481   3.166   4.057  12.977 -0.0084 -0.1256 -0.2088
18330TIP3    H276482   3.038   4.006  13.041 -0.1250  0.3102 -0.0930
18331TIP3   OH276483   5.876   3.915  16.701 -0.1141 -0.3779 -0.1561
18331TIP3    H176484   5.803   3.920  16.639 -1.4232  0.7304  1.3766
18331TIP3    H276485   5.954   3.905  16.647 -1.0561  1.7490 -2.0675
18332TIP3   OH276486   3.496   0.726   3.454  0.5730  0.0405  0.3920
18332TIP3    H176487   3.423   0.786   3.442 -1.0939 -1.8721  0.3857
18332TIP3    H276488   3.536   0.751   3.537  0.4936  1.6671 -0.0331
18333TIP3   OH276489   0.967   4.638  12.076 -0.9055 -0.0666 -0.3504
18333TIP3    H176490   0.944   4.559  12.027  0.1623  0.2085 -1.3306
18333TIP3    H276491   0.918   4.708  12.033  2.4763  0.7605 -3.3302
18334TIP3   OH276492   0.955   0.840  11.027  0.6833 -0.1407 -0.3211
18334TIP3    H176493   0.970   0.829  10.933 -3.3071  0.2483 -1.2050
18334TIP3    H276494   0.902   0.765  11.051  0.5109  0.4750  1.3133
18335TIP3   OH276495   2.220   5.360   6.149  0.0878  0.0847  0.6737
18335TIP3    H176496   2.156   5.345   6.218 -0.0005 -1.3561  0.3044
18335TIP3    H276497   2.281   5.286   6.156 -0.3529 -0.5160 -1.2564
18336TIP3   OH276498   5.211   5.925  16.980  0.3331 -0.5591 -0.0557
18336TIP3    H176499   5.199   6.003  16.926  0.7328 -0.3880  0.0923
18336TIP3    H276500   5.176   5.950  17.066  0.9030 -0.3677  0.1270
18337TIP3   OH276501   5.211   3.891  17.110 -0.0465 -0.2416  0.1691
18337TIP3    H176502   5.288   3.833  17.108  0.0128 -0.1625 -1.8580
18337TIP3    H276503   5.147   3.842  17.162  0.1220 -2.0079 -1.1961
18338TIP3   OH276504   3.830   3.284   4.708 -0.0251  0.0899 -0.0339
18338TIP3    H176505   3.743   3.321   4.697 -0.0557  0.3952  1.1110
18338TIP3    H276506   3.868   3.333   4.780  2.1924  1.9517 -2.2844
18339TIP3   OH276507   6.479   5.563   4.616  0.3878 -0.1478  0.5266
18339TIP3    H176508   6.428   5.616   4.678  1.4100  0.3071  1.0009
18339TIP3    H276509   6.429   5.482   4.608  1.0028 -0.9117  3.2395
18340TIP3   OH276510   1.678   3.838   2.038  0.4578 -0.6641  0.2822
18340TIP3    H176511   1.628   3.843   1.956  1.4335 -0.2422 -0.3034
18340TIP3    H276512   1.700   3.929   2.058  2.7915 -0.9793 -0.6218
18341TIP3   OH276513   0.841   2.779  15.256 -0.1887  0.5062  0.4701
18341TIP3    H176514   0.754   2.815  15.273 -0.1310 -0.2385  2.6102
18341TIP3    H276515   0.825   2.691  15.222 -0.2971  0.3269  0.9692
18342TIP3   OH276516   1.306   6.637  10.863 -0.2245 -0.0857 -0.0877
18342TIP3    H176517   1.286   6.555  10.907 -2.8940  0.3254 -0.3638
18342TIP3    H276518   1.334   6.696  10.933 -0.9073 -0.4893  0.5455
18343TIP3   OH276519   6.595   4.387   2.895  0.6836 -0.4785 -1.3715
18343TIP3    H176520   6.525   4.427   2.945  1.4768  1.3037 -1.6278
18343TIP3    H276521   6.572   4.294   2.891 -0.5485 -0.2778  0.3372
18344TIP3   OH276522   0.857   3.013  13.306  0.0108  0.2178 -0.1546
18344TIP3    H176523   0.781   3.016  13.247  0.4009  0.9400 -0.6359
18344TIP3    H276524   0.919   2.955  13.262  1.7190  3.3521 -2.2731
18345TIP3   OH276525   5.931   2.200  12.061 -0.1281  0.5074 -0.1909
18345TIP3    H176526   5.899   2.116  12.027  0.3502  0.5803 -0.8327
18345TIP3    H276527   5.861   2.232  12.117 -0.4553 -0.1623 -0.2130
18346TIP3   OH276528   4.472   3.301  16.291  0.0764 -0.4552  0.0005
18346TIP3    H176529   4.476   3.396  16.280 -0.5115 -0.6050 -1.7219
18346TIP3    H276530   4.562   3.275  16.311 -0.0939  0.6505  2.5478
18347TIP3   OH276531   6.660   3.012   0.259  0.0344 -0.2678 -0.8931
18347TIP3    H176532   6.621   3.052   0.182 -0.9887  0.0251 -0.2394
18347TIP3    H276533   6.733   3.069   0.282 -1.5507  1.4474  0.1767
18348TIP3   OH276534   5.709   1.142   3.098  0.2402  0.2228 -0.4080
18348TIP3    H176535   5.678   1.163   3.186  1.3317  1.7189 -0.3588
18348TIP3    H276536   5.650   1.190   3.040 -0.5293 -0.8269 -0.5337
18349TIP3   OH276537   5.489   0.708   1.029 -0.3561 -0.4096  0.4374
18349TIP3    H176538   5.424   0.654   1.075  1.4451 -0.7036  2.8500
18349TIP3    H276539   5.565   0.708   1.087  0.8616  2.1351 -0.9895
18350TIP3   OH276540   1.334   1.422  16.978  0.0810 -0.1572  0.2009
18350TIP3    H176541   1.286   1.505  16.982 -1.3099 -0.9891  2.8790
18350TIP3    H276542   1.370   1.410  17.065  0.9906 -1.9688 -0.3695
18351TIP3   OH276543   3.205   6.603  16.919 -0.0015  0.0279 -0.0866
18351TIP3    H176544   3.298   6.604  16.896  0.9452 -0.2623  3.2629
18351TIP3    H276545   3.194   6.523  16.970 -1.5405  1.1932  1.5251
18352TIP3   OH276546   0.109   6.732   1.698 -0.5163 -0.2061  0.3561
18352TIP3    H176547   0.145   6.655   1.653 -1.1257 -1.1707  1.4708
18352TIP3    H276548   0.129   6.805   1.640  1.1077 -1.0367 -0.1823
18353TIP3   OH276549   5.152   5.430  12.832  0.2748  0.5569  0.1916
18353TIP3    H176550   5.105   5.418  12.750  0.7393 -2.4122  0.2662
18353TIP3    H276551   5.244   5.417  12.810  0.2920 -1.9028  1.3381
18354TIP3   OH276552   0.209   2.980   6.537 -0.0271  0.7526 -0.6129
18354TIP3    H176553   0.301   3.003   6.524  0.2429  0.6572  0.8773
18354TIP3    H276554   0.211   2.888   6.564 -0.4297  1.0450  0.5044
18355TIP3   OH276555   6.737   1.181  15.506  0.2967 -0.0487  0.0717
18355TIP3    H176556   6.683   1.102  15.514  0.3978 -0.4146 -2.1646
18355TIP3    H276557   6.821   1.149  15.472 -0.0200  1.0936 -1.8841
18356TIP3   OH276558   4.353   3.324  15.802  0.4601 -0.1541 -0.6963
18356TIP3    H176559   4.320   3.403  15.761  0.0888 -1.0829 -2.2586
18356TIP3    H276560   4.437   3.308  15.760  1.8527  0.8578  1.5424
18357TIP3   OH276561   1.797   5.561   5.143  0.3767  0.1886  0.2872
18357TIP3    H176562   1.714   5.515   5.150  0.3986  0.0352 -0.3780
18357TIP3    H276563   1.772   5.652   5.127  0.3045 -0.0744 -1.3217
18358TIP3   OH276564   5.402   5.847  11.107 -0.0889 -0.1081  0.0641
18358TIP3    H176565   5.474   5.893  11.065  0.0651 -0.5035 -0.1149
18358TIP3    H276566   5.326   5.866  11.052 -0.3195  1.0527  0.7571
18359TIP3   OH276567   2.197   6.080  13.591 -0.3129  0.1508 -0.3116
18359TIP3    H176568   2.267   6.057  13.652 -0.0948  1.0595 -0.2122
18359TIP3    H276569   2.217   6.170  13.564 -1.4675  0.4393 -0.2415
18360TIP3   OH276570   1.528   6.163   2.635  0.6633 -0.0103  0.0777
18360TIP3    H176571   1.574   6.203   2.562  0.8274 -2.3560 -1.1965
18360TIP3    H276572   1.595   6.149   2.701  1.6315 -2.3517 -1.3118
18361TIP3   OH276573   6.556   0.739  12.904  0.2037 -0.0897 -0.6985
18361TIP3    H176574   6.544   0.820  12.953  1.1720 -0.0873 -0.4402
18361TIP3    H276575   6.478   0.731  12.849 -1.2595 -0.4774  1.3581
18362TIP3   OH276576   3.008   0.567   0.012  0.0054  0.1297  0.3284
18362TIP3    H176577   3.021   0.473   0.005 -1.0153 -0.1525  1.7455
18362TIP3    H276578   3.081   0.598   0.066  0.2355  0.1257  0.0213
18363TIP3   OH276579   2.202   0.729  12.082  0.1532  0.2439  0.6065
18363TIP3    H176580   2.218   0.659  12.019 -1.4226  0.7244 -0.3809
18363TIP3    H276581   2.186   0.807  12.028 -0.0742  0.9266  1.6226
18364TIP3   OH276582   6.248   5.830  17.023 -0.4533  0.5004 -0.8125
18364TIP3    H176583   6.325   5.775  17.040 -0.6945 -0.0469 -1.4534
18364TIP3    H276584   6.259   5.905  17.081 -0.6568 -0.7327  0.8959
18365TIP3   OH276585   5.724   5.430  12.651 -0.2931 -0.4715 -0.2408
18365TIP3    H176586   5.672   5.511  12.646  0.3326  0.0621  1.3010
18365TIP3    H276587   5.718   5.403  12.743  1.0079 -1.1611 -0.3300
18366TIP3   OH276588   3.928   0.130   2.835 -0.0254 -0.3879 -0.5173
18366TIP3    H176589   4.015   0.132   2.874  0.6650  0.3645 -2.0207
18366TIP3    H276590   3.887   0.051   2.872  1.4390 -0.9948 -0.1091
18367TIP3   OH276591   5.981   5.456   3.043  0.1944 -0.3899  0.1533
18367TIP3    H176592   5.891   5.434   3.062  0.4520  0.3086  2.4289
18367TIP3    H276593   6.031   5.427   3.119  1.6911  0.5112 -0.4188
18368TIP3   OH276594   3.197   2.713  15.711  0.5246 -0.3954  0.2337
18368TIP3    H176595   3.168   2.772  15.781 -1.9264 -0.3480 -0.7125
18368TIP3    H276596   3.141   2.636  15.720  0.1301 -0.3655 -1.6767
18369TIP3   OH276597   0.206   3.845  16.211 -0.3580 -0.2658 -0.0405
18369TIP3    H176598   0.220   3.900  16.133  0.7148 -0.6678 -0.1356
18369TIP3    H276599   0.193   3.908  16.282  1.9065  0.1544  0.0537
18370TIP3   OH276600   2.608   6.099   2.078  0.4315  0.5323 -0.4801
18370TIP3    H176601   2.651   6.175   2.040  1.2157  1.5036  2.1313
18370TIP3    H276602   2.680   6.045   2.112 -0.2334  0.0634  0.2254
18371TIP3   OH276603   2.728   1.698   1.562 -0.5503  0.2334  0.4869
18371TIP3    H176604   2.677   1.670   1.638 -0.6827 -0.4025  0.1760
18371TIP3    H276605   2.748   1.616   1.516 -1.7648  0.7090 -0.9769
18372TIP3   OH276606   5.844   1.413   0.442  0.3390 -0.1102 -0.3321
18372TIP3    H176607   5.891   1.342   0.399 -1.6764 -1.1827 -0.9088
18372TIP3    H276608   5.769   1.369   0.485  1.7056  0.9792  3.5929
18373TIP3   OH276609   0.319   6.115   1.440  0.5957 -0.3821 -0.3012
18373TIP3    H176610   0.374   6.070   1.375  1.3049  0.7599 -0.5199
18373TIP3    H276611   0.352   6.205   1.441 -0.6978  0.1070  0.2260
18374TIP3   OH276612   2.767   5.809   5.401 -0.7191  0.1586  0.0067
18374TIP3    H176613   2.725   5.830   5.318 -2.3577  0.4369  0.8606
18374TIP3    H276614   2.765   5.891   5.450 -0.3153 -0.1519  0.5583
18375TIP3   OH276615   0.951   3.760  10.449 -0.3474  0.3462 -0.8323
18375TIP3    H176616   0.905   3.693  10.398 -0.4121 -0.1156 -0.1876
18375TIP3    H276617   1.042   3.730  10.449 -0.4530  0.0022 -0.1623
18376TIP3   OH276618   4.319   1.435  15.233  0.2536 -0.0647  0.1434
18376TIP3    H176619   4.313   1.344  15.263 -0.6972  0.5424  1.9277
18376TIP3    H276620   4.353   1.482  15.309  0.5922  1.1137 -0.7195
18377TIP3   OH276621   6.468   2.518  10.566 -0.0767  0.2814 -0.3346
18377TIP3    H176622   6.538   2.453  10.569 -0.9223 -0.6468 -0.3484
18377TIP3    H276623   6.394   2.472  10.526 -0.3654  1.5711 -1.3417
18378TIP3   OH276624   2.406   5.167   3.452 -0.1631  0.5544  0.1775
18378TIP3    H176625   2.413   5.258   3.480  0.3574  1.0722 -1.5102
18378TIP3    H276626   2.319   5.161   3.413  0.1295  0.5691 -0.4869
18379TIP3   OH276627   3.209   1.948   0.311  0.0704  0.4423 -0.1768
18379TIP3    H176628   3.202   1.952   0.406  1.1863  1.0124 -0.1113
18379TIP3    H276629   3.271   1.877   0.294  1.0874  1.3587 -0.4069
18380TIP3   OH276630   4.915   5.120  14.373  0.2809  0.3731  0.8804
18380TIP3    H176631   4.924   5.071  14.291  0.5067  0.0839  1.0740
18380TIP3    H276632   4.896   5.210  14.345 -0.1255  0.1808  0.5193
18381TIP3   OH276633   5.628   0.604  16.204 -0.1685 -0.0416  0.6083
18381TIP3    H176634   5.706   0.548  16.209 -0.0665  0.1688  1.4171
18381TIP3    H276635   5.594   0.588  16.116 -0.1034 -1.3230  0.7975
18382TIP3   OH276636   1.166   2.548  11.360  0.5887  0.0718 -0.1494
18382TIP3    H176637   1.193   2.458  11.378  0.8927  0.2051  0.0700
18382TIP3    H276638   1.247   2.594  11.338  0.3939  0.2206 -0.5756
18383TIP3   OH276639   1.928   3.176   2.749 -0.4742  0.2192 -0.2935
18383TIP3    H176640   1.999   3.225   2.708 -0.0080  1.1789  1.5319
18383TIP3    H276641   1.854   3.238   2.750  0.4337  1.4913  3.0165
18384TIP3   OH276642   1.216   3.866   1.250  0.2524 -0.0690 -0.9364
18384TIP3    H176643   1.130   3.848   1.290 -0.8895  0.1008 -3.1438
18384TIP3    H276644   1.241   3.784   1.208  1.4711 -0.2742  0.1296
18385TIP3   OH276645   4.516   5.760  13.757  0.0615  0.3429 -0.5508
18385TIP3    H176646   4.584   5.817  13.791  0.8655 -0.1014 -1.3776
18385TIP3    H276647   4.438   5.816  13.752  0.2203  0.7310  0.8351
18386TIP3   OH276648   1.588   0.806  13.925  0.1526 -0.0829  0.5511
18386TIP3    H176649   1.569   0.843  14.011 -1.0743  2.0586 -0.5481
18386TIP3    H276650   1.676   0.769  13.933 -0.2041 -0.5453  2.8688
18387TIP3   OH276651   6.258   1.717  14.946  0.1211 -0.1786 -0.1385
18387TIP3    H176652   6.299   1.685  14.866  0.7549  0.9021 -0.2684
18387TIP3    H276653   6.329   1.718  15.010 -0.3346 -0.8375  0.3724
18388TIP3   OH276654   2.288   0.137   2.132  0.1209 -0.4699 -0.4699
18388TIP3    H176655   2.316   0.086   2.207  0.8634 -0.6253 -0.8392
18388TIP3    H276656   2.202   0.102   2.109  1.0321 -2.2971 -1.3519
18389TIP3   OH276657   5.384   2.129   3.672 -0.5234 -0.0892 -0.0064
18389TIP3    H176658   5.358   2.220   3.654 -0.5124  0.1327  1.0258
18389TIP3    H276659   5.429   2.101   3.593  0.8164  1.3060  0.2006
18390TIP3   OH276660   1.546   5.591  13.729 -0.0681  0.1982 -0.8196
18390TIP3    H176661   1.578   5.647  13.658 -1.0647  0.0649 -1.3911
18390TIP3    H276662   1.458   5.564  13.701 -0.8817  0.9227  0.9026
18391TIP3   OH276663   5.882   4.322   0.558 -0.5816 -0.5893 -0.0033
18391TIP3    H176664   5.791   4.323   0.588 -0.4439 -0.2580  0.4164
18391TIP3    H276665   5.888   4.247   0.499 -0.9524 -1.0254  0.5136
18392TIP3   OH276666   0.254   6.000  14.290 -0.4657 -0.5562 -0.2797
18392TIP3    H176667   0.309   6.042  14.223 -0.1419 -0.2900  0.1525
18392TIP3    H276668   0.188   5.953  14.239 -1.0821  0.7936 -0.7692
18393TIP3   OH276669   0.834   1.482  15.574 -0.1794 -0.3204  0.3346
18393TIP3    H176670   0.911   1.539  15.578 -0.4801  0.0547  0.7345
18393TIP3    H276671   0.818   1.456  15.664 -1.7466  1.2433  0.5618
18394TIP3   OH276672   1.482   1.776  14.630 -0.8584  0.1784 -0.3178
18394TIP3    H176673   1.517   1.816  14.550  0.1545  0.2113  0.1192
18394TIP3    H276674   1.420   1.710  14.599 -0.8235  0.5086 -1.1141
18395TIP3   OH276675   0.576   5.995   4.482 -0.4393  0.3831 -0.2545
18395TIP3    H176676   0.656   5.963   4.524 -0.8784  0.1978  0.4413
18395TIP3    H276677   0.582   6.090   4.487  1.0915  0.5138 -2.7314
18396TIP3   OH276678   6.001   4.448  11.326 -0.0464 -0.2208  0.2131
18396TIP3    H176679   5.937   4.455  11.396 -0.2735  1.0590 -0.0847
18396TIP3    H276680   6.050   4.531  11.331  0.1804 -0.2725 -0.8845
18397TIP3   OH276681   0.719   3.588  10.374 -0.3711  0.9177 -0.2777
18397TIP3    H176682   0.678   3.564  10.457  0.4207  0.0769 -0.1175
18397TIP3    H276683   0.648   3.627  10.322 -1.1984  0.1570  0.2614
18398TIP3   OH276684   0.579   4.401   4.923  0.2986  0.5672 -0.3376
18398TIP3    H176685   0.513   4.355   4.975 -1.1810  0.6351 -2.0565
18398TIP3    H276686   0.531   4.434   4.847  2.4514  0.0197 -2.0399
18399TIP3   OH276687   0.419   4.240   0.749 -0.4123  0.4714 -0.3200
18399TIP3    H176688   0.510   4.246   0.720  0.7583 -0.9983  2.5955
18399TIP3    H276689   0.406   4.317   0.804 -0.2571 -0.3085  0.8295
18400TIP3   OH276690   5.141   2.823  16.145 -0.2736  0.1100 -0.1002
18400TIP3    H176691   5.061   2.803  16.193 -1.3020 -0.4416 -1.9647
18400TIP3    H276692   5.113   2.834  16.054  1.8299 -0.6442 -0.9095
18401TIP3   OH276693   4.805   3.057  10.845  0.0561  0.0321  0.4709
18401TIP3    H176694   4.729   3.000  10.849  0.4256 -0.4004  2.8561
18401TIP3    H276695   4.775   3.141  10.879  0.0433  0.6600 -1.0207
18402TIP3   OH276696   3.634   0.034   0.353 -0.5905  0.3407 -0.6944
18402TIP3    H176697   3.626   0.088   0.432  0.4378  1.2806 -1.2019
18402TIP3    H276698   3.719  -0.008   0.361  0.0907  1.4385 -1.8782
18403TIP3   OH276699   4.530   0.355   1.985 -0.4542 -0.4511  0.2794
18403TIP3    H176700   4.528   0.433   2.041  1.1083 -0.4875  0.4338
18403TIP3    H276701   4.565   0.386   1.902  3.1203 -1.4269  1.2518
18404TIP3   OH276702   0.208   4.080  16.048  0.0001 -0.0142  0.0414
18404TIP3    H176703   0.217   4.163  16.094 -1.4246  1.4944 -2.2242
18404TIP3    H276704   0.113   4.069  16.036  0.2386 -1.2366 -0.9628
18405TIP3   OH276705   6.736   4.478  15.515 -0.1302  0.4311  0.0582
18405TIP3    H176706   6.706   4.446  15.601  3.4772  1.7692  1.9983
18405TIP3    H276707   6.709   4.569  15.513 -0.3923  0.3464 -0.3488
18406TIP3   OH276708   2.936   0.386  12.005  0.2970  0.0979  0.0424
18406TIP3    H176709   2.911   0.297  11.979  1.5896  0.2451 -1.9331
18406TIP3    H276710   2.888   0.443  11.944  1.2534  0.6111 -0.2587
18407TIP3   OH276711   1.943   0.194   2.865  0.7619  0.0402 -0.6433
18407TIP3    H176712   1.990   0.217   2.785  0.0330 -0.8895 -1.3690
18407TIP3    H276713   1.852   0.183   2.837  0.4476 -0.0303  0.3677
18408TIP3   OH276714   2.284   3.883  16.769  0.3497 -0.1971  0.4472
18408TIP3    H176715   2.272   3.822  16.696  0.7012 -0.2172  0.4063
18408TIP3    H276716   2.365   3.929  16.749  0.8118 -0.6811  1.1615
18409TIP3   OH276717   5.354   4.387  12.298 -0.2946 -0.7004 -0.0704
18409TIP3    H176718   5.391   4.367  12.212 -0.9802 -0.9414 -0.3183
18409TIP3    H276719   5.262   4.407  12.281 -0.4647 -0.8478  0.6168
18410TIP3   OH276720   1.043   0.136  14.122 -0.1483  0.2551  0.5955
18410TIP3    H176721   1.018   0.121  14.031  1.5960 -1.6979  0.3607
18410TIP3    H276722   1.005   0.222  14.144  2.1280  2.4219 -2.9952
18411TIP3   OH276723   3.838   3.660   2.297 -0.1534 -0.1681  0.0341
18411TIP3    H176724   3.907   3.604   2.331 -0.7340  0.5357  2.6163
18411TIP3    H276725   3.875   3.698   2.217  1.6649 -1.3304  0.2645
18412TIP3   OH276726   1.018   2.293  14.332  0.3318 -0.4470 -0.3900
18412TIP3    H176727   1.079   2.250  14.272  0.3561 -0.9355 -0.0241
18412TIP3    H276728   1.060   2.287  14.417  0.1131 -0.1137 -0.2567
18413TIP3   OH276729   0.208   2.685   2.394  0.5278  0.4375  0.4351
18413TIP3    H176730   0.152   2.607   2.395  0.4359  0.4816  1.9410
18413TIP3    H276731   0.295   2.651   2.374  0.4945 -0.0774  1.1123
18414TIP3   OH276732   2.726   4.827  15.306  0.0367 -0.0221  0.3538
18414TIP3    H176733   2.768   4.902  15.265  1.0340 -0.7590 -0.0326
18414TIP3    H276734   2.697   4.773  15.232 -0.2545 -0.2393  0.6230
18415TIP3   OH276735   0.253   6.159   2.328 -0.5388  1.1701 -0.2611
18415TIP3    H176736   0.302   6.081   2.356  0.4895  2.0064  0.3509
18415TIP3    H276737   0.181   6.124   2.276 -0.5998 -0.2496  0.6989
18416TIP3   OH276738   4.022   5.941   5.449  0.1402  0.5175 -0.4074
18416TIP3    H176739   4.008   6.005   5.380 -1.0877  0.2635 -0.4097
18416TIP3    H276740   3.934   5.917   5.479  0.6182 -0.0119  0.6554
18417TIP3   OH276741   5.614   2.815   4.569  0.4006  0.0778 -0.1795
18417TIP3    H176742   5.572   2.883   4.621  1.3951 -0.3443  1.2237
18417TIP3    H276743   5.546   2.747   4.560  0.0092  0.4445 -0.0227
18418TIP3   OH276744   4.102   3.339  14.933 -0.4252  0.1428 -0.0925
18418TIP3    H176745   4.008   3.356  14.926 -0.3251  0.6146 -0.3281
18418TIP3    H276746   4.135   3.413  14.985 -0.0141  0.5645 -0.9472
18419TIP3   OH276747   2.434   5.017  12.872 -0.5180 -0.2165  0.1490
18419TIP3    H176748   2.436   5.070  12.793 -1.3907  0.6306  0.6735
18419TIP3    H276749   2.522   5.024  12.908  0.4501 -2.0692 -1.6395
18420TIP3   OH276750   2.309   2.785  16.505  0.2916 -0.0396  0.1101
18420TIP3    H176751   2.372   2.825  16.564  0.1349  0.8194 -0.2787
18420TIP3    H276752   2.285   2.856  16.445 -0.7235 -0.4622 -0.0065
18421TIP3   OH276753   1.878   2.076   5.306 -0.7525  0.2444 -0.0134
18421TIP3    H176754   1.828   2.006   5.348  0.4036 -1.5249 -1.4293
18421TIP3    H276755   1.860   2.066   5.212  0.0580  1.3170 -0.3044
18422TIP3   OH276756   2.071   2.296  15.300  0.5579  0.0355  0.2254
18422TIP3    H176757   2.064   2.204  15.276 -0.7352  0.4258 -1.0366
18422TIP3    H276758   2.164   2.310  15.316  0.6720 -1.6879  1.3580
18423TIP3   OH276759   0.769   1.138  14.568 -0.2258  0.1204  0.2259
18423TIP3    H176760   0.700   1.205  14.571 -2.4888 -1.9813 -1.0522
18423TIP3    H276761   0.779   1.120  14.474  0.3717 -1.2680  0.5442
18424TIP3   OH276762   0.582   5.828   2.089  0.2566 -0.2212 -0.0307
18424TIP3    H176763   0.614   5.783   2.167 -0.7103  0.6006  0.8493
18424TIP3    H276764   0.557   5.915   2.118  1.1766  0.6007 -1.5350
18425TIP3   OH276765   5.019   3.455   6.047 -0.0281  0.0752 -0.2524
18425TIP3    H176766   4.933   3.474   6.084 -0.0829  0.3658 -0.5228
18425TIP3    H276767   5.068   3.413   6.118 -0.4992 -0.3843 -0.1976
18426TIP3   OH276768   3.095   5.043  11.786 -0.1027  0.2545  0.1349
18426TIP3    H176769   3.051   5.010  11.707  0.7604  0.1684 -0.3254
18426TIP3    H276770   3.035   5.022  11.857  0.5871 -2.9389 -0.0299
18427TIP3   OH276771   2.022   0.901  12.569 -0.1877 -0.4137 -0.1101
18427TIP3    H176772   2.006   0.811  12.598 -0.5728  0.0666  1.2136
18427TIP3    H276773   1.935   0.938  12.556 -0.0288 -0.3371 -1.0873
18428TIP3   OH276774   1.002   2.881  13.093 -0.6442 -0.0520 -0.3976
18428TIP3    H176775   0.989   2.841  13.008 -3.5984 -0.7528  0.2671
18428TIP3    H276776   1.069   2.827  13.136 -1.8091 -1.9802 -0.9338
18429TIP3   OH276777   1.969   0.956  15.193 -0.0917 -0.5904  0.3940
18429TIP3    H176778   1.996   0.868  15.218 -0.0132 -0.5180  0.5705
18429TIP3    H276779   1.947   0.950  15.100  0.7339 -0.5970  0.1970
18430TIP3   OH276780   1.354   3.740   3.030  0.2938 -0.1291 -0.2017
18430TIP3    H176781   1.356   3.790   2.949 -3.8736 -0.7790 -0.9101
18430TIP3    H276782   1.386   3.653   3.005  3.3843  0.8099  0.0563
18431TIP3   OH276783   6.484   0.967  11.100 -0.2362 -0.2786 -0.4866
18431TIP3    H176784   6.518   1.030  11.164 -0.2623  0.3951 -1.1217
18431TIP3    H276785   6.522   0.994  11.017 -1.7791  0.1195 -1.1106
18432TIP3   OH276786   2.712   4.827  16.423 -0.0070  0.5112  0.3933
18432TIP3    H176787   2.750   4.901  16.470  0.7316  0.1579  0.3637
18432TIP3    H276788   2.637   4.799  16.477 -1.0587  2.0370 -0.2133
18433TIP3   OH276789   6.395   4.495   1.636 -0.1171  0.7142  0.4290
18433TIP3    H176790   6.446   4.528   1.562  0.2868  0.2561  0.4903
18433TIP3    H276791   6.373   4.573   1.687  2.8919  0.7723  1.8896
18434TIP3   OH276792   1.133   3.461  16.947  0.1835  0.2417 -0.4032
18434TIP3    H176793   1.173   3.388  16.898  1.2073  1.0145 -0.7472
18434TIP3    H276794   1.145   3.437  17.039 -0.7415 -0.6827 -0.5051
18435TIP3   OH276795   5.855   4.960  16.708  0.4853  0.5321 -0.4356
18435TIP3    H176796   5.881   4.916  16.789 -0.5184  0.4396 -0.1569
18435TIP3    H276797   5.938   4.987  16.668  0.9693  1.1509  0.9405
18436TIP3   OH276798   4.970   5.884  11.531  0.5544 -0.1135 -0.3791
18436TIP3    H176799   5.009   5.825  11.594  1.4397  1.5491  0.7031
18436TIP3    H276800   4.957   5.831  11.452  1.3349 -1.7030  0.5291
18437TIP3   OH276801   6.113   0.435   3.486  0.0329 -0.0714  0.7259
18437TIP3    H176802   6.059   0.478   3.419  3.4311  0.7793 -1.6817
18437TIP3    H276803   6.096   0.342   3.475 -1.8917  0.2063  0.9865
18438TIP3   OH276804   3.406   4.749   1.968 -0.1562 -1.0516 -0.0530
18438TIP3    H176805   3.465   4.683   2.003  1.8999 -0.4201 -2.0460
18438TIP3    H276806   3.392   4.723   1.877  0.5204  1.0337 -0.8300
18439TIP3   OH276807   6.483   4.387  15.405 -0.2238 -0.4278 -0.4231
18439TIP3    H176808   6.575   4.406  15.421 -0.3563 -0.0883 -0.0609
18439TIP3    H276809   6.469   4.299  15.440  0.5108 -1.4519 -2.5340
18440TIP3   OH276810   2.113   3.624  11.937  0.4355  0.0549  0.0354
18440TIP3    H176811   2.085   3.532  11.932 -0.2093  0.2725 -0.4481
18440TIP3    H276812   2.032   3.674  11.939  0.7201  0.5348  2.8589
18441TIP3   OH276813   6.271   3.086  15.645  0.2175 -0.1184  0.5930
18441TIP3    H176814   6.179   3.061  15.636  0.1222  0.6829 -1.0333
18441TIP3    H276815   6.319   3.023  15.591  0.2735  1.3050 -1.1039
18442TIP3   OH276816   3.417   5.778   2.772  0.0388 -0.0824 -0.1882
18442TIP3    H176817   3.347   5.729   2.728 -0.0792 -0.8345  0.8059
18442TIP3    H276818   3.375   5.859   2.802 -0.1117  0.0004 -0.6169
18443TIP3   OH276819   1.868   1.981   1.151 -0.2009  0.4298 -0.0564
18443TIP3    H176820   1.896   2.048   1.089 -0.5106  0.6791  0.0691
18443TIP3    H276821   1.921   1.904   1.129  1.6416  1.2852  1.0834
18444TIP3   OH276822   1.367   4.158  15.678  0.1554  0.1304  0.6383
18444TIP3    H176823   1.279   4.124  15.661 -0.5784  2.1242  0.1719
18444TIP3    H276824   1.413   4.148  15.595  0.4709 -1.0826  0.9319
18445TIP3   OH276825   2.291   6.401   5.627  0.3956 -0.3685 -0.1116
18445TIP3    H176826   2.320   6.446   5.547 -0.2285 -0.7092 -0.5337
18445TIP3    H276827   2.198   6.423   5.634  0.3729 -0.6143  0.3421
18446TIP3   OH276828   5.243   4.727  11.543  0.2978  0.4151 -0.1512
18446TIP3    H176829   5.174   4.793  11.536 -1.7249 -1.3466  1.4705
18446TIP3    H276830   5.261   4.721  11.637  0.9886 -0.7669 -0.3287
18447TIP3   OH276831   0.875   2.806   1.651  0.4536 -0.5785 -0.4694
18447TIP3    H176832   0.946   2.742   1.647  1.2821  0.3920 -2.2661
18447TIP3    H276833   0.803   2.765   1.603 -0.2766 -1.5710  1.3692
18448TIP3   OH276834   0.950   4.293  13.457 -0.2562 -0.3328 -0.0967
18448TIP3    H176835   0.957   4.359  13.388 -0.8681  0.8765  0.9455
18448TIP3    H276836   0.859   4.298  13.486 -0.2854 -1.5714  0.0929
18449TIP3   OH276837   2.820   1.354  15.445  0.0772 -0.0159  0.3674
18449TIP3    H176838   2.740   1.309  15.420 -0.5857  0.8633  0.8500
18449TIP3    H276839   2.792   1.418  15.510  0.7045  2.1271 -1.3449
18450TIP3   OH276840   3.838   5.741  16.424  0.1893  0.2028  0.4085
18450TIP3    H176841   3.836   5.784  16.509  0.8559  2.8620 -0.8455
18450TIP3    H276842   3.746   5.739  16.396  0.2083  1.4003  0.2272
18451TIP3   OH276843   1.610   2.882   2.919  0.0750 -0.1093 -0.5139
18451TIP3    H176844   1.619   2.913   2.829 -0.2477  2.1581  0.1823
18451TIP3    H276845   1.520   2.852   2.926 -0.3966  1.2757 -0.5097
18452TIP3   OH276846   5.324   2.707  12.249  0.1707  0.0066  0.0660
18452TIP3    H176847   5.387   2.658  12.196  0.8078  1.8970 -0.9857
18452TIP3    H276848   5.372   2.731  12.328  0.4629  0.5655 -0.2769
18453TIP3   OH276849   1.010   5.828  10.424 -0.3537  0.5592 -0.2512
18453TIP3    H176850   1.079   5.762  10.418 -0.6181  0.3092 -0.6397
18453TIP3    H276851   1.053   5.911  10.404  1.3674  1.5659  5.6755
18454TIP3   OH276852   2.446   6.815  15.409  0.2754  0.0640  0.1778
18454TIP3    H176853   2.364   6.856  15.439  0.9679  1.5064  0.2022
18454TIP3    H276854   2.422   6.775  15.325 -0.6017 -0.0490  0.4676
18455TIP3   OH276855   2.162   3.081  10.754 -0.4219 -0.3458  0.3245
18455TIP3    H176856   2.250   3.102  10.784 -0.1427  0.3213 -0.8950
18455TIP3    H276857   2.114   3.163  10.758 -0.5643 -0.3841 -0.3880
18456TIP3   OH276858   5.338   4.600  10.610 -0.5122  0.5734  0.4478
18456TIP3    H176859   5.421   4.592  10.655 -0.9881 -0.2491  1.2101
18456TIP3    H276860   5.360   4.639  10.525  1.0840 -2.3380 -0.6278
18457TIP3   OH276861   0.772   2.088   2.897 -0.1045 -0.1635 -0.1040
18457TIP3    H176862   0.837   2.153   2.925  0.0265 -0.2133 -0.2921
18457TIP3    H276863   0.811   2.046   2.821  0.3068 -1.2431  0.6803
18458TIP3   OH276864   3.729   6.448  10.752  0.4260 -0.8652  0.2713
18458TIP3    H176865   3.774   6.472  10.833  0.2806  0.2843  0.0194
18458TIP3    H276866   3.785   6.483  10.683  0.8617 -2.3593 -0.1733
18459TIP3   OH276867   4.524   4.956  16.250 -0.2920 -0.1491  0.4386
18459TIP3    H176868   4.481   5.034  16.285 -2.7050 -0.3462 -1.6850
18459TIP3    H276869   4.463   4.885  16.270 -0.6654 -0.5949 -1.9821
18460TIP3   OH276870   3.345   1.118  16.272  0.1978  0.4706  0.0558
18460TIP3    H176871   3.381   1.179  16.208 -1.0433 -1.0345 -2.2307
18460TIP3    H276872   3.420   1.089  16.324  1.5668  0.5238 -1.8252
18461TIP3   OH276873   4.596   2.711   6.085  0.4813  0.5974  0.0315
18461TIP3    H176874   4.668   2.675   6.137  0.5478  0.5449 -0.0950
18461TIP3    H276875   4.604   2.667   6.000 -0.7944 -0.7788  0.5700
18462TIP3   OH276876   3.651   0.224   0.596  0.1022  0.8711 -0.1274
18462TIP3    H176877   3.590   0.170   0.645  1.3802  0.7582  1.4135
18462TIP3    H276878   3.649   0.309   0.641  0.6093  1.0611 -0.4558
18463TIP3   OH276879   2.332   4.602   4.951 -0.0886 -0.0096  0.4526
18463TIP3    H176880   2.300   4.639   4.868  1.7878  3.0694  0.9314
18463TIP3    H276881   2.422   4.577   4.933  0.0632 -0.1256  1.3257
18464TIP3   OH276882   0.854   1.695  12.055 -0.0572  0.4550  0.6471
18464TIP3    H176883   0.803   1.739  12.123  0.1532  0.3635  0.8663
18464TIP3    H276884   0.896   1.622  12.101 -1.0179 -0.4388  0.1273
18465TIP3   OH276885   5.278   6.766  15.213  0.1090  0.0950 -0.0654
18465TIP3    H176886   5.286   6.750  15.119  1.5930 -0.3448  0.1130
18465TIP3    H276887   5.190   6.801  15.224 -0.1587 -0.0419 -1.5916
18466TIP3   OH276888   0.923   5.261   1.862  0.5727 -0.3582  0.3557
18466TIP3    H176889   0.888   5.279   1.949  1.6154 -1.0547  0.9409
18466TIP3    H276890   0.939   5.348   1.824 -0.1849 -0.0517  0.7225
18467TIP3   OH276891   3.404   6.171   0.701 -0.3779 -0.0029 -0.3375
18467TIP3    H176892   3.371   6.097   0.751 -3.0239  0.5774 -1.0435
18467TIP3    H276893   3.366   6.248   0.744 -0.3841  0.6987 -1.5398
18468TIP3   OH276894   5.575   5.046  14.491  0.4742 -0.0861 -0.0531
18468TIP3    H176895   5.504   4.987  14.515  0.6708 -0.2095  0.2265
18468TIP3    H276896   5.532   5.131  14.480  0.1852 -0.2881 -0.5072
18469TIP3   OH276897   0.088   5.715   5.694  0.2139 -0.1004  0.8267
18469TIP3    H176898   0.151   5.672   5.752  0.7621  0.5563  0.7235
18469TIP3    H276899   0.136   5.735   5.615 -0.8655 -2.1741 -0.4379
18470TIP3   OH276900   3.988   2.103  12.069  0.3401  0.1581 -0.2510
18470TIP3    H176901   3.895   2.097  12.050  0.5413 -0.2807 -1.1379
18470TIP3    H276902   4.022   2.015  12.051  0.4519 -0.5446  2.8249
18471TIP3   OH276903   5.767   2.116   4.543 -0.1220  0.1122  0.0135
18471TIP3    H176904   5.771   2.142   4.451 -1.2053 -0.0281 -0.0832
18471TIP3    H276905   5.774   2.021   4.541 -0.5650  0.0795  0.0461
18472TIP3   OH276906   4.007   6.492  16.133 -0.0510  0.4520 -0.3988
18472TIP3    H176907   3.924   6.459  16.099 -0.9032 -0.3005  2.1317
18472TIP3    H276908   4.046   6.540  16.061 -1.5460 -1.2154 -2.4358
18473TIP3   OH276909   5.390   0.191  16.590 -0.3291  0.5249  0.1970
18473TIP3    H176910   5.382   0.204  16.496  1.9063 -1.4759 -0.3608
18473TIP3    H276911   5.311   0.144  16.615 -0.5630  0.3339 -0.8550
18474TIP3   OH276912   2.201   6.223  11.681 -0.0166 -0.5817  0.3560
18474TIP3    H176913   2.186   6.187  11.769 -3.8632  0.7369  0.4182
18474TIP3    H276914   2.175   6.315  11.688  0.6053 -0.1771 -1.9289
18475TIP3   OH276915   5.693   3.917  11.526  0.1595  0.1887  0.0879
18475TIP3    H176916   5.637   3.965  11.586 -0.4733  1.3371 -1.3389
18475TIP3    H276917   5.653   3.930  11.440  1.0846 -1.2904 -0.6173
18476TIP3   OH276918   3.228   5.124  12.471  0.1658 -0.1082 -0.6429
18476TIP3    H176919   3.165   5.167  12.413 -0.0656 -0.3018 -0.5376
18476TIP3    H276920   3.302   5.102  12.414 -1.5696 -3.7204 -1.7820
18477TIP3   OH276921   6.038   5.286  11.479  0.6429 -0.1051  0.4381
18477TIP3    H176922   6.082   5.201  11.475  1.8559  0.3899  2.0080
18477TIP3    H276923   5.945   5.265  11.484  0.7458 -1.2426 -1.5053
18478TIP3   OH276924   4.406   6.151   1.927 -0.0382 -0.8117  0.5614
18478TIP3    H176925   4.495   6.183   1.935  0.4265 -1.4669 -1.4855
18478TIP3    H276926   4.357   6.225   1.890  0.4545 -1.4831 -1.5884
18479TIP3   OH276927   5.525   2.186   5.053 -0.1994 -0.2037 -0.4207
18479TIP3    H176928   5.535   2.189   4.958 -0.0136  1.3029 -0.3662
18479TIP3    H276929   5.521   2.277   5.081 -0.0288 -0.6101  1.0543
18480TIP3   OH276930   5.201   4.366   5.137 -0.0438  0.0151  0.0284
18480TIP3    H176931   5.159   4.439   5.092  1.2025  0.5897 -0.2513
18480TIP3    H276932   5.292   4.393   5.147  0.4780 -1.5532 -0.1971
18481TIP3   OH276933   4.541   2.771   5.372  0.2687 -0.1596  0.2298
18481TIP3    H176934   4.529   2.692   5.424 -1.5477  0.3739  0.6771
18481TIP3    H276935   4.615   2.816   5.414  0.5280 -1.0209  0.7116
18482TIP3   OH276936   0.342   4.785   3.923  0.2428 -0.1103 -0.0386
18482TIP3    H176937   0.303   4.873   3.929 -0.8364 -0.2997 -2.6943
18482TIP3    H276938   0.321   4.744   4.006 -2.1207  1.0751  0.0452
18483TIP3   OH276939   1.054   3.447  15.845 -0.2748  0.4603  0.4277
18483TIP3    H176940   1.113   3.450  15.769  0.5453 -0.4025  1.0077
18483TIP3    H276941   0.979   3.396  15.814  0.4597 -0.6668  0.4424
18484TIP3   OH276942   3.532   5.827   1.792  1.1924  0.3320  0.8134
18484TIP3    H176943   3.503   5.775   1.867 -2.1077 -0.4481 -0.8148
18484TIP3    H276944   3.509   5.917   1.815 -0.4999  0.0076  0.5354
18485TIP3   OH276945   5.492   4.756   2.851 -0.2496 -0.1282  0.7709
18485TIP3    H176946   5.506   4.677   2.903 -2.9318 -1.2833 -0.0610
18485TIP3    H276947   5.504   4.727   2.760 -2.4661  0.0144  0.3761
18486TIP3   OH276948   3.533   0.983   4.475 -0.5858 -0.1877 -0.4577
18486TIP3    H176949   3.548   1.025   4.560 -1.0408 -1.0891  0.0793
18486TIP3    H276950   3.614   0.999   4.426  0.2192 -0.7998  0.6301
18487TIP3   OH276951   2.478   6.707  12.002 -0.3385  0.0650 -0.4473
18487TIP3    H176952   2.539   6.741  11.937  1.1149 -0.3276  0.6456
18487TIP3    H276953   2.482   6.612  11.990 -1.4950  0.0827 -1.0105
18488TIP3   OH276954   3.257   3.202  16.129 -0.1271 -0.2786 -0.1185
18488TIP3    H176955   3.217   3.280  16.168  2.8594  1.3437  0.0173
18488TIP3    H276956   3.203   3.129  16.160 -1.9449  1.5415  1.2861
18489TIP3   OH276957   1.918   4.032   1.540 -0.1035 -0.5736  0.2475
18489TIP3    H176958   2.011   4.015   1.525  0.2938 -0.0014  1.8631
18489TIP3    H276959   1.911   4.039   1.635 -1.7369 -0.1992  0.1120
18490TIP3   OH276960   6.545   6.740  11.894 -0.0224  0.4054  0.3490
18490TIP3    H176961   6.586   6.826  11.901  0.5077  0.0216  3.0204
18490TIP3    H276962   6.528   6.729  11.801  0.7716  2.9816 -0.1744
18491TIP3   OH276963   5.097   3.631  11.912  0.3816  0.8412  0.4331
18491TIP3    H176964   5.062   3.548  11.879 -0.0030  0.9843  0.4725
18491TIP3    H276965   5.105   3.686  11.834  2.5939  0.0943  0.0867
18492TIP3   OH276966   4.316   2.471   5.927 -0.0646  0.3146  0.3520
18492TIP3    H176967   4.288   2.511   5.845 -0.7967 -0.1091  0.3881
18492TIP3    H276968   4.412   2.477   5.925 -0.1397  2.0406  0.3573
18493TIP3   OH276969   2.952   1.796  12.360 -0.5357 -0.2447 -0.7356
18493TIP3    H176970   3.038   1.758  12.341 -0.4927  0.6388 -2.4403
18493TIP3    H276971   2.967   1.850  12.438  0.5021  0.0196 -1.0959
18494TIP3   OH276972   2.553   0.399   1.266 -0.2028  0.2187 -0.1504
18494TIP3    H176973   2.626   0.451   1.235  1.7723 -1.5070  1.3267
18494TIP3    H276974   2.547   0.327   1.204 -0.8349  0.4876 -0.4080
18495TIP3   OH276975   3.929   6.560   5.388 -0.7750  0.1485 -0.1851
18495TIP3    H176976   4.018   6.594   5.381 -0.7691  0.0321 -0.7235
18495TIP3    H276977   3.881   6.629   5.434 -0.1819 -0.2397  1.0592
18496TIP3   OH276978   6.204   2.387  13.940  0.4136 -0.4350  0.3195
18496TIP3    H176979   6.209   2.472  13.897  1.4356 -1.4651 -1.7346
18496TIP3    H276980   6.113   2.359  13.929  0.4332 -0.2523 -0.3105
18497TIP3   OH276981   3.708   3.774   1.879 -0.0822 -0.0295 -0.0462
18497TIP3    H176982   3.701   3.847   1.940  2.1500  0.2176 -0.0318
18497TIP3    H276983   3.686   3.697   1.931 -1.5330  0.4947  0.1686
18498TIP3   OH276984   4.708   1.378  15.643 -0.7085  0.2547 -0.0727
18498TIP3    H176985   4.682   1.469  15.658  0.5196  0.4815  0.9072
18498TIP3    H276986   4.785   1.366  15.699  0.5537 -0.6923 -1.9171
18499TIP3   OH276987   5.497   6.446  14.621  0.4520  0.0602 -0.0509
18499TIP3    H176988   5.584   6.484  14.636 -0.0471  0.4790  2.0998
18499TIP3    H276989   5.514   6.353  14.604  1.3538  0.2515 -0.2273
18500TIP3   OH276990   6.494   0.387  15.866  0.0026 -0.4175 -0.0441
18500TIP3    H176991   6.541   0.436  15.933 -1.2053  1.0193 -0.1894
18500TIP3    H276992   6.452   0.315  15.914  3.0688 -2.3859 -0.0665
18501TIP3   OH276993   6.327   5.965   0.656 -0.3238  0.5202  0.7537
18501TIP3    H176994   6.273   6.038   0.685 -1.2424 -0.0341  0.4845
18501TIP3    H276995   6.282   5.887   0.689 -0.9305 -0.0872 -1.3991
18502TIP3   OH276996   3.770   4.057   3.193  0.0550 -0.1917  0.2871
18502TIP3    H176997   3.830   4.109   3.140  0.8663  1.2100  2.4332
18502TIP3    H276998   3.703   4.027   3.132  2.5092 -1.2591 -2.0846
18503TIP3   OH276999   0.208   3.063  16.730  0.7502 -0.5983 -0.5943
18503TIP3    H177000   0.259   3.016  16.664  1.2498  1.4709 -1.7662
18503TIP3    H277001   0.182   3.144  16.688 -2.3791 -0.9040  0.4457
18504TIP3   OH277002   2.410   2.776   0.289 -0.1112 -0.1394 -0.0959
18504TIP3    H177003   2.387   2.735   0.373 -1.8312  0.9012 -0.0071
18504TIP3    H277004   2.499   2.809   0.303 -0.5169  0.3912  1.4945
18505TIP3   OH277005   5.870   6.753  14.770  0.2164  0.1864  0.0756
18505TIP3    H177006   5.802   6.718  14.828 -1.1922 -0.2432 -1.7197
18505TIP3    H277007   5.896   6.836  14.810 -2.2038  0.9284  0.3030
18506TIP3   OH277008   3.898   6.476  16.613 -0.0856 -0.4307 -0.4183
18506TIP3    H177009   3.931   6.532  16.543 -0.6572  1.3988  0.7137
18506TIP3    H277010   3.937   6.390  16.595  0.3791  0.1622 -2.5241
18507TIP3   OH277011   2.020   5.838  16.271 -0.4815 -0.0811 -0.5350
18507TIP3    H177012   1.942   5.806  16.316  0.5412 -1.3633  0.4214
18507TIP3    H277013   2.072   5.759  16.254  0.3046  0.6643 -1.7507
18508TIP3   OH277014   5.479   3.448   5.571  0.3815 -0.0602  0.3602
18508TIP3    H177015   5.385   3.462   5.586  0.4587  1.8604 -0.6281
18508TIP3    H277016   5.495   3.483   5.484  2.2514  0.9330  1.0435
18509TIP3   OH277017   0.968   5.068  11.301  0.0663  0.5879 -0.2664
18509TIP3    H177018   1.002   5.078  11.390  0.3936  0.3447 -0.3618
18509TIP3    H277019   0.920   5.149  11.285 -0.6203  0.3297  0.3989
18510TIP3   OH277020   4.667   0.187  15.356 -0.2771 -0.9830  0.5376
18510TIP3    H177021   4.599   0.254  15.367  1.3342  0.5217  1.8631
18510TIP3    H277022   4.690   0.192  15.264 -0.4960 -0.0186  0.5232
18511TIP3   OH277023   0.204   6.816   0.295 -0.0637 -0.0092  0.1771
18511TIP3    H177024   0.252   6.733   0.293  0.3715  0.2432  0.0266
18511TIP3    H277025   0.163   6.818   0.381 -0.2887 -0.4970  0.0876
18512TIP3   OH277026   3.094   2.352   1.953 -0.1547 -0.4120  0.7867
18512TIP3    H177027   3.078   2.368   2.046 -1.2388 -0.8680  0.6958
18512TIP3    H277028   3.013   2.310   1.922  0.1445 -0.1472 -0.3863
18513TIP3   OH277029   4.553   0.144   1.494 -0.5458 -0.2816 -0.2402
18513TIP3    H177030   4.604   0.156   1.414  0.5504 -1.9643  0.1675
18513TIP3    H277031   4.617   0.148   1.565 -1.2248 -0.6778  0.4099
18514TIP3   OH277032   1.263   4.522  12.668  0.3585 -0.1660  0.1692
18514TIP3    H177033   1.199   4.558  12.730  0.4968 -1.4023  1.0779
18514TIP3    H277034   1.214   4.457  12.618  0.2368  0.8635 -1.0925
18515TIP3   OH277035   6.198   3.731   3.835 -0.4017  0.3215  0.5512
18515TIP3    H177036   6.148   3.675   3.894  1.8104 -0.5711  1.7026
18515TIP3    H277037   6.156   3.722   3.750 -1.7564 -0.8831  1.3207
18516TIP3   OH277038   3.249   5.056   5.829  0.2405  0.4515  0.1149
18516TIP3    H177039   3.336   5.074   5.792  0.5431 -0.4100  0.4015
18516TIP3    H277040   3.250   4.963   5.849 -1.2192  0.1358 -1.0947
18517TIP3   OH277041   2.776   4.365   0.039  0.6181 -0.6793  0.5025
18517TIP3    H177042   2.816   4.330  -0.041 -0.5847 -1.1748  0.0963
18517TIP3    H277043   2.738   4.449   0.012  2.1850  0.2682  1.1203
18518TIP3   OH277044   5.058   5.240  14.016  0.5206  0.7145 -0.0057
18518TIP3    H177045   5.035   5.303  13.948 -1.3390 -0.4603 -0.5382
18518TIP3    H277046   4.996   5.168  14.004  0.6404  0.1154  2.4394
18519TIP3   OH277047   6.624   5.182   1.863  0.6391  0.3375 -0.6076
18519TIP3    H177048   6.705   5.144   1.830 -0.3594 -2.2892 -0.2475
18519TIP3    H277049   6.603   5.130   1.941 -1.3015  1.0554 -0.5957
18520TIP3   OH277050   6.313   2.828   3.314  0.3942  0.2465 -0.3096
18520TIP3    H177051   6.390   2.837   3.258  1.2937  0.8599  0.9729
18520TIP3    H277052   6.305   2.734   3.329  0.4619  0.1203 -1.0140
18521TIP3   OH277053   4.915   2.690   2.223 -0.2357 -0.3219 -0.0206
18521TIP3    H177054   4.834   2.733   2.253 -0.7105  0.0513 -1.7452
18521TIP3    H277055   4.964   2.674   2.304 -0.4488  2.6316  0.8372
18522TIP3   OH277056   5.964   0.935   2.702  0.0926 -0.7047  0.4079
18522TIP3    H177057   5.947   1.015   2.653  0.3715  0.6992  2.4694
18522TIP3    H277058   5.911   0.944   2.782  1.0221 -2.0060  1.2146
18523TIP3   OH277059   5.733   3.026  11.363  0.5322  0.2793  0.2636
18523TIP3    H177060   5.747   3.119  11.346 -0.3176  0.6179  1.2860
18523TIP3    H277061   5.671   3.024  11.435  1.1576 -1.0807  0.8095
18524TIP3   OH277062   4.583   1.673   2.410  0.0936 -0.0398  0.7061
18524TIP3    H177063   4.596   1.764   2.435 -0.5364 -0.3317  2.2021
18524TIP3    H277064   4.491   1.669   2.381  0.5836  0.1220 -0.9862
18525TIP3   OH277065   5.052   0.132  15.052 -0.1524 -0.7101 -0.1632
18525TIP3    H177066   5.067   0.225  15.038 -0.8174 -0.3174  1.4352
18525TIP3    H277067   5.051   0.122  15.148 -2.1660 -1.9639 -0.2545
18526TIP3   OH277068   5.567   5.668   2.892 -0.2791  0.5639  0.1122
18526TIP3    H177069   5.604   5.650   2.978 -1.2811  0.2906  0.4981
18526TIP3    H277070   5.606   5.602   2.835 -2.0296 -1.3656  1.0175
18527TIP3   OH277071   3.533   4.644  12.136 -0.5698 -0.3014 -0.4193
18527TIP3    H177072   3.593   4.706  12.176 -1.1264 -0.6226  0.9631
18527TIP3    H277073   3.475   4.698  12.081  0.3962  0.1057 -1.0602
18528TIP3   OH277074   6.524   2.111   2.582  0.2367 -0.8234 -0.6008
18528TIP3    H177075   6.489   2.047   2.643  0.4507 -0.8815 -0.5393
18528TIP3    H277076   6.613   2.081   2.563  0.7571  0.0672  0.3091
18529TIP3   OH277077   5.066   2.925   0.019 -0.1438 -0.4004 -0.1137
18529TIP3    H177078   5.096   2.988   0.084  0.3699 -0.3491 -0.3910
18529TIP3    H277079   5.146   2.880  -0.009 -0.1025  0.5879 -1.7691
18530TIP3   OH277080   0.573   3.275   0.221 -0.4455 -0.4346  0.2300
18530TIP3    H177081   0.620   3.216   0.280 -0.9736 -0.9175  0.1740
18530TIP3    H277082   0.641   3.333   0.186 -0.2445  0.5773  2.1071
18531TIP3   OH277083   1.389   3.920  11.375  0.0277 -0.2266  0.3240
18531TIP3    H177084   1.310   3.867  11.369 -0.2458  0.1683  0.3866
18531TIP3    H277085   1.367   4.002  11.330 -0.2365  0.6448  1.9679
18532TIP3   OH277086   5.877   3.563   1.401  0.1854 -0.2715  0.9804
18532TIP3    H177087   5.947   3.497   1.397  0.0789 -0.3398 -1.0875
18532TIP3    H277088   5.843   3.556   1.490  2.1545 -0.9141  1.7464
18533TIP3   OH277089   6.199   4.442   4.284 -0.2562  0.1553 -0.3740
18533TIP3    H177090   6.171   4.457   4.194 -0.7800  0.7656 -0.1075
18533TIP3    H277091   6.134   4.486   4.338 -0.0157 -0.3118  0.3137
18534TIP3   OH277092   3.795   1.572  15.830  0.2396  0.0805 -0.3576
18534TIP3    H177093   3.797   1.641  15.764 -1.5831 -1.4322 -2.1336
18534TIP3    H277094   3.786   1.490  15.780 -0.7226 -1.1840  1.7215
18535TIP3   OH277095   0.205   0.253   1.740 -0.2439 -0.1401  0.2795
18535TIP3    H177096   0.253   0.332   1.761 -0.7890  0.3805 -0.3891
18535TIP3    H277097   0.255   0.182   1.782 -0.0035  0.5959  1.2507
18536TIP3   OH277098   1.266   4.573   4.125 -0.5461  0.3875 -0.4029
18536TIP3    H177099   1.224   4.493   4.154  0.1591 -0.1798 -0.8877
18536TIP3    H277100   1.220   4.643   4.170 -1.8256 -0.2204 -0.7215
18537TIP3   OH277101   1.318   5.070   2.957 -0.0788  0.0099 -0.0614
18537TIP3    H177102   1.305   5.143   3.018 -0.1092 -1.0443  1.2335
18537TIP3    H277103   1.320   5.111   2.871 -1.5135  1.3907  0.5120
18538TIP3   OH277104   2.728   1.821  12.655  0.1490  0.0415  0.1221
18538TIP3    H177105   2.640   1.847  12.627 -0.3521 -0.9127  0.7733
18538TIP3    H277106   2.787   1.872  12.599 -0.7957  1.5409  0.4245
18539TIP3   OH277107   2.735   3.045  17.090  0.0238  0.0423  0.0484
18539TIP3    H177108   2.683   2.976  17.132  0.4122 -0.7152 -0.6743
18539TIP3    H277109   2.763   3.102  17.162  0.5183 -1.1124  0.7992
18540TIP3   OH277110   4.629   0.516  13.374  0.0480 -0.1772  0.2594
18540TIP3    H177111   4.706   0.513  13.431 -0.8939  1.9814  1.7959
18540TIP3    H277112   4.559   0.480  13.428 -0.2874 -0.8825 -0.6427
18541TIP3   OH277113   6.763   1.980   1.447  0.3412  0.3837  0.5225
18541TIP3    H177114   6.718   1.911   1.398 -0.0365  0.8897  0.1425
18541TIP3    H277115   6.702   2.054   1.447  1.1827  1.1050 -0.0655
18542TIP3   OH277116   3.213   4.670  10.942  0.6866  0.2240 -0.3802
18542TIP3    H177117   3.263   4.613  10.884 -0.6455 -1.2188 -0.2063
18542TIP3    H277118   3.122   4.656  10.916  0.2287  1.3728  0.4904
18543TIP3   OH277119   3.597   0.747  14.485 -0.2974  0.0703  0.4743
18543TIP3    H177120   3.579   0.828  14.438  0.0995  0.6166  1.2325
18543TIP3    H277121   3.589   0.771  14.578  0.1171 -0.6801  0.7159
18544TIP3   OH277122   5.614   5.859  15.067  0.3245 -0.6151  0.5745
18544TIP3    H177123   5.562   5.907  15.132  0.4181  1.9225 -1.0924
18544TIP3    H277124   5.699   5.904  15.066  0.6676 -1.2460 -0.5900
18545TIP3   OH277125   5.477   4.913  13.293  0.0410  0.2167 -0.1242
18545TIP3    H177126   5.387   4.886  13.311 -1.0558  1.4871 -3.0286
18545TIP3    H277127   5.497   4.976  13.362 -1.0480 -0.5396  0.9179
18546TIP3   OH277128   5.789   2.092   5.530  0.0288 -0.2092 -0.8939
18546TIP3    H177129   5.696   2.083   5.512  0.3310  0.4738 -2.9776
18546TIP3    H277130   5.815   2.174   5.487  1.5102 -0.1126  0.0720
18547TIP3   OH277131   6.737   0.351  14.085  0.1676  0.2154 -0.1605
18547TIP3    H177132   6.687   0.326  14.163  0.8391  0.8120  0.4806
18547TIP3    H277133   6.791   0.274  14.065 -0.5374 -0.2045 -0.4849
18548TIP3   OH277134   2.989   6.680  14.447 -0.2138  0.5312  0.2174
18548TIP3    H177135   2.917   6.618  14.438 -1.1073  1.8445 -3.4405
18548TIP3    H277136   2.946   6.764  14.463  0.3161  1.3678 -2.2091
18549TIP3   OH277137   6.173   6.225  12.542 -0.5091 -0.1740  0.6387
18549TIP3    H177138   6.086   6.265  12.533 -0.1929  0.3817  0.0046
18549TIP3    H277139   6.169   6.146  12.487 -0.3468  0.3032 -0.0699
18550TIP3   OH277140   1.033   0.634   3.119  0.0966  0.9234 -0.3638
18550TIP3    H177141   0.965   0.635   3.053  1.1397 -1.7107 -1.6475
18550TIP3    H277142   1.000   0.574   3.186  0.0572  1.7310  0.3604
18551TIP3   OH277143   2.418   6.412  12.071  0.2997 -0.2473  0.0500
18551TIP3    H177144   2.339   6.403  12.017  0.3065  0.8338 -0.1673
18551TIP3    H277145   2.385   6.421  12.160  0.1728  0.2289 -0.0434
18552TIP3   OH277146   2.833   2.423   4.571  0.1745  0.6606 -0.4281
18552TIP3    H177147   2.843   2.485   4.643 -1.6999  0.7475 -0.1820
18552TIP3    H277148   2.741   2.395   4.576  0.6577 -1.2282 -1.2717
18553TIP3   OH277149   6.390   3.352  15.080 -0.6304  0.1393 -0.1667
18553TIP3    H177150   6.433   3.399  15.009 -2.2707  1.7525 -0.1878
18553TIP3    H277151   6.366   3.267  15.042 -1.0969  0.8106 -1.4413
18554TIP3   OH277152   0.066   4.393   6.150  0.0093  0.0680 -0.7894
18554TIP3    H177153  -0.006   4.392   6.087  0.1754 -0.1010 -0.9800
18554TIP3    H277154   0.024   4.380   6.235  0.0026 -2.6181 -1.1056
18555TIP3   OH277155   2.014   3.177  14.990  0.1988 -0.0900  0.4876
18555TIP3    H177156   2.026   3.226  15.071 -0.3880 -0.3716  0.7546
18555TIP3    H277157   2.018   3.244  14.921 -1.1559  0.4451  0.8883
18556TIP3   OH277158   1.522   1.498  13.524 -0.0835 -0.9034  0.0681
18556TIP3    H177159   1.497   1.562  13.590  0.9350  0.0251 -0.4048
18556TIP3    H277160   1.576   1.435  13.572  2.8293  1.1490 -0.2398
18557TIP3   OH277161   1.692   0.313  14.876  0.0708  0.3653 -0.1458
18557TIP3    H177162   1.655   0.229  14.901  1.5149 -0.5159 -0.8578
18557TIP3    H277163   1.618   0.373  14.877 -0.8085 -0.6930  1.3081
18558TIP3   OH277164   6.353   1.845  12.928 -0.0752 -0.4726  0.4421
18558TIP3    H177165   6.382   1.815  12.842 -0.0990  0.8234 -0.0447
18558TIP3    H277166   6.400   1.790  12.990  0.5204 -0.9253 -0.3882
18559TIP3   OH277167   5.907   5.040   2.582 -0.1944  0.6493  0.6734
18559TIP3    H177168   5.891   5.017   2.491 -0.5575  1.0282  0.6408
18559TIP3    H277169   5.879   4.962   2.631 -0.0741  0.4754  0.4689
18560TIP3   OH277170   3.737   3.000  16.171 -0.2396  0.5041 -0.5959
18560TIP3    H177171   3.714   3.076  16.117 -1.5768 -1.7729 -3.5356
18560TIP3    H277172   3.796   2.949  16.115 -2.0703 -2.2381 -0.1819
18561TIP3   OH277173   1.205   6.443  12.190  0.0492 -0.2370  0.1396
18561TIP3    H177174   1.279   6.430  12.130 -0.1753  0.9164 -0.4188
18561TIP3    H277175   1.245   6.476  12.271  0.2952 -1.2497  0.4492
18562TIP3   OH277176   1.135   2.750  15.289  0.5006 -0.0172  0.6150
18562TIP3    H177177   1.139   2.834  15.335  1.8815  0.5855 -0.5210
18562TIP3    H277178   1.042   2.737  15.271  0.2376  1.1405  1.0174
18563TIP3   OH277179   0.525   4.874  16.509 -0.0652  0.0241 -0.3070
18563TIP3    H177180   0.550   4.961  16.542  0.3591  0.9050 -2.7365
18563TIP3    H277181   0.604   4.821  16.519 -0.5084 -0.3403  1.7758
18564TIP3   OH277182   1.648   0.140   1.739 -0.1261  0.8163 -0.5067
18564TIP3    H177183   1.559   0.159   1.712 -0.2548  1.0030  0.0464
18564TIP3    H277184   1.696   0.222   1.725 -0.7466  1.7329  2.1626
18565TIP3   OH277185   1.637   1.363  14.503 -0.3071 -0.0621  0.1646
18565TIP3    H177186   1.588   1.281  14.514 -0.8832  0.0856 -1.0824
18565TIP3    H277187   1.728   1.336  14.497 -0.4619 -0.5919  0.1290
18566TIP3   OH277188   5.664   5.263   6.063  0.2370  0.5367  0.3999
18566TIP3    H177189   5.713   5.252   5.982  0.4514  1.8651  0.3253
18566TIP3    H277190   5.628   5.176   6.082 -0.0241  0.2658 -1.2353
18567TIP3   OH277191   3.521   3.579  11.176  0.3525 -0.3794 -0.7787
18567TIP3    H177192   3.578   3.548  11.246  0.0190 -0.1461 -0.3982
18567TIP3    H277193   3.580   3.617  11.111  0.6066  0.0743 -0.2790
18568TIP3   OH277194   6.290   4.901  15.867 -0.6044 -0.2258 -0.9293
18568TIP3    H177195   6.323   4.862  15.948 -2.4761  0.1066  0.0618
18568TIP3    H277196   6.362   4.892  15.805  0.6837 -1.0293  0.5922
18569TIP3   OH277197   2.039   1.926   1.520  0.0578  0.2108 -0.2077
18569TIP3    H177198   2.035   1.871   1.442 -1.1188 -1.8803  1.2317
18569TIP3    H277199   2.133   1.934   1.538  0.2933 -0.2918 -1.1318
18570TIP3   OH277200   0.270   4.854  14.758 -0.0553 -0.0502 -0.0839
18570TIP3    H177201   0.262   4.949  14.748  0.5704 -0.1171 -1.4702
18570TIP3    H277202   0.362   4.839  14.778  0.1891 -0.4434 -1.3820
18571TIP3   OH277203   3.058   4.162  16.349 -0.3211  0.1879 -0.5810
18571TIP3    H177204   3.031   4.240  16.397  1.4163  1.8948 -2.1607
18571TIP3    H277205   3.142   4.187  16.308  0.2560 -2.4854 -1.2412
18572TIP3   OH277206   5.308   6.406   0.602  0.2319  0.4724 -0.4272
18572TIP3    H177207   5.235   6.458   0.569 -0.1485  0.5319  0.4898
18572TIP3    H277208   5.367   6.469   0.643 -0.5309  0.1375  1.2375
18573TIP3   OH277209   6.762   4.400   2.676  0.6700 -0.0511  0.3422
18573TIP3    H177210   6.747   4.308   2.654 -1.8814  0.8366 -2.2483
18573TIP3    H277211   6.696   4.420   2.743  0.3873  0.1844 -0.0044
18574TIP3   OH277212   1.199   3.187   2.354 -0.9122  0.2262 -0.0457
18574TIP3    H177213   1.237   3.275   2.351 -1.5617  0.5325  0.5027
18574TIP3    H277214   1.119   3.197   2.406 -1.1375 -0.6355 -0.2119
18575TIP3   OH277215   6.147   3.441  14.374 -0.3708 -0.1618  0.2600
18575TIP3    H177216   6.144   3.449  14.279 -1.2198  2.3649  0.4086
18575TIP3    H277217   6.230   3.397  14.392 -0.4761 -1.2374 -1.6461
18576TIP3   OH277218   2.616   4.618   4.920 -0.8322 -0.4959  1.3475
18576TIP3    H177219   2.640   4.710   4.936 -5.5971  0.9488  1.6512
18576TIP3    H277220   2.628   4.576   5.005 -0.3147  0.2781  1.6797
18577TIP3   OH277221   6.416   0.924  16.173 -0.6076 -0.1953  0.1087
18577TIP3    H177222   6.374   0.999  16.131 -0.7158  1.0740  2.3333
18577TIP3    H277223   6.475   0.962  16.237 -0.2567 -2.0146  0.9247
18578TIP3   OH277224   3.887   2.543   3.094  0.0836  0.3271 -0.0846
18578TIP3    H177225   3.828   2.500   3.156 -0.5271  1.1212 -0.1018
18578TIP3    H277226   3.848   2.527   3.008  0.7413 -0.4746 -0.2394
18579TIP3   OH277227   1.465   4.572   2.894  0.1206  0.3207 -0.0456
18579TIP3    H177228   1.390   4.614   2.936 -0.6671  1.1872 -2.2131
18579TIP3    H277229   1.430   4.493   2.853  0.4132  0.6434 -0.9347
18580TIP3   OH277230   1.148   0.671  14.404 -0.0608  0.1422  0.3888
18580TIP3    H177231   1.229   0.721  14.389  0.1240  0.2299  1.6025
18580TIP3    H277232   1.159   0.592  14.351  0.4501  0.5295 -0.1040
18581TIP3   OH277233   1.933   0.791  16.712 -0.7817  0.8559  0.5234
18581TIP3    H177234   1.923   0.847  16.635  0.7617  1.0526  0.4281
18581TIP3    H277235   1.845   0.782  16.747 -1.6910  0.0600 -1.7373
18582TIP3   OH277236   3.283   5.041   6.940  0.5780  0.2878 -0.9366
18582TIP3    H177237   3.230   4.979   6.890 -0.5551  1.3502 -1.0991
18582TIP3    H277238   3.220   5.107   6.971  1.8249  1.6980 -1.2993
18583TIP3   OH277239   0.955   3.324  11.626  0.2900  0.1917  0.3996
18583TIP3    H177240   0.971   3.415  11.649 -1.1093  0.6539 -0.3363
18583TIP3    H277241   0.920   3.284  11.707 -3.0536  1.3966 -0.2908
18584TIP3   OH277242   5.714   0.629   3.741  0.1106 -0.9909 -0.2843
18584TIP3    H177243   5.735   0.567   3.810 -3.5720  0.2695  2.2872
18584TIP3    H277244   5.635   0.592   3.699 -0.6688  0.6721 -0.3684
18585TIP3   OH277245   5.991   3.810  12.566  1.0090  0.2483 -0.2927
18585TIP3    H177246   5.990   3.808  12.661 -0.9876  1.0606 -0.2577
18585TIP3    H277247   6.012   3.720  12.540  2.5351  0.2261  0.8809
18586TIP3   OH277248   0.912   6.144  15.290  0.4329 -0.1684  0.0809
18586TIP3    H177249   0.940   6.114  15.376 -1.5460 -1.8619  0.2068
18586TIP3    H277250   0.832   6.193  15.306 -1.1233 -2.2383 -0.8982
18587TIP3   OH277251   0.004   3.640   3.732  0.0671  0.6793 -0.1538
18587TIP3    H177252   0.055   3.695   3.792 -1.8431  1.2555  1.0686
18587TIP3    H277253   0.006   3.553   3.772  0.9699  0.4255 -0.7151
18588TIP3   OH277254   3.872   2.767   5.199 -0.4903 -0.4079 -0.0425
18588TIP3    H177255   3.945   2.721   5.158 -0.8588 -1.2304  0.2091
18588TIP3    H277256   3.869   2.852   5.155 -0.9119 -1.2810 -1.7591
18589TIP3   OH277257   5.029   5.260   4.649  0.1761 -0.1464 -0.4210
18589TIP3    H177258   5.014   5.167   4.664 -1.5433  0.0931 -0.4587
18589TIP3    H277259   4.963   5.285   4.584  2.9268  0.3431 -3.2634
18590TIP3   OH277260   0.120   6.602   3.098 -0.4299 -0.6711 -0.1327
18590TIP3    H177261   0.213   6.623   3.096 -0.8719  1.6341  0.6954
18590TIP3    H277262   0.116   6.512   3.131  1.4390 -0.1654  1.6774
18591TIP3   OH277263   1.483   0.372  14.020  0.0665  0.3304  0.2451
18591TIP3    H177264   1.519   0.431  13.954 -0.4150 -1.3448 -1.5711
18591TIP3    H277265   1.388   0.380  14.011 -0.0063 -0.0707  0.6119
18592TIP3   OH277266   5.284   0.762  11.318  0.0939  0.1218  0.1320
18592TIP3    H177267   5.196   0.786  11.346  0.5441  1.3037  0.6111
18592TIP3    H277268   5.286   0.784  11.225  0.0716  0.6966  0.2630
18593TIP3   OH277269   2.363   0.475   5.519  0.1287  0.3216  0.1826
18593TIP3    H177270   2.422   0.548   5.498 -1.0043  1.5210  1.0185
18593TIP3    H277271   2.352   0.480   5.614 -1.1959  0.0209  0.0565
18594TIP3   OH277272   5.467   2.791  14.268  0.5840  0.4442 -0.2424
18594TIP3    H177273   5.542   2.822  14.319 -0.9673  0.6230  2.0506
18594TIP3    H277274   5.403   2.862  14.273 -0.0866 -0.0391 -1.4463
18595TIP3   OH277275   5.785   6.431   1.453  0.2525 -0.1080  0.1779
18595TIP3    H177276   5.836   6.398   1.379 -1.4821  3.4181 -2.9553
18595TIP3    H277277   5.698   6.391   1.441  0.5599 -1.4321  1.9239
18596TIP3   OH277278   0.916   5.958  16.595 -0.4568 -0.1925 -0.3930
18596TIP3    H177279   0.993   6.006  16.626  0.4234 -1.0933 -1.1061
18596TIP3    H277280   0.855   5.960  16.669 -0.3466  1.7575 -0.3176
18597TIP3   OH277281   4.914   1.624   4.812 -0.0608 -0.1075 -0.5820
18597TIP3    H177282   4.869   1.539   4.816 -3.2493  1.3704 -1.3168
18597TIP3    H277283   4.987   1.615   4.874  0.4913 -3.7034 -1.4970
18598TIP3   OH277284   4.731   3.491  12.992  0.3344 -0.3529  0.0377
18598TIP3    H177285   4.750   3.583  12.970  1.3621  0.0183  2.1743
18598TIP3    H277286   4.648   3.495  13.040  1.8672 -0.0131  2.8767
18599TIP3   OH277287   1.884   4.253   0.657  0.7196 -0.1124 -0.2668
18599TIP3    H177288   1.863   4.300   0.738 -0.4467 -0.3166 -0.4313
18599TIP3    H277289   1.950   4.308   0.614  0.5158  0.5782  0.2788
18600TIP3   OH277290   0.005   1.000   3.933  0.2459  0.5745  0.2179
18600TIP3    H177291   0.085   0.970   3.890 -0.7196 -1.7210 -0.1291
18600TIP3    H277292   0.029   1.008   4.025  0.4955 -1.9135  0.4366
18601TIP3   OH277293   4.351   5.960   0.717  0.1867  0.8692  0.0550
18601TIP3    H177294   4.398   5.885   0.680 -0.2656  1.1768 -1.1848
18601TIP3    H277295   4.259   5.942   0.697  0.2269  2.7833 -2.2916
18602TIP3   OH277296   6.206   2.427  16.801 -0.2380  0.1276  0.2260
18602TIP3    H177297   6.189   2.420  16.895  0.7665 -2.1433  0.2871
18602TIP3    H277298   6.148   2.363  16.760  1.5819 -1.2234 -0.3641
18603TIP3   OH277299   5.177   6.283  10.651 -0.2385 -0.6641  0.6869
18603TIP3    H177300   5.270   6.266  10.669  0.1331  0.7911  0.2473
18603TIP3    H277301   5.149   6.208  10.599  0.5122 -1.4271  1.3366
18604TIP3   OH277302   6.235   4.878   5.553  0.3654 -0.3423  0.0603
18604TIP3    H177303   6.330   4.880   5.565  0.3053 -0.8498  0.6193
18604TIP3    H277304   6.209   4.971   5.553  0.6303 -0.2412  1.8075
18605TIP3   OH277305   2.201   3.740   0.443 -0.1398  0.8738  0.1713
18605TIP3    H177306   2.228   3.821   0.398 -0.8408  1.3876  0.6463
18605TIP3    H277307   2.170   3.770   0.528 -0.0211  0.0442  0.5140
18606TIP3   OH277308   2.013   0.994  11.690 -0.2104 -0.3461  0.2756
18606TIP3    H177309   1.969   0.915  11.659  1.0677 -0.7822 -0.5290
18606TIP3    H277310   2.010   1.055  11.617  0.4190 -0.3483  0.2393
18607TIP3   OH277311   0.650   3.382  11.603  0.1615  0.2130 -0.0565
18607TIP3    H177312   0.627   3.316  11.537 -0.6492 -0.5562  0.9542
18607TIP3    H277313   0.746   3.380  11.606  0.1591 -0.8661 -0.1178
18608TIP3   OH277314   0.196   2.710   6.262  0.4690  0.0176 -0.2390
18608TIP3    H177315   0.207   2.617   6.283  1.9653  0.5997  2.0683
18608TIP3    H277316   0.103   2.720   6.242 -0.1582 -1.6590  1.4976
18609TIP3   OH277317   0.613   6.284   6.206  0.5191  0.2249 -0.2731
18609TIP3    H177318   0.581   6.226   6.275  0.6897 -1.2947 -1.4086
18609TIP3    H277319   0.535   6.327   6.173  0.4928  1.3206  1.1432
18610TIP3   OH277320   2.361   6.351  11.340  0.5980 -0.0650 -0.7019
18610TIP3    H177321   2.315   6.267  11.335 -0.5306  0.4312  0.7871
18610TIP3    H277322   2.340   6.394  11.257 -2.2536  0.4113  0.1495
18611TIP3   OH277323   5.764   0.155  15.208 -0.1217  0.3106 -0.0808
18611TIP3    H177324   5.807   0.096  15.270  1.4082 -0.4899 -1.7947
18611TIP3    H277325   5.821   0.231  15.203  0.7592 -0.3934 -1.7468
18612TIP3   OH277326   4.511   3.624  14.838  1.0471 -0.2079 -0.4879
18612TIP3    H177327   4.529   3.538  14.801 -1.2389 -1.1564  0.4504
18612TIP3    H277328   4.483   3.607  14.928 -1.2910  1.2921 -0.8391
18613TIP3   OH277329   3.284   5.287  14.771 -0.2883 -0.5739  0.5734
18613TIP3    H177330   3.337   5.323  14.843  0.0288 -0.6351  0.3748
18613TIP3    H277331   3.340   5.219  14.732 -0.7023 -0.9692  0.6589
18614TIP3   OH277332   3.477   4.068   1.090 -0.1158 -0.0196 -0.4068
18614TIP3    H177333   3.408   4.027   1.143 -0.4152  1.4575  0.4361
18614TIP3    H277334   3.557   4.021   1.114 -0.0427  1.2592  2.2660
18615TIP3   OH277335   3.918   0.163   4.923 -0.5654 -0.1170  0.3604
18615TIP3    H177336   3.946   0.168   4.832 -1.3111 -2.7290 -0.0969
18615TIP3    H277337   3.998   0.177   4.974  0.1486 -0.1384 -0.7254
18616TIP3   OH277338   3.063   0.293  17.162 -0.5634 -0.2139 -0.9384
18616TIP3    H177339   3.042   0.245  17.082  0.9837 -0.1716 -1.3974
18616TIP3    H277340   3.034   0.234  17.232 -1.4539 -0.4815 -1.5058
18617TIP3   OH277341   0.059   6.043  15.469  0.7899  0.1885  0.7585
18617TIP3    H177342   0.051   6.094  15.549  3.0814 -0.3249  1.3736
18617TIP3    H277343   0.058   6.109  15.399 -0.7891  0.6673  1.1857
18618TIP3   OH277344   5.480   0.285  13.569 -0.5810 -0.2750 -0.9730
18618TIP3    H177345   5.447   0.359  13.621  3.0804  1.6201 -1.0295
18618TIP3    H277346   5.486   0.320  13.480  1.6272 -0.3674 -0.9179
18619TIP3   OH277347   3.089   4.864   3.235  0.6782  0.2103 -0.3055
18619TIP3    H177348   3.158   4.917   3.195  0.4082 -0.3536 -1.5903
18619TIP3    H277349   3.048   4.922   3.299  1.0836  1.1975 -0.9066
18620TIP3   OH277350   1.165   2.198   0.537  0.2696 -0.7444  0.7111
18620TIP3    H177351   1.128   2.215   0.451  0.1238  0.4520  0.9925
18620TIP3    H277352   1.113   2.126   0.572  1.3095 -2.3176 -0.7793
18621TIP3   OH277353   4.700   3.327  14.037 -0.4499  0.5600  0.1998
18621TIP3    H177354   4.738   3.361  14.119 -1.4511 -1.1911  1.4565
18621TIP3    H277355   4.764   3.350  13.970  0.9747  1.0212  1.6495
18622TIP3   OH277356   2.745   3.007   0.288 -0.1084 -0.2030 -0.0434
18622TIP3    H177357   2.760   3.067   0.215  0.6691 -0.6367 -0.2621
18622TIP3    H277358   2.652   3.013   0.306 -0.1646  0.5331 -0.5282
18623TIP3   OH277359   5.762   0.020  13.471  0.0260 -0.1854 -0.7475
18623TIP3    H177360   5.823  -0.052  13.488  1.3396  0.9815 -0.3090
18623TIP3    H277361   5.719   0.035  13.555  1.8116  1.3482 -0.0529
18624TIP3   OH277362   2.750   4.223   6.196 -0.0941 -0.7499 -0.0273
18624TIP3    H177363   2.756   4.165   6.271 -3.4619  0.0571  1.0413
18624TIP3    H277364   2.658   4.220   6.171  0.7329 -0.3998 -3.7341
18625TIP3   OH277365   1.037   3.251  13.877  0.3461 -0.7352 -0.0166
18625TIP3    H177366   1.084   3.232  13.796  0.1161 -1.0093 -0.0870
18625TIP3    H277367   1.103   3.241  13.946  0.7411  0.2784 -0.2271
18626TIP3   OH277368   0.852   1.252   5.554 -0.0914 -0.5509  0.4036
18626TIP3    H177369   0.875   1.321   5.616  0.3375 -0.4163  0.0971
18626TIP3    H277370   0.832   1.297   5.473 -0.5809 -0.7330  0.4206
18627TIP3   OH277371   4.842   4.197   5.176  0.6371  0.0331 -0.0850
18627TIP3    H177372   4.752   4.176   5.201  0.2127  1.2576 -0.4914
18627TIP3    H277373   4.834   4.239   5.090  1.5707  0.3095 -0.0479
18628TIP3   OH277374   2.515   1.702   5.856 -0.3742  0.4162 -0.1102
18628TIP3    H177375   2.490   1.785   5.815 -1.5808  0.9128  1.5395
18628TIP3    H277376   2.609   1.696   5.841 -0.3398  1.8853 -0.6476
18629TIP3   OH277377   6.700   6.436  12.060 -0.1987  0.7365 -0.9858
18629TIP3    H177378   6.645   6.464  11.987 -1.0595  1.7625  0.0331
18629TIP3    H277379   6.649   6.454  12.138  0.6058 -0.5808 -0.1112
18630TIP3   OH277380   0.493   6.482  12.158 -0.5491  0.3346 -0.0514
18630TIP3    H177381   0.579   6.445  12.141  0.5421  2.3613  0.7799
18630TIP3    H277382   0.441   6.408  12.190  1.4944 -0.5308  1.4850
18631TIP3   OH277383   6.602   5.062  16.693 -0.8777  0.6722 -0.3798
18631TIP3    H177384   6.685   5.051  16.740 -0.5740  3.6894 -0.0477
18631TIP3    H277385   6.628   5.074  16.601 -1.0502  0.5903 -0.4398
18632TIP3   OH277386   5.276   5.890   4.453  0.1287 -0.1455 -0.0250
18632TIP3    H177387   5.253   5.834   4.379 -0.8501 -0.0854  0.2170
18632TIP3    H277388   5.364   5.863   4.478  0.1105 -0.7858 -0.6370
18633TIP3   OH277389   3.571   2.263  10.921 -0.1321  0.5471  0.7685
18633TIP3    H177390   3.543   2.354  10.910 -0.5960  0.2903 -0.2193
18633TIP3    H277391   3.631   2.266  10.996 -0.1985  1.6515  0.7972
18634TIP3   OH277392   4.865   4.389  13.384 -0.2045 -0.1589  0.0546
18634TIP3    H177393   4.839   4.422  13.470 -1.9203 -0.9424 -0.1341
18634TIP3    H277394   4.959   4.373  13.393 -0.1056  0.9372  1.3787
18635TIP3   OH277395   0.581   4.125  11.839  0.4797  0.2413  0.5768
18635TIP3    H177396   0.537   4.044  11.813 -0.5308  0.7568  0.6567
18635TIP3    H277397   0.658   4.129  11.782  1.3302 -1.4924  1.5354
18636TIP3   OH277398   0.948   6.787  16.517  0.3216  0.6421  0.0039
18636TIP3    H177399   1.003   6.721  16.476  2.3284  1.8719  0.5699
18636TIP3    H277400   0.914   6.744  16.596 -0.4120 -0.4711 -0.8922
18637TIP3   OH277401   0.763   3.796   4.283  0.0877  0.3274 -0.5197
18637TIP3    H177402   0.686   3.767   4.235 -0.3946  0.7976 -0.0551
18637TIP3    H277403   0.829   3.810   4.216 -0.7924  1.6966 -1.1630
18638TIP3   OH277404   0.052   1.268   3.497 -0.4076  0.3315 -0.5795
18638TIP3    H177405   0.147   1.262   3.489 -0.4268 -1.6868  0.0374
18638TIP3    H277406   0.038   1.325   3.573  0.3447 -0.0521 -0.1380
18639TIP3   OH277407   6.795   4.808   2.452 -0.1079 -0.2311 -0.6717
18639TIP3    H177408   6.721   4.781   2.507 -0.5512 -1.3947 -1.7927
18639TIP3    H277409   6.871   4.805   2.511 -0.5968 -1.2191 -0.0562
18640TIP3   OH277410   3.370   4.176  12.249 -0.1026 -0.3323 -0.1924
18640TIP3    H177411   3.325   4.094  12.231 -3.1971  0.8767  1.2618
18640TIP3    H277412   3.326   4.241  12.194 -0.6144  1.0039  1.6592
18641TIP3   OH277413   5.352   3.349   4.774  0.4871 -0.5974 -0.6252
18641TIP3    H177414   5.340   3.329   4.681  0.1998 -3.5804 -0.0252
18641TIP3    H277415   5.324   3.270   4.820  0.2153  0.9407  2.0585
18642TIP3   OH277416   3.180   1.299   2.472  0.0558  0.2713  0.3619
18642TIP3    H177417   3.249   1.238   2.494  0.0481  0.0718 -0.1618
18642TIP3    H277418   3.201   1.379   2.522  0.5291  0.1336  0.3800
18643TIP3   OH277419   6.613   6.397   5.050  0.2398 -0.2050  0.3340
18643TIP3    H177420   6.658   6.336   5.108  0.5757  0.6724  1.0099
18643TIP3    H277421   6.532   6.419   5.096  0.3199  0.1871  0.2885
18644TIP3   OH277422   4.245   1.046  16.081  0.0009  0.0943 -0.1858
18644TIP3    H177423   4.196   1.003  16.151  1.7946  1.2472  1.9108
18644TIP3    H277424   4.246   0.983  16.010 -1.3230 -1.4309  1.0760
18645TIP3   OH277425   3.295   5.567   2.312  0.1267 -0.4840 -0.4097
18645TIP3    H177426   3.253   5.513   2.379  0.6122  0.4583  0.6903
18645TIP3    H277427   3.238   5.644   2.304 -0.1333 -0.7618 -1.3758
18646TIP3   OH277428   3.896   6.665  12.559 -0.6477  0.0948  0.0002
18646TIP3    H177429   3.837   6.599  12.597 -0.4485  0.3932  0.8678
18646TIP3    H277430   3.883   6.743  12.615 -1.9277  1.2804 -1.8273
18647TIP3   OH277431   2.582   4.255   1.074 -0.2641  0.6154 -0.2922
18647TIP3    H177432   2.580   4.317   1.148 -0.3233 -0.1154  0.3329
18647TIP3    H277433   2.613   4.307   1.000  3.3729  0.5885  1.0307
18648TIP3   OH277434   1.571   5.793   2.936 -0.0082 -0.0113  1.0553
18648TIP3    H177435   1.559   5.814   2.843  1.4948  0.2608  0.8848
18648TIP3    H277436   1.546   5.701   2.943 -0.5867  0.0968  0.4852
18649TIP3   OH277437   0.940   1.898  14.360  0.7992 -0.0470  0.1258
18649TIP3    H177438   1.029   1.870  14.379  1.8033  1.8873 -1.3698
18649TIP3    H277439   0.934   1.894  14.264 -0.4121  0.6860  0.1488
18650TIP3   OH277440   4.510   2.648   5.103  0.1898  0.1194 -0.3954
18650TIP3    H177441   4.518   2.717   5.168  0.5712 -0.6812  0.4397
18650TIP3    H277442   4.571   2.673   5.033  0.5252  0.4880  0.0224
18651TIP3   OH277443   5.425   0.145   0.074  0.1846 -0.0873 -0.0126
18651TIP3    H177444   5.365   0.071   0.066  0.7308 -0.5399  0.0575
18651TIP3    H277445   5.448   0.167  -0.017  0.6105 -0.4848  0.0003
18652TIP3   OH277446   2.959   0.360  16.685  0.2796 -0.0129  0.1541
18652TIP3    H177447   2.985   0.401  16.767  1.0881 -0.3936  0.1029
18652TIP3    H277448   2.878   0.403  16.660  0.5017  0.7268  0.6965
18653TIP3   OH277449   6.638   0.635   0.885 -0.2661  0.5895 -0.4891
18653TIP3    H177450   6.620   0.638   0.791  1.2059  1.9430 -0.7704
18653TIP3    H277451   6.628   0.726   0.914  0.2958  0.3631  0.4529
18654TIP3   OH277452   0.223   2.419   6.208  0.3461 -0.4201 -0.2444
18654TIP3    H177453   0.142   2.420   6.156 -0.0424 -1.2457  0.3202
18654TIP3    H277454   0.201   2.367   6.286  0.9773  0.6212  0.6594
18655TIP3   OH277455   3.641   5.319  16.388  0.7039 -0.2340  0.5146
18655TIP3    H177456   3.733   5.298  16.400  0.9421  0.4007 -0.1491
18655TIP3    H277457   3.595   5.259  16.446  1.4619 -1.2930  0.0427
18656TIP3   OH277458   5.012   6.398  11.758  0.1537  0.0309  0.3545
18656TIP3    H177459   5.040   6.324  11.811 -0.1878  0.1958  0.7772
18656TIP3    H277460   5.006   6.471  11.820 -2.7188 -0.3302  0.6719
18657TIP3   OH277461   6.516   4.590  17.112 -0.1830 -0.4576  0.0540
18657TIP3    H177462   6.597   4.594  17.161 -0.9508 -0.2542  1.3411
18657TIP3    H277463   6.473   4.674  17.128 -0.6122 -0.5187 -0.7025
18658TIP3   OH277464   5.148   1.955  17.119 -0.2178 -0.3062  0.2961
18658TIP3    H177465   5.239   1.977  17.137 -0.4387  1.0889 -0.1449
18658TIP3    H277466   5.139   1.963  17.024 -0.9683  0.3168  0.4073
18659TIP3   OH277467   2.906   2.789   0.538 -0.4272 -0.3379 -0.4669
18659TIP3    H177468   2.890   2.849   0.465  0.0369  1.4862  0.8677
18659TIP3    H277469   2.931   2.707   0.496  0.2201  0.7725 -2.3657
18660TIP3   OH277470   1.559   1.885   3.021 -0.2877  0.0034  0.0404
18660TIP3    H177471   1.592   1.795   3.028  2.0711  0.8188  0.1764
18660TIP3    H277472   1.527   1.906   3.109  1.2105  0.0125  0.6091
18661TIP3   OH277473   4.802   1.178   1.920 -0.7967  0.1757  0.4140
18661TIP3    H177474   4.767   1.205   2.004 -3.1665  2.3371 -1.1339
18661TIP3    H277475   4.815   1.259   1.872  1.2724 -0.9322 -1.0846
18662TIP3   OH277476   6.216   4.496  11.669  0.2470 -0.1807  0.0823
18662TIP3    H177477   6.302   4.534  11.654 -0.3345  1.4779  0.7478
18662TIP3    H277478   6.201   4.508  11.763 -0.4151 -1.1246  0.1128
18663TIP3   OH277479   5.306   4.885  14.495 -0.8877  0.0517 -0.0137
18663TIP3    H177480   5.306   4.828  14.572 -3.8527  0.2709  0.2611
18663TIP3    H277481   5.292   4.826  14.422  1.0581 -0.0516 -0.3627
18664TIP3   OH277482   6.714   5.452   4.707 -0.0160 -0.0637 -0.6675
18664TIP3    H177483   6.778   5.493   4.649 -0.7761  1.0614 -0.7330
18664TIP3    H277484   6.632   5.498   4.688 -0.4929 -0.3816  0.5719
18665TIP3   OH277485   1.402   5.222  11.423 -0.1699 -0.5362  0.2057
18665TIP3    H177486   1.332   5.176  11.469  0.0718 -0.1502  0.9598
18665TIP3    H277487   1.360   5.253  11.342 -1.4239  1.3994  1.5215
18666TIP3   OH277488   0.439   1.313   3.011  0.3461  0.2044  0.0834
18666TIP3    H177489   0.382   1.371   3.061  2.3337  1.9240  0.5001
18666TIP3    H277490   0.416   1.330   2.919 -0.5959 -0.0058  0.2740
18667TIP3   OH277491   2.803   1.507  11.134 -0.5813  0.0336 -0.6136
18667TIP3    H177492   2.869   1.559  11.180 -0.7782  0.2808 -0.6020
18667TIP3    H277493   2.790   1.430  11.190 -0.8752  0.3697 -0.2067
18668TIP3   OH277494   2.593   1.170   0.324  0.0113 -0.7079  0.1995
18668TIP3    H177495   2.680   1.172   0.362 -0.1724 -2.7058  0.8360
18668TIP3    H277496   2.535   1.148   0.397 -0.6181 -2.4636 -0.7628
18669TIP3   OH277497   3.157   4.882  12.968  0.0267  0.3993 -0.0350
18669TIP3    H177498   3.142   4.798  12.925 -0.4270  0.2309  0.4411
18669TIP3    H277499   3.207   4.860  13.047 -3.4943 -0.0231  2.3201
18670TIP3   OH277500   6.048   3.733  15.130  0.3111  0.1131  0.0418
18670TIP3    H177501   5.995   3.781  15.067  0.7637 -1.0790 -1.2880
18670TIP3    H277502   6.067   3.797  15.199  0.8255  1.8214 -1.6100
18671TIP3   OH277503   2.334   5.638   4.372  0.0636 -0.1280  0.5638
18671TIP3    H177504   2.255   5.690   4.387 -0.7916 -1.5859  1.4249
18671TIP3    H277505   2.357   5.655   4.281 -0.2163  1.6598  0.7914
18672TIP3   OH277506   6.771   0.179  14.944  0.3310 -0.2259  0.4860
18672TIP3    H177507   6.775   0.111  15.011  0.6735 -1.0647 -0.3592
18672TIP3    H277508   6.687   0.164  14.900 -1.3079  2.1370  2.5366
18673TIP3   OH277509   3.160   4.756  14.949 -0.1336 -0.1450  0.1149
18673TIP3    H177510   3.142   4.818  15.020 -1.0295 -0.6460  0.3417
18673TIP3    H277511   3.215   4.805  14.888 -0.6911  0.8214  0.3629
18674TIP3   OH277512   5.149   4.658  13.174 -0.3145 -0.3004 -0.2447
18674TIP3    H177513   5.223   4.599  13.188 -1.6457 -1.8625  0.4710
18674TIP3    H277514   5.180   4.720  13.107  1.5490 -1.0177 -0.1063
18675TIP3   OH277515   1.091   4.025   2.721 -0.4371 -0.1248  0.7970
18675TIP3    H177516   1.113   4.036   2.814  0.1149 -0.1049  0.6683
18675TIP3    H277517   1.073   3.932   2.711  0.0452 -0.2184  0.8091
18676TIP3   OH277518   2.677   5.103  12.948  0.0585  0.2277 -0.1920
18676TIP3    H177519   2.692   5.192  12.916  1.7365 -0.5676 -1.8122
18676TIP3    H277520   2.755   5.082  12.999  0.8083 -1.0627 -1.7585
18677TIP3   OH277521   4.403   0.303  17.191  0.2124 -0.2089 -0.4888
18677TIP3    H177522   4.382   0.213  17.214 -1.7939 -0.2129 -2.0463
18677TIP3    H277523   4.332   0.355  17.228  1.0613  0.6904 -0.0626
18678TIP3   OH277524   6.779   0.465  17.081 -0.2547  0.6737  0.0412
18678TIP3    H177525   6.726   0.449  17.004 -0.4634  1.2046  0.0659
18678TIP3    H277526   6.833   0.386  17.091 -0.8449  0.2455 -0.1357
18679TIP3   OH277527   4.466   3.000   5.709  0.6778 -0.1037  0.1980
18679TIP3    H177528   4.419   3.071   5.753  0.2574  0.3058 -0.8721
18679TIP3    H277529   4.397   2.941   5.679  1.0069 -0.7979  0.7901
18680TIP3   OH277530   6.074   5.576   5.752  0.0073  0.9178  0.2700
18680TIP3    H177531   5.985   5.574   5.785 -0.7778  0.5787 -1.7352
18680TIP3    H277532   6.092   5.485   5.726  0.9766  0.9583  0.7547
18681TIP3   OH277533   6.013   2.417   3.211  0.4441  0.0836  0.3862
18681TIP3    H177534   6.040   2.493   3.262  0.1601  0.5861 -0.2110
18681TIP3    H277535   5.918   2.417   3.216  0.4403 -0.2094  0.3462
18682TIP3   OH277536   5.250   2.267  14.695  0.1320 -0.0893 -0.9530
18682TIP3    H177537   5.205   2.206  14.637  1.0270 -1.2363 -0.4950
18682TIP3    H277538   5.343   2.252  14.677  0.3770  0.8400 -0.5123
18683TIP3   OH277539   0.825   1.187   1.208  0.0957 -0.2031 -0.3415
18683TIP3    H177540   0.781   1.104   1.225 -0.1700 -0.0349 -0.2194
18683TIP3    H277541   0.866   1.210   1.292  0.4783 -0.3917 -0.4703
18684TIP3   OH277542   2.536   3.309  13.310 -0.5250 -0.0706 -0.1791
18684TIP3    H177543   2.597   3.262  13.253 -1.9097 -0.8759 -1.0518
18684TIP3    H277544   2.457   3.254  13.311 -1.4492  1.2229  0.4529
18685TIP3   OH277545   0.826   0.574   2.934 -0.8165  0.1681  0.2683
18685TIP3    H177546   0.838   0.481   2.954 -0.1711  0.0210 -0.6944
18685TIP3    H277547   0.758   0.576   2.867 -2.9697  0.6488  2.3592
18686TIP3   OH277548   6.333   5.327  15.608  0.2460 -0.3047  0.1300
18686TIP3    H177549   6.253   5.298  15.653  0.4620 -0.6978  0.2604
18686TIP3    H277550   6.307   5.335  15.516  0.1942 -0.9386  0.0895
18687TIP3   OH277551   5.844   3.968  14.629  0.2940 -0.5943  0.2678
18687TIP3    H177552   5.766   3.926  14.594 -0.2340  0.9590 -0.5332
18687TIP3    H277553   5.819   4.060  14.639  1.0432 -0.6046  2.9653
18688TIP3   OH277554   3.055   1.232  15.164  0.2122  0.6673 -0.1184
18688TIP3    H177555   3.016   1.209  15.248  0.1120 -0.4606 -0.4516
18688TIP3    H277556   2.982   1.260  15.110  0.1863  0.7716 -0.0293
18689TIP3   OH277557   0.924   2.861   5.079  0.2392 -0.0831  0.5538
18689TIP3    H177558   0.906   2.768   5.084 -2.1829  0.3516  1.3140
18689TIP3    H277559   0.846   2.903   5.115  0.1497  2.3212 -2.0714
18690TIP3   OH277560   3.183   2.364  10.704  0.4173 -0.4368  0.6826
18690TIP3    H177561   3.217   2.432  10.762  1.6403 -0.0449 -0.4415
18690TIP3    H277562   3.207   2.281  10.747  0.1985 -0.1691  1.3363
18691TIP3   OH277563   3.607   3.278   3.834  0.5775 -0.1621  0.0235
18691TIP3    H177564   3.524   3.233   3.813  0.7294 -0.4438  0.0159
18691TIP3    H277565   3.657   3.212   3.883  0.6130  0.1617  0.4257
18692TIP3   OH277566   5.511   2.051  12.355 -0.1360 -0.8115  0.1659
18692TIP3    H177567   5.497   2.034  12.262 -1.5028  1.4732 -0.1369
18692TIP3    H277568   5.443   2.000  12.399  0.7948 -2.2453 -0.0237
18693TIP3   OH277569   6.369   6.380  10.659 -0.0127  0.1129 -0.2262
18693TIP3    H177570   6.277   6.384  10.683 -0.4065 -1.5700 -1.2910
18693TIP3    H277571   6.411   6.334  10.732 -0.1638  0.1630 -0.1075
18694TIP3   OH277572   0.450   1.253  12.313 -0.5502  0.5206  0.3540
18694TIP3    H177573   0.514   1.242  12.243 -0.9103 -0.3039  0.1434
18694TIP3    H277574   0.486   1.202  12.386 -0.6468  0.5948  0.4545
18695TIP3   OH277575   0.151   0.231  14.395 -0.2116 -0.2891  0.3061
18695TIP3    H177576   0.075   0.174  14.401  1.0391 -1.9557  0.8524
18695TIP3    H277577   0.184   0.218  14.306  0.2176 -0.6155  0.5110
18696TIP3   OH277578   4.819   1.515  13.304  0.3732  0.3186 -0.2496
18696TIP3    H177579   4.889   1.510  13.370  0.2216  0.1133 -0.1029
18696TIP3    H277580   4.745   1.469  13.344  0.6956 -0.9815 -1.0895
18697TIP3   OH277581   4.068   5.000  16.176  0.0785 -0.2430  0.2415
18697TIP3    H177582   4.060   5.067  16.243  1.3135  1.9489 -1.6461
18697TIP3    H277583   4.157   4.965  16.187  0.9621  1.3790 -1.2301
18698TIP3   OH277584   1.151   3.717   4.420  0.0802  0.2183  0.0281
18698TIP3    H177585   1.102   3.794   4.389 -0.2721  0.8084  1.9444
18698TIP3    H277586   1.239   3.729   4.385  0.4389  2.2939  1.4998
18699TIP3   OH277587   0.490   1.973  13.003  0.0520 -0.4727 -0.4524
18699TIP3    H177588   0.582   1.999  12.994 -0.4695  1.2905 -1.0428
18699TIP3    H277589   0.441   2.055  12.997 -1.5886 -1.4081 -0.4108
18700TIP3   OH277590   0.535   5.977  15.553  0.6270 -0.2607 -0.2075
18700TIP3    H177591   0.546   5.975  15.458  0.9127 -3.0445 -0.1906
18700TIP3    H277592   0.453   5.931  15.569  0.8735 -0.3395  0.9245
18701TIP3   OH277593   5.074   1.627  13.894  0.3418  0.0805  0.7537
18701TIP3    H177594   5.105   1.716  13.877  2.5455 -0.4214  1.7652
18701TIP3    H277595   5.018   1.636  13.971  0.1419  0.6719  0.5435
18702TIP3   OH277596   5.272   2.290  16.727 -0.3562  0.5308 -0.2346
18702TIP3    H177597   5.194   2.268  16.676  0.1472 -1.0771 -0.3662
18702TIP3    H277598   5.241   2.352  16.793 -1.8013 -0.2953 -0.1076
18703TIP3   OH277599   1.190   4.746  14.310 -0.0598 -0.2457 -0.4911
18703TIP3    H177600   1.109   4.711  14.348 -0.7727 -0.9095 -2.4843
18703TIP3    H277601   1.242   4.773  14.386 -2.0935  0.1230  0.8605
18704TIP3   OH277602   5.345   4.802   3.862 -0.1103 -0.0449  0.4851
18704TIP3    H177603   5.426   4.791   3.910  0.1203  0.7525  0.2973
18704TIP3    H277604   5.368   4.783   3.771 -0.5282 -1.4767  0.6509
18705TIP3   OH277605   5.663   0.548  11.996  0.5699  0.6336 -0.6619
18705TIP3    H177606   5.630   0.620  11.942  0.4108  0.9358 -0.1701
18705TIP3    H277607   5.650   0.577  12.086  0.2166 -0.1436 -0.4514
18706TIP3   OH277608   2.691   2.450  10.687  0.4232 -0.2990  0.1872
18706TIP3    H177609   2.768   2.477  10.636  0.2767 -0.0455  0.0993
18706TIP3    H277610   2.689   2.355  10.679  1.3262 -0.4159  1.0325
18707TIP3   OH277611   4.648   5.012  16.597 -0.1165 -0.6495  0.1954
18707TIP3    H177612   4.641   5.104  16.570  1.8832 -0.8768 -1.3079
18707TIP3    H277613   4.615   5.012  16.687 -0.0955  1.5456  0.2745
18708TIP3   OH277614   4.788   5.234   0.467 -0.0263  0.3975 -0.0743
18708TIP3    H177615   4.841   5.244   0.388  0.8736 -0.7484  0.3444
18708TIP3    H277616   4.802   5.315   0.516  2.2167 -0.2630  0.5019
18709TIP3   OH277617   3.145   4.153   3.296  0.2676  0.0036 -0.1653
18709TIP3    H177618   3.202   4.151   3.373  0.5598  1.0305 -0.3349
18709TIP3    H277619   3.087   4.078   3.307  0.0292  0.3705  1.2710
18710TIP3   OH277620   1.996   5.737  10.874 -0.4340  0.1213  0.5882
18710TIP3    H177621   1.940   5.690  10.812 -1.1997  0.5943  0.9144
18710TIP3    H277622   2.083   5.732  10.835 -0.4432 -1.7214  0.6937
18711TIP3   OH277623   5.240   4.811   3.083  0.4263 -0.0694  0.1049
18711TIP3    H177624   5.237   4.906   3.074  0.6828  0.0229  0.9274
18711TIP3    H277625   5.196   4.778   3.005  0.8839  0.7095 -0.4983
18712TIP3   OH277626   1.293   2.446  13.503 -0.0492  0.1179 -0.3923
18712TIP3    H177627   1.308   2.535  13.536 -1.3190  0.3622 -0.4067
18712TIP3    H277628   1.270   2.395  13.581 -0.0105 -0.0292 -0.4764
18713TIP3   OH277629   5.019   4.236  15.835 -0.4115  0.4653 -0.1284
18713TIP3    H177630   5.111   4.262  15.839 -0.4428  1.3188 -2.8580
18713TIP3    H277631   5.008   4.202  15.746 -2.7861  0.5615  0.0658
18714TIP3   OH277632   6.739   3.100   1.690 -0.1214  0.0224 -0.0395
18714TIP3    H177633   6.712   3.191   1.678  0.1075 -0.0318 -1.0787
18714TIP3    H277634   6.835   3.103   1.689 -0.0847 -0.4332 -2.0438
18715TIP3   OH277635   2.590   6.687   0.288  0.1632  0.7454  0.1017
18715TIP3    H177636   2.656   6.634   0.245 -0.3208  0.8568 -0.7946
18715TIP3    H277637   2.618   6.778   0.271 -0.3897  0.7979 -0.5753
18716TIP3   OH277638   4.810   5.116   4.915  0.1505  1.0313 -0.2440
18716TIP3    H177639   4.884   5.165   4.951  0.6506  0.2355 -0.1783
18716TIP3    H277640   4.741   5.126   4.981  1.0575 -0.4137  1.0063
18717TIP3   OH277641   5.532   1.721  16.719  0.5652  0.1274 -0.4072
18717TIP3    H177642   5.598   1.652  16.716  2.3176  1.7520 -1.7568
18717TIP3    H277643   5.579   1.800  16.694 -1.5126  1.7176  0.4200
18718TIP3   OH277644   6.108   5.875  13.030  0.6490  0.0466 -0.0745
18718TIP3    H177645   6.075   5.949  13.081  0.6948 -1.1133  1.7316
18718TIP3    H277646   6.167   5.915  12.966  1.3055  1.5096  1.3753
18719TIP3   OH277647   4.443   1.504  16.766 -0.2274 -0.6081 -0.4543
18719TIP3    H177648   4.483   1.433  16.715 -0.0793 -1.0983  0.3270
18719TIP3    H277649   4.350   1.482  16.770 -0.7146  0.7792 -2.6725
18720TIP3   OH277650   2.203   4.069  15.149 -0.0128  0.2429  0.1885
18720TIP3    H177651   2.276   4.012  15.175 -0.3495 -0.0159  0.5635
18720TIP3    H277652   2.150   4.078  15.228 -1.2286 -0.8274 -0.4860
18721TIP3   OH277653   1.245   4.762   3.902  0.3879 -0.3495 -0.0604
18721TIP3    H177654   1.256   4.688   3.961 -2.4014 -0.6360  0.2260
18721TIP3    H277655   1.233   4.837   3.960  0.9090 -0.0562 -0.3240
18722TIP3   OH277656   4.642   5.112   2.092 -0.1824  0.3864  0.1174
18722TIP3    H177657   4.575   5.142   2.030  1.0427 -2.8425 -3.1382
18722TIP3    H277658   4.622   5.020   2.105  2.1663 -0.0302  1.0886
18723TIP3   OH277659   3.497   1.590  15.763  0.5579  0.2684  0.4813
18723TIP3    H177660   3.501   1.613  15.855  1.5523  2.1008  0.0241
18723TIP3    H277661   3.449   1.662  15.722  0.4432 -0.3377 -0.4877
18724TIP3   OH277662   1.116   2.261  11.629 -0.0170  0.5857  0.5499
18724TIP3    H177663   1.070   2.183  11.661 -1.6539 -0.1397 -3.0393
18724TIP3    H277664   1.075   2.333  11.676  0.1873 -0.5341  2.5520
18725TIP3   OH277665   5.121   4.067  11.404  0.0547  0.3353  0.3215
18725TIP3    H177666   5.131   4.158  11.432 -0.5576  0.1049  1.3216
18725TIP3    H277667   5.206   4.027  11.420  0.0579  0.5052  0.7210
18726TIP3   OH277668   6.819   1.731   1.947  0.1684  0.0443  0.0806
18726TIP3    H177669   6.822   1.708   2.040  0.3177 -0.6809 -0.0934
18726TIP3    H277670   6.844   1.824   1.944  1.9310 -0.3634  0.6257
18727TIP3   OH277671   0.776   6.481   6.016  0.7529  0.5799 -0.2789
18727TIP3    H177672   0.854   6.425   6.010  0.6408  0.4031 -0.0956
18727TIP3    H277673   0.705   6.420   6.035  0.7206  0.8490  0.4920
18728TIP3   OH277674   1.967   3.129  12.951 -0.1652 -0.3436  0.2267
18728TIP3    H177675   2.030   3.058  12.934 -0.1085  0.0820 -1.6302
18728TIP3    H277676   1.884   3.094  12.919 -0.4081 -0.0714  0.5658
18729TIP3   OH277677   0.992   6.693  16.113  0.1489  0.3735 -0.4855
18729TIP3    H177678   1.058   6.739  16.061  0.9052 -0.6414 -0.4589
18729TIP3    H277679   1.040   6.662  16.190 -0.6365  0.6513  0.1269
18730TIP3   OH277680   1.056   2.207  13.176 -0.3983 -0.1074  0.5229
18730TIP3    H177681   1.149   2.191  13.160 -0.5023  0.0792 -0.3348
18730TIP3    H277682   1.013   2.124  13.155 -0.4748 -0.0342  0.3815
18731TIP3   OH277683   2.451   6.256  16.189  0.0879  0.5745  0.3561
18731TIP3    H177684   2.419   6.293  16.272 -1.2200  0.7552 -0.2020
18731TIP3    H277685   2.484   6.331  16.140 -0.6141  0.7092  0.0783
18732TIP3   OH277686   3.644   2.026   1.674 -0.2475 -0.0769 -0.0060
18732TIP3    H177687   3.630   2.114   1.707  1.7682  0.3554 -0.1576
18732TIP3    H277688   3.558   1.984   1.678 -1.1884  1.8029  0.2948
18733TIP3   OH277689   5.288   1.408   2.511 -0.5106 -0.8289  0.2817
18733TIP3    H177690   5.270   1.425   2.419  0.5542  0.4994  0.2967
18733TIP3    H277691   5.202   1.412   2.553 -0.7533  0.9511 -0.3019
18734TIP3   OH277692   6.234   5.561  15.053  0.5285  0.3025  0.4895
18734TIP3    H177693   6.147   5.598  15.039 -0.3034 -1.6519  0.1928
18734TIP3    H277694   6.294   5.624  15.012 -0.7687  1.4353  0.2644
18735TIP3   OH277695   0.062   0.442  15.054  0.8438  0.2529  0.4427
18735TIP3    H177696   0.140   0.444  14.999 -0.8589  0.2969 -2.1279
18735TIP3    H277697   0.021   0.358  15.034 -0.6797  0.9806  0.3888
18736TIP3   OH277698   2.826   6.160  12.526  0.3481 -0.7666 -0.6647
18736TIP3    H177699   2.793   6.168  12.436 -0.3296  1.4453 -0.2745
18736TIP3    H277700   2.774   6.222  12.576  1.9032 -0.6841  0.9256
18737TIP3   OH277701   3.016   5.388  11.348  0.2556  0.1269 -0.4762
18737TIP3    H177702   3.074   5.312  11.350 -0.6427 -0.6061 -1.2850
18737TIP3    H277703   3.054   5.449  11.410  0.9574 -1.0198  0.2505
18738TIP3   OH277704   6.018   2.101   0.093  0.5637  0.4060 -0.2126
18738TIP3    H177705   6.108   2.111   0.064  1.0754 -0.7762  0.8556
18738TIP3    H277706   6.025   2.057   0.178 -0.9901  0.8551  0.1805
18739TIP3   OH277707   3.324   4.662   0.533  0.7000  0.3058 -0.5218
18739TIP3    H177708   3.369   4.602   0.593  0.0846  1.2325  0.9132
18739TIP3    H277709   3.355   4.637   0.446  2.5940 -0.2534  0.2739
18740TIP3   OH277710   1.456   0.602  13.426  0.8774  0.0915  0.8160
18740TIP3    H177711   1.467   0.671  13.492  0.3419  0.6315  0.3458
18740TIP3    H277712   1.485   0.642  13.344 -2.1261  0.7630 -0.0331
18741TIP3   OH277713   0.228   2.928   4.416 -0.3672  0.2403  0.3005
18741TIP3    H177714   0.276   2.845   4.422 -2.4944 -1.2218 -1.2378
18741TIP3    H277715   0.220   2.959   4.506  0.2883 -1.3363  0.9305
18742TIP3   OH277716   5.927   0.731  10.843 -0.2542  0.2663  0.3033
18742TIP3    H177717   5.869   0.765  10.774  1.6683  1.0783 -0.9812
18742TIP3    H277718   5.983   0.667  10.799 -1.1207 -1.6734  1.8569
18743TIP3   OH277719   3.785   1.354  13.115  0.1812 -0.2645  0.3597
18743TIP3    H177720   3.741   1.274  13.142 -0.9751 -0.8725 -2.9076
18743TIP3    H277721   3.718   1.423  13.123  0.0722 -0.3048 -0.1837
18744TIP3   OH277722   1.140   4.772   2.770 -0.2842 -0.0270  0.2503
18744TIP3    H177723   1.203   4.843   2.752  0.1318 -0.6349 -0.8518
18744TIP3    H277724   1.160   4.744   2.859  0.9766 -0.1542 -0.0518
18745TIP3   OH277725   3.961   0.664  12.584  0.4906 -0.1825 -0.4570
18745TIP3    H177726   3.890   0.607  12.555  1.2971 -0.5646 -1.7462
18745TIP3    H277727   4.041   0.612  12.571  1.0466  0.3663  0.6366
18746TIP3   OH277728   4.501   5.715  14.620  0.1916  0.0454  0.4707
18746TIP3    H177729   4.505   5.624  14.591 -1.3139 -0.4789  1.7723
18746TIP3    H277730   4.591   5.747  14.611  0.3988 -0.9966 -1.6812
18747TIP3   OH277731   3.108   0.310  14.954  0.3858 -0.1978 -0.5610
18747TIP3    H177732   3.130   0.382  14.895  1.4817  1.0521  1.2892
18747TIP3    H277733   3.153   0.234  14.917  0.3601  0.3505 -1.7731
18748TIP3   OH277734   5.369   0.873   4.692  0.8289  0.2317 -0.1658
18748TIP3    H177735   5.309   0.804   4.665  1.0236  0.1417 -0.3675
18748TIP3    H277736   5.358   0.942   4.626  1.3213  0.0025 -0.4903
18749TIP3   OH277737   4.626   4.772  15.378 -0.5905  0.1884 -0.3364
18749TIP3    H177738   4.638   4.826  15.300  0.8355 -0.5463 -0.6686
18749TIP3    H277739   4.679   4.694  15.361 -0.1629  0.0603  1.4305
18750TIP3   OH277740   5.394   4.683   3.621  0.6464  0.2454  0.2111
18750TIP3    H177741   5.461   4.615   3.628  0.9347  0.4553 -0.4937
18750TIP3    H277742   5.379   4.693   3.527 -1.4548 -0.8508  0.3820
18751TIP3   OH277743   3.765   4.961  12.676  0.3638  0.0411 -0.4014
18751TIP3    H177744   3.715   4.958  12.594  1.0085  1.0170 -0.8415
18751TIP3    H277745   3.755   4.873  12.713 -0.0323 -0.3786 -1.4663
18752TIP3   OH277746   5.525   3.849  15.725  0.3655 -0.5589  0.0135
18752TIP3    H177747   5.430   3.842  15.727  0.4191 -4.0018 -1.4097
18752TIP3    H277748   5.546   3.852  15.631  1.6722  0.8590  0.3177
18753TIP3   OH277749   4.202   2.815  15.323 -0.6480 -0.9729 -0.0198
18753TIP3    H177750   4.219   2.808  15.229 -1.4544 -0.7316 -0.1863
18753TIP3    H277751   4.249   2.894  15.350  2.2276 -2.6788  0.4213
18754TIP3   OH277752   4.717   3.448   1.690 -0.0572 -0.2636  0.5609
18754TIP3    H177753   4.697   3.390   1.763 -0.9712  0.2212  0.7121
18754TIP3    H277754   4.780   3.511   1.726  0.2239 -0.5946  0.6539
18755TIP3   OH277755   0.255   0.491  12.292 -1.2144 -0.1112  0.3769
18755TIP3    H177756   0.246   0.533  12.206 -0.8319  1.2838  0.9758
18755TIP3    H277757   0.306   0.412  12.276 -0.4163  0.5752 -0.5605
18756TIP3   OH277758   1.347   1.283  14.703 -0.6457 -0.0326  0.1673
18756TIP3    H177759   1.264   1.269  14.657 -1.0650  0.6323  0.7084
18756TIP3    H277760   1.410   1.229  14.656 -0.6182  2.0555 -2.4240
18757TIP3   OH277761   3.263   5.402  15.452  0.1964  0.0198  0.3496
18757TIP3    H177762   3.297   5.313  15.443  0.8819  0.3020  0.0710
18757TIP3    H277763   3.201   5.412  15.380  0.6006 -0.0131 -0.0018
18758TIP3   OH277764   6.697   0.341  12.730 -0.0332  0.5003 -0.2360
18758TIP3    H177765   6.603   0.336  12.713 -0.0461 -0.4032  0.0669
18758TIP3    H277766   6.735   0.372  12.647 -0.2938 -1.9543 -1.3570
18759TIP3   OH277767   4.277   5.186  12.068  0.6102 -0.4378  0.1002
18759TIP3    H177768   4.331   5.263  12.052  0.0775 -0.1686 -0.4470
18759TIP3    H277769   4.233   5.203  12.151 -0.6834  0.5418 -0.7614
18760TIP3   OH277770   3.078   2.623   6.289  0.6919 -0.2089  0.0514
18760TIP3    H177771   2.989   2.658   6.287 -0.9929 -3.8928  1.9840
18760TIP3    H277772   3.131   2.696   6.324 -1.3483  2.2498 -1.6212
18761TIP3   OH277773   6.566   6.022   4.474 -0.2716  0.0615  0.3117
18761TIP3    H177774   6.523   6.013   4.389  0.3082 -0.8239  0.1070
18761TIP3    H277775   6.577   6.117   4.485  0.2413  0.1568 -0.8965
18762TIP3   OH277776   1.961   6.671  12.013  0.1265 -0.4570  0.2959
18762TIP3    H177777   1.947   6.582  12.046 -0.7304 -0.9118 -1.2120
18762TIP3    H277778   1.993   6.659  11.924  0.9351  0.7453  0.4080
18763TIP3   OH277779   2.556   0.282  15.348  0.4345 -0.5997  0.3418
18763TIP3    H177780   2.600   0.209  15.303  0.3479 -0.8331  0.6357
18763TIP3    H277781   2.466   0.278  15.316  1.0489  1.1171 -1.8349
18764TIP3   OH277782   1.392   6.265  14.344 -0.0926 -0.4620  0.3733
18764TIP3    H177783   1.442   6.319  14.405 -2.0810 -0.4390  2.1043
18764TIP3    H277784   1.436   6.276  14.260  0.5219  2.5964  0.9869
18765TIP3   OH277785   0.766   0.554   2.370  0.5412  0.0353  0.2521
18765TIP3    H177786   0.744   0.556   2.277  0.2288  0.3919  0.3295
18765TIP3    H277787   0.857   0.525   2.373 -0.0931 -2.1433 -0.0542
18766TIP3   OH277788   0.310   3.635   2.411  0.2648 -0.4770 -0.2965
18766TIP3    H177789   0.287   3.726   2.391  1.1524 -0.0112  0.6997
18766TIP3    H277790   0.332   3.597   2.326  0.5324  0.4325 -0.6516
18767TIP3   OH277791   1.433   6.597   0.672  0.1483 -0.6876  0.2274
18767TIP3    H177792   1.477   6.616   0.590  0.3425 -1.3624  0.1654
18767TIP3    H277793   1.504   6.576   0.733  0.1006  1.1292  0.9519
18768TIP3   OH277794   4.418   1.941   1.572 -0.0166 -0.0895 -0.3443
18768TIP3    H177795   4.480   1.991   1.518 -1.5842  0.7940 -1.4306
18768TIP3    H277796   4.461   1.857   1.587  1.5616  0.6052 -0.7824
18769TIP3   OH277797   0.195   5.919  14.867  0.2369 -0.2721 -0.3721
18769TIP3    H177798   0.208   5.948  14.776  0.1249  0.3659 -0.1878
18769TIP3    H277799   0.106   5.948  14.888  0.9237  1.2431  0.5570
18770TIP3   OH277800   5.760   6.343   6.133 -0.3724  0.4338  0.3361
18770TIP3    H177801   5.751   6.311   6.223 -2.4379  1.5921  0.6188
18770TIP3    H277802   5.676   6.385   6.114  1.1100  3.0586 -1.0138
18771TIP3   OH277803   0.679   0.256   2.003  0.3252  0.3908 -0.3985
18771TIP3    H177804   0.659   0.304   1.923  0.3185  0.2252 -0.4974
18771TIP3    H277805   0.628   0.175   1.996 -0.6103  0.8941  0.3311
18772TIP3   OH277806   1.923   0.753  14.327  0.3302 -0.0426  0.1676
18772TIP3    H177807   1.940   0.799  14.408 -0.8063 -0.2187  0.5276
18772TIP3    H277808   1.828   0.752  14.319  0.4325  0.8025 -1.6557
18773TIP3   OH277809   6.437   2.892   2.310  0.3265  0.2797 -0.0317
18773TIP3    H177810   6.376   2.852   2.372 -0.1908  2.1973  0.7764
18773TIP3    H277811   6.441   2.831   2.237  0.0579 -1.4935  1.3683
18774TIP3   OH277812   3.459   6.089  11.465 -0.1142 -0.5543 -0.3966
18774TIP3    H177813   3.520   6.133  11.405 -0.1986  2.1875  1.3823
18774TIP3    H277814   3.376   6.089  11.418 -0.1012  1.2318 -0.4864
18775TIP3   OH277815   5.773   3.195   2.325  0.4530  0.6792  0.0818
18775TIP3    H177816   5.693   3.195   2.377  1.1023 -0.2365  1.1269
18775TIP3    H277817   5.822   3.119   2.357  1.5186  0.9437 -0.8747
18776TIP3   OH277818   0.485   2.714   3.165 -0.1815  0.3791 -0.1310
18776TIP3    H177819   0.550   2.745   3.229 -0.8678  3.0002 -0.5813
18776TIP3    H277820   0.455   2.630   3.200  1.6425  0.2927  1.3779
18777TIP3   OH277821   1.590   4.514   5.647  0.3577 -0.0479 -0.3594
18777TIP3    H177822   1.622   4.467   5.569  3.1729  0.2661  0.4925
18777TIP3    H277823   1.535   4.584   5.611  2.9377  1.1699 -2.3210
18778TIP3   OH277824   3.520   3.309   2.146  0.1782  0.3279 -0.1774
18778TIP3    H177825   3.459   3.238   2.164 -0.2805  0.9716  0.9060
18778TIP3    H277826   3.563   3.327   2.230 -0.0717  1.6412 -0.2975
18779TIP3   OH277827   3.064   3.199   5.551  0.2088  0.0036  0.0445
18779TIP3    H177828   3.151   3.228   5.521  0.0655  0.7356  0.3127
18779TIP3    H277829   3.008   3.275   5.537 -0.6576 -0.8295 -1.2110
18780TIP3   OH277830   3.440   0.630   1.066  0.5203 -0.2048  0.0077
18780TIP3    H177831   3.420   0.718   1.032 -0.8171  0.4470  2.2395
18780TIP3    H277832   3.509   0.645   1.131  1.0051 -0.9886 -0.3135
18781TIP3   OH277833   1.980   2.839  16.795 -0.1893 -0.0452 -0.0861
18781TIP3    H177834   1.895   2.844  16.839  0.0164 -0.5530  0.3836
18781TIP3    H277835   1.987   2.748  16.767  0.9262 -0.4529  1.3719
18782TIP3   OH277836   6.791   2.917   2.695  0.3038 -0.2578 -0.0950
18782TIP3    H177837   6.796   2.941   2.603 -3.3032  1.2041 -0.0574
18782TIP3    H277838   6.761   2.826   2.695 -2.3335  0.5282 -0.5196
18783TIP3   OH277839   1.603   0.129  10.862  0.2298 -0.1076  0.0929
18783TIP3    H177840   1.564   0.212  10.835  1.7809  0.8003  0.4581
18783TIP3    H277841   1.563   0.063  10.805 -1.0115  0.8958 -0.2278
18784TIP3   OH277842   2.212   3.427  13.996  0.2523 -0.0332  0.0874
18784TIP3    H177843   2.142   3.445  13.934 -1.3044  1.1924  2.0743
18784TIP3    H277844   2.198   3.337  14.024  0.6784 -0.4322 -0.9228
18785TIP3   OH277845   5.122   5.820   1.100 -0.6339  0.0782  0.2924
18785TIP3    H177846   5.111   5.858   1.013 -0.2720 -0.4403  0.0217
18785TIP3    H277847   5.212   5.842   1.125 -0.1608 -1.2594 -0.1900
18786TIP3   OH277848   0.293   4.108   0.524  0.6146  0.6112 -0.1432
18786TIP3    H177849   0.341   4.144   0.599  1.6638 -0.2290 -0.3850
18786TIP3    H277850   0.309   4.014   0.529 -0.5520  0.3792 -0.5746
18787TIP3   OH277851   4.298   2.330   3.797 -0.2416  0.9025  0.1076
18787TIP3    H177852   4.383   2.372   3.813 -0.0671  0.3906  0.5569
18787TIP3    H277853   4.262   2.317   3.885  0.0479 -0.5856  0.0199
18788TIP3   OH277854   3.393   5.648   3.889 -0.0536  0.6597  0.0722
18788TIP3    H177855   3.410   5.728   3.838 -1.0809  1.2926  0.7027
18788TIP3    H277856   3.398   5.578   3.825  0.6693  1.2392 -0.5336
18789TIP3   OH277857   0.639   2.378   6.585  0.4427  0.0384 -0.2404
18789TIP3    H177858   0.569   2.441   6.567  0.3664  0.0107 -0.0497
18789TIP3    H277859   0.710   2.402   6.525  0.1982 -0.0530 -0.5661
18790TIP3   OH277860   1.665   6.752   2.841 -0.4200  0.1240 -0.2153
18790TIP3    H177861   1.579   6.733   2.806 -0.1918 -1.1431 -0.1101
18790TIP3    H277862   1.679   6.845   2.821 -1.9879  0.4741  0.1915
18791TIP3   OH277863   5.749   4.024   2.552  0.2463 -0.3443 -0.1024
18791TIP3    H177864   5.749   4.119   2.564  0.3165 -0.4708  0.9634
18791TIP3    H277865   5.800   3.990   2.626  1.0550 -1.1542 -1.0056
18792TIP3   OH277866   1.398   5.089  13.685  0.0386 -0.0118 -0.0562
18792TIP3    H177867   1.364   5.150  13.751 -1.5974 -0.6480 -0.2764
18792TIP3    H277868   1.320   5.056  13.640  1.0024 -1.0599 -1.0136
18793TIP3   OH277869   1.937   3.610   5.556  0.3424  0.0813  0.3042
18793TIP3    H177870   1.942   3.701   5.586 -1.2203  0.4856 -0.5636
18793TIP3    H277871   1.970   3.613   5.466  0.5579 -0.2604  0.3726
18794TIP3   OH277872   6.705   2.051   3.688 -0.0949 -0.4960 -0.1417
18794TIP3    H177873   6.700   1.994   3.611 -0.3053  0.3133 -0.7358
18794TIP3    H277874   6.798   2.073   3.696  0.1894 -1.8777  0.8215
18795TIP3   OH277875   0.473   1.469  17.208 -0.2991 -0.6837 -0.5318
18795TIP3    H177876   0.456   1.447  17.116 -3.9470 -0.0438 -0.1690
18795TIP3    H277877   0.427   1.402  17.257  0.7546 -0.4252  0.8621
18796TIP3   OH277878   6.166   0.106   3.036  0.1078 -0.3422 -0.1392
18796TIP3    H177879   6.194   0.064   2.955 -0.7438 -1.4945  0.1378
18796TIP3    H277880   6.077   0.137   3.017 -0.1674 -0.7879  0.4059
18797TIP3   OH277881   5.129   1.336  15.367 -0.0495 -0.5159  0.2747
18797TIP3    H177882   5.038   1.361  15.353 -0.5120 -1.9665  0.5541
18797TIP3    H277883   5.176   1.379  15.296 -1.0422 -0.2234 -0.2288
18798TIP3   OH277884   4.733   1.905  11.414 -0.1497 -0.1540 -0.4206
18798TIP3    H177885   4.715   1.943  11.328 -0.4801  1.5219  0.3427
18798TIP3    H277886   4.673   1.950  11.473  0.0370 -1.3167  0.6924
18799TIP3   OH277887   6.497   6.697   2.596 -0.4665 -0.4823 -0.1079
18799TIP3    H177888   6.565   6.718   2.532 -2.2731 -1.1547 -2.3762
18799TIP3    H277889   6.476   6.782   2.637  0.6800 -0.0307 -0.4139
18800TIP3   OH277890   3.213   5.923  15.176 -0.0748 -0.1870 -0.1512
18800TIP3    H177891   3.156   5.966  15.240  2.1771  1.9514  0.5716
18800TIP3    H277892   3.228   5.835  15.212  0.1009  0.5270  1.6111
18801TIP3   OH277893   3.071   3.188   2.902 -0.4125  0.3137 -0.0752
18801TIP3    H177894   3.069   3.178   2.807  3.8908  1.3097 -0.4857
18801TIP3    H277895   3.086   3.100   2.935  3.8747  0.4537 -1.0007
18802TIP3   OH277896   1.162   2.262   4.693 -0.1536 -0.2963 -0.1643
18802TIP3    H177897   1.237   2.206   4.712  0.0253  0.5572  1.8551
18802TIP3    H277898   1.123   2.224   4.613  1.2669 -1.8968 -0.1426
18803TIP3   OH277899   1.371   2.274   3.631  0.1229  0.6536 -0.2999
18803TIP3    H177900   1.305   2.233   3.574  0.4740 -0.7381  0.2439
18803TIP3    H277901   1.389   2.207   3.697  0.5412  1.8192  0.7943
18804TIP3   OH277902   5.640   5.718  10.408  0.8279  0.2037 -0.2724
18804TIP3    H177903   5.635   5.688  10.317  1.8732 -0.1647 -0.2209
18804TIP3    H277904   5.718   5.773  10.410  1.7487 -1.0956  0.7585
18805TIP3   OH277905   3.894   4.666   3.138  0.2444  0.2813 -0.5730
18805TIP3    H177906   3.885   4.575   3.111  0.1826  0.2262 -0.3625
18805TIP3    H277907   3.986   4.687   3.125  0.3516  0.0532 -0.1772
18806TIP3   OH277908   0.939   4.370  17.146 -0.2547  0.0660 -0.7024
18806TIP3    H177909   1.021   4.379  17.194 -0.8887 -0.6614  0.5896
18806TIP3    H277910   0.878   4.428  17.192 -1.1709 -1.4785  0.1167
18807TIP3   OH277911   0.102   0.908  11.106  0.1087  0.0086  0.4347
18807TIP3    H177912   0.097   0.997  11.072 -0.8024  0.7193  2.2790
18807TIP3    H277913   0.182   0.907  11.159  0.4404 -0.4674 -0.0661
18808TIP3   OH277914   1.266   6.090   0.600 -0.7640 -0.2243  0.1048
18808TIP3    H177915   1.347   6.133   0.574 -0.9282 -0.8361 -1.5511
18808TIP3    H277916   1.294   6.015   0.651 -0.4093  0.8731  1.5796
18809TIP3   OH277917   3.836   5.066  12.915  0.0542 -0.3441  0.0136
18809TIP3    H177918   3.838   5.032  12.825  1.5043  2.4218 -1.0994
18809TIP3    H277919   3.743   5.081  12.932 -0.1425  0.6885 -1.7032
18810TIP3   OH277920   2.886   3.970  16.176 -0.1098 -0.6092 -0.3607
18810TIP3    H177921   2.924   4.051  16.210 -1.1280 -0.5353  0.6800
18810TIP3    H277922   2.792   3.982  16.186 -0.2695 -2.0134  0.0522
18811TIP3   OH277923   3.711   6.134   6.081  0.0710 -0.1856  0.4986
18811TIP3    H177924   3.777   6.154   6.016 -0.2284 -0.1878  0.1925
18811TIP3    H277925   3.688   6.043   6.066 -0.6869  0.0784 -0.0238
18812TIP3   OH277926   0.519   2.012  14.436  0.1144  0.0571  0.2985
18812TIP3    H177927   0.467   1.968  14.503 -0.1585  0.7250  0.5365
18812TIP3    H277928   0.454   2.043  14.372  0.3386 -0.2519 -0.0792
18813TIP3   OH277929   2.967   6.374   0.451 -0.2667  0.1342 -0.7501
18813TIP3    H177930   2.935   6.382   0.361  0.5361 -2.0980 -1.2834
18813TIP3    H277931   2.888   6.384   0.505 -0.5384  3.1600 -1.5257
18814TIP3   OH277932   0.285   0.818  13.871  0.2399 -0.1678  0.1400
18814TIP3    H177933   0.273   0.758  13.944 -0.4299 -1.0756 -0.6906
18814TIP3    H277934   0.353   0.879  13.901 -0.8514  0.2319  1.9692
18815TIP3   OH277935   2.995   1.689   2.267  0.4746 -0.0723  0.2957
18815TIP3    H177936   3.082   1.653   2.284  1.1857  0.3797 -2.0218
18815TIP3    H277937   2.941   1.657   2.340  2.1807 -1.7179  0.9224
18816TIP3   OH277938   6.126   1.312  12.582  0.0329  1.0190 -0.3648
18816TIP3    H177939   6.124   1.407  12.586 -1.1670  0.9944 -0.0359
18816TIP3    H277940   6.206   1.291  12.534  2.3226  2.0622  2.6481
18817TIP3   OH277941   6.294   4.968  13.603  0.6313  0.2398  0.3127
18817TIP3    H177942   6.350   4.897  13.633 -0.9615 -0.8673  0.8222
18817TIP3    H277943   6.287   5.028  13.678  1.6885  0.7713  0.0006
18818TIP3   OH277944   1.959   3.395   6.075  0.1877  0.1453 -0.1113
18818TIP3    H177945   1.983   3.373   5.985 -1.2557  1.4905 -0.8768
18818TIP3    H277946   1.874   3.438   6.067 -0.6783 -1.0345  2.0679
18819TIP3   OH277947   3.212   1.019   0.957 -0.2598  0.6734 -0.5232
18819TIP3    H177948   3.296   1.065   0.961  0.3722 -0.4650  0.1777
18819TIP3    H277949   3.200   0.998   0.865  1.2505 -0.8634 -0.4299
18820TIP3   OH277950   1.263   2.562   3.118 -0.1874 -0.0431  0.0747
18820TIP3    H177951   1.196   2.626   3.142  0.4553  1.2017 -1.3225
18820TIP3    H277952   1.342   2.614   3.104  0.2222 -1.0656 -1.6625
18821TIP3   OH277953   1.317   6.447  16.267 -0.6199 -0.0401  0.3362
18821TIP3    H177954   1.367   6.479  16.192 -0.7876 -0.4467  0.0493
18821TIP3    H277955   1.381   6.396  16.318  0.1228  2.1066  1.7177
18822TIP3   OH277956   1.533   1.986  11.223 -0.6499  0.3635  0.1776
18822TIP3    H177957   1.519   2.081  11.226 -1.7414  0.2623 -0.7056
18822TIP3    H277958   1.541   1.967  11.129 -1.6579 -0.5573  0.2595
18823TIP3   OH277959   2.876   2.252  16.236 -0.2600 -0.2613  0.0197
18823TIP3    H177960   2.833   2.183  16.185  0.2242 -0.0798 -0.6411
18823TIP3    H277961   2.966   2.254  16.203  0.1844 -0.4325  1.1928
18824TIP3   OH277962   3.923   4.170   3.849  0.5604  0.0196  0.1938
18824TIP3    H177963   3.870   4.105   3.894 -1.9919  1.9697  0.2283
18824TIP3    H277964   3.861   4.219   3.795  2.6658  1.2526 -1.2836
18825TIP3   OH277965   0.773   4.265   5.097 -0.4857 -0.0805 -0.5165
18825TIP3    H177966   0.730   4.184   5.070 -1.1187  0.2062 -0.4027
18825TIP3    H277967   0.701   4.322   5.124  0.0627 -0.0191  0.8901
18826TIP3   OH277968   2.307   4.770  12.069 -0.2305  0.5920 -0.6839
18826TIP3    H177969   2.289   4.680  12.042  0.9104  0.6024 -1.5451
18826TIP3    H277970   2.244   4.823  12.020 -1.6557  0.2085  0.6564
18827TIP3   OH277971   6.630   1.542  16.706  0.1316 -0.4593 -0.6140
18827TIP3    H177972   6.631   1.448  16.725 -0.0176  0.0200  2.2078
18827TIP3    H277973   6.537   1.566  16.713  0.3882  0.2273  0.9866
18828TIP3   OH277974   0.941   5.890  10.906  0.0278 -0.2782 -0.1592
18828TIP3    H177975   1.022   5.898  10.956  0.3822 -0.6388 -0.6702
18828TIP3    H277976   0.894   5.972  10.922  0.6939  0.1135 -0.2177
18829TIP3   OH277977   4.524   4.180  13.988 -0.7933 -0.2354 -0.3844
18829TIP3    H177978   4.529   4.256  13.930  3.3031  1.2541  1.5831
18829TIP3    H277979   4.453   4.201  14.049 -1.7233  0.5186 -1.6774
18830TIP3   OH277980   4.815   3.833   3.805  0.1757  0.0290 -0.4551
18830TIP3    H177981   4.877   3.904   3.788  0.3876  0.3060  1.2490
18830TIP3    H277982   4.833   3.768   3.738  2.2797  0.1461 -0.0653
18831TIP3   OH277983   1.115   1.412   4.811 -0.2947 -0.2968  0.5635
18831TIP3    H177984   1.207   1.439   4.802 -0.7184  0.7764 -0.9260
18831TIP3    H277985   1.117   1.318   4.794  0.4040 -0.0898 -0.6340
18832TIP3   OH277986   1.071   0.523   0.377  0.5507  0.2818  0.1261
18832TIP3    H177987   1.065   0.460   0.449  1.4302 -0.3297 -0.3213
18832TIP3    H277988   1.153   0.501   0.332  0.4815  1.2483 -0.5100
18833TIP3   OH277989   3.155   0.120   0.721  0.6515 -0.4924 -0.4145
18833TIP3    H177990   3.090   0.058   0.689  0.6376  0.1551 -1.6992
18833TIP3    H277991   3.165   0.099   0.814 -3.5873  1.2720  0.6673
18834TIP3   OH277992   0.488   0.587   3.549  0.3548  0.1415 -0.1663
18834TIP3    H177993   0.429   0.659   3.571  0.9551  0.9451 -1.1452
18834TIP3    H277994   0.562   0.628   3.504  0.0490 -1.1961 -2.0243
18835TIP3   OH277995   4.631   5.583   0.533  0.5021 -0.1321  0.6310
18835TIP3    H177996   4.616   5.673   0.561  0.0917 -0.4804  1.5844
18835TIP3    H277997   4.632   5.532   0.615  2.0099 -0.8259  0.2219
18836TIP3   OH277998   5.582   3.702   6.403  0.3621 -0.2268 -0.3150
18836TIP3    H177999   5.655   3.673   6.458 -1.4959 -0.9428  1.9367
18836TIP3    H278000   5.517   3.632   6.411 -0.4633  0.2138 -2.5510
18837TIP3   OH278001   3.760   4.419   3.845  0.3488 -0.3338  0.4410
18837TIP3    H178002   3.731   4.368   3.770 -1.1482  0.9260  0.1030
18837TIP3    H278003   3.812   4.490   3.807 -2.2651  1.6348  0.2491
18838TIP3   OH278004   6.194   4.914   4.361  0.3309 -0.3450 -0.0889
18838TIP3    H178005   6.110   4.880   4.330 -0.7062  3.1141 -1.5461
18838TIP3    H278006   6.251   4.910   4.284  0.2315  0.9351 -0.2506
18839TIP3   OH278007   5.990   3.456  17.058  0.4605  0.4408  0.5858
18839TIP3    H178008   6.067   3.511  17.039  0.9240 -0.7523 -1.2604
18839TIP3    H278009   5.995   3.439  17.152  1.1710  2.2472  0.9163
18840TIP3   OH278010   1.705   6.713   1.894 -0.1149  0.0820 -0.0130
18840TIP3    H178011   1.701   6.807   1.878  2.0667  0.2592  0.2342
18840TIP3    H278012   1.613   6.686   1.900 -0.8698  1.7597 -2.4193
18841TIP3   OH278013   2.999   5.764  15.573  0.2677  0.4763 -0.2106
18841TIP3    H178014   2.958   5.713  15.643  0.5041  0.9054  0.2421
18841TIP3    H278015   2.926   5.814  15.535  0.3940  1.4857  0.8063
18842TIP3   OH278016   6.368   2.489  16.287 -0.0571 -0.9795  0.2439
18842TIP3    H178017   6.326   2.413  16.248 -0.5447 -1.1499  1.0684
18842TIP3    H278018   6.387   2.461  16.377  0.3598 -0.3543  0.3520
18843TIP3   OH278019   1.705   6.114   3.261  0.1305 -0.0732 -0.5976
18843TIP3    H178020   1.696   6.022   3.234 -1.4456 -0.1325  0.0283
18843TIP3    H278021   1.672   6.164   3.186  3.5831  0.2079 -2.1389
18844TIP3   OH278022   2.654   3.903  14.100 -0.8000  0.4756 -0.0488
18844TIP3    H178023   2.642   3.885  14.007 -0.3999 -0.0721  0.0030
18844TIP3    H278024   2.649   3.817  14.142  1.6290  0.3824  0.1638
18845TIP3   OH278025   3.799   4.635  16.927  0.3980 -0.2626  0.0100
18845TIP3    H178026   3.720   4.615  16.877  1.5988 -0.8865 -1.7114
18845TIP3    H278027   3.823   4.552  16.968 -0.3238  0.1403  1.3085
18846TIP3   OH278028   1.668   2.829  15.880  0.2027  0.3417  0.7211
18846TIP3    H178029   1.593   2.808  15.936 -0.5368  1.8881  0.3527
18846TIP3    H278030   1.737   2.856  15.941 -0.2686  1.0247  0.9679
18847TIP3   OH278031   0.121   2.056  16.717  0.6872  0.2757  0.1037
18847TIP3    H178032   0.136   2.108  16.796  0.0760  0.9806 -0.2394
18847TIP3    H278033   0.092   2.119  16.651  1.5230 -0.2571 -0.7915
18848TIP3   OH278034   3.114   6.350   1.690 -0.0604 -0.1287  0.2058
18848TIP3    H178035   3.143   6.380   1.776  0.9259 -2.2089  0.6528
18848TIP3    H278036   3.196   6.336   1.642 -0.5653 -0.2551 -0.6279
18849TIP3   OH278037   5.330   2.192   3.396 -0.4605 -0.0373 -0.2111
18849TIP3    H178038   5.264   2.128   3.420 -1.1986  1.1108  0.8919
18849TIP3    H278039   5.388   2.145   3.336 -2.8336 -0.7927 -2.0623
18850TIP3   OH278040   3.427   0.696   5.487  0.1246 -0.5804  1.3465
18850TIP3    H178041   3.381   0.671   5.406  0.3688  0.1563  0.9676
18850TIP3    H278042   3.360   0.739   5.540  0.3178  0.3259  0.8734
18851TIP3   OH278043   6.738   0.123  13.211 -0.4024 -0.5411  0.1411
18851TIP3    H178044   6.800   0.196  13.211 -0.5532 -0.3701 -1.6616
18851TIP3    H278045   6.652   0.165  13.207 -0.4593 -0.7930 -1.8713
18852TIP3   OH278046   4.493   5.291  14.252  0.3276  0.3686 -0.0275
18852TIP3    H178047   4.415   5.241  14.229 -0.2284  1.7505 -1.3820
18852TIP3    H278048   4.562   5.257  14.195  0.6628 -0.6571  0.9669
18853TIP3   OH278049   6.455   4.899  12.806 -1.0460  0.0363 -0.5203
18853TIP3    H178050   6.378   4.930  12.758  0.1328 -0.3661 -2.7945
18853TIP3    H278051   6.456   4.804  12.792 -1.2717 -0.2603  1.2723
18854TIP3   OH278052   5.514   5.782  16.024  0.0877 -0.0064 -0.1852
18854TIP3    H178053   5.474   5.869  16.026 -0.2402 -0.0301 -2.5569
18854TIP3    H278054   5.479   5.738  16.101  0.3069  1.9652  1.0981
18855TIP3   OH278055   2.762   2.386  13.642  0.1672 -0.2138  0.5861
18855TIP3    H178056   2.672   2.410  13.661 -0.5016 -0.6436 -1.7206
18855TIP3    H278057   2.799   2.361  13.727 -1.1257  2.2209  1.9636
18856TIP3   OH278058   4.214   0.645   0.288 -0.3597 -0.1283  0.7330
18856TIP3    H178059   4.300   0.625   0.325 -0.7473  0.0393  1.7437
18856TIP3    H278060   4.153   0.634   0.361 -1.3582 -1.3686 -0.2305
18857TIP3   OH278061   2.508   3.163   1.968  0.0153  0.1278 -0.2810
18857TIP3    H178062   2.552   3.247   1.960 -0.7230  0.7375  1.5635
18857TIP3    H278063   2.482   3.141   1.878 -2.3006  3.2806 -0.5260
18858TIP3   OH278064   1.947   0.457  12.485 -0.2870 -0.8151  0.0750
18858TIP3    H178065   1.963   0.427  12.396 -1.0994 -0.1657 -0.3021
18858TIP3    H278066   1.867   0.411  12.511 -0.8910  0.1232 -0.0840
18859TIP3   OH278067   6.217   0.182   2.581  0.1459  0.5260 -0.2500
18859TIP3    H178068   6.212   0.110   2.644  1.6047  1.5613  1.1025
18859TIP3    H278069   6.245   0.257   2.632 -0.9738  1.9985 -1.7103
18860TIP3   OH278070   4.242   2.966   0.237 -0.3289  0.1425 -0.6339
18860TIP3    H178071   4.199   2.961   0.151 -2.3867  0.3731  0.3220
18860TIP3    H278072   4.170   2.959   0.300  1.2419 -1.1231  1.1144
18861TIP3   OH278073   1.195   4.572   2.054  0.2920  0.2261 -0.2645
18861TIP3    H178074   1.183   4.574   1.959 -4.3517  1.4854  0.0989
18861TIP3    H278075   1.182   4.663   2.082  0.5931 -0.2729  1.6596
18862TIP3   OH278076   3.718   5.644  11.301 -0.5978  0.1064 -0.7633
18862TIP3    H178077   3.705   5.668  11.210 -2.3282  1.1707 -0.2941
18862TIP3    H278078   3.676   5.714  11.351 -1.2153 -1.2893  0.8121
18863TIP3   OH278079   1.870   4.349  17.171  0.0758  0.1251 -0.9194
18863TIP3    H178080   1.868   4.355  17.076  2.4761  1.0479 -0.9711
18863TIP3    H278081   1.962   4.333  17.192 -0.1919  1.1170  1.2875
18864TIP3   OH278082   6.097   4.452  15.030  0.7235  0.0014 -0.7423
18864TIP3    H178083   6.076   4.484  14.942  1.3918 -0.4228 -1.0717
18864TIP3    H278084   6.118   4.531  15.080 -1.0292  0.3826 -0.5495
18865TIP3   OH278085   2.140   4.719   3.396  0.8715  0.3542 -0.2697
18865TIP3    H178086   2.178   4.793   3.349 -0.7745  0.0797 -2.1670
18865TIP3    H278087   2.146   4.646   3.334  2.3522 -1.1366  1.5042
18866TIP3   OH278088   0.983   2.032  16.062 -0.3358 -0.4368 -0.3431
18866TIP3    H178089   0.982   1.963  16.129  1.8661  1.2661  1.6272
18866TIP3    H278090   0.894   2.068  16.063 -0.2917 -0.1840  2.1044
18867TIP3   OH278091   1.866   4.938  17.135  0.4269 -0.2959 -0.0045
18867TIP3    H178092   1.774   4.914  17.126  0.5645 -0.3862 -1.4143
18867TIP3    H278093   1.906   4.863  17.178  0.3415 -1.5125 -1.9218
18868TIP3   OH278094   4.816   1.815   0.651 -0.3819  0.0578  0.2320
18868TIP3    H178095   4.839   1.883   0.588 -3.3521  0.4625 -0.5713
18868TIP3    H278096   4.763   1.752   0.602 -1.9111 -0.1729  2.0268
18869TIP3   OH278097   1.314   5.900  16.734  0.2249 -0.2643  0.1847
18869TIP3    H178098   1.287   5.808  16.730 -0.1365 -0.1327 -0.5209
18869TIP3    H278099   1.405   5.897  16.764  0.7432 -0.9559 -1.3699
18870TIP3   OH278100   5.478   2.523   0.217  0.0407  0.3591 -0.3269
18870TIP3    H178101   5.405   2.461   0.208 -0.3755  0.5220  1.5396
18870TIP3    H278102   5.487   2.536   0.311  0.4889  2.7151 -0.6341
18871TIP3   OH278103   2.594   1.752   4.422 -0.2613 -0.0842 -0.2288
18871TIP3    H178104   2.509   1.768   4.463  0.3451 -1.0829  1.5180
18871TIP3    H278105   2.658   1.784   4.486  0.7215 -0.4054 -1.0144
18872TIP3   OH278106   4.481   5.180   3.495 -0.4849  0.5667  0.1437
18872TIP3    H178107   4.393   5.182   3.531 -0.1341  0.7682  1.0155
18872TIP3    H278108   4.489   5.262   3.447 -1.1993 -0.0210 -1.0288
18873TIP3   OH278109   6.036   3.007   0.839 -0.0070  0.4222 -0.3101
18873TIP3    H178110   5.962   3.002   0.779 -0.2832  0.2492  0.0419
18873TIP3    H278111   5.997   3.028   0.924  0.0461 -2.0959  0.4159
18874TIP3   OH278112   1.543   0.825  13.230  0.1525 -0.3482 -0.1150
18874TIP3    H178113   1.630   0.848  13.198  0.6538 -0.7957  0.8685
18874TIP3    H278114   1.489   0.901  13.211  1.4344  1.1075  1.7815
18875TIP3   OH278115   2.259   5.806  12.440 -0.0983  0.1967 -0.1639
18875TIP3    H178116   2.322   5.774  12.505  0.2924  1.4105  0.0654
18875TIP3    H278117   2.298   5.784  12.356 -0.2702 -0.7353 -0.0183
18876TIP3   OH278118   5.686   0.799  14.994  0.3924 -0.2145  0.2311
18876TIP3    H178119   5.772   0.771  14.962 -0.4779 -1.2031 -1.4265
18876TIP3    H278120   5.699   0.817  15.087  2.0609 -1.7674  0.3535
18877TIP3   OH278121   5.329   1.891  12.442 -0.4379 -0.0279  0.2189
18877TIP3    H178122   5.247   1.938  12.426 -1.0236 -1.1885 -0.2188
18877TIP3    H278123   5.339   1.893  12.537 -1.9699 -1.5121  0.4463
18878TIP3   OH278124   3.582   0.119  15.243 -0.0149 -0.0476  0.5241
18878TIP3    H178125   3.598   0.213  15.248  0.9603 -0.2076  0.5710
18878TIP3    H278126   3.546   0.097  15.329  0.9882  0.0668  0.9847
18879TIP3   OH278127   3.351   4.725   2.546 -0.2459 -0.2854  0.0583
18879TIP3    H178128   3.310   4.792   2.491 -1.3469 -0.8263  0.2094
18879TIP3    H278129   3.332   4.642   2.501  1.9257 -0.4746 -0.6577
18880TIP3   OH278130   6.250   3.363   0.413  0.1758 -0.1923 -0.3519
18880TIP3    H178131   6.340   3.345   0.389 -0.2372 -0.7638 -1.5292
18880TIP3    H278132   6.257   3.426   0.485  1.4963  0.6941 -1.1995
18881TIP3   OH278133   5.626   1.804   0.972  0.6586 -0.0294  0.1896
18881TIP3    H178134   5.710   1.780   1.010  1.1885  0.5940 -0.5295
18881TIP3    H278135   5.610   1.738   0.904  1.0985  0.4325 -0.3818
18882TIP3   OH278136   1.673   5.574   1.448  0.6157 -0.1620  0.3444
18882TIP3    H178137   1.658   5.643   1.513  0.9585 -0.5688  0.8628
18882TIP3    H278138   1.764   5.587   1.420  1.0963 -1.1456  1.3568
18883TIP3   OH278139   0.920   3.612   3.765  0.0703  0.0223 -0.0917
18883TIP3    H178140   0.994   3.569   3.721 -0.7071 -0.7082 -0.7125
18883TIP3    H278141   0.845   3.555   3.748 -0.8469  1.2472 -0.3290
18884TIP3   OH278142   5.062   5.660  14.297  0.1733 -0.0142  0.8382
18884TIP3    H178143   5.058   5.584  14.354  0.6043 -0.5307  0.1855
18884TIP3    H278144   4.987   5.650  14.238 -0.4384  0.6648  1.4716
18885TIP3   OH278145   2.976   3.267   6.649 -0.1302  0.0216  0.0018
18885TIP3    H178146   2.985   3.184   6.695  3.3320 -0.6790 -1.6356
18885TIP3    H278147   3.046   3.322   6.685 -0.5706  1.2251 -0.9076
18886TIP3   OH278148   5.612   0.331  11.695  0.9098 -0.2842 -0.2932
18886TIP3    H178149   5.608   0.260  11.760  1.6262 -0.9692 -0.9692
18886TIP3    H278150   5.697   0.372  11.711  0.7738  0.0081 -0.3254
18887TIP3   OH278151   4.726   1.665  13.659 -0.2656  0.1515  0.0974
18887TIP3    H178152   4.677   1.683  13.579  1.2719 -0.3849 -1.0306
18887TIP3    H278153   4.816   1.691  13.638  0.5350 -1.7106  1.0156
18888TIP3   OH278154   6.552   4.660  12.534  0.7577 -0.1658 -0.5089
18888TIP3    H178155   6.620   4.630  12.474 -1.5278 -4.2323 -1.4170
18888TIP3    H278156   6.509   4.580  12.564 -0.5150  1.8368  3.9485
18889TIP3   OH278157   2.594   3.161  15.199 -0.2095  1.0072  0.0146
18889TIP3    H178158   2.519   3.220  15.186 -1.4293 -0.6500 -0.8756
18889TIP3    H278159   2.595   3.145  15.294 -0.8455  1.2350  0.0701
18890TIP3   OH278160   3.553   2.411   5.188 -0.0909 -0.2915  0.3334
18890TIP3    H178161   3.462   2.413   5.218 -0.2963  0.4252 -0.2893
18890TIP3    H278162   3.555   2.342   5.122 -0.0901 -0.5657  0.6180
18891TIP3   OH278163   2.683   5.332   0.821  0.3818  0.0028 -0.0168
18891TIP3    H178164   2.735   5.320   0.901  1.0735  0.0520 -0.4583
18891TIP3    H278165   2.607   5.382   0.850  0.3939 -0.3839  0.7064
18892TIP3   OH278166   4.830   5.555  14.841  0.5794 -0.0605  0.1180
18892TIP3    H178167   4.925   5.550  14.841  0.5620 -1.6352 -1.8762
18892TIP3    H278168   4.806   5.566  14.749 -1.1657  0.5203  0.5948
18893TIP3   OH278169   4.212   4.099   0.878  0.0315  0.0697 -0.1227
18893TIP3    H178170   4.167   4.023   0.840  2.5258 -0.6182 -1.9353
18893TIP3    H278171   4.283   4.061   0.929  0.7328  1.1661 -0.2589
18894TIP3   OH278172   2.941   2.456   5.997 -0.6031 -0.2147  0.2382
18894TIP3    H178173   2.855   2.444   5.956  0.2584  2.4404 -2.8414
18894TIP3    H278174   2.936   2.544   6.036  1.1882  0.8844 -1.7850
18895TIP3   OH278175   4.413   6.547   0.726 -0.2957 -0.1695  0.2480
18895TIP3    H178176   4.500   6.547   0.767  0.3127  0.7220 -0.9620
18895TIP3    H278177   4.420   6.484   0.655 -1.1055 -1.1434  1.0082
18896TIP3   OH278178   6.358   6.377  12.661  0.4400 -0.6392 -0.3388
18896TIP3    H178179   6.291   6.319  12.625  0.2915 -1.9345  1.7958
18896TIP3    H278180   6.317   6.464  12.660 -0.2089 -0.9305 -1.5484
18897TIP3   OH278181   3.430   4.998   2.179  0.6538  0.0074 -0.1612
18897TIP3    H178182   3.441   4.915   2.225  0.7392  0.1212  0.0292
18897TIP3    H278183   3.399   5.059   2.247  0.4749  0.1001 -0.3256
18898TIP3   OH278184   6.050   6.180   4.956  0.3637 -0.8517  0.2675
18898TIP3    H178185   5.974   6.134   4.991  0.5059 -2.1670 -1.0672
18898TIP3    H278186   6.043   6.171   4.861  0.9651  1.0182  0.0044
18899TIP3   OH278187   5.743   1.554  10.494  0.2411  0.6761 -0.0287
18899TIP3    H178188   5.731   1.564  10.400  1.7601 -1.6819 -0.5382
18899TIP3    H278189   5.806   1.623  10.517  2.7933 -1.0160 -1.5123
18900TIP3   OH278190   1.910   1.047  12.301  0.3531 -0.3263 -0.2908
18900TIP3    H178191   1.950   0.963  12.279  0.3581 -0.6857  1.0378
18900TIP3    H278192   1.823   1.025  12.334  0.6076  0.1182  0.7170
18901TIP3   OH278193   5.228   6.080  12.734  0.3649 -0.2136 -0.1990
18901TIP3    H178194   5.300   6.023  12.758  0.0435 -0.7031 -0.3928
18901TIP3    H278195   5.186   6.037  12.660  0.1105  0.2664 -0.3418
18902TIP3   OH278196   4.782   2.299  14.016  0.1725  0.0808  0.3968
18902TIP3    H178197   4.873   2.327  14.019  0.0699  0.4319  0.2937
18902TIP3    H278198   4.743   2.351  13.945 -0.1378  0.0262  0.5245
18903TIP3   OH278199   4.582   2.684  15.597  0.0625  0.5436  0.0542
18903TIP3    H178200   4.552   2.603  15.638  0.0654  0.0531 -0.8713
18903TIP3    H278201   4.643   2.655  15.528 -1.7001  1.1287 -1.8674
18904TIP3   OH278202   6.712   0.104  15.574  0.5340 -0.2711  0.7799
18904TIP3    H178203   6.619   0.082  15.581  0.7470 -1.4494  0.2587
18904TIP3    H278204   6.749   0.085  15.660  0.2019  0.7896  1.1786
18905TIP3   OH278205   4.646   3.809  16.375 -0.7285 -0.2629  0.0577
18905TIP3    H178206   4.685   3.770  16.296 -0.1005  1.2440 -0.4093
18905TIP3    H278207   4.702   3.780  16.446 -0.0151  0.1297 -0.3368
18906TIP3   OH278208   4.223   4.517  16.948  0.2180 -0.6639 -0.1248
18906TIP3    H178209   4.173   4.545  17.025  0.1099  0.0139 -0.4349
18906TIP3    H278210   4.293   4.582  16.939  1.6755 -2.0450  0.7786
18907TIP3   OH278211   4.954   6.067  11.738 -0.0543 -0.2143  0.5062
18907TIP3    H178212   4.986   6.001  11.675  0.3696 -1.6406  2.1395
18907TIP3    H278213   5.032   6.118  11.761  0.4658 -1.6090  2.0450
18908TIP3   OH278214   2.534   2.715   5.989  0.0295 -0.4602 -0.1610
18908TIP3    H178215   2.586   2.788   5.955 -2.4665  1.7338  0.4481
18908TIP3    H278216   2.534   2.728   6.084  0.0462 -1.6471  0.0169
18909TIP3   OH278217   3.284   3.743   1.696 -0.0950 -0.5087 -1.0857
18909TIP3    H178218   3.308   3.818   1.641  0.7632 -0.2765 -0.4152
18909TIP3    H278219   3.288   3.776   1.785 -1.8333 -0.7863 -0.8713
18910TIP3   OH278220   5.736   1.288   0.095 -0.3529 -0.0374 -0.4571
18910TIP3    H178221   5.769   1.231   0.165  2.2657  3.3799  1.3653
18910TIP3    H278222   5.805   1.352   0.081 -3.4929  3.5558 -1.3750
18911TIP3   OH278223   4.690   6.304   0.923  0.0450  0.1209 -0.1431
18911TIP3    H178224   4.662   6.364   0.854 -2.1174 -1.4326 -0.7340
18911TIP3    H278225   4.777   6.274   0.895 -0.9052 -0.7266 -2.4598
18912TIP3   OH278226   4.802   2.050   5.988 -0.3789  0.3261  0.1650
18912TIP3    H178227   4.815   2.098   6.069 -0.4150  0.6045  0.0068
18912TIP3    H278228   4.756   1.970   6.015  0.1717  0.1185  0.5012
18913TIP3   OH278229   0.198   2.828  13.884 -0.2932 -0.6364 -0.2153
18913TIP3    H178230   0.213   2.748  13.935 -0.1675 -1.8587 -2.0678
18913TIP3    H278231   0.284   2.846  13.845 -0.3148  0.4614  0.2115
18914TIP3   OH278232   2.911   4.326   2.598 -0.4356 -0.5363  0.4120
18914TIP3    H178233   2.902   4.233   2.579 -0.4316 -0.5172  0.3138
18914TIP3    H278234   2.962   4.330   2.679 -1.4652 -0.6518  1.0868
18915TIP3   OH278235   4.222   0.755   4.112 -0.4051 -0.3220 -0.4643
18915TIP3    H178236   4.206   0.849   4.109 -4.2795 -0.8081 -0.2284
18915TIP3    H278237   4.227   0.734   4.205  2.8977 -0.1605 -0.4978
18916TIP3   OH278238   3.854   1.448   2.865 -0.4976  0.4301  0.4863
18916TIP3    H178239   3.820   1.399   2.790 -2.7885  1.3170  0.8729
18916TIP3    H278240   3.808   1.411   2.941 -0.1669  1.2876  1.1215
18917TIP3   OH278241   0.971   6.372   5.040 -0.1880 -0.1029 -0.6557
18917TIP3    H178242   0.953   6.465   5.054 -1.5793 -0.7787  2.9476
18917TIP3    H278243   0.889   6.338   5.004 -0.0168 -0.1326 -1.0224
18918TIP3   OH278244   4.519   3.551   1.272  0.3713  0.0658  0.5767
18918TIP3    H178245   4.460   3.490   1.317 -1.0936  0.5608 -0.5777
18918TIP3    H278246   4.527   3.514   1.184  1.3845  0.3077  0.5544
18919TIP3   OH278247   4.802   4.270   2.871  0.7447 -0.3118 -0.4294
18919TIP3    H178248   4.846   4.355   2.876 -0.1848  0.1703 -0.2485
18919TIP3    H278249   4.778   4.250   2.961  0.9835 -0.7897 -0.4682
18920TIP3   OH278250   2.565   1.718   2.365 -0.5640  0.2702 -0.0215
18920TIP3    H178251   2.625   1.767   2.309 -1.6893  0.5270 -1.0595
18920TIP3    H278252   2.533   1.782   2.429  0.5933  0.0184  0.8370
18921TIP3   OH278253   1.673   3.817  11.168  1.5010  0.1005  0.8140
18921TIP3    H178254   1.673   3.911  11.188  0.2463  0.5198 -0.9226
18921TIP3    H278255   1.633   3.811  11.081  0.8538 -2.1209  1.2126
18922TIP3   OH278256   6.820   0.135   0.171 -0.0417 -0.1435  0.7312
18922TIP3    H178257   6.836   0.214   0.119  0.8338 -0.8867 -0.1696
18922TIP3    H278258   6.905   0.115   0.212  0.1781 -1.4591 -0.2867
18923TIP3   OH278259   0.740   2.249   0.311  0.2568  0.2529 -0.6455
18923TIP3    H178260   0.738   2.242   0.407 -1.6036  1.0187 -0.5940
18923TIP3    H278261   0.650   2.270   0.287  0.2227 -1.9405 -2.7510
18924TIP3   OH278262   2.458   2.381   6.243 -0.6002 -0.2229  0.0687
18924TIP3    H178263   2.412   2.302   6.272  0.2552 -0.6690  0.2554
18924TIP3    H278264   2.511   2.407   6.319  0.7989 -0.7459 -0.6945
18925TIP3   OH278265   5.427   4.964  11.195 -0.0300  0.5648  0.7886
18925TIP3    H178266   5.430   4.919  11.110  0.9538  1.4117  0.3518
18925TIP3    H278267   5.376   5.043  11.178  0.0616  0.6727  1.0229
18926TIP3   OH278268   4.170   1.589  15.944  0.1182 -0.1263  0.2131
18926TIP3    H178269   4.259   1.555  15.950  0.2203  0.2224  0.7493
18926TIP3    H278270   4.174   1.654  15.874  0.2307 -0.2747  0.0823
18927TIP3   OH278271   3.390   2.950   4.546  0.6174 -0.0286  0.5218
18927TIP3    H178272   3.375   2.856   4.537 -0.4733  0.2039 -0.3210
18927TIP3    H278273   3.386   2.966   4.640  1.7329 -0.9558  0.7446
18928TIP3   OH278274   5.119   5.360   3.685  0.6592  0.2597 -0.3246
18928TIP3    H178275   5.188   5.322   3.630  0.8568  0.9994 -0.6008
18928TIP3    H278276   5.139   5.328   3.773 -0.6568 -2.3397 -0.8992
18929TIP3   OH278277   1.399   0.447  16.404 -0.1882  0.3216 -0.1072
18929TIP3    H178278   1.316   0.493  16.392  0.1039  1.2448  1.1860
18929TIP3    H278279   1.418   0.409  16.318 -1.4754  0.8863 -0.6703
18930TIP3   OH278280   0.392   2.191  11.842 -0.0964  0.3085  0.2210
18930TIP3    H178281   0.327   2.260  11.843  0.3380  0.7838 -1.3763
18930TIP3    H278282   0.429   2.191  11.931 -2.5767 -0.3348  1.3322
18931TIP3   OH278283   5.817   2.842  15.487  0.2608 -0.3253  0.3683
18931TIP3    H178284   5.798   2.804  15.573  1.5393 -1.0751  0.3437
18931TIP3    H278285   5.834   2.767  15.430 -2.6385  0.0159 -1.1442
18932TIP3   OH278286   0.011   5.977  11.662 -0.2061 -0.7038  0.3025
18932TIP3    H178287  -0.006   5.919  11.588 -1.6970  0.3671 -0.2404
18932TIP3    H278288   0.070   6.044  11.628 -0.1401 -0.7347  0.3545
18933TIP3   OH278289   6.748   3.897   3.004 -0.1268 -0.0715  0.1722
18933TIP3    H178290   6.749   3.824   3.066 -0.7650  0.1068  0.3956
18933TIP3    H278291   6.775   3.858   2.921 -0.3983 -0.5499  0.3051
18934TIP3   OH278292   3.550   6.627   1.369 -0.1529  0.1272 -0.6244
18934TIP3    H178293   3.641   6.655   1.357 -0.1753  0.4691 -0.0621
18934TIP3    H278294   3.553   6.532   1.370  0.2970  0.1433  0.0522
18935TIP3   OH278295   0.558   4.884   1.349 -0.0819  0.1258 -0.1177
18935TIP3    H178296   0.509   4.910   1.271 -0.9981 -0.2467  0.3072
18935TIP3    H278297   0.538   4.952   1.413  1.5383  1.0146 -0.5157
18936TIP3   OH278298   3.393   1.780  16.290 -0.2240  0.7646  0.0461
18936TIP3    H178299   3.433   1.795  16.204  0.9885  0.7226  0.5749
18936TIP3    H278300   3.463   1.801  16.352 -0.2930 -1.4423  0.9631
18937TIP3   OH278301   0.026   4.374  16.799  0.0861 -0.2054 -0.0603
18937TIP3    H178302  -0.067   4.356  16.787  0.0615  0.2169 -0.5079
18937TIP3    H278303   0.067   4.346  16.717  0.5657 -1.7812  0.6719
18938TIP3   OH278304   4.491   4.586   4.266 -0.3347 -0.3544  0.0631
18938TIP3    H178305   4.514   4.524   4.197  0.3113 -1.7673  1.4762
18938TIP3    H278306   4.432   4.537   4.323 -0.0532  0.4185  1.0524
18939TIP3   OH278307   3.421   3.266   2.663 -0.1179  0.7423 -0.3603
18939TIP3    H178308   3.358   3.214   2.613 -0.1939  2.4765 -2.2003
18939TIP3    H278309   3.366   3.317   2.724 -0.2770  0.6220 -0.4015
18940TIP3   OH278310   1.056   1.339   2.385  0.3536 -0.4097  0.2352
18940TIP3    H178311   1.152   1.333   2.378  0.3305  0.1138 -0.6060
18940TIP3    H278312   1.041   1.413   2.445  0.4721 -0.0427 -0.1836
18941TIP3   OH278313   3.248   2.483   1.782 -0.0346 -0.4839 -0.7269
18941TIP3    H178314   3.189   2.449   1.849  0.1918 -2.0849 -1.2886
18941TIP3    H278315   3.216   2.446   1.700  1.0288 -0.3994 -1.2021
18942TIP3   OH278316   1.529   6.276  13.667 -0.5487  0.2248 -0.2785
18942TIP3    H178317   1.605   6.334  13.667  0.1754 -0.6930  0.1798
18942TIP3    H278318   1.516   6.254  13.759 -1.7692  0.8580 -0.2765
18943TIP3   OH278319   2.136   2.909  15.596 -0.2790  0.5863 -0.3120
18943TIP3    H178320   2.099   2.950  15.674 -0.4492 -0.4951  0.1924
18943TIP3    H278321   2.087   2.827  15.587  0.7410  0.0088 -0.7051
18944TIP3   OH278322   1.394   6.565  15.419  0.2553  0.2192 -0.0217
18944TIP3    H178323   1.358   6.478  15.399  0.6298 -0.7587  2.9845
18944TIP3    H278324   1.488   6.550  15.429  0.4568  1.1893 -0.3485
18945TIP3   OH278325   4.384   3.038  14.804 -0.6185  0.0806 -0.2998
18945TIP3    H178326   4.432   3.117  14.828 -0.5448  0.3939 -1.4238
18945TIP3    H278327   4.296   3.053  14.837 -0.5165  0.4697 -0.1957
18946TIP3   OH278328   1.013   3.664   4.863  0.9607 -0.3558  0.0681
18946TIP3    H178329   1.024   3.610   4.785  0.0255  1.7233 -1.5987
18946TIP3    H278330   1.057   3.746   4.843 -0.6567  0.8292  1.0402
18947TIP3   OH278331   4.383   6.170  16.240 -0.3297  0.2358 -0.7986
18947TIP3    H178332   4.400   6.262  16.260  1.0776 -0.1246 -0.2235
18947TIP3    H278333   4.378   6.127  16.326 -0.7846 -0.2631 -1.0668
18948TIP3   OH278334   4.872   3.497  16.367  0.7346 -0.2875 -0.6737
18948TIP3    H178335   4.952   3.445  16.379  0.1027 -0.7524  2.8374
18948TIP3    H278336   4.832   3.463  16.288  2.7867 -1.7679 -1.1483
18949TIP3   OH278337   5.845   4.322  14.817  0.0377 -0.8237 -0.0374
18949TIP3    H178338   5.862   4.250  14.877  1.4743 -0.7658 -0.3620
18949TIP3    H278339   5.848   4.400  14.873  0.2465 -0.8663  0.0127
18950TIP3   OH278340   5.379   6.727  12.187 -0.5704 -0.2846 -0.2903
18950TIP3    H178341   5.400   6.667  12.259 -1.2221 -0.8757 -0.5732
18950TIP3    H278342   5.321   6.792  12.226 -0.3738 -0.2119 -0.1209
18951TIP3   OH278343   4.360   0.946  14.839 -0.9496 -0.0900 -0.0411
18951TIP3    H178344   4.455   0.941  14.831 -1.1043 -1.2272 -2.1267
18951TIP3    H278345   4.333   0.856  14.859 -1.5673  0.2987  0.9081
18952TIP3   OH278346   1.756   6.831   2.233 -0.3115  0.6594  0.0527
18952TIP3    H178347   1.773   6.886   2.157 -0.4426  0.7848  0.1143
18952TIP3    H278348   1.767   6.889   2.308  0.3942  0.3939  0.1584
18953TIP3   OH278349   1.513   5.828  12.709  0.0863 -0.4580 -0.2058
18953TIP3    H178350   1.447   5.786  12.764  0.5293 -0.9271 -0.0273
18953TIP3    H278351   1.542   5.760  12.649 -0.3363  0.0324 -0.9745
18954TIP3   OH278352   3.048   0.453   2.923  0.2073 -0.3667 -0.2052
18954TIP3    H178353   3.110   0.501   2.868 -0.5534  1.1179  0.1812
18954TIP3    H278354   2.972   0.437   2.866 -0.4589  0.9088  0.2920
18955TIP3   OH278355   3.283   0.645   0.677  0.3367  0.3494  0.0139
18955TIP3    H178356   3.363   0.696   0.669  1.6207 -1.3899  1.0916
18955TIP3    H278357   3.252   0.635   0.587  2.6059 -0.8429 -0.7170
18956TIP3   OH278358   5.001   1.369  13.812 -0.0257  0.4816  0.1304
18956TIP3    H178359   5.011   1.461  13.840  1.7776  0.6618 -0.9104
18956TIP3    H278360   4.907   1.356  13.805 -0.3199  2.2885  0.2061
18957TIP3   OH278361   5.235   4.388  16.348 -0.2530  0.3292  0.9052
18957TIP3    H178362   5.216   4.441  16.425 -1.1200  1.6711 -0.1844
18957TIP3    H278363   5.162   4.405  16.288  0.9859  0.2912 -0.6974
18958TIP3   OH278364   2.217   4.872   6.093 -0.0561  0.4667  0.0202
18958TIP3    H178365   2.206   4.796   6.036  0.9712  0.1738  0.1807
18958TIP3    H278366   2.186   4.946   6.041 -0.3586  0.0333 -0.4252
18959TIP3   OH278367   1.982   4.023  13.114 -1.0353 -0.9083  0.5780
18959TIP3    H178368   1.953   4.113  13.103  0.1718 -0.4993  0.5845
18959TIP3    H278369   1.952   3.998  13.201 -0.8138 -0.2782  0.8434
18960TIP3   OH278370   5.457   6.290   1.357 -0.1032  0.1098 -0.1893
18960TIP3    H178371   5.495   6.236   1.288 -0.7045 -0.2541 -0.2367
18960TIP3    H278372   5.372   6.250   1.376 -0.9514  1.5312 -0.8306
18961TIP3   OH278373   3.301   0.095  14.482 -0.0323 -0.3020  0.1212
18961TIP3    H178374   3.382   0.142  14.461 -1.0647  0.7517 -1.8393
18961TIP3    H278375   3.326   0.031  14.548  2.0123  1.2029  0.8915
18962TIP3   OH278376   1.748   1.648  14.502 -0.3326 -0.1551  0.1225
18962TIP3    H178377   1.677   1.693  14.456 -0.9822 -1.4382 -0.1820
18962TIP3    H278378   1.717   1.558  14.513  1.0177 -0.6092  0.4964
18963TIP3   OH278379   4.668   0.817  10.282  0.4430  0.2415  0.1692
18963TIP3    H178380   4.605   0.755  10.244  1.4206 -0.8389  0.2443
18963TIP3    H278381   4.732   0.833  10.213  0.5417  0.6871  0.3574
18964TIP3   OH278382   4.718   3.667  15.061 -0.2186 -0.2220 -0.2592
18964TIP3    H178383   4.629   3.634  15.069 -0.3291 -0.0633 -0.7576
18964TIP3    H278384   4.708   3.750  15.015  0.1931 -0.2504 -0.4028
18965TIP3   OH278385   4.360   5.666   3.844  1.0826 -0.1834  0.2514
18965TIP3    H178386   4.355   5.719   3.924 -1.0681 -0.7084  0.5386
18965TIP3    H278387   4.333   5.725   3.774  1.4696 -0.1378  0.1394
18966TIP3   OH278388   1.450   1.635  11.550  0.9867 -0.1313 -0.9072
18966TIP3    H178389   1.475   1.544  11.567  1.3705 -0.1224 -1.3926
18966TIP3    H278390   1.458   1.645  11.455 -0.2224  0.0740 -1.0031
18967TIP3   OH278391   1.785   3.556   5.256 -0.4194  0.1433  0.3514
18967TIP3    H178392   1.869   3.603   5.260  1.0253 -2.0896 -1.5246
18967TIP3    H278393   1.789   3.506   5.175 -2.0646 -2.8012  1.9140
18968TIP3   OH278394   6.515   3.216  16.796 -0.0340  0.1239 -0.1775
18968TIP3    H178395   6.533   3.177  16.711  1.9079  1.2966 -0.3746
18968TIP3    H278396   6.449   3.159  16.836 -1.3935 -0.1588 -2.6340
18969TIP3   OH278397   2.873   0.913   5.305 -0.0503 -0.1681  0.2294
18969TIP3    H178398   2.937   0.875   5.246 -1.6586 -1.0174 -1.0303
18969TIP3    H278399   2.798   0.935   5.250 -1.3213 -0.2916  1.8165
18970TIP3   OH278400   1.090   6.273  13.387  0.7568 -0.1633 -0.1272
18970TIP3    H178401   1.185   6.279  13.397  0.7251  0.2665 -0.0856
18970TIP3    H278402   1.071   6.179  13.396  1.0669 -0.1382  0.8715
18971TIP3   OH278403   1.011   0.261   1.153  0.0213  0.5067  0.2565
18971TIP3    H178404   1.105   0.262   1.138  0.2121 -1.0579  1.1837
18971TIP3    H278405   1.001   0.223   1.241 -1.4821  0.4063  0.0637
18972TIP3   OH278406   1.564   5.713  11.992  0.1963 -0.0089 -0.2592
18972TIP3    H178407   1.496   5.686  12.053 -0.4045  2.3642  0.2433
18972TIP3    H278408   1.534   5.798  11.958  3.4343  1.8283  0.9947
18973TIP3   OH278409   5.788   1.863   4.347 -0.1664 -0.7853  0.3345
18973TIP3    H178410   5.717   1.803   4.369 -1.1268  0.5022  0.8523
18973TIP3    H278411   5.751   1.922   4.281  0.6759 -0.5939  0.0154
18974TIP3   OH278412   1.245   5.798  10.756  0.5233 -0.2758 -0.2417
18974TIP3    H178413   1.160   5.795  10.800 -0.1741  2.0168 -1.3042
18974TIP3    H278414   1.234   5.745  10.677  0.6287 -1.3432  0.4435
18975TIP3   OH278415   6.451   4.971   5.222 -0.2860 -0.6793  0.4496
18975TIP3    H178416   6.373   4.960   5.167  0.7167  0.6597 -1.3712
18975TIP3    H278417   6.449   5.063   5.248  1.7053 -0.0382 -1.4009
18976TIP3   OH278418   4.239   0.092  11.426  0.2267 -0.8559 -0.4342
18976TIP3    H178419   4.241   0.181  11.391 -0.9494 -0.5942  0.1221
18976TIP3    H278420   4.301   0.044  11.372  0.2421  0.0996 -1.2977
18977TIP3   OH278421   0.913   0.915   4.631 -0.0411  0.1520 -0.4652
18977TIP3    H178422   0.909   0.822   4.653  0.0224 -0.7669 -3.7396
18977TIP3    H278423   0.877   0.960   4.707  0.7123 -2.4484  1.5780
18978TIP3   OH278424   3.600   4.293   0.944 -0.5151  0.0036  0.1397
18978TIP3    H178425   3.577   4.221   1.002  1.4889  0.3533  1.4637
18978TIP3    H278426   3.581   4.261   0.856 -0.7048 -1.7161  0.7758
18979TIP3   OH278427   0.814   3.456  11.906 -0.4822  0.1238 -0.3595
18979TIP3    H178428   0.865   3.516  11.852  0.0552  0.4602  0.5113
18979TIP3    H278429   0.826   3.487  11.995 -2.9579  0.7734 -0.1897
18980TIP3   OH278430   5.699   2.068   3.748 -0.4027  0.1061 -0.1735
18980TIP3    H178431   5.644   2.036   3.676 -0.1690 -0.3896 -0.1358
18980TIP3    H278432   5.667   2.156   3.765 -2.0595 -0.6081  0.7008
18981TIP3   OH278433   0.521   6.075  10.956 -0.3167  0.1635 -0.3252
18981TIP3    H178434   0.578   6.053  11.030 -0.8968 -0.9084 -0.1868
18981TIP3    H278435   0.541   6.167  10.937  0.3771  0.2308  0.6747
18982TIP3   OH278436   1.828   1.905   4.162 -0.0145  0.4297  0.0403
18982TIP3    H178437   1.824   2.001   4.157 -4.1682  0.6772  2.8393
18982TIP3    H278438   1.770   1.876   4.092  1.3899 -0.1533 -0.9296
18983TIP3   OH278439   0.991   4.611   4.680  0.0919  0.1089 -0.1907
18983TIP3    H178440   1.050   4.636   4.609 -1.7903  0.9497 -1.5534
18983TIP3    H278441   0.907   4.595   4.637 -0.6463 -1.2990  1.6317
18984TIP3   OH278442   5.250   5.153   0.973 -0.3116  0.0496 -0.1311
18984TIP3    H178443   5.185   5.199   0.920  0.4438  0.3785 -0.7883
18984TIP3    H278444   5.335   5.181   0.937  0.1851 -2.4174 -1.0603
18985TIP3   OH278445   3.847   4.396   0.089  0.6619  0.2724  0.2862
18985TIP3    H178446   3.927   4.436   0.125  1.1974 -1.1016  0.6732
18985TIP3    H278447   3.802   4.360   0.165 -0.5863  1.4083  0.1340
18986TIP3   OH278448   0.828   3.461   5.442  0.4743  0.0633  0.0779
18986TIP3    H178449   0.808   3.500   5.527  1.0635 -1.1090  0.7742
18986TIP3    H278450   0.848   3.536   5.385  3.0289  0.7685  1.7405
18987TIP3   OH278451   1.099   6.013  13.382 -0.2454  0.1892 -0.5319
18987TIP3    H178452   1.076   5.944  13.320  1.4651 -0.2753 -0.7056
18987TIP3    H278453   1.182   5.985  13.420  0.4835  2.1239 -0.5690
18988TIP3   OH278454   5.902   1.718   2.984 -0.5642  0.0480  0.1815
18988TIP3    H178455   5.953   1.646   3.021  0.9254  2.0475  2.3303
18988TIP3    H278456   5.962   1.759   2.921 -1.4007 -0.5248 -1.0280
18989TIP3   OH278457   3.379   5.357  13.842 -0.2955  0.0955 -0.4266
18989TIP3    H178458   3.310   5.293  13.858 -0.7309  0.6483 -0.0638
18989TIP3    H278459   3.334   5.441  13.837  0.3525  0.4724 -0.1664
18990TIP3   OH278460   2.933   4.666   2.260  0.1380  0.2811 -0.2758
18990TIP3    H178461   3.011   4.695   2.213  0.4865 -0.8501 -0.4322
18990TIP3    H278462   2.952   4.575   2.283 -0.4385  0.5068  1.1871
18991TIP3   OH278463   3.573   2.727  14.453  0.7945 -0.3202  0.2134
18991TIP3    H178464   3.530   2.723  14.367  1.9925  1.8252 -0.5787
18991TIP3    H278465   3.626   2.648  14.457  1.3594 -0.0661 -1.4203
18992TIP3   OH278466   1.816   6.198   5.090  0.7544  0.4976  0.0651
18992TIP3    H178467   1.865   6.174   5.168  0.2014 -0.0405  0.2582
18992TIP3    H278468   1.726   6.173   5.110  0.4594  1.1386 -0.4184
18993TIP3   OH278469   1.602   4.739   6.244 -0.5780 -0.4150 -0.0424
18993TIP3    H178470   1.543   4.787   6.302 -1.6188 -2.3086  0.5634
18993TIP3    H278471   1.555   4.736   6.160 -1.2361 -1.6175  0.3423
18994TIP3   OH278472   6.785   2.335  15.035  0.3302  0.1108 -0.1867
18994TIP3    H178473   6.774   2.323  15.130  0.9482 -0.5284 -0.1817
18994TIP3    H278474   6.733   2.264  14.996  0.8351 -0.2009 -0.2947
18995TIP3   OH278475   0.202   4.056   3.575 -0.0697  0.7406  0.9237
18995TIP3    H178476   0.187   4.133   3.520  0.6263  1.9962  2.3810
18995TIP3    H278477   0.132   4.060   3.641  0.7365  0.9041  1.7908
18996TIP3   OH278478   3.205   2.084  12.140  0.2869  1.1325  0.9830
18996TIP3    H178479   3.216   2.168  12.185  1.3421  1.7106 -0.2592
18996TIP3    H278480   3.265   2.090  12.065 -1.2055  0.1301 -0.3495
18997TIP3   OH278481   3.218   1.768   2.757 -0.0691  0.0102  0.3977
18997TIP3    H178482   3.238   1.722   2.838  2.5733  2.3675  1.2759
18997TIP3    H278483   3.125   1.791   2.763 -0.6268 -2.3165  1.3509
18998TIP3   OH278484   1.813   2.144   4.022  0.3643  0.2115 -0.3170
18998TIP3    H178485   1.771   2.221   4.058  1.2574  1.3287 -1.5695
18998TIP3    H278486   1.761   2.121   3.945 -1.2051 -1.8236  1.2305
18999TIP3   OH278487   5.441   1.060   3.750  0.6864  0.8840 -0.1288
18999TIP3    H178488   5.531   1.091   3.745  1.2482 -0.4826  0.8216
18999TIP3    H278489   5.449   0.965   3.758 -0.8863  0.6359 -1.0426
19000TIP3   OH278490   5.665   5.452   3.857  0.5277 -0.1265  0.2469
19000TIP3    H178491   5.730   5.410   3.801  1.6611  2.7235 -0.7602
19000TIP3    H278492   5.714   5.477   3.936  0.4734  1.1633 -0.1011
19001TIP3   OH278493   3.587   6.082   3.822  0.1268 -0.2017 -0.5220
19001TIP3    H178494   3.610   6.151   3.884  0.7019 -0.4411 -0.4573
19001TIP3    H278495   3.507   6.113   3.779 -0.1590  0.0602  0.1881
19002TIP3   OH278496   2.751   3.188   5.109 -0.1210  0.4393 -0.4314
19002TIP3    H178497   2.680   3.237   5.149  0.2317  0.3622  0.3158
19002TIP3    H278498   2.727   3.096   5.123  0.6784  0.4010  0.8971
19003TIP3   OH278499   2.596   5.355  12.862 -0.0951  0.3552  0.3235
19003TIP3    H178500   2.609   5.354  12.767 -0.0199  2.9580  0.2209
19003TIP3    H278501   2.642   5.434  12.891 -2.4937  1.2101  2.1078
19004TIP3   OH278502   5.680   5.728  15.799 -0.0623  0.0263 -0.3503
19004TIP3    H178503   5.709   5.657  15.856 -0.0851 -0.1418 -0.5478
19004TIP3    H278504   5.587   5.739  15.820  0.6419  2.3521  2.2213
19005TIP3   OH278505   2.860   0.779   3.407 -0.4493  0.5039 -0.0419
19005TIP3    H178506   2.941   0.745   3.445  0.5342  2.4585 -0.2509
19005TIP3    H278507   2.876   0.780   3.313 -0.7725  0.7666 -0.0946
19006TIP3   OH278508   5.106   3.071   3.454  0.1114 -0.4280  0.0124
19006TIP3    H178509   5.111   3.072   3.358  1.1480  1.3217  0.0354
19006TIP3    H278510   5.159   2.996   3.480  0.0511 -0.7548 -0.7756
19007TIP3   OH278511   5.762   2.533   4.695  0.4259 -0.1178  0.0982
19007TIP3    H178512   5.743   2.580   4.776  0.2762 -1.2321  0.7307
19007TIP3    H278513   5.780   2.601   4.631 -2.7413  0.9736  0.1852
19008TIP3   OH278514   3.412   0.063  15.043  0.5149  0.6045  0.0094
19008TIP3    H178515   3.466   0.093  15.117  2.1182 -1.5046 -0.1915
19008TIP3    H278516   3.339   0.017  15.084 -0.7663  2.7767  0.2747
19009TIP3   OH278517   2.517   3.973  12.068  0.3270 -0.9301 -0.3157
19009TIP3    H178518   2.438   4.001  12.022  1.0167 -1.9414 -2.2213
19009TIP3    H278519   2.556   4.055  12.099 -1.0013 -0.3509 -0.1062
19010TIP3   OH278520   3.669   4.630   5.470  0.4741  0.2768  0.5381
19010TIP3    H178521   3.607   4.639   5.398 -0.0271 -0.8496  0.8128
19010TIP3    H278522   3.747   4.678   5.441  1.1802 -2.0712 -1.8120
19011TIP3   OH278523   2.393   0.522   0.824  0.1129 -0.0725 -0.2990
19011TIP3    H178524   2.313   0.564   0.792 -0.0123  1.2016  1.5472
19011TIP3    H278525   2.456   0.594   0.834  0.6375 -0.6490  0.7517
19012TIP3   OH278526   0.940   0.244  16.068 -0.3507  0.4041  0.2021
19012TIP3    H178527   0.921   0.333  16.099 -0.4458  0.1547  0.8893
19012TIP3    H278528   1.000   0.209  16.134 -0.7261 -0.2174  0.2237
19013TIP3   OH278529   0.213   4.825  13.611  0.5962  0.1416 -0.2186
19013TIP3    H178530   0.154   4.793  13.679  0.7675  0.5868  0.1427
19013TIP3    H278531   0.169   4.901  13.574  1.4410  1.1941  0.8458
19014TIP3   OH278532   2.530   0.613   0.479 -0.4862  0.1509 -0.3011
19014TIP3    H178533   2.621   0.608   0.508 -0.0624 -1.5066 -1.7450
19014TIP3    H278534   2.490   0.531   0.508 -0.5433 -0.7074 -2.5958
19015TIP3   OH278535   3.081   5.301   2.122  0.1775  0.2151 -0.2450
19015TIP3    H178536   3.045   5.319   2.035  0.5917 -0.3969 -0.5521
19015TIP3    H278537   3.040   5.218   2.148 -1.3640  1.2912  0.9548
19016TIP3   OH278538   2.876   6.057   5.813  0.3340  0.6168  0.5029
19016TIP3    H178539   2.781   6.062   5.799  0.4227 -0.9401 -1.0891
19016TIP3    H278540   2.885   6.033   5.905 -0.8725 -0.1307  0.4559
19017TIP3   OH278541   0.232   0.023   5.124  0.1455 -0.3839 -0.1642
19017TIP3    H178542   0.287   0.098   5.100 -0.7225 -0.4461 -2.6592
19017TIP3    H278543   0.295  -0.045   5.149  1.1120  0.2036 -0.8967
19018TIP3   OH278544   6.623   4.350  13.080  0.2068  0.1638  0.0765
19018TIP3    H178545   6.652   4.294  13.008 -2.0037 -0.2370 -0.5861
19018TIP3    H278546   6.535   4.319  13.100 -0.5935  2.5462  0.5581
19019TIP3   OH278547   0.354   4.567  16.129  0.4678  0.1767 -0.1864
19019TIP3    H178548   0.356   4.662  16.116 -0.3552 -0.0125 -2.1271
19019TIP3    H278549   0.442   4.538  16.101  0.4204  0.2970 -0.4696
19020TIP3   OH278550   4.232   3.768  14.066  0.8941  0.2595 -0.4547
19020TIP3    H178551   4.185   3.705  14.012 -0.6861  1.3580 -0.4308
19020TIP3    H278552   4.208   3.745  14.156  1.5631 -0.0614 -0.3563
19021TIP3   OH278553   0.073   5.951   5.971  0.2210  0.2510 -0.1941
19021TIP3    H178554   0.026   5.873   6.000 -1.6745  0.7404 -1.7234
19021TIP3    H278555   0.166   5.930   5.984 -0.0854 -2.9424 -2.1129
19022TIP3   OH278556   3.731   6.283  14.253 -0.2053  0.1117 -0.2879
19022TIP3    H178557   3.711   6.211  14.193 -0.7373  0.0579 -0.0489
19022TIP3    H278558   3.725   6.243  14.340  1.3803 -0.0228 -0.2049
19023TIP3   OH278559   4.299   5.746  15.766 -0.3993  0.1093  0.4832
19023TIP3    H178560   4.256   5.676  15.816  1.0131 -0.1752  1.3554
19023TIP3    H278561   4.227   5.790  15.720 -1.4608 -1.1237  0.9035
19024TIP3   OH278562   1.505   3.054  12.682 -0.0396 -0.2490  0.3394
19024TIP3    H178563   1.419   3.021  12.708  0.0425 -0.2845  0.5783
19024TIP3    H278564   1.488   3.126  12.623 -0.2612  0.5934  1.4013
19025TIP3   OH278565   4.259   3.185  16.152  0.0272 -0.1000  0.0713
19025TIP3    H178566   4.330   3.244  16.175  0.0459  0.2237 -0.7749
19025TIP3    H278567   4.252   3.125  16.226 -1.6670  2.4660  2.1999
19026TIP3   OH278568   5.827   0.175   3.357  0.0698  0.5391 -0.2588
19026TIP3    H178569   5.826   0.177   3.452 -0.7502  0.9810 -0.2645
19026TIP3    H278570   5.919   0.184   3.333  0.1880  1.3892  0.4786
19027TIP3   OH278571   2.875   4.179   1.602 -0.7949  0.0807  0.0693
19027TIP3    H178572   2.919   4.171   1.686  0.7328 -0.0506 -0.7138
19027TIP3    H278573   2.835   4.266   1.603 -1.2617 -0.1369  1.1312
19028TIP3   OH278574   0.316   3.567   0.166  0.2373 -0.0814  0.4254
19028TIP3    H178575   0.316   3.595   0.075 -1.5999 -0.7164  0.1928
19028TIP3    H278576   0.325   3.648   0.216  0.8679  0.3115 -0.3001
19029TIP3   OH278577   1.028   5.457  11.318  0.2925 -0.5648  0.3165
19029TIP3    H178578   1.018   5.550  11.298  0.0832 -0.7863 -0.6864
19029TIP3    H278579   1.065   5.420  11.238 -1.0174 -1.5972  0.1506
19030TIP3   OH278580   4.773   3.242  14.602  0.1166 -0.1484 -0.4996
19030TIP3    H178581   4.845   3.196  14.645 -1.0241 -1.0890  0.4398
19030TIP3    H278582   4.706   3.251  14.669 -1.8191 -1.8413 -2.0870
19031TIP3   OH278583   2.116   5.323   1.451 -0.8853  0.3925  0.0010
19031TIP3    H178584   2.203   5.288   1.430 -0.8074  1.6059 -1.9690
19031TIP3    H278585   2.062   5.245   1.467  0.4164 -0.3917  0.7787
19032TIP3   OH278586   4.374   6.125  16.725 -0.1656 -0.2451 -0.3728
19032TIP3    H178587   4.365   6.136  16.820 -1.7633  0.9995 -0.6330
19032TIP3    H278588   4.313   6.054  16.704 -0.3033 -0.0752 -0.5489
19033TIP3   OH278589   5.242   4.442   1.893 -0.3726 -0.2150  0.4977
19033TIP3    H178590   5.194   4.366   1.860 -1.0970  0.2149  0.5509
19033TIP3    H278591   5.234   4.508   1.825  0.0420 -0.0956  0.5615
19034TIP3   OH278592   6.567   3.637  15.598 -0.0985  0.0693 -0.2021
19034TIP3    H178593   6.615   3.563  15.563  0.7918  0.8421 -0.6630
19034TIP3    H278594   6.600   3.648  15.687 -0.5452 -0.3465  0.0187
19035TIP3   OH278595   2.667   0.804   4.723 -0.1169  0.6474 -0.1979
19035TIP3    H178596   2.599   0.756   4.675 -0.0307  2.9734 -2.9508
19035TIP3    H278597   2.627   0.888   4.742  0.8776  0.7948  1.3176
19036TIP3   OH278598   4.799   0.865   2.291  0.3437  0.0570 -0.5485
19036TIP3    H178599   4.720   0.912   2.318 -0.3604 -1.2536 -0.2275
19036TIP3    H278600   4.804   0.879   2.197  0.5499  1.3326 -0.3692
19037TIP3   OH278601   0.133   1.423  15.779  0.2010  0.2921  0.8050
19037TIP3    H178602   0.155   1.341  15.822  1.2373  0.6353  0.9785
19037TIP3    H278603   0.168   1.414  15.691 -0.2476  0.3114  0.6218
19038TIP3   OH278604   0.263   4.786  12.562 -0.2761 -0.3124 -0.5080
19038TIP3    H178605   0.305   4.719  12.617  0.5735  1.3655  0.9907
19038TIP3    H278606   0.181   4.806  12.607  0.1845  0.7088 -0.1014
19039TIP3   OH278607   2.811   2.184  15.969  0.0590 -0.3275 -0.2332
19039TIP3    H178608   2.757   2.261  15.951  1.5694  0.3802 -2.0960
19039TIP3    H278609   2.756   2.109  15.944 -1.3116  0.1097  1.3072
19040TIP3   OH278610   0.517   0.429  15.070 -0.2737 -0.4827 -0.1824
19040TIP3    H178611   0.586   0.491  15.048 -2.2176  1.7234 -0.3766
19040TIP3    H278612   0.465   0.421  14.990 -0.5682 -1.7211  0.1009
19041TIP3   OH278613   1.788   5.460  15.128 -0.6014  0.3034  0.2073
19041TIP3    H178614   1.830   5.521  15.188 -1.0783 -0.1047  0.9669
19041TIP3    H278615   1.697   5.456  15.158 -0.6379 -0.5611 -0.0150
19042TIP3   OH278616   0.587   5.957  13.855  0.0112  0.0307 -0.0751
19042TIP3    H178617   0.532   5.912  13.790  0.5325 -1.1047  0.2418
19042TIP3    H278618   0.653   6.002  13.803  0.2914 -0.6911 -0.3605
19043TIP3   OH278619   3.886   1.005   2.686  0.1921  0.9285 -0.2809
19043TIP3    H178620   3.889   0.910   2.703 -1.6279  0.9542  0.4492
19043TIP3    H278621   3.837   1.013   2.605  0.6323  1.2332 -0.5159
19044TIP3   OH278622   1.266   4.093  13.829 -0.3575 -0.3651 -0.1325
19044TIP3    H178623   1.208   4.159  13.791 -1.2049 -0.6976  0.5444
19044TIP3    H278624   1.353   4.115  13.797 -0.9569 -0.2718 -1.7469
19045TIP3   OH278625   0.371   5.802   0.690 -0.2990  0.2303 -0.1912
19045TIP3    H178626   0.408   5.826   0.775  0.9971  0.1625 -0.7170
19045TIP3    H278627   0.379   5.706   0.686  1.2777  0.3741 -1.0949
19046TIP3   OH278628   4.426   2.939  11.148 -0.1047 -0.1252 -0.5651
19046TIP3    H178629   4.408   3.022  11.104 -0.4008  1.5603  2.4583
19046TIP3    H278630   4.349   2.924  11.203  1.1372 -0.8865  1.0487
19047TIP3   OH278631   0.328   5.392  12.700  0.2272  0.0513 -0.0181
19047TIP3    H178632   0.375   5.475  12.708  0.7189 -0.2219 -0.0173
19047TIP3    H278633   0.367   5.336  12.767 -0.1553 -0.1565  0.0326
19048TIP3   OH278634   4.335   5.738  16.966  0.9331 -0.3897  0.0629
19048TIP3    H178635   4.285   5.816  16.989  2.6557  0.4845  1.0325
19048TIP3    H278636   4.367   5.755  16.877  2.2033  0.5353  0.6706
19049TIP3   OH278637   1.484   4.205   1.723  0.1471  0.5725 -0.0141
19049TIP3    H178638   1.572   4.230   1.752 -0.2762  0.8288  1.1278
19049TIP3    H278639   1.437   4.288   1.715 -0.8190  0.3203  2.2815
19050TIP3   OH278640   3.237   0.251   5.355  0.4070 -0.2128  0.2125
19050TIP3    H178641   3.169   0.291   5.409  1.0289 -0.4801  1.2307
19050TIP3    H278642   3.318   0.265   5.405  0.9268 -0.9027 -0.4179
19051TIP3   OH278643   2.792   5.861   4.178 -0.1632 -0.1959 -0.1309
19051TIP3    H178644   2.863   5.799   4.165  0.0327  0.1706 -0.8597
19051TIP3    H278645   2.819   5.914   4.253 -0.3003 -0.9341  0.4460
19052TIP3   OH278646   2.523   4.822  10.472  0.0968  0.3480 -0.0195
19052TIP3    H178647   2.494   4.818  10.381 -0.0666 -0.7783  0.0699
19052TIP3    H278648   2.451   4.784  10.522  1.3020 -1.6243  0.2955
19053TIP3   OH278649   3.610   0.565  15.910 -0.1794 -0.0180  0.1052
19053TIP3    H178650   3.586   0.507  15.838 -1.4727  0.7641 -0.1237
19053TIP3    H278651   3.527   0.596  15.946  0.4579  0.0537  1.5797
19054TIP3   OH278652   0.489   6.281   2.868  0.0275 -0.5837 -0.1925
19054TIP3    H178653   0.487   6.187   2.846  2.1266 -0.0208 -3.6298
19054TIP3    H278654   0.399   6.311   2.856 -0.5571 -2.0044  0.3992
19055TIP3   OH278655   4.399   1.853  11.985  0.0449 -0.2687  0.1855
19055TIP3    H178656   4.485   1.845  11.945 -0.6440 -0.2570 -1.3798
19055TIP3    H278657   4.372   1.763  12.003 -1.6357 -0.8891 -4.0185
19056TIP3   OH278658   4.008   2.306  13.749  0.3661  0.2681  0.5435
19056TIP3    H178659   3.926   2.343  13.717 -0.9090 -2.0923  0.8572
19056TIP3    H278660   4.041   2.254  13.676  1.9087  1.5798  0.2430
19057TIP3   OH278661   6.069   4.770  15.850  0.1112 -0.3921 -0.1206
19057TIP3    H178662   6.117   4.690  15.829  1.3275  0.1959  0.3679
19057TIP3    H278663   6.136   4.837  15.857 -0.9285  0.7931 -1.0065
19058TIP3   OH278664   4.284   3.778   2.021  0.0648  0.4079 -0.0236
19058TIP3    H178665   4.326   3.819   1.946 -1.6838  0.9135 -0.7800
19058TIP3    H278666   4.305   3.834   2.095  0.2313  0.9595 -0.4861
19059TIP3   OH278667   3.192   1.930  15.506 -0.1842  0.1180 -0.8038
19059TIP3    H178668   3.180   1.967  15.418 -1.4422 -1.7393 -1.4648
19059TIP3    H278669   3.141   1.986  15.563  0.6866  1.3820 -1.2147
19060TIP3   OH278670   6.630   3.388  15.704 -0.5721  0.4228  0.0576
19060TIP3    H178671   6.537   3.381  15.680 -0.4805  0.5561 -0.3495
19060TIP3    H278672   6.643   3.319  15.769 -0.5112 -0.8763 -1.2929
19061TIP3   OH278673   1.051   3.987  16.742 -0.0159 -0.1833  0.4466
19061TIP3    H178674   1.094   3.903  16.757  0.7741  0.1683  0.2022
19061TIP3    H278675   1.112   4.035  16.686 -1.6028 -0.4232 -1.6140
19062TIP3   OH278676   5.144   0.147  11.121 -0.6788  0.0358 -0.3060
19062TIP3    H178677   5.186   0.105  11.047 -0.5776  0.3530 -0.4318
19062TIP3    H278678   5.144   0.081  11.190 -0.7185 -0.2372 -0.5691
19063TIP3   OH278679   4.212   0.430  13.655 -0.0477  0.2359  0.2611
19063TIP3    H178680   4.186   0.338  13.652  0.2409  0.0768  1.8559
19063TIP3    H278681   4.153   0.470  13.719 -1.0871  1.5147 -1.3859
19064TIP3   OH278682   3.602   5.997   2.161 -0.1371  0.4301  0.4115
19064TIP3    H178683   3.667   6.022   2.226 -0.8058 -0.1095  1.3096
19064TIP3    H278684   3.653   5.972   2.084  0.6641  1.0652  0.7306
19065TIP3   OH278685   3.670   1.519  11.508  0.9269 -0.5952 -0.1106
19065TIP3    H178686   3.732   1.521  11.580  1.0288 -1.1343 -0.1838
19065TIP3    H278687   3.612   1.445  11.527  0.0247  0.1628  0.1854
19066TIP3   OH278688   5.519   0.719   2.375  1.0683  0.3773 -0.2961
19066TIP3    H178689   5.433   0.750   2.403  1.4228  1.0543  0.0661
19066TIP3    H278690   5.530   0.755   2.286  0.3685 -0.9326 -0.9340
19067TIP3   OH278691   6.385   6.783  16.470  1.1478 -0.4793  0.1677
19067TIP3    H178692   6.295   6.757  16.489  1.1703  0.5111  1.8653
19067TIP3    H278693   6.405   6.744  16.385 -0.6906 -1.1719  0.0267
19068TIP3   OH278694   3.362   4.801  13.147 -0.2412  0.1953 -0.0870
19068TIP3    H178695   3.295   4.788  13.215 -0.0209  1.1085  0.3220
19068TIP3    H278696   3.402   4.714  13.137 -2.1984 -0.6476 -1.1327
19069TIP3   OH278697   3.517   3.515   3.288  0.3741  0.5711  0.9925
19069TIP3    H178698   3.449   3.544   3.349 -0.0284  0.4991  0.5796
19069TIP3    H278699   3.497   3.423   3.273  0.8088  0.4421  1.1894
19070TIP3   OH278700   0.568   4.817   5.730 -0.2495  0.6099 -0.3728
19070TIP3    H178701   0.554   4.784   5.818  1.2200  0.6386 -0.0971
19070TIP3    H278702   0.608   4.903   5.743  0.2840  0.4764 -1.0556
19071TIP3   OH278703   0.509   6.201   4.719  0.1718 -0.4514  0.7766
19071TIP3    H178704   0.453   6.133   4.683  2.0261 -1.5937 -0.0780
19071TIP3    H278705   0.501   6.192   4.814 -0.0213 -1.5046  0.6645
19072TIP3   OH278706   4.526   2.483  11.718 -0.1359 -0.1761 -0.1855
19072TIP3    H178707   4.436   2.515  11.728  0.0096  0.0240  0.5873
19072TIP3    H278708   4.517   2.401  11.669 -1.0578 -1.6920  2.3137
19073TIP3   OH278709   6.583   2.421  12.138  0.2518  0.6749  0.2876
19073TIP3    H178710   6.576   2.484  12.067 -0.1994  2.2840  1.6857
19073TIP3    H278711   6.510   2.442  12.196 -1.4111 -2.7069 -0.3037
19074TIP3   OH278712   1.793   1.338  11.579 -0.4561  0.0550 -0.1061
19074TIP3    H178713   1.877   1.309  11.545 -0.5717  1.8227 -2.1726
19074TIP3    H278714   1.812   1.418  11.627 -0.8615 -0.0375  0.2219
19075TIP3   OH278715   0.330   5.569  10.805  0.2577  0.2884 -0.0378
19075TIP3    H178716   0.302   5.659  10.792  0.7165  0.3323 -0.8441
19075TIP3    H278717   0.418   5.577  10.844 -0.4434  0.1612  1.6493
19076TIP3   OH278718   3.423   2.829  15.445 -0.6823  0.5369 -0.6343
19076TIP3    H178719   3.491   2.764  15.426  0.2931  1.0200  0.9874
19076TIP3    H278720   3.344   2.777  15.462 -0.3479 -0.1266 -1.0912
19077TIP3   OH278721   6.567   5.709  11.783  0.2267 -0.3290 -0.5940
19077TIP3    H178722   6.531   5.735  11.698 -2.8158 -0.5739  0.4759
19077TIP3    H278723   6.554   5.614  11.786  0.8532 -0.4013 -0.0825
19078TIP3   OH278724   0.075   0.045  15.823 -0.2660  0.5993 -0.1402
19078TIP3    H178725   0.142  -0.019  15.800 -0.0375  0.8053 -0.0571
19078TIP3    H278726   0.003  -0.007  15.860  0.1331  0.4343  0.4136
19079TIP3   OH278727   1.122   5.584   2.915 -0.1144 -0.3498  0.0429
19079TIP3    H178728   1.151   5.671   2.885 -2.0763  1.1190  2.0438
19079TIP3    H278729   1.178   5.565   2.990  0.0227 -0.6047 -0.1248
19080TIP3   OH278730   6.400   6.046  15.021  0.0081 -0.2641 -0.0560
19080TIP3    H178731   6.451   6.116  15.063  0.0977  0.1854 -0.8851
19080TIP3    H278732   6.312   6.057  15.056  0.0166  0.2876 -0.1878
19081TIP3   OH278733   1.847   0.265  14.526 -0.4003 -0.3171 -0.3218
19081TIP3    H178734   1.762   0.307  14.539  0.3812  0.9603  0.8772
19081TIP3    H278735   1.892   0.275  14.610  0.9423 -0.9713 -0.9379
19082TIP3   OH278736   3.578   0.967   4.779  0.6262 -0.4164 -0.4493
19082TIP3    H178737   3.635   0.956   4.854  0.1726  1.0212  0.1485
19082TIP3    H278738   3.566   1.062   4.772 -0.8268 -0.6270 -1.1986
19083TIP3   OH278739   3.174   5.016  15.049  0.2911 -0.0727 -0.2678
19083TIP3    H178740   3.146   5.021  14.957 -1.1098 -0.6068  0.1062
19083TIP3    H278741   3.223   5.097  15.063 -1.0240  0.8967 -0.9939
19084TIP3   OH278742   1.116   1.257  12.073  0.3249 -0.0465  0.4758
19084TIP3    H178743   1.026   1.240  12.103  0.2309 -1.9808 -0.6968
19084TIP3    H278744   1.170   1.244  12.150 -0.3367  0.6124  1.0739
19085TIP3   OH278745   0.711   6.014  16.221 -0.4348 -0.4428 -0.3565
19085TIP3    H178746   0.739   6.090  16.171  0.1150  0.1645  0.8390
19085TIP3    H278747   0.760   5.941  16.184 -0.9736 -0.2379 -1.5139
19086TIP3   OH278748   5.393   0.961   1.047  0.1772  0.3506 -0.0569
19086TIP3    H178749   5.441   0.885   1.015 -0.7401  0.2046 -1.1364
19086TIP3    H278750   5.315   0.925   1.089  0.1642  0.6700  0.2048
19087TIP3   OH278751   2.269   6.336  13.506  0.2636  0.2260  0.2287
19087TIP3    H178752   2.294   6.367  13.418 -1.2437  0.8431 -0.0210
19087TIP3    H278753   2.309   6.400  13.565  1.6422 -0.4291  0.0428
19088TIP3   OH278754   5.089   3.452   3.714  0.1547 -0.0387 -0.1246
19088TIP3    H178755   5.114   3.368   3.676  0.2765 -0.5063  0.9604
19088TIP3    H278756   5.103   3.442   3.808  0.2540  1.2247  0.0247
19089TIP3   OH278757   5.490   5.494   6.230  0.0427  1.0615 -0.0971
19089TIP3    H178758   5.443   5.422   6.272 -0.1459  0.1263 -1.7885
19089TIP3    H278759   5.476   5.569   6.287 -0.3866 -0.0658  1.3408
19090TIP3   OH278760   0.006   4.315  11.564 -0.4958 -0.1047 -0.4901
19090TIP3    H178761  -0.086   4.297  11.583 -1.4147  2.3244 -2.1187
19090TIP3    H278762   0.008   4.333  11.471  1.7418 -0.4244 -0.5593
19091TIP3   OH278763   0.709   0.950   1.242 -0.1757  0.4541  0.2069
19091TIP3    H178764   0.737   0.960   1.333 -1.8429  0.7448  0.7344
19091TIP3    H278765   0.659   0.868   1.241 -0.0740  0.3946 -0.4769
19092TIP3   OH278766   2.479   4.176   1.490 -0.1095  0.2841 -0.2914
19092TIP3    H178767   2.562   4.135   1.469  0.3068 -0.5037  2.5841
19092TIP3    H278768   2.494   4.270   1.475  1.2517  0.1334  0.0396
19093TIP3   OH278769   6.172   1.053   2.445  0.4174  0.1340 -0.0115
19093TIP3    H178770   6.182   1.063   2.350 -0.6529  2.2376  0.0298
19093TIP3    H278771   6.190   1.140   2.480  0.8178 -0.6138  1.7453
19094TIP3   OH278772   3.559   4.865  16.669 -0.2399 -0.3956  0.2162
19094TIP3    H178773   3.602   4.792  16.623 -1.4390 -0.9433 -0.0636
19094TIP3    H278774   3.468   4.837  16.678 -0.8253  1.2525 -0.2736
19095TIP3   OH278775   0.910   2.621   5.878  0.2172 -0.1569 -0.6542
19095TIP3    H178776   0.851   2.563   5.926 -0.5558 -0.1412 -1.5629
19095TIP3    H278777   0.872   2.708   5.890  1.0681  0.1052  0.2467
19096TIP3   OH278778   3.479   2.015  16.047  0.2730 -0.4360 -0.2736
19096TIP3    H178779   3.431   2.073  15.990 -0.9683 -2.1949 -1.1163
19096TIP3    H278780   3.570   2.019  16.015  0.3478  1.3836  0.0553
19097TIP3   OH278781   0.776   0.054   3.064  0.1629 -0.0030  0.0327
19097TIP3    H178782   0.767  -0.034   3.101 -0.1877  0.0717  0.1306
19097TIP3    H278783   0.837   0.044   2.992  1.9072  0.0809  1.4321
19098TIP3   OH278784   0.851   3.979  11.011 -0.4609 -0.7040  0.3577
19098TIP3    H178785   0.806   4.058  11.040 -1.0314  0.0725 -2.4337
19098TIP3    H278786   0.925   4.011  10.959 -0.2604 -1.9967 -0.1964
19099TIP3   OH278787   0.712   5.126  11.971  0.1797  0.3454 -0.0433
19099TIP3    H178788   0.731   5.039  11.936 -0.0821  0.2134  0.1399
19099TIP3    H278789   0.700   5.180  11.893  0.2537  0.1977 -0.1583
19100TIP3   OH278790   6.474   0.666   3.136  0.2135  0.0969  0.1076
19100TIP3    H178791   6.443   0.623   3.216 -0.8157  0.7713  0.1009
19100TIP3    H278792   6.455   0.759   3.151 -1.9790  0.0314 -1.7369
19101TIP3   OH278793   6.319   0.543  10.277  0.2517 -0.7235  0.3120
19101TIP3    H178794   6.313   0.613  10.212 -2.9452 -1.3020 -0.1645
19101TIP3    H278795   6.267   0.575  10.351  2.2399 -0.9053  1.8698
19102TIP3   OH278796   2.756   2.134  13.471  0.2151  0.6164 -0.4123
19102TIP3    H178797   2.686   2.083  13.512 -0.2629 -0.0319 -1.9469
19102TIP3    H278798   2.760   2.214  13.523 -2.1603  0.9723 -0.6208
19103TIP3   OH278799   1.978   2.621  15.989  0.3601 -0.1535  0.3286
19103TIP3    H178800   1.918   2.548  15.976 -1.5746  1.2634  0.8976
19103TIP3    H278801   1.983   2.631  16.084  1.1000  0.0850  0.2679
19104TIP3   OH278802   1.057   1.876  11.960  0.5630  0.2517  1.0045
19104TIP3    H178803   0.990   1.823  12.004  0.4374  1.2228  2.0212
19104TIP3    H278804   1.093   1.931  12.029  1.5712  0.6101  0.2185
19105TIP3   OH278805   5.998   1.589  13.258 -0.1589  0.3255  0.0043
19105TIP3    H178806   5.918   1.636  13.280 -1.0555 -0.8791 -0.5083
19105TIP3    H278807   6.005   1.595  13.163 -1.0119 -1.5757 -0.2379
19106TIP3   OH278808   3.712   0.877   4.114 -0.1031  0.3985  0.5634
19106TIP3    H178809   3.745   0.793   4.148 -1.0248 -0.5499 -0.7811
19106TIP3    H278810   3.788   0.917   4.071  0.6444  0.8332  2.2109
19107TIP3   OH278811   5.913   2.319  11.385 -0.2733 -0.1817 -0.4810
19107TIP3    H178812   5.965   2.286  11.458  0.8715  0.6076 -0.9111
19107TIP3    H278813   5.929   2.258  11.314 -1.5759 -1.0849 -0.0411
19108TIP3   OH278814   1.351   4.537  12.424 -0.1608  0.0546 -0.6594
19108TIP3    H178815   1.339   4.547  12.519  2.7333 -0.1660 -0.1992
19108TIP3    H278816   1.265   4.559  12.387 -1.4123  0.0382  1.9926
19109TIP3   OH278817   4.518   5.944  17.110  0.3952 -0.1167 -0.1210
19109TIP3    H178818   4.571   5.945  17.031  0.6329  0.7581  0.0431
19109TIP3    H278819   4.519   6.034  17.141 -0.6482 -0.2253  0.2495
19110TIP3   OH278820   2.818   2.280  13.950  0.4159 -0.2029 -0.0637
19110TIP3    H178821   2.871   2.282  14.030  0.8336 -0.2642 -0.3378
19110TIP3    H278822   2.782   2.369  13.944 -3.5162 -1.3306  2.7645
19111TIP3   OH278823   3.515   5.110  16.547  0.7517  0.4612  0.6062
19111TIP3    H178824   3.459   5.156  16.611  0.0073 -2.4651  2.2325
19111TIP3    H278825   3.545   5.032  16.593  2.0842 -0.6528 -1.9433
19112TIP3   OH278826   0.511   5.724   4.349  0.5094  0.1973  0.0042
19112TIP3    H178827   0.589   5.763   4.309  0.8507 -0.9872 -0.5423
19112TIP3    H278828   0.488   5.783   4.420  1.0069  1.3689 -0.7845
19113TIP3   OH278829   4.867   2.009   1.379  0.0535 -0.1295  0.1377
19113TIP3    H178830   4.853   1.980   1.289  0.2576  2.4675 -0.8227
19113TIP3    H278831   4.784   1.992   1.424 -1.2093  1.4219 -1.4606
19114TIP3   OH278832   3.071   1.822  12.889  0.3580 -0.4275 -0.2451
19114TIP3    H178833   3.085   1.728  12.892  0.6662 -0.3637  2.0187
19114TIP3    H278834   3.032   1.843  12.974 -0.6009  1.3652 -1.0714
19115TIP3   OH278835   3.376   3.003   0.208 -0.4335 -0.0312  0.3451
19115TIP3    H178836   3.291   3.046   0.195 -0.4755  0.4151  1.9613
19115TIP3    H278837   3.430   3.068   0.251 -0.0591 -1.1121  1.5726
19116TIP3   OH278838   4.215   2.366  16.065  0.0159  0.1373  0.0590
19116TIP3    H178839   4.294   2.405  16.027  0.3607  0.3780  0.9874
19116TIP3    H278840   4.143   2.419  16.033  0.0725 -0.8161 -1.8104
19117TIP3   OH278841   2.946   3.885  14.337  0.5890 -0.1047 -0.2689
19117TIP3    H178842   2.933   3.951  14.269 -0.1040  1.0510  0.9405
19117TIP3    H278843   2.870   3.895  14.394  1.6036 -0.4352  1.1729
19118TIP3   OH278844   6.678   2.687   0.515 -0.1127 -0.2810 -0.1642
19118TIP3    H178845   6.760   2.725   0.484 -0.2614  0.4033  0.2425
19118TIP3    H278846   6.610   2.745   0.480 -0.2507  0.9720  1.9619
19119TIP3   OH278847   6.804   2.107   5.556  0.5102 -0.3343  0.5254
19119TIP3    H178848   6.862   2.075   5.625  0.1855 -3.0948 -0.3508
19119TIP3    H278849   6.862   2.123   5.482  0.4575 -0.7667  0.3873
19120TIP3   OH278850   6.595   5.024  11.306 -0.6878 -0.1091  0.4939
19120TIP3    H178851   6.652   4.947  11.306  0.5179  0.7232  2.2351
19120TIP3    H278852   6.540   5.013  11.229  2.0321 -0.8138 -1.4912
19121TIP3   OH278853   5.682   3.051  15.398  0.3281  0.0188 -0.1294
19121TIP3    H178854   5.606   3.013  15.443  0.1259 -0.3896 -0.8041
19121TIP3    H278855   5.757   3.002  15.432  0.2605  0.2435  0.3440
19122TIP3   OH278856   0.236   3.773  12.518  0.0570  0.3436 -0.9707
19122TIP3    H178857   0.289   3.693  12.514  1.7935  1.4288 -0.5717
19122TIP3    H278858   0.298   3.842  12.542 -1.5182  1.7174 -0.6764
19123TIP3   OH278859   1.260   0.905   3.350  0.2275  0.1825  0.3716
19123TIP3    H178860   1.281   0.997   3.361  1.0014 -0.0804  1.2747
19123TIP3    H278861   1.168   0.897   3.373 -0.0625  0.8507 -0.5163
19124TIP3   OH278862   5.213   3.990  13.538 -0.3878 -0.0784  0.0011
19124TIP3    H178863   5.123   3.962  13.554 -0.8362  1.2196 -0.1829
19124TIP3    H278864   5.207   4.055  13.468  0.8940 -1.2113 -1.2195
19125TIP3   OH278865   5.825   6.028  13.423 -0.0421 -0.0648 -0.0295
19125TIP3    H178866   5.900   5.970  13.414  0.4873  0.6246 -0.1065
19125TIP3    H278867   5.825   6.053  13.516 -1.2256 -1.4363  0.3926
19126TIP3   OH278868   0.738   1.294   4.063 -0.2010 -0.1246 -0.3251
19126TIP3    H178869   0.673   1.321   3.998 -1.0142 -0.1412  0.4643
19126TIP3    H278870   0.782   1.219   4.023 -1.6505 -1.0169 -0.3119
19127TIP3   OH278871   2.643   3.667   1.677 -0.5749  0.0892 -0.3943
19127TIP3    H178872   2.638   3.731   1.606  0.6687  1.2201  0.4955
19127TIP3    H278873   2.669   3.585   1.633  1.7769  1.1224 -1.1196
19128TIP3   OH278874   0.006   6.399   2.483  0.0719 -0.2034  0.5116
19128TIP3    H178875  -0.020   6.382   2.393  2.9275 -1.9912 -0.1154
19128TIP3    H278876   0.007   6.494   2.491  0.0300 -0.0193 -1.4182
19129TIP3   OH278877   2.413   4.325   0.297 -0.1466 -0.1158  0.0558
19129TIP3    H178878   2.394   4.313   0.204  0.2219 -1.1237  0.1004
19129TIP3    H278879   2.504   4.356   0.298 -0.3291  0.4444  0.0663
19130TIP3   OH278880   1.478   3.977  15.371  0.3318 -0.2396  0.2904
19130TIP3    H178881   1.498   3.897  15.322  0.9301  0.7707 -1.1661
19130TIP3    H278882   1.407   4.018  15.323  1.2326  1.0020 -0.0295
19131TIP3   OH278883   4.623   2.747  11.738 -0.0182  0.1852  0.2201
19131TIP3    H178884   4.606   2.653  11.734 -2.2405  0.4804  1.1323
19131TIP3    H278885   4.537   2.786  11.756  0.7851  2.4276 -0.4707
19132TIP3   OH278886   6.222   4.979   0.673 -0.6202  0.0806  0.6375
19132TIP3    H178887   6.177   4.995   0.590 -0.3607  0.2797  0.5332
19132TIP3    H278888   6.152   4.956   0.734 -0.6881 -1.3374  0.0661
19133TIP3   OH278889   6.613   1.233  11.099 -0.2152  0.1731  0.1642
19133TIP3    H178890   6.623   1.271  11.012  0.9220  1.2007  0.7157
19133TIP3    H278891   6.563   1.298  11.148  1.8004  1.0878  1.1354
19134TIP3   OH278892   6.242   4.546   2.582 -0.0901 -0.5389  0.3094
19134TIP3    H178893   6.185   4.527   2.507 -1.9373  0.0426  1.4927
19134TIP3    H278894   6.329   4.518   2.553 -0.2293  1.7359 -2.8791
19135TIP3   OH278895   5.776   5.679  16.574 -0.1771  0.6104 -0.2388
19135TIP3    H178896   5.790   5.773  16.579  0.1314  0.5033  1.9178
19135TIP3    H278897   5.727   5.658  16.654  0.4355 -1.1495 -0.2859
19136TIP3   OH278898   2.969   0.723  13.994  0.2379  0.3091  0.1275
19136TIP3    H178899   3.052   0.712  13.948  0.4934 -1.1580  0.8936
19136TIP3    H278900   2.906   0.744  13.924  0.8517 -0.6598 -0.7480
19137TIP3   OH278901   4.316   6.777   4.877 -0.1883 -0.5828 -0.7239
19137TIP3    H178902   4.409   6.757   4.865  0.0898  1.0620 -1.6902
19137TIP3    H278903   4.279   6.774   4.788 -0.8054 -0.1079 -0.4881
19138TIP3   OH278904   3.824   3.694   1.234 -0.2329  0.0255 -0.3008
19138TIP3    H178905   3.841   3.758   1.166 -2.0965 -0.4522 -1.2924
19138TIP3    H278906   3.772   3.742   1.300 -0.1769 -0.0285 -0.2172
19139TIP3   OH278907   5.531   4.177  14.566  0.2988  0.3147  0.3013
19139TIP3    H178908   5.566   4.094  14.535 -0.1606  0.5532 -0.9166
19139TIP3    H278909   5.582   4.244  14.521 -1.1801  0.6674 -0.9380
19140TIP3   OH278910   0.950   5.102   0.123  0.2399  0.6751 -0.7902
19140TIP3    H178911   1.034   5.055   0.120 -0.8153 -1.2749 -1.2315
19140TIP3    H278912   0.954   5.163   0.049  0.4580 -0.9155 -2.1419
19141TIP3   OH278913   4.224   2.261   5.186 -0.0606  0.0926  0.7819
19141TIP3    H178914   4.310   2.241   5.223  0.4764 -1.9616 -1.3285
19141TIP3    H278915   4.235   2.348   5.146  1.0573 -0.1352  0.5562
19142TIP3   OH278916   3.278   4.663   3.324  0.3660  0.0373  0.1733
19142TIP3    H178917   3.205   4.724   3.334  1.1945  1.0993 -0.0797
19142TIP3    H278918   3.323   4.665   3.408  0.4573 -0.1242  0.1287
19143TIP3   OH278919   4.286   2.101  16.716 -0.1844  0.2773  0.6071
19143TIP3    H178920   4.349   2.170  16.737  0.0233 -0.0351  1.0389
19143TIP3    H278921   4.292   2.090  16.621  0.1343  0.5158  0.6009
19144TIP3   OH278922   6.018   4.000  11.843  0.2749  0.3966 -0.2088
19144TIP3    H178923   6.035   4.086  11.806 -0.3425  0.5992 -0.0529
19144TIP3    H278924   6.094   3.948  11.821  1.8365  1.6532  1.7882
19145TIP3   OH278925   4.028   0.295   3.132  0.4167 -0.1721 -0.1715
19145TIP3    H178926   4.080   0.249   3.197  0.4880  1.2725  0.8539
19145TIP3    H278927   3.940   0.261   3.143  0.4189  0.0777  0.7368
19146TIP3   OH278928   6.133   1.199  10.970 -0.6844 -0.6047  0.2030
19146TIP3    H178929   6.065   1.258  11.003  0.2208  0.5898  0.0151
19146TIP3    H278930   6.088   1.141  10.909 -1.2641  1.2891 -1.2646
19147TIP3   OH278931   4.122   4.714  14.737 -0.7686  0.1018 -0.8805
19147TIP3    H178932   4.149   4.719  14.646  1.8219  0.8652 -0.1778
19147TIP3    H278933   4.167   4.788  14.779 -1.9553 -0.1691  1.0020
19148TIP3   OH278934   2.127   5.553  10.459 -0.1258 -0.2000 -0.8567
19148TIP3    H178935   2.141   5.647  10.461  0.0326 -0.2148  1.9498
19148TIP3    H278936   2.185   5.522  10.389 -0.7346  1.7993 -2.3424
19149TIP3   OH278937   0.698   1.305   2.761  0.6436 -0.2107 -0.4224
19149TIP3    H178938   0.728   1.337   2.846 -0.7521  1.0346 -0.3672
19149TIP3    H278939   0.685   1.383   2.708  1.2588 -0.9573 -1.7278
19150TIP3   OH278940   6.194   6.738  11.836 -0.8352  0.2931 -0.0222
19150TIP3    H178941   6.249   6.811  11.807  0.5177 -0.3521  0.8016
19150TIP3    H278942   6.187   6.681  11.760 -1.1185  0.8153 -0.3912
19151TIP3   OH278943   4.600   4.894  11.267 -0.0126 -0.1254  0.0373
19151TIP3    H178944   4.644   4.889  11.183  1.7054 -0.3436  0.9173
19151TIP3    H278945   4.593   4.803  11.296  2.2567  0.0888  1.5039
19152TIP3   OH278946   5.561   3.136   5.345  0.2144  0.4837 -0.4930
19152TIP3    H178947   5.521   3.104   5.426 -0.0651 -0.9533 -1.1558
19152TIP3    H278948   5.538   3.229   5.341  1.2277  0.8732  1.6356
19153TIP3   OH278949   1.522   5.530   4.389  0.2237 -0.0768 -0.6171
19153TIP3    H178950   1.601   5.523   4.443  0.3502 -0.0948 -0.8043
19153TIP3    H278951   1.520   5.450   4.338  0.0312 -0.1200 -0.5444
19154TIP3   OH278952   4.555   6.123   4.997 -0.6246 -0.0719 -0.1374
19154TIP3    H178953   4.535   6.147   4.907 -0.7178 -0.4786 -0.2250
19154TIP3    H278954   4.634   6.174   5.018 -0.9431  0.4789 -0.2457
19155TIP3   OH278955   4.304   1.934   0.130  0.2563  0.8117  0.0503
19155TIP3    H178956   4.301   1.990   0.207  1.8425  1.1482 -0.0988
19155TIP3    H278957   4.341   1.852   0.161 -0.4432  0.4448 -0.0764
19156TIP3   OH278958   4.866   1.067  14.074  0.2373  0.0531 -0.0073
19156TIP3    H178959   4.826   1.072  13.987  1.1060  2.4537 -0.3437
19156TIP3    H278960   4.797   1.098  14.133 -0.1611 -1.0292  0.1149
19157TIP3   OH278961   0.424   3.574   5.035 -0.4034 -0.3995  0.3637
19157TIP3    H178962   0.415   3.490   5.079 -1.0892 -1.1955 -1.2149
19157TIP3    H278963   0.436   3.638   5.106  1.7773 -1.9889  1.5378
19158TIP3   OH278964   3.000   5.077  16.064  0.4468  0.0715 -0.6396
19158TIP3    H178965   3.043   5.051  15.982  1.7898 -2.6566  0.7851
19158TIP3    H278966   3.071   5.107  16.120 -0.4614  1.9032 -0.3853
19159TIP3   OH278967   4.669   4.563   2.549  0.5540 -0.0122  0.4581
19159TIP3    H178968   4.660   4.624   2.476 -1.5156 -0.7234  0.0380
19159TIP3    H278969   4.721   4.491   2.515  1.2347  0.5473  0.3055
19160TIP3   OH278970   3.664   1.932   4.597 -0.3992  0.4501  0.1372
19160TIP3    H178971   3.758   1.938   4.614 -0.1719 -1.9080  0.1394
19160TIP3    H278972   3.623   1.976   4.672  0.6806  1.5167  0.1298
19161TIP3   OH278973   2.857   2.502   0.937 -0.3695  0.3032  0.6602
19161TIP3    H178974   2.850   2.486   0.843  0.2621 -1.0043  0.8088
19161TIP3    H278975   2.768   2.497   0.970 -0.4343 -0.9109  0.3545
19162TIP3   OH278976   4.960   0.421  14.545  0.2293 -0.0305 -0.5215
19162TIP3    H178977   5.012   0.473  14.606 -2.1411 -0.8723  2.4776
19162TIP3    H278978   4.985   0.330  14.563 -3.3045 -0.6519  2.4451
19163TIP3   OH278979   4.346   3.964   2.234 -0.5162  0.9139 -0.3574
19163TIP3    H178980   4.254   3.989   2.233 -0.9608 -0.6348 -1.2950
19163TIP3    H278981   4.360   3.928   2.322 -1.5101 -1.1419 -0.9794
19164TIP3   OH278982   1.720   1.420  15.500  0.4225  0.2107 -0.2563
19164TIP3    H178983   1.688   1.335  15.531  0.6307  0.0108 -0.5882
19164TIP3    H278984   1.690   1.426  15.410 -2.6039  1.9887  0.7129
19165TIP3   OH278985   2.202   4.170  11.633  0.4371 -0.4854 -0.2768
19165TIP3    H178986   2.165   4.100  11.686  0.7320  0.6027  1.4550
19165TIP3    H278987   2.271   4.208  11.688  0.8028  0.6677 -1.4648
19166TIP3   OH278988   2.634   6.691   2.129 -0.1812  0.3670  0.0604
19166TIP3    H178989   2.715   6.715   2.085  1.4288  0.2056  2.7410
19166TIP3    H278990   2.570   6.755   2.099  1.4005  1.6373 -0.7082
19167TIP3   OH278991   1.335   1.831   3.798 -0.9004 -0.3171 -0.6942
19167TIP3    H178992   1.401   1.806   3.734 -1.2107 -1.3566 -0.6343
19167TIP3    H278993   1.303   1.916   3.768  0.6960  0.3899 -0.5298
19168TIP3   OH278994   4.756   1.796  17.078 -0.6923 -0.0499  0.0065
19168TIP3    H178995   4.801   1.758  17.003  0.8845  0.2643  0.7589
19168TIP3    H278996   4.665   1.807  17.048 -0.5197 -1.5659 -1.2390
19169TIP3   OH278997   5.699   1.423   5.754 -0.8526 -0.3472  0.1711
19169TIP3    H178998   5.770   1.470   5.710 -1.4272 -0.9195 -1.4367
19169TIP3    H278999   5.735   1.398   5.839  0.9984 -0.9498 -0.7471
19170TIP3   OH279000   2.242   1.517  16.624  0.1206 -0.1842  0.3805
19170TIP3    H179001   2.268   1.426  16.608  0.1617 -0.0217 -0.5233
19170TIP3    H279002   2.324   1.566  16.623 -0.1236  0.2641 -2.0180
19171TIP3   OH279003   4.447   3.665  16.979  0.0607 -0.6916 -0.5882
19171TIP3    H179004   4.438   3.573  17.004 -1.2968 -0.4532 -0.1032
19171TIP3    H279005   4.425   3.667  16.886  0.0127 -0.8514 -0.5808
19172TIP3   OH279006   1.814   2.831   0.109 -0.0102  0.0340 -0.0243
19172TIP3    H179007   1.720   2.849   0.108  0.0111  0.1651  0.4744
19172TIP3    H279008   1.825   2.761   0.174  0.5082  1.5568  1.5964
19173TIP3   OH279009   2.192   0.685  15.934 -0.0034 -0.6824 -0.7199
19173TIP3    H179010   2.254   0.668  16.005 -0.5820  0.2410  0.0396
19173TIP3    H279011   2.155   0.599  15.913  0.2279 -0.9819  0.0659
19174TIP3   OH279012   1.638   2.189   6.099  0.2980  0.0389  0.6025
19174TIP3    H179013   1.584   2.247   6.153  0.5012  1.2943 -0.4840
19174TIP3    H279014   1.579   2.160   6.030  0.6823  0.4502  0.0957
19175TIP3   OH279015   5.248   0.144  14.808  0.5661 -0.4202 -0.2913
19175TIP3    H179016   5.211   0.206  14.871  1.6957 -1.3591  1.3733
19175TIP3    H279017   5.335   0.180  14.788  0.4143 -0.3964 -0.9444
19176TIP3   OH279018   0.847   1.161  16.022  0.1163  0.4985  0.6408
19176TIP3    H179019   0.801   1.132  15.943  1.7803  1.0432 -0.5797
19176TIP3    H279020   0.821   1.097  16.089  0.0168 -1.0284 -0.7789
19177TIP3   OH279021   4.801   0.125  17.125 -0.4515 -0.0837 -0.1059
19177TIP3    H179022   4.800   0.220  17.115  0.4117 -0.1310 -0.7196
19177TIP3    H279023   4.738   0.108  17.196 -0.7319  0.9215 -0.0946
19178TIP3   OH279024   2.426   5.608   1.655  0.1886  0.0325 -0.5717
19178TIP3    H179025   2.396   5.645   1.572  0.1893  1.6330  0.1183
19178TIP3    H279026   2.406   5.514   1.647 -1.7731  0.4697 -1.5299
19179TIP3   OH279027   5.220   0.469  11.421 -0.2850  0.1163  0.2529
19179TIP3    H179028   5.206   0.448  11.329 -1.3819  2.5553 -0.2130
19179TIP3    H279029   5.312   0.448  11.437  0.0551  0.1256 -1.5376
19180TIP3   OH279030   0.123   6.296  11.623 -0.1385  0.1123  0.6400
19180TIP3    H179031   0.153   6.380  11.589  1.2906  0.7760  3.2759
19180TIP3    H279032   0.046   6.276  11.571  0.9273  1.7891 -1.7609
19181TIP3   OH279033   0.514   1.274  14.568  0.4129 -0.1322 -0.3138
19181TIP3    H179034   0.514   1.335  14.643  1.3827 -1.9282  1.2551
19181TIP3    H279035   0.435   1.223  14.579  0.7451 -0.6458 -0.2807
19182TIP3   OH279036   4.034   4.654   0.842 -0.0770 -0.0210 -0.1831
19182TIP3    H179037   3.948   4.611   0.842 -1.0255  1.7755 -0.6323
19182TIP3    H279038   4.096   4.583   0.825 -1.5443 -1.2329 -0.7289
19183TIP3   OH279039   2.347   1.021  15.505 -0.5181  0.0190  0.2375
19183TIP3    H179040   2.334   0.931  15.533  2.0804 -0.5972 -0.2751
19183TIP3    H279041   2.415   1.055  15.564  0.8269  0.5590 -1.5252
19184TIP3   OH279042   0.298   2.885  11.772 -0.4251  0.0560 -0.1711
19184TIP3    H179043   0.367   2.949  11.755  0.5438 -0.9349 -0.1331
19184TIP3    H279044   0.317   2.851  11.859 -0.8099 -0.3933 -0.2547
19185TIP3   OH279045   5.124   0.492   1.364 -0.0917  0.1744 -0.1996
19185TIP3    H179046   5.062   0.562   1.342  0.1626  0.6481  0.5368
19185TIP3    H279047   5.100   0.466   1.453 -0.1968 -0.7051 -0.4794
19186TIP3   OH279048   4.471   3.074  15.971 -0.2105 -0.0060 -0.2642
19186TIP3    H179049   4.447   3.037  15.885 -1.2308  2.2586 -1.0223
19186TIP3    H279050   4.427   3.158  15.974 -1.3636 -0.5901  3.1351
19187TIP3   OH279051   5.040   5.612  13.264  0.2288  0.4705  0.0954
19187TIP3    H179052   5.077   5.563  13.338  0.7531 -1.0903 -1.1502
19187TIP3    H279053   5.003   5.691  13.304 -0.3743 -0.7752  2.1740
19188TIP3   OH279054   1.976   4.767  15.000 -0.0386  0.0467 -0.1204
19188TIP3    H179055   1.891   4.771  15.043 -0.7817  0.2843 -1.5905
19188TIP3    H279056   1.958   4.782  14.908  1.2847 -2.3061 -0.8449
19189TIP3   OH279057   0.332   3.217  10.944  0.9378  0.4523 -0.2077
19189TIP3    H179058   0.256   3.230  10.888  1.4433  0.5490 -0.8882
19189TIP3    H279059   0.398   3.277  10.908  0.5578  2.2456  1.8933
19190TIP3   OH279060   2.796   5.905  11.378 -0.2077 -0.5430 -0.1913
19190TIP3    H179061   2.813   5.815  11.350 -0.1269 -0.7249  0.4223
19190TIP3    H279062   2.750   5.896  11.461  1.0954 -0.0175  0.6208
19191TIP3   OH279063   3.712   1.931  14.610  0.1755  0.6410 -0.7068
19191TIP3    H179064   3.727   1.971  14.695 -0.6421  1.5528 -0.9775
19191TIP3    H279065   3.765   1.851  14.611  1.0267  1.2069  0.2232
19192TIP3   OH279066   4.208   6.744   1.070  0.0687 -0.3331  0.0831
19192TIP3    H179067   4.131   6.739   1.127  0.6887  1.1724  1.1184
19192TIP3    H279068   4.278   6.776   1.126  0.8701  0.5770 -1.3563
19193TIP3   OH279069   3.171   2.719   1.664  0.5060 -0.3496  0.4019
19193TIP3    H179070   3.172   2.638   1.715  0.9256  1.2666  3.1587
19193TIP3    H279071   3.253   2.761   1.686 -0.1537  1.2878 -0.1606
19194TIP3   OH279072   3.131   4.882  14.662  0.9530 -0.2964  0.0467
19194TIP3    H179073   3.178   4.885  14.578  1.1628  0.6447  0.1881
19194TIP3    H279074   3.198   4.902  14.727  0.3459  1.1817  0.2437
19195TIP3   OH279075   3.907   5.601   3.400 -0.4141  0.8109  0.4788
19195TIP3    H179076   3.987   5.564   3.439  0.4518 -0.5636 -2.3089
19195TIP3    H279077   3.871   5.658   3.468  2.0136  0.1565  2.4646
19196TIP3   OH279078   0.166   1.766   3.701 -0.3567  0.2127  0.4918
19196TIP3    H179079   0.190   1.798   3.788 -0.8537  2.3778 -0.0932
19196TIP3    H279080   0.215   1.822   3.641 -1.7585  0.3053 -0.6264
19197TIP3   OH279081   2.972   2.371   3.595 -0.6708 -0.6136 -0.4592
19197TIP3    H179082   3.039   2.340   3.656 -0.9631 -0.7826 -0.2230
19197TIP3    H279083   3.010   2.450   3.556 -0.8468  0.0358  0.6308
19198TIP3   OH279084   0.216   2.969  15.116 -0.0493 -0.1237 -0.3476
19198TIP3    H179085   0.230   2.934  15.205  2.3069 -0.6067 -0.8247
19198TIP3    H279086   0.265   2.909  15.060 -0.3449  0.9799 -1.8183
19199TIP3   OH279087   0.508   1.758   0.496 -0.3879  0.7500  0.2222
19199TIP3    H179088   0.533   1.844   0.530 -0.9981  1.5763 -1.2821
19199TIP3    H279089   0.589   1.722   0.461 -0.1039  0.6638  0.9697
19200TIP3   OH279090   3.551   5.535  16.536  0.1975 -0.1604  0.0095
19200TIP3    H179091   3.534   5.476  16.609 -1.3745 -1.7414 -1.5452
19200TIP3    H279092   3.578   5.477  16.464  0.5239  1.2168 -1.0239
19201TIP3   OH279093   2.248   6.804  16.008 -0.5182  0.0564 -0.1898
19201TIP3    H179094   2.212   6.885  16.045  2.4242  0.9249  0.9962
19201TIP3    H279095   2.282   6.829  15.923  1.7266  0.4860  0.7874
19202TIP3   OH279096   5.569   0.228   4.328  0.4121 -0.0474  0.2220
19202TIP3    H179097   5.495   0.233   4.268  0.4296  1.5614  0.2935
19202TIP3    H279098   5.602   0.139   4.318 -0.6021 -0.3170 -0.9254
19203TIP3   OH279099   5.255   2.198   0.676 -0.9383  0.0103  0.0212
19203TIP3    H179100   5.243   2.104   0.666  0.7512 -0.3784  1.1598
19203TIP3    H279101   5.297   2.208   0.762  0.2623  1.6507 -0.6967
19204TIP3   OH279102   2.985   1.121  12.623  0.6127 -0.3015 -0.4969
19204TIP3    H179103   3.016   1.057  12.687  1.2856 -0.4287 -0.9370
19204TIP3    H279104   3.059   1.132  12.562  0.5423  0.9308 -0.3992
19205TIP3   OH279105   2.471   3.779  16.312 -0.4300 -0.4336  0.2221
19205TIP3    H179106   2.509   3.702  16.354  0.1165 -0.4863 -0.3473
19205TIP3    H279107   2.409   3.744  16.248  0.4098 -0.4491 -0.6100
19206TIP3   OH279108   0.321   6.595  14.885 -0.4740 -0.0302 -0.1611
19206TIP3    H179109   0.236   6.638  14.897 -0.7527 -0.3296 -0.9853
19206TIP3    H279110   0.330   6.586  14.791  0.0509 -0.8382 -0.0445
19207TIP3   OH279111   2.127   5.782   5.526  0.3867 -0.3361 -0.3899
19207TIP3    H179112   2.193   5.777   5.595 -1.2060  0.9869  1.3485
19207TIP3    H279113   2.113   5.876   5.513 -1.5108 -0.5761 -0.3057
19208TIP3   OH279114   2.693   6.146  11.698 -0.3039 -0.0800 -0.2396
19208TIP3    H179115   2.615   6.115  11.744  0.0399  0.8197  1.0039
19208TIP3    H279116   2.722   6.222  11.748  1.7043 -0.7336 -0.3181
19209TIP3   OH279117   2.622   6.200   5.221  0.0385  0.2696 -0.5174
19209TIP3    H179118   2.710   6.212   5.185  1.0007  0.9572  1.8422
19209TIP3    H279119   2.571   6.161   5.150  2.3295 -0.4513 -1.8500
19210TIP3   OH279120   4.052   4.081  12.637  0.1225  0.2231  0.4579
19210TIP3    H179121   4.134   4.091  12.687  1.0629  0.7785 -1.1150
19210TIP3    H279122   3.998   4.155  12.666  0.6534  0.5421  0.6594
19211TIP3   OH279123   2.178   1.011   3.419 -0.1240 -0.7064  0.4751
19211TIP3    H179124   2.161   1.090   3.469 -0.1569  0.2583 -1.0030
19211TIP3    H279125   2.270   0.991   3.435  0.3838  0.6760 -0.5237
19212TIP3   OH279126   2.092   0.891  16.255  0.1902 -0.0609  0.0443
19212TIP3    H179127   2.185   0.914  16.247  0.1777 -0.4893 -1.8640
19212TIP3    H279128   2.093   0.795  16.262 -0.0836 -0.0144  0.7592
19213TIP3   OH279129   6.359   3.674  12.358 -0.2346  0.0743  0.2164
19213TIP3    H179130   6.416   3.678  12.282  1.9046 -0.3936  1.6960
19213TIP3    H279131   6.299   3.602  12.339  0.3486 -0.1296 -0.9469
19214TIP3   OH279132   1.194   5.361   5.693 -0.0331  0.0441 -0.0752
19214TIP3    H179133   1.160   5.406   5.770 -0.1462  0.3174 -0.2863
19214TIP3    H279134   1.209   5.430   5.628 -0.9592 -0.3119 -0.6816
19215TIP3   OH279135   3.537   2.829   4.199 -0.2239  0.0102  0.5944
19215TIP3    H179136   3.591   2.784   4.264  0.4148  0.1838  0.2005
19215TIP3    H279137   3.514   2.912   4.239  0.1418  0.1028  0.6167
19216TIP3   OH279138   4.708   5.120  16.879  0.3486  0.5066  0.5178
19216TIP3    H179139   4.776   5.058  16.906 -0.0096  0.5747  1.6278
19216TIP3    H279140   4.754   5.186  16.828  1.1038  0.4902  1.1653
19217TIP3   OH279141   2.653   3.462   5.986 -0.0242  0.8120  0.5109
19217TIP3    H179142   2.641   3.448   6.080 -0.6239  0.6496  0.4136
19217TIP3    H279143   2.596   3.537   5.966 -1.4529 -0.3852 -0.0865
19218TIP3   OH279144   6.221   5.811   0.301 -0.0631  0.1613 -0.1612
19218TIP3    H179145   6.201   5.904   0.310 -1.2850 -0.0975 -0.1402
19218TIP3    H279146   6.311   5.810   0.267  0.4212  1.3242  0.9563
19219TIP3   OH279147   1.258   3.432   4.314  0.2230 -0.4077 -0.7916
19219TIP3    H179148   1.284   3.359   4.370 -0.5060 -0.7177 -0.8520
19219TIP3    H279149   1.229   3.500   4.375 -1.0201 -0.9175 -0.7894
19220TIP3   OH279150   1.752   5.884  13.257 -0.3316 -0.2652 -0.0384
19220TIP3    H179151   1.675   5.937  13.237 -0.2546 -0.2916 -0.4264
19220TIP3    H279152   1.778   5.909  13.345  1.0546  2.0131 -0.9895
19221TIP3   OH279153   4.646   6.389  15.045  0.0768 -0.0861  0.4775
19221TIP3    H179154   4.645   6.437  14.962  0.2438 -1.0305 -0.0850
19221TIP3    H279155   4.614   6.452  15.109  0.8660  0.9631 -0.1292
19222TIP3   OH279156   2.564   1.240   0.704  0.3343 -0.1760  0.1581
19222TIP3    H179157   2.610   1.310   0.659  3.5475 -1.3609  1.3178
19222TIP3    H279158   2.548   1.174   0.637 -3.0456  1.5715 -1.0305
19223TIP3   OH279159   5.348   5.680  16.231 -0.6991  0.1181 -0.5404
19223TIP3    H179160   5.417   5.734  16.270  0.9737 -1.8574 -0.5805
19223TIP3    H279161   5.274   5.691  16.290  0.4675  0.3764  0.9590
19224TIP3   OH279162   5.377   5.082  11.778  0.9231 -0.2878 -0.4638
19224TIP3    H179163   5.306   5.112  11.835  0.4197  1.0487 -1.7350
19224TIP3    H279164   5.387   4.990  11.800 -0.2080 -0.1569  0.7812
19225TIP3   OH279165   6.410   2.976   4.202  0.0963 -0.2961 -0.4044
19225TIP3    H179166   6.362   2.995   4.283  1.5516  1.3447  0.1299
19225TIP3    H279167   6.408   2.880   4.195  0.2646 -0.5137  1.7836
19226TIP3   OH279168   3.129   2.549   0.984 -0.2323  0.4395  0.0077
19226TIP3    H179169   3.043   2.507   0.978  0.2823 -0.5633 -0.6058
19226TIP3    H279170   3.135   2.603   0.905 -0.2535  0.4206 -0.0070
19227TIP3   OH279171   4.902   1.454   3.992 -0.3031  0.1634  0.4217
19227TIP3    H179172   4.938   1.383   3.939  2.1043 -0.0973  2.2165
19227TIP3    H279173   4.875   1.521   3.929  0.0474 -1.1472 -1.1892
19228TIP3   OH279174   6.528   5.509  12.910  0.4322  0.6119  0.1611
19228TIP3    H179175   6.610   5.528  12.864 -0.1957 -1.3753 -1.9622
19228TIP3    H279176   6.547   5.431  12.962 -0.7742 -1.8915 -2.8296
19229TIP3   OH279177   5.082   4.642  15.401 -0.0935 -0.1575 -0.4943
19229TIP3    H179178   5.046   4.569  15.350 -0.0118 -1.4294  1.1758
19229TIP3    H279179   5.049   4.720  15.358 -1.8889 -1.2180 -1.1463
19230TIP3   OH279180   0.420   4.014   5.027 -0.0161  0.1493 -0.1674
19230TIP3    H179181   0.416   4.109   5.029 -0.2043  0.1263  0.7034
19230TIP3    H279182   0.511   3.994   5.007 -0.0714  0.5114 -0.7992
19231TIP3   OH279183   3.304   2.328  13.409  0.1920 -0.9196  0.3893
19231TIP3    H179184   3.244   2.381  13.357  1.5654  0.7986  0.4564
19231TIP3    H279185   3.248   2.266  13.455 -1.6580  1.1823  1.1649
19232TIP3   OH279186   5.753   6.462   0.828 -0.1013 -0.3139 -0.1010
19232TIP3    H179187   5.820   6.395   0.814  0.1753 -0.1725  0.4914
19232TIP3    H279188   5.714   6.439   0.913 -1.0865 -0.6283 -0.6322
19233TIP3   OH279189   3.467   2.186  16.860  0.1706 -0.9463 -0.1363
19233TIP3    H179190   3.497   2.107  16.905  0.7031 -0.1374  0.9940
19233TIP3    H279191   3.527   2.196  16.786  1.3204 -0.5749  0.8175
19234TIP3   OH279192   2.577   2.418  16.950  0.0472 -0.3315 -0.8181
19234TIP3    H179193   2.572   2.426  16.855  0.0379  0.3940 -0.7590
19234TIP3    H279194   2.572   2.507  16.983 -0.8559 -0.6291 -0.0846
19235TIP3   OH279195   5.983   0.028   0.717  0.1502  0.0271 -0.1099
19235TIP3    H179196   5.984   0.106   0.661 -1.7671 -0.7149 -1.2764
19235TIP3    H279197   6.073  -0.005   0.714  1.0365  2.2155  0.5118
19236TIP3   OH279198   5.148   4.217   0.356 -0.2301 -0.1815  0.1847
19236TIP3    H179199   5.186   4.244   0.273  0.0591 -1.4103 -0.0926
19236TIP3    H279200   5.162   4.292   0.414  0.0258  0.4835 -0.7197
19237TIP3   OH279201   0.660   0.840  14.112 -0.6492  0.2716 -0.1818
19237TIP3    H179202   0.691   0.761  14.155 -1.2430  0.9457  1.6080
19237TIP3    H279203   0.706   0.911  14.157  0.7935  0.9483 -2.5573
19238TIP3   OH279204   6.023   0.141   4.271 -0.3956 -0.2168 -0.1784
19238TIP3    H179205   6.097   0.188   4.310  0.8191 -1.8412 -0.4156
19238TIP3    H279206   6.062   0.090   4.199 -2.0487  0.2075 -1.4394
19239TIP3   OH279207   4.501   0.263   5.957 -0.3367 -0.2560 -0.1169
19239TIP3    H179208   4.580   0.245   6.009  1.4435 -0.1284 -2.5811
19239TIP3    H279209   4.490   0.184   5.905  0.0406  0.8734 -1.9932
19240TIP3   OH279210   3.585   2.031  14.204  0.8334 -0.6675 -0.1201
19240TIP3    H179211   3.614   1.946  14.238  1.1896 -0.8001 -0.7323
19240TIP3    H279212   3.499   2.045  14.243  1.6269 -0.3444  1.6023
19241TIP3   OH279213   5.694   6.725   0.282 -0.0091  0.0870 -0.1630
19241TIP3    H179214   5.688   6.742   0.188  2.0627 -1.6130 -0.6771
19241TIP3    H279215   5.656   6.637   0.292  1.0407 -0.3209  0.3393
19242TIP3   OH279216   1.610   6.684  16.995  0.2129 -0.0058  0.1838
19242TIP3    H179217   1.529   6.646  17.028  1.2413 -1.4422  1.1956
19242TIP3    H279218   1.649   6.615  16.941  2.1684 -0.5535  2.1382
19243TIP3   OH279219   6.334   5.306  16.387 -0.2347  0.0618 -0.5304
19243TIP3    H179220   6.241   5.286  16.394 -0.9142  2.0841 -2.6211
19243TIP3    H279221   6.368   5.240  16.327 -0.5894  0.0714 -0.7415
19244TIP3   OH279222   4.223   4.973  13.350  0.1466  0.4324 -0.0476
19244TIP3    H179223   4.296   4.941  13.297 -1.4400 -2.0027 -0.9198
19244TIP3    H279224   4.167   5.019  13.288  0.5797  1.7218  0.4926
19245TIP3   OH279225   5.656   4.472   0.377 -0.2925 -0.0481 -0.3063
19245TIP3    H179226   5.687   4.382   0.371  0.4705  0.1617  0.4332
19245TIP3    H279227   5.570   4.470   0.335 -0.5113 -1.2256  0.1665
19246TIP3   OH279228   4.817   5.307  12.128 -0.1594  0.3533  0.0855
19246TIP3    H179229   4.855   5.360  12.058 -0.2333 -0.1968 -0.3776
19246TIP3    H279230   4.746   5.259  12.085 -1.4123  1.3812  0.9269
19247TIP3   OH279231   6.561   0.362   0.062  0.2795  0.2376 -0.1200
19247TIP3    H179232   6.626   0.352  -0.007 -0.2089 -1.1662 -0.4242
19247TIP3    H279233   6.491   0.300   0.038  0.1265 -0.3473  1.6561
19248TIP3   OH279234   5.504   1.916  13.607 -0.0992 -0.6774  0.1512
19248TIP3    H179235   5.487   1.824  13.626 -0.5363 -0.6612 -0.1525
19248TIP3    H279236   5.417   1.954  13.590  0.2892 -1.0454 -3.4512
19249TIP3   OH279237   1.869   4.632  11.482 -0.4075 -0.0652 -0.3564
19249TIP3    H179238   1.931   4.609  11.412 -0.1536 -1.4040  0.2757
19249TIP3    H279239   1.904   4.713  11.519  1.8174 -1.5212  0.9176
19250TIP3   OH279240   5.252   6.337  11.129 -0.4366  0.4428  0.6565
19250TIP3    H179241   5.189   6.372  11.066 -1.8210 -1.5848  0.7934
19250TIP3    H279242   5.282   6.255  11.090  0.5187  0.3245  1.5759
19251TIP3   OH279243   3.608   1.096   4.205 -1.0333 -0.2975 -0.4364
19251TIP3    H179244   3.646   1.011   4.181  0.1371 -0.0786  0.5363
19251TIP3    H279245   3.531   1.104   4.150 -0.8211 -1.7222 -0.9870
19252TIP3   OH279246   4.223   4.332   5.405  0.2347  0.3517 -0.3042
19252TIP3    H179247   4.173   4.281   5.470  1.7790 -1.9396 -0.8322
19252TIP3    H279248   4.300   4.362   5.453  1.5155 -1.5722 -1.0674
19253TIP3   OH279249   5.573   4.171   4.666  0.2204  0.2566  0.3240
19253TIP3    H179250   5.632   4.245   4.651  0.7541 -0.2962 -0.4020
19253TIP3    H279251   5.492   4.210   4.697  1.1368  1.0152  1.9124
19254TIP3   OH279252   6.039   5.938  11.822 -0.2433  0.6379  0.1156
19254TIP3    H179253   6.034   6.028  11.853 -0.6338  1.1084 -1.2572
19254TIP3    H279254   5.948   5.907  11.825 -0.2946  0.7073 -0.5920
19255TIP3   OH279255   2.937   5.213   2.967  0.2085  0.3033  0.2008
19255TIP3    H179256   2.986   5.159   2.905 -0.7994 -1.4765  0.8814
19255TIP3    H279257   2.884   5.271   2.912  1.2662  0.5787 -0.5527
19256TIP3   OH279258   4.006   3.068  16.406 -0.6578  0.1277  0.2198
19256TIP3    H179259   3.949   3.139  16.376 -1.4354 -0.0093  1.2995
19256TIP3    H279260   4.007   3.005  16.335  3.3943  2.9404 -2.6971
19257TIP3   OH279261   0.016   3.740  14.591  0.2477  0.5518  0.1330
19257TIP3    H179262  -0.050   3.720  14.657  0.9611  1.5114  1.1861
19257TIP3    H279263   0.094   3.693  14.619 -0.5691 -2.7157 -2.5019
19258TIP3   OH279264   0.515   1.625  11.313  0.0275  0.1861  0.5130
19258TIP3    H179265   0.595   1.662  11.350  0.8577 -2.2184  1.3236
19258TIP3    H279266   0.464   1.597  11.389  0.5281 -2.3825 -0.0058
19259TIP3   OH279267   4.946   3.497  11.314  0.4245  0.0923  0.4246
19259TIP3    H179268   4.871   3.460  11.362  1.0159  0.5686  1.7608
19259TIP3    H279269   4.941   3.456  11.228 -1.4926  0.2485  0.4033
19260TIP3   OH279270   0.605   3.352   6.147 -0.2074 -0.0876 -0.3682
19260TIP3    H179271   0.631   3.400   6.069 -1.8432  2.0497  0.2907
19260TIP3    H279272   0.613   3.416   6.218  0.3849 -1.7007  1.0766
19261TIP3   OH279273   4.641   5.009  11.739 -0.5337  0.4332 -0.3814
19261TIP3    H179274   4.669   4.971  11.656  0.6969 -1.2909  0.7629
19261TIP3    H279275   4.664   5.101  11.733  3.1264 -0.3626 -0.5402
19262TIP3   OH279276   4.323   3.637  13.288 -0.2150  0.1776  0.4028
19262TIP3    H179277   4.295   3.613  13.199  0.0276  1.1280  0.0534
19262TIP3    H279278   4.322   3.555  13.337 -0.9840 -0.2567 -0.3097
19263TIP3   OH279279   3.057   1.490   0.793 -0.2768 -0.6611 -0.2737
19263TIP3    H179280   3.118   1.420   0.768  1.6614  0.9077 -0.1649
19263TIP3    H279281   3.100   1.534   0.866 -1.7537  0.2699  0.0751
19264TIP3   OH279282   5.493   2.243  13.882 -0.6992 -0.1377  0.3069
19264TIP3    H179283   5.524   2.310  13.821  1.2903 -2.4501 -1.4305
19264TIP3    H279284   5.563   2.235  13.947 -0.4681 -1.1431 -0.0520
19265TIP3   OH279285   0.972   2.021  16.860 -0.4958  0.4146 -0.2548
19265TIP3    H179286   0.975   2.110  16.827 -0.5077 -0.2030 -2.0102
19265TIP3    H279287   0.885   1.989  16.837 -0.1507 -0.3581 -0.5100
19266TIP3   OH279288   0.533   2.413  11.296  1.0990  0.1123 -0.3992
19266TIP3    H179289   0.580   2.469  11.235 -0.2500  0.0703 -1.5247
19266TIP3    H279290   0.463   2.373  11.244  0.3228 -0.4675  1.0098
19267TIP3   OH279291   1.531   6.368  16.993 -0.0563 -0.5774  0.3739
19267TIP3    H179292   1.581   6.296  17.032 -0.1704 -0.5544  0.5663
19267TIP3    H279293   1.586   6.400  16.923  0.5442 -0.0574  1.0693
19268TIP3   OH279294   6.097   6.336   2.780  0.2147 -0.1184  0.4300
19268TIP3    H179295   6.020   6.297   2.820 -0.5809  0.5046 -0.4391
19268TIP3    H279296   6.108   6.288   2.698  0.7269 -0.1710  0.5250
19269TIP3   OH279297   0.849   0.155   3.862  0.3393 -0.0264 -0.6425
19269TIP3    H179298   0.848   0.083   3.925 -1.0807  0.5238  0.0049
19269TIP3    H279299   0.921   0.134   3.802  1.5411 -0.7100  0.9774
19270TIP3   OH279300   6.347   0.469  13.686  0.2935  0.2680  0.3733
19270TIP3    H179301   6.319   0.508  13.603  1.0585  1.1873  0.5366
19270TIP3    H279302   6.265   0.455  13.734 -0.2861 -1.4811 -1.0183
19271TIP3   OH279303   2.929   2.462  10.876  0.4946  0.0002 -0.4253
19271TIP3    H179304   2.874   2.384  10.876  0.2449  0.1711  0.0470
19271TIP3    H279305   2.942   2.482  10.783  1.5720 -1.2937 -0.5799
19272TIP3   OH279306   6.394   3.143   2.459  0.3792 -0.3478 -0.2509
19272TIP3    H179307   6.381   3.058   2.418 -2.1169 -0.5656  0.8012
19272TIP3    H279308   6.364   3.206   2.394  2.4425 -0.1850 -1.1191
19273TIP3   OH279309   0.293   2.522   4.126  0.0370  0.0638  0.0539
19273TIP3    H179310   0.230   2.452   4.108  0.4461 -0.2459 -0.1910
19273TIP3    H279311   0.370   2.499   4.075  0.0075  0.9496 -0.4234
19274TIP3   OH279312   6.705   4.867   3.996 -0.0514 -0.1023  0.0453
19274TIP3    H179313   6.772   4.808   4.031  2.0759  1.5129 -1.0604
19274TIP3    H279314   6.713   4.946   4.049 -0.8154  0.2851 -0.4009
19275TIP3   OH279315   1.614   3.743  15.809 -0.7618 -0.5061  0.2854
19275TIP3    H179316   1.623   3.806  15.737  0.5239 -0.8472  0.1254
19275TIP3    H279317   1.553   3.785  15.869 -0.0460  0.8428  0.1194
19276TIP3   OH279318   1.635   2.629  14.815  0.1295 -1.0666 -0.4030
19276TIP3    H179319   1.696   2.696  14.784  1.0897 -1.2752  0.9384
19276TIP3    H279320   1.623   2.570  14.741 -0.6233  0.4744 -1.5762
19277TIP3   OH279321   3.089   0.615   3.494  0.1991 -0.1458 -0.0122
19277TIP3    H179322   3.162   0.556   3.474  1.2373  1.9516 -3.2282
19277TIP3    H279323   3.123   0.673   3.562 -0.1238 -1.8373  1.6849
19278TIP3   OH279324   4.539   6.454   2.285 -0.2517 -0.4581  0.0624
19278TIP3    H179325   4.567   6.460   2.377  3.2573 -2.7953 -0.6628
19278TIP3    H279326   4.507   6.364   2.276 -0.4364 -0.2934 -1.0514
19279TIP3   OH279327   3.821   6.510  13.355  0.3799  0.3264 -0.1776
19279TIP3    H179328   3.894   6.448  13.365  0.0491 -0.0828 -0.2479
19279TIP3    H279329   3.754   6.476  13.414  0.2470  0.7079 -0.1074
19280TIP3   OH279330   4.879   2.688   1.073  0.0607 -0.5666  0.3263
19280TIP3    H179331   4.836   2.659   0.992 -0.7342 -1.0459  0.9074
19280TIP3    H279332   4.903   2.779   1.056 -0.5567 -0.5051 -0.2670
19281TIP3   OH279333   4.986   5.007  13.141  0.2949 -0.2390 -0.0331
19281TIP3    H179334   4.896   5.037  13.155  0.5303  0.1668  0.6404
19281TIP3    H279335   5.021   5.066  13.074  0.1520 -0.2116 -0.0836
19282TIP3   OH279336   2.060   4.941   5.807  0.0294 -0.1788  0.2493
19282TIP3    H179337   2.083   5.006   5.873  0.7862 -0.3461  0.1655
19282TIP3    H279338   2.123   4.957   5.736  1.0616 -1.7982  0.7549
19283TIP3   OH279339   0.171   3.143   2.579  0.5263  0.0350 -0.1269
19283TIP3    H179340   0.076   3.157   2.575  0.4184 -0.0445  1.5228
19283TIP3    H279341   0.186   3.106   2.666  2.3365  2.2719  0.6122
19284TIP3   OH279342   3.598   0.681  10.864 -0.0171 -0.0638  0.6100
19284TIP3    H179343   3.543   0.754  10.835 -0.4883 -1.3669 -2.2278
19284TIP3    H279344   3.685   0.704  10.833 -0.1291 -0.5658 -0.1080
19285TIP3   OH279345   0.222   6.133  15.757 -0.2337 -0.7352 -0.3118
19285TIP3    H179346   0.129   6.149  15.772 -0.3369 -1.2522 -0.3683
19285TIP3    H279347   0.240   6.175  15.673 -1.0930 -2.9623 -1.7092
19286TIP3   OH279348   3.304   5.816  14.138 -0.1633  0.6021  0.1685
19286TIP3    H179349   3.249   5.746  14.102  1.3929  0.0818 -1.3379
19286TIP3    H279350   3.367   5.771  14.195 -0.5104  1.0481  0.9230
19287TIP3   OH279351   1.910   0.083   5.271 -0.2654  0.4798 -0.5852
19287TIP3    H179352   1.876   0.023   5.204 -0.8870  1.1128 -0.8456
19287TIP3    H279353   1.966   0.143   5.222  1.6919 -0.8610 -0.0894
19288TIP3   OH279354   6.243   1.824  16.014 -0.2276  0.5543 -0.4768
19288TIP3    H179355   6.300   1.749  16.033 -1.2792  0.1821  1.4494
19288TIP3    H279356   6.257   1.884  16.087 -1.0046  1.2605 -0.8846
19289TIP3   OH279357   2.378   6.189  15.442  0.2466 -0.6936 -0.2422
19289TIP3    H179358   2.423   6.105  15.451  1.5574 -0.0597 -0.7434
19289TIP3    H279359   2.432   6.251  15.491 -0.2126  0.0394 -0.6465
19290TIP3   OH279360   5.772   1.607  10.206  0.2409  0.1565 -0.1359
19290TIP3    H179361   5.767   1.700  10.227 -1.7129 -0.0096  0.3122
19290TIP3    H279362   5.842   1.601  10.140  1.6978  1.6389  1.1740
19291TIP3   OH279363   4.713   5.067  12.521 -0.5640 -0.6860  1.1141
19291TIP3    H179364   4.752   5.026  12.598  0.0548 -0.6441  0.8314
19291TIP3    H279365   4.788   5.097  12.469 -0.9647 -1.0026  0.3375
19292TIP3   OH279366   4.357   0.839   0.024 -0.3208  0.3674  0.2804
19292TIP3    H179367   4.290   0.881   0.079 -0.4712  0.5873 -0.0635
19292TIP3    H279368   4.312   0.764  -0.014 -0.6896  1.0983 -0.7592
19293TIP3   OH279369   1.761   1.281   5.780  0.4643 -0.4641 -0.4269
19293TIP3    H179370   1.728   1.275   5.869  0.9790  0.2387 -0.1819
19293TIP3    H279371   1.684   1.271   5.725  0.1944 -1.2969  0.0809
19294TIP3   OH279372   0.668   0.192  13.911  0.0102 -0.1955 -0.3740
19294TIP3    H179373   0.622   0.125  13.860 -0.6327 -0.6098  0.7075
19294TIP3    H279374   0.640   0.275  13.873 -0.9863 -0.4746 -0.2753
19295TIP3   OH279375   3.199   2.548  10.937 -0.4362 -0.0458  0.4938
19295TIP3    H179376   3.103   2.540  10.943 -0.5495  1.2954  0.7815
19295TIP3    H279377   3.231   2.461  10.962 -1.5535 -0.2884  1.1866
19296TIP3   OH279378   4.008   6.241  16.490 -0.4229 -0.0610  0.7216
19296TIP3    H179379   4.009   6.183  16.414 -0.8859  0.2077  0.5031
19296TIP3    H279380   3.994   6.183  16.565  0.3536 -0.3588  0.6377
19297TIP3   OH279381   5.513   2.205  11.129 -0.3241 -0.0667 -0.2684
19297TIP3    H179382   5.456   2.188  11.055 -0.7341  1.0759 -0.2430
19297TIP3    H279383   5.596   2.161  11.107 -0.9903 -1.1977 -0.5928
19298TIP3   OH279384   5.927   1.489  12.973 -0.5205  0.5073 -0.2400
19298TIP3    H179385   5.977   1.428  12.919 -2.1398  1.0389 -2.5216
19298TIP3    H279386   5.866   1.434  13.022 -1.3533  0.1441 -1.6006
19299TIP3   OH279387   3.797   4.301   0.340  0.4453 -0.0301 -0.3549
19299TIP3    H179388   3.708   4.275   0.363  0.5327  0.6589  0.8447
19299TIP3    H279389   3.852   4.260   0.407  0.9688  0.1119 -0.6913
19300TIP3   OH279390   1.910   2.706  17.077  0.2834 -0.0621  0.0690
19300TIP3    H179391   1.877   2.780  17.128  0.4383 -0.9572  1.5266
19300TIP3    H279392   1.956   2.652  17.141 -0.0577 -1.5606 -0.9203
19301TIP3   OH279393   2.391   4.253  16.152 -0.1452  0.3076  0.6225
19301TIP3    H179394   2.473   4.297  16.174  0.3112 -1.0205  1.7364
19301TIP3    H279395   2.382   4.265  16.057  1.3035  0.5228  0.4897
19302TIP3   OH279396   6.738   2.188   0.605 -0.2260 -0.0971 -0.0172
19302TIP3    H179397   6.815   2.244   0.599 -0.9023  1.4320  3.2106
19302TIP3    H279398   6.771   2.100   0.591  2.2422  0.4690  1.6515
19303TIP3   OH279399   5.806   4.190   5.922  0.2798 -0.4631 -0.3186
19303TIP3    H179400   5.712   4.201   5.904 -0.4116 -2.8731  1.2177
19303TIP3    H279401   5.838   4.278   5.938 -1.3204  0.6156 -2.5915
19304TIP3   OH279402   1.140   2.775  12.233 -0.1507  0.4325  0.2708
19304TIP3    H179403   1.220   2.731  12.203 -0.2828 -1.6730  2.7173
19304TIP3    H279404   1.095   2.800  12.152  1.8867 -0.3242 -1.1847
19305TIP3   OH279405   3.489   1.034  15.714  0.0759 -0.2297 -0.2660
19305TIP3    H179406   3.563   1.057  15.771  0.7484  0.8311 -1.4933
19305TIP3    H279407   3.426   1.105  15.727  0.6457  0.5456 -1.4917
19306TIP3   OH279408   5.964   0.404   3.776  0.1511  0.7932 -0.0308
19306TIP3    H179409   5.917   0.414   3.859 -0.8802  0.0406 -0.5055
19306TIP3    H279410   6.005   0.489   3.761 -0.8862  1.4017  0.5109
19307TIP3   OH279411   2.703   5.385  12.623  0.3471 -0.6963 -0.6796
19307TIP3    H179412   2.717   5.295  12.594 -0.4730 -1.1234  0.2224
19307TIP3    H279413   2.759   5.437  12.565  0.4923 -1.7335 -1.5060
19308TIP3   OH279414   0.750   2.204  11.262 -0.7713  0.5157 -0.0093
19308TIP3    H179415   0.762   2.241  11.174  3.4603  0.3193  0.2599
19308TIP3    H279416   0.765   2.278  11.321  0.7174 -0.1496  0.4985
19309TIP3   OH279417   2.730   2.046  15.209 -0.0974 -0.3519  0.4270
19309TIP3    H179418   2.724   1.980  15.139  0.9376  1.8847 -1.9377
19309TIP3    H279419   2.683   2.122  15.174  2.9173  1.8536  0.7932
19310TIP3   OH279420   1.130   3.721  16.870  0.2432  0.1311 -0.4395
19310TIP3    H179421   1.210   3.741  16.822  0.3850 -0.2281 -0.3574
19310TIP3    H279422   1.134   3.626  16.885 -1.7236 -0.5548 -3.2430
19311TIP3   OH279423   6.431   1.385   4.896 -0.2851  0.1439 -0.4609
19311TIP3    H179424   6.389   1.316   4.948 -0.7404  0.6827 -0.1096
19311TIP3    H279425   6.387   1.381   4.811 -0.5481  0.2372 -0.3270
19312TIP3   OH279426   3.949   4.472  12.450  0.0263 -0.5136 -0.3597
19312TIP3    H179427   3.878   4.536  12.458 -0.6536 -1.1408 -1.1885
19312TIP3    H279428   3.995   4.497  12.370 -0.1213 -0.9321 -0.5790
19313TIP3   OH279429   6.446   5.178   2.582 -0.5208  0.1566 -0.1798
19313TIP3    H179430   6.387   5.237   2.535  0.3787 -0.0186 -1.6132
19313TIP3    H279431   6.452   5.214   2.670  0.9048  2.9647 -1.2853
19314TIP3   OH279432   4.954   0.013  14.300  0.3046  0.1370  0.0105
19314TIP3    H179433   4.869   0.011  14.257 -1.0367  3.1632  2.1914
19314TIP3    H279434   4.939  -0.022  14.387  2.0839 -2.2035 -0.5279
19315TIP3   OH279435   1.100   4.311  13.746  0.1297 -0.0086  0.2462
19315TIP3    H179436   1.050   4.311  13.664 -0.1319 -0.6155  0.4004
19315TIP3    H279437   1.076   4.394  13.788  1.1520  0.8687 -0.8060
19316TIP3   OH279438   0.631   6.365  14.168  0.5623 -0.2024 -0.2853
19316TIP3    H179439   0.663   6.341  14.255 -0.6832  0.0463  0.2639
19316TIP3    H279440   0.566   6.299  14.147 -0.3084  0.6314 -0.3078
19317TIP3   OH279441   4.847   4.452  11.489 -0.5990  0.1140  0.0720
19317TIP3    H179442   4.795   4.472  11.567  0.6073 -0.8729  1.1777
19317TIP3    H279443   4.931   4.421  11.523  0.0245 -0.1956 -1.6280
19318TIP3   OH279444   3.199   1.140   6.653  0.0601 -0.2318  0.2111
19318TIP3    H179445   3.212   1.203   6.724 -0.2180 -2.1046  2.0100
19318TIP3    H279446   3.288   1.119   6.623  0.3908 -1.4307  1.8962
19319TIP3   OH279447   1.833   1.967   3.756 -0.4870  0.5466  0.1210
19319TIP3    H179448   1.856   2.035   3.693 -0.8733 -1.0100 -1.7926
19319TIP3    H279449   1.914   1.949   3.804  0.8200 -0.6340 -2.3581
19320TIP3   OH279450   5.875   0.472   0.596 -0.0275  0.3582  0.0879
19320TIP3    H179451   5.830   0.452   0.678 -1.4667  0.8427 -0.5510
19320TIP3    H279452   5.867   0.392   0.544 -0.6214  0.6066 -0.2161
19321TIP3   OH279453   3.349   4.487  15.683 -0.0882  0.3682  0.5048
19321TIP3    H179454   3.292   4.442  15.621  0.3648 -0.2277  0.5051
19321TIP3    H279455   3.313   4.575  15.691 -1.0041  0.0025  0.5081
19322TIP3   OH279456   5.715   1.602  11.287 -0.1251  0.2619  0.1617
19322TIP3    H179457   5.705   1.516  11.327  0.3069 -0.3800 -1.0700
19322TIP3    H279458   5.799   1.598  11.242 -0.0549  1.3686  0.1562
19323TIP3   OH279459   3.325   4.043   0.846  0.4066 -0.1061 -0.1985
19323TIP3    H179460   3.243   4.051   0.895  0.3258 -0.3217 -0.2967
19323TIP3    H279461   3.326   3.952   0.815 -0.0202  0.2761 -1.4210
19324TIP3   OH279462   4.250   0.500   1.457  0.0463 -0.2974 -0.6539
19324TIP3    H179463   4.197   0.545   1.523  2.3951  1.0871  0.4464
19324TIP3    H279464   4.276   0.418   1.499 -2.7345 -2.0096 -1.9738
19325TIP3   OH279465   2.850   0.931   4.592 -0.4017 -0.2457 -0.8260
19325TIP3    H179466   2.790   0.874   4.640 -0.0430  0.8087  0.9274
19325TIP3    H279467   2.920   0.872   4.562  0.2043 -0.7329  1.3433
19326TIP3   OH279468   3.722   3.491  15.175 -0.0083 -0.2378  0.2139
19326TIP3    H179469   3.658   3.548  15.217 -1.7201 -0.8432 -1.4437
19326TIP3    H279470   3.672   3.439  15.113  2.1415 -0.5207 -1.4210
19327TIP3   OH279471   3.523   4.356  12.099 -0.1153  0.1575 -0.7907
19327TIP3    H179472   3.542   4.449  12.092  2.3191 -0.3777 -2.5492
19327TIP3    H279473   3.566   4.316  12.024 -1.6453 -2.3467 -0.4812
19328TIP3   OH279474   4.247   2.620   2.821  1.0906  0.2921 -0.1731
19328TIP3    H179475   4.212   2.565   2.750  2.0048 -1.6022  0.7806
19328TIP3    H279476   4.206   2.587   2.900  0.2066  2.2863  0.2768
19329TIP3   OH279477   3.463   1.660   2.340  0.1303  0.3816  0.1702
19329TIP3    H179478   3.371   1.656   2.315 -0.1060 -0.0738  1.0593
19329TIP3    H279479   3.479   1.753   2.357  0.3077  0.7107 -1.6036
19330TIP3   OH279480   1.593   3.405   0.157  0.5298 -0.7193  0.7219
19330TIP3    H179481   1.599   3.337   0.090  0.4702  0.0989 -0.1200
19330TIP3    H279482   1.672   3.393   0.211  1.8848  0.1724 -0.9808
19331TIP3   OH279483   2.334   3.988   4.061 -0.1222 -0.2592 -0.4677
19331TIP3    H179484   2.316   4.047   3.987 -0.8664  0.8986  0.5941
19331TIP3    H279485   2.360   4.047   4.132 -0.2117 -1.2876  0.4341
19332TIP3   OH279486   4.659   6.369  14.086  0.1195 -0.1431  0.2578
19332TIP3    H179487   4.610   6.412  14.016  1.1570  1.4789  0.4789
19332TIP3    H279488   4.659   6.433  14.158  2.2562 -0.2084  0.3827
19333TIP3   OH279489   3.406   4.798   5.510 -0.3492 -0.3457  0.2411
19333TIP3    H179490   3.478   4.862   5.501  0.5325 -1.4666 -1.2466
19333TIP3    H279491   3.443   4.729   5.565 -1.2461  0.3130  1.7125
19334TIP3   OH279492   5.075   5.652   1.446 -0.4947  0.0448  0.0137
19334TIP3    H179493   5.074   5.748   1.450 -0.6169  0.0487 -0.0914
19334TIP3    H279494   5.160   5.627   1.481 -0.3602  0.2041 -0.1966
19335TIP3   OH279495   2.702   1.540  16.629  0.4329 -0.4302  0.4734
19335TIP3    H179496   2.785   1.585  16.613  1.3471 -1.9628  0.7036
19335TIP3    H279497   2.645   1.608  16.666  1.8047  0.5069  0.9675
19336TIP3   OH279498   4.570   5.920  16.246  0.3870  0.0515 -0.7068
19336TIP3    H179499   4.528   5.964  16.320  1.9404  1.2491 -0.4665
19336TIP3    H279500   4.498   5.896  16.188 -0.6500  1.8897 -0.2593
19337TIP3   OH279501   4.589   4.912   0.710 -0.4903 -0.6137  0.2547
19337TIP3    H179502   4.626   4.834   0.669  0.6450 -0.0116  0.0853
19337TIP3    H279503   4.653   4.981   0.691  0.5210 -0.4469  3.6387
19338TIP3   OH279504   6.659   4.573   3.955 -0.1214 -0.4045 -0.7048
19338TIP3    H179505   6.752   4.563   3.938  0.4039  2.2831  0.2408
19338TIP3    H279506   6.632   4.648   3.902 -1.5363 -0.4722 -0.1388
19339TIP3   OH279507   4.403   5.687  16.415 -0.8272 -0.5559 -0.3780
19339TIP3    H179508   4.345   5.715  16.345  1.2897 -1.0215 -2.4536
19339TIP3    H279509   4.489   5.681  16.373  0.8649  0.6673  2.6454
19340TIP3   OH279510   5.260   1.151  11.327 -0.0448 -0.1156  0.4701
19340TIP3    H179511   5.353   1.130  11.334 -0.4393 -1.7430  1.2302
19340TIP3    H279512   5.243   1.211  11.399  0.5067  0.6322 -0.0023
19341TIP3   OH279513   3.435   2.626   1.662 -0.0531  0.6784 -0.2531
19341TIP3    H179514   3.422   2.600   1.571 -2.2696  0.9483 -0.0648
19341TIP3    H279515   3.387   2.561   1.714  0.3593  1.0813  0.6715
19342TIP3   OH279516   2.548   2.010   5.893 -0.1136  0.3055 -0.2414
19342TIP3    H179517   2.568   2.073   5.962  2.1893 -0.8865  0.2636
19342TIP3    H279518   2.551   2.062   5.812  0.9400  1.0411  0.2450
19343TIP3   OH279519   6.345   0.619  13.368  0.2123 -0.2408 -0.0767
19343TIP3    H179520   6.417   0.673  13.403  0.2428  0.4470 -1.1638
19343TIP3    H279521   6.333   0.650  13.278 -1.1384 -0.6632 -0.0659
19344TIP3   OH279522   5.934   6.275   0.752 -0.5736  0.8919 -0.5167
19344TIP3    H179523   5.908   6.183   0.746  0.7881  0.5565 -2.4096
19344TIP3    H279524   6.026   6.275   0.725 -0.5443  2.8189 -0.5293
19345TIP3   OH279525   6.176   1.153  11.519  0.3102  0.2427  0.4480
19345TIP3    H179526   6.197   1.175  11.610  1.6178  1.3579 -0.1028
19345TIP3    H279527   6.159   1.237  11.477 -0.6855 -0.2953 -0.2657
19346TIP3   OH279528   5.090   1.052  11.697  0.1463  0.1429  0.6051
19346TIP3    H179529   5.004   1.073  11.662  0.8474  2.0369 -0.1746
19346TIP3    H279530   5.095   0.957  11.696 -0.9346  0.0355 -1.9242
19347TIP3   OH279531   3.778   6.161   3.599 -0.0256 -0.1162  0.2285
19347TIP3    H179532   3.710   6.136   3.662  0.3365 -0.3574  0.5244
19347TIP3    H279533   3.859   6.158   3.649  0.2383 -0.1078 -0.2007
19348TIP3   OH279534   3.914   6.224  10.625  0.6747  0.2482  0.4728
19348TIP3    H179535   3.929   6.140  10.582  1.7634  0.7290 -0.1328
19348TIP3    H279536   3.819   6.230  10.634  0.4672 -0.2544 -1.1048
19349TIP3   OH279537   3.128   0.834  11.868  0.4811  0.2684  0.4094
19349TIP3    H179538   3.102   0.926  11.865 -0.5249  0.0462  1.4178
19349TIP3    H279539   3.196   0.825  11.801  0.7626  1.7910  0.4671
19350TIP3   OH279540   2.352   1.152  11.823 -0.5661  0.2703  0.8982
19350TIP3    H179541   2.431   1.197  11.794 -1.2782  1.4195  0.6812
19350TIP3    H279542   2.286   1.221  11.831 -1.9038 -0.8157 -0.1484
19351TIP3   OH279543   4.878   4.228   0.272 -0.3881  0.2763  0.6636
19351TIP3    H179544   4.839   4.307   0.308 -0.3137  0.5028  0.2477
19351TIP3    H279545   4.958   4.215   0.323 -0.8892 -0.0691  1.3742
19352TIP3   OH279546   4.375   5.185   5.758 -0.1762 -0.4850  0.1235
19352TIP3    H179547   4.318   5.117   5.792 -1.4585  1.0548  1.1761
19352TIP3    H279548   4.370   5.256   5.822  0.2775  1.0279 -1.4267
19353TIP3   OH279549   4.407   1.722  14.917 -0.9520  0.4011 -0.3340
19353TIP3    H179550   4.476   1.671  14.876 -0.4727  1.5131 -0.9661
19353TIP3    H279551   4.442   1.811  14.920 -2.2932  0.9642 -0.5476
19354TIP3   OH279552   1.402   3.794   5.712  0.1868 -0.4868 -0.3749
19354TIP3    H179553   1.349   3.866   5.746  0.4513 -1.2795  1.9219
19354TIP3    H279554   1.366   3.776   5.625 -0.9071  1.3502 -0.3474
19355TIP3   OH279555   6.334   3.872  13.626  0.0821 -0.5361 -0.1746
19355TIP3    H179556   6.264   3.933  13.650 -0.8194 -0.0430 -3.5339
19355TIP3    H279557   6.391   3.924  13.568  1.4056 -1.8651 -0.1131
19356TIP3   OH279558   1.946   4.278   6.171 -0.2268  0.1917 -0.2946
19356TIP3    H179559   1.945   4.338   6.246 -2.2650 -0.1877  0.0396
19356TIP3    H279560   1.963   4.192   6.209 -0.0530  0.1660 -0.4283
19357TIP3   OH279561   6.371   4.319  17.055  0.3132  0.2740  0.5746
19357TIP3    H179562   6.276   4.307  17.063  0.4142 -0.1111  1.2639
19357TIP3    H279563   6.386   4.326  16.961 -0.8396  4.0104  0.4950
19358TIP3   OH279564   5.497   0.532  13.891  0.5208  0.0775  0.4010
19358TIP3    H179565   5.502   0.617  13.848 -0.1841 -0.2740 -0.4256
19358TIP3    H279566   5.587   0.499  13.892  0.5799  0.1755 -0.6718
19359TIP3   OH279567   4.663   5.116  13.191 -0.1080  0.4168 -0.2307
19359TIP3    H179568   4.673   5.209  13.214 -2.3320  0.7461 -0.3367
19359TIP3    H279569   4.650   5.116  13.096  1.9641 -0.2662 -0.5761
19360TIP3   OH279570   6.353   4.340  16.772 -0.6205  0.6663  0.2242
19360TIP3    H179571   6.374   4.422  16.727 -0.5694  0.9748  0.8063
19360TIP3    H279572   6.388   4.272  16.714  0.1478  1.0890  0.1779
19361TIP3   OH279573   6.810   4.579   3.649  0.0460  0.1451  0.2195
19361TIP3    H179574   6.728   4.578   3.599 -0.2431 -2.8943  0.6159
19361TIP3    H279575   6.878   4.578   3.583 -0.2063  1.3281 -0.0936
19362TIP3   OH279576   4.745   1.658   1.441 -0.2628  0.4991  0.2748
19362TIP3    H179577   4.822   1.699   1.400  0.4615 -0.4572  0.6475
19362TIP3    H279578   4.757   1.673   1.534  0.0702 -0.6404  0.4258
19363TIP3   OH279579   5.943   3.549   5.837 -0.3211 -0.0547 -0.1308
19363TIP3    H179580   5.886   3.530   5.763 -0.1301  1.1825 -0.6155
19363TIP3    H279581   5.912   3.491   5.907 -2.0411  0.4504 -0.4419
19364TIP3   OH279582   6.352   1.250   5.972  0.3639 -0.8335  0.6040
19364TIP3    H179583   6.342   1.297   5.890  1.5901  0.0088  0.9164
19364TIP3    H279584   6.374   1.160   5.946  1.6591 -0.3625 -0.0201
19365TIP3   OH279585   0.060   1.743  16.163 -0.1526  0.3442  0.0612
19365TIP3    H179586   0.043   1.798  16.087  1.0193  0.4259 -0.1691
19365TIP3    H279587   0.053   1.653  16.129 -0.7603  0.3664  0.1272
19366TIP3   OH279588   5.035   2.459   3.830  0.3333  0.2737  0.6001
19366TIP3    H179589   5.003   2.399   3.898  1.3085 -0.4905  0.4108
19366TIP3    H279590   5.062   2.538   3.879 -0.3900  0.3309  0.9187
19367TIP3   OH279591   1.650   0.877  16.779 -0.5008  0.7039  0.7587
19367TIP3    H179592   1.644   0.972  16.793  2.3426  1.1037 -0.1239
19367TIP3    H279593   1.641   0.839  16.867 -1.4932  1.7676  1.1430
19368TIP3   OH279594   0.335   2.046   5.664  0.1118  0.4565 -0.1644
19368TIP3    H179595   0.335   2.142   5.668 -1.7877  0.5818 -1.6920
19368TIP3    H279596   0.256   2.020   5.710  0.8681 -0.4616  0.6771
19369TIP3   OH279597   1.323   2.981   2.536  0.3057 -0.3845 -0.0016
19369TIP3    H179598   1.261   2.919   2.496  0.4832  0.0673 -1.0161
19369TIP3    H279599   1.298   3.066   2.499  0.7329 -0.0146  0.5617
19370TIP3   OH279600   2.265   1.722   0.332  0.4783  1.0379  0.1567
19370TIP3    H179601   2.185   1.700   0.282 -0.9075 -0.7191  2.9010
19370TIP3    H279602   2.319   1.643   0.324 -0.0969  0.4247  1.9366
19371TIP3   OH279603   5.742   1.156  12.833 -0.2534 -0.5894 -0.1835
19371TIP3    H179604   5.786   1.213  12.897 -0.2981  0.7709 -1.3099
19371TIP3    H279605   5.774   1.068  12.853 -1.3344 -0.4454  2.5934
19372TIP3   OH279606   5.179   6.288  13.099 -0.2109 -0.6441 -0.0234
19372TIP3    H179607   5.269   6.295  13.067 -0.0299 -1.3038  0.3241
19372TIP3    H279608   5.126   6.288  13.019  0.1554 -1.0893 -0.2730
19373TIP3   OH279609   6.430   5.281  14.524 -0.3971 -0.3650 -0.2653
19373TIP3    H179610   6.336   5.264  14.532 -0.5202  0.8682  1.7674
19373TIP3    H279611   6.436   5.360  14.470 -0.4404 -1.0555 -1.2998
19374TIP3   OH279612   1.403   3.411  13.454  0.0318 -0.8705 -0.5769
19374TIP3    H179613   1.421   3.375  13.541 -1.0960 -1.0811 -0.4175
19374TIP3    H279614   1.308   3.402  13.443 -0.4541  2.5623 -0.2568
19375TIP3   OH279615   3.939   6.132   6.293 -0.8926  0.0203  0.7289
19375TIP3    H179616   3.908   6.059   6.239 -0.4203 -0.9640  1.7468
19375TIP3    H279617   4.014   6.096   6.341 -0.3068  1.3467  0.8416
19376TIP3   OH279618   0.357   0.454   1.875  0.4097  0.0057 -0.0806
19376TIP3    H179619   0.363   0.427   1.967  1.3975  0.5442  0.0281
19376TIP3    H279620   0.448   0.470   1.849  0.0751  0.5724 -0.9448
19377TIP3   OH279621   4.344   0.559  11.950 -0.3194 -0.4334 -0.6008
19377TIP3    H179622   4.357   0.507  11.871 -0.1429  1.9555 -2.2368
19377TIP3    H279623   4.249   0.574  11.954 -0.3279 -0.5414 -0.3334
19378TIP3   OH279624   6.673   2.258   3.334 -0.5641 -0.1666  0.2444
19378TIP3    H179625   6.589   2.260   3.288 -0.0998 -2.7637 -0.9324
19378TIP3    H279626   6.714   2.177   3.304  1.7876  0.3420  1.8316
19379TIP3   OH279627   1.170   2.520  11.887  0.0950 -0.0446 -0.3843
19379TIP3    H179628   1.093   2.475  11.852 -0.0466  0.2814 -0.4975
19379TIP3    H279629   1.174   2.603  11.838  1.1923 -0.5590 -1.2176
19380TIP3   OH279630   0.742   5.837  11.665 -0.3123 -0.2469 -0.3042
19380TIP3    H179631   0.765   5.923  11.702 -0.0359 -0.0722 -0.8633
19380TIP3    H279632   0.680   5.800  11.728  0.9468 -0.4169  0.8916
19381TIP3   OH279633   0.064   5.815   4.965  0.7920 -0.5199  0.6433
19381TIP3    H179634  -0.005   5.882   4.969  0.9192 -0.3438 -0.0756
19381TIP3    H279635   0.018   5.733   4.982  0.1556 -0.5629 -1.0631
19382TIP3   OH279636   6.606   0.461  16.880 -0.2862  0.5453 -0.2038
19382TIP3    H179637   6.671   0.477  16.812 -0.3815 -0.8001 -0.6442
19382TIP3    H279638   6.524   0.447  16.833 -0.1702 -1.3647  0.0548
19383TIP3   OH279639   4.823   3.018   6.518  0.5320  1.0236 -0.1592
19383TIP3    H179640   4.848   2.941   6.569  1.8285  0.5698 -1.4014
19383TIP3    H279641   4.793   3.082   6.583 -1.5694 -0.8377  0.8325
19384TIP3   OH279642   1.467   2.144  11.502  0.0521 -0.3878 -0.0814
19384TIP3    H179643   1.497   2.127  11.591 -1.0062 -0.4589  0.2799
19384TIP3    H279644   1.435   2.060  11.471  0.2478 -0.3238 -0.4671
19385TIP3   OH279645   6.242   2.153  13.632 -0.0070 -0.1442 -0.0268
19385TIP3    H179646   6.159   2.137  13.587  0.2574 -0.9018 -0.2693
19385TIP3    H279647   6.296   2.201  13.568 -0.5390  1.1021  0.4304
19386TIP3   OH279648   6.501   2.628   5.650 -0.3707 -0.0481  0.4500
19386TIP3    H179649   6.407   2.639   5.664 -0.5344 -0.7834 -0.0203
19386TIP3    H279650   6.538   2.620   5.738 -0.6000  1.3201  0.6871
19387TIP3   OH279651   0.149   0.290  11.299 -0.4546  0.2684  0.5062
19387TIP3    H179652   0.178   0.305  11.209 -0.5711  0.2368  0.4627
19387TIP3    H279653   0.162   0.197  11.313 -0.6668  0.2278  0.4386
19388TIP3   OH279654   0.666   3.644   3.963  0.3288  0.1845  0.2921
19388TIP3    H179655   0.686   3.586   3.890  0.7027  0.7922 -0.1028
19388TIP3    H279656   0.724   3.719   3.950 -0.3178  0.7586  0.6522
19389TIP3   OH279657   3.702   3.111  14.665  0.5894 -0.2918  0.4305
19389TIP3    H179658   3.691   3.178  14.597  1.4633  0.2212  0.7661
19389TIP3    H279659   3.785   3.135  14.708  1.4241 -2.1334 -0.0528
19390TIP3   OH279660   5.251   1.132   1.701 -0.3936  0.1820 -0.3743
19390TIP3    H179661   5.159   1.102   1.701  0.3521 -2.4371 -1.8088
19390TIP3    H279662   5.247   1.223   1.673 -2.4426 -0.5307 -2.7204
19391TIP3   OH279663   4.343   1.747   6.448 -0.1696  0.4762  0.4569
19391TIP3    H179664   4.309   1.832   6.421  1.2006  1.4166  1.5765
19391TIP3    H279665   4.436   1.751   6.427  0.1465 -0.2732  1.6593
19392TIP3   OH279666   0.613   2.619  14.699 -0.9407 -0.1103  0.5094
19392TIP3    H179667   0.678   2.550  14.689  0.6019  1.0872  1.7396
19392TIP3    H279668   0.531   2.578  14.672  0.3412 -1.5474 -1.5291
19393TIP3   OH279669   5.098   6.205   3.111 -0.0477 -0.0069  0.4685
19393TIP3    H179670   5.172   6.228   3.055 -0.5457  2.2976  0.6731
19393TIP3    H279671   5.138   6.174   3.192  0.6680 -0.8083 -0.1717
19394TIP3   OH279672   1.728   6.229   1.157  0.5817 -0.2107 -0.2254
19394TIP3    H179673   1.688   6.153   1.198  3.8496 -1.3830  1.1462
19394TIP3    H279674   1.663   6.299   1.165 -1.1828 -1.9499  1.6143
19395TIP3   OH279675   5.024   4.296   1.097 -0.5811  0.1357  0.5861
19395TIP3    H179676   4.954   4.230   1.098  1.0949 -2.0051 -3.0775
19395TIP3    H279677   4.977   4.380   1.090 -3.0434 -1.2671 -3.5062
19396TIP3   OH279678   2.233   2.595   5.373 -0.5837  0.1031 -0.3169
19396TIP3    H179679   2.325   2.607   5.393 -0.9105  0.3918  1.1667
19396TIP3    H279680   2.198   2.684   5.367 -1.1314  0.0094  1.1146
19397TIP3   OH279681   2.584   3.735   5.946 -0.2662  0.1465  0.1023
19397TIP3    H179682   2.633   3.789   6.008 -0.9123  0.2508  0.5411
19397TIP3    H279683   2.613   3.764   5.860 -0.5327  1.1391  0.3300
19398TIP3   OH279684   2.566   4.182  12.859  0.6146 -0.2913 -0.2874
19398TIP3    H179685   2.630   4.154  12.925  0.5914 -0.4003 -0.3121
19398TIP3    H279686   2.508   4.107  12.848  2.2766 -1.3844 -2.5060
19399TIP3   OH279687   2.048   3.396   4.361  0.6340  0.3310 -0.2580
19399TIP3    H179688   2.117   3.414   4.297  1.4552 -0.4119  0.4011
19399TIP3    H279689   2.094   3.387   4.445 -0.4220  1.3557  0.4718
19400TIP3   OH279690   1.118   0.452  16.636  0.1242 -0.6377 -0.0597
19400TIP3    H179691   1.100   0.364  16.604  0.1564  0.0095 -2.0347
19400TIP3    H279692   1.174   0.491  16.569 -0.6413  1.1841  0.2772
19401TIP3   OH279693   3.319   5.125  10.563  0.2218  0.4044 -0.4825
19401TIP3    H179694   3.230   5.107  10.531 -0.1740  2.3321 -0.5709
19401TIP3    H279695   3.376   5.094  10.492 -0.3114 -1.3900 -0.1805
19402TIP3   OH279696   0.565   0.004  15.030  0.2340  0.2957  0.4213
19402TIP3    H179697   0.635   0.053  14.986 -1.1749 -0.3834 -2.8727
19402TIP3    H279698   0.499   0.071  15.050 -0.3315  0.2658 -1.1965
19403TIP3   OH279699   2.460   4.749   4.519  0.6697  0.3954 -0.0030
19403TIP3    H179700   2.387   4.725   4.577  0.6252 -0.3496 -0.3595
19403TIP3    H279701   2.539   4.732   4.571  0.6213 -0.0371 -0.0643
19404TIP3   OH279702   5.253   1.030   0.659 -0.2044 -0.2018  0.1967
19404TIP3    H179703   5.163   1.031   0.626  0.0242 -1.7004 -0.5272
19404TIP3    H279704   5.278   0.938   0.662  1.6990  0.2136 -0.7195
19405TIP3   OH279705   6.123   0.465   5.462  0.2851  0.2368 -0.3280
19405TIP3    H179706   6.106   0.553   5.494  1.4776 -0.2465  1.7856
19405TIP3    H279707   6.205   0.472   5.414  0.9314  0.1185  0.7273
19406TIP3   OH279708   1.570   1.036   5.296  0.5254 -0.1560  0.8470
19406TIP3    H179709   1.636   1.093   5.256 -0.3159 -0.2047 -0.7063
19406TIP3    H279710   1.487   1.071   5.264 -0.1349 -0.7703  1.8705
19407TIP3   OH279711   3.729   1.342  15.981  0.1271 -0.1862  0.0489
19407TIP3    H179712   3.748   1.336  15.887 -0.6839 -0.9677 -0.0877
19407TIP3    H279713   3.807   1.382  16.019  0.5564 -0.0526 -0.9283
19408TIP3   OH279714   0.786   2.054  12.394  0.4691  0.0148 -0.8964
19408TIP3    H179715   0.727   1.994  12.348  1.3464  0.4384 -2.6352
19408TIP3    H279716   0.766   2.140  12.358  1.3405  0.3279 -0.6558
19409TIP3   OH279717   5.312   3.907  16.379 -0.2224  0.0680  0.6815
19409TIP3    H179718   5.239   3.846  16.388 -0.0220 -0.1104  1.1194
19409TIP3    H279719   5.338   3.928  16.469  1.0457 -0.8104  0.5513
19410TIP3   OH279720   6.014   2.086  15.596 -0.0514  0.3431 -0.7680
19410TIP3    H179721   5.967   2.008  15.566  0.8404 -0.6698  0.3519
19410TIP3    H279722   6.101   2.077  15.558  0.7942 -0.4649  1.1822
19411TIP3   OH279723   4.391   1.147   2.740  0.1199  0.2897 -0.5161
19411TIP3    H179724   4.382   1.066   2.791  2.6090 -0.0873 -0.5396
19411TIP3    H279725   4.308   1.193   2.754 -0.6872 -1.4446  0.9340
19412TIP3   OH279726   2.433   5.421   0.928  0.2031  0.2427 -0.0431
19412TIP3    H179727   2.480   5.472   0.995  1.1889  0.9078 -1.2078
19412TIP3    H279728   2.395   5.348   0.977 -0.7938  1.7707  1.5867
19413TIP3   OH279729   1.761   2.368  15.959 -0.4244  0.2590 -0.1444
19413TIP3    H179730   1.740   2.286  15.913 -0.1062 -0.2908  0.6604
19413TIP3    H279731   1.840   2.347  16.009  0.9952  1.7237 -1.6482
19414TIP3   OH279732   2.963   2.059  14.982 -0.6359  0.0540 -0.7032
19414TIP3    H179733   3.036   2.104  15.024  2.1225 -2.4436 -2.3939
19414TIP3    H279734   2.889   2.119  14.993  1.0747  1.8463  2.9205
19415TIP3   OH279735   5.636   3.647  16.372  0.3088 -0.1045 -0.1101
19415TIP3    H179736   5.695   3.571  16.374 -0.3305 -0.6157 -0.2328
19415TIP3    H279737   5.601   3.647  16.283  0.2370  0.2865 -0.0818
19416TIP3   OH279738   5.487   0.292   2.915 -0.2551  0.2641 -0.0361
19416TIP3    H179739   5.560   0.353   2.901 -0.4099  0.9508  1.8447
19416TIP3    H279740   5.526   0.205   2.901  0.9634  0.6174  0.9404
19417TIP3   OH279741   5.229   4.527   1.597  0.1519  0.8963  0.1082
19417TIP3    H179742   5.242   4.535   1.502  0.5826 -0.6691  0.0018
19417TIP3    H279743   5.307   4.568   1.635  1.7200 -1.4696 -0.3501
19418TIP3   OH279744   2.041   4.884  13.088 -0.4861  0.1947  0.3109
19418TIP3    H179745   2.072   4.905  13.176 -0.9497  1.3168  0.2192
19418TIP3    H279746   2.075   4.796  13.072  0.6484  0.4534  1.1218
19419TIP3   OH279747   2.732   2.092   2.095 -0.0745 -0.0900 -0.1320
19419TIP3    H179748   2.789   2.121   2.166 -0.1944  0.6844 -0.3454
19419TIP3    H279749   2.646   2.129   2.116  0.0332  0.7203 -1.0124
19420TIP3   OH279750   5.576   5.675  11.273  0.0162  0.1896 -0.0568
19420TIP3    H179751   5.516   5.700  11.203 -0.1465 -0.7037 -0.2572
19420TIP3    H279752   5.641   5.745  11.277 -0.2115  0.4437 -0.8350
19421TIP3   OH279753   2.173   2.317   4.494  0.2248 -0.1917 -0.2173
19421TIP3    H179754   2.249   2.375   4.495  1.5535 -1.8324 -0.4653
19421TIP3    H279755   2.122   2.345   4.418  0.1394  1.4288  0.3902
19422TIP3   OH279756   4.208   4.459   0.755 -0.2495 -0.3235 -0.3163
19422TIP3    H179757   4.211   4.387   0.692  1.0587  0.4265 -1.1564
19422TIP3    H279758   4.288   4.509   0.739 -1.0989  1.3095  0.2466
19423TIP3   OH279759   2.148   1.164   6.172 -0.4127  0.0160 -0.7812
19423TIP3    H179760   2.077   1.111   6.137 -0.1282 -0.3266 -0.8456
19423TIP3    H279761   2.188   1.204   6.095  0.0420 -0.5230 -0.8324
19424TIP3   OH279762   6.079   0.279  14.322 -0.5729  0.2572  0.0185
19424TIP3    H179763   5.999   0.246  14.363 -1.9508  1.7126 -1.3626
19424TIP3    H279764   6.057   0.288  14.230  1.2998  0.4292 -0.4509
19425TIP3   OH279765   3.326   6.642  16.405 -0.0629  0.2242  0.1110
19425TIP3    H179766   3.307   6.548  16.407 -1.6584  0.4758 -1.4959
19425TIP3    H279767   3.421   6.647  16.416  0.2732 -1.6893 -1.5222
19426TIP3   OH279768   5.667   3.874   1.211  0.5957 -0.3379  0.0628
19426TIP3    H179769   5.615   3.879   1.131 -1.2643  0.2758  1.2335
19426TIP3    H279770   5.739   3.935   1.197 -0.5853  0.9625 -0.5664
19427TIP3   OH279771   0.709   0.995   2.087 -0.1333 -0.5078  0.3223
19427TIP3    H179772   0.791   0.982   2.134  1.2800  1.9129 -1.2679
19427TIP3    H279773   0.729   0.970   1.996 -1.0380  0.4029 -0.1543
19428TIP3   OH279774   0.363   3.858   3.686 -0.2985 -0.6159  0.5087
19428TIP3    H179775   0.434   3.899   3.638 -0.5024  0.5713  1.2061
19428TIP3    H279776   0.284   3.886   3.640 -0.3344 -2.4965 -0.6985
19429TIP3   OH279777   4.964   4.773   3.169 -0.1019 -0.2746 -0.1631
19429TIP3    H179778   5.011   4.732   3.097  0.1003 -0.0182 -0.1804
19429TIP3    H279779   4.922   4.850   3.129 -2.0961 -1.5094 -0.5724
19430TIP3   OH279780   0.022   6.817  16.992  0.1073  0.7198 -0.4896
19430TIP3    H179781   0.105   6.856  17.017 -0.9534  3.7471 -1.2514
19430TIP3    H279782   0.042   6.725  16.977  3.3261  1.3432 -0.7277
19431TIP3   OH279783   4.728   0.623   1.244 -0.3205 -0.0523 -0.4031
19431TIP3    H179784   4.668   0.550   1.255 -1.0189  0.4969 -0.5001
19431TIP3    H279785   4.674   0.694   1.209  0.0948  0.8649  0.7411
19432TIP3   OH279786   0.143   4.825   1.723  0.0786 -0.3166 -0.3265
19432TIP3    H179787   0.071   4.776   1.682 -0.2837 -1.2053  1.2924
19432TIP3    H279788   0.222   4.791   1.681 -0.2780 -1.1701 -0.3221
19433TIP3   OH279789   1.621   0.975   5.568 -0.0003 -0.3371  0.4812
19433TIP3    H179790   1.646   0.986   5.476  0.8830  0.7842  0.8293
19433TIP3    H279791   1.584   1.059   5.594 -1.2266 -0.9774  0.8761
19434TIP3   OH279792   3.123   2.340   0.574  0.1461 -0.1224 -0.2427
19434TIP3    H179793   3.092   2.260   0.618 -0.0295 -0.2922 -0.6651
19434TIP3    H279794   3.210   2.316   0.540  0.2619 -0.0065 -0.0276
19435TIP3   OH279795   2.018   6.291  15.447  0.1483  0.0432 -0.1682
19435TIP3    H179796   2.090   6.322  15.393  4.9004 -1.9920  4.1925
19435TIP3    H279797   2.019   6.196  15.438 -1.3013 -0.1192  0.8930
19436TIP3   OH279798   6.073   4.527   0.833 -0.0503  0.3852  0.0445
19436TIP3    H179799   6.166   4.544   0.849  0.4501 -1.6301 -0.4656
19436TIP3    H279800   6.050   4.587   0.762  1.3925 -0.3420 -1.1176
19437TIP3   OH279801   3.259   5.617  11.960  0.3549  0.0500 -0.1497
19437TIP3    H179802   3.248   5.711  11.946  0.8923  0.3582  1.2542
19437TIP3    H279803   3.302   5.585  11.881  0.7623  1.1198 -0.3721
19438TIP3   OH279804   0.623   5.506   4.521 -0.3169  0.3479  0.3181
19438TIP3    H179805   0.545   5.451   4.528 -0.6909  0.8862  0.4231
19438TIP3    H279806   0.599   5.574   4.459  0.5549 -0.2931 -0.7709
19439TIP3   OH279807   1.118   0.120  10.954 -0.2011  0.0417 -0.5146
19439TIP3    H179808   1.079   0.190  10.902  1.3349  1.0945 -0.3383
19439TIP3    H279809   1.155   0.060  10.890 -0.4637  0.0408 -0.6636
19440TIP3   OH279810   4.719   4.403  16.165  0.1944  0.0177 -0.2008
19440TIP3    H179811   4.673   4.365  16.240 -0.4157  1.5543  0.2453
19440TIP3    H279812   4.730   4.331  16.104 -0.7635 -0.8947  0.6779
19441TIP3   OH279813   6.815   6.084   5.006  0.1453  0.5234  0.1445
19441TIP3    H179814   6.818   6.154   5.071 -2.2147  0.3907  0.4973
19441TIP3    H279815   6.831   6.127   4.923 -2.3855  1.7885  0.2187
19442TIP3   OH279816   5.784   0.874   3.221 -0.1722 -0.4281 -0.1355
19442TIP3    H179817   5.852   0.917   3.274  1.4342 -1.5274 -1.1985
19442TIP3    H279818   5.717   0.941   3.209  0.9461  0.8723  0.5514
19443TIP3   OH279819   5.622   1.828  11.086 -0.2116 -0.5424 -0.4280
19443TIP3    H179820   5.705   1.809  11.129  1.0181  0.3364 -2.2626
19443TIP3    H279821   5.635   1.914  11.046 -1.2929 -1.1974 -2.3291
19444TIP3   OH279822   4.478   6.033   5.382 -0.3442 -0.2752 -0.0992
19444TIP3    H179823   4.530   6.013   5.460 -0.6459 -1.6523 -0.2409
19444TIP3    H279824   4.407   5.970   5.382 -0.4942 -0.1460 -1.3608
19445TIP3   OH279825   0.736   3.905   0.029 -0.5420 -0.4374  0.0942
19445TIP3    H179826   0.657   3.869  -0.010  0.4188 -0.5062 -1.9357
19445TIP3    H279827   0.806   3.847  -0.003  0.4837  0.4930  0.6146
19446TIP3   OH279828   4.433   5.274  11.785  0.5045  1.0082 -0.0640
19446TIP3    H179829   4.518   5.252  11.747  0.7684  0.6093  0.7240
19446TIP3    H279830   4.421   5.367  11.766  0.7500  0.8779 -0.8736
19447TIP3   OH279831   3.263   3.490   3.857 -0.4559 -0.3959 -0.2948
19447TIP3    H179832   3.184   3.521   3.901 -0.1304  0.0802 -0.0346
19447TIP3    H279833   3.306   3.569   3.826 -0.1011 -0.6555 -0.4768
19448TIP3   OH279834   1.107   6.043   2.782  0.4766  0.6638  0.2412
19448TIP3    H179835   1.120   6.122   2.834  0.8820  0.5841  0.2612
19448TIP3    H279836   1.160   6.057   2.703 -0.9345  1.2418 -0.6466
19449TIP3   OH279837   1.956   0.274   4.987  0.1062  0.2086  0.5166
19449TIP3    H179838   1.861   0.261   4.983 -0.0125  1.1156  0.2524
19449TIP3    H279839   1.970   0.317   5.072  0.2724  0.1327  0.5274
19450TIP3   OH279840   2.529   2.401  16.192 -0.2065 -0.1354  0.6695
19450TIP3    H179841   2.479   2.427  16.270  0.0454 -2.1619  1.5758
19450TIP3    H279842   2.621   2.410  16.219 -0.1127 -0.1865  0.3655
19451TIP3   OH279843   0.964   1.072  15.696 -0.0947 -0.0842 -0.2880
19451TIP3    H179844   1.046   1.042  15.737  0.1234  1.9813  0.9323
19451TIP3    H279845   0.897   1.055  15.762 -0.1946  0.7480 -0.1733
19452TIP3   OH279846   3.780   6.031   2.380 -0.4970 -0.1578 -0.1975
19452TIP3    H179847   3.839   6.095   2.422  0.6201 -1.7438  0.7501
19452TIP3    H279848   3.708   6.022   2.442  0.1041 -0.9301  0.4016
19453TIP3   OH279849   5.279   5.460   4.142  0.2423 -0.1314 -0.2939
19453TIP3    H179850   5.286   5.397   4.214  0.9129  0.6711  0.3657
19453TIP3    H279851   5.217   5.421   4.082 -0.8531 -0.5268  1.0416
19454TIP3   OH279852   6.432   0.217  10.812  0.4309  0.1551 -0.0115
19454TIP3    H179853   6.509   0.173  10.777  0.8252  0.0723  0.9260
19454TIP3    H279854   6.407   0.279  10.745  1.8337  0.7915  0.0256
19455TIP3   OH279855   3.194   4.165  14.742 -0.0429  0.0611  0.3540
19455TIP3    H179856   3.114   4.139  14.697  0.7399 -1.5199 -0.1646
19455TIP3    H279857   3.174   4.154  14.835 -0.7140  0.5925  0.2845
19456TIP3   OH279858   3.832   3.810   0.539 -0.0492  0.2490  0.4891
19456TIP3    H179859   3.902   3.761   0.581 -0.0884  0.1856  0.4807
19456TIP3    H279860   3.752   3.761   0.561  0.1032 -0.8179 -1.1640
19457TIP3   OH279861   6.256   6.262   4.700  0.5961 -0.3818 -0.1447
19457TIP3    H179862   6.223   6.350   4.718  0.8605  0.1217 -1.9112
19457TIP3    H279863   6.325   6.249   4.764  0.5450  0.6947  0.1493
19458TIP3   OH279864   1.056   0.285   0.571 -0.2347 -0.0719 -0.8263
19458TIP3    H179865   1.006   0.208   0.543 -0.6803 -0.0403 -0.1439
19458TIP3    H279866   1.003   0.324   0.641  0.2039  0.6031 -0.8612
19459TIP3   OH279867   2.564   1.083   1.212  0.5654  0.2264 -0.0995
19459TIP3    H179868   2.608   1.168   1.222  0.1007  0.5523 -0.7885
19459TIP3    H279869   2.553   1.052   1.302  3.3151 -0.4469  0.0934
19460TIP3   OH279870   3.257   4.843   2.839 -0.4399  0.7220  0.5623
19460TIP3    H179871   3.309   4.899   2.781 -1.3643  1.5088  0.4667
19460TIP3    H279872   3.316   4.823   2.912  0.6987 -0.1768 -0.5547
19461TIP3   OH279873   2.982   1.273  13.507 -0.7769 -0.4444 -0.0936
19461TIP3    H179874   3.068   1.315  13.500 -0.5884 -1.0795 -2.1673
19461TIP3    H279875   2.923   1.330  13.459 -1.1882 -0.8807 -0.1171
19462TIP3   OH279876   6.555   3.227  10.477  0.3854 -0.1638  0.3866
19462TIP3    H179877   6.538   3.197  10.388 -0.3906  0.2690  0.3713
19462TIP3    H279878   6.518   3.159  10.533  2.1247 -1.1292  0.4168
19463TIP3   OH279879   3.864   0.821   3.240  0.4935  0.9310 -0.0552
19463TIP3    H179880   3.776   0.831   3.206  0.6274 -1.0946 -1.1227
19463TIP3    H279881   3.860   0.743   3.295  1.5367  1.0146  0.1603
19464TIP3   OH279882   3.377   2.430  16.726 -0.1088 -0.0410 -0.3157
19464TIP3    H179883   3.406   2.365  16.791 -1.4403  0.5114  0.8938
19464TIP3    H279884   3.458   2.469  16.693  0.6200 -0.3880  0.9773
19465TIP3   OH279885   4.932   4.215  12.245  0.3336  0.0841 -0.3904
19465TIP3    H179886   4.867   4.255  12.188  0.8412  0.3459 -0.7980
19465TIP3    H279887   4.992   4.286  12.267  1.2659 -0.4357 -1.1512
19466TIP3   OH279888   4.174   2.859  12.866 -0.2687 -0.3444  0.1817
19466TIP3    H179889   4.248   2.914  12.892 -1.0588  1.3143 -0.8735
19466TIP3    H279890   4.123   2.848  12.946  0.7128 -0.8847  0.7494
19467TIP3   OH279891   4.709   5.825   2.380  0.2333 -0.4018  0.1871
19467TIP3    H179892   4.728   5.799   2.470 -2.0271 -0.5136  0.7021
19467TIP3    H279893   4.759   5.763   2.326 -0.1715 -1.8298  1.3786
19468TIP3   OH279894   5.858   0.403  11.886  0.2324  0.1168 -0.0574
19468TIP3    H179895   5.801   0.450  11.947  0.8162  0.6273  0.0928
19468TIP3    H279896   5.924   0.467  11.860  1.1130 -0.6383  0.2511
19469TIP3   OH279897   5.917   0.704  14.377  0.3614 -0.2801 -0.0026
19469TIP3    H179898   5.866   0.679  14.454 -0.1647  1.2776  0.1827
19469TIP3    H279899   5.853   0.710  14.307  0.2044  1.7352  0.2409
19470TIP3   OH279900   3.008   0.638   1.075 -0.2235  0.4812  1.1887
19470TIP3    H179901   3.031   0.722   1.116  1.1682 -0.2497  1.9861
19470TIP3    H279902   3.032   0.650   0.983 -1.4513  1.4390  0.9560
19471TIP3   OH279903   4.523   4.703  10.416  0.3137 -0.0647 -0.3666
19471TIP3    H179904   4.469   4.624  10.425  0.4248 -0.2372 -1.1841
19471TIP3    H279905   4.463   4.770  10.385  0.3823 -0.0260 -0.4151
19472TIP3   OH279906   4.466   3.111  13.574  0.1473  0.3070  0.0325
19472TIP3    H179907   4.505   3.196  13.595  1.0198 -0.2328  0.6726
19472TIP3    H279908   4.372   3.124  13.590 -0.0285  1.7109 -1.8266
19473TIP3   OH279909   1.528   1.933  12.750  0.0259  0.3360  0.0629
19473TIP3    H179910   1.456   1.900  12.696 -0.9715  1.6186  0.5339
19473TIP3    H279911   1.565   2.005  12.698 -0.4313  1.0661  0.7250
19474TIP3   OH279912   5.642   3.789  12.107  0.0882  0.0080 -0.0987
19474TIP3    H179913   5.589   3.771  12.029  0.8941  0.4940 -0.7743
19474TIP3    H279914   5.712   3.847  12.076  1.1436 -0.7805  0.7361
19475TIP3   OH279915   5.533   6.595   1.230 -0.3169 -0.3637 -0.2429
19475TIP3    H179916   5.609   6.650   1.213  0.1422 -1.2720 -1.2650
19475TIP3    H279917   5.527   6.590   1.325  0.5848  0.1580 -0.1540
19476TIP3   OH279918   2.682   4.044   0.936 -0.0326  0.1344  0.2057
19476TIP3    H179919   2.624   4.109   0.975 -1.0110 -0.7735  0.3087
19476TIP3    H279920   2.707   3.987   1.008  0.6238  0.2350  0.0685
19477TIP3   OH279921   4.374   0.617   5.267  0.3340 -0.3874  0.0965
19477TIP3    H179922   4.331   0.569   5.197  0.2823 -0.2960  0.0667
19477TIP3    H279923   4.333   0.585   5.347  1.0464 -1.1941  0.1585
19478TIP3   OH279924   5.549   1.182  15.527  0.6503 -0.2715  0.1876
19478TIP3    H179925   5.620   1.216  15.581  2.8856 -1.9101 -1.4940
19478TIP3    H279926   5.520   1.103  15.571  1.1903 -0.6019 -0.0354
19479TIP3   OH279927   0.777   6.629  15.585  0.1121 -0.0593 -0.0916
19479TIP3    H179928   0.719   6.673  15.524 -1.1533 -3.4557 -1.5503
19479TIP3    H279929   0.724   6.615  15.664 -0.5444 -1.5648 -0.7635
19480TIP3   OH279930   6.507   3.533  10.864 -0.1945 -0.0122 -0.2645
19480TIP3    H179931   6.587   3.556  10.816  1.3534 -0.2946  2.0313
19480TIP3    H279932   6.514   3.439  10.879 -1.0378 -0.0620 -0.1224
19481TIP3   OH279933   2.917   5.882   0.477  0.2984  0.3917  0.0514
19481TIP3    H179934   2.854   5.854   0.542  2.0134  1.4585  2.3161
19481TIP3    H279935   2.936   5.804   0.425 -0.8659 -0.5687  1.0451
19482TIP3   OH279936   5.743   4.979  15.487 -0.1079 -0.0960  0.5216
19482TIP3    H179937   5.770   4.907  15.430 -1.2872  0.1938 -0.4270
19482TIP3    H279938   5.819   5.038  15.488  0.0762 -0.2927 -0.4475
19483TIP3   OH279939   2.441   0.776   0.039 -0.8495  0.2437  0.5554
19483TIP3    H179940   2.405   0.736   0.118  0.0844 -0.2709  0.7338
19483TIP3    H279941   2.415   0.718  -0.032 -0.0604 -0.3550  0.7348
19484TIP3   OH279942   5.878   6.156   5.565  0.0675  0.6164  0.2598
19484TIP3    H179943   5.854   6.153   5.658 -1.2848  1.0376 -0.0681
19484TIP3    H279944   5.966   6.118   5.563 -0.6529 -1.2857  1.4609
19485TIP3   OH279945   0.525   3.684  15.932  0.2579  0.0332 -0.2656
19485TIP3    H179946   0.614   3.661  15.960 -0.7262 -1.0176  2.3231
19485TIP3    H279947   0.478   3.700  16.014 -1.6228  1.9354 -1.6212
19486TIP3   OH279948   5.479   2.941  13.366  0.0368  0.1937  0.5767
19486TIP3    H179949   5.424   2.932  13.289 -1.7907  0.2131  1.8210
19486TIP3    H279950   5.422   2.977  13.433  2.1563  2.4661  1.3141
19487TIP3   OH279951   2.955   0.654  15.703 -0.1251 -0.2451 -0.5633
19487TIP3    H179952   2.901   0.715  15.653  1.7906  0.4060 -1.9723
19487TIP3    H279953   3.018   0.620  15.639  2.8170  1.0143  1.4404
19488TIP3   OH279954   1.314   1.364   4.384 -0.0304  0.2795 -0.0443
19488TIP3    H179955   1.269   1.354   4.299  0.3172  2.3124 -0.5046
19488TIP3    H279956   1.386   1.301   4.380 -1.3529 -1.2971 -0.2863
19489TIP3   OH279957   1.585   3.902  17.116 -0.4666  0.4115 -0.7436
19489TIP3    H179958   1.515   3.912  17.180 -0.9747 -0.7462 -1.0904
19489TIP3    H279959   1.550   3.841  17.051  0.3145  0.9797 -1.7264
19490TIP3   OH279960   5.454   2.346   2.842 -0.4768  0.2908  0.4219
19490TIP3    H179961   5.380   2.383   2.890 -0.5076 -0.3825  0.9079
19490TIP3    H279962   5.435   2.366   2.750 -1.2747  0.1154  0.5373
19491TIP3   OH279963   1.082   1.557   2.603 -0.0804  0.6382 -0.2888
19491TIP3    H179964   1.156   1.582   2.548 -1.4874  0.5830 -2.3395
19491TIP3    H279965   1.115   1.488   2.660  1.4497  0.7266 -1.0301
19492TIP3   OH279966   5.302   4.393  14.139 -0.0934  0.1332 -0.8132
19492TIP3    H179967   5.326   4.301  14.146  0.4903  0.2487 -1.1810
19492TIP3    H279968   5.316   4.429  14.226  0.7041  0.1057 -0.9268
19493TIP3   OH279969   5.823   0.325   4.295 -0.4340 -0.1019  0.1305
19493TIP3    H179970   5.883   0.252   4.279 -0.7551 -0.2201 -0.5759
19493TIP3    H279971   5.737   0.285   4.297 -0.8316  0.4928 -2.3236
19494TIP3   OH279972   0.823   1.531  15.193  0.4466  0.2383  0.6709
19494TIP3    H179973   0.769   1.475  15.138 -0.4366 -0.4928  2.2028
19494TIP3    H279974   0.896   1.476  15.220  0.7700  0.5271  0.3865
19495TIP3   OH279975   2.237   4.355   6.202 -0.1375  0.1411  0.2749
19495TIP3    H179976   2.261   4.339   6.294  0.3339 -0.6005  0.0321
19495TIP3    H279977   2.147   4.326   6.195 -0.2505  0.4188  0.5586
19496TIP3   OH279978   6.742   2.072  12.875 -0.4388  0.1052 -0.4550
19496TIP3    H179979   6.780   1.984  12.884 -0.3118  0.2073  0.0190
19496TIP3    H279980   6.795   2.127  12.933  1.4448  1.1236 -2.9578
19497TIP3   OH279981   5.619   3.040   4.299 -0.3719 -0.1885 -0.3962
19497TIP3    H179982   5.544   2.981   4.288  0.3842 -0.8966 -2.1098
19497TIP3    H279983   5.693   2.981   4.316  0.0510  0.4027 -0.1635
19498TIP3   OH279984   4.014   3.290   3.846 -0.8074 -0.6261 -0.4998
19498TIP3    H179985   4.067   3.287   3.767  0.7728  2.7485  0.2746
19498TIP3    H279986   3.945   3.354   3.828 -1.7377 -1.3894  0.1824
19499TIP3   OH279987   2.640   0.938  14.664  0.2892 -0.2245  0.3995
19499TIP3    H179988   2.727   0.918  14.697  1.5995  1.9080 -1.5319
19499TIP3    H279989   2.625   0.873  14.595  0.1556 -0.8148  0.9692
19500TIP3   OH279990   6.480   1.686  14.080  0.4855  0.4734 -0.3147
19500TIP3    H179991   6.573   1.666  14.066  0.1754  0.9880 -4.2203
19500TIP3    H279992   6.439   1.600  14.090  1.2336  0.1779  0.3421
19501TIP3   OH279993   2.795   3.619   1.324 -0.5769  0.1770 -0.1313
19501TIP3    H179994   2.778   3.552   1.390 -2.0782  0.2534 -0.4020
19501TIP3    H279995   2.809   3.570   1.243 -0.6001  0.1566 -0.1230
19502TIP3   OH279996   0.134   6.632   2.023  0.1603  0.0851  0.1884
19502TIP3    H179997   0.142   6.674   2.109  1.5607  2.2353 -0.9053
19502TIP3    H279998   0.157   6.701   1.961  1.2296 -1.9608 -1.8192
19503TIP3   OH279999   5.421   6.802   4.571  0.1889  0.5558  0.4288
19503TIP3    H180000   5.410   6.736   4.640  2.2676 -2.2354 -1.6466
19503TIP3    H280001   5.497   6.853   4.599 -0.8349  1.5004  1.5837
19504TIP3   OH280002   0.828   1.478  13.082  0.3310 -0.2536 -0.2346
19504TIP3    H180003   0.811   1.424  13.159 -1.8166  0.3420 -0.2388
19504TIP3    H280004   0.761   1.452  13.019 -0.7601  2.3342 -0.2614
19505TIP3   OH280005   4.389   4.832   6.547  1.2210  0.0603  0.2749
19505TIP3    H180006   4.385   4.783   6.629  2.2108 -1.9894 -0.8410
19505TIP3    H280007   4.299   4.862   6.532  0.3074 -2.3963  0.4530
19506TIP3   OH280008   3.967   2.224  16.646  0.0205 -0.0773 -0.3792
19506TIP3    H180009   3.935   2.256  16.731  0.5311  0.0290 -0.2196
19506TIP3    H280010   4.049   2.272  16.633 -0.2812  0.2326 -1.1458
19507TIP3   OH280011   6.383   1.111  10.878  0.5944  0.2335  0.0578
19507TIP3    H180012   6.387   1.024  10.917 -1.8490 -0.4690 -1.0593
19507TIP3    H280013   6.307   1.153  10.919  2.9776  2.8134  2.2471
19508TIP3   OH280014   5.138   4.445   0.505 -0.4374 -0.3669  0.3930
19508TIP3    H180015   5.050   4.476   0.529 -0.3561  0.1446  0.0541
19508TIP3    H280016   5.190   4.458   0.584 -0.1761  1.2771 -0.0120
19509TIP3   OH280017   0.104   2.854   0.415  0.2950  0.4176 -0.1781
19509TIP3    H180018   0.122   2.825   0.326  0.9461 -1.1498  0.4195
19509TIP3    H280019   0.153   2.936   0.424 -0.4259  1.0133 -1.4940
19510TIP3   OH280020   3.364   1.852   6.247  0.4678 -0.7681  0.2229
19510TIP3    H180021   3.289   1.910   6.235  0.4888 -0.8314 -0.2469
19510TIP3    H280022   3.354   1.817   6.336  0.3409 -0.2109  0.4279
19511TIP3   OH280023   4.679   5.912   4.070 -0.1939  0.0921 -1.0418
19511TIP3    H180024   4.624   5.884   3.997 -1.3922 -2.0399  0.5703
19511TIP3    H280025   4.626   5.897   4.148  1.8073  0.2547  0.4410
19512TIP3   OH280026   0.743   4.650  15.447  0.5253 -0.0505  0.1787
19512TIP3    H180027   0.649   4.632  15.443  0.0697  1.5617  1.9410
19512TIP3    H280028   0.762   4.695  15.364 -0.0373 -1.1927 -0.5936
19513TIP3   OH280029   4.983   4.267  16.600  0.6020  0.0620  0.4875
19513TIP3    H180030   4.979   4.208  16.675 -0.1259  1.8154  1.9219
19513TIP3    H280031   4.914   4.332  16.617  0.2079  0.3398 -1.8806
19514TIP3   OH280032   0.404   4.822  11.901  0.0591 -0.3502 -0.2588
19514TIP3    H180033   0.455   4.740  11.903 -1.8236 -1.8235 -3.6442
19514TIP3    H280034   0.334   4.808  11.965  1.6477  0.1518  1.6930
19515TIP3   OH280035   2.068   1.952  13.309 -0.1324  0.5213 -0.6334
19515TIP3    H180036   2.142   1.913  13.357 -0.1252  0.2949 -0.8263
19515TIP3    H280037   2.058   1.896  13.232 -0.9677  0.1269 -0.2427
19516TIP3   OH280038   2.641   0.150   0.998  0.5031 -0.5921  0.4389
19516TIP3    H180039   2.647   0.241   0.969  0.7067 -1.0237 -0.9898
19516TIP3    H280040   2.630   0.100   0.916 -3.0713 -1.5787  1.3580
19517TIP3   OH280041   3.707   4.414  15.903  0.3354  0.0835 -0.3142
19517TIP3    H180042   3.681   4.449  15.989 -2.3192 -1.2404 -0.4598
19517TIP3    H280043   3.786   4.363  15.921  1.1354  1.6602  0.8768
19518TIP3   OH280044   0.197   1.843  12.070  0.0335  0.0865  0.0931
19518TIP3    H180045   0.120   1.899  12.074  0.5611  0.7764  1.7529
19518TIP3    H280046   0.168   1.759  12.106 -0.1922  0.0231 -0.2370
19519TIP3   OH280047   6.208   4.221   4.452 -0.0451  0.3431  0.0893
19519TIP3    H180048   6.218   4.290   4.386  0.5612 -0.4758 -0.6898
19519TIP3    H280049   6.124   4.181   4.432 -0.7525  1.3076  1.0022
19520TIP3   OH280050   0.544   6.106  17.005  0.2743  0.1443  0.1865
19520TIP3    H180051   0.491   6.031  16.978  0.1214  0.4485 -0.3709
19520TIP3    H280052   0.613   6.068  17.059 -0.4562 -0.2642  0.8416
19521TIP3   OH280053   5.955   0.335  15.237 -0.5964  0.1526  0.5070
19521TIP3    H180054   6.018   0.392  15.281 -1.3188  1.0766  0.3756
19521TIP3    H280055   6.006   0.293  15.168 -0.2286  1.3367  0.0199
19522TIP3   OH280056   1.281   2.003  13.667  0.1421 -0.0273 -0.5434
19522TIP3    H180057   1.252   1.940  13.733 -0.3294 -0.4121 -1.1167
19522TIP3    H280058   1.359   1.963  13.628  0.1396 -0.0166 -0.5589
19523TIP3   OH280059   0.594   1.426   5.756 -0.9473 -0.2346  0.2969
19523TIP3    H180060   0.659   1.471   5.702 -1.1643  0.4408  0.5828
19523TIP3    H280061   0.645   1.368   5.812 -0.8305 -2.5082 -2.0023
19524TIP3   OH280062   4.205   5.262   2.860  0.6036 -0.3010  0.0383
19524TIP3    H180063   4.146   5.238   2.788 -0.4499 -1.7782  1.3114
19524TIP3    H280064   4.293   5.244   2.826  0.1807 -0.2296 -1.1348
19525TIP3   OH280065   5.070   2.527   5.888  0.3608  0.3189  0.0452
19525TIP3    H180066   5.118   2.553   5.966 -0.8127  2.3807  0.1190
19525TIP3    H280067   4.980   2.513   5.917  0.5714 -2.4536 -0.3081
19526TIP3   OH280068   2.864   2.339  14.498  0.0021  0.3690 -0.1993
19526TIP3    H180069   2.857   2.308  14.588 -0.8776  2.1589  0.4132
19526TIP3    H280070   2.883   2.261  14.447  1.9041 -0.5127  1.6893
19527TIP3   OH280071   4.751   3.379   3.999  0.2656  0.0854  0.1037
19527TIP3    H180072   4.746   3.469   3.967  1.7863 -0.8966 -3.2856
19527TIP3    H280073   4.662   3.344   3.987 -0.0095  0.7316  0.2051
19528TIP3   OH280074   1.793   3.750   0.481  0.7320  0.3546  0.0643
19528TIP3    H180075   1.776   3.693   0.556  0.3456  1.1826  0.6158
19528TIP3    H280076   1.830   3.830   0.519  1.3783  0.4402 -0.7060
19529TIP3   OH280077   0.605   3.757  15.569 -0.0113  0.1929 -0.0326
19529TIP3    H180078   0.656   3.753  15.650 -0.0319 -0.2807 -0.0370
19529TIP3    H280079   0.616   3.671  15.529 -1.7973 -0.3864  0.5884
19530TIP3   OH280080   6.710   6.674   1.033 -0.1779  0.1482  0.1387
19530TIP3    H180081   6.751   6.629   1.106 -0.0673  0.0312  0.0048
19530TIP3    H280082   6.782   6.717   0.987 -0.4913  2.2691  1.4892
19531TIP3   OH280083   1.991   2.939   5.863 -0.0317 -0.2108  0.4649
19531TIP3    H180084   2.064   2.878   5.859  0.0058 -0.2340  1.3824
19531TIP3    H280085   1.926   2.902   5.804  1.0518  0.3047 -1.1074
19532TIP3   OH280086   1.444   6.434  10.707 -0.0802 -0.1830 -0.3121
19532TIP3    H180087   1.534   6.456  10.683  0.1332 -1.8795 -1.2704
19532TIP3    H280088   1.411   6.511  10.752  1.9361  0.3776  0.2957
19533TIP3   OH280089   6.758   3.027   1.409  0.4916  0.3859 -0.5547
19533TIP3    H180090   6.748   3.040   1.503 -1.2238 -1.0684 -0.4818
19533TIP3    H280091   6.826   2.960   1.402  0.3389  0.2004 -0.3142
19534TIP3   OH280092   3.192   2.413  13.898 -0.0130 -0.5704  0.1799
19534TIP3    H180093   3.279   2.407  13.859  0.1707  0.3881  0.4079
19534TIP3    H280094   3.136   2.360  13.841  0.4359  0.0177 -0.8241
19535TIP3   OH280095   0.315   1.748   2.650  0.5295 -0.4745  0.4312
19535TIP3    H180096   0.404   1.715   2.634  0.9087 -0.1203  1.7342
19535TIP3    H280097   0.325   1.809   2.722 -0.6319  0.3244 -0.0558
19536TIP3   OH280098   3.549   4.730   2.282  0.2587 -0.3721  0.6801
19536TIP3    H180099   3.598   4.787   2.340 -1.5147  2.5252 -0.4369
19536TIP3    H280100   3.601   4.727   2.202  0.6843 -0.8902  0.9756
19537TIP3   OH280101   3.445   0.709   4.933  0.4019 -0.0070 -0.2588
19537TIP3    H180102   3.529   0.722   4.890  0.9735 -0.3654  0.7075
19537TIP3    H280103   3.426   0.794   4.973 -0.6617  0.6565 -2.0655
19538TIP3   OH280104   1.054   3.945   1.478 -0.1251 -0.1650 -0.2564
19538TIP3    H180105   0.958   3.948   1.485 -0.3460 -2.6557 -1.1368
19538TIP3    H280106   1.084   3.934   1.569 -0.5865  1.2957  0.0993
19539TIP3   OH280107   3.870   5.001   4.900 -0.3097  0.2754  0.4333
19539TIP3    H180108   3.866   5.001   4.996  0.8957 -0.2665  0.4952
19539TIP3    H280109   3.893   4.911   4.877 -0.3140  0.4719 -0.3528
19540TIP3   OH280110   0.640   3.476  15.489  0.8954 -0.5545 -0.5691
19540TIP3    H180111   0.612   3.440  15.574 -2.7236  1.1074 -0.8561
19540TIP3    H280112   0.615   3.410  15.425 -3.0637  0.9063 -0.8224
19541TIP3   OH280113   1.905   2.806   3.840 -0.0419  0.6877 -0.2776
19541TIP3    H180114   1.941   2.727   3.799  0.3123  0.2241  0.8800
19541TIP3    H280115   1.810   2.793   3.839  0.0210  0.1824  0.0098
19542TIP3   OH280116   2.949   3.499   6.011 -0.6916 -0.3824 -0.4667
19542TIP3    H180117   2.899   3.427   6.050 -2.5425  1.3923  0.6662
19542TIP3    H280118   2.892   3.530   5.940 -1.7543  2.1984  1.3521
19543TIP3   OH280119   2.719   4.123  13.068 -0.0470 -0.1316  0.1574
19543TIP3    H180120   2.768   4.204  13.075 -2.1229  1.1971  0.2304
19543TIP3    H280121   2.731   4.081  13.153  0.6428  0.3391  0.2991
19544TIP3   OH280122   3.649   4.377  12.459  0.2445  0.0592  0.8999
19544TIP3    H180123   3.680   4.434  12.529 -1.3092  0.6957  1.1298
19544TIP3    H280124   3.555   4.396  12.453  0.0645 -1.0536 -0.3655
19545TIP3   OH280125   3.993   4.329  16.541  0.2859 -0.4738  0.1940
19545TIP3    H180126   3.993   4.382  16.621  0.0423 -0.1356 -0.0288
19545TIP3    H280127   3.952   4.246  16.567  0.7026 -0.5756  0.5538
19546TIP3   OH280128   6.131   2.470   1.946  0.4730  0.2377  0.1853
19546TIP3    H180129   6.227   2.470   1.946  0.5779 -2.1987  1.6630
19546TIP3    H280130   6.107   2.464   1.854  1.8528 -0.9693 -0.1484
19547TIP3   OH280131   2.350   4.807   4.264  0.0460  0.1482 -0.0284
19547TIP3    H180132   2.417   4.785   4.329  2.6105  0.1341 -2.4737
19547TIP3    H280133   2.369   4.898   4.240 -1.9183  0.7005  0.4226
19548TIP3   OH280134   2.020   0.625  16.223 -0.2785  0.1123  0.0454
19548TIP3    H180135   2.001   0.564  16.151  1.3320  0.3019 -0.5761
19548TIP3    H280136   2.102   0.593  16.260 -0.0658  1.1801  0.5189
19549TIP3   OH280137   2.624   2.380   1.677  0.2361 -0.4903  0.0323
19549TIP3    H180138   2.602   2.426   1.758  0.6746  0.7697 -0.5431
19549TIP3    H280139   2.716   2.402   1.661 -0.3538  0.8615 -1.8074
19550TIP3   OH280140   1.135   4.664  12.868 -0.2069 -0.0157 -0.0390
19550TIP3    H180141   1.128   4.571  12.892  2.4940  0.1608  1.9110
19550TIP3    H280142   1.064   4.706  12.916 -0.2168 -0.8534  0.7228
19551TIP3   OH280143   6.136   0.729   2.648  0.2451 -0.1528 -0.1492
19551TIP3    H180144   6.144   0.746   2.554  0.9030  2.4530  0.3138
19551TIP3    H280145   6.077   0.798   2.680 -0.4964 -1.3809  1.2847
19552TIP3   OH280146   0.818   6.707  10.812  0.5878  0.5000 -0.1266
19552TIP3    H180147   0.821   6.648  10.888  1.7618 -0.1942 -0.6808
19552TIP3    H280148   0.833   6.649  10.737  0.1915  1.2920 -0.8306
19553TIP3   OH280149   0.165   5.134   5.276 -0.7543 -0.4066  0.0883
19553TIP3    H180150   0.197   5.067   5.216 -1.3919 -0.2154 -0.4623
19553TIP3    H280151   0.186   5.217   5.234 -0.4064 -0.2565  0.5444
19554TIP3   OH280152   6.722   5.310   5.963 -0.7806  0.4141  0.6719
19554TIP3    H180153   6.765   5.231   5.997  0.2786  1.5496  2.1199
19554TIP3    H280154   6.672   5.280   5.887 -0.2167 -1.5936  1.0453
19555TIP3   OH280155   4.039   4.965   4.470  0.3167  0.4797  0.1570
19555TIP3    H180156   3.993   4.891   4.510  0.7341 -0.1890 -0.5604
19555TIP3    H280157   4.113   4.925   4.424  1.2004  1.4633  0.6915
19556TIP3   OH280158   1.469   0.502  16.982 -0.0655  0.0985 -0.8610
19556TIP3    H180159   1.507   0.466  16.902  0.1244 -2.1518  0.1648
19556TIP3    H280160   1.375   0.508  16.964  0.0813  0.5045 -1.5375
19557TIP3   OH280161   2.496   1.878  14.359 -0.2659 -0.0267 -0.0538
19557TIP3    H180162   2.556   1.845  14.292  0.8316 -1.7896  1.6840
19557TIP3    H280163   2.524   1.968  14.374  0.2109  0.0229 -1.1319
19558TIP3   OH280164   2.250   0.555  11.463  0.4159  0.2858 -0.0129
19558TIP3    H180165   2.331   0.505  11.456  0.5539  0.5354 -0.2481
19558TIP3    H280166   2.202   0.534  11.382  0.6287  0.7924 -0.2761
19559TIP3   OH280167   5.082   6.786  12.587  0.1037  0.1178  0.7638
19559TIP3    H180168   5.171   6.750  12.600  0.4608  0.5237 -0.4794
19559TIP3    H280169   5.060   6.762  12.497 -0.4206  1.3696  0.5490
19560TIP3   OH280170   1.630   1.957   1.299 -0.6626 -0.0397 -0.6152
19560TIP3    H180171   1.570   1.985   1.230  0.9121  1.1056 -1.6001
19560TIP3    H280172   1.715   1.950   1.256 -0.5786 -5.3651 -0.1794
19561TIP3   OH280173   2.714   5.240  13.906  0.1669 -0.2060 -0.8249
19561TIP3    H180174   2.675   5.261  13.991 -0.0127  1.9035 -1.3518
19561TIP3    H280175   2.787   5.183  13.926  0.8334  1.1752  0.9093
19562TIP3   OH280176   6.423   2.871  15.618  0.0615 -0.1639 -0.0083
19562TIP3    H180177   6.495   2.889  15.679  1.4395 -1.3798 -1.2008
19562TIP3    H280178   6.397   2.781  15.638 -0.9944  0.1826  0.2442
19563TIP3   OH280179   1.953   0.977   1.567  0.4178  0.3303 -0.1193
19563TIP3    H180180   1.951   0.882   1.582 -0.8222  0.5710  1.6922
19563TIP3    H280181   1.865   1.006   1.592  0.9343  2.0166 -0.1474
19564TIP3   OH280182   2.105   6.026  15.987 -0.6835  0.2748 -0.4899
19564TIP3    H180183   2.186   6.023  15.936  0.1022  0.9489  0.6746
19564TIP3    H280184   2.047   5.964  15.943 -0.2566  1.2136 -2.5260
19565TIP3   OH280185   1.497   0.774  13.640 -0.0384 -0.0287 -0.1398
19565TIP3    H180186   1.412   0.777  13.684 -0.2320  1.2900 -0.5605
19565TIP3    H280187   1.560   0.790  13.711 -0.1490 -0.6528  0.1094
19566TIP3   OH280188   5.513   2.581  11.380 -0.5453 -0.0214  0.6987
19566TIP3    H180189   5.582   2.558  11.442  0.3056  1.0984  0.2049
19566TIP3    H280190   5.552   2.565  11.294 -2.0786 -2.6512  0.3611
19567TIP3   OH280191   4.819   1.640   3.802 -0.4679 -0.6642  0.3372
19567TIP3    H180192   4.889   1.608   3.745 -3.3688 -1.6369 -3.1113
19567TIP3    H280193   4.843   1.731   3.821  0.9128 -0.4098 -2.1890
19568TIP3   OH280194   6.368   6.104  15.399 -0.1452  0.1338 -0.1204
19568TIP3    H180195   6.293   6.145  15.441 -0.0429 -2.1313  2.6090
19568TIP3    H280196   6.331   6.028  15.354  0.0432  1.3768 -2.5185
19569TIP3   OH280197   5.819   3.937   6.029 -0.0397 -0.3507 -0.0191
19569TIP3    H180198   5.821   3.892   5.945 -0.4950 -0.2942 -0.0589
19569TIP3    H280199   5.818   4.030   6.006 -2.5144 -0.3276 -0.0144
19570TIP3   OH280200   1.441   6.835   6.563  0.0701 -0.2011 -0.5404
19570TIP3    H180201   1.449   6.930   6.572  0.5168 -0.1462 -1.3892
19570TIP3    H280202   1.366   6.823   6.504  1.3011 -0.2666 -2.1779
19571TIP3   OH280203   2.588   4.855   6.765  0.5900  0.6893 -0.0959
19571TIP3    H180204   2.573   4.774   6.716  0.7326  1.4252 -1.4025
19571TIP3    H280205   2.671   4.889   6.730  0.9757  0.9721  1.0433
19572TIP3   OH280206   4.004   1.897   3.243 -0.9293 -0.2244 -0.9131
19572TIP3    H180207   4.085   1.948   3.245 -1.0887  0.0409 -1.0339
19572TIP3    H280208   4.029   1.810   3.273 -1.2895  0.8049  2.9247
19573TIP3   OH280209   0.175   5.488   3.737  0.1806  0.3563  0.6711
19573TIP3    H180210   0.136   5.575   3.737  1.9706  1.2981 -2.1112
19573TIP3    H280211   0.140   5.446   3.658  1.2569 -0.4766  0.6111
19574TIP3   OH280212   4.135   5.386   4.021  0.1261  0.6781 -0.5811
19574TIP3    H180213   4.147   5.429   3.936 -0.1753 -1.2892 -1.6788
19574TIP3    H280214   4.217   5.341   4.037  0.2957  1.2915  0.3552
19575TIP3   OH280215   0.509   3.548  11.205 -0.3194 -0.5299 -0.2464
19575TIP3    H180216   0.539   3.625  11.157 -0.1357 -0.3337  0.1746
19575TIP3    H280217   0.569   3.479  11.178  0.6677 -0.0970  0.7273
19576TIP3   OH280218   2.942   2.684   1.893 -0.3442 -0.3093  0.8115
19576TIP3    H180219   2.997   2.752   1.855 -0.3760 -1.1234 -0.7945
19576TIP3    H280220   2.886   2.730   1.955  3.5319  0.3164  4.3473
19577TIP3   OH280221   1.590   3.071   3.129 -0.2828 -0.5617 -0.1347
19577TIP3    H180222   1.624   3.012   3.061 -0.6315 -1.5696  0.5447
19577TIP3    H280223   1.505   3.034   3.152 -0.0761 -0.3599  1.0091
19578TIP3   OH280224   2.986   6.253  14.515  0.1904  0.7608  0.1623
19578TIP3    H180225   2.936   6.244  14.434  2.4274  0.5724 -1.2994
19578TIP3    H280226   2.981   6.166  14.556  0.6191  0.2490 -0.8153
19579TIP3   OH280227   6.516   4.516   0.322 -0.1665  0.4385  0.1579
19579TIP3    H180228   6.547   4.605   0.312 -0.5730  0.4536 -1.0514
19579TIP3    H280229   6.443   4.523   0.384  0.0429  0.8840  0.3560
19580TIP3   OH280230   5.144   3.983   4.054 -0.1248 -0.7833 -0.5213
19580TIP3    H180231   5.204   3.929   4.105 -0.0397  0.0200  0.2429
19580TIP3    H280232   5.200   4.029   3.991  0.2739  0.9106  1.0004
19581TIP3   OH280233   4.421   3.108   3.647 -0.2433 -0.7379  0.2930
19581TIP3    H180234   4.467   3.036   3.691  0.6535 -0.7653 -0.6287
19581TIP3    H280235   4.374   3.065   3.576 -3.3732 -0.9810  2.3518
19582TIP3   OH280236   0.358   5.331   2.067  0.8575  0.0236  0.1583
19582TIP3    H180237   0.396   5.303   1.984  0.4932 -0.8556  0.2671
19582TIP3    H280238   0.263   5.319   2.055  0.7797  0.1724  0.5954
19583TIP3   OH280239   0.761   4.179   0.075  0.2517  0.0394 -0.0502
19583TIP3    H180240   0.773   4.229  -0.006  3.5633  0.0415  0.3017
19583TIP3    H280241   0.749   4.088   0.046 -0.5241  0.2947 -0.5562
19584TIP3   OH280242   2.215   5.719   1.917  0.3772 -0.1843  0.0677
19584TIP3    H180243   2.121   5.704   1.924  0.2485 -0.5069 -1.8132
19584TIP3    H280244   2.245   5.655   1.852  2.1623 -1.0478  1.6456
19585TIP3   OH280245   4.781   2.844   2.860 -0.0067  0.0325 -0.3201
19585TIP3    H180246   4.862   2.879   2.897 -0.6293  0.5635  0.5882
19585TIP3    H280247   4.757   2.772   2.918 -0.6016  0.3907 -0.1168
19586TIP3   OH280248   3.797   3.810   4.780  0.0067 -0.1988 -0.2762
19586TIP3    H180249   3.833   3.738   4.727 -0.1182  2.0133 -3.7192
19586TIP3    H280250   3.714   3.833   4.736 -1.7154 -0.0625  2.7524
19587TIP3   OH280251   6.651   1.876   3.881 -0.2816  0.3689  0.0958
19587TIP3    H180252   6.674   1.954   3.830 -1.2512  0.2637 -0.5329
19587TIP3    H280253   6.556   1.884   3.895 -0.1142  0.1870  1.5534
19588TIP3   OH280254   4.271   4.735   4.851  0.2218  0.2328 -0.4356
19588TIP3    H180255   4.222   4.653   4.859  1.7363 -0.7212 -0.5446
19588TIP3    H280256   4.279   4.766   4.941 -0.5032  0.3631 -0.4101
19589TIP3   OH280257   4.189   2.689  11.059 -0.1872 -0.1954 -0.4629
19589TIP3    H180258   4.244   2.758  11.022  0.0354 -0.0273  0.1695
19589TIP3    H280259   4.206   2.613  11.003 -0.3582  0.2261 -1.1027
19590TIP3   OH280260   1.961   5.071  14.215 -0.1097 -0.0505 -0.3585
19590TIP3    H180261   1.974   5.068  14.120  1.2583  1.7332 -0.2761
19590TIP3    H280262   1.981   5.161  14.240  1.5688 -0.9278  1.8690
19591TIP3   OH280263   4.110   6.051  12.253 -0.0310 -0.2782  0.6094
19591TIP3    H180264   4.043   6.093  12.307 -0.2449 -2.0989  1.8606
19591TIP3    H280265   4.061   6.007  12.183  0.1536  1.0614 -0.4012
19592TIP3   OH280266   4.038   5.642  13.743 -0.8528 -0.2052  0.2270
19592TIP3    H180267   3.976   5.619  13.673  0.8550 -0.7056 -1.2049
19592TIP3    H280268   4.114   5.586  13.726  0.6506  1.5394  0.9339
19593TIP3   OH280269   1.389   3.665   0.122 -0.1029 -0.1694  0.2724
19593TIP3    H180270   1.315   3.718   0.151 -0.5039 -0.3142 -0.4506
19593TIP3    H280271   1.442   3.652   0.201  1.0471  2.8891  0.1358
19594TIP3   OH280272   3.947   3.957  16.087  0.5366  0.1920 -0.4398
19594TIP3    H180273   4.015   4.019  16.062 -1.5738  2.5569 -0.6394
19594TIP3    H280274   3.970   3.877  16.039  3.2326  0.7990 -0.3426
19595TIP3   OH280275   0.895   6.442  13.505 -0.7427  0.0221 -0.3120
19595TIP3    H180276   0.915   6.531  13.533 -0.7149 -0.1187  0.1165
19595TIP3    H280277   0.975   6.411  13.463 -0.4496 -0.1185  0.3399
19596TIP3   OH280278   4.145   5.041   1.231 -0.2798 -0.4011 -0.2584
19596TIP3    H180279   4.116   5.127   1.259  1.7627  0.3863 -0.3638
19596TIP3    H280280   4.102   5.026   1.147  0.6069  1.2876 -1.0584
19597TIP3   OH280281   0.375   1.414   5.608  0.4184 -0.4307  0.1634
19597TIP3    H180282   0.387   1.454   5.522  1.2353 -0.4294  0.2694
19597TIP3    H280283   0.457   1.430   5.654 -0.2632  0.1798  1.2046
19598TIP3   OH280284   6.182   4.676  12.421 -0.0322  0.4863  0.1464
19598TIP3    H180285   6.115   4.741  12.444 -0.3577  0.8626 -1.6910
19598TIP3    H280286   6.265   4.722  12.431 -0.2852  1.4310 -1.7058
19599TIP3   OH280287   5.460   0.418   2.444 -0.2053 -0.1580  0.4017
19599TIP3    H180288   5.369   0.445   2.429  0.5191  2.5323  0.2269
19599TIP3    H280289   5.506   0.444   2.364  1.4348  2.7129  2.0764
19600TIP3   OH280290   6.177   6.150   5.899 -0.3685  0.3281  0.3539
19600TIP3    H180291   6.136   6.223   5.945 -1.8354  0.4241 -1.0459
19600TIP3    H280292   6.167   6.170   5.806  2.7676  0.2689 -0.1195
19601TIP3   OH280293   1.947   2.396  12.118 -0.3118  0.0618 -0.9663
19601TIP3    H180294   1.980   2.477  12.158  0.1550  0.4860 -2.1810
19601TIP3    H280295   1.995   2.388  12.036 -0.9167 -1.0447 -1.2326
19602TIP3   OH280296   3.812   5.354   3.257  0.0614 -0.0552 -0.2022
19602TIP3    H180297   3.841   5.265   3.277 -0.1131 -0.4780 -1.7138
19602TIP3    H280298   3.856   5.409   3.322  0.1214 -1.2390  0.7888
19603TIP3   OH280299   2.570   4.486  13.083  0.0505  0.0771 -0.1645
19603TIP3    H180300   2.629   4.478  13.158 -0.3409 -0.9586  0.0515
19603TIP3    H280301   2.579   4.577  13.055 -0.2361  0.6611  1.5114
19604TIP3   OH280302   6.427   0.756   4.227 -0.6627 -0.0872 -0.2279
19604TIP3    H180303   6.440   0.804   4.309  1.0415 -1.7449  0.5567
19604TIP3    H280304   6.450   0.665   4.248 -2.0643 -0.9432 -2.0820
19605TIP3   OH280305   0.779   2.163  10.678  0.2980  0.7776 -0.1905
19605TIP3    H180306   0.841   2.236  10.682 -1.1194  1.9536  1.1695
19605TIP3    H280307   0.700   2.195  10.720  0.1316 -2.0338  1.9639
19606TIP3   OH280308   0.276   4.544   0.506 -0.6128 -0.0203  0.9965
19606TIP3    H180309   0.366   4.518   0.488 -0.5258  0.4087  0.7974
19606TIP3    H280310   0.259   4.615   0.444 -0.5716  0.9421  2.0516
19607TIP3   OH280311   4.785   3.073   4.949 -0.1994 -0.4340  0.2175
19607TIP3    H180312   4.790   3.134   4.876 -0.0948 -2.0110 -1.1610
19607TIP3    H280313   4.696   3.036   4.944 -0.0915 -0.7803  0.6915
19608TIP3   OH280314   5.793   4.539  14.313 -0.0507  0.0857 -0.6214
19608TIP3    H180315   5.845   4.585  14.379  0.3318 -0.2086 -0.7118
19608TIP3    H280316   5.737   4.480  14.363 -0.9359  1.0270 -0.4707
19609TIP3   OH280317   3.292   6.586   5.160 -0.0037 -0.0975  0.1319
19609TIP3    H180318   3.299   6.681   5.163  2.0063 -0.2000  0.5579
19609TIP3    H280319   3.381   6.555   5.179 -0.5245 -2.0548 -0.3634
19610TIP3   OH280320   2.945   2.767  14.443  0.3187  0.0118 -0.4534
19610TIP3    H180321   2.868   2.784  14.497  1.0306  1.6177  0.1480
19610TIP3    H280322   2.914   2.773  14.353 -0.5397 -0.9111 -0.2357
19611TIP3   OH280323   2.737   3.420   4.037 -0.2307  0.0568  0.4131
19611TIP3    H180324   2.642   3.411   4.036 -0.1561 -0.9591  0.5855
19611TIP3    H280325   2.762   3.434   3.946 -0.4654 -0.8648  0.1943
19612TIP3   OH280326   2.543   1.422   1.152 -0.0830  0.0045 -0.8162
19612TIP3    H180327   2.471   1.399   1.092 -0.1863  0.9428 -1.0689
19612TIP3    H280328   2.612   1.455   1.095  0.7573 -1.3236 -0.6182
19613TIP3   OH280329   4.025   5.404  12.843 -0.0352 -0.0601 -0.1701
19613TIP3    H180330   3.941   5.371  12.876  0.3299  0.3627  1.2564
19613TIP3    H280331   4.018   5.396  12.748 -0.8887 -1.9590  0.0076
19614TIP3   OH280332   0.244   5.625   4.196 -0.0411 -0.1566 -0.1724
19614TIP3    H180333   0.234   5.696   4.259  0.6782 -0.8158  0.7146
19614TIP3    H280334   0.296   5.559   4.243 -0.0710 -0.9472 -1.2272
19615TIP3   OH280335   2.570   6.486  16.124  0.2625 -0.1254  0.0469
19615TIP3    H180336   2.646   6.530  16.087 -1.0977  1.5596 -0.8582
19615TIP3    H280337   2.529   6.551  16.181  0.0660 -1.3597  1.3720
19616TIP3   OH280338   5.071   3.285  15.128 -0.8881  0.0097  0.0433
19616TIP3    H180339   4.997   3.339  15.099 -1.0649 -0.9021 -1.2756
19616TIP3    H280340   5.119   3.265  15.047 -1.0581 -2.1305  0.4382
19617TIP3   OH280341   6.025   1.983   0.327  0.3490 -0.2758  0.4589
19617TIP3    H180342   6.033   2.014   0.418  0.2067 -1.7549  1.0116
19617TIP3    H280343   5.950   1.924   0.329  1.4857 -1.8202 -0.1484
19618TIP3   OH280344   0.311   1.341  16.313  0.6317  0.1877  0.5417
19618TIP3    H180345   0.216   1.349  16.313  0.7408  1.7656  0.5421
19618TIP3    H280346   0.335   1.340  16.220  0.6736  0.7640  0.5438
19619TIP3   OH280347   5.450   2.567   2.468 -0.2199 -0.2040  0.8396
19619TIP3    H180348   5.529   2.613   2.442  1.4334 -4.0124 -1.6807
19619TIP3    H280349   5.468   2.534   2.556  0.4580  0.0080  0.7803
19620TIP3   OH280350   6.700   1.211   0.740 -0.0108 -0.1402  0.2586
19620TIP3    H180351   6.606   1.216   0.760  0.0344 -2.4493  1.3582
19620TIP3    H280352   6.712   1.123   0.706  1.7137  0.2862 -0.3001
19621TIP3   OH280353   1.221   0.514  16.895  0.1133 -0.2798 -0.1672
19621TIP3    H180354   1.157   0.453  16.932  2.0239 -2.4841 -0.2421
19621TIP3    H280355   1.207   0.509  16.800  0.8966 -1.4090 -0.2389
19622TIP3   OH280356   2.337   0.099  11.856 -0.5722  0.2846  0.3133
19622TIP3    H180357   2.326   0.129  11.946 -1.7401 -0.2969  0.3964
19622TIP3    H280358   2.429   0.075  11.849 -0.2713  1.1877  1.0807
19623TIP3   OH280359   4.232   4.023  12.368  0.6804 -0.2058 -0.0015
19623TIP3    H180360   4.166   3.967  12.328 -0.8472  1.6442 -0.1998
19623TIP3    H280361   4.210   4.022  12.462  1.1226 -0.5271  0.1019
19624TIP3   OH280362   1.574   1.313   3.371  0.8032 -0.3405 -0.0737
19624TIP3    H180363   1.522   1.257   3.313  0.9410  0.7493 -1.3088
19624TIP3    H280364   1.648   1.258   3.398 -0.7924 -1.8353  1.5051
19625TIP3   OH280365   1.333   0.269  12.961  0.3335 -0.1423 -0.4340
19625TIP3    H180366   1.427   0.282  12.946  0.9190 -0.1970  2.5507
19625TIP3    H280367   1.314   0.318  13.041 -2.3475  0.2869 -1.2179
19626TIP3   OH280368   5.876   3.585  14.935 -0.3030 -0.2302  0.0092
19626TIP3    H180369   5.946   3.585  15.001 -1.0602 -0.2252  0.8223
19626TIP3    H280370   5.899   3.657  14.876 -0.0506  0.2999  0.7384
19627TIP3   OH280371   5.545   4.144  12.276 -0.9264  0.3377 -0.0525
19627TIP3    H180372   5.598   4.106  12.345 -0.9918 -0.8151 -0.6087
19627TIP3    H280373   5.473   4.082  12.263 -1.5759  1.1168 -0.3505
19628TIP3   OH280374   3.013   6.003  11.236  0.1280 -0.4457  0.0874
19628TIP3    H180375   2.963   5.949  11.297  1.7727 -1.4877  0.5879
19628TIP3    H280376   3.030   5.946  11.162  1.2933 -0.4090  0.3118
19629TIP3   OH280377   3.148   1.067  12.396  0.1164  0.1966 -0.4615
19629TIP3    H180378   3.194   1.074  12.312  0.1966 -0.4344 -0.4751
19629TIP3    H280379   3.216   1.042  12.459 -0.0011  0.3674 -0.2646
19630TIP3   OH280380   3.241   2.300   6.749 -0.0315  0.6588  0.0371
19630TIP3    H180381   3.331   2.270   6.761 -0.2153  0.2441  0.3957
19630TIP3    H280382   3.228   2.300   6.654  0.1676  0.1927  0.0081
19631TIP3   OH280383   2.424   4.004  12.527  0.0090 -0.6346  0.0278
19631TIP3    H180384   2.331   4.014  12.506  0.0474  0.6972  0.4389
19631TIP3    H280385   2.425   3.986  12.621  0.2872  3.4850  1.0096
19632TIP3   OH280386   4.024   0.111   1.560 -0.4108 -0.0440 -0.4442
19632TIP3    H180387   3.964   0.133   1.632  1.3567 -2.4706  1.9340
19632TIP3    H280388   4.091   0.055   1.600  0.7123 -1.5105 -3.9960
19633TIP3   OH280389   5.611   5.757  13.139 -0.4003 -0.4183 -0.0879
19633TIP3    H180390   5.666   5.690  13.179 -0.0706  0.3858  0.8431
19633TIP3    H280391   5.589   5.816  13.211  0.5955  1.3325 -1.1698
19634TIP3   OH280392   4.534   5.219   0.807  0.1126  0.3408  0.0574
19634TIP3    H180393   4.493   5.272   0.876 -2.2877 -1.1447 -0.1015
19634TIP3    H280394   4.554   5.136   0.850  0.5948  0.1530 -0.5246
19635TIP3   OH280395   3.670   3.408   5.509 -0.5559 -0.0595  0.6392
19635TIP3    H180396   3.670   3.500   5.534  1.6055  0.3902 -0.7481
19635TIP3    H280397   3.761   3.389   5.487 -1.3504 -1.8610 -1.4250
19636TIP3   OH280398   3.946   3.901   0.038 -0.2672  0.1281  0.1849
19636TIP3    H180399   3.925   3.877   0.129 -0.8701 -0.1766 -0.0306
19636TIP3    H280400   4.038   3.878   0.029 -0.0575  0.6556  0.8840
19637TIP3   OH280401   2.055   1.174  16.893 -0.7409 -0.1508 -0.0065
19637TIP3    H180402   2.052   1.261  16.854 -0.4180 -0.3720 -0.5478
19637TIP3    H280403   2.098   1.120  16.827  0.2147 -0.4491  0.8278
19638TIP3   OH280404   1.287   2.955  12.401  0.0997 -0.5217 -0.2494
19638TIP3    H180405   1.215   2.911  12.357 -0.7663  2.1985 -1.8168
19638TIP3    H280406   1.245   3.019  12.459  1.2766 -0.8569  1.0329
19639TIP3   OH280407   3.911   6.503   1.916 -0.3927  0.0985  0.2878
19639TIP3    H180408   3.926   6.553   1.997 -1.9359  0.8848  0.1317
19639TIP3    H280409   3.840   6.443   1.938  1.2435 -1.9226  0.3787
19640TIP3   OH280410   1.999   4.868  11.500 -0.4550  0.0501  0.2374
19640TIP3    H180411   1.977   4.919  11.422 -1.3234  0.5201  0.7640
19640TIP3    H280412   2.093   4.879  11.511 -0.1924 -0.6120 -1.1405
19641TIP3   OH280413   5.921   2.726  14.378  0.4897 -0.0052 -0.0533
19641TIP3    H180414   5.881   2.683  14.453 -0.8525  0.6011 -0.3675
19641TIP3    H280415   6.001   2.677  14.360 -0.4109 -1.6444  0.2745
19642TIP3   OH280416   3.359   2.800   1.381  0.6805  0.5005 -0.1466
19642TIP3    H180417   3.301   2.844   1.319  0.0758  0.9485  0.7218
19642TIP3    H280418   3.318   2.715   1.397  1.7996 -0.4103 -1.7512
19643TIP3   OH280419   1.626   6.598  10.945 -0.9596  0.2000  0.5496
19643TIP3    H180420   1.592   6.683  10.918  0.4884  0.3477 -0.9093
19643TIP3    H280421   1.684   6.571  10.874 -0.6930 -1.6050  1.3956
19644TIP3   OH280422   0.549   3.598   2.199  0.1390 -0.0110 -0.4447
19644TIP3    H180423   0.573   3.534   2.132  0.0344 -0.6759  0.1351
19644TIP3    H280424   0.607   3.672   2.184  1.5431 -0.9854  0.0013
19645TIP3   OH280425   5.713   6.027  14.729  0.1592 -0.3619  0.5740
19645TIP3    H180426   5.775   6.095  14.754  0.5352 -0.0509 -1.1416
19645TIP3    H280427   5.630   6.073  14.717  0.6288 -0.0053 -1.5409
19646TIP3   OH280428   5.943   1.938   3.743 -0.1127  0.0241 -0.3766
19646TIP3    H180429   5.852   1.962   3.726  0.3909  0.2853 -3.3288
19646TIP3    H280430   5.943   1.842   3.744 -0.2324 -0.0187 -2.0163
19647TIP3   OH280431   3.982   4.158  15.480 -0.4289 -0.7930 -0.2080
19647TIP3    H180432   3.903   4.211  15.473  1.0270  1.8052  1.6153
19647TIP3    H280433   3.963   4.095  15.550 -1.1668 -0.7652 -0.3810
19648TIP3   OH280434   0.922   0.036   6.156 -0.0512 -0.6620  0.1632
19648TIP3    H180435   0.829   0.018   6.169 -0.5208  1.4450  0.0289
19648TIP3    H280436   0.924   0.115   6.101  1.7708  0.5279  1.8154
19649TIP3   OH280437   4.823   6.013   0.352  0.8882  0.5828  0.6886
19649TIP3    H180438   4.892   6.022   0.287 -0.2767  2.9236 -0.3512
19649TIP3    H280439   4.864   6.039   0.434  1.6562  0.3410  0.3901
19650TIP3   OH280440   3.904   3.283  16.640  0.1563 -0.1316 -0.4311
19650TIP3    H180441   3.976   3.335  16.675  1.5810 -1.8226 -0.7179
19650TIP3    H280442   3.914   3.289  16.545  0.4674 -1.0374 -0.4719
19651TIP3   OH280443   1.910   0.427   0.268 -0.2924  0.2269  0.1592
19651TIP3    H180444   1.860   0.373   0.330  0.8119 -0.0296  0.8556
19651TIP3    H280445   1.926   0.508   0.315 -0.9821  0.7489 -0.4766
19652TIP3   OH280446   0.244   2.936  13.053  0.5588  0.1704 -0.6163
19652TIP3    H180447   0.263   2.844  13.072 -1.6587 -0.2298 -0.1108
19652TIP3    H280448   0.241   2.978  13.139  2.3295  0.9327 -0.8819
19653TIP3   OH280449   6.556   2.300   5.602 -0.3906  0.7635  0.2614
19653TIP3    H180450   6.604   2.359   5.661 -2.0253  0.6458  1.7781
19653TIP3    H280451   6.624   2.267   5.542  1.1590  1.6405  1.4412
19654TIP3   OH280452   1.579   5.124   5.839 -0.2512  0.3905 -0.1277
19654TIP3    H180453   1.529   5.173   5.774  0.4832  1.1773 -0.1032
19654TIP3    H280454   1.598   5.187   5.908  0.6854  0.0706 -0.0844
19655TIP3   OH280455   5.274   4.079   4.558  0.1502  0.2343 -0.7202
19655TIP3    H180456   5.308   4.120   4.478  1.4100  0.9134  0.1221
19655TIP3    H280457   5.352   4.050   4.605 -0.6038 -0.7081 -0.0134
19656TIP3   OH280458   5.984   5.593  15.643 -0.2864 -0.4611 -0.5187
19656TIP3    H180459   6.019   5.679  15.662 -1.1141  0.0063 -1.0503
19656TIP3    H280460   5.998   5.543  15.723 -0.1613  0.2890 -0.0664
19657TIP3   OH280461   3.061   1.878  14.772  0.3889 -0.2823 -0.4479
19657TIP3    H180462   3.041   1.942  14.704 -1.4545 -1.6631 -1.2835
19657TIP3    H280463   2.997   1.895  14.841  1.2014  0.0430  0.2544
19658TIP3   OH280464   5.876   0.819  14.013  0.5111  0.5113  0.3715
19658TIP3    H180465   5.969   0.804  13.992 -0.3086 -3.4042 -1.4283
19658TIP3    H280466   5.850   0.741  14.062 -2.2855  0.4105 -1.0914
19659TIP3   OH280467   0.551   1.082  16.950  0.1005  0.2393  0.4003
19659TIP3    H180468   0.607   1.099  16.874  0.9589  0.6508  1.1153
19659TIP3    H280469   0.605   1.029  17.009 -1.0413 -1.2968  0.1313
19660TIP3   OH280470   5.046   2.504   1.527 -0.0567 -0.1205  0.3310
19660TIP3    H180471   5.110   2.557   1.478 -0.2545 -0.1924 -0.0051
19660TIP3    H280472   4.962   2.522   1.484 -0.1082 -0.8057  0.1335
19661TIP3   OH280473   4.632   3.630   0.817  0.2663 -0.4980  0.1383
19661TIP3    H180474   4.634   3.694   0.747 -0.1516  0.5282  1.0415
19661TIP3    H280475   4.678   3.672   0.890  1.0930 -1.7144  0.3611
19662TIP3   OH280476   6.022   6.336   6.071 -0.1230  0.2632 -0.0426
19662TIP3    H180477   6.051   6.264   6.127  1.1237 -1.1490 -2.3415
19662TIP3    H280478   5.934   6.357   6.103  0.4356 -0.5863  2.2560
19663TIP3   OH280479   6.552   2.523  11.877  0.4246  0.3711 -0.1803
19663TIP3    H180480   6.538   2.461  11.806  1.1333 -1.0272  0.8495
19663TIP3    H280481   6.506   2.602  11.849 -2.7423 -1.3650 -0.4546
19664TIP3   OH280482   0.519   0.485  12.522  0.0315  0.1822 -0.1974
19664TIP3    H180483   0.437   0.534  12.529 -0.4551 -0.5295 -0.7240
19664TIP3    H280484   0.561   0.519  12.443 -0.9724 -1.1663 -1.3707
19665TIP3   OH280485   6.747   5.710  17.059 -0.3793 -0.3536 -0.4656
19665TIP3    H180486   6.746   5.804  17.075 -2.7036 -0.7863  3.4575
19665TIP3    H280487   6.829   5.679  17.098 -0.9994 -0.1721  1.0653
19666TIP3   OH280488   3.335   2.703   5.309  0.2536 -0.4041  0.2701
19666TIP3    H180489   3.328   2.608   5.317  1.1343 -0.5891 -0.8970
19666TIP3    H280490   3.429   2.720   5.304  0.3616  0.8646  3.6639
19667TIP3   OH280491   0.003   5.161   3.172 -0.2376 -0.1999 -0.1877
19667TIP3    H180492   0.035   5.073   3.152  0.7261  0.2223 -0.5923
19667TIP3    H280493   0.081   5.217   3.166 -0.5725  0.5027  1.3002
19668TIP3   OH280494   4.194   2.127  15.753  0.3775 -0.3760  0.2905
19668TIP3    H180495   4.163   2.069  15.823 -0.3700  0.3418  0.5726
19668TIP3    H280496   4.195   2.073  15.675 -3.4320 -0.0331 -0.1640
19669TIP3   OH280497   4.314   5.900   4.511  0.0101  0.4801 -0.0538
19669TIP3    H180498   4.302   5.969   4.576 -0.5337 -0.4559  0.8702
19669TIP3    H280499   4.225   5.878   4.483  0.1738  0.1246 -0.3003
19670TIP3   OH280500   4.108   4.530   1.520 -0.1556  0.0966 -0.0558
19670TIP3    H180501   4.151   4.615   1.526 -1.0301  0.4906  0.9103
19670TIP3    H280502   4.172   4.474   1.476  1.3545  0.6535  1.3374
19671TIP3   OH280503   1.990   6.402  17.151 -0.1149  0.1227 -0.2432
19671TIP3    H180504   1.950   6.489  17.153  1.4327  0.8609  1.0677
19671TIP3    H280505   1.929   6.346  17.199 -0.5598  0.7723 -0.0424
19672TIP3   OH280506   6.257   4.220   0.862 -0.4496 -0.2792  0.0917
19672TIP3    H180507   6.302   4.286   0.915  0.1509 -2.3578  2.3621
19672TIP3    H280508   6.171   4.210   0.903 -0.5929 -0.7974 -0.3181
19673TIP3   OH280509   6.587   2.527  13.147 -0.0065 -0.0258  0.3403
19673TIP3    H180510   6.561   2.601  13.201 -2.4270 -0.5119 -0.0090
19673TIP3    H280511   6.658   2.485  13.195  0.1954  1.4835  1.4270
19674TIP3   OH280512   1.840   2.392  15.174  0.3773  0.1152  0.2911
19674TIP3    H180513   1.758   2.350  15.199  0.5112 -2.4124 -2.7601
19674TIP3    H280514   1.901   2.369  15.244 -0.9158 -0.1168  1.3765
19675TIP3   OH280515   4.760   5.592   3.811  0.2901 -0.1245 -0.3112
19675TIP3    H180516   4.671   5.593   3.846  0.2069  1.2197 -0.4873
19675TIP3    H280517   4.748   5.600   3.716  0.5477 -2.5968 -0.6150
19676TIP3   OH280518   4.187   1.212   1.886  0.1952  0.2239  0.7771
19676TIP3    H180519   4.169   1.122   1.913 -0.9016 -0.0460 -0.7524
19676TIP3    H280520   4.105   1.244   1.850  0.4745  1.9698  1.5457
19677TIP3   OH280521   5.275   5.894  14.924  0.6837 -0.0349  0.5510
19677TIP3    H180522   5.286   5.969  14.983  1.3111  0.8540 -0.6391
19677TIP3    H280523   5.214   5.836  14.970 -2.5524  2.7115  0.1522
19678TIP3   OH280524   6.374   0.006   0.237  0.1699 -0.1312  0.4059
19678TIP3    H180525   6.442  -0.055   0.207  1.5995  0.9869  1.2665
19678TIP3    H280526   6.372   0.074   0.170  0.7536  0.4452  0.9601
19679TIP3   OH280527   6.015   4.925   3.979 -0.2021 -0.4262 -0.3175
19679TIP3    H180528   6.085   4.860   3.981 -0.3223 -0.5493 -0.0812
19679TIP3    H280529   5.936   4.875   4.000 -0.3263 -0.2452 -0.3570
19680TIP3   OH280530   3.627   5.938  12.343 -0.0658 -0.0840 -0.0697
19680TIP3    H180531   3.617   5.998  12.417  1.8175  0.2127  0.0123
19680TIP3    H280532   3.552   5.955  12.287 -2.2724 -1.2212  2.3439
19681TIP3   OH280533   0.272   2.749  12.277  0.4890 -0.2537  0.1495
19681TIP3    H180534   0.323   2.741  12.358  0.4008 -2.4558  0.0374
19681TIP3    H280535   0.325   2.706  12.210  0.4339  1.2923 -0.9473
19682TIP3   OH280536   3.856   2.820   4.059 -0.0886  0.1286  0.3556
19682TIP3    H180537   3.910   2.762   4.007  1.6551  0.8051  1.3225
19682TIP3    H280538   3.814   2.763   4.124 -1.2882 -0.5256 -0.9373
19683TIP3   OH280539   2.566   5.193   5.495 -0.2522 -0.5195  0.4541
19683TIP3    H180540   2.513   5.257   5.448 -1.9955 -0.5791  2.2161
19683TIP3    H280541   2.559   5.113   5.444 -1.0552 -0.2657  0.1536
19684TIP3   OH280542   3.648   2.047   0.936 -0.0001  0.4213  0.0597
19684TIP3    H180543   3.558   2.038   0.965 -0.1958  1.1956 -0.2957
19684TIP3    H280544   3.699   1.996   1.000 -0.6566  0.1658  0.3860
19685TIP3   OH280545   3.018   5.133   1.675 -0.8503 -0.4348  0.7047
19685TIP3    H180546   3.020   5.224   1.643  0.3143 -1.3919 -2.3629
19685TIP3    H280547   3.103   5.121   1.718 -0.8026 -0.2130  0.6764
19686TIP3   OH280548   0.820   4.265  12.531  0.5028 -0.1017  0.2384
19686TIP3    H180549   0.780   4.336  12.582 -1.4532  0.5133 -1.9585
19686TIP3    H280550   0.871   4.216  12.594 -1.2906  0.9362  2.6702
19687TIP3   OH280551   5.877   6.241   1.261 -0.3655  0.1052 -0.1068
19687TIP3    H180552   5.861   6.220   1.169 -1.8975  0.1052  0.1261
19687TIP3    H280553   5.972   6.248   1.268 -0.2298  0.2708 -1.7151
19688TIP3   OH280554   0.372   1.950   2.270 -0.4124  0.2285  0.1225
19688TIP3    H180555   0.345   1.891   2.200  1.0348  0.0694 -0.3416
19688TIP3    H280556   0.292   1.971   2.316 -1.7546  1.7028 -2.6079
19689TIP3   OH280557   5.257   2.942   1.006 -0.4078  0.1488 -0.1553
19689TIP3    H180558   5.280   2.850   1.018 -0.5584  0.0426 -0.6495
19689TIP3    H280559   5.189   2.959   1.071 -0.1951 -0.0161  0.1134
19690TIP3   OH280560   2.332   2.095  15.867 -0.6644 -0.0555  0.3061
19690TIP3    H180561   2.341   2.042  15.788 -0.3699 -1.5413  1.3074
19690TIP3    H280562   2.329   2.185  15.834 -0.1336 -0.6019 -1.3654
19691TIP3   OH280563   6.143   6.500  13.154 -0.1542  0.5836 -0.2242
19691TIP3    H180564   6.177   6.589  13.151  1.6548 -0.0722 -0.5245
19691TIP3    H280565   6.160   6.465  13.067  0.8316 -0.6114  0.4170
19692TIP3   OH280566   3.524   0.021   4.922  0.1868  0.2970  0.8944
19692TIP3    H180567   3.555  -0.053   4.869  0.7024  0.8596  0.3955
19692TIP3    H280568   3.600   0.045   4.975 -0.0169  0.3958  1.1435
19693TIP3   OH280569   0.361   3.292  14.617 -0.7092  0.0208  0.2607
19693TIP3    H180570   0.428   3.318  14.680 -1.7783 -1.3877  2.0889
19693TIP3    H280571   0.408   3.239  14.552  0.2224  0.4782  0.5538
19694TIP3   OH280572   4.783   6.735   0.657 -0.3734 -0.0533  0.2182
19694TIP3    H180573   4.876   6.718   0.671  0.0891  0.8423 -1.5090
19694TIP3    H280574   4.777   6.830   0.649 -1.6421  0.0048  1.5093
19695TIP3   OH280575   1.815   3.778  13.922  0.2006 -0.0079 -0.1944
19695TIP3    H180576   1.812   3.715  13.850  1.5124  0.2659 -0.5085
19695TIP3    H280577   1.875   3.739  13.986 -0.4407  0.0607  0.4634
19696TIP3   OH280578   5.213   3.641  11.095 -0.2062 -0.1665 -0.3529
19696TIP3    H180579   5.304   3.668  11.082  0.1145  0.8694  3.0549
19696TIP3    H280580   5.170   3.663  11.013  1.8197  3.0623 -0.7363
19697TIP3   OH280581   4.976   5.979  13.017 -0.6245 -0.1718  0.6867
19697TIP3    H180582   4.966   6.065  12.976 -0.2516  0.4568  1.8735
19697TIP3    H280583   5.071   5.965  13.020 -0.6859 -0.6642  0.4351
19698TIP3   OH280584   1.825   1.649  13.132 -0.1973 -0.7732  0.1606
19698TIP3    H180585   1.746   1.654  13.078  0.4248  0.1834 -0.7045
19698TIP3    H280586   1.861   1.562  13.115 -1.6667 -1.6781  1.4688
19699TIP3   OH280587   6.633   5.489   1.854 -0.0511  0.5192 -0.2708
19699TIP3    H180588   6.713   5.461   1.809 -0.1048  0.5270 -0.3723
19699TIP3    H280589   6.591   5.408   1.882  0.9991  0.5709  1.5486
19700TIP3   OH280590   1.562   5.782   3.369  0.6465 -0.7740 -0.0837
19700TIP3    H180591   1.490   5.813   3.423 -0.7924 -0.3359 -2.1551
19700TIP3    H280592   1.563   5.840   3.293  3.8758 -0.0949  0.3256
19701TIP3   OH280593   1.335   2.778   4.808  0.4366  0.2612  0.5638
19701TIP3    H180594   1.289   2.794   4.890  1.7232  1.8753  1.0175
19701TIP3    H280595   1.267   2.784   4.740 -0.2287  1.4125  1.3066
19702TIP3   OH280596   5.305   5.585  10.753 -0.0065  0.5851  0.2226
19702TIP3    H180597   5.210   5.576  10.748 -0.0886 -1.3956  2.8793
19702TIP3    H280598   5.334   5.588  10.661 -2.5320 -0.1627 -0.6835
19703TIP3   OH280599   1.767   0.408  15.851  0.1958  0.4889 -0.2375
19703TIP3    H180600   1.774   0.394  15.756 -0.5852  0.5166 -0.3017
19703TIP3    H280601   1.701   0.346  15.880  2.3478 -1.4996  0.7669
19704TIP3   OH280602   5.080   6.354  10.904  0.1104  0.3653 -0.7238
19704TIP3    H180603   5.116   6.301  10.833  0.3582 -0.9397  0.3421
19704TIP3    H280604   4.998   6.310  10.928 -1.0248  1.9367 -1.5049
19705TIP3   OH280605   5.104   3.303  14.627 -0.0427  0.0650 -0.2909
19705TIP3    H180606   5.065   3.362  14.692  0.7057  1.1386 -0.7890
19705TIP3    H280607   5.141   3.231  14.679 -1.5084 -0.3142  0.2803
19706TIP3   OH280608   5.198   3.756  15.373  0.3642 -0.3172 -0.2005
19706TIP3    H180609   5.241   3.678  15.338 -0.9547 -0.2838 -2.0836
19706TIP3    H280610   5.259   3.827  15.354  1.1388 -0.7437  0.6342
19707TIP3   OH280611   2.547   4.467   4.045  0.3400 -0.4573 -0.2473
19707TIP3    H180612   2.455   4.457   4.070  0.1908 -1.0063 -0.9725
19707TIP3    H280613   2.549   4.445   3.952  1.2423 -0.6828 -0.1836
19708TIP3   OH280614   0.220   1.801   5.966  0.0208 -0.2816 -0.2454
19708TIP3    H180615   0.163   1.868   6.003  0.4055  1.0508 -1.9757
19708TIP3    H280616   0.161   1.730   5.942 -0.7350  0.4613 -0.6483
19709TIP3   OH280617   5.065   2.710  13.503 -0.0948  0.5868 -0.1985
19709TIP3    H180618   5.073   2.743  13.414  1.2475  0.1782 -0.2657
19709TIP3    H280619   5.042   2.618  13.492  1.9853  0.0073 -0.2420
19710TIP3   OH280620   0.549   6.576   1.880 -0.3589  0.2805  0.3305
19710TIP3    H180621   0.502   6.645   1.834 -1.6224 -0.4809  0.4417
19710TIP3    H280622   0.484   6.507   1.893  1.1223 -1.3706 -0.6626
19711TIP3   OH280623   0.477   3.633   5.417 -0.7226  0.0020  0.4278
19711TIP3    H180624   0.462   3.709   5.473 -3.1062  0.2608 -0.4217
19711TIP3    H280625   0.392   3.588   5.415  0.0115 -1.4314 -0.8886
19712TIP3   OH280626   4.643   5.168  11.344  0.1975 -0.5541  0.3335
19712TIP3    H180627   4.565   5.218  11.318  0.5364  0.4101  1.0837
19712TIP3    H280628   4.630   5.081  11.306 -1.3549 -0.4864  0.6325
19713TIP3   OH280629   6.543   4.379   0.764 -0.0445 -0.0756 -0.2763
19713TIP3    H180630   6.516   4.340   0.681 -0.6999  0.5254 -0.3536
19713TIP3    H280631   6.537   4.474   0.749 -0.3627  0.0384  0.5187
19714TIP3   OH280632   4.533   6.493   4.656  0.5663 -0.1255 -0.3616
19714TIP3    H180633   4.505   6.497   4.564  0.0067 -1.0195 -0.2508
19714TIP3    H280634   4.614   6.544   4.660 -0.0126  0.8802 -1.1143
19715TIP3   OH280635   3.508   4.607   5.690  0.5311 -0.1805  0.4566
19715TIP3    H180636   3.579   4.587   5.629  0.0518 -1.5559  0.3229
19715TIP3    H280637   3.528   4.555   5.768 -1.1153 -1.8514 -0.1617
19716TIP3   OH280638   2.396   0.293  14.231 -0.2032 -0.4467 -0.1174
19716TIP3    H180639   2.440   0.246  14.302  1.0862 -2.4210 -2.0944
19716TIP3    H280640   2.335   0.229  14.194 -0.7535  0.4936 -0.8745
19717TIP3   OH280641   4.800   0.336   2.169  0.1786 -0.3966 -0.1199
19717TIP3    H180642   4.771   0.333   2.260 -0.1844 -0.8203 -0.2483
19717TIP3    H280643   4.830   0.426   2.156  2.6381 -0.9479  1.1560
19718TIP3   OH280644   2.323   3.488  13.209 -0.6916 -0.5125  0.5060
19718TIP3    H180645   2.342   3.439  13.128 -0.2666 -0.5781  0.6412
19718TIP3    H280646   2.385   3.453  13.273 -1.1313 -0.5704  0.9064
19719TIP3   OH280647   4.061   5.875  14.743  0.0262 -0.0024  0.4300
19719TIP3    H180648   4.155   5.859  14.758 -0.6044 -4.5122  0.8508
19719TIP3    H280649   4.044   5.841  14.656 -1.2423  1.1049  0.2045
19720TIP3   OH280650   1.677   6.279  15.175 -0.2092 -0.2959 -0.2754
19720TIP3    H180651   1.656   6.367  15.145 -0.5673 -0.7710 -1.4509
19720TIP3    H280652   1.597   6.248  15.217 -0.0763 -0.0585  0.1563
19721TIP3   OH280653   6.533   0.637   2.427 -0.0178  0.0644 -0.2626
19721TIP3    H180654   6.525   0.614   2.335 -2.1679 -2.7230  0.5004
19721TIP3    H280655   6.618   0.602   2.454 -1.7255 -4.5380  0.0104
19722TIP3   OH280656   0.394   3.121  12.389 -0.2568  0.3806 -0.3923
19722TIP3    H180657   0.425   3.129  12.479  1.3849 -0.3113 -0.8461
19722TIP3    H280658   0.471   3.090  12.341 -0.9728  1.1601 -2.1080
19723TIP3   OH280659   4.647   2.780  15.881 -0.3211 -0.0370  0.1644
19723TIP3    H180660   4.605   2.864  15.899  1.6489  1.0530 -0.1601
19723TIP3    H280661   4.649   2.773  15.786  0.4394  0.0336  0.1722
19724TIP3   OH280662   4.629   1.269   5.000 -0.3140 -0.5542 -0.0931
19724TIP3    H180663   4.615   1.178   5.027 -0.5898 -1.0271 -1.6905
19724TIP3    H280664   4.593   1.321   5.071 -1.0480 -1.7062  0.4075
19725TIP3   OH280665   1.914   3.110  10.998  0.3899 -0.6285  0.4155
19725TIP3    H180666   1.828   3.128  10.961 -0.5028  0.4236  2.7814
19725TIP3    H280667   1.976   3.134  10.929 -1.1655 -0.0989 -0.8475
19726TIP3   OH280668   6.389   1.584   0.334  0.3146  0.2968 -0.0639
19726TIP3    H180669   6.479   1.599   0.305 -0.1715  0.3520 -1.6407
19726TIP3    H280670   6.398   1.538   0.417  1.8040  0.0641 -0.3265
19727TIP3   OH280671   4.482   0.591   3.004  0.2056  0.0710  0.4506
19727TIP3    H180672   4.445   0.600   2.916 -1.2031  0.1615  1.0353
19727TIP3    H280673   4.551   0.657   3.007 -0.3032  0.6557 -0.2981
19728TIP3   OH280674   3.587   3.581  14.421 -0.1707 -0.0625 -0.5142
19728TIP3    H180675   3.608   3.501  14.471 -0.1813  0.4295  0.2965
19728TIP3    H280676   3.494   3.570  14.398 -0.8123  0.6722  1.4878
19729TIP3   OH280677   5.689   4.533   1.827 -0.1422 -0.6645  0.1862
19729TIP3    H180678   5.639   4.462   1.869 -0.7786 -0.1181  0.3630
19729TIP3    H280679   5.770   4.491   1.799  0.5776 -0.9594  2.4623
19730TIP3   OH280680   2.531   0.004   2.862  0.2758  0.4444 -0.5131
19730TIP3    H180681   2.523  -0.066   2.798  1.8499  0.0621 -0.3298
19730TIP3    H280682   2.521  -0.039   2.947  0.4697  0.5768 -0.4237
19731TIP3   OH280683   0.616   3.638  14.380  0.0620  0.0456  0.6727
19731TIP3    H180684   0.539   3.655  14.326 -0.6164 -0.3204  1.5002
19731TIP3    H280685   0.588   3.660  14.469  0.2957 -1.8834  1.2583
19732TIP3   OH280686   4.075   6.749   1.796 -0.6805  0.5857 -0.3747
19732TIP3    H180687   3.981   6.732   1.803 -0.8480  1.5023 -0.2902
19732TIP3    H280688   4.102   6.770   1.886 -0.6042  1.3274 -0.5635
19733TIP3   OH280689   0.259   2.839   5.344 -0.0715 -0.2021  0.3165
19733TIP3    H180690   0.268   2.788   5.424  0.6249 -1.1003 -0.3116
19733TIP3    H280691   0.166   2.830   5.321 -0.2624  0.0112  0.9804
19734TIP3   OH280692   2.501   4.874  13.335 -0.1526  0.0544 -0.0333
19734TIP3    H180693   2.567   4.850  13.400  0.0659  0.4981 -0.0838
19734TIP3    H280694   2.501   4.970  13.336 -1.3482  0.0644  0.5259
19735TIP3   OH280695   0.746   2.010   2.194  0.4098  0.6453 -0.1448
19735TIP3    H180696   0.834   1.998   2.228 -0.2240 -1.7287  0.8443
19735TIP3    H280697   0.758   2.022   2.100  1.8304  1.4116  0.1161
19736TIP3   OH280698   2.838   3.108  16.852  0.4519 -0.3735 -0.7642
19736TIP3    H180699   2.891   3.183  16.877  1.4159 -0.8365 -1.3558
19736TIP3    H280700   2.793   3.082  16.933 -0.0030  0.9065 -0.5903
19737TIP3   OH280701   5.265   0.441   4.482 -0.1534 -0.0030  0.8756
19737TIP3    H180702   5.296   0.412   4.396  0.5243 -0.1087  1.1489
19737TIP3    H280703   5.227   0.528   4.466 -2.5775 -1.1340 -0.0246
19738TIP3   OH280704   5.434   1.638  11.803 -0.0299  0.2256 -0.7307
19738TIP3    H180705   5.369   1.652  11.871 -0.1255 -0.0004 -0.7730
19738TIP3    H280706   5.388   1.590  11.734  0.5255 -1.2103 -0.1417
19739TIP3   OH280707   2.537   5.816  15.089 -0.5073 -0.7203 -0.0612
19739TIP3    H180708   2.557   5.909  15.098 -1.8842 -0.5265  1.5117
19739TIP3    H280709   2.509   5.789  15.177  0.2368 -2.7250 -0.3894
19740TIP3   OH280710   1.196   6.535   0.812 -0.2576  0.3670  0.6531
19740TIP3    H180711   1.151   6.494   0.738  0.3096 -1.7358  1.3990
19740TIP3    H280712   1.282   6.559   0.777  0.3253 -1.3878  0.7779
19741TIP3   OH280713   1.630   4.316  14.288 -0.2882  0.3638  0.3967
19741TIP3    H180714   1.546   4.275  14.269 -0.0002 -0.6648  1.1936
19741TIP3    H280715   1.615   4.409  14.278 -0.9797  0.0815 -1.4756
19742TIP3   OH280716   2.100   5.033  13.993 -0.6210 -0.1543  0.3390
19742TIP3    H180717   2.195   5.029  13.981 -0.8247 -1.8645 -1.1176
19742TIP3    H280718   2.074   5.115  13.951  0.3293  1.1364  2.1257
19743TIP3   OH280719   0.981   5.721  11.310 -0.2214 -0.6288  0.6709
19743TIP3    H180720   1.038   5.780  11.359 -1.9306  1.2162  0.6126
19743TIP3    H280721   0.973   5.763  11.224 -0.9790 -1.2885  0.4124
19744TIP3   OH280722   6.364   4.230  11.854 -0.7492 -0.1658 -0.1404
19744TIP3    H180723   6.456   4.242  11.878 -0.8658  2.2088 -0.6451
19744TIP3    H280724   6.322   4.204  11.936  0.3883 -1.5570  0.0425
19745TIP3   OH280725   6.075   6.610   5.840 -0.5558  0.1252 -0.4333
19745TIP3    H180726   6.154   6.620   5.786  1.0427 -0.6292  1.6201
19745TIP3    H280727   6.004   6.603   5.777  1.3473 -2.1151 -2.5717
19746TIP3   OH280728   5.315   2.066   2.760 -0.4110 -0.0320  0.1044
19746TIP3    H180729   5.293   2.022   2.843  2.9692 -1.3676  0.4579
19746TIP3    H280730   5.339   1.995   2.701 -0.9324  1.0298 -1.4405
19747TIP3   OH280731   5.381   5.369   1.182  0.2432  0.1175  0.4307
19747TIP3    H180732   5.321   5.438   1.154  0.1799 -0.2800 -0.4623
19747TIP3    H280733   5.457   5.379   1.125  0.7468  0.2020  1.1098
19748TIP3   OH280734   2.591   0.359   0.604  0.0840  0.7673 -0.5819
19748TIP3    H180735   2.634   0.428   0.655  1.0485  0.1513 -0.5311
19748TIP3    H280736   2.664   0.309   0.567 -0.6069 -0.3118 -0.4984
19749TIP3   OH280737   5.537   0.509  15.248  0.0108  0.0907  0.5378
19749TIP3    H180738   5.510   0.428  15.292 -1.4640 -1.7636 -3.3228
19749TIP3    H280739   5.455   0.550  15.221  0.8327  1.1976 -0.3665
19750TIP3   OH280740   6.537   3.763   1.231  0.5552  0.3126  0.0146
19750TIP3    H180741   6.601   3.775   1.160  0.1716  0.1824 -0.3557
19750TIP3    H280742   6.459   3.731   1.187  0.0112  1.1224  0.3735
19751TIP3   OH280743   2.822   6.405  16.582 -0.0694 -0.6769  0.0648
19751TIP3    H180744   2.883   6.333  16.572  0.1868 -0.6536  1.3133
19751TIP3    H280745   2.736   6.367  16.568  0.0929 -1.1533  0.3564
19752TIP3   OH280746   6.551   6.454   0.996  0.1071  0.3258  0.2615
19752TIP3    H180747   6.559   6.453   0.901  3.0068 -3.4345  0.3145
19752TIP3    H280748   6.607   6.526   1.024 -0.4267  1.1896 -0.8341
19753TIP3   OH280749   5.257   5.036   5.317 -0.1491  0.1998  0.0218
19753TIP3    H180750   5.168   5.025   5.284 -0.2014  0.3573  0.1077
19753TIP3    H280751   5.257   4.988   5.400  0.9464 -3.1791 -1.7337
19754TIP3   OH280752   5.203   0.394  14.944  0.0624  0.0722 -0.5784
19754TIP3    H180753   5.298   0.383  14.946 -0.1064 -1.6906  0.1053
19754TIP3    H280754   5.183   0.447  15.021  0.4432 -0.2371 -0.2590
19755TIP3   OH280755   3.680   0.859  14.140 -0.0880  0.2453 -0.5271
19755TIP3    H180756   3.617   0.797  14.176  0.9701  0.6520  2.3178
19755TIP3    H280757   3.670   0.853  14.045 -1.9392 -2.1926 -0.2476
19756TIP3   OH280758   4.357   6.396   0.060 -0.7313 -0.6125 -0.5316
19756TIP3    H180759   4.346   6.474   0.114 -1.2489 -1.5933  0.8365
19756TIP3    H280760   4.269   6.376   0.028 -0.8690 -1.4341  0.3112
19757TIP3   OH280761   1.702   4.433  12.832 -0.1251 -0.1383  0.1988
19757TIP3    H180762   1.716   4.456  12.924  0.8387  1.1973 -0.2636
19757TIP3    H280763   1.616   4.390  12.832 -0.1279 -0.2073  1.7185
19758TIP3   OH280764   6.779   2.099  13.967  0.4689  0.0452  0.0413
19758TIP3    H180765   6.742   2.159  14.030  1.1345 -0.5578  1.0347
19758TIP3    H280766   6.754   2.012  13.998  0.3521 -0.2466 -0.8213
19759TIP3   OH280767   6.586   1.069  11.647 -0.5338 -0.5915  0.5982
19759TIP3    H180768   6.637   1.141  11.685  1.7747 -0.8487 -1.7573
19759TIP3    H280769   6.537   1.110  11.576  1.1121 -1.3284 -1.0296
19760TIP3   OH280770   3.375   0.425   3.706 -0.4478 -0.1285  0.3778
19760TIP3    H180771   3.357   0.342   3.751 -0.5485 -0.1498  0.2989
19760TIP3    H280772   3.337   0.413   3.619  0.0503 -0.2168  0.1689
19761TIP3   OH280773   0.291   4.182  15.781 -0.0775  0.1150 -0.1611
19761TIP3    H180774   0.243   4.137  15.850  0.0114 -1.3464 -0.9948
19761TIP3    H280775   0.363   4.227  15.825  0.0117 -0.8430  0.6880
19762TIP3   OH280776   6.822   4.996   1.893 -0.0317  0.8485  0.8602
19762TIP3    H180777   6.885   4.942   1.845 -0.4365  2.9190 -2.2211
19762TIP3    H280778   6.741   4.943   1.893  1.0243 -0.9644  3.1287
19763TIP3   OH280779   2.646   4.865   1.528 -0.1352  0.0551 -0.4342
19763TIP3    H180780   2.607   4.928   1.468 -0.9567 -1.1038 -1.1797
19763TIP3    H280781   2.726   4.906   1.559 -1.5307  2.2188  0.5520
19764TIP3   OH280782   0.092   1.870  14.597 -0.3768  0.6160  0.1733
19764TIP3    H180783   0.045   1.835  14.672 -1.0674 -0.5416 -0.7604
19764TIP3    H280784   0.183   1.878  14.626 -0.3917 -1.0443  0.7333
19765TIP3   OH280785   4.168   2.431  14.322  0.1830 -0.8467 -0.1637
19765TIP3    H180786   4.121   2.364  14.273 -1.6374  1.2859 -1.4780
19765TIP3    H280787   4.111   2.507  14.321  2.4399  0.9875  0.6830
19766TIP3   OH280788   6.104   0.475  15.444  0.5578 -0.1798  0.3784
19766TIP3    H180789   6.176   0.437  15.493 -0.3674  0.1908  2.0870
19766TIP3    H280790   6.127   0.568  15.437  1.3013 -0.4359 -1.0724
19767TIP3   OH280791   5.998   5.888  13.704  0.2915  0.2127  0.0276
19767TIP3    H180792   5.955   5.814  13.662  0.5953 -1.3627  2.3086
19767TIP3    H280793   5.930   5.956  13.707 -1.1033 -1.1447  0.7893
19768TIP3   OH280794   3.571   3.750  11.757  0.0481  0.5005 -0.4400
19768TIP3    H180795   3.511   3.688  11.716  0.4742 -1.0255  1.1323
19768TIP3    H280796   3.517   3.827  11.775 -0.9977 -0.1718 -0.6060
19769TIP3   OH280797   6.435   1.463  16.408 -0.2444 -0.2446  0.6077
19769TIP3    H180798   6.530   1.472  16.399 -0.1584 -0.3777  1.3001
19769TIP3    H280799   6.401   1.551  16.391 -0.1723 -0.5885 -1.5415
19770TIP3   OH280800   2.657   6.260  15.331  0.3837 -0.4179 -0.3406
19770TIP3    H180801   2.686   6.220  15.412 -0.6078 -0.3719  0.0483
19770TIP3    H280802   2.576   6.307  15.354 -0.4853 -1.2481 -1.5546
19771TIP3   OH280803   1.106   5.395  13.048 -0.0282 -0.2731 -0.5665
19771TIP3    H180804   1.166   5.469  13.055  0.3664 -0.6625  0.4418
19771TIP3    H280805   1.038   5.412  13.113  0.8876 -1.4802  0.8042
19772TIP3   OH280806   2.343   5.129  13.291  0.0777 -0.3232  0.2748
19772TIP3    H180807   2.315   5.168  13.208  0.6646 -2.3274 -0.9172
19772TIP3    H280808   2.401   5.195  13.330  0.0983  0.4955 -1.0658
19773TIP3   OH280809   3.482   6.350   4.762 -0.5053 -0.1232 -0.2580
19773TIP3    H180810   3.415   6.290   4.730 -1.2200 -1.0466  2.6759
19773TIP3    H280811   3.473   6.348   4.857  2.4440  1.2134  0.1722
19774TIP3   OH280812   6.632   6.457   2.332 -0.0567  0.0036  0.4464
19774TIP3    H180813   6.579   6.478   2.409 -0.8628  1.2918 -0.4140
19774TIP3    H280814   6.622   6.533   2.275  3.9224  1.0326  0.8295
19775TIP3   OH280815   5.287   6.707  10.535 -0.7922  0.0658  0.3549
19775TIP3    H180816   5.348   6.680  10.604 -1.0206 -1.5286 -0.0212
19775TIP3    H280817   5.219   6.640  10.535 -1.7633  1.0068 -0.2375
19776TIP3   OH280818   5.916   2.520   1.010 -0.0279 -0.5985 -0.6436
19776TIP3    H180819   5.828   2.482   1.015  0.2011 -0.9632  1.5180
19776TIP3    H280820   5.969   2.465   1.066  1.6002 -0.3069 -1.8235
19777TIP3   OH280821   5.266   4.939  15.548 -0.5595  0.4705  0.2243
19777TIP3    H180822   5.277   4.844  15.547  2.0998  0.6633  2.1519
19777TIP3    H280823   5.219   4.957  15.629 -0.1799  0.8659  0.3565
19778TIP3   OH280824   1.062   3.876   6.139  0.4616 -0.6827 -0.5377
19778TIP3    H180825   1.098   3.959   6.168 -1.2956  0.3552 -1.1970
19778TIP3    H280826   1.019   3.841   6.218 -3.0033  1.4247 -1.2898
19779TIP3   OH280827   4.356   4.946  13.921 -0.0739  0.1152  0.5755
19779TIP3    H180828   4.321   4.974  13.836 -0.5340  0.5997  0.9163
19779TIP3    H280829   4.449   4.932  13.906 -0.1268  0.3522  0.0282
19780TIP3   OH280830   0.994   2.561  13.876  0.2239 -0.2997  0.6446
19780TIP3    H180831   0.947   2.501  13.819 -0.4299  0.7878  0.0032
19780TIP3    H280832   1.078   2.576  13.832 -0.1081  0.2017  0.1702
19781TIP3   OH280833   1.302   3.621   1.435  0.1122 -0.9169 -0.0203
19781TIP3    H180834   1.382   3.673   1.428 -0.4789  0.0940  0.5611
19781TIP3    H280835   1.266   3.643   1.521 -1.0280 -1.0257 -0.4503
19782TIP3   OH280836   2.464   3.031  15.804 -0.1969  0.7407 -0.0159
19782TIP3    H180837   2.462   3.126  15.816 -1.3738  0.9347 -1.4831
19782TIP3    H280838   2.536   3.015  15.743  0.3246  0.6189  0.6177
19783TIP3   OH280839   5.523   4.951   5.810 -0.0601  0.3900 -0.3207
19783TIP3    H180840   5.616   4.928   5.812 -0.5289 -1.6744 -0.2694
19783TIP3    H280841   5.487   4.910   5.888 -1.3255 -0.3788 -1.2769
19784TIP3   OH280842   5.756   5.919   1.203  0.6799  0.0670  0.3466
19784TIP3    H180843   5.781   5.966   1.124  0.6115 -1.4059 -0.5772
19784TIP3    H280844   5.833   5.867   1.226  0.0550 -1.0191  0.0849
19785TIP3   OH280845   0.121   0.950  16.914  0.6345 -0.1372 -0.9504
19785TIP3    H180846   0.169   0.980  16.991  0.2392 -0.1763 -0.6889
19785TIP3    H280847   0.164   0.995  16.840 -1.5739  3.2356 -0.3994
19786TIP3   OH280848   5.223   6.752   0.013  0.0302  0.0012 -0.5408
19786TIP3    H180849   5.155   6.684   0.007 -0.7234  0.7250 -0.4853
19786TIP3    H280850   5.173   6.834   0.015  0.9175  0.5419 -0.3962
19787TIP3   OH280851   3.099   1.635  15.494  0.0151 -0.0627 -0.5152
19787TIP3    H180852   3.174   1.575  15.491  0.5403  0.6011 -1.4747
19787TIP3    H280853   3.139   1.722  15.483 -0.9002  0.3021 -1.0117
19788TIP3   OH280854   6.547   2.751   3.974 -0.0343 -0.5411 -0.2022
19788TIP3    H180855   6.637   2.728   3.954  0.0517  1.0435 -1.9135
19788TIP3    H280856   6.541   2.845   3.956 -2.2325 -0.7636 -1.0027
19789TIP3   OH280857   0.177   5.767  14.032  0.2142 -0.7897  0.1196
19789TIP3    H180858   0.161   5.759  13.938 -1.1092  2.2664 -0.0510
19789TIP3    H280859   0.260   5.814  14.038  0.3460 -1.0647  0.5020
19790TIP3   OH280860   2.950   0.536  10.473 -0.0859  0.1494 -0.0801
19790TIP3    H180861   2.965   0.624  10.440  1.2580  0.0449  0.2257
19790TIP3    H280862   3.014   0.482  10.428 -2.1973 -1.0889 -1.8175
19791TIP3   OH280863   6.222   2.777  13.406  0.2601  0.3479  0.1902
19791TIP3    H180864   6.216   2.682  13.409  2.7408 -0.1104 -3.1472
19791TIP3    H280865   6.291   2.799  13.470  0.0658 -0.1469  0.5724
19792TIP3   OH280866   1.544   1.919   3.299  1.0001 -0.1811  0.1285
19792TIP3    H180867   1.515   2.008   3.280  1.7730  0.0426 -0.0238
19792TIP3    H280868   1.464   1.874   3.327  0.1179 -0.0854 -2.0361
19793TIP3   OH280869   2.729   5.969  10.967 -0.3598 -0.0413 -0.0565
19793TIP3    H180870   2.819   5.937  10.957 -0.2888 -0.1557  0.8919
19793TIP3    H280871   2.675   5.897  10.934 -0.1489 -0.5395  0.6673
19794TIP3   OH280872   3.158   3.174   1.935  0.0172  0.0449  0.1631
19794TIP3    H180873   3.249   3.187   1.910 -0.2319  0.3528 -0.6071
19794TIP3    H280874   3.142   3.238   2.004  0.6309 -0.6187  0.9494
19795TIP3   OH280875   6.533   5.879  12.931  0.1466  0.1640  0.1727
19795TIP3    H180876   6.481   5.869  13.010 -0.8940  0.3673 -0.4595
19795TIP3    H280877   6.534   5.973  12.914 -0.4342  0.0492 -0.5599
19796TIP3   OH280878   2.976   2.586  11.509 -0.0602  0.1390  0.6292
19796TIP3    H180879   2.918   2.526  11.463 -1.8708  1.8228  0.5650
19796TIP3    H280880   3.048   2.601  11.449 -0.5583 -0.4904 -0.1344
19797TIP3   OH280881   3.266   2.901   5.493  0.2339 -0.2063  0.1719
19797TIP3    H180882   3.346   2.891   5.545 -0.1840 -0.4733  0.7810
19797TIP3    H280883   3.267   2.826   5.434 -0.1734 -0.8955  1.0197
19798TIP3   OH280884   2.320   6.210   1.088 -0.2962  0.1577 -0.1718
19798TIP3    H180885   2.229   6.234   1.106 -0.5123 -1.6660  1.5295
19798TIP3    H280886   2.358   6.195   1.175  2.2434  2.7405 -0.6901
19799TIP3   OH280887   2.467   1.019  16.344 -0.1994  0.9634  0.0740
19799TIP3    H180888   2.558   1.004  16.370  0.1313  2.2364 -0.3055
19799TIP3    H280889   2.460   0.978  16.257 -0.0775  0.6221  0.2219
19800TIP3   OH280890   0.322   0.410   5.719  0.5392  0.3614 -0.0101
19800TIP3    H180891   0.266   0.487   5.709  2.0690  1.4481 -0.7246
19800TIP3    H280892   0.320   0.367   5.633 -2.8731 -2.3834  1.2004
19801TIP3   OH280893   3.045   6.561  10.990  0.0736  0.4143 -0.0565
19801TIP3    H180894   2.989   6.607  11.052  2.4283  0.6154  2.0831
19801TIP3    H280895   3.036   6.469  11.014 -0.6331  0.2557 -0.8777
19802TIP3   OH280896   6.137   5.016  11.500  0.2241 -0.2229 -0.4687
19802TIP3    H180897   6.136   5.027  11.596  0.3849 -2.1262 -0.2073
19802TIP3    H280898   6.138   4.922  11.487  2.7264 -0.0207 -2.3396
19803TIP3   OH280899   6.439   5.254  17.093  0.1314 -0.6556  0.9320
19803TIP3    H180900   6.476   5.235  17.007 -1.6385 -0.8248  0.1693
19803TIP3    H280901   6.344   5.258  17.079 -0.0536  2.3859  2.2676
19804TIP3   OH280902   0.932   6.338  15.513  0.0024  0.0678 -0.2977
19804TIP3    H180903   0.892   6.424  15.517 -2.2387 -0.9420  0.3589
19804TIP3    H280904   0.879   6.283  15.571  1.9179 -1.5682  0.0498
19805TIP3   OH280905   3.865   5.385  16.932  0.4076 -0.0557  0.1720
19805TIP3    H180906   3.954   5.351  16.940  0.2854 -0.8671 -1.4829
19805TIP3    H280907   3.828   5.338  16.857 -0.9711  1.2167  0.0083
19806TIP3   OH280908   3.304   3.106  16.799 -0.1678 -0.2640 -0.0948
19806TIP3    H180909   3.333   3.150  16.879 -1.2290 -0.9669  0.6915
19806TIP3    H280910   3.325   3.169  16.729 -1.9124  1.6727  1.0095
19807TIP3   OH280911   6.645   0.296   4.902 -0.1402 -0.8380  0.5684
19807TIP3    H180912   6.637   0.375   4.848 -0.9826  0.0674  1.9702
19807TIP3    H280913   6.576   0.238   4.870 -0.6843 -0.2768  0.7087
19808TIP3   OH280914   1.510   4.238  16.434  0.0093 -0.4469  0.0080
19808TIP3    H180915   1.504   4.317  16.380 -1.2087 -0.0628  0.6764
19808TIP3    H280916   1.445   4.179  16.397 -0.2659 -0.4846  0.5388
19809TIP3   OH280917   0.781   2.916  14.944  0.2318 -0.0012  0.0788
19809TIP3    H180918   0.734   2.834  14.958  0.5656 -0.0395  1.0615
19809TIP3    H280919   0.865   2.890  14.906  0.8717 -0.2639  1.5818
19810TIP3   OH280920   2.736   5.568  15.271  0.1702 -0.1315 -0.9502
19810TIP3    H180921   2.709   5.508  15.203  0.7142 -1.4718 -0.0217
19810TIP3    H280922   2.726   5.519  15.353 -0.3783  1.3897 -0.0615
19811TIP3   OH280923   0.698   5.354  15.322  0.0847 -0.4815  0.0460
19811TIP3    H180924   0.694   5.273  15.271 -1.7368  0.1558 -0.9093
19811TIP3    H280925   0.767   5.406  15.280 -0.7359 -0.3670 -1.2157
19812TIP3   OH280926   3.680   4.281  16.811 -0.7192 -0.4787 -0.2660
19812TIP3    H180927   3.704   4.220  16.742 -0.0315  1.1439 -1.5297
19812TIP3    H280928   3.759   4.290  16.864 -0.4328  0.2107 -0.7983
19813TIP3   OH280929   2.496   3.391  15.560 -0.2051  0.4910 -0.1332
19813TIP3    H180930   2.461   3.468  15.517  0.1795 -0.1560 -1.6787
19813TIP3    H280931   2.496   3.323  15.492 -1.6334 -1.2290  1.4675
19814TIP3   OH280932   6.628   4.763  15.426 -0.1087  0.1178  0.4174
19814TIP3    H180933   6.625   4.857  15.410  0.1483  0.0412 -0.0791
19814TIP3    H280934   6.714   4.735  15.394 -0.9048 -0.6060 -1.1975
19815TIP3   OH280935   2.333   5.227  11.341 -0.2139  0.0484 -0.8299
19815TIP3    H180936   2.412   5.191  11.380 -1.5703 -0.8284  1.3096
19815TIP3    H280937   2.263   5.168  11.370 -1.5821  0.3714 -3.2450
19816TIP3   OH280938   4.059   6.205   4.485 -0.1100  0.1304  0.3834
19816TIP3    H180939   4.142   6.161   4.503  2.2987  2.3290 -3.8028
19816TIP3    H280940   4.075   6.296   4.510 -1.8916  0.3182  0.9660
19817TIP3   OH280941   2.106   4.409   0.605  0.0258 -0.0291 -0.1065
19817TIP3    H180942   2.091   4.490   0.556 -0.7914 -0.3534 -0.3921
19817TIP3    H280943   2.162   4.436   0.678 -0.0765  0.7576 -0.3115
19818TIP3   OH280944   4.646   4.179  11.757  0.0220 -0.6442  0.2181
19818TIP3    H180945   4.654   4.274  11.750 -1.8976 -0.2746  1.8756
19818TIP3    H280946   4.705   4.144  11.691  2.3259  1.6629  0.9264
19819TIP3   OH280947   0.815   4.527   2.518  0.2670 -0.0599  1.1437
19819TIP3    H180948   0.897   4.565   2.550  0.0733  1.5199 -0.0757
19819TIP3    H280949   0.750   4.597   2.531 -0.3612 -0.3666 -0.1185
19820TIP3   OH280950   1.247   0.445  13.896 -0.8464  0.6683  0.4618
19820TIP3    H180951   1.283   0.483  13.816 -1.0106  0.5221  0.3169
19820TIP3    H280952   1.166   0.494  13.912 -0.6680  0.8879  0.6957
19821TIP3   OH280953   0.250   5.198  17.192 -0.0537 -0.3761  0.4454
19821TIP3    H180954   0.220   5.119  17.147  0.9285 -0.8372  0.5721
19821TIP3    H280955   0.238   5.268  17.128 -0.9375 -0.6118  0.3306
19822TIP3   OH280956   1.933   1.594  11.838 -0.0912 -0.5013 -0.3278
19822TIP3    H180957   1.885   1.659  11.890 -1.8704 -0.6339 -1.6854
19822TIP3    H280958   1.945   1.520  11.897  0.0699  0.2406  0.5986
19823TIP3   OH280959   0.151   2.572   1.836  0.3717 -0.7276 -0.6433
19823TIP3    H180960   0.060   2.568   1.806  0.0076 -0.6805  0.4325
19823TIP3    H280961   0.173   2.665   1.834  0.4066 -0.7396 -0.9098
19824TIP3   OH280962   0.776   4.793  13.965 -0.3066  0.1090  0.0486
19824TIP3    H180963   0.811   4.791  14.054 -0.2855  1.9339  0.1304
19824TIP3    H280964   0.837   4.850  13.917 -1.0028  0.1624 -0.7948
19825TIP3   OH280965   3.362   2.784  12.957  0.3639 -0.4091  0.0528
19825TIP3    H180966   3.316   2.752  13.034 -1.9499 -0.0779 -1.0897
19825TIP3    H280967   3.398   2.706  12.916 -0.1426 -0.8376  0.4074
19826TIP3   OH280968   2.275   0.323  15.265 -0.1927  0.4124 -0.0384
19826TIP3    H180969   2.237   0.280  15.188  1.9353 -1.5404 -0.1003
19826TIP3    H280970   2.254   0.416  15.253 -0.5370  0.0769 -2.6307
19827TIP3   OH280971   1.520   6.009   4.183  0.1770  0.1469 -0.0451
19827TIP3    H180972   1.520   6.096   4.222 -0.4418 -0.5114  1.5107
19827TIP3    H280973   1.504   5.950   4.257  1.4322 -1.3560 -0.9167
19828TIP3   OH280974   3.720   0.895  14.961  0.2096  0.1350 -0.2140
19828TIP3    H180975   3.718   0.939  15.046  1.5285  1.0814 -0.6393
19828TIP3    H280976   3.786   0.942  14.911  0.7598 -1.5530 -1.1588
19829TIP3   OH280977   4.545   2.612   2.957 -0.2657 -0.1102 -0.2617
19829TIP3    H180978   4.491   2.634   2.881  1.2212  1.4872 -0.9199
19829TIP3    H280979   4.607   2.548   2.924 -0.5649 -0.5513  0.0184
19830TIP3   OH280980   5.776   5.427  15.150  0.0983  0.5464  0.6451
19830TIP3    H180981   5.745   5.510  15.186 -0.3250  0.8582 -0.3849
19830TIP3    H280982   5.843   5.452  15.087  0.5147  0.0446  0.8824
19831TIP3   OH280983   4.336   2.682  12.708  0.0562 -0.8399  0.3699
19831TIP3    H180984   4.275   2.742  12.751 -0.7836 -1.5572  0.2009
19831TIP3    H280985   4.418   2.692  12.757  0.2648  1.2168 -0.3117
19832TIP3   OH280986   3.551   1.251   4.644 -0.0133 -0.1119 -0.2498
19832TIP3    H180987   3.539   1.313   4.572  1.4254  1.6577  0.9558
19832TIP3    H280988   3.618   1.291   4.700 -1.0699 -1.4000  2.0892
19833TIP3   OH280989   3.392   0.973   0.004 -0.4985  0.0859  0.2667
19833TIP3    H180990   3.420   1.063  -0.011  0.7352 -0.3037  0.1310
19833TIP3    H280991   3.324   0.958  -0.061  1.9116 -0.2549 -2.3415
19834TIP3   OH280992   4.399   4.738  16.933  0.0019  0.6880 -0.2020
19834TIP3    H180993   4.373   4.814  16.881  0.7413  0.5207 -0.8420
19834TIP3    H280994   4.494   4.747  16.942  0.1232 -0.2450 -0.4347
19835TIP3   OH280995   3.156   0.794   5.563  0.2094 -0.6228  0.1910
19835TIP3    H180996   3.121   0.850   5.632 -0.6503  1.0752 -1.5125
19835TIP3    H280997   3.085   0.733   5.542  0.4098 -1.0266  0.6747
19836TIP3   OH280998   6.195   2.296   4.931  0.1910  0.4373  0.4574
19836TIP3    H180999   6.131   2.367   4.919 -0.6046 -0.1485  1.0950
19836TIP3    H281000   6.218   2.301   5.024  1.1717  0.7073  0.2107
19837TIP3   OH281001   2.492   3.240   0.554  0.5964 -0.2568 -0.5301
19837TIP3    H181002   2.492   3.189   0.473  2.0138  2.1658 -2.2147
19837TIP3    H281003   2.477   3.330   0.525  1.2126  0.7172  1.9176
19838TIP3   OH281004   0.391   4.971  15.052 -0.0778 -0.6289 -0.1192
19838TIP3    H181005   0.437   4.955  14.970 -0.1125 -0.1207 -0.2379
19838TIP3    H281006   0.339   4.892  15.066  0.0973 -0.8093 -0.4727
19839TIP3   OH281007   6.246   6.432  15.268 -0.2450  0.0475 -0.0777
19839TIP3    H181008   6.201   6.517  15.274 -0.5224 -0.1798  1.8611
19839TIP3    H281009   6.271   6.424  15.176 -0.3638  2.1487 -0.3376
19840TIP3   OH281010   0.203   0.894  16.046  0.2856  0.6612  0.0124
19840TIP3    H181011   0.108   0.883  16.051  0.3624 -1.2041 -1.6249
19840TIP3    H281012   0.231   0.833  15.978  2.8752 -0.0289  1.5805
19841TIP3   OH281013   3.031   3.654   5.176 -0.2786  0.3819 -0.0490
19841TIP3    H181014   3.096   3.584   5.189  0.9761  1.2165 -1.5254
19841TIP3    H281015   3.083   3.734   5.172 -1.3761  1.0640 -1.5162
19842TIP3   OH281016   1.974   5.535   3.885  0.0330 -0.2974  0.1832
19842TIP3    H181017   2.007   5.575   3.966 -0.2492 -0.1548  0.2274
19842TIP3    H281018   1.886   5.506   3.906 -1.1137  2.1759 -0.8171
19843TIP3   OH281019   3.112   3.078  12.366 -0.0276 -0.0809 -0.5915
19843TIP3    H181020   3.099   3.098  12.459  1.1272 -0.2152 -0.3908
19843TIP3    H281021   3.173   3.145  12.335  0.6290 -0.8107 -0.9232
19844TIP3   OH281022   3.536   2.332   1.594 -0.7179  0.4294 -0.0351
19844TIP3    H181023   3.566   2.398   1.531 -0.5702  1.0898  0.7125
19844TIP3    H281024   3.475   2.278   1.544 -0.9410  1.2126 -0.6406
19845TIP3   OH281025   6.487   1.374  13.794 -0.2476 -0.1244  0.1161
19845TIP3    H181026   6.521   1.300  13.845 -2.0472 -2.5699 -2.0013
19845TIP3    H281027   6.470   1.442  13.860  0.1693 -2.0696  2.3768
19846TIP3   OH281028   0.016   0.835  15.588 -0.0928  0.3096 -0.1500
19846TIP3    H181029  -0.067   0.794  15.610  0.5645 -1.0061 -0.0145
19846TIP3    H281030   0.069   0.764  15.551 -0.0852  1.7554 -3.2319
19847TIP3   OH281031   0.197   5.160  11.566  0.5021 -0.1833  0.5015
19847TIP3    H181032   0.137   5.207  11.508  1.7015  0.8219  0.0176
19847TIP3    H281033   0.283   5.173  11.527  1.5236  1.4302  3.0417
19848TIP3   OH281034   1.709   0.848   4.562 -0.0472  0.4751 -0.0105
19848TIP3    H181035   1.796   0.830   4.600  0.7146  2.2784 -0.7943
19848TIP3    H281036   1.657   0.772   4.587  1.3154  0.0480  1.8370
19849TIP3   OH281037   4.818   0.482   4.414 -0.3849  0.2635  0.1128
19849TIP3    H181038   4.907   0.464   4.444 -0.7931 -1.7673  0.2400
19849TIP3    H281039   4.771   0.507   4.493  0.0045  1.1438  0.0787
19850TIP3   OH281040   2.202   6.173   4.053  0.1541  0.4806 -0.2846
19850TIP3    H181041   2.179   6.115   4.126 -3.5866  3.0854  0.9275
19850TIP3    H281042   2.293   6.198   4.070  0.7212 -2.1354  1.0935
19851TIP3   OH281043   5.780   3.878  13.958 -0.1659  0.3484 -0.1002
19851TIP3    H181044   5.860   3.875  13.905 -0.8413  1.5245 -1.2303
19851TIP3    H281045   5.716   3.827  13.908 -0.1066 -0.7188  0.8759
19852TIP3   OH281046   0.313   6.075   1.717  0.3309  0.3242 -0.1042
19852TIP3    H181047   0.319   6.105   1.626 -1.1972  2.0255  0.2935
19852TIP3    H281048   0.392   6.111   1.758 -0.2696  1.8546 -0.1989
19853TIP3   OH281049   0.012   6.265  12.839 -0.1409  0.1292 -0.6534
19853TIP3    H181050  -0.059   6.323  12.812  0.6257  0.7855 -1.2955
19853TIP3    H281051   0.091   6.317  12.826  0.4843 -0.7222 -0.2916
19854TIP3   OH281052   5.900   6.773  12.310  0.4562  0.2069 -0.1176
19854TIP3    H181053   5.910   6.678  12.318  0.6322  0.1269 -1.1617
19854TIP3    H281054   5.869   6.787  12.221  1.5598  1.2161 -0.3714
19855TIP3   OH281055   0.056   0.174  10.370 -0.3930 -0.2762 -0.6477
19855TIP3    H181056   0.008   0.246  10.412 -0.0126 -2.3837  4.0917
19855TIP3    H281057  -0.005   0.100  10.373  1.0684 -1.5027 -0.1052
19856TIP3   OH281058   3.107   1.885  16.190  0.6559 -0.4473  0.5457
19856TIP3    H181059   3.089   1.796  16.222 -0.5818 -0.8313 -1.0804
19856TIP3    H281060   3.134   1.933  16.268 -1.0879 -1.6082  1.9691
19857TIP3   OH281061   1.700   5.613  15.795  0.0252 -0.3086 -0.0650
19857TIP3    H181062   1.730   5.672  15.864  0.0852  0.3045 -0.5998
19857TIP3    H281063   1.709   5.525  15.832  0.4232 -0.0113  0.5585
19858TIP3   OH281064   4.603   0.765  13.855 -0.2641 -0.3613  0.4042
19858TIP3    H181065   4.623   0.674  13.835  2.3345 -0.2876  2.1224
19858TIP3    H281066   4.662   0.816  13.798 -2.7041  0.4155 -1.6228
19859TIP3   OH281067   3.771   3.912   0.273  0.2617 -0.2920 -0.3343
19859TIP3    H181068   3.786   3.925   0.367  0.5236  0.7995 -0.5100
19859TIP3    H281069   3.700   3.848   0.269  0.4082 -0.5328  0.6061
19860TIP3   OH281070   1.540   5.348  12.522 -0.7497 -0.3089  0.2069
19860TIP3    H181071   1.503   5.400  12.450 -1.9279 -1.3533  0.0146
19860TIP3    H281072   1.542   5.407  12.597 -2.0937  0.0109  0.0069
19861TIP3   OH281073   2.395   2.222  12.733  0.7760  0.1345 -0.0388
19861TIP3    H181074   2.361   2.307  12.708 -2.5911 -1.6114 -2.1362
19861TIP3    H281075   2.449   2.193  12.659 -0.5027 -0.6966 -0.6780
19862TIP3   OH281076   2.910   1.806   1.765  0.2924  0.1256 -0.0999
19862TIP3    H181077   2.860   1.871   1.814 -0.6533 -0.0899 -0.7454
19862TIP3    H281078   2.844   1.743   1.735  0.4400  1.4649 -3.6192
19863TIP3   OH281079   6.247   0.784   0.801  0.0274  0.2618 -0.8856
19863TIP3    H181080   6.253   0.723   0.727  3.7695  1.5597 -1.8414
19863TIP3    H281081   6.311   0.753   0.864 -0.1603  1.5120 -0.0357
19864TIP3   OH281082   0.078   0.210   0.716  0.5842 -0.3268 -0.2369
19864TIP3    H181083   0.126   0.259   0.650  0.6963  0.0149  0.0964
19864TIP3    H281084   0.107   0.247   0.800 -0.4667  0.0936 -0.0424
19865TIP3   OH281085   2.385   0.371  11.006 -0.1118 -0.3617 -0.4803
19865TIP3    H181086   2.472   0.392  10.972  0.6989 -1.7928  0.6189
19865TIP3    H281087   2.334   0.347  10.928  0.3626  0.7478 -1.1640
19866TIP3   OH281088   1.026   6.615   0.277 -0.0203 -0.1317  0.8617
19866TIP3    H181089   1.085   6.618   0.352 -0.7288 -3.6087  1.7459
19866TIP3    H281090   0.946   6.658   0.308  0.8886  1.7684  0.7255
19867TIP3   OH281091   2.476   4.635  12.268 -0.2420  0.5743  0.4564
19867TIP3    H181092   2.570   4.644  12.253 -0.0097  2.6880  2.4754
19867TIP3    H281093   2.440   4.721  12.244 -1.6858 -0.2045 -0.2914
19868TIP3   OH281094   6.835   5.050   4.953  0.4667  0.3607 -0.0242
19868TIP3    H181095   6.782   5.076   4.878  0.7623  0.8284 -0.0771
19868TIP3    H281096   6.777   4.995   5.006  0.4277 -0.4348 -0.8679
19869TIP3   OH281097   5.716   6.101   0.430 -0.6247 -0.3042 -0.2181
19869TIP3    H181098   5.772   6.108   0.507 -2.1671 -2.8494  1.3009
19869TIP3    H281099   5.689   6.191   0.412 -0.2126  0.4103  2.2559
19870TIP3   OH281100   1.665   4.653  16.370  0.4451  0.3398 -0.5770
19870TIP3    H181101   1.726   4.706  16.318  2.0706 -1.2301 -0.3657
19870TIP3    H281102   1.722   4.604  16.430 -1.1882  0.2038  0.9376
19871TIP3   OH281103   5.412   2.577  12.494 -0.2922  0.7714 -0.0335
19871TIP3    H181104   5.496   2.541  12.465 -0.6513 -1.0061  1.0002
19871TIP3    H281105   5.432   2.619  12.577 -0.2062  1.4846 -0.4048
19872TIP3   OH281106   1.515   3.533  12.954  0.2095 -0.8278  0.1956
19872TIP3    H181107   1.474   3.579  12.881 -0.6885  0.1158  1.2525
19872TIP3    H281108   1.534   3.445  12.920 -0.6004 -0.5519 -1.0163
19873TIP3   OH281109   1.498   6.194  15.528 -0.3209  0.7542  0.1041
19873TIP3    H181110   1.582   6.230  15.556 -1.0141  1.7024  1.0203
19873TIP3    H281111   1.481   6.122  15.588 -0.7392  1.3517  0.7112
19874TIP3   OH281112   1.291   0.524   0.204 -0.4879  0.1533  0.0466
19874TIP3    H181113   1.371   0.548   0.156 -0.3213 -0.1523  0.1659
19874TIP3    H281114   1.220   0.557   0.150 -0.3874 -1.6907 -1.3276
19875TIP3   OH281115   1.481   1.077  12.072  0.2593  0.0541 -0.3355
19875TIP3    H181116   1.462   1.098  12.164  1.9537 -2.9176  0.8265
19875TIP3    H281117   1.453   0.986  12.062  3.1095 -0.7722 -1.7609
19876TIP3   OH281118   1.552   1.278   6.058 -0.6838  0.0104 -0.1009
19876TIP3    H181119   1.602   1.359   6.049  0.1157 -0.5996 -1.4818
19876TIP3    H281120   1.606   1.223   6.115 -1.3737  0.5264  1.0936
19877TIP3   OH281121   3.260   4.239   3.052 -0.0941 -0.1189  0.2455
19877TIP3    H181122   3.228   4.196   3.131 -2.6259  0.1354 -0.5618
19877TIP3    H281123   3.243   4.332   3.066  1.4825  0.1980  0.2563
19878TIP3   OH281124   5.009   0.605   2.819 -0.2802  0.3236  0.5872
19878TIP3    H181125   5.056   0.625   2.737  1.0033 -1.3442  0.8622
19878TIP3    H281126   5.036   0.674   2.879  0.9643  0.0151  0.4031
19879TIP3   OH281127   3.450   6.070   4.140  0.2016  0.6895 -0.5682
19879TIP3    H181128   3.386   6.059   4.069 -0.9921 -0.8266  0.6705
19879TIP3    H281129   3.396   6.073   4.219  1.5201  2.1079  0.3304
19880TIP3   OH281130   5.427   5.836   0.671 -0.7937  0.5033  0.4045
19880TIP3    H181131   5.412   5.883   0.753 -1.7932  1.4633 -0.3044
19880TIP3    H281132   5.363   5.873   0.610 -0.2988 -0.4355 -0.7169
19881TIP3   OH281133   2.056   1.352   4.781 -0.2939 -0.1524 -0.3252
19881TIP3    H181134   2.009   1.393   4.708 -2.9209 -0.8410  0.8528
19881TIP3    H281135   2.075   1.424   4.841 -1.9508 -0.1419  0.2270
19882TIP3   OH281136   2.892   5.169   4.359  0.1725 -0.0689 -0.4919
19882TIP3    H181137   2.878   5.081   4.394 -1.0589  0.3373  0.0671
19882TIP3    H281138   2.979   5.164   4.318  0.5141 -1.2905  0.3075
19883TIP3   OH281139   5.020   4.403  12.841 -0.3830  0.5141 -0.4414
19883TIP3    H181140   5.082   4.468  12.875 -0.0001 -0.1547  0.1600
19883TIP3    H281141   4.986   4.359  12.919 -1.8056  1.0289 -0.7438
19884TIP3   OH281142   6.471   0.449  13.987 -0.1138  0.3436 -0.0715
19884TIP3    H181143   6.546   0.402  14.023 -0.8329 -0.6397  0.2059
19884TIP3    H281144   6.425   0.383  13.934 -1.2804  0.6553  0.5156
19885TIP3   OH281145   2.518   5.850   5.179  0.0375  0.6272  0.0356
19885TIP3    H181146   2.439   5.810   5.142  1.2052 -1.3027 -0.5303
19885TIP3    H281147   2.580   5.852   5.106  1.7656 -1.4999  1.3287
19886TIP3   OH281148   0.234   4.111  15.294 -0.2473 -0.1688 -0.1465
19886TIP3    H181149   0.143   4.138  15.307  0.1204 -0.0412  2.7802
19886TIP3    H281150   0.238   4.022  15.329  1.0524  0.4084  1.2693
19887TIP3   OH281151   1.866   1.316  13.326 -0.7990 -0.0655 -0.4968
19887TIP3    H181152   1.832   1.323  13.237  0.6459  2.0238 -0.9643
19887TIP3    H281153   1.950   1.361  13.323 -1.5010  1.7163  2.3128
19888TIP3   OH281154   3.576   3.718   0.031 -0.0237  0.3175  0.0923
19888TIP3    H181155   3.645   3.687   0.089  1.4602  1.3132 -1.0688
19888TIP3    H281156   3.496   3.677   0.065  0.6992  1.0777  2.9814
19889TIP3   OH281157   3.626   0.690   0.857  0.0358 -0.1558 -0.0204
19889TIP3    H181158   3.683   0.648   0.922 -0.9755  0.5152  1.3626
19889TIP3    H281159   3.616   0.779   0.890 -1.3143 -0.0971 -0.5628
19890TIP3   OH281160   3.176   4.462  12.500 -0.3558 -0.2250 -0.8526
19890TIP3    H181161   3.225   4.381  12.517  0.7893  0.2462 -1.7676
19890TIP3    H281162   3.225   4.504  12.429 -0.2917  1.7953  0.3413
19891TIP3   OH281163   2.091   2.625   4.943  0.1135 -0.3492  0.0510
19891TIP3    H181164   2.048   2.559   4.996  1.0236 -2.2634 -1.4493
19891TIP3    H281165   2.051   2.616   4.856  2.6089 -1.4678 -1.1107
19892TIP3   OH281166   0.830   0.327  13.154 -0.5270 -0.3614  0.1480
19892TIP3    H181167   0.878   0.409  13.143  1.3467 -1.4760 -0.4087
19892TIP3    H281168   0.857   0.294  13.240 -1.0610 -0.5289  0.2583
19893TIP3   OH281169   0.715   5.865  13.239 -0.8809 -0.0676  0.3228
19893TIP3    H181170   0.697   5.951  13.199  0.1804 -0.7108 -1.7196
19893TIP3    H281171   0.650   5.806  13.201 -0.3594 -0.5419  0.1477
19894TIP3   OH281172   1.991   5.195  12.997  0.6970  0.4463 -0.1263
19894TIP3    H181173   2.011   5.112  13.039 -1.5661 -0.2198 -0.2640
19894TIP3    H281174   1.959   5.251  13.068  2.5604  1.3965  0.0408
19895TIP3   OH281175   0.496   5.099   4.005 -0.0999  0.4165  0.8624
19895TIP3    H181176   0.487   5.194   3.996  3.9051  0.7583 -2.9678
19895TIP3    H281177   0.436   5.062   3.941  2.3609  0.8724 -1.8896
19896TIP3   OH281178   3.609   6.194   6.941  0.9069 -0.4730  0.3095
19896TIP3    H181179   3.592   6.111   6.896 -0.0946 -0.5420  0.7755
19896TIP3    H281180   3.525   6.215   6.983  1.7474 -0.3100  1.9591
19897TIP3   OH281181   5.910   2.650   6.154  0.6509  0.4873 -0.1111
19897TIP3    H181182   5.820   2.617   6.147  0.5534  0.3603  1.3810
19897TIP3    H281183   5.956   2.583   6.204  1.9194 -0.0248 -1.8595
19898TIP3   OH281184   4.307   0.034   0.041 -0.1728  0.5942 -0.0539
19898TIP3    H181185   4.288  -0.045   0.092 -0.7215  1.0981  0.5462
19898TIP3    H281186   4.251   0.026  -0.036 -1.0840  0.9112  0.5464
19899TIP3   OH281187   0.645   1.012  13.430  0.1397 -0.0204  0.3958
19899TIP3    H181188   0.710   1.068  13.471 -0.0964  0.9275 -0.4997
19899TIP3    H281189   0.674   1.003  13.339  0.8703 -2.4010  0.7788
19900TIP3   OH281190   1.627   5.333  14.919  0.0115  0.0019 -0.3763
19900TIP3    H181191   1.664   5.246  14.899  0.0943  0.2154 -1.1762
19900TIP3    H281192   1.704   5.387  14.940  0.0486  0.1237 -0.8148
19901TIP3   OH281193   4.033   2.391  12.689 -0.0020 -0.3959  0.1839
19901TIP3    H181194   3.980   2.376  12.611 -0.1502 -0.2811  0.2636
19901TIP3    H281195   4.103   2.450  12.660  1.1282 -1.9234 -0.3729
19902TIP3   OH281196   3.486   3.029  13.034 -0.2276 -0.2150 -0.0031
19902TIP3    H181197   3.522   3.074  12.957 -1.0356  0.1291 -0.1917
19902TIP3    H281198   3.411   2.981  12.999  0.7774 -1.9687  0.1335
19903TIP3   OH281199   4.617   4.104  17.165 -0.3674 -0.3851 -0.4503
19903TIP3    H181200   4.705   4.090  17.201 -0.0982  1.2588 -0.3881
19903TIP3    H281201   4.564   4.036  17.205  0.0812  0.8638  2.5858
19904TIP3   OH281202   1.442   4.720   4.735 -0.1576  0.1436  0.2279
19904TIP3    H181203   1.382   4.773   4.788  0.2237 -0.8467  1.7114
19904TIP3    H281204   1.435   4.632   4.772  1.2565 -0.2651 -0.4094
19905TIP3   OH281205   0.961   0.437   1.811 -0.8956  0.0538 -0.2195
19905TIP3    H181206   0.989   0.515   1.859  0.6636 -0.5306 -0.1280
19905TIP3    H281207   0.905   0.471   1.740 -1.3989  1.1097  0.6516
19906TIP3   OH281208   4.129   2.976  12.167  0.3306 -0.1107 -0.2978
19906TIP3    H181209   4.199   2.916  12.192  0.3424  0.1192  0.2215
19906TIP3    H281210   4.088   3.002  12.249  1.7342  2.3317 -0.2640
19907TIP3   OH281211   3.579   4.121   0.747  0.0860 -0.0652  0.5256
19907TIP3    H181212   3.563   4.155   0.659  1.2861 -0.6965  0.0311
19907TIP3    H281213   3.492   4.112   0.785 -0.4902 -0.1069 -0.7277
19908TIP3   OH281214   6.099   6.353  10.702  0.1485 -0.3730  0.4800
19908TIP3    H181215   6.054   6.345  10.617  2.1717  0.8838 -0.8113
19908TIP3    H281216   6.029   6.355  10.766 -1.4226 -3.4242 -0.9086
19909TIP3   OH281217   0.030   5.701   2.774  0.4226  0.7831  0.3370
19909TIP3    H181218   0.052   5.679   2.865  0.4046  2.9716  0.9164
19909TIP3    H281219  -0.065   5.703   2.772  0.3863  3.4069  1.0480
19910TIP3   OH281220   5.390   4.545  13.190 -0.0547  0.0989 -0.6608
19910TIP3    H181221   5.403   4.493  13.270 -2.0365  1.2621  0.5036
19910TIP3    H281222   5.478   4.577  13.169  0.3804  0.9298  1.9452
19911TIP3   OH281223   1.950   3.887  12.151 -0.4555  0.4304  0.2727
19911TIP3    H181224   2.004   3.848  12.219  0.2572  1.6201  0.4094
19911TIP3    H281225   1.928   3.814  12.093  0.0820 -0.3329  1.0058
19912TIP3   OH281226   5.992   3.484   2.061  0.0660  0.0850  0.4052
19912TIP3    H181227   5.927   3.554   2.070  0.7694  0.6113  1.7004
19912TIP3    H281228   6.032   3.500   1.976 -2.0672 -0.7789 -0.8147
19913TIP3   OH281229   4.704   0.907   1.118 -0.1674  0.1437 -0.3960
19913TIP3    H181230   4.796   0.930   1.129 -0.3715  2.1495 -2.4045
19913TIP3    H281231   4.660   0.952   1.190  0.2576  0.1471 -0.1276
19914TIP3   OH281232   5.220   6.197  15.103 -0.2233  0.3981 -0.4150
19914TIP3    H181233   5.237   6.158  15.188 -2.5359 -0.6746 -0.3594
19914TIP3    H281234   5.304   6.194  15.057  0.9390  0.5069  1.5870
19915TIP3   OH281235   1.715   5.088  16.359 -0.1944 -0.1939 -0.7408
19915TIP3    H181236   1.730   5.141  16.437  0.0570  1.2662 -1.7441
19915TIP3    H281237   1.795   5.035  16.350 -0.6783 -1.2295  0.5832
19916TIP3   OH281238   6.811   6.331   1.664  0.6645 -0.1576 -0.3215
19916TIP3    H181239   6.776   6.380   1.739  0.4068  0.7543 -1.0149
19916TIP3    H281240   6.841   6.248   1.701 -1.3788 -0.5901  0.4583
19917TIP3   OH281241   3.497   0.596   6.061 -0.4274  0.3767 -0.3296
19917TIP3    H181242   3.456   0.591   5.975 -0.8395  1.5023 -0.2137
19917TIP3    H281243   3.497   0.689   6.083  0.0101  0.1502  0.7294
19918TIP3   OH281244   2.159   3.579   1.244 -0.2481  0.2364  0.1611
19918TIP3    H181245   2.067   3.576   1.218 -0.3781  0.7704  0.5283
19918TIP3    H281246   2.171   3.504   1.301  0.6261 -2.3856 -3.1607
19919TIP3   OH281247   3.853   6.649   6.677  0.5068 -0.4053 -0.4678
19919TIP3    H181248   3.759   6.633   6.674  0.6638 -1.6838  0.2848
19919TIP3    H281249   3.861   6.738   6.711 -0.4414 -0.6707  0.5384
19920TIP3   OH281250   0.717   1.368   5.324  0.0143 -0.6509  0.7672
19920TIP3    H181251   0.700   1.462   5.323  0.2443 -0.5811 -1.7790
19920TIP3    H281252   0.630   1.328   5.326 -0.0863 -0.4295  1.6795
19921TIP3   OH281253   3.947   6.021   0.910 -0.3804 -0.0353 -0.0284
19921TIP3    H181254   3.866   6.058   0.947 -0.0114  0.1845  0.5772
19921TIP3    H281255   4.013   6.037   0.977  1.1631  3.4818 -2.1024
19922TIP3   OH281256   2.241   6.707   3.396  0.2288 -0.2829  0.0043
19922TIP3    H181257   2.268   6.786   3.349  0.6985  0.9824  2.2713
19922TIP3    H281258   2.313   6.689   3.456 -0.2539 -1.9622  0.1119
19923TIP3   OH281259   5.520   4.758   0.829 -0.1077 -0.0524 -0.1079
19923TIP3    H181260   5.545   4.672   0.795 -0.2696 -0.2341  0.2247
19923TIP3    H281261   5.593   4.784   0.885 -1.2624 -1.2710  2.1002
19924TIP3   OH281262   1.847   2.931   1.485 -0.0322 -0.0305  0.0619
19924TIP3    H181263   1.858   2.981   1.566 -2.3747 -1.3866  1.3323
19924TIP3    H281264   1.767   2.880   1.499 -1.2291  0.5490 -3.5847
19925TIP3   OH281265   0.553   6.136   1.237 -0.2063  0.4561  0.4033
19925TIP3    H181266   0.517   6.066   1.183  1.0752 -1.3758  1.8095
19925TIP3    H281267   0.605   6.189   1.176 -0.5087 -0.3122 -0.5453
19926TIP3   OH281268   3.443   4.834  11.971 -0.4669 -0.0895  0.3372
19926TIP3    H181269   3.396   4.818  11.889  0.9110 -0.6303 -0.3815
19926TIP3    H281270   3.535   4.842  11.945 -0.0240 -0.0789  1.8123
19927TIP3   OH281271   0.122   5.766  15.723  0.0337 -0.2591 -0.4456
19927TIP3    H181272   0.044   5.711  15.713  0.0851 -0.1156 -1.7064
19927TIP3    H281273   0.088   5.846  15.765  0.0441 -1.3806  1.8785
19928TIP3   OH281274   0.086   5.485  11.349  0.8703  0.2133 -1.1091
19928TIP3    H181275   0.018   5.546  11.320  1.1823 -0.4083 -3.3554
19928TIP3    H281276   0.056   5.399  11.318  0.7365 -0.7769  1.4668
19929TIP3   OH281277   2.511   2.046  14.869  0.1475  0.5830 -0.0609
19929TIP3    H181278   2.555   1.996  14.801 -2.7048 -1.4513 -0.5876
19929TIP3    H281279   2.449   2.101  14.821 -1.1397 -0.0819  0.7846
19930TIP3   OH281280   1.121   5.424  13.434 -0.0642  0.1904  0.0758
19930TIP3    H181281   1.168   5.358  13.383 -3.2107 -1.1398 -1.3724
19930TIP3    H281282   1.166   5.506  13.416  2.0905 -1.0607 -0.5685
19931TIP3   OH281283   0.505   4.064  16.833 -0.0712  0.8057  0.1100
19931TIP3    H181284   0.597   4.039  16.837  0.3289  2.3734  2.3640
19931TIP3    H281285   0.458   3.981  16.829  1.4070 -0.0148 -1.6801
19932TIP3   OH281286   4.828   3.104  13.645 -0.3371 -0.1214  0.3002
19932TIP3    H181287   4.764   3.077  13.579 -1.0973 -1.4729  1.5244
19932TIP3    H281288   4.779   3.101  13.727  0.7492  0.9411  1.0113
19933TIP3   OH281289   2.943   5.532   4.681  0.0159 -0.3445  0.2381
19933TIP3    H181290   3.015   5.525   4.618  0.3088 -1.1855  0.6436
19933TIP3    H281291   2.985   5.528   4.766 -0.5255 -1.2149  0.4808
19934TIP3   OH281292   1.623   6.404   6.798  0.2653 -0.0737 -0.3976
19934TIP3    H181293   1.571   6.324   6.792  0.1577  0.0056 -0.5231
19934TIP3    H281294   1.714   6.373   6.798  0.3067 -0.1183 -2.4746
19935TIP3   OH281295   5.548   5.277  14.734 -0.3188  0.0232 -0.8034
19935TIP3    H181296   5.640   5.254  14.750 -0.5301 -1.5201 -1.6208
19935TIP3    H281297   5.499   5.221  14.794 -0.9679 -3.5957 -4.2827
19936TIP3   OH281298   0.300   3.709   1.816  0.1454 -0.5827  0.3505
19936TIP3    H181299   0.223   3.764   1.831 -0.2606 -1.5685  2.2782
19936TIP3    H281300   0.286   3.672   1.729 -1.3978 -0.4464  0.5078
19937TIP3   OH281301   3.463   5.787   0.130 -0.0169 -0.0517 -0.4432
19937TIP3    H181302   3.529   5.719   0.147 -1.2311 -1.5420 -1.3565
19937TIP3    H281303   3.386   5.738   0.099 -2.5490  1.3249  3.0590
19938TIP3   OH281304   1.341   5.550  16.518 -0.3517 -0.1976 -0.1846
19938TIP3    H181305   1.298   5.566  16.602 -0.6287  0.0208 -0.3677
19938TIP3    H281306   1.374   5.461  16.525 -1.0901 -0.4774 -0.1479
19939TIP3   OH281307   6.026   2.433   0.066 -0.5359 -0.1507 -0.0614
19939TIP3    H181308   6.024   2.403   0.157 -0.4106  1.3155  0.4436
19939TIP3    H281309   5.944   2.481   0.055 -0.0198  0.6673 -0.3679
19940TIP3   OH281310   3.774   1.239  10.987  0.6844 -0.2181 -0.5606
19940TIP3    H181311   3.737   1.301  11.050 -0.4216 -1.9051  0.5060
19940TIP3    H281312   3.725   1.256  10.906 -0.4379 -0.4671  0.0450
19941TIP3   OH281313   1.960   3.727  16.723 -0.2679 -0.3759  0.0770
19941TIP3    H181314   2.043   3.705  16.765 -1.0344 -2.5555  0.6055
19941TIP3    H281315   1.897   3.734  16.795 -0.9351 -0.8460 -0.4376
19942TIP3   OH281316   6.146   6.683   6.299 -0.0088 -0.9699 -0.0472
19942TIP3    H181317   6.114   6.753   6.355  1.2711 -0.5935  0.2421
19942TIP3    H281318   6.239   6.702   6.287 -0.0516 -1.5656 -1.5256
19943TIP3   OH281319   4.528   4.564  13.769 -0.1496 -0.1267 -0.6715
19943TIP3    H181320   4.432   4.558  13.769 -0.1004 -2.6710 -2.7751
19943TIP3    H281321   4.546   4.655  13.746 -2.0162  0.5478  0.2802
19944TIP3   OH281322   0.133   6.600   5.950 -0.5641  0.2081 -0.1055
19944TIP3    H181323   0.084   6.518   5.958  0.7271 -0.5016  0.9469
19944TIP3    H281324   0.115   6.647   6.031 -1.1576  0.9088 -0.6292
19945TIP3   OH281325   4.823   0.958  10.552  0.3045 -0.0577 -0.7791
19945TIP3    H181326   4.907   0.931  10.587  0.1854 -0.6578 -0.9414
19945TIP3    H281327   4.836   1.048  10.523  0.5442  0.2734  0.3220
19946TIP3   OH281328   2.629   4.214  12.139  0.1412 -0.0620  0.0291
19946TIP3    H181329   2.582   4.288  12.100 -1.4147 -0.9490  0.1279
19946TIP3    H281330   2.596   4.209  12.228  1.4606  0.0994  0.5548
19947TIP3   OH281331   0.686   1.553  13.611 -0.1873  0.1597 -0.4454
19947TIP3    H181332   0.748   1.611  13.567 -2.4766  0.9239 -2.9010
19947TIP3    H281333   0.732   1.468  13.616  1.0007  0.6491 -2.2805
19948TIP3   OH281334   1.668   4.337   0.155 -0.2513  0.0391  0.1392
19948TIP3    H181335   1.703   4.286   0.228  0.0752  2.0753  1.4869
19948TIP3    H281336   1.746   4.366   0.107 -0.3886  0.0389 -0.0832
19949TIP3   OH281337   6.736   5.654  11.252 -0.4088 -0.1055 -0.5525
19949TIP3    H181338   6.716   5.738  11.210 -1.0148  1.3863  2.4583
19949TIP3    H281339   6.662   5.598  11.230 -1.1791  0.9401 -0.6922
19950TIP3   OH281340   1.960   2.146   0.960  0.1783  0.2357  0.1120
19950TIP3    H181341   2.004   2.218   1.004  1.4811 -0.0512 -0.6681
19950TIP3    H281342   2.031   2.090   0.928 -0.7922 -1.3448  0.6073
19951TIP3   OH281343   4.409   5.783  12.516 -0.2009 -0.2886 -0.2296
19951TIP3    H181344   4.493   5.737  12.513 -0.2352 -0.3613 -0.0808
19951TIP3    H281345   4.414   5.845  12.444 -0.6873 -1.4664 -1.3256
19952TIP3   OH281346   3.524   0.305   1.017 -0.3379  0.4240 -1.1128
19952TIP3    H181347   3.439   0.337   0.986 -0.0956  2.0720 -0.1975
19952TIP3    H281348   3.539   0.354   1.098  2.0878  1.2005 -1.9618
19953TIP3   OH281349   6.305   0.753  16.002 -0.0196 -0.0043  0.5582
19953TIP3    H181350   6.369   0.684  15.988  0.1353  0.1322  0.5901
19953TIP3    H281351   6.355   0.824  16.042 -0.0560  0.3511 -0.0133
19954TIP3   OH281352   5.876   4.236   4.491  0.2881 -0.4335  1.4451
19954TIP3    H181353   5.873   4.253   4.397  0.8873 -0.0402  1.4865
19954TIP3    H281354   5.800   4.181   4.508 -0.1163 -0.0847  0.8170
19955TIP3   OH281355   6.252   0.237   5.600 -0.0772  0.1858  0.2696
19955TIP3    H181356   6.305   0.203   5.528  0.3467  0.3810  0.4893
19955TIP3    H281357   6.224   0.323   5.570  0.3996  0.4178  0.4861
19956TIP3   OH281358   6.218   5.874  10.588  0.0522  0.3672  0.3422
19956TIP3    H181359   6.294   5.896  10.534 -0.3027  0.2740 -0.1949
19956TIP3    H281360   6.242   5.791  10.630 -0.1899 -0.2270 -0.6821
19957TIP3   OH281361   2.760   4.036  14.450 -0.4275 -0.3860  0.7511
19957TIP3    H181362   2.756   4.073  14.361  0.4415 -2.1655 -0.0831
19957TIP3    H281363   2.730   4.107  14.506  1.7689  1.8719 -0.6658
19958TIP3   OH281364   0.074   0.053  15.400  0.2725 -0.1017  0.0024
19958TIP3    H181365  -0.006   0.067  15.450 -1.2139 -1.8859 -1.6678
19958TIP3    H281366   0.097  -0.039  15.417  2.1473  0.4445  0.6463
19959TIP3   OH281367   3.261   3.322   3.521 -0.4629 -0.3607  0.4667
19959TIP3    H181368   3.271   3.393   3.457 -1.0430 -0.9132 -0.2579
19959TIP3    H281369   3.348   3.281   3.525 -0.3809 -0.2256  0.1333
19960TIP3   OH281370   0.845   4.730  14.626  0.0777  0.2098 -0.4858
19960TIP3    H181371   0.766   4.776  14.597  0.4503  1.1559 -0.0264
19960TIP3    H281372   0.819   4.689  14.709 -0.3927 -0.8425 -1.1212
19961TIP3   OH281373   3.069   2.947   0.848  0.4120 -0.2625  0.1637
19961TIP3    H181374   3.159   2.956   0.879  0.3384 -0.8261  0.5707
19961TIP3    H281375   3.061   2.855   0.824  0.4219  0.1395 -1.4514
19962TIP3   OH281376   1.281   4.674   4.431 -0.1331  0.2486  0.4699
19962TIP3    H181377   1.369   4.697   4.403 -1.1535 -0.1383 -3.6474
19962TIP3    H281378   1.291   4.591   4.479  1.7687  0.6938  0.9037
19963TIP3   OH281379   1.397   0.265   4.785  0.1212  0.3368 -0.1953
19963TIP3    H181380   1.477   0.300   4.747 -0.6706  2.2865 -0.1909
19963TIP3    H281381   1.329   0.287   4.722 -0.7130  0.6520  0.7899
19964TIP3   OH281382   2.047   6.512  16.497  0.6938 -0.3973  0.6110
19964TIP3    H181383   2.078   6.592  16.541  1.9353 -0.6770  0.2718
19964TIP3    H281384   2.026   6.452  16.569 -0.8110  0.4084  0.8891
19965TIP3   OH281385   0.379   5.577   0.539  0.6642  0.1671 -0.3696
19965TIP3    H181386   0.455   5.581   0.481  0.4826  1.8717 -0.5163
19965TIP3    H281387   0.315   5.636   0.500 -0.6884 -1.0793 -0.1376
19966TIP3   OH281388   2.034   6.668   0.165 -0.1388  0.2325 -0.5031
19966TIP3    H181389   2.126   6.654   0.145  0.3939 -0.2561  2.0322
19966TIP3    H281390   2.034   6.715   0.248 -2.1847  0.7892 -0.7629
19967TIP3   OH281391   3.320   6.112   3.705  0.1142  0.2544  0.3853
19967TIP3    H181392   3.268   6.134   3.628 -0.6787  1.2681  1.1956
19967TIP3    H281393   3.323   6.193   3.756  0.8154 -0.3445  1.3188
19968TIP3   OH281394   5.810   4.892   3.557 -0.3492 -0.4279 -0.1124
19968TIP3    H181395   5.832   4.974   3.512  0.2031  0.9707  2.4845
19968TIP3    H281396   5.889   4.838   3.548  1.2778  1.3489  2.2540
19969TIP3   OH281397   0.429   4.469  13.713  0.2202 -0.5009 -0.2123
19969TIP3    H181398   0.404   4.512  13.794  1.1014 -0.6647  0.1598
19969TIP3    H281399   0.490   4.530  13.671  0.6891 -0.9322 -0.1688
19970TIP3   OH281400   0.751   3.442  10.994 -0.2117 -0.2822 -0.4229
19970TIP3    H181401   0.806   3.432  10.917 -0.9103  0.7888 -1.0864
19970TIP3    H281402   0.662   3.433  10.961 -0.5167  0.1773  0.2630
19971TIP3   OH281403   1.716   3.858   2.317  0.4204  0.1690  0.3171
19971TIP3    H181404   1.722   3.954   2.317 -0.5289  0.2617  2.1625
19971TIP3    H281405   1.728   3.834   2.225  0.3083  2.0720 -0.2435
19972TIP3   OH281406   1.833   1.666   2.441 -0.3303 -0.0239  0.4385
19972TIP3    H181407   1.747   1.705   2.424 -0.3113 -0.9513 -2.3089
19972TIP3    H281408   1.884   1.686   2.363  2.1008  0.7120  2.0921
19973TIP3   OH281409   5.827   2.388  16.374  0.2777  0.3137  0.1674
19973TIP3    H181410   5.802   2.374  16.283 -1.4471  1.1117  0.4909
19973TIP3    H281411   5.755   2.438  16.412  0.0285 -1.5827  2.4654
19974TIP3   OH281412   1.631   4.372  15.763  0.3208 -0.0202  0.0292
19974TIP3    H181413   1.551   4.362  15.712 -1.1347  1.6116  1.8581
19974TIP3    H281414   1.683   4.436  15.715 -1.0246  1.4919  0.5408
19975TIP3   OH281415   4.263   3.745   3.245 -0.0913 -0.9856 -0.1256
19975TIP3    H181416   4.263   3.728   3.339 -2.3794  0.9636  0.3351
19975TIP3    H281417   4.328   3.814   3.233 -0.8261 -0.1972  0.3085
19976TIP3   OH281418   0.463   3.282   1.874 -0.6048 -0.2140  0.3437
19976TIP3    H181419   0.368   3.272   1.877 -0.8162  1.7036  1.2749
19976TIP3    H281420   0.497   3.205   1.919 -1.7501 -0.3938  0.9289
19977TIP3   OH281421   6.330   5.290  15.097  0.0701 -0.2244 -0.2978
19977TIP3    H181422   6.403   5.342  15.130 -1.5048  0.8576  1.6695
19977TIP3    H281423   6.270   5.353  15.058 -1.7459 -0.4786  1.8819
19978TIP3   OH281424   3.494   6.150  15.970 -0.3443 -0.6429  0.1228
19978TIP3    H181425   3.496   6.069  15.919  1.7306 -1.2794  1.1082
19978TIP3    H281426   3.572   6.146  16.025 -0.0394  2.1561  0.0473
19979TIP3   OH281427   4.843   4.698   2.723 -0.6284  0.0657 -0.4040
19979TIP3    H181428   4.784   4.640   2.674 -0.9280 -0.6646  0.7876
19979TIP3    H281429   4.801   4.784   2.719 -1.5277 -0.3494  0.0257
19980TIP3   OH281430   4.895   2.147   3.315 -0.0906 -0.1992  0.0334
19980TIP3    H181431   4.955   2.150   3.241  0.8877 -1.1599  0.7505
19980TIP3    H281432   4.882   2.239   3.339 -0.9302  0.1751 -1.6855
19981TIP3   OH281433   3.957   5.154  12.559  0.0856 -0.4788 -0.2443
19981TIP3    H181434   3.898   5.139  12.633  2.6810  1.2386  2.3667
19981TIP3    H281435   3.907   5.210  12.500 -2.1817 -2.1619 -0.0821
19982TIP3   OH281436   3.721   1.895   5.867 -0.1032 -0.1976 -0.1640
19982TIP3    H181437   3.750   1.805   5.879  1.4932 -0.0900 -2.6724
19982TIP3    H281438   3.694   1.923   5.955  0.5990 -2.6639  0.9220
19983TIP3   OH281439   0.320   2.818   2.633  0.3838  0.9270 -0.4508
19983TIP3    H181440   0.261   2.753   2.596  0.6705 -0.1077  0.8341
19983TIP3    H281441   0.398   2.814   2.578  0.1671  0.6128 -0.7355
19984TIP3   OH281442   5.043   5.469   2.897  0.6115  0.9528  0.9231
19984TIP3    H181443   5.062   5.517   2.978  0.7163 -2.1999  2.9594
19984TIP3    H281444   4.949   5.452   2.901  0.7748 -0.0221  0.9147
19985TIP3   OH281445   5.781   2.803  15.766  0.5140 -0.2850 -0.4034
19985TIP3    H181446   5.816   2.743  15.833  1.5880 -0.9188 -1.4922
19985TIP3    H281447   5.830   2.884  15.779 -0.4656  0.1698  0.6344
19986TIP3   OH281448   4.001   1.916   4.260 -0.2476  0.1172  0.2091
19986TIP3    H181449   3.909   1.891   4.261 -1.4768  3.9230  1.6039
19986TIP3    H281450   4.020   1.936   4.168 -0.9081 -0.3098 -0.0243
19987TIP3   OH281451   1.510   1.349  11.577  0.1700  0.2936  0.1156
19987TIP3    H181452   1.515   1.312  11.665 -1.8261  0.1666  0.2210
19987TIP3    H281453   1.602   1.365  11.552  0.9342 -2.0331  1.1881
19988TIP3   OH281454   0.212   5.989  12.246  0.9442  0.1150  0.0135
19988TIP3    H181455   0.153   6.052  12.204 -0.4817  0.2772  2.1329
19988TIP3    H281456   0.182   5.904  12.214 -1.1310  0.1168  1.7048
19989TIP3   OH281457   3.323   5.609  16.340  0.0898 -0.6590 -0.1774
19989TIP3    H181458   3.280   5.692  16.362  2.2924  0.6527 -0.5392
19989TIP3    H281459   3.394   5.601  16.403  1.1912 -1.1952 -1.4430
19990TIP3   OH281460   5.571   0.249   3.731 -0.2005  0.4363  0.2692
19990TIP3    H181461   5.590   0.296   3.650  1.4234 -0.4120  0.1381
19990TIP3    H281462   5.509   0.180   3.705  0.6723 -0.1285 -0.3608
19991TIP3   OH281463   4.731   2.280   2.029  0.1014  0.4074  0.1495
19991TIP3    H181464   4.641   2.308   2.012 -0.1475 -1.0218 -1.1028
19991TIP3    H281465   4.784   2.333   1.970 -0.0346  0.4573  0.0717
19992TIP3   OH281466   0.916   5.522  13.223 -0.1663  0.4288  0.6828
19992TIP3    H181467   0.837   5.551  13.177  0.6585  0.1248 -1.0061
19992TIP3    H281468   0.900   5.546  13.315 -1.6331  1.6106  0.1718
19993TIP3   OH281469   0.594   0.402  11.366  0.3851  0.5095 -0.3494
19993TIP3    H181470   0.506   0.437  11.355  0.6386  0.9234 -1.1148
19993TIP3    H281471   0.639   0.423  11.284  1.3512  0.7555  0.2241
19994TIP3   OH281472   1.507   5.025  14.048 -0.7621  0.2205  0.0958
19994TIP3    H181473   1.562   5.056  14.119 -0.4122 -0.0361 -0.0632
19994TIP3    H281474   1.418   5.047  14.076 -0.5586  0.9515  0.1947
19995TIP3   OH281475   3.555   4.326   3.018 -0.7604 -0.2774 -0.2206
19995TIP3    H181476   3.551   4.348   2.925 -2.1571 -0.8704 -0.3159
19995TIP3    H281477   3.532   4.234   3.022  0.6215 -0.6134  0.6102
19996TIP3   OH281478   0.838   6.833   4.546 -0.0083 -0.8064  0.1997
19996TIP3    H181479   0.782   6.777   4.493 -0.8853 -0.4907  0.7660
19996TIP3    H281480   0.820   6.922   4.515  0.8678 -0.7700 -0.2328
19997TIP3   OH281481   6.072   6.455   3.525  0.3844 -0.1069  0.0397
19997TIP3    H181482   6.065   6.360   3.523 -1.5154 -0.0083  0.3551
19997TIP3    H281483   6.023   6.482   3.602 -0.3584  1.2083 -0.8486
19998TIP3   OH281484   6.061   6.658  15.237  0.3548  0.2842 -0.3144
19998TIP3    H181485   6.078   6.693  15.149 -0.3093  2.5471  0.3953
19998TIP3    H281486   5.966   6.661  15.246  0.3434 -0.8995  0.1455
19999TIP3   OH281487   4.720   2.950  14.153 -0.3506  0.1373  0.1966
19999TIP3    H181488   4.656   2.889  14.190 -0.4419 -0.2602 -0.5988
19999TIP3    H281489   4.720   3.024  14.213 -1.0646 -0.1517  0.5634
20000TIP3   OH281490   2.040   3.705  14.132 -0.0022  0.4438 -0.3542
20000TIP3    H181491   2.125   3.698  14.089  0.7166 -1.8485  1.2190
20000TIP3    H281492   2.036   3.795  14.164  2.6575  0.1936  0.9948
20001TIP3   OH281493   1.336   3.806  10.813  0.6885  0.0184 -0.3014
20001TIP3    H181494   1.417   3.815  10.863  0.8871 -0.8088 -0.4620
20001TIP3    H281495   1.332   3.713  10.790 -0.3572  0.0277 -0.2097
20002TIP3   OH281496   0.427   3.171   1.597  0.6143  0.5013 -0.4584
20002TIP3    H181497   0.448   3.238   1.662 -0.6864  0.6006 -0.1065
20002TIP3    H281498   0.460   3.090   1.635  0.3007  0.6328  0.1188
20003TIP3   OH281499   4.673   5.690   0.897  0.1419 -0.2788 -0.3587
20003TIP3    H181500   4.673   5.651   0.985  2.0338  0.5812  0.0843
20003TIP3    H281501   4.752   5.654   0.855  0.3434  0.8236 -0.9702
20004TIP3   OH281502   3.554   1.435   1.954 -0.1100  0.4272  0.4227
20004TIP3    H181503   3.614   1.499   1.915 -0.3960  0.2010 -0.3994
20004TIP3    H281504   3.472   1.483   1.965 -0.3295  0.2041 -0.2092
20005TIP3   OH281505   5.798   3.575   0.334 -0.7081  0.1332  0.1048
20005TIP3    H181506   5.721   3.520   0.322 -1.5240  1.1693  0.4942
20005TIP3    H281507   5.864   3.515   0.369 -1.1383 -0.8915 -0.8009
20006TIP3   OH281508   2.357   2.700  15.666  0.1222  0.5068 -0.1397
20006TIP3    H181509   2.317   2.783  15.642 -0.1699  0.3742 -0.1136
20006TIP3    H281510   2.345   2.694  15.761 -1.8878 -0.6160 -0.4290
20007TIP3   OH281511   3.837   5.322   2.709  0.4591  0.3285  0.2225
20007TIP3    H181512   3.854   5.335   2.802  0.6622  0.7114  0.1364
20007TIP3    H281513   3.840   5.411   2.672  1.5982  0.0700 -0.3469
20008TIP3   OH281514   1.840   0.387   2.217  0.8086 -0.4377  0.6968
20008TIP3    H181515   1.851   0.312   2.158  1.8123 -0.8520  1.3956
20008TIP3    H281516   1.760   0.430   2.185  1.3053 -0.6594 -0.9445
20009TIP3   OH281517   2.792   1.077   5.760 -0.0335 -0.4617  0.1924
20009TIP3    H181518   2.736   1.125   5.821 -2.1647 -0.3592 -1.7164
20009TIP3    H281519   2.739   1.002   5.734  0.8388 -0.5256 -1.4737
20010TIP3   OH281520   2.572   4.469   6.090 -0.0380  0.2450 -0.6227
20010TIP3    H181521   2.494   4.492   6.140  0.2757 -0.1412  0.0603
20010TIP3    H281522   2.640   4.529   6.121 -0.3347  1.3927 -2.0718
20011TIP3   OH281523   4.127   5.426   3.447 -0.2181  0.3522  0.5566
20011TIP3    H181524   4.191   5.431   3.376 -0.5510 -0.8848  0.1579
20011TIP3    H281525   4.087   5.340   3.439 -1.6004  0.9058  1.1037
20012TIP3   OH281526   1.394   0.193  12.336 -0.1258 -0.0186 -0.6418
20012TIP3    H181527   1.320   0.239  12.377  0.4805  0.0509  0.3937
20012TIP3    H281528   1.364   0.103  12.327  0.1748 -0.3174  1.1158
20013TIP3   OH281529   1.611   4.291  13.139  0.0241  0.1934  0.0950
20013TIP3    H181530   1.612   4.379  13.178  2.2398 -0.3610  1.4064
20013TIP3    H281531   1.558   4.302  13.060  0.3425  2.7458  0.1389
20014TIP3   OH281532   2.888   5.118   0.467  0.3505 -0.1043  0.2018
20014TIP3    H181533   2.819   5.140   0.529  0.0373  1.6411 -0.7137
20014TIP3    H281534   2.852   5.047   0.414 -0.1767 -0.1829  0.6580
20015TIP3   OH281535   4.330   2.820  14.032 -0.3680  0.6604  0.0727
20015TIP3    H181536   4.376   2.902  14.047  0.2133 -0.1035  3.0353
20015TIP3    H281537   4.276   2.807  14.110  0.5046 -2.3096  0.3238
20016TIP3   OH281538   1.397   4.497   6.009 -0.2036 -0.1785  0.0458
20016TIP3    H181539   1.324   4.546   6.046  0.1920  0.3432  0.1476
20016TIP3    H281540   1.365   4.407   6.002 -0.8919  0.0648 -0.0151
20017TIP3   OH281541   2.033   3.044   4.470  0.4621 -0.0305 -0.5853
20017TIP3    H181542   2.033   3.113   4.537  0.6661  0.2929 -0.9123
20017TIP3    H281543   2.032   2.962   4.520  1.4509  0.1946 -0.1669
20018TIP3   OH281544   5.097   6.730  15.639  0.4310  0.6648  0.2064
20018TIP3    H181545   5.186   6.742  15.607  0.3110 -1.4613 -1.1566
20018TIP3    H281546   5.106   6.672  15.714  0.1244 -1.0645 -1.0319
20019TIP3   OH281547   2.845   3.397   0.810  0.3310 -0.0567 -0.1862
20019TIP3    H181548   2.866   3.447   0.731  0.8237  0.4944  0.2856
20019TIP3    H281549   2.876   3.308   0.791 -1.9007 -0.6080 -1.6136
20020TIP3   OH281550   1.408   1.903  15.537 -0.6321 -0.3950  0.3137
20020TIP3    H181551   1.328   1.896  15.484 -1.2607 -3.6281  1.4737
20020TIP3    H281552   1.452   1.819  15.525  0.6874 -0.1192  2.6580
20021TIP3   OH281553   1.093   6.679   0.028 -0.4294 -0.3856  0.0254
20021TIP3    H181554   1.168   6.738   0.037 -1.0606  0.3332  0.7309
20021TIP3    H281555   1.065   6.662   0.118  0.3936 -2.6526 -0.0866
20022TIP3   OH281556   5.133   5.661  10.970 -0.4133 -0.4319 -0.1246
20022TIP3    H181557   5.117   5.754  10.956 -0.5748 -0.5197 -0.5520
20022TIP3    H281558   5.210   5.642  10.915  1.7144  0.1477  2.4557
20023TIP3   OH281559   2.432   4.058  11.508 -0.1904 -0.1399 -0.5299
20023TIP3    H181560   2.470   4.105  11.434 -0.3504  0.5536 -0.1838
20023TIP3    H281561   2.440   4.120  11.582  1.2017 -1.3053  0.3591
20024TIP3   OH281562   5.270   2.376   3.705  0.2433 -0.9240  0.7565
20024TIP3    H181563   5.315   2.411   3.781 -1.1487  2.9291  0.0428
20024TIP3    H281564   5.178   2.370   3.732 -0.2151  0.1796 -0.4228
20025TIP3   OH281565   5.944   6.044   1.558 -0.3249  0.7219 -0.3532
20025TIP3    H181566   5.874   6.109   1.566  0.2196  1.3552 -0.5922
20025TIP3    H281567   5.975   6.031   1.648  0.3577  1.7005 -0.4330
20026TIP3   OH281568   3.552   5.697   2.393  0.3281 -0.3633 -0.0127
20026TIP3    H181569   3.467   5.659   2.370 -0.1399  0.4009  0.4383
20026TIP3    H281570   3.606   5.683   2.315 -0.6844  0.5616 -0.9139
20027TIP3   OH281571   4.799   1.460   0.166 -0.4346  0.1884 -0.3465
20027TIP3    H181572   4.722   1.411   0.196 -0.8985  2.2067  2.1096
20027TIP3    H281573   4.863   1.449   0.236  1.1988 -0.5864 -1.8788
20028TIP3   OH281574   4.101   1.484   0.087  0.5038 -0.0912  0.0185
20028TIP3    H181575   4.099   1.578   0.104  0.2038 -0.0419 -0.2815
20028TIP3    H281576   4.129   1.446   0.170  1.9954  0.3469 -0.2445
20029TIP3   OH281577   6.234   5.107  16.571  0.8880  0.2158 -0.3217
20029TIP3    H181578   6.204   5.079  16.657 -0.3375  0.9634 -0.4833
20029TIP3    H281579   6.298   5.176  16.589  0.5729  0.4292 -0.0129
20030TIP3   OH281580   2.325   0.659   6.432 -0.1963 -0.7444  1.2527
20030TIP3    H181581   2.242   0.695   6.402  1.3156  1.5793 -0.4617
20030TIP3    H281582   2.391   0.722   6.403  2.3787 -3.4076  0.8427
20031TIP3   OH281583   2.593   2.750  13.083 -0.3710  0.0800 -0.0555
20031TIP3    H181584   2.535   2.768  13.009  1.4112  2.5856 -1.0006
20031TIP3    H281585   2.599   2.834  13.129  1.9381 -0.2482  0.3759
20032TIP3   OH281586   4.479   2.112   3.772  0.0860  0.1819  0.4116
20032TIP3    H181587   4.475   2.101   3.677 -0.8622 -0.1869  0.4829
20032TIP3    H281588   4.411   2.177   3.791  1.4286  1.5628  0.6736
20033TIP3   OH281589   3.661   5.460   3.800  0.0593 -0.8005 -0.2897
20033TIP3    H181590   3.698   5.495   3.719  1.7126 -0.7376  0.4506
20033TIP3    H281591   3.718   5.387   3.823 -1.6496 -2.1951 -0.2795
20034TIP3   OH281592   0.550   0.562   5.605  0.1935 -0.5254 -0.2716
20034TIP3    H181593   0.462   0.577   5.570  0.4324 -0.1586 -0.7276
20034TIP3    H281594   0.569   0.471   5.583  0.4896 -0.1920 -1.4581
20035TIP3   OH281595   2.051   2.938   3.659 -0.5377 -0.3235  0.3693
20035TIP3    H181596   1.993   2.929   3.735 -0.0498  1.0092  0.9296
20035TIP3    H281597   2.127   2.884   3.680 -1.8275 -2.7375 -0.7154
20036TIP3   OH281598   2.869   0.990   1.831  0.1354 -0.6965 -0.0497
20036TIP3    H181599   2.790   0.954   1.871  0.6528 -1.1455  0.5875
20036TIP3    H281600   2.886   1.071   1.881 -0.1343 -0.3917 -0.4436
20037TIP3   OH281601   1.503   1.020  15.276 -0.2536  0.1083 -0.2153
20037TIP3    H181602   1.496   0.937  15.323  0.4487  0.0553 -0.2046
20037TIP3    H281603   1.488   1.087  15.343 -1.2482 -0.0132 -0.3059
20038TIP3   OH281604   6.557   4.787  13.402  0.2556  0.3944  0.2006
20038TIP3    H181605   6.591   4.702  13.375 -0.4717  0.0079  0.4585
20038TIP3    H281606   6.591   4.800  13.490 -2.3943 -1.2804  1.6040
20039TIP3   OH281607   0.397   1.013  16.189  0.4408  0.4876 -0.0703
20039TIP3    H181608   0.305   1.010  16.162 -0.0834  2.0428  1.3061
20039TIP3    H281609   0.440   0.946  16.137 -0.8715  1.7140 -2.9990
20040TIP3   OH281610   4.890   1.866   1.109 -0.3515  0.1594 -0.0313
20040TIP3    H181611   4.934   1.917   1.040 -0.9270 -1.2986 -1.5566
20040TIP3    H281612   4.799   1.861   1.080 -0.9509  0.7888  1.6586
20041TIP3   OH281613   3.283   6.633   5.581 -0.2922 -0.0987 -0.4155
20041TIP3    H181614   3.238   6.551   5.557 -0.8052  0.4239 -1.3127
20041TIP3    H281615   3.218   6.701   5.565  0.0477  0.4770  0.5632
20042TIP3   OH281616   6.455   2.566   0.255  0.7193 -0.4723 -0.1970
20042TIP3    H181617   6.423   2.496   0.198  0.4667  0.0639 -0.7250
20042TIP3    H281618   6.547   2.543   0.272  1.0718 -0.1601 -1.5869
20043TIP3   OH281619   4.326   3.582   4.725  0.9133  0.1688  0.5341
20043TIP3    H181620   4.409   3.620   4.695  1.2551  1.2813  2.6691
20043TIP3    H281621   4.282   3.655   4.770 -1.4089 -0.3002 -0.8043
20044TIP3   OH281622   0.568   0.179  11.506  1.0614  0.1546  0.2600
20044TIP3    H181623   0.485   0.169  11.460  0.2454  0.7978  1.5555
20044TIP3    H281624   0.610   0.254  11.465  0.8020  0.1000 -0.1039
20045TIP3   OH281625   0.893   0.254   1.576  0.3308  1.2127  0.1216
20045TIP3    H181626   0.919   0.243   1.667  1.2098  0.9640 -0.1527
20045TIP3    H281627   0.802   0.283   1.581  0.9200  2.9986  1.1283
20046TIP3   OH281628   2.352   1.522   4.722  0.2162  0.1458 -0.6847
20046TIP3    H181629   2.313   1.526   4.809  2.1124 -1.7565  0.3223
20046TIP3    H281630   2.418   1.591   4.721  1.3560 -0.8965  0.0469
20047TIP3   OH281631   4.444   4.417  13.435  0.0564 -0.6086  0.0357
20047TIP3    H181632   4.469   4.356  13.504  0.7459 -0.3608  0.0060
20047TIP3    H281633   4.385   4.479  13.477  0.7656 -0.2391  0.4957
20048TIP3   OH281634   4.027   1.008  16.864  1.1189 -0.7022  0.1584
20048TIP3    H181635   4.002   0.941  16.928  1.9796 -0.8411  0.3608
20048TIP3    H281636   4.118   0.987  16.842  0.2638 -1.9447 -2.7024
20049TIP3   OH281637   6.814   3.165  15.803  0.3696 -0.0061  0.1362
20049TIP3    H181638   6.908   3.168  15.821  0.3516 -0.1061  0.2495
20049TIP3    H281639   6.773   3.204  15.881  0.2678 -0.8468  0.5121
20050TIP3   OH281640   6.348   3.523  13.275  0.0971 -0.2279  0.1507
20050TIP3    H181641   6.419   3.535  13.212  0.9408  0.7860  1.2606
20050TIP3    H281642   6.392   3.512  13.359 -1.0702  0.5658  0.8829
20051TIP3   OH281643   0.723   3.504  17.000 -0.3280 -0.0169  0.2650
20051TIP3    H181644   0.748   3.455  17.078 -1.1714 -0.7345  0.0988
20051TIP3    H281645   0.794   3.567  16.988  0.6638 -1.0170  0.6463
20052TIP3   OH281646   2.547   3.310   5.297  0.2156 -0.0160  0.0051
20052TIP3    H181647   2.459   3.306   5.260  0.9045 -2.6472 -1.6376
20052TIP3    H281648   2.549   3.239   5.362  1.0401  0.1888  0.2208
20053TIP3   OH281649   4.587   5.935  16.847 -0.1183 -0.2937  0.7153
20053TIP3    H181650   4.566   5.994  16.774  1.0103  0.8902  1.2859
20053TIP3    H281651   4.671   5.896  16.822  0.4002  0.3107  1.4632
20054TIP3   OH281652   2.656   0.714   2.942 -0.4833  0.2017 -0.0917
20054TIP3    H181653   2.585   0.689   2.883 -0.8737 -1.6697  1.0722
20054TIP3    H281654   2.636   0.804   2.968 -1.6600  0.1850 -0.8723
20055TIP3   OH281655   5.850   0.587  13.391  0.1417  0.8942  0.3542
20055TIP3    H181656   5.832   0.493  13.398 -0.5083  1.0612  1.0569
20055TIP3    H281657   5.805   0.625  13.466 -1.5224  2.0460 -1.1436
20056TIP3   OH281658   5.063   0.117   3.723  0.1004 -0.0534  0.4703
20056TIP3    H181659   4.972   0.088   3.722 -0.5527  1.6714  2.6214
20056TIP3    H281660   5.108   0.051   3.777 -0.1973 -0.0798  0.6882
20057TIP3   OH281661   0.965   2.273  16.314  0.3841 -0.4415 -0.4924
20057TIP3    H181662   1.028   2.201  16.320 -0.7472 -1.3507  1.3732
20057TIP3    H281663   0.880   2.231  16.322 -0.3652  0.9809 -0.7202
20058TIP3   OH281664   2.806   1.812   5.599 -0.2715 -0.4194 -0.6346
20058TIP3    H181665   2.779   1.894   5.558  1.6039  1.7035  1.9536
20058TIP3    H281666   2.886   1.787   5.554 -0.9489 -0.9595 -1.5543
20059TIP3   OH281667   1.587   2.907  16.392 -0.7373  0.5232  0.1602
20059TIP3    H181668   1.585   2.812  16.400  2.6404  0.3260  0.1838
20059TIP3    H281669   1.501   2.936  16.423 -1.3763 -2.4163  1.4580
20060TIP3   OH281670   0.784   4.794  14.244  0.3965 -0.4064 -0.2092
20060TIP3    H181671   0.697   4.756  14.258  0.3024 -0.0151  0.3053
20060TIP3    H281672   0.839   4.753  14.311  0.4277 -0.0718 -0.0290
20061TIP3   OH281673   2.097   6.489   1.695 -0.4085 -0.2175  0.4093
20061TIP3    H181674   2.040   6.504   1.619 -1.3537  0.7694  1.2789
20061TIP3    H281675   2.149   6.569   1.702 -2.3893  1.0173  2.4806
20062TIP3   OH281676   4.203   4.783   1.478 -0.1995 -0.0364 -0.5195
20062TIP3    H181677   4.165   4.782   1.390  0.0559  0.0560 -0.6306
20062TIP3    H281678   4.262   4.858   1.479 -0.1281 -0.0930 -0.3001
20063TIP3   OH281679   2.080   3.324  15.202 -0.4457  0.0309 -0.2507
20063TIP3    H181680   2.041   3.267  15.268 -0.8436 -0.6767 -1.0786
20063TIP3    H281681   2.019   3.397  15.194 -0.1214  0.3924  0.5492
20064TIP3   OH281682   3.838   3.771   2.559 -0.3039  0.2182  0.1828
20064TIP3    H181683   3.858   3.739   2.471  0.6283  1.3579 -0.0497
20064TIP3    H281684   3.906   3.732   2.614 -0.2296  0.3702  0.2002
20065TIP3   OH281685   1.648   1.703   2.148 -0.2950  0.0099  0.1773
20065TIP3    H181686   1.577   1.670   2.092 -0.2765  1.0216 -0.4687
20065TIP3    H281687   1.728   1.686   2.098  0.0289 -1.7925  1.2189
20066TIP3   OH281688   6.511   2.340   5.130 -0.2605  0.1070  0.2260
20066TIP3    H181689   6.443   2.407   5.126  0.5576  1.1251  2.2156
20066TIP3    H281690   6.464   2.258   5.138 -1.2693  0.4732 -1.4523
20067TIP3   OH281691   1.365   4.656   3.396  0.0725  0.4841  0.1664
20067TIP3    H181692   1.291   4.713   3.376 -1.3998 -2.0515 -2.2738
20067TIP3    H281693   1.354   4.632   3.488 -2.2937  0.0096 -0.1945
20068TIP3   OH281694   6.255   1.285  11.762 -0.0662 -0.4189  0.2604
20068TIP3    H181695   6.160   1.292  11.760  0.0182  1.1749  0.5198
20068TIP3    H281696   6.277   1.279  11.855  0.1542  0.6180  0.2821
20069TIP3   OH281697   3.852   6.820  17.115 -0.1635  0.0491  0.3064
20069TIP3    H181698   3.779   6.769  17.079  0.6019 -0.9883  0.1646
20069TIP3    H281699   3.927   6.761  17.109  0.6150  0.9650  0.7900
20070TIP3   OH281700   0.006   2.866   0.867  0.0540  0.5048 -0.2901
20070TIP3    H181701   0.066   2.870   0.941  0.3562 -1.4481 -0.3842
20070TIP3    H281702   0.059   2.891   0.791  0.5062 -0.3020 -0.2433
20071TIP3   OH281703   2.748   6.665  15.992  0.5023  0.3671 -0.5741
20071TIP3    H181704   2.780   6.675  16.082  1.7791  3.4320 -1.2608
20071TIP3    H281705   2.790   6.735  15.943 -0.1098 -1.2334 -3.6417
20072TIP3   OH281706   2.838   4.081  15.095 -0.7486  0.4844  0.4274
20072TIP3    H181707   2.817   4.173  15.106  0.8273  1.1587 -1.6025
20072TIP3    H281708   2.851   4.070  15.001 -0.7401 -1.7942  0.6279
20073TIP3   OH281709   5.135   0.651  14.157 -0.2232  0.2213  0.0053
20073TIP3    H181710   5.069   0.709  14.119 -2.1540 -0.9127  1.4458
20073TIP3    H281711   5.102   0.632  14.245  1.0728 -1.9320  0.0878
20074TIP3   OH281712   5.680   5.472  11.808  0.6300  0.2222 -0.4339
20074TIP3    H181713   5.695   5.399  11.747 -3.3194  0.2753 -1.7610
20074TIP3    H281714   5.594   5.454  11.846  0.6573  2.9401  1.1831
20075TIP3   OH281715   2.773   0.430  15.410  0.1907 -0.3618  0.0653
20075TIP3    H181716   2.735   0.514  15.434  0.6641 -0.5095  1.3899
20075TIP3    H281717   2.698   0.374  15.388 -0.1923  0.0561  0.3200
20076TIP3   OH281718   5.852   2.532  16.050  0.9225 -0.0566  0.5218
20076TIP3    H181719   5.895   2.616  16.036  1.0945 -0.0776  0.9138
20076TIP3    H281720   5.923   2.470  16.062  0.8388  0.1931  2.9301
20077TIP3   OH281721   6.242   0.875  13.693 -0.3520  0.4304 -0.4764
20077TIP3    H181722   6.190   0.908  13.620  0.1748  0.3288 -0.9131
20077TIP3    H281723   6.328   0.917  13.682 -0.3909  0.7278  0.3236
20078TIP3   OH281724   3.123   3.097  16.347  0.2797 -0.0269  0.3636
20078TIP3    H181725   3.092   3.119  16.434 -0.4444  1.2441 -0.1879
20078TIP3    H281726   3.217   3.083  16.357  1.1343  4.5634  0.6261
20079TIP3   OH281727   2.637   1.799  13.238 -0.3724  0.3282  0.3542
20079TIP3    H181728   2.661   1.765  13.151  0.2805  1.0548  0.2322
20079TIP3    H281729   2.590   1.727  13.280 -0.8415  0.0213 -0.6605
20080TIP3   OH281730   0.645   4.765   0.522  0.4782 -0.7676 -0.3797
20080TIP3    H181731   0.730   4.724   0.535  3.0230  3.5077 -1.5758
20080TIP3    H281732   0.651   4.809   0.437 -2.9614 -0.2429 -0.5336
20081TIP3   OH281733   1.116   6.667   2.763  0.1595  0.0453 -0.0932
20081TIP3    H181734   1.165   6.640   2.841 -2.3078 -2.4493  0.7850
20081TIP3    H281735   1.138   6.601   2.697 -3.0602 -2.2183  0.8586
20082TIP3   OH281736   1.167   3.780  12.959  0.8554 -0.0028 -0.0864
20082TIP3    H181737   1.103   3.774  12.888  1.5845 -0.0023 -0.7465
20082TIP3    H281738   1.192   3.872  12.962  0.9926 -0.0434  0.0348
20083TIP3   OH281739   5.099   4.052  12.116  0.1037  0.2263  0.2309
20083TIP3    H181740   5.044   4.000  12.058  0.8093  0.1429 -0.3683
20083TIP3    H281741   5.037   4.094  12.175 -0.5896 -0.0495 -0.2828
20084TIP3   OH281742   1.935   3.077   0.127  0.5002 -0.1518  0.1343
20084TIP3    H181743   1.872   3.105   0.194  0.3658  0.0317 -0.0660
20084TIP3    H281744   1.909   2.988   0.105 -0.4592  0.3462 -0.8339
20085TIP3   OH281745   4.450   2.316  16.620  0.0864  0.0010 -0.1898
20085TIP3    H181746   4.404   2.350  16.543 -0.0633  2.4738  0.8966
20085TIP3    H281747   4.541   2.311  16.593 -0.0108  0.5100 -0.6303
20086TIP3   OH281748   3.842   6.369   3.380  0.4323  0.1418 -0.0439
20086TIP3    H181749   3.881   6.446   3.421  2.9710 -0.0204 -1.9266
20086TIP3    H281750   3.835   6.305   3.450 -2.2914  2.1208  1.7317
20087TIP3   OH281751   2.410   3.638  15.205 -0.1870  0.5258 -0.1706
20087TIP3    H181752   2.412   3.546  15.230  0.2575  0.4615 -0.4315
20087TIP3    H281753   2.498   3.670  15.223  0.5326  0.1895 -2.6643
20088TIP3   OH281754   3.577   1.408  15.583 -0.0144 -0.4525  0.2180
20088TIP3    H181755   3.552   1.485  15.634 -0.2348 -1.2623  1.3791
20088TIP3    H281756   3.659   1.378  15.623  0.7452 -0.1017 -1.0323
20089TIP3   OH281757   4.308   6.328   5.105 -0.2230 -0.2025 -0.5167
20089TIP3    H181758   4.224   6.333   5.149 -0.5387 -0.3745 -1.0867
20089TIP3    H281759   4.372   6.324   5.176 -0.6435  0.6408 -0.0792
20090TIP3   OH281760   2.478   3.632   4.713 -0.2499 -0.4268  0.0047
20090TIP3    H181761   2.535   3.572   4.760  1.0126  2.4655  2.4765
20090TIP3    H281762   2.527   3.654   4.634 -0.0841 -1.4430 -0.1936
20091TIP3   OH281763   3.179   1.203   2.782 -0.1694  0.0863  0.0513
20091TIP3    H181764   3.167   1.113   2.752  0.7201  0.1727 -0.6138
20091TIP3    H281765   3.271   1.206   2.809 -0.1669  0.8219 -0.0350
20092TIP3   OH281766   5.534   1.067   6.425 -0.0088  0.3981 -0.4855
20092TIP3    H181767   5.482   1.122   6.484 -0.4083  0.5786 -0.9994
20092TIP3    H281768   5.568   1.127   6.360 -1.2277 -0.0796 -1.6079
20093TIP3   OH281769   0.657   0.705   1.929  0.2242  0.6199 -0.4540
20093TIP3    H181770   0.687   0.652   2.002 -3.3345 -2.7535 -1.1182
20093TIP3    H281771   0.579   0.750   1.961  0.5368  1.8032 -1.2713
20094TIP3   OH281772   2.344   3.623   0.177  0.1670  0.6873  0.2648
20094TIP3    H181773   2.342   3.613   0.081 -1.4891 -1.3284  0.4308
20094TIP3    H281774   2.292   3.702   0.194 -0.6367  0.3354 -0.4649
20095TIP3   OH281775   4.256   5.906  16.602 -0.7325 -0.0725 -0.3861
20095TIP3    H181776   4.327   5.843  16.607 -0.5208  0.1580 -0.4913
20095TIP3    H281777   4.182   5.857  16.566 -0.9105 -0.5633  0.6016
20096TIP3   OH281778   1.444   3.397   6.191  0.1825 -0.2759 -0.3837
20096TIP3    H181779   1.478   3.350   6.267  0.7593  0.4280 -0.1970
20096TIP3    H281780   1.384   3.335   6.149 -0.4812 -0.5228  0.8955
20097TIP3   OH281781   0.520   4.008  15.592  0.4858  0.0409  0.2004
20097TIP3    H181782   0.429   3.980  15.588  0.3938  0.3700 -0.0086
20097TIP3    H281783   0.570   3.927  15.582  0.2485 -0.6343  3.4615
20098TIP3   OH281784   2.579   6.340   5.645  0.8647  0.2524 -0.2960
20098TIP3    H181785   2.485   6.349   5.630  1.1799  1.2548 -1.8632
20098TIP3    H281786   2.586   6.262   5.701 -0.9857  1.1121  1.2660
20099TIP3   OH281787   2.219   0.254   2.753  0.2494  0.5960 -0.5068
20099TIP3    H181788   2.182   0.215   2.674 -2.4125  0.2931  0.7758
20099TIP3    H281789   2.224   0.181   2.816  1.3691  1.0339 -0.0564
20100TIP3   OH281790   2.980   2.728   2.551 -0.2486  0.1085 -0.1158
20100TIP3    H181791   3.016   2.639   2.546 -0.3692  0.1075 -1.2319
20100TIP3    H281792   2.926   2.736   2.472 -1.0451  0.8307  0.4886
20101TIP3   OH281793   0.239   4.880   3.548 -0.4707  0.1984 -0.2246
20101TIP3    H181794   0.240   4.975   3.554  0.6220  0.5383 -3.8459
20101TIP3    H281795   0.150   4.855   3.573 -1.2480  2.3072 -0.7051
20102TIP3   OH281796   2.590   5.356  16.374 -0.9129 -0.1448  0.8904
20102TIP3    H181797   2.614   5.291  16.307  0.5230  0.9669  0.2631
20102TIP3    H281798   2.673   5.378  16.416 -1.3702  1.2129  1.1337
20103TIP3   OH281799   0.231   3.974  13.049  0.1291  0.2850 -0.2632
20103TIP3    H181800   0.324   3.979  13.071  0.3844 -0.4008 -1.1470
20103TIP3    H281801   0.229   3.975  12.953 -0.6098 -2.0575 -0.3357
20104TIP3   OH281802   6.066   2.932   1.180 -0.4975  0.2851  0.9966
20104TIP3    H181803   5.977   2.954   1.153 -0.5539  1.4632  2.0246
20104TIP3    H281804   6.078   2.841   1.154 -1.4447  0.5737 -0.5463
20105TIP3   OH281805   4.742   0.176  12.373 -0.4238  0.1408 -0.1624
20105TIP3    H181806   4.767   0.245  12.312 -1.5771  2.0436  1.4028
20105TIP3    H281807   4.822   0.157  12.423  0.5642 -1.5303 -2.2484
20106TIP3   OH281808   3.526   1.769   3.321  0.3569 -0.3054 -0.2196
20106TIP3    H181809   3.580   1.744   3.395 -0.6547 -0.2877  0.5486
20106TIP3    H281810   3.508   1.688   3.274  2.1012 -0.1441 -1.2456
20107TIP3   OH281811   6.250   1.484   4.086 -0.0320  0.4971  0.0098
20107TIP3    H181812   6.341   1.488   4.055 -0.2096 -1.0497 -0.8399
20107TIP3    H281813   6.257   1.449   4.174  0.1987  0.1138 -0.1557
20108TIP3   OH281814   4.648   2.744  11.378 -0.1922 -0.1985  0.4444
20108TIP3    H181815   4.712   2.782  11.318 -1.7946  0.1972 -1.1139
20108TIP3    H281816   4.656   2.649  11.364 -0.9139 -0.0982 -0.8789
20109TIP3   OH281817   1.797   3.033   4.337  0.4305  0.6313 -0.2107
20109TIP3    H181818   1.882   3.015   4.378  1.1638 -0.9345 -2.2423
20109TIP3    H281819   1.817   3.085   4.260 -0.1412 -1.3157 -1.7675
20110TIP3   OH281820   6.177   0.681  12.428 -0.0700  0.1028  0.5415
20110TIP3    H181821   6.230   0.606  12.452 -0.8266 -0.4104  0.6584
20110TIP3    H281822   6.175   0.736  12.506  3.4675  2.1234 -0.5913
20111TIP3   OH281823   0.315   4.491   1.204 -0.0692  0.6619 -0.4525
20111TIP3    H181824   0.252   4.543   1.255 -0.2994  0.8650 -0.9424
20111TIP3    H281825   0.274   4.481   1.118  0.1726  0.0352 -0.4977
20112TIP3   OH281826   5.500   0.952  15.690 -0.4606 -1.1329 -0.0270
20112TIP3    H181827   5.547   0.931  15.770 -1.8335 -2.2161  0.5385
20112TIP3    H281828   5.474   0.868  15.654  1.8555 -0.8264 -2.7724
20113TIP3   OH281829   4.405   2.203  12.314  0.4999  0.1450 -0.3835
20113TIP3    H181830   4.378   2.136  12.252  1.2590 -1.1790  0.6765
20113TIP3    H281831   4.492   2.231  12.283  0.4192  0.2562 -0.5127
20114TIP3   OH281832   3.355   0.402  12.428  0.2953  0.3511  0.2369
20114TIP3    H181833   3.438   0.425  12.469 -0.8109  3.4836  1.0081
20114TIP3    H281834   3.338   0.473  12.366 -1.5039 -0.5785 -0.4294
20115TIP3   OH281835   5.613   3.197  16.686  0.7307 -0.7199 -0.8300
20115TIP3    H181836   5.581   3.203  16.596 -0.9570 -1.5192 -0.3346
20115TIP3    H281837   5.579   3.276  16.729  1.6035 -0.2958 -0.8914
20116TIP3   OH281838   3.432   6.215   3.337 -0.2921 -0.1001 -0.1748
20116TIP3    H181839   3.405   6.294   3.289 -2.2180 -0.2913  0.4969
20116TIP3    H281840   3.525   6.205   3.316 -0.3622  1.4816 -1.4851
20117TIP3   OH281841   3.110   0.309   4.855  0.1431  0.2745 -0.5037
20117TIP3    H181842   3.164   0.276   4.927  1.6002 -2.6267 -2.7336
20117TIP3    H281843   3.156   0.282   4.776 -2.6647  1.0588 -2.5739
20118TIP3   OH281844   3.463   2.095   6.106 -0.1774 -0.0094 -0.3210
20118TIP3    H181845   3.404   2.053   6.045  0.1919 -0.4038 -0.4080
20118TIP3    H281846   3.530   2.029   6.125  0.3421  0.4925 -0.3735
20119TIP3   OH281847   2.853   3.835  14.619 -0.5251  0.2136 -0.1559
20119TIP3    H181848   2.877   3.849  14.711  1.2489  0.9762 -0.6984
20119TIP3    H281849   2.817   3.919  14.590 -1.2071 -0.0652 -0.1456
20120TIP3   OH281850   5.518   2.709   1.691  0.1675  0.3133  0.7802
20120TIP3    H181851   5.441   2.662   1.722  0.8939 -0.8875  0.8111
20120TIP3    H281852   5.485   2.769   1.625 -0.4815 -1.9899 -1.1106
20121TIP3   OH281853   5.427   2.059  11.532  0.0441 -0.0786  0.0381
20121TIP3    H181854   5.391   2.000  11.466  1.5228  1.5632 -2.3833
20121TIP3    H281855   5.385   2.143  11.513 -0.1897  0.2485  1.8379
20122TIP3   OH281856   2.228   6.046   2.355 -0.2709  0.2402 -0.2265
20122TIP3    H181857   2.149   6.007   2.391 -0.5694 -0.3485 -1.4515
20122TIP3    H281858   2.295   5.978   2.363 -0.0708  0.4746  0.1374
20123TIP3   OH281859   0.001   2.239   2.630 -0.9846 -0.1967 -0.5969
20123TIP3    H181860  -0.056   2.294   2.685  0.6932 -0.1620  1.2171
20123TIP3    H281861  -0.007   2.151   2.668  0.8269 -0.0154  0.3053
20124TIP3   OH281862   2.699   4.203   4.835  0.8503  0.0612 -0.0794
20124TIP3    H181863   2.617   4.248   4.814  2.2447  2.9179  0.1277
20124TIP3    H281864   2.700   4.126   4.778 -1.5898  0.3436 -0.6157
20125TIP3   OH281865   0.835   1.679   2.890 -0.3158  0.3582  0.2528
20125TIP3    H181866   0.929   1.688   2.907 -0.4880  0.2005  1.3845
20125TIP3    H281867   0.811   1.594   2.928 -0.8857  0.3251 -0.1613
20126TIP3   OH281868   1.770   3.870  15.294  0.3103  0.3309  0.2934
20126TIP3    H181869   1.849   3.854  15.242 -0.6956  0.5468 -1.3959
20126TIP3    H281870   1.785   3.956  15.334  0.9931  0.2994  0.1247
20127TIP3   OH281871   5.482   4.627   6.080  0.3637  0.5259 -0.0746
20127TIP3    H181872   5.424   4.574   6.135 -0.2752  1.6056  0.3242
20127TIP3    H281873   5.424   4.687   6.034  1.0595  0.8073 -0.6068
20128TIP3   OH281874   3.254   2.648  12.177 -0.4479  0.4960  0.1418
20128TIP3    H181875   3.214   2.709  12.239 -1.8620  0.5896 -0.7968
20128TIP3    H281876   3.179   2.610  12.130  0.5716  0.7172 -1.7576
20129TIP3   OH281877   3.975   4.152   0.508 -0.8138 -0.2963  0.7991
20129TIP3    H181878   3.943   4.134   0.596  0.3963 -0.8016  1.1529
20129TIP3    H281879   4.029   4.076   0.486  0.1902  0.5436  0.2654
20130TIP3   OH281880   3.987   3.454   5.523 -0.1193 -0.5226 -0.3449
20130TIP3    H181881   4.019   3.436   5.612 -0.4328  0.2408 -0.0711
20130TIP3    H281882   4.020   3.541   5.503 -0.9940 -0.2315 -0.5367
20131TIP3   OH281883   3.843   0.024   0.932  0.6902 -0.2408 -0.3353
20131TIP3    H181884   3.756   0.054   0.959  0.0796 -0.2350 -2.1631
20131TIP3    H281885   3.833  -0.070   0.919  1.6871 -0.7438  1.9382
20132TIP3   OH281886   2.772   4.984   3.007  0.0531 -0.0317 -0.6987
20132TIP3    H181887   2.817   4.900   3.000  2.0171  0.7908  1.0605
20132TIP3    H281888   2.830   5.046   2.964  0.5565  1.0002  1.3273
20133TIP3   OH281889   0.843   0.197  12.567 -0.2138 -0.0327 -0.1382
20133TIP3    H181890   0.748   0.200  12.580 -0.4234 -0.3681 -1.4612
20133TIP3    H281891   0.879   0.192  12.656 -1.4245  0.1937  0.3835
20134TIP3   OH281892   2.526   6.710   3.095 -0.4158  0.1565 -0.0609
20134TIP3    H181893   2.481   6.625   3.091 -2.9471  1.2145  2.6411
20134TIP3    H281894   2.566   6.711   3.182 -0.6740  1.8270  0.0559
20135TIP3   OH281895   5.213   2.021  13.587  0.2180 -0.3950 -0.4874
20135TIP3    H181896   5.209   2.116  13.582  1.8060 -0.2113  0.6247
20135TIP3    H281897   5.161   1.990  13.513 -1.4471  1.2933 -0.1081
20136TIP3   OH281898   3.868   0.149  13.745 -0.2111  1.0587 -0.0223
20136TIP3    H181899   3.904   0.064  13.770 -1.0165  1.0136  1.0380
20136TIP3    H281900   3.908   0.211  13.805 -0.5313  1.2609 -0.0164
20137TIP3   OH281901   0.579   4.545   0.914 -0.1879 -0.1710  0.2054
20137TIP3    H181902   0.571   4.617   0.976  1.1782  1.0941 -1.0061
20137TIP3    H281903   0.511   4.562   0.849  0.4804  0.3444 -0.3678
20138TIP3   OH281904   5.645   3.184  12.308 -0.1408  0.3011  0.4236
20138TIP3    H181905   5.636   3.102  12.259 -0.3171 -0.8060  2.2375
20138TIP3    H281906   5.739   3.201  12.308 -0.1755  0.5774 -0.6796
20139TIP3   OH281907   0.645   5.887  15.794 -0.5019  0.1158 -0.2459
20139TIP3    H181908   0.554   5.872  15.819 -0.8769  0.7166 -1.2136
20139TIP3    H281909   0.641   5.929  15.709  0.6338  1.6011  0.3768
20140TIP3   OH281910   3.924   5.559   2.585 -0.0821  0.3602  0.0792
20140TIP3    H181911   4.018   5.570   2.575 -0.1393  0.7626 -0.0161
20140TIP3    H281912   3.889   5.648   2.589 -0.4509  0.2129  0.1787
20141TIP3   OH281913   6.139   1.078   5.831  0.5912 -0.1058 -0.3584
20141TIP3    H181914   6.199   1.023   5.881  1.4930  1.7371  0.6915
20141TIP3    H281915   6.098   1.134   5.896 -2.6056 -1.4987 -1.0106
20142TIP3   OH281916   1.678   6.502   0.512  0.5772 -0.6799 -0.3906
20142TIP3    H181917   1.761   6.466   0.543 -0.6058 -2.8834  0.4569
20142TIP3    H281918   1.679   6.593   0.541  2.8120 -0.5471 -0.7106
20143TIP3   OH281919   3.121   4.140   4.493 -0.5004  0.0592  0.1249
20143TIP3    H181920   3.045   4.081   4.489 -0.6970  0.3251 -0.1633
20143TIP3    H281921   3.114   4.193   4.413 -0.2177  0.3381  0.2825
20144TIP3   OH281922   3.018   6.125  14.029  0.0063  0.3679  0.4074
20144TIP3    H181923   2.942   6.164  14.071  0.1597  0.1468  0.8957
20144TIP3    H281924   3.025   6.171  13.945  1.3856  2.8306  1.7577
20145TIP3   OH281925   1.159   0.939  14.551  0.1751  0.3119  0.1270
20145TIP3    H181926   1.184   0.944  14.643  1.1252  0.2071 -0.1145
20145TIP3    H281927   1.224   0.881  14.512 -0.8669 -0.5310 -0.4012
20146TIP3   OH281928   0.807   4.645   1.092 -0.3521  0.6725 -0.3193
20146TIP3    H181929   0.714   4.623   1.096 -0.4450  0.9015 -1.2250
20146TIP3    H281930   0.829   4.645   0.999  0.9007 -0.8429 -0.0748
20147TIP3   OH281931   4.719   4.707  13.415  0.2393  0.2042  0.4735
20147TIP3    H181932   4.666   4.661  13.350  1.2914 -0.8062  0.2839
20147TIP3    H281933   4.807   4.709  13.376  0.2756  2.2384  0.5699
20148TIP3   OH281934   3.923   5.519  12.562  0.1875  0.5464  0.3506
20148TIP3    H181935   3.960   5.572  12.633 -1.8850 -0.5186  2.3821
20148TIP3    H281936   3.834   5.500  12.592  0.5566 -3.4039 -0.5983
20149TIP3   OH281937   3.047   3.998  12.425  0.0359 -0.1283  0.8785
20149TIP3    H181938   3.004   4.080  12.401 -1.4396 -1.2991 -0.7785
20149TIP3    H281939   2.976   3.934  12.431  1.2584 -1.5631  0.7870
20150TIP3   OH281940   4.927   1.377   3.509 -0.5474  0.0490 -0.7869
20150TIP3    H181941   4.861   1.446   3.506  0.1458  0.7129 -1.3794
20150TIP3    H281942   5.009   1.424   3.525 -0.0631 -0.6392 -1.2025
20151TIP3   OH281943   3.630   3.069   4.016  0.2656 -0.1496  0.7603
20151TIP3    H181944   3.550   3.017   4.020 -0.2642  0.4341 -1.2021
20151TIP3    H281945   3.700   3.006   3.999 -0.3898 -0.3016 -1.7191
20152TIP3   OH281946   6.266   6.416   4.257  0.5791  0.2176  0.2359
20152TIP3    H181947   6.224   6.415   4.171 -0.1301  0.9306  0.5547
20152TIP3    H281948   6.221   6.486   4.304 -0.2778 -1.3020  1.7989
20153TIP3   OH281949   1.381   1.972   1.790  0.1307  0.7920  0.0404
20153TIP3    H181950   1.378   2.018   1.706  0.9482 -0.3954 -0.6578
20153TIP3    H281951   1.295   1.930   1.797  0.7213 -0.6804 -1.1369
20154TIP3   OH281952   3.599   0.290   4.427  0.3540 -0.2607  0.2957
20154TIP3    H181953   3.530   0.356   4.416  1.0887  0.2718 -1.5011
20154TIP3    H281954   3.617   0.289   4.521 -1.6696  0.0155  0.7215
20155TIP3   OH281955   2.969   3.472   5.428  0.0650 -0.4349  0.5215
20155TIP3    H181956   2.923   3.553   5.406  3.5189  1.5435 -0.1015
20155TIP3    H281957   3.009   3.490   5.513  3.3325 -0.2005 -0.9480
20156TIP3   OH281958   6.404   3.083  13.605 -0.3099  0.6437  0.0995
20156TIP3    H181959   6.496   3.083  13.631 -0.5149  0.7572  0.8696
20156TIP3    H281960   6.376   2.992  13.617 -0.2040  0.5356 -0.4805
20157TIP3   OH281961   6.532   0.966   0.846 -0.4092  1.0869 -0.3113
20157TIP3    H181962   6.489   0.918   0.775 -0.7694 -0.8835  1.1281
20157TIP3    H281963   6.623   0.935   0.844 -0.6035  0.4195  0.5222
20158TIP3   OH281964   5.169   4.490  11.860 -0.0589  0.5690 -0.3155
20158TIP3    H181965   5.113   4.556  11.901 -1.2736 -1.9530  2.4729
20158TIP3    H281966   5.108   4.424  11.825  0.9305 -2.2460  2.7629
20159TIP3   OH281967   3.354   0.652  13.366  0.1360  0.1937  0.1770
20159TIP3    H181968   3.402   0.609  13.296 -0.4701  1.5563 -1.1360
20159TIP3    H281969   3.262   0.628  13.350 -0.0731  0.9940  0.1193
20160TIP3   OH281970   2.636   1.601   5.588  0.1958 -0.0552 -0.1988
20160TIP3    H181971   2.671   1.689   5.597 -0.9088  0.2898  0.9981
20160TIP3    H281972   2.699   1.545   5.633 -0.6958  0.5486  1.9125
20161TIP3   OH281973   0.269   0.906   3.841  0.1273  0.3386  0.4601
20161TIP3    H181974   0.317   0.981   3.806  0.3647  0.4850  1.0852
20161TIP3    H281975   0.311   0.829   3.802  1.4790  0.4092  1.6618
20162TIP3   OH281976   0.271   5.720   1.584 -0.4850 -0.0178  0.0431
20162TIP3    H181977   0.324   5.721   1.505 -0.4204 -1.4326  0.0440
20162TIP3    H281978   0.191   5.767   1.560 -0.0405  0.4576 -0.5404
20163TIP3   OH281979   2.739   5.951   3.256  0.2939 -0.3820  0.3991
20163TIP3    H181980   2.756   6.018   3.321  0.1122  0.2594 -0.2042
20163TIP3    H281981   2.794   5.877   3.283 -0.1541 -0.3187  1.5543
20164TIP3   OH281982   3.598   2.368  15.737 -0.2334  0.5304 -0.0697
20164TIP3    H181983   3.624   2.351  15.647 -1.2368  0.4054 -0.3420
20164TIP3    H281984   3.502   2.371  15.735 -0.2543  1.0969  0.8841
20165TIP3   OH281985   3.509   0.770   1.528 -0.2159 -0.6210  0.1311
20165TIP3    H181986   3.568   0.735   1.461 -0.2048 -0.8188  0.2447
20165TIP3    H281987   3.458   0.837   1.482 -1.2905 -1.8215 -0.4602
20166TIP3   OH281988   1.447   6.073  12.261 -0.1540 -0.1874 -0.2923
20166TIP3    H181989   1.364   6.071  12.308 -0.2947 -0.3601 -0.5441
20166TIP3    H281990   1.436   6.008  12.191 -0.1864  0.5171 -0.9518
20167TIP3   OH281991   1.923   2.867  16.338 -0.4408  0.0712  0.1552
20167TIP3    H181992   1.892   2.914  16.415  0.1564 -1.0424  1.1056
20167TIP3    H281993   1.936   2.777  16.368  0.0149 -0.3379 -1.1865
20168TIP3   OH281994   3.537   4.759  16.262 -0.3717  0.2577 -0.3973
20168TIP3    H181995   3.566   4.850  16.259  0.5569  0.1889  2.8744
20168TIP3    H281996   3.618   4.708  16.256 -0.9092 -0.4427 -2.5427
20169TIP3   OH281997   5.428   2.457  15.510 -0.6314 -0.1192  0.2881
20169TIP3    H181998   5.511   2.422  15.544  0.0905  0.0527 -1.2042
20169TIP3    H281999   5.364   2.388  15.524  0.2890 -1.1824 -0.5919
20170TIP3   OH282000   4.632   0.419   0.118  0.6130  0.1876  0.3794
20170TIP3    H182001   4.708   0.399   0.063  0.1570 -1.4971  0.3113
20170TIP3    H282002   4.556   0.398   0.063  0.1376 -0.0067  1.0943
20171TIP3   OH282003   3.191   4.505   3.098  0.5475 -1.0738  0.2121
20171TIP3    H182004   3.224   4.556   3.172  1.2825 -0.1306 -0.7209
20171TIP3    H282005   3.098   4.492   3.117  0.9887 -1.9634  1.8930
20172TIP3   OH282006   3.877   3.329  11.732 -0.0520  0.0298  0.0758
20172TIP3    H182007   3.972   3.321  11.737 -0.2129 -2.0440  1.2403
20172TIP3    H282008   3.860   3.422  11.747  1.8087  0.6503 -1.2836
20173TIP3   OH282009   2.970   6.718  14.905 -0.4327 -0.1410 -0.7263
20173TIP3    H182010   2.938   6.650  14.965  3.1504 -1.3686  0.0452
20173TIP3    H282011   2.958   6.800  14.953 -1.7024 -0.5944 -0.2399
20174TIP3   OH282012   2.887   0.187   4.487  0.1928 -0.3361  0.7379
20174TIP3    H182013   2.908   0.278   4.467 -0.6393  0.2010  2.1427
20174TIP3    H282014   2.792   0.186   4.497 -0.0054 -1.7374 -0.9486
20175TIP3   OH282015   2.811   6.441   0.238 -0.2595  0.5075  0.0500
20175TIP3    H182016   2.807   6.377   0.167 -0.9388  0.9561 -0.3327
20175TIP3    H282017   2.868   6.510   0.205  1.3168 -0.3525  0.8650
20176TIP3   OH282018   4.197   2.957   3.927  0.1457  0.6646 -0.1727
20176TIP3    H182019   4.213   3.050   3.945 -1.3544  1.1911 -1.3408
20176TIP3    H282020   4.140   2.957   3.850  1.0773 -1.2659 -0.9312
20177TIP3   OH282021   6.347   3.061   0.327 -0.0463 -0.7552  0.4175
20177TIP3    H182022   6.338   3.008   0.248 -2.6215 -0.8661  0.6755
20177TIP3    H282023   6.440   3.080   0.334  0.0976  1.1294 -3.8507
20178TIP3   OH282024   2.711   3.774   2.116  0.6404 -0.3580 -0.1592
20178TIP3    H182025   2.644   3.724   2.162  0.9997 -0.1242  0.6291
20178TIP3    H282026   2.667   3.805   2.036 -0.2917  0.0461  0.4931
20179TIP3   OH282027   3.712   1.981  12.557 -0.4769 -0.2546 -0.1131
20179TIP3    H182028   3.743   1.908  12.503 -0.7593  0.5141 -1.3526
20179TIP3    H282029   3.791   2.032  12.575 -0.7884  1.2271 -2.5383
20180TIP3   OH282030   3.728   3.700  13.253 -0.6276 -0.3036  0.0441
20180TIP3    H182031   3.822   3.703  13.273 -0.3555 -0.8683 -1.0786
20180TIP3    H282032   3.697   3.788  13.274  0.5500  0.4821 -1.2878
20181TIP3   OH282033   4.940   4.752   0.949 -0.3742  0.2581 -0.5422
20181TIP3    H182034   4.879   4.819   0.976 -0.5458 -0.3016  0.4859
20181TIP3    H282035   5.026   4.793   0.957 -0.5765  1.0681 -2.0596
20182TIP3   OH282036   5.679   6.598  11.287  0.2567  0.2478  0.2015
20182TIP3    H182037   5.715   6.682  11.256  0.8389  0.8458  2.3127
20182TIP3    H282038   5.705   6.535  11.220 -1.0563  1.8691 -1.9666
20183TIP3   OH282039   5.554   1.235   0.445  0.2355  0.2813 -0.5874
20183TIP3    H182040   5.508   1.254   0.528  0.7902 -0.2182 -0.1567
20183TIP3    H282041   5.505   1.285   0.379  0.9065  2.2436  0.3031
20184TIP3   OH282042   5.952   0.466   4.731  0.4367  0.6176 -0.0286
20184TIP3    H182043   5.920   0.477   4.821 -1.6648 -1.9666 -0.3260
20184TIP3    H282044   5.892   0.517   4.678 -2.9247 -3.2488 -0.4587
20185TIP3   OH282045   3.147   5.785   5.053  0.2220 -0.3322  0.2248
20185TIP3    H182046   3.157   5.727   5.128 -2.6908 -0.1595  0.8637
20185TIP3    H282047   3.117   5.728   4.982  0.1878 -0.0448  0.0050
20186TIP3   OH282048   5.589   5.723   1.876 -0.4939  0.2706  0.8413
20186TIP3    H182049   5.651   5.673   1.929 -0.0097  1.1132  1.0921
20186TIP3    H282050   5.625   5.812   1.876 -0.4750  0.2879 -0.9161
20187TIP3   OH282051   4.077   4.370  15.152 -0.0320  0.0589 -0.1954
20187TIP3    H182052   4.103   4.335  15.067 -3.2181 -2.1726 -0.4265
20187TIP3    H282053   4.115   4.310  15.216 -0.5099 -0.3340 -0.2718
20188TIP3   OH282054   6.389   0.939   0.208  0.5414  0.2623  0.1230
20188TIP3    H182055   6.320   0.942   0.142  0.8497  0.0000 -0.2164
20188TIP3    H282056   6.459   0.886   0.168  0.3224 -0.7729  1.0519
20189TIP3   OH282057   0.204   1.707   2.336  0.8381  0.2505  0.4154
20189TIP3    H182058   0.196   1.713   2.432 -1.8838 -1.5124  0.3932
20189TIP3    H282059   0.293   1.675   2.322  0.2731 -2.7439  2.6503
20190TIP3   OH282060   2.116   3.069   6.468  0.1652  0.6743  0.1768
20190TIP3    H182061   2.085   3.139   6.410 -0.5895 -0.5811 -0.9869
20190TIP3    H282062   2.055   3.070   6.542 -0.5306  0.5170 -0.3871
20191TIP3   OH282063   4.564   3.408   0.633  0.4091 -0.1930  0.3782
20191TIP3    H182064   4.548   3.480   0.694 -0.0148 -1.3128  1.6249
20191TIP3    H282065   4.491   3.413   0.571 -0.3778 -0.3521  1.2683
20192TIP3   OH282066   2.266   4.185  11.956  0.6815 -0.2852  0.2037
20192TIP3    H182067   2.198   4.125  11.927  0.8461  0.3100 -1.5212
20192TIP3    H282068   2.219   4.257  11.998  0.3926 -0.8770  0.9085
20193TIP3   OH282069   2.046   0.759   3.370 -0.0909 -0.5374  0.1419
20193TIP3    H182070   2.106   0.691   3.341 -1.0318 -0.7719 -1.3437
20193TIP3    H282071   2.103   0.835   3.387  0.8245 -1.3271  0.7089
20194TIP3   OH282072   0.033   0.521   1.574 -0.6189  0.3082 -0.2881
20194TIP3    H182073   0.035   0.427   1.556 -0.5692  0.2539 -0.0027
20194TIP3    H282074   0.061   0.562   1.492  1.5664  0.0009  0.2338
20195TIP3   OH282075   4.474   1.415  13.012 -0.3962 -0.3258  0.3351
20195TIP3    H182076   4.468   1.319  13.002 -0.0734 -0.3501  0.3347
20195TIP3    H282077   4.395   1.448  12.969  0.7356 -0.4600 -2.0619
20196TIP3   OH282078   5.677   4.367   5.574  0.2417  0.3194  0.0981
20196TIP3    H182079   5.682   4.373   5.669  0.5127 -2.7130  0.3926
20196TIP3    H282080   5.756   4.410   5.542 -0.0279  1.6746  1.1951
20197TIP3   OH282081   1.206   3.224  11.170  0.1962  0.4543  0.3229
20197TIP3    H182082   1.130   3.213  11.227  0.5049  1.7108  1.0313
20197TIP3    H282083   1.170   3.230  11.082 -0.3759 -0.5580  0.4850
20198TIP3   OH282084   0.650   6.011   2.620 -0.1193 -0.2918 -0.2902
20198TIP3    H182085   0.587   6.011   2.691  0.1098  2.6925  0.0175
20198TIP3    H282086   0.605   6.052   2.546  1.4568  2.3181  0.0637
20199TIP3   OH282087   4.112   1.752  13.365  0.4494 -0.3378  0.8236
20199TIP3    H182088   4.096   1.773  13.273 -0.5667  0.9159  1.2585
20199TIP3    H282089   4.094   1.659  13.373 -0.2828 -0.2804 -0.0760
20200TIP3   OH282090   6.030   6.312  16.191  0.9468 -0.1799 -0.3784
20200TIP3    H182091   6.093   6.281  16.125  1.4901  0.8021 -0.3410
20200TIP3    H282092   5.946   6.309  16.146  1.1962 -0.3133 -0.8535
20201TIP3   OH282093   2.781   0.463  11.390  0.0941  0.2004 -0.3279
20201TIP3    H182094   2.865   0.420  11.373 -0.4618 -0.6711 -0.9751
20201TIP3    H282095   2.789   0.496  11.479  0.1822 -2.2020  0.6374
20202TIP3   OH282096   5.231   6.120   1.359  0.3488  0.3372 -0.7645
20202TIP3    H182097   5.148   6.146   1.400  0.2527 -0.5670 -0.3685
20202TIP3    H282098   5.236   6.026   1.373  2.9321  0.7357  1.9691
20203TIP3   OH282099   3.481   4.287   5.284 -0.6293  0.1374 -0.4330
20203TIP3    H182100   3.386   4.299   5.279 -0.8569 -1.7769 -1.6000
20203TIP3    H282101   3.500   4.288   5.378 -1.4162  2.8807 -0.2373
20204TIP3   OH282102   2.831   1.950   3.282  0.2242  0.1434 -0.4440
20204TIP3    H182103   2.819   1.870   3.333  0.7510  0.3989  0.0945
20204TIP3    H282104   2.914   1.986   3.313  0.0616  0.8235 -0.7760
20205TIP3   OH282105   0.483   0.220  11.140  0.3047  0.2282 -0.7878
20205TIP3    H182106   0.558   0.188  11.188 -0.0709  0.9972  0.3588
20205TIP3    H282107   0.436   0.141  11.112  1.3620 -0.2485 -1.2733
20206TIP3   OH282108   6.198   6.351   3.253  0.2423  0.2922 -0.6316
20206TIP3    H182109   6.224   6.273   3.300 -1.2167  0.5899  0.7338
20206TIP3    H282110   6.226   6.424   3.309 -0.8807  0.6711 -0.5477
20207TIP3   OH282111   5.820   0.216   1.591  0.1384 -0.5250  0.3217
20207TIP3    H182112   5.797   0.254   1.675 -1.0236 -0.6081  0.0532
20207TIP3    H282113   5.737   0.188   1.553  0.4846  0.6907 -1.4325
20208TIP3   OH282114   5.376   2.657   3.190  0.5331  0.1800  0.1599
20208TIP3    H182115   5.419   2.576   3.216 -0.4510 -0.3692  0.1190
20208TIP3    H282116   5.404   2.722   3.255  0.8866 -0.3293  0.5152
20209TIP3   OH282117   1.950   3.015  16.563 -0.0598  0.0331 -0.2401
20209TIP3    H182118   2.030   3.048  16.605  0.2725 -3.0191  1.8145
20209TIP3    H282119   1.900   2.977  16.635 -0.2850 -3.9739 -2.2805
20210TIP3   OH282120   5.907   3.839  11.274  0.8031  0.1258 -0.2365
20210TIP3    H182121   5.912   3.927  11.310 -2.2121  0.2599  0.1414
20210TIP3    H282122   5.998   3.810  11.266  1.8948  3.3372 -0.6501
20211TIP3   OH282123   5.164   2.528   6.369  0.4798  0.8784 -0.0265
20211TIP3    H182124   5.218   2.453   6.395  1.2090  1.4997  0.3090
20211TIP3    H282125   5.161   2.583   6.447  0.5582  1.5347 -0.4802
20212TIP3   OH282126   5.118   0.605  15.479 -0.2956 -0.1380 -0.4304
20212TIP3    H182127   5.173   0.526  15.485  0.7077  0.6142  1.0283
20212TIP3    H282128   5.064   0.602  15.558 -0.6345  0.3555 -0.6426
20213TIP3   OH282129   1.891   0.188   3.145 -0.0008  0.0514 -0.5047
20213TIP3    H182130   1.807   0.148   3.168 -1.1744  1.0417 -2.7853
20213TIP3    H282131   1.882   0.212   3.053  2.0927  1.9703 -0.2886
20214TIP3   OH282132   0.696   6.479   3.931  0.5190 -0.0719  0.1698
20214TIP3    H182133   0.605   6.450   3.934 -0.1934  1.8185 -1.3068
20214TIP3    H282134   0.732   6.439   3.852  0.1976  1.1431 -0.6205
20215TIP3   OH282135   5.035   6.207  12.878 -0.4725 -0.2403 -0.1311
20215TIP3    H182136   5.110   6.168  12.834 -0.7564 -0.2821 -0.5956
20215TIP3    H282137   5.016   6.286  12.827 -0.8249 -0.3051 -0.1035
20216TIP3   OH282138   6.644   3.602   6.335  0.2602  0.6725 -0.3535
20216TIP3    H182139   6.670   3.513   6.310  1.4190  0.9681 -0.2488
20216TIP3    H282140   6.593   3.634   6.260  0.0660  0.0146 -0.5055
20217TIP3   OH282141   3.166   3.621  13.020  0.2892  0.5988 -0.2691
20217TIP3    H182142   3.111   3.698  13.007  0.8207  0.8198 -1.4037
20217TIP3    H282143   3.134   3.557  12.956  0.6227  0.3172 -0.1592
20218TIP3   OH282144   3.248   5.411  13.564 -0.3691 -0.0738 -0.6954
20218TIP3    H182145   3.331   5.373  13.592 -0.7062 -0.5371 -0.3066
20218TIP3    H282146   3.233   5.483  13.624 -0.7082 -0.5811 -0.1616
20219TIP3   OH282147   5.771   0.548   4.499  0.4401  0.0617  0.3649
20219TIP3    H182148   5.720   0.629   4.506 -2.0221 -1.2734 -0.6893
20219TIP3    H282149   5.760   0.521   4.407  1.4430 -1.3184  0.6104
20220TIP3   OH282150   6.573   6.828  14.295 -0.2992 -0.2874 -0.3242
20220TIP3    H182151   6.600   6.830  14.203 -1.9826 -0.4359 -0.8607
20220TIP3    H282152   6.492   6.880  14.297 -0.2374 -0.2058  1.0926
20221TIP3   OH282153   6.136   2.184   2.855 -0.2620 -0.0433 -0.0133
20221TIP3    H182154   6.084   2.114   2.895  0.2710 -0.1816  0.4468
20221TIP3    H282155   6.116   2.178   2.762 -1.0782 -0.0866  0.1575
20222TIP3   OH282156   3.735   3.048  16.629  0.1626  0.3089 -0.0403
20222TIP3    H182157   3.786   2.996  16.691  1.5709  1.4786 -0.1455
20222TIP3    H282158   3.792   3.123  16.609  0.1974 -0.4916 -3.4884
20223TIP3   OH282159   3.547   6.414   2.932 -0.1407 -0.3233 -0.2775
20223TIP3    H182160   3.508   6.449   2.851  0.3621  1.5793  0.2396
20223TIP3    H282161   3.484   6.349   2.963 -0.5965 -0.7218 -1.9101
20224TIP3   OH282162   3.951   6.549  13.984  0.2373  0.0408 -0.7299
20224TIP3    H182163   3.886   6.572  14.051 -0.1043 -2.4532 -0.0775
20224TIP3    H282164   4.001   6.477  14.024  2.3544  0.8089 -1.8562
20225TIP3   OH282165   5.864   5.720   3.778 -0.1505 -0.1330 -0.0025
20225TIP3    H182166   5.824   5.788   3.724 -0.4069 -0.8205 -0.7032
20225TIP3    H282167   5.832   5.738   3.867  0.2456  0.9910 -0.0686
20226TIP3   OH282168   3.708   5.558   2.885  0.3699 -0.3881  0.3548
20226TIP3    H182169   3.696   5.647   2.918 -2.8905 -0.5289 -0.1623
20226TIP3    H282170   3.684   5.563   2.792 -2.0331 -2.1384  0.8052
20227TIP3   OH282171   0.456   6.190   0.460 -0.1447 -0.5660 -0.3062
20227TIP3    H182172   0.456   6.095   0.471 -0.3174 -0.4028  1.3483
20227TIP3    H282173   0.453   6.225   0.549  0.3453  1.0028 -0.8645
20228TIP3   OH282174   0.904   2.569   2.108 -0.0406 -0.4421 -0.0796
20228TIP3    H182175   0.929   2.604   2.193 -2.7971 -0.8765  1.0249
20228TIP3    H282176   0.939   2.480   2.107 -0.0184 -0.4404  0.5953
20229TIP3   OH282177   6.809   5.843  14.228 -0.0397  0.3472  0.5224
20229TIP3    H182178   6.872   5.794  14.175 -0.0477  1.2547 -0.3576
20229TIP3    H282179   6.826   5.815  14.318  1.9385  0.8908  0.3703
20230TIP3   OH282180   0.145   1.038   4.172  0.1769 -0.0584  0.1220
20230TIP3    H182181   0.190   1.014   4.090  0.4702  3.0370 -0.7621
20230TIP3    H282182   0.216   1.063   4.231 -0.1424 -0.4840  0.6923
20231TIP3   OH282183   2.358   3.273   4.896  0.2217 -1.0097  0.0803
20231TIP3    H182184   2.371   3.219   4.818 -0.3930  0.7705 -1.3317
20231TIP3    H282185   2.438   3.325   4.904  0.0487 -0.7706  0.2892
20232TIP3   OH282186   6.022   5.393   3.939 -0.5825 -0.7333 -0.0418
20232TIP3    H182187   6.057   5.474   3.900 -2.7925  0.2502 -0.1101
20232TIP3    H282188   5.987   5.344   3.864  0.6982 -1.8102  0.0038
20233TIP3   OH282189   0.723   0.787   5.664  0.0709  0.0263  0.2865
20233TIP3    H182190   0.687   0.699   5.649 -0.1301  0.0630  0.5479
20233TIP3    H282191   0.791   0.797   5.598  1.5464 -1.1417  1.5558
20234TIP3   OH282192   0.394   1.647  16.065 -0.0133 -0.3304  0.2230
20234TIP3    H182193   0.336   1.708  16.111  0.8670  0.4739  0.2873
20234TIP3    H282194   0.473   1.645  16.118 -0.1729 -1.8661  0.4464
20235TIP3   OH282195   1.023   6.116   1.259 -0.2382 -0.1477  0.1834
20235TIP3    H182196   0.982   6.188   1.210  0.1491 -0.6303 -0.8781
20235TIP3    H282197   0.985   6.122   1.347 -0.2292  1.3400  0.1100
20236TIP3   OH282198   0.116   3.457   5.602 -0.1535  0.5952  0.0923
20236TIP3    H182199   0.187   3.426   5.658  0.1200  2.1155  0.6207
20236TIP3    H282200   0.159   3.486   5.521 -0.3661  0.0131 -0.2395
20237TIP3   OH282201   2.438   1.542  15.910 -0.0509  0.2141  0.1568
20237TIP3    H182202   2.432   1.626  15.866 -0.9439  0.4042  0.6080
20237TIP3    H282203   2.460   1.480  15.841  0.1394  0.7431 -0.2628
20238TIP3   OH282204   0.719   3.786  12.001 -0.1815  0.5445 -0.1655
20238TIP3    H182205   0.791   3.747  11.951 -1.0632 -2.3235  0.6340
20238TIP3    H282206   0.655   3.813  11.935 -0.1859 -0.7972 -0.7401
20239TIP3   OH282207   4.929   6.485  12.058  0.4214  0.5629  0.2253
20239TIP3    H182208   4.909   6.446  12.143 -1.0192 -0.2126 -0.4404
20239TIP3    H282209   4.844   6.505  12.019  0.9979  0.1090 -1.3822
20240TIP3   OH282210   3.577   2.481  14.972 -0.1240  0.3993  0.7851
20240TIP3    H182211   3.601   2.449  15.059  0.1783  0.7954  0.8551
20240TIP3    H282212   3.545   2.404  14.925 -0.3650  0.1979  1.2744
20241TIP3   OH282213   5.845   6.678  11.718  0.5369 -0.1735  0.5256
20241TIP3    H182214   5.889   6.756  11.752  1.7435 -0.6368  0.0697
20241TIP3    H282215   5.914   6.612  11.710 -0.2986 -1.0302  0.0918
20242TIP3   OH282216   5.375   2.930  12.721  0.2945  0.2936  0.1753
20242TIP3    H182217   5.352   2.944  12.629  3.3754  2.3944 -0.4313
20242TIP3    H282218   5.332   3.001  12.768  1.8226  1.6099 -0.3142
20243TIP3   OH282219   6.221   0.892  11.162  0.1189 -0.0391 -0.2781
20243TIP3    H182220   6.304   0.937  11.144  1.3407 -2.1775 -0.2693
20243TIP3    H282221   6.218   0.886  11.258 -0.8275  1.3553 -0.1926
20244TIP3   OH282222   4.859   3.613   3.656  0.1655 -0.3715 -0.0852
20244TIP3    H182223   4.861   3.521   3.683  0.4682 -0.1497  0.6723
20244TIP3    H282224   4.932   3.622   3.595  0.0715 -0.6568 -0.2399
20245TIP3   OH282225   2.672   4.116  15.896 -0.6880  0.1060 -0.2671
20245TIP3    H182226   2.641   4.026  15.907  1.1339 -0.5768 -0.3679
20245TIP3    H282227   2.598   4.163  15.860 -1.8792 -1.2108  0.3809
20246TIP3   OH282228   4.095   0.710  11.958  0.1184 -0.1903  0.0934
20246TIP3    H182229   4.023   0.688  11.898  1.1933 -0.2914 -1.2229
20246TIP3    H282230   4.107   0.804  11.947  1.7271 -0.5381 -1.5528
20247LIG      S82231   3.510   3.708  10.721  0.3149 -0.0812  0.1769
20247LIG     N182232   3.235   3.568  10.735 -0.8676  0.5317 -0.3054
20247LIG     N282233   3.126   3.517  11.243  0.2415 -0.0477  0.6722
20247LIG     C182234   3.101   3.480  10.921 -0.0769 -0.3504  0.1892
20247LIG     C282235   3.039   3.583  11.013  0.1055  0.8836 -0.8007
20247LIG     C382236   3.110   3.529  10.777  0.1232 -0.2395 -0.5915
20247LIG     C482237   3.005   3.549  11.162 -0.5409  0.0135 -0.5750
20247LIG     C582238   3.000   3.360  10.921 -0.1582 -0.1980 -0.1344
20247LIG     C682239   3.250   3.665  10.630  0.4012 -0.5164  0.4657
20247LIG     C782240   3.353   3.479  10.753  0.0307 -0.4114  0.0889
20247LIG     C882241   3.093   3.426  11.351 -0.2312  0.7182 -0.5900
20247LIG     C982242   3.203   3.628  11.283 -0.3249  0.0159  0.1523
20247LIG    C1082243   3.374   3.720  10.608  0.2256 -0.5745  0.6024
20247LIG    C1182244   3.485   3.537  10.752  0.0023  0.0084  0.0602
20247LIG    C1282245   3.149   3.674  10.532 -0.4456  0.2229  0.1521
20247LIG    C1382246   3.345   3.342  10.743 -1.0731  1.2100  0.0724
20247LIG    C1482247   3.069   3.281  11.318 -0.5765 -0.0592  0.0586
20247LIG    C1582248   3.136   3.716  11.386  0.0879  0.5221  0.1414
20247LIG    C1682249   3.394   3.793  10.486  0.2680  0.4508 -0.4813
20247LIG    C1782250   3.593   3.452  10.715 -0.2634  0.2811 -0.3271
20247LIG    C1882251   3.179   3.733  10.404 -0.1886 -0.3394 -0.3596
20247LIG    C1982252   3.461   3.267  10.712  0.0853 -0.1839 -0.4774
20247LIG    C2082253   3.302   3.792  10.384  0.0281  0.0762 -0.4309
20247LIG    C2182254   3.588   3.318  10.694  0.1799 -0.1013  0.1011
20247LIG     H182255   3.196   3.445  10.967  0.9819 -0.5809 -2.0537
20247LIG     H282256   2.942   3.603  10.963 -1.5254  2.2723  2.6077
20247LIG     H382257   3.102   3.674  11.017  0.4434  0.6021  1.4766
20247LIG     H482258   3.078   3.453  10.702 -1.5115  1.5085 -1.7316
20247LIG     H582259   3.031   3.604  10.756 -0.3336 -0.2041  1.1252
20247LIG     H682260   2.956   3.639  11.206  1.7290  0.9290  0.2056
20247LIG     H782261   2.938   3.460  11.151  1.0595 -1.4552  0.9123
20247LIG     H882262   3.007   3.288  10.837  0.0943 -1.9732  1.3518
20247LIG     H982263   2.897   3.402  10.919 -0.5545 -1.0441  1.0764
20247LIG    H1082264   3.017   3.299  11.013 -2.2050  0.1937  0.5474
20247LIG    H1182265   3.000   3.461  11.399 -1.3925  0.2973 -2.3980
20247LIG    H1282266   3.183   3.433  11.416 -0.4425 -0.1660 -0.1828
20247LIG    H1382267   3.250   3.689  11.203  0.8124  0.5285  1.1859
20247LIG    H1482268   3.290   3.581  11.333 -1.6995 -0.2539  2.4374
20247LIG    H1582269   3.052   3.628  10.537 -0.9359  1.3272  1.3724
20247LIG    H1682270   3.251   3.289  10.739 -0.4824 -0.0063  1.3947
20247LIG    H1782271   3.031   3.221  11.403  1.0221 -0.7936  0.2810
20247LIG    H1882272   3.159   3.219  11.301 -2.4590 -2.6176 -1.3606
20247LIG    H1982273   3.002   3.264  11.230  0.2040  0.6447 -0.6947
20247LIG    H2082274   3.138   3.655  11.479  2.4007  1.7243  0.9608
20247LIG    H2182275   3.033   3.736  11.352 -0.6106 -2.0211  0.5973
20247LIG    H2282276   3.193   3.811  11.400  0.4867  0.4002 -0.5936
20247LIG    H2382277   3.494   3.830  10.465  0.2879 -0.1497 -1.5150
20247LIG    H2482278   3.691   3.495  10.703  1.1946 -2.8524 -0.7208
20247LIG    H2582279   3.101   3.731  10.329 -0.8012  0.6340  0.2366
20247LIG    H2682280   3.443   3.163  10.688 -3.4802  0.0774  0.4378
20247LIG    H2782281   3.314   3.831  10.283 -1.0481  1.0372 -0.2099
20247LIG    H2882282   3.665   3.255  10.652  0.2308  0.6705 -1.0056
   6.83608   6.83608  17.20938
