Title
43125
    1CHL1    C3    1   4.126   1.874   7.156 -0.1453 -0.5859  0.0276
    1CHL1    H3    2   4.075   1.972   7.172  0.4903 -0.3592  0.6932
    1CHL1    O3    3   4.123   1.809   7.280 -0.4737 -0.4724 -0.6533
    1CHL1   H3'    4   4.199   1.849   7.324  0.3306 -0.3663 -2.0744
    1CHL1    C4    5   4.047   1.784   7.061  0.6701 -0.2279 -0.0312
    1CHL1   H4A    6   4.082   1.680   7.074  0.0439 -0.0849  3.5880
    1CHL1   H4B    7   3.938   1.782   7.082  0.0783  0.1385 -2.6899
    1CHL1    C5    8   4.063   1.837   6.915 -0.3538 -1.0275 -0.4293
    1CHL1    C6    9   3.958   1.884   6.843  0.0582  0.1237 -0.3037
    1CHL1    H6   10   3.861   1.869   6.893 -0.7381  0.9137 -1.5412
    1CHL1    C7   11   3.958   1.936   6.701 -0.2042  0.2407  0.2071
    1CHL1   H7A   12   3.871   1.899   6.642  0.6578 -0.8545 -0.4139
    1CHL1   H7B   13   3.941   2.045   6.707  1.3299  0.4056  3.4837
    1CHL1    C8   14   4.095   1.900   6.638  1.0657 -0.2317  0.4603
    1CHL1    H8   15   4.091   1.793   6.607  0.3191 -0.2971  0.7456
    1CHL1   C14   16   4.109   1.991   6.518 -0.1853 -0.5092 -0.6562
    1CHL1   H14   17   4.116   2.090   6.567  0.4699 -1.8958  2.3121
    1CHL1   C15   18   4.001   1.995   6.406  0.3796  0.4088  0.6888
    1CHL1  H15A   19   3.988   1.892   6.367  0.2656  0.9996 -0.8926
    1CHL1  H15B   20   3.912   2.051   6.442 -1.9593 -1.6301 -1.5423
    1CHL1   C16   21   4.067   2.065   6.288  0.5056 -0.4515 -0.9418
    1CHL1  H16A   22   4.054   2.004   6.196 -0.4160 -0.3024 -0.9126
    1CHL1  H16B   23   4.024   2.165   6.264 -1.1203 -0.9130 -0.0651
    1CHL1   C17   24   4.214   2.080   6.328  0.1159  0.5238 -0.5927
    1CHL1   H17   25   4.228   2.181   6.372 -0.8770  0.6595 -0.5643
    1CHL1   C13   26   4.235   1.973   6.436  0.0218 -0.1526  0.2173
    1CHL1   C18   27   4.256   1.833   6.361 -1.0380 -0.2201  0.1677
    1CHL1  H18A   28   4.358   1.830   6.318 -0.5530 -0.2182  1.2949
    1CHL1  H18B   29   4.237   1.745   6.425  0.4638  0.2751  1.3456
    1CHL1  H18C   30   4.184   1.819   6.278  1.9069 -3.2343 -2.1319
    1CHL1   C12   31   4.352   2.002   6.525  0.2538 -0.1318 -0.2754
    1CHL1  H12A   32   4.449   1.988   6.472  0.4456 -0.1979  0.0879
    1CHL1  H12B   33   4.339   2.108   6.556  0.4535 -0.4590  0.9703
    1CHL1   C11   34   4.351   1.906   6.651 -0.1675 -0.5531  0.4608
    1CHL1  H11A   35   4.374   1.805   6.611  3.4932 -1.2030  3.6093
    1CHL1  H11B   36   4.437   1.932   6.717  1.5679 -1.9719 -1.1188
    1CHL1    C9   37   4.211   1.920   6.732 -1.2351 -0.0485 -0.0114
    1CHL1    H9   38   4.215   2.029   6.751  1.8534  0.0719 -0.7538
    1CHL1   C10   39   4.204   1.849   6.865  0.0127  0.0168 -0.1485
    1CHL1   C19   40   4.258   1.702   6.840  0.4902  0.4097 -0.3821
    1CHL1  H19A   41   4.251   1.647   6.937 -1.4149 -1.3205 -1.4372
    1CHL1  H19B   42   4.206   1.643   6.762  2.1151  0.3219 -1.4477
    1CHL1  H19C   43   4.367   1.706   6.821  0.5759  0.7227  0.1475
    1CHL1    C1   44   4.284   1.938   6.970  0.3097  0.3591  0.3425
    1CHL1   H1A   45   4.391   1.957   6.946  0.5150 -1.0002  0.0788
    1CHL1   H1B   46   4.238   2.038   6.960 -0.5092 -0.0969 -0.6351
    1CHL1    C2   47   4.272   1.895   7.118 -0.2285 -0.6513 -0.0451
    1CHL1   H2A   48   4.325   1.966   7.185  0.8677 -1.8157  0.3715
    1CHL1   H2B   49   4.326   1.798   7.124  3.1385  0.9781 -1.2187
    1CHL1   C20   50   4.301   2.073   6.203  0.0302 -0.2083 -0.1874
    1CHL1   H20   51   4.300   1.975   6.150  0.9742 -1.3126  1.7101
    1CHL1   C21   52   4.448   2.105   6.241  0.5643 -0.4172 -0.0103
    1CHL1  H21A   53   4.497   2.008   6.264 -1.5004 -1.2054  1.3961
    1CHL1  H21B   54   4.465   2.158   6.337  1.1628 -1.0910  0.2681
    1CHL1  H21C   55   4.500   2.158   6.159  0.3222  0.6534  0.5109
    1CHL1   C22   56   4.249   2.176   6.103  0.1513  0.5490  0.9870
    1CHL1  H22A   57   4.139   2.168   6.098  0.1441  1.1208  0.0263
    1CHL1  H22B   58   4.276   2.274   6.149  0.3543  0.4698  1.0397
    1CHL1   C23   59   4.294   2.152   5.961 -0.8261 -0.0968  0.3976
    1CHL1  H23A   60   4.403   2.132   5.953 -0.2141  2.8857 -0.0037
    1CHL1  H23B   61   4.255   2.063   5.907 -0.7314  1.1464 -1.8334
    1CHL1   C24   62   4.267   2.270   5.878 -0.1034 -0.1851  0.3048
    1CHL1  H24A   63   4.160   2.284   5.851  0.2867  1.3039 -0.5989
    1CHL1  H24B   64   4.299   2.361   5.934  0.9331  0.2716 -0.9714
    1CHL1   C25   65   4.341   2.260   5.748  0.3263  0.9760  0.5925
    1CHL1   H25   66   4.329   2.156   5.711  1.8699  0.6759  0.8686
    1CHL1   C26   67   4.282   2.363   5.648  0.4410  0.3693  0.4209
    1CHL1  H26A   68   4.252   2.454   5.704  0.7692 -0.9636  2.9424
    1CHL1  H26B   69   4.362   2.390   5.576  1.8830  0.1110  1.8424
    1CHL1  H26C   70   4.197   2.317   5.594  1.4518 -1.2829  0.1308
    1CHL1   C27   71   4.495   2.294   5.775 -0.1348  0.8095  0.5257
    1CHL1  H27A   72   4.556   2.296   5.682 -1.0209  0.2587 -0.0846
    1CHL1  H27B   73   4.513   2.399   5.806  2.2037  1.2361 -1.9132
    1CHL1  H27C   74   4.544   2.231   5.852 -0.6626  0.7096  0.7865
    2CHL1    C3   75   5.675   0.926   7.066  0.2876 -0.1083 -0.6319
    2CHL1    H3   76   5.577   0.947   7.019  0.1566  0.0084 -0.3032
    2CHL1    O3   77   5.639   0.881   7.196 -0.5818 -0.2158  0.0614
    2CHL1   H3'   78   5.587   0.949   7.241 -0.3652 -1.4516  2.3405
    2CHL1    C4   79   5.754   0.820   6.991 -0.9714  0.4878 -0.1777
    2CHL1   H4A   80   5.849   0.800   7.045 -1.8284  0.2089  1.2700
    2CHL1   H4B   81   5.694   0.726   6.998 -1.0964  0.5368 -0.5536
    2CHL1    C5   82   5.781   0.854   6.846  0.1872 -0.2698  0.0301
    2CHL1    C6   83   5.737   0.784   6.742 -0.1794  0.4049  0.4711
    2CHL1    H6   84   5.694   0.683   6.756  0.8026 -0.3006 -1.2696
    2CHL1    C7   85   5.762   0.816   6.595  0.5127 -0.5063  1.0747
    2CHL1   H7A   86   5.817   0.738   6.539  0.0812  1.0265 -1.6519
    2CHL1   H7B   87   5.662   0.827   6.547 -0.0284  0.7524  2.4087
    2CHL1    C8   88   5.854   0.945   6.581  0.0824 -0.3296 -0.0426
    2CHL1    H8   89   5.959   0.912   6.598 -0.0393 -0.2241  0.9930
    2CHL1   C14   90   5.838   1.011   6.444 -0.1012  0.0958  0.0225
    2CHL1   H14   91   5.739   1.060   6.448  0.5129  1.8702 -2.9879
    2CHL1   C15   92   5.839   0.925   6.315 -0.1238  0.4030 -0.0705
    2CHL1  H15A   93   5.923   0.854   6.305  0.5560  1.0586  0.8730
    2CHL1  H15B   94   5.757   0.851   6.305  0.0138  0.1807  0.4643
    2CHL1   C16   95   5.842   1.025   6.199 -0.7504  0.7922 -0.8128
    2CHL1  H16A   96   5.924   0.990   6.132  3.5133  4.2376  2.0223
    2CHL1  H16B   97   5.745   1.028   6.146 -2.0773 -0.8813  1.3529
    2CHL1   C17   98   5.890   1.165   6.263 -0.1308  0.6311 -0.5969
    2CHL1   H17   99   5.794   1.218   6.282 -1.1117 -0.8739 -1.2024
    2CHL1   C13  100   5.934   1.133   6.412 -0.1482 -0.7492 -0.1480
    2CHL1   C18  101   6.078   1.083   6.406  0.7280  0.0787  0.1950
    2CHL1  H18A  102   6.146   1.162   6.369 -0.3790  1.2182  0.5358
    2CHL1  H18B  103   6.115   1.041   6.502 -0.6285  0.4461  0.9059
    2CHL1  H18C  104   6.084   0.999   6.333  2.9754  0.2144  0.1648
    2CHL1   C12  105   5.910   1.237   6.522 -0.5627  0.0791 -0.0031
    2CHL1  H12A  106   5.968   1.329   6.501 -0.0004 -0.2532  0.0588
    2CHL1  H12B  107   5.804   1.269   6.520 -0.8702 -0.4993  2.8317
    2CHL1   C11  108   5.943   1.172   6.657  0.0872  0.0152  0.7053
    2CHL1  H11A  109   6.048   1.136   6.659 -0.3062 -1.1800  0.8209
    2CHL1  H11B  110   5.926   1.250   6.734  0.1576  1.2033 -0.4450
    2CHL1    C9  111   5.849   1.051   6.690 -0.2119  0.3997  0.0072
    2CHL1    H9  112   5.744   1.084   6.681 -0.9594 -1.3357  1.8771
    2CHL1   C10  113   5.851   0.994   6.834  0.6282  0.4826  0.2477
    2CHL1   C19  114   5.992   0.986   6.881 -0.1526 -0.1314  0.4872
    2CHL1  H19A  115   6.037   1.086   6.863 -1.6935  0.2247 -1.8176
    2CHL1  H19B  116   6.001   0.952   6.986 -0.7031 -1.9154 -0.0154
    2CHL1  H19C  117   6.056   0.922   6.816  0.5610  0.7805  0.2762
    2CHL1    C1  118   5.772   1.104   6.916  0.1381  0.2154  0.1186
    2CHL1   H1A  119   5.821   1.204   6.922  0.4940  0.2127 -1.8254
    2CHL1   H1B  120   5.676   1.125   6.864  0.2362  0.1307 -0.0990
    2CHL1    C2  121   5.739   1.063   7.064  0.2077 -0.5155  0.3480
    2CHL1   H2A  122   5.674   1.147   7.097  2.0833  1.1914 -0.1095
    2CHL1   H2B  123   5.829   1.063   7.129  0.2974  1.2076  0.2563
    2CHL1   C20  124   5.992   1.230   6.166  0.2197  0.2526  0.2714
    2CHL1   H20  125   6.078   1.160   6.161  1.0928  1.3470 -0.4421
    2CHL1   C21  126   6.029   1.357   6.217 -0.6416 -0.4238 -0.2024
    2CHL1  H21A  127   6.065   1.354   6.321  2.4507  2.2647 -1.0253
    2CHL1  H21B  128   5.946   1.431   6.219  1.2120  1.7793 -0.8922
    2CHL1  H21C  129   6.101   1.400   6.144  0.1496 -1.8693 -0.3123
    2CHL1   C22  130   5.930   1.257   6.025 -0.5004 -0.6506  0.1465
    2CHL1  H22A  131   5.858   1.179   5.992 -1.1106 -0.6710  1.4801
    2CHL1  H22B  132   5.867   1.348   6.015  1.3670  0.5048 -2.3648
    2CHL1   C23  133   6.034   1.274   5.917 -0.7627 -0.5908 -0.1704
    2CHL1  H23A  134   6.087   1.368   5.941 -0.0375 -0.9980 -0.1580
    2CHL1  H23B  135   6.113   1.196   5.928  1.2320  1.3499 -0.0894
    2CHL1   C24  136   5.971   1.281   5.779 -0.1405 -0.5675  0.2361
    2CHL1  H24A  137   5.928   1.181   5.758 -0.1263 -0.1245 -2.2232
    2CHL1  H24B  138   5.892   1.359   5.781  0.3447 -0.0186  3.6964
    2CHL1   C25  139   6.068   1.297   5.661  0.3277 -0.3443 -0.1777
    2CHL1   H25  140   6.133   1.385   5.679  0.3917 -0.4107 -0.0828
    2CHL1   C26  141   6.161   1.183   5.636  0.4579  0.7855  0.4027
    2CHL1  H26A  142   6.232   1.168   5.720  0.2322 -2.0555  0.1928
    2CHL1  H26B  143   6.105   1.087   5.630  0.1603  0.8927  1.2720
    2CHL1  H26C  144   6.226   1.188   5.546  2.0075 -0.4508  1.4111
    2CHL1   C27  145   5.982   1.329   5.535 -0.4419 -0.4860  0.3348
    2CHL1  H27A  146   5.916   1.416   5.558  2.1402  1.6313  0.2771
    2CHL1  H27B  147   6.050   1.367   5.455 -0.7958  0.3793  0.4284
    2CHL1  H27C  148   5.928   1.245   5.487 -0.7118 -0.7744  1.1349
    3CHL1    C3  149   6.301   0.816   7.148  0.1808  0.1329 -0.4168
    3CHL1    H3  150   6.209   0.876   7.165 -1.5539 -2.6248  0.6006
    3CHL1    O3  151   6.350   0.792   7.284 -0.0699 -0.0298  0.1538
    3CHL1   H3'  152   6.287   0.731   7.323 -0.0734 -0.3300 -0.3070
    3CHL1    C4  153   6.267   0.679   7.081 -0.2851 -0.0802  0.7033
    3CHL1   H4A  154   6.350   0.613   7.114  0.0737 -0.5303 -0.9838
    3CHL1   H4B  155   6.181   0.629   7.130 -0.0622 -0.5014  0.6706
    3CHL1    C5  156   6.257   0.672   6.935 -0.7687 -0.3566 -0.1895
    3CHL1    C6  157   6.158   0.601   6.878 -0.9228 -0.6667  0.3114
    3CHL1    H6  158   6.080   0.550   6.937  0.0502 -0.9270  1.4112
    3CHL1    C7  159   6.140   0.604   6.727 -0.2497 -0.3880  0.1113
    3CHL1   H7A  160   6.117   0.502   6.691  0.4139 -0.4799 -0.0602
    3CHL1   H7B  161   6.053   0.670   6.705  0.7716  0.5656 -1.2950
    3CHL1    C8  162   6.261   0.639   6.638  0.1784 -0.2398  0.6128
    3CHL1    H8  163   6.334   0.555   6.643 -0.1937 -0.6272 -0.3755
    3CHL1   C14  164   6.222   0.670   6.496 -0.2718 -0.0831  0.0380
    3CHL1   H14  165   6.159   0.760   6.507  1.1082  0.8030  0.9583
    3CHL1   C15  166   6.129   0.567   6.418 -0.4201 -0.1509  0.7211
    3CHL1  H15A  167   6.164   0.464   6.438  0.0757  0.0038  0.6638
    3CHL1  H15B  168   6.022   0.577   6.446 -0.5775  3.3238 -0.5654
    3CHL1   C16  169   6.144   0.614   6.271 -0.2086  0.1877  0.0558
    3CHL1  H16A  170   6.195   0.533   6.215  0.6411  0.3815  0.5171
    3CHL1  H16B  171   6.047   0.641   6.225  0.4455  0.9413 -0.9380
    3CHL1   C17  172   6.251   0.735   6.269  0.2110 -0.0262 -0.0334
    3CHL1   H17  173   6.202   0.831   6.292 -0.2321 -0.5804  1.4455
    3CHL1   C13  174   6.339   0.711   6.399 -0.8091 -0.2546 -0.0604
    3CHL1   C18  175   6.433   0.590   6.375  0.3745 -0.4985  0.6660
    3CHL1  H18A  176   6.387   0.510   6.313 -0.1199  0.0550  0.3138
    3CHL1  H18B  177   6.526   0.629   6.329 -1.0910  0.4559 -1.6284
    3CHL1  H18C  178   6.460   0.543   6.472  1.0980 -1.4108  0.0386
    3CHL1   C12  179   6.407   0.836   6.457 -0.5428 -0.3844 -0.1049
    3CHL1  H12A  180   6.503   0.858   6.407 -1.9195 -0.3911 -2.9633
    3CHL1  H12B  181   6.335   0.920   6.443 -1.2332 -1.4064 -3.3479
    3CHL1   C11  182   6.443   0.820   6.607 -0.1335  0.2400 -0.4158
    3CHL1  H11A  183   6.527   0.747   6.609 -0.5451 -0.2799 -1.2519
    3CHL1  H11B  184   6.469   0.919   6.650  0.4266  0.6339 -1.6211
    3CHL1    C9  185   6.327   0.769   6.701 -0.4712 -0.2047  1.0617
    3CHL1    H9  186   6.256   0.855   6.698  0.5815  0.6638  0.3465
    3CHL1   C10  187   6.361   0.757   6.853 -0.2541  0.5857 -0.2175
    3CHL1   C19  188   6.489   0.666   6.862 -0.4182  0.0777  0.1676
    3CHL1  H19A  189   6.574   0.702   6.801 -0.0508 -1.0084  0.0071
    3CHL1  H19B  190   6.524   0.665   6.967  1.2643  1.2689 -0.3443
    3CHL1  H19C  191   6.477   0.559   6.833 -3.2167 -0.4107  2.6774
    3CHL1    C1  192   6.383   0.895   6.916  0.4675 -0.1086 -0.5872
    3CHL1   H1A  193   6.466   0.940   6.858  0.6445 -0.3733 -0.5395
    3CHL1   H1B  194   6.293   0.960   6.902 -0.2024  0.5265  4.6199
    3CHL1    C2  195   6.404   0.894   7.070  0.3616 -0.3306 -0.1602
    3CHL1   H2A  196   6.401   1.000   7.102 -1.3177 -0.4925  0.3300
    3CHL1   H2B  197   6.510   0.863   7.083  0.1084 -0.7156  1.0947
    3CHL1   C20  198   6.330   0.759   6.135  0.2605 -0.3846  0.9309
    3CHL1   H20  199   6.401   0.674   6.129  0.5811 -0.0254 -1.0063
    3CHL1   C21  200   6.400   0.894   6.131 -0.0830  0.8132  0.0261
    3CHL1  H21A  201   6.428   0.920   6.026 -1.7700 -0.2754 -0.7459
    3CHL1  H21B  202   6.485   0.902   6.202  0.3283  0.4130 -0.4106
    3CHL1  H21C  203   6.333   0.977   6.162 -2.4744 -0.2967 -1.7854
    3CHL1   C22  204   6.238   0.747   6.008  0.0426  0.2446 -0.1049
    3CHL1  H22A  205   6.298   0.738   5.914 -0.1337  2.3951 -0.4548
    3CHL1  H22B  206   6.167   0.662   6.020 -2.6951  2.2036 -1.3631
    3CHL1   C23  207   6.149   0.870   5.980  0.0919  0.5757  0.1368
    3CHL1  H23A  208   6.073   0.881   6.061  0.6309 -0.3190  0.7833
    3CHL1  H23B  209   6.200   0.966   5.959 -0.6946  0.1980 -4.4619
    3CHL1   C24  210   6.082   0.868   5.838 -0.1425  0.7564 -0.5486
    3CHL1  H24A  211   6.034   0.967   5.824  1.4441  1.3409 -2.2633
    3CHL1  H24B  212   6.164   0.842   5.767 -0.2785 -1.7795  0.1286
    3CHL1   C25  213   5.969   0.762   5.809 -0.9158  0.1411  0.0566
    3CHL1   H25  214   6.011   0.663   5.836 -0.1874 -0.0439 -1.6861
    3CHL1   C26  215   5.841   0.782   5.889 -0.2363  0.4162 -0.3196
    3CHL1  H26A  216   5.782   0.866   5.845  0.4321  0.6548 -0.7813
    3CHL1  H26B  217   5.771   0.696   5.882 -2.3862  2.1109 -0.7067
    3CHL1  H26C  218   5.871   0.803   5.994 -1.7542 -1.0401  0.4515
    3CHL1   C27  219   5.936   0.759   5.659 -0.3757  0.9087 -0.1529
    3CHL1  H27A  220   5.943   0.861   5.617  0.1152  0.3814 -1.3998
    3CHL1  H27B  221   6.009   0.695   5.605 -0.6809  1.1208 -0.8266
    3CHL1  H27C  222   5.839   0.706   5.643  0.3647 -0.0408 -1.7835
    4CHL1    C3  223   3.816   1.176   7.073 -0.2446 -0.2673 -0.3080
    4CHL1    H3  224   3.923   1.200   7.086 -0.7580  2.0585 -0.0455
    4CHL1    O3  225   3.761   1.119   7.193 -0.1202  0.0571 -0.3210
    4CHL1   H3'  226   3.825   1.051   7.212  1.1652  0.9382 -1.3214
    4CHL1    C4  227   3.748   1.318   7.048  0.5920 -0.1445 -0.1291
    4CHL1   H4A  228   3.641   1.296   7.065 -0.0039  2.4558 -0.1066
    4CHL1   H4B  229   3.791   1.388   7.122  0.1214 -0.0407  0.0468
    4CHL1    C5  230   3.766   1.369   6.905  0.5290 -0.0627 -0.8822
    4CHL1    C6  231   3.821   1.485   6.886 -0.7881 -0.9133 -0.0783
    4CHL1    H6  232   3.843   1.540   6.978  1.8004 -1.0881 -0.5240
    4CHL1    C7  233   3.845   1.543   6.747  0.6477  0.2250  0.2560
    4CHL1   H7A  234   3.806   1.647   6.742  1.4761  0.8360  3.8485
    4CHL1   H7B  235   3.951   1.555   6.717  0.2657 -0.6477 -1.5808
    4CHL1    C8  236   3.774   1.463   6.633  0.4479  0.0315 -0.0834
    4CHL1    H8  237   3.664   1.481   6.637  0.6051  0.7266  2.4912
    4CHL1   C14  238   3.826   1.510   6.502  0.6008 -0.5854  0.9010
    4CHL1   H14  239   3.936   1.500   6.510  0.6935  0.0917  0.5479
    4CHL1   C15  240   3.805   1.658   6.469 -0.2865 -1.2852 -0.1427
    4CHL1  H15A  241   3.700   1.688   6.492  0.0284 -0.9906  0.9325
    4CHL1  H15B  242   3.878   1.715   6.530  1.3845  0.5223 -3.5212
    4CHL1   C16  243   3.820   1.664   6.315  0.4581 -0.5520 -0.7424
    4CHL1  H16A  244   3.730   1.720   6.281  0.3797  0.3461  0.8618
    4CHL1  H16B  245   3.906   1.721   6.275 -0.7734  0.8658 -1.4673
    4CHL1   C17  246   3.830   1.516   6.268 -0.8752 -0.5192 -1.2890
    4CHL1   H17  247   3.936   1.484   6.267 -0.5221  0.4904  0.1456
    4CHL1   C13  248   3.778   1.429   6.382  0.6126 -0.1231  1.0921
    4CHL1   C18  249   3.625   1.439   6.375  0.0480 -0.2936  0.3997
    4CHL1  H18A  250   3.577   1.429   6.475  0.6985 -0.2447  0.7309
    4CHL1  H18B  251   3.594   1.538   6.335 -1.5899 -0.3427  1.4591
    4CHL1  H18C  252   3.595   1.351   6.315 -0.8454 -1.1056  1.9580
    4CHL1   C12  253   3.823   1.283   6.401  0.0452  0.5564 -0.4689
    4CHL1  H12A  254   3.807   1.219   6.311  1.5166 -2.4114  1.2015
    4CHL1  H12B  255   3.933   1.286   6.418 -0.1079  1.6031  0.4595
    4CHL1   C11  256   3.773   1.225   6.532  0.5883 -0.3147  1.0903
    4CHL1  H11A  257   3.664   1.217   6.510  1.1893  0.5494 -2.9080
    4CHL1  H11B  258   3.822   1.127   6.544  2.2547  0.2574 -0.5460
    4CHL1    C9  259   3.802   1.316   6.652  0.1047  0.3331  0.6172
    4CHL1    H9  260   3.911   1.302   6.669 -0.1996 -1.6901  1.1305
    4CHL1   C10  261   3.743   1.259   6.792 -0.7628  0.8654  0.5575
    4CHL1   C19  262   3.589   1.241   6.770 -0.1760 -0.2577 -0.1057
    4CHL1  H19A  263   3.569   1.159   6.697  0.3590  0.0229 -0.5694
    4CHL1  H19B  264   3.539   1.220   6.867  1.6469 -0.2752  0.8666
    4CHL1  H19C  265   3.536   1.338   6.755  0.9264  0.5546  1.0953
    4CHL1    C1  266   3.821   1.127   6.827 -0.9283  0.2655  0.2742
    4CHL1   H1A  267   3.806   1.044   6.755 -1.5268 -0.3860  1.1303
    4CHL1   H1B  268   3.927   1.158   6.819 -1.1520  1.2752  1.0530
    4CHL1    C2  269   3.783   1.070   6.968 -0.1826 -0.2843  0.6547
    4CHL1   H2A  270   3.840   0.974   6.974 -0.1232 -0.1834  1.9038
    4CHL1   H2B  271   3.674   1.055   6.958 -0.0426 -1.2809  0.5319
    4CHL1   C20  272   3.771   1.501   6.124 -0.1030  0.5714 -0.2023
    4CHL1   H20  273   3.661   1.518   6.131 -0.0802  1.1732 -1.1713
    4CHL1   C21  274   3.794   1.355   6.071 -0.0445 -0.1239  0.1201
    4CHL1  H21A  275   3.903   1.336   6.071 -0.0454 -0.3359  1.9514
    4CHL1  H21B  276   3.756   1.346   5.967 -0.3298 -1.3478  0.3150
    4CHL1  H21C  277   3.736   1.274   6.121  0.0757 -1.1454 -1.3669
    4CHL1   C22  278   3.817   1.601   6.010 -0.6113 -1.1463 -0.5039
    4CHL1  H22A  279   3.780   1.567   5.911  0.3952 -0.1468 -1.2513
    4CHL1  H22B  280   3.771   1.698   6.040 -0.8518 -1.5204  0.3681
    4CHL1   C23  281   3.963   1.621   6.011 -0.9942 -0.1747 -0.2863
    4CHL1  H23A  282   4.004   1.651   6.110  0.1078  2.2603 -1.3984
    4CHL1  H23B  283   4.012   1.525   5.985  1.2644  0.8389 -0.0312
    4CHL1   C24  284   4.015   1.718   5.897 -0.0022 -0.5500 -0.6341
    4CHL1  H24A  285   3.947   1.691   5.814 -1.3398 -0.4007  0.3840
    4CHL1  H24B  286   3.993   1.823   5.923  1.8655 -0.3837  0.4859
    4CHL1   C25  287   4.165   1.706   5.862 -0.2449  0.0986  1.0708
    4CHL1   H25  288   4.182   1.599   5.841 -2.2414 -0.5643  2.5477
    4CHL1   C26  289   4.186   1.784   5.735 -0.5664  0.0660  0.0119
    4CHL1  H26A  290   4.129   1.765   5.642  0.0822  1.2239 -0.6468
    4CHL1  H26B  291   4.175   1.892   5.756  1.3517  0.0392  1.4745
    4CHL1  H26C  292   4.291   1.767   5.701 -0.2049  0.6710  0.7726
    4CHL1   C27  293   4.264   1.744   5.974 -0.5993  0.5273 -0.0857
    4CHL1  H27A  294   4.362   1.703   5.942 -0.3918  0.0285  1.1216
    4CHL1  H27B  295   4.266   1.852   5.998 -1.2755  0.6485 -0.5581
    4CHL1  H27C  296   4.234   1.688   6.065 -2.2492  1.0727 -0.2501
    5CHL1    C3  297   6.271   2.410   7.238 -1.0219  0.3323 -0.7606
    5CHL1    H3  298   6.349   2.488   7.223 -0.3059  0.5259  3.0453
    5CHL1    O3  299   6.251   2.420   7.384 -0.1898  0.5807  0.3062
    5CHL1   H3'  300   6.197   2.344   7.407  0.0952  0.3427  0.1981
    5CHL1    C4  301   6.143   2.429   7.165  0.0858  0.3044  0.5433
    5CHL1   H4A  302   6.080   2.354   7.217 -2.7761  2.5144  0.5397
    5CHL1   H4B  303   6.100   2.530   7.183 -1.9704 -0.2800 -0.7094
    5CHL1    C5  304   6.159   2.411   7.014 -0.0336 -0.0527  0.1558
    5CHL1    C6  305   6.121   2.502   6.930  0.4021 -0.1728  0.1881
    5CHL1    H6  306   6.078   2.596   6.969 -0.9769 -0.9838  0.7114
    5CHL1    C7  307   6.117   2.489   6.777 -0.0235  0.4692  0.6210
    5CHL1   H7A  308   6.014   2.501   6.737 -0.3550 -1.0733  0.9680
    5CHL1   H7B  309   6.185   2.568   6.739  0.0524  0.4135  0.6410
    5CHL1    C8  310   6.164   2.347   6.729  0.0510 -0.5426  0.0967
    5CHL1    H8  311   6.066   2.295   6.726  0.8395 -2.2405  1.9069
    5CHL1   C14  312   6.226   2.365   6.588  0.0547 -0.0250  0.4517
    5CHL1   H14  313   6.313   2.431   6.604 -0.5064  0.7209  0.5074
    5CHL1   C15  314   6.140   2.432   6.477 -0.6346 -0.1305 -0.1414
    5CHL1  H15A  315   6.037   2.392   6.477 -0.5555 -0.3483  0.6355
    5CHL1  H15B  316   6.142   2.543   6.478  0.3863 -0.1397  0.1136
    5CHL1   C16  317   6.201   2.380   6.344  0.0164 -0.1163 -0.2735
    5CHL1  H16A  318   6.129   2.327   6.279 -1.3419 -0.7948  1.6960
    5CHL1  H16B  319   6.241   2.465   6.285 -0.8142  0.6448  0.2235
    5CHL1   C17  320   6.325   2.296   6.385  0.0221  0.3883 -0.3403
    5CHL1   H17  321   6.414   2.356   6.411  1.5501 -1.2418 -1.5157
    5CHL1   C13  322   6.283   2.240   6.525 -0.1526 -0.1851  0.4372
    5CHL1   C18  323   6.157   2.144   6.508  0.0764  0.2941 -1.0285
    5CHL1  H18A  324   6.186   2.051   6.455 -1.0510 -0.7402  0.1220
    5CHL1  H18B  325   6.118   2.107   6.605 -1.5435  0.5549 -1.5555
    5CHL1  H18C  326   6.078   2.184   6.441 -0.4541  0.0244 -0.5707
    5CHL1   C12  327   6.383   2.185   6.623 -0.0405 -0.0699 -0.1112
    5CHL1  H12A  328   6.409   2.087   6.578  2.5237 -0.3456  1.7310
    5CHL1  H12B  329   6.474   2.248   6.626  1.0815 -1.5936 -1.0363
    5CHL1   C11  330   6.332   2.161   6.767  0.2500 -1.0026 -0.6000
    5CHL1  H11A  331   6.265   2.074   6.785 -2.0068  0.4968 -1.4102
    5CHL1  H11B  332   6.428   2.136   6.817  1.9380  0.7789 -2.7202
    5CHL1    C9  333   6.276   2.293   6.821  0.8919  0.3440 -0.4619
    5CHL1    H9  334   6.356   2.370   6.815 -0.7198  2.2487  1.0517
    5CHL1   C10  335   6.234   2.286   6.965 -0.5190  0.2755  1.2746
    5CHL1   C19  336   6.136   2.166   6.985  0.0755  0.0992  0.0581
    5CHL1  H19A  337   6.084   2.162   7.083 -0.1788 -0.7444 -0.1024
    5CHL1  H19B  338   6.046   2.168   6.920 -0.0486  0.4756  0.2356
    5CHL1  H19C  339   6.194   2.072   6.973 -0.9394 -0.4770 -0.4549
    5CHL1    C1  340   6.355   2.261   7.052  0.2000 -0.9400 -0.6354
    5CHL1   H1A  341   6.397   2.159   7.041  2.3341 -0.3884  1.6976
    5CHL1   H1B  342   6.436   2.332   7.022 -0.7611  1.1601  1.4775
    5CHL1    C2  343   6.336   2.274   7.209 -0.2231 -0.0523  0.2909
    5CHL1   H2A  344   6.437   2.261   7.254  0.4253 -1.1483 -1.3962
    5CHL1   H2B  345   6.276   2.192   7.255 -0.4572 -1.6885 -2.7183
    5CHL1   C20  346   6.378   2.207   6.282 -0.3811  0.2929 -0.0545
    5CHL1   H20  347   6.299   2.132   6.259  0.3623 -0.8599  0.9996
    5CHL1   C21  348   6.495   2.113   6.328 -0.2820 -0.3014 -0.2528
    5CHL1  H21A  349   6.544   2.055   6.246  1.6097 -1.5433  1.6620
    5CHL1  H21B  350   6.453   2.042   6.402 -0.3488  0.9613  0.9666
    5CHL1  H21C  351   6.564   2.173   6.391 -4.5306  1.9766  2.7949
    5CHL1   C22  352   6.411   2.261   6.141 -0.5627 -0.2401  0.2353
    5CHL1  H22A  353   6.358   2.356   6.118 -1.3239 -0.8509 -0.5685
    5CHL1  H22B  354   6.520   2.280   6.138 -0.8167  2.2031  2.5426
    5CHL1   C23  355   6.385   2.157   6.031 -0.4224 -0.3198 -0.1516
    5CHL1  H23A  356   6.449   2.073   6.065 -0.2026  0.0187  0.2962
    5CHL1  H23B  357   6.287   2.105   6.033 -0.7203  0.2334  1.6102
    5CHL1   C24  358   6.420   2.222   5.896 -0.1315 -0.3719 -0.0921
    5CHL1  H24A  359   6.346   2.302   5.871 -0.6102 -1.5765 -2.9795
    5CHL1  H24B  360   6.520   2.267   5.911  0.2303 -1.7395  1.8674
    5CHL1   C25  361   6.411   2.120   5.785  0.7308 -0.3186  0.8370
    5CHL1   H25  362   6.465   2.024   5.802  2.5790  0.8124  1.5326
    5CHL1   C26  363   6.269   2.090   5.765  0.8841  0.5778  0.2792
    5CHL1  H26A  364   6.255   2.019   5.681 -0.5537  0.7444  0.3553
    5CHL1  H26B  365   6.228   2.030   5.849 -1.2696 -1.9965 -2.3802
    5CHL1  H26C  366   6.198   2.171   5.740  0.4358 -0.5134 -2.3631
    5CHL1   C27  367   6.473   2.191   5.660  0.1801  0.3683  0.3754
    5CHL1  H27A  368   6.571   2.238   5.682  0.7900 -0.7323  0.0986
    5CHL1  H27B  369   6.477   2.125   5.571 -0.9706  1.1080 -0.2464
    5CHL1  H27C  370   6.418   2.278   5.620  0.0545  1.4278  2.6704
    6CHL1    C3  371   4.642   6.348   6.760  0.2155 -0.3758  0.5763
    6CHL1    H3  372   4.692   6.443   6.732 -1.4986  0.5770  0.5815
    6CHL1    O3  373   4.669   6.328   6.895 -0.7343 -1.0555 -0.9830
    6CHL1   H3'  374   4.762   6.308   6.903 -0.4342  0.3434 -0.6130
    6CHL1    C4  375   4.496   6.371   6.752  0.1014  0.0572  0.2517
    6CHL1   H4A  376   4.427   6.296   6.798  0.1705  0.2073  0.6039
    6CHL1   H4B  377   4.480   6.467   6.805  3.0180  0.2730  0.8688
    6CHL1    C5  378   4.447   6.385   6.604  0.3754 -0.4260 -0.2239
    6CHL1    C6  379   4.391   6.497   6.554 -0.6271  0.6464 -0.2312
    6CHL1    H6  380   4.359   6.578   6.621 -3.5822 -1.3889  1.0991
    6CHL1    C7  381   4.348   6.512   6.410  0.0662 -0.2308  0.5373
    6CHL1   H7A  382   4.241   6.543   6.402  0.0169 -0.6849 -1.0058
    6CHL1   H7B  383   4.410   6.591   6.362 -0.3751 -1.9713 -3.3304
    6CHL1    C8  384   4.354   6.378   6.325 -0.2291  0.7011 -0.4509
    6CHL1    H8  385   4.268   6.317   6.360  0.5236 -0.9999 -1.4461
    6CHL1   C14  386   4.337   6.404   6.180  0.3414 -0.2242  0.2077
    6CHL1   H14  387   4.434   6.453   6.157  0.3055 -1.6118 -3.6971
    6CHL1   C15  388   4.220   6.498   6.136 -0.0886  0.3830  0.0046
    6CHL1  H15A  389   4.123   6.454   6.169  0.0843  0.3477  0.4747
    6CHL1  H15B  390   4.231   6.600   6.179 -1.4230  1.6013 -2.3619
    6CHL1   C16  391   4.232   6.488   5.982  0.4135  0.4554 -0.7027
    6CHL1  H16A  392   4.133   6.466   5.938 -0.1662  1.4250  0.0753
    6CHL1  H16B  393   4.261   6.584   5.934 -0.0785 -0.4323 -2.9206
    6CHL1   C17  394   4.325   6.367   5.947  0.0667  0.2169 -0.0439
    6CHL1   H17  395   4.418   6.417   5.912 -0.1234  0.7031  0.1453
    6CHL1   C13  396   4.336   6.289   6.083  0.1891 -0.0782 -0.9276
    6CHL1   C18  397   4.217   6.194   6.099  0.3149 -0.2422  0.4579
    6CHL1  H18A  398   4.118   6.240   6.081  0.8506  0.7786  0.0230
    6CHL1  H18B  399   4.229   6.101   6.040  1.2224 -0.7640  1.4256
    6CHL1  H18C  400   4.193   6.161   6.203 -0.4863 -0.9854  0.0466
    6CHL1   C12  401   4.475   6.216   6.108 -0.1659  0.4210  0.2290
    6CHL1  H12A  402   4.470   6.119   6.054 -1.7033  1.0217 -0.7534
    6CHL1  H12B  403   4.554   6.286   6.072  2.0604 -0.4346  3.0332
    6CHL1   C11  404   4.499   6.176   6.259 -0.2140 -0.1238 -0.4310
    6CHL1  H11A  405   4.423   6.098   6.281  0.0678 -0.0576  0.9026
    6CHL1  H11B  406   4.599   6.129   6.275  0.0611  0.4178 -0.5569
    6CHL1    C9  407   4.475   6.302   6.360  0.3116 -0.1887  0.3038
    6CHL1    H9  408   4.561   6.366   6.330  0.6810  0.5695  2.7466
    6CHL1   C10  409   4.489   6.274   6.512 -0.6151 -0.3552 -0.0949
    6CHL1   C19  410   4.402   6.153   6.545 -0.6898  0.6777  0.4985
    6CHL1  H19A  411   4.403   6.068   6.474 -1.2792 -0.6876  2.0451
    6CHL1  H19B  412   4.427   6.098   6.638  0.2168 -1.4135 -0.9168
    6CHL1  H19C  413   4.294   6.172   6.561 -0.7368  0.2215  0.7378
    6CHL1    C1  414   4.646   6.236   6.537 -0.2659  0.0476 -0.2771
    6CHL1   H1A  415   4.662   6.138   6.488 -1.9923 -0.3650 -0.1014
    6CHL1   H1B  416   4.716   6.310   6.492  0.6233 -1.7711 -2.0238
    6CHL1    C2  417   4.681   6.227   6.680 -0.1111  0.1279 -0.2503
    6CHL1   H2A  418   4.791   6.212   6.691 -0.2397  0.3038  1.6495
    6CHL1   H2B  419   4.639   6.133   6.722  0.4163  0.0748  0.1794
    6CHL1   C20  420   4.269   6.293   5.826 -0.1022  0.7323  0.1227
    6CHL1   H20  421   4.170   6.256   5.862  0.9578 -0.8602  1.5212
    6CHL1   C21  422   4.364   6.180   5.803  0.1157  0.3165 -0.2760
    6CHL1  H21A  423   4.343   6.082   5.850  1.7210 -1.1018 -2.3034
    6CHL1  H21B  424   4.463   6.201   5.848  0.8249 -1.3266 -0.9782
    6CHL1  H21C  425   4.374   6.158   5.694  2.2274 -3.0023  0.4423
    6CHL1   C22  426   4.242   6.377   5.700  0.0364 -0.6047 -0.3913
    6CHL1  H22A  427   4.216   6.304   5.620 -2.1556  0.9152 -1.1749
    6CHL1  H22B  428   4.154   6.444   5.715  0.4859 -0.1046  0.0188
    6CHL1   C23  429   4.355   6.466   5.650 -0.6061  0.3028  0.3283
    6CHL1  H23A  430   4.346   6.552   5.720  1.9838  2.5691 -1.8760
    6CHL1  H23B  431   4.457   6.426   5.668 -1.3612 -1.0388  1.9081
    6CHL1   C24  432   4.343   6.505   5.504  0.0323 -0.1800  0.1844
    6CHL1  H24A  433   4.399   6.427   5.447 -0.0815 -0.0980 -0.0429
    6CHL1  H24B  434   4.241   6.521   5.463  0.3704  0.5502 -0.4092
    6CHL1   C25  435   4.429   6.630   5.469 -0.2517 -0.0533 -0.1997
    6CHL1   H25  436   4.522   6.640   5.528 -1.1136  1.0712  1.0126
    6CHL1   C26  437   4.462   6.634   5.310  0.1315  0.0261 -0.0409
    6CHL1  H26A  438   4.517   6.729   5.293  4.1188 -2.0943 -0.1732
    6CHL1  H26B  439   4.527   6.549   5.284  0.8891  0.0136  1.7283
    6CHL1  H26C  440   4.365   6.623   5.256 -0.9955  1.5325  1.5387
    6CHL1   C27  441   4.355   6.754   5.507 -0.5781  0.5338  0.0760
    6CHL1  H27A  442   4.343   6.758   5.618 -0.2446  0.8978  0.1014
    6CHL1  H27B  443   4.412   6.837   5.460  1.2641 -0.1710  0.9555
    6CHL1  H27C  444   4.251   6.759   5.469 -1.1975  0.9174  1.7150
    7CHL1    C3  445   0.163   0.844   6.986  0.5933  0.6985  0.1723
    7CHL1    H3  446   0.053   0.835   6.986  0.7472 -2.5717  2.0516
    7CHL1    O3  447   0.207   0.854   7.119  0.2185 -0.2222  0.0386
    7CHL1   H3'  448   0.162   0.780   7.159 -0.5518 -0.3685 -1.0642
    7CHL1    C4  449   0.223   0.715   6.920 -0.5571 -0.2465  0.4927
    7CHL1   H4A  450   0.330   0.726   6.946 -0.7786  0.4609  1.1155
    7CHL1   H4B  451   0.181   0.625   6.970  1.0913 -0.8653  0.8242
    7CHL1    C5  452   0.208   0.714   6.766  0.2274 -0.3436 -0.1382
    7CHL1    C6  453   0.168   0.608   6.695 -0.3068  0.1562 -0.3430
    7CHL1    H6  454   0.139   0.517   6.750 -0.3015  0.6749  0.5324
    7CHL1    C7  455   0.151   0.607   6.545 -0.2823 -0.0312  0.1823
    7CHL1   H7A  456   0.192   0.511   6.506 -1.7620  0.1598 -2.0033
    7CHL1   H7B  457   0.043   0.611   6.518 -0.4273 -0.5498  0.6435
    7CHL1    C8  458   0.211   0.724   6.468  0.0789  1.1267 -0.2463
    7CHL1    H8  459   0.320   0.707   6.460 -0.1164  0.7041 -3.1320
    7CHL1   C14  460   0.159   0.730   6.328 -0.5991  0.4946 -0.1422
    7CHL1   H14  461   0.049   0.746   6.342 -0.2324  1.9520  1.4226
    7CHL1   C15  462   0.158   0.603   6.236  0.4302  0.4246  0.2845
    7CHL1  H15A  463   0.266   0.580   6.224 -0.0239 -1.6937 -0.2047
    7CHL1  H15B  464   0.103   0.509   6.256 -0.2862  0.8581  0.3767
    7CHL1   C16  465   0.114   0.672   6.098  0.0493  0.8215 -0.4113
    7CHL1  H16A  466   0.180   0.638   6.016  3.7795  1.2408  2.1710
    7CHL1  H16B  467   0.006   0.653   6.078  0.0537 -0.6586  0.7983
    7CHL1   C17  468   0.118   0.829   6.104 -0.3465 -0.0751 -0.4345
    7CHL1   H17  469   0.014   0.860   6.130  0.1401  1.7505 -0.5640
    7CHL1   C13  470   0.194   0.852   6.241 -0.5060 -0.3994 -0.1821
    7CHL1   C18  471   0.340   0.838   6.217  0.3221  0.2977  0.5308
    7CHL1  H18A  472   0.375   0.939   6.185  1.3861 -0.3209 -0.3353
    7CHL1  H18B  473   0.406   0.810   6.302  1.3045  0.7303 -0.0639
    7CHL1  H18C  474   0.359   0.782   6.123  1.2456  2.3004 -0.5548
    7CHL1   C12  475   0.150   0.974   6.323 -0.1987 -0.6294  0.9092
    7CHL1  H12A  476   0.178   1.062   6.261 -0.2999 -0.3831  1.2070
    7CHL1  H12B  477   0.043   0.966   6.352 -0.6971 -0.0043 -0.6691
    7CHL1   C11  478   0.215   0.973   6.461 -0.3844 -0.0897 -0.0625
    7CHL1  H11A  479   0.325   0.991   6.461 -0.2397 -0.5788 -3.0903
    7CHL1  H11B  480   0.176   1.069   6.504  1.2905  0.7850 -0.4236
    7CHL1    C9  481   0.176   0.850   6.547  0.1327 -0.4729 -0.3393
    7CHL1    H9  482   0.065   0.852   6.560  0.1504  3.5478  0.2040
    7CHL1   C10  483   0.238   0.857   6.695 -0.0121 -0.0296 -0.4786
    7CHL1   C19  484   0.390   0.878   6.695  0.3560 -0.5258 -0.3023
    7CHL1  H19A  485   0.413   0.983   6.668 -2.5659  0.1241 -0.5525
    7CHL1  H19B  486   0.427   0.867   6.800 -0.8798 -0.7640  0.1217
    7CHL1  H19C  487   0.434   0.800   6.629  0.1677 -3.3216  2.6523
    7CHL1    C1  488   0.179   0.977   6.763 -0.2807 -0.3016 -0.2862
    7CHL1   H1A  489   0.225   1.069   6.721 -0.4233  0.9791  2.1356
    7CHL1   H1B  490   0.069   0.982   6.748 -0.6709 -1.8569  1.5840
    7CHL1    C2  491   0.209   0.979   6.922  0.5561  1.2272 -0.3109
    7CHL1   H2A  492   0.147   1.059   6.967 -0.0420  0.6748 -0.1326
    7CHL1   H2B  493   0.318   0.995   6.935  0.6253  0.6573 -0.1583
    7CHL1   C20  494   0.166   0.887   5.971  0.3378  0.1470 -0.6241
    7CHL1   H20  495   0.272   0.855   5.967  0.8607  1.2275  2.3739
    7CHL1   C21  496   0.157   1.038   5.989  0.2778 -0.6362 -0.4043
    7CHL1  H21A  497   0.218   1.080   6.071 -0.4703  1.7733 -0.9970
    7CHL1  H21B  498   0.052   1.071   6.002  0.5007 -0.3954  0.8944
    7CHL1  H21C  499   0.210   1.082   5.902 -0.6931  4.0048  1.1135
    7CHL1   C22  500   0.080   0.838   5.843  0.1519 -0.2897 -0.4700
    7CHL1  H22A  501   0.100   0.730   5.829  1.7864  0.0149 -0.6551
    7CHL1  H22B  502  -0.025   0.856   5.875  0.7587  2.3260  0.3057
    7CHL1   C23  503   0.104   0.916   5.710 -0.0848 -0.5907  0.0981
    7CHL1  H23A  504   0.012   0.898   5.651  0.9990 -1.7235 -1.2887
    7CHL1  H23B  505   0.114   1.026   5.725 -0.6592 -0.5248  0.0383
    7CHL1   C24  506   0.226   0.857   5.639 -0.1243  0.1772  0.0951
    7CHL1  H24A  507   0.318   0.854   5.700  0.5860 -0.3706 -0.9793
    7CHL1  H24B  508   0.203   0.752   5.612 -0.5076  0.1245  0.6277
    7CHL1   C25  509   0.274   0.926   5.514 -0.3976 -0.2120  0.2579
    7CHL1   H25  510   0.349   1.006   5.529  2.3824 -2.8075  1.1332
    7CHL1   C26  511   0.371   0.825   5.447  0.0088  0.0212  0.1907
    7CHL1  H26A  512   0.423   0.878   5.364  0.7823  0.9070  1.2118
    7CHL1  H26B  513   0.450   0.789   5.517  0.0804 -0.4172 -0.1090
    7CHL1  H26C  514   0.311   0.740   5.408 -0.6008  0.7714 -0.5608
    7CHL1   C27  515   0.165   0.974   5.412 -0.9519  0.6053  0.1174
    7CHL1  H27A  516   0.083   0.899   5.404 -0.6240  0.3795 -1.3071
    7CHL1  H27B  517   0.124   1.076   5.429  1.7012  1.6502  0.6967
    7CHL1  H27C  518   0.207   0.984   5.310  0.7612 -0.2179  0.7094
    8CHL1    C3  519   4.777   1.262   6.980 -0.4338 -0.6534  0.1210
    8CHL1    H3  520   4.703   1.180   6.976 -1.0155 -0.0795 -1.7575
    8CHL1    O3  521   4.799   1.318   7.113  0.3254  0.0743 -0.0214
    8CHL1   H3'  522   4.855   1.249   7.151  1.3066  0.8926  0.0709
    8CHL1    C4  523   4.910   1.209   6.921 -0.3006 -0.4071  0.3049
    8CHL1   H4A  524   4.993   1.279   6.947  0.7942 -1.1894 -0.9165
    8CHL1   H4B  525   4.929   1.111   6.971  0.6377 -0.9487 -1.0677
    8CHL1    C5  526   4.909   1.183   6.775  0.5314  0.1185  0.1270
    8CHL1    C6  527   4.943   1.059   6.732 -0.6065 -0.3353  0.1762
    8CHL1    H6  528   4.980   0.974   6.790  0.9506 -0.9217 -1.5669
    8CHL1    C7  529   4.940   1.023   6.582  0.5883 -0.4566 -0.1947
    8CHL1   H7A  530   5.030   0.963   6.558 -1.3347 -3.8476  0.3820
    8CHL1   H7B  531   4.845   0.968   6.561 -1.0302  1.6881  1.0076
    8CHL1    C8  532   4.950   1.152   6.489  0.0914 -0.2681  0.3388
    8CHL1    H8  533   5.050   1.201   6.489 -0.5073  1.1558 -2.8128
    8CHL1   C14  534   4.916   1.120   6.342  0.5084  0.3828 -0.0249
    8CHL1   H14  535   4.814   1.077   6.335  0.3333  0.7529  0.2602
    8CHL1   C15  536   4.993   1.001   6.282 -0.1214 -0.0167  0.3015
    8CHL1  H15A  537   5.096   1.005   6.323 -0.5429  1.8270  1.2651
    8CHL1  H15B  538   4.951   0.899   6.294 -1.6419  0.5428 -0.0193
    8CHL1   C16  539   4.994   1.028   6.135 -0.6443  0.3062  0.9133
    8CHL1  H16A  540   5.100   1.050   6.108 -0.5990 -0.2958  0.5948
    8CHL1  H16B  541   4.950   0.948   6.074 -0.5897  1.0664 -0.1512
    8CHL1   C17  542   4.910   1.162   6.111 -0.4179  0.7369 -0.0123
    8CHL1   H17  543   4.802   1.135   6.106 -0.6556  1.8363 -1.3271
    8CHL1   C13  544   4.920   1.234   6.250 -0.0204 -0.1633  0.8708
    8CHL1   C18  545   5.047   1.315   6.253 -0.2381  0.6709 -0.3364
    8CHL1  H18A  546   5.064   1.365   6.351 -1.3734 -0.9228  0.7233
    8CHL1  H18B  547   5.125   1.240   6.229 -0.6772 -0.3302  1.2248
    8CHL1  H18C  548   5.065   1.392   6.175 -2.0696  0.4812 -0.9718
    8CHL1   C12  549   4.810   1.332   6.291  0.4166  0.6904  0.1502
    8CHL1  H12A  550   4.813   1.422   6.227 -1.2273  0.3220 -0.4967
    8CHL1  H12B  551   4.711   1.283   6.283  0.1293  1.3278 -0.2038
    8CHL1   C11  552   4.825   1.374   6.441  0.0697 -0.2313 -0.2535
    8CHL1  H11A  553   4.914   1.441   6.440  0.1663 -0.3580 -0.3975
    8CHL1  H11B  554   4.734   1.433   6.463  0.7297  1.0862 -0.9650
    8CHL1    C9  555   4.844   1.254   6.539  0.0594 -0.7852  0.5034
    8CHL1    H9  556   4.748   1.198   6.535 -1.3109  1.3462  1.5173
    8CHL1   C10  557   4.856   1.295   6.686 -0.2159  0.1902 -0.9212
    8CHL1   C19  558   4.971   1.398   6.693  0.3727  0.0354  0.3425
    8CHL1  H19A  559   4.978   1.446   6.793 -1.6433  0.5673  0.2727
    8CHL1  H19B  560   5.071   1.366   6.656  0.6497 -0.0284  1.1262
    8CHL1  H19C  561   4.940   1.491   6.639 -0.4619 -0.7826 -0.6222
    8CHL1    C1  562   4.729   1.367   6.737 -1.1202  0.9586  0.6012
    8CHL1   H1A  563   4.722   1.465   6.686  3.5043  0.7265 -0.9712
    8CHL1   H1B  564   4.643   1.303   6.710  0.9199 -1.6379 -0.2104
    8CHL1    C2  565   4.713   1.374   6.889 -0.0420  0.0372 -0.6476
    8CHL1   H2A  566   4.608   1.388   6.923  0.9380  1.8271  2.0341
    8CHL1   H2B  567   4.768   1.467   6.916 -1.3850  0.3219  1.2792
    8CHL1   C20  568   4.947   1.236   5.979  0.0744  0.2569  0.4948
    8CHL1   H20  569   5.056   1.255   5.992  0.2313 -0.3948  0.1797
    8CHL1   C21  570   4.854   1.356   5.950  0.4616  0.5792  0.1255
    8CHL1  H21A  571   4.863   1.384   5.842  1.2952 -1.0189 -0.2520
    8CHL1  H21B  572   4.886   1.439   6.017  2.2516  0.3266 -0.3439
    8CHL1  H21C  573   4.751   1.327   5.979  0.5928  0.3925  0.4064
    8CHL1   C22  574   4.935   1.146   5.862 -0.7233 -0.0207  0.7059
    8CHL1  H22A  575   4.964   1.041   5.880 -0.2579 -0.4025 -1.9408
    8CHL1  H22B  576   4.826   1.147   5.842 -0.7335 -1.2854  0.6414
    8CHL1   C23  577   5.022   1.187   5.736  0.7133  0.3814 -0.7150
    8CHL1  H23A  578   4.975   1.277   5.690  0.7192  0.1749 -1.1277
    8CHL1  H23B  579   5.118   1.224   5.778 -0.0362  1.4760  0.1197
    8CHL1   C24  580   5.040   1.074   5.641 -0.2827  0.1453  0.0270
    8CHL1  H24A  581   5.114   1.005   5.686  0.2225  0.3591 -0.4682
    8CHL1  H24B  582   4.941   1.023   5.636 -0.3121  0.2951 -1.8283
    8CHL1   C25  583   5.088   1.121   5.504 -0.0843  0.4126  0.7014
    8CHL1   H25  584   5.158   1.203   5.531  2.2214 -1.4948  0.8349
    8CHL1   C26  585   5.179   1.020   5.428 -0.0658  0.5469  0.3135
    8CHL1  H26A  586   5.257   0.974   5.491 -1.9402 -1.7597  1.1115
    8CHL1  H26B  587   5.124   0.934   5.385  2.2736 -0.7288 -0.2508
    8CHL1  H26C  588   5.221   1.076   5.341  0.7568 -1.5515 -0.7173
    8CHL1   C27  589   4.968   1.167   5.422  0.2549  0.0972 -0.3946
    8CHL1  H27A  590   4.912   1.227   5.497  0.0623  0.9111 -1.1862
    8CHL1  H27B  591   4.999   1.212   5.326  1.4603 -3.3337 -1.7940
    8CHL1  H27C  592   4.909   1.074   5.405  0.4262 -0.0892  0.0127
    9CHL1    C3  593   0.345   1.812   7.074  0.2413  0.2854 -0.0601
    9CHL1    H3  594   0.287   1.720   7.054  1.9836 -0.4235 -2.2052
    9CHL1    O3  595   0.328   1.847   7.216 -0.7554  0.4958 -0.3550
    9CHL1   H3'  596   0.397   1.913   7.225 -0.1489  0.0070 -1.2529
    9CHL1    C4  597   0.492   1.797   7.033 -0.2225 -0.0341 -0.0109
    9CHL1   H4A  598   0.544   1.895   7.042  0.1121  0.1677 -2.9387
    9CHL1   H4B  599   0.543   1.734   7.109 -1.9949 -0.8434  0.5751
    9CHL1    C5  600   0.512   1.748   6.891 -0.4236 -0.3390  0.1542
    9CHL1    C6  601   0.584   1.638   6.858  0.2372 -0.5485 -0.7412
    9CHL1    H6  602   0.608   1.569   6.940 -5.4836 -1.0324  0.9465
    9CHL1    C7  603   0.615   1.600   6.715  0.0021  0.6459  0.1861
    9CHL1   H7A  604   0.725   1.590   6.706 -0.2594 -2.6774 -0.5356
    9CHL1   H7B  605   0.571   1.501   6.689 -0.2032  0.4525  1.2030
    9CHL1    C8  606   0.574   1.715   6.614  1.1640  0.0513  0.4145
    9CHL1    H8  607   0.650   1.795   6.624 -0.1063  1.5730 -1.3030
    9CHL1   C14  608   0.579   1.668   6.470 -0.6279  0.3955  0.1768
    9CHL1   H14  609   0.502   1.589   6.458  0.7620 -0.8196 -1.1571
    9CHL1   C15  610   0.703   1.599   6.421  0.3124  0.5753 -0.4155
    9CHL1  H15A  611   0.800   1.648   6.445  1.4777 -2.7033  2.3641
    9CHL1  H15B  612   0.710   1.493   6.451 -1.9373  0.5550  0.2158
    9CHL1   C16  613   0.683   1.605   6.267 -0.8291  0.1194 -0.8017
    9CHL1  H16A  614   0.767   1.657   6.216 -0.3022  0.9332  0.8358
    9CHL1  H16B  615   0.663   1.509   6.213 -0.0194  0.0729 -1.0339
    9CHL1   C17  616   0.551   1.694   6.240 -0.5402 -0.2452  0.3464
    9CHL1   H17  617   0.472   1.621   6.214  0.9426 -1.0997 -2.0838
    9CHL1   C13  618   0.528   1.770   6.370  0.3445  0.4156 -0.4582
    9CHL1   C18  619   0.630   1.890   6.365 -0.0465 -0.3956  0.0371
    9CHL1  H18A  620   0.596   1.969   6.295  0.0171 -0.4186 -0.0198
    9CHL1  H18B  621   0.627   1.933   6.468  0.5130 -3.5099  1.4761
    9CHL1  H18C  622   0.734   1.865   6.334  0.3160 -0.2164  1.0527
    9CHL1   C12  623   0.377   1.799   6.402 -0.3754  0.7486 -0.1852
    9CHL1  H12A  624   0.344   1.873   6.326 -1.0203 -0.3532 -0.9998
    9CHL1  H12B  625   0.312   1.709   6.405  0.4743  0.1403  0.2383
    9CHL1   C11  626   0.374   1.855   6.547  0.2442  0.0457 -0.0599
    9CHL1  H11A  627   0.432   1.950   6.543  1.0893 -0.4960 -1.3512
    9CHL1  H11B  628   0.267   1.857   6.574  0.7365  1.0784  2.0248
    9CHL1    C9  629   0.438   1.770   6.652 -0.2895 -0.2293 -0.6412
    9CHL1    H9  630   0.375   1.679   6.658  0.2133 -0.6451 -1.5838
    9CHL1   C10  631   0.436   1.847   6.794  0.1896 -0.4631 -0.0529
    9CHL1   C19  632   0.515   1.974   6.784  0.3944  1.0528 -0.6935
    9CHL1  H19A  633   0.452   2.054   6.742  0.9630  0.4799 -2.7400
    9CHL1  H19B  634   0.542   2.009   6.886 -0.0676  1.5740 -0.7423
    9CHL1  H19C  635   0.614   1.977   6.734  0.2877  1.2364 -0.8904
    9CHL1    C1  636   0.291   1.878   6.842 -0.3921 -0.2143 -0.3598
    9CHL1   H1A  637   0.241   1.943   6.767  3.1758  1.3115 -1.6269
    9CHL1   H1B  638   0.232   1.784   6.843  1.6473 -1.5958 -1.9550
    9CHL1    C2  639   0.282   1.926   6.989 -0.3046  0.2919 -0.0301
    9CHL1   H2A  640   0.179   1.938   7.027  0.4431 -0.4913  2.4421
    9CHL1   H2B  641   0.339   2.021   6.996  0.0015  0.2308 -1.3816
    9CHL1   C20  642   0.577   1.773   6.106  0.0799 -0.0207  0.8760
    9CHL1   H20  643   0.665   1.840   6.113  1.2053 -1.5724  2.2982
    9CHL1   C21  644   0.450   1.856   6.079  0.6390 -0.0341 -0.0519
    9CHL1  H21A  645   0.356   1.803   6.105 -1.2088  2.3976 -1.4234
    9CHL1  H21B  646   0.455   1.885   5.972  0.6129 -0.8464 -0.2804
    9CHL1  H21C  647   0.442   1.947   6.141 -1.9639  0.5228 -1.0519
    9CHL1   C22  648   0.602   1.684   5.982  0.4860  0.1557  0.5150
    9CHL1  H22A  649   0.688   1.617   6.006 -1.1698 -1.9781  0.8622
    9CHL1  H22B  650   0.512   1.621   5.963 -0.0229  0.9545  0.2578
    9CHL1   C23  651   0.645   1.756   5.852  0.6326  0.4680  0.1841
    9CHL1  H23A  652   0.558   1.817   5.820  0.5373  0.5220  0.5506
    9CHL1  H23B  653   0.742   1.809   5.863  0.2251  1.3484 -0.3487
    9CHL1   C24  654   0.662   1.647   5.746  0.3701  0.2210  0.1415
    9CHL1  H24A  655   0.754   1.593   5.778  0.2252 -0.3861 -0.4427
    9CHL1  H24B  656   0.570   1.585   5.743 -0.9841  2.1890 -1.6969
    9CHL1   C25  657   0.703   1.681   5.603 -0.5859 -0.0310 -0.6962
    9CHL1   H25  658   0.791   1.746   5.624 -2.0425  1.8857 -0.1880
    9CHL1   C26  659   0.746   1.554   5.527  0.2495 -0.4786  0.5949
    9CHL1  H26A  660   0.667   1.479   5.506  1.8717 -1.8379 -0.9693
    9CHL1  H26B  661   0.796   1.582   5.432  0.7201  1.1695  1.2880
    9CHL1  H26C  662   0.836   1.509   5.574  3.2355  1.2071 -2.9632
    9CHL1   C27  663   0.595   1.768   5.537 -0.4413  0.1774  0.6029
    9CHL1  H27A  664   0.562   1.849   5.605  2.0133 -0.5657  2.8600
    9CHL1  H27B  665   0.636   1.816   5.446 -0.0080 -0.5250  0.4177
    9CHL1  H27C  666   0.506   1.703   5.518  0.5251 -0.4452 -2.2663
   10CHL1    C3  667   0.821   2.750   7.052  0.6707 -0.2165 -0.6037
   10CHL1    H3  668   0.793   2.644   7.069 -0.1323  0.1519  0.4336
   10CHL1    O3  669   0.831   2.796   7.187 -0.0460  0.0136  0.2273
   10CHL1   H3'  670   0.743   2.811   7.223  0.1114  1.9696 -0.1061
   10CHL1    C4  671   0.959   2.754   6.985  0.2823  0.5705  0.0357
   10CHL1   H4A  672   1.007   2.853   6.997 -0.0398  0.6327  0.8326
   10CHL1   H4B  673   1.024   2.697   7.054 -1.3886 -1.5206 -0.0332
   10CHL1    C5  674   0.955   2.696   6.844  0.5232 -0.3153  0.1053
   10CHL1    C6  675   1.025   2.591   6.815 -0.0877 -0.0476 -0.1185
   10CHL1    H6  676   1.084   2.542   6.894  1.8178  1.2184 -0.7023
   10CHL1    C7  677   1.028   2.526   6.680  0.3177  0.2638 -0.1290
   10CHL1   H7A  678   1.129   2.490   6.650  0.2978  1.2171 -1.4570
   10CHL1   H7B  679   0.960   2.438   6.679 -0.6747  0.9198 -3.5159
   10CHL1    C8  680   0.980   2.628   6.574 -0.2457 -0.7683  0.4276
   10CHL1    H8  681   1.057   2.707   6.570 -0.8470 -0.2096 -0.7122
   10CHL1   C14  682   0.975   2.561   6.429 -0.4170 -0.2049 -0.3150
   10CHL1   H14  683   0.898   2.484   6.452  0.6418 -0.9674  0.8200
   10CHL1   C15  684   1.093   2.495   6.366  0.1196 -0.2161 -0.9696
   10CHL1  H15A  685   1.176   2.565   6.387 -1.4934  1.5934 -0.3199
   10CHL1  H15B  686   1.118   2.393   6.403  1.5050  0.2909 -0.4673
   10CHL1   C16  687   1.071   2.499   6.212 -0.3568  0.3747 -0.3931
   10CHL1  H16A  688   1.157   2.555   6.168 -0.5198 -0.5384 -1.9539
   10CHL1  H16B  689   1.073   2.397   6.168 -0.5913 -0.4027  1.3172
   10CHL1   C17  690   0.929   2.565   6.196 -0.2078 -0.0058 -0.0931
   10CHL1   H17  691   0.863   2.479   6.216 -1.1734  0.6855 -0.2457
   10CHL1   C13  692   0.921   2.657   6.321  0.0725 -0.1092 -0.3538
   10CHL1   C18  693   1.009   2.781   6.303 -0.4124 -0.3966 -0.1120
   10CHL1  H18A  694   0.980   2.856   6.227 -0.3937  0.3856  0.6317
   10CHL1  H18B  695   1.034   2.840   6.394  4.6816  2.1125 -2.7283
   10CHL1  H18C  696   1.112   2.746   6.282 -0.7793 -1.0406 -0.8744
   10CHL1   C12  697   0.776   2.700   6.361  0.7426 -0.4448 -0.4878
   10CHL1  H12A  698   0.733   2.779   6.295 -0.3645 -1.8061 -1.4538
   10CHL1  H12B  699   0.707   2.614   6.364 -0.0397 -0.1387 -4.1472
   10CHL1   C11  700   0.788   2.769   6.501  0.2162 -1.1402  0.0069
   10CHL1  H11A  701   0.838   2.867   6.484  0.3463 -1.1118  0.5143
   10CHL1  H11B  702   0.688   2.791   6.545  0.1774  1.7376 -1.3003
   10CHL1    C9  703   0.848   2.684   6.613  0.3535  0.8294 -0.5314
   10CHL1    H9  704   0.774   2.602   6.628  1.5906  0.1013  2.1592
   10CHL1   C10  705   0.858   2.760   6.749  0.5351 -0.9876  0.2840
   10CHL1   C19  706   0.916   2.905   6.732  0.0191  0.1829  0.1179
   10CHL1  H19A  707   1.009   2.903   6.670 -0.5715  0.7328 -0.8061
   10CHL1  H19B  708   0.838   2.964   6.680 -0.3864 -0.5546 -0.1204
   10CHL1  H19C  709   0.932   2.968   6.822  1.5514  1.7197 -1.1530
   10CHL1    C1  710   0.716   2.769   6.817 -0.1216  0.2987 -0.3240
   10CHL1   H1A  711   0.654   2.842   6.762  1.7762  1.5453 -0.9147
   10CHL1   H1B  712   0.677   2.665   6.815 -0.0686  0.2850 -0.5888
   10CHL1    C2  713   0.716   2.826   6.965 -0.7102  0.0429  0.1647
   10CHL1   H2A  714   0.613   2.827   7.005 -0.0087  2.5399  2.1933
   10CHL1   H2B  715   0.742   2.934   6.959 -1.2215  0.0787 -2.0226
   10CHL1   C20  716   0.896   2.611   6.046 -0.2244 -0.2842 -0.4560
   10CHL1   H20  717   0.954   2.699   6.013  0.7575 -1.2733 -1.4932
   10CHL1   C21  718   0.747   2.652   6.044  0.3219 -0.8341 -0.7771
   10CHL1  H21A  719   0.736   2.741   6.111  0.5219 -3.2309  2.7090
   10CHL1  H21B  720   0.686   2.565   6.075 -1.1602  0.3027 -0.3480
   10CHL1  H21C  721   0.711   2.672   5.941 -0.8643 -0.3505 -0.2957
   10CHL1   C22  722   0.941   2.500   5.944 -0.5612  0.3161 -0.0606
   10CHL1  H22A  723   1.052   2.495   5.948 -0.5901  0.2684  0.7228
   10CHL1  H22B  724   0.908   2.399   5.975 -1.7758  1.1920  1.7002
   10CHL1   C23  725   0.904   2.531   5.806  0.6119  0.6091  0.3024
   10CHL1  H23A  726   0.794   2.543   5.797  0.6480  1.1262  0.4918
   10CHL1  H23B  727   0.954   2.625   5.776  1.8267 -0.5260 -1.3922
   10CHL1   C24  728   0.953   2.428   5.712 -0.1029 -0.0032  0.2744
   10CHL1  H24A  729   1.062   2.435   5.691 -0.3459  0.8597 -0.8125
   10CHL1  H24B  730   0.930   2.332   5.763 -1.3225  0.6553  1.0151
   10CHL1   C25  731   0.863   2.443   5.579  0.3300  0.3315 -0.8186
   10CHL1   H25  732   0.756   2.435   5.607  0.3321  0.3333 -0.8098
   10CHL1   C26  733   0.870   2.580   5.509  0.4775  0.3015 -0.0825
   10CHL1  H26A  734   0.864   2.670   5.575  2.5305  0.4813 -0.0625
   10CHL1  H26B  735   0.973   2.600   5.472 -0.3707  4.0227 -0.9367
   10CHL1  H26C  736   0.802   2.600   5.424  2.4608  3.2758 -1.1710
   10CHL1   C27  737   0.907   2.327   5.487  0.1043  0.1192 -0.5143
   10CHL1  H27A  738   1.016   2.319   5.464  0.1245  2.2872 -1.3872
   10CHL1  H27B  739   0.885   2.235   5.546 -0.4147  0.6662  0.1628
   10CHL1  H27C  740   0.841   2.325   5.398  0.6120  0.4484 -0.9022
   11CHL1    C3  741   4.804   6.681   6.838  0.4070  0.2378 -0.1565
   11CHL1    H3  742   4.788   6.572   6.848 -0.1402  0.4911  2.4303
   11CHL1    O3  743   4.817   6.726   6.972  0.2053  0.2537  0.0865
   11CHL1   H3'  744   4.882   6.666   7.010  0.0006 -0.8631 -1.2394
   11CHL1    C4  745   4.939   6.706   6.764  0.1889  0.3407 -0.1007
   11CHL1   H4A  746   4.975   6.811   6.760  0.9358  0.1146  0.6550
   11CHL1   H4B  747   5.025   6.658   6.814 -0.4017 -1.2846 -0.5830
   11CHL1    C5  748   4.928   6.663   6.616 -0.0061  0.4492  0.1155
   11CHL1    C6  749   5.021   6.580   6.569  0.9233 -0.0246  0.0593
   11CHL1    H6  750   5.100   6.553   6.641 -0.8351  1.3161  2.6434
   11CHL1    C7  751   5.036   6.550   6.421  0.1720  0.1209 -0.1620
   11CHL1   H7A  752   5.136   6.577   6.381  0.5066  1.0916  1.2578
   11CHL1   H7B  753   5.022   6.441   6.405  2.0342 -0.5872  2.3052
   11CHL1    C8  754   4.936   6.634   6.335 -0.5224  0.0663  0.2162
   11CHL1    H8  755   4.984   6.733   6.317 -1.4921  0.3020 -1.2337
   11CHL1   C14  756   4.918   6.569   6.201 -0.7370  0.2668 -0.6441
   11CHL1   H14  757   4.877   6.466   6.209  0.6582 -0.3281 -0.8536
   11CHL1   C15  758   5.049   6.545   6.118 -0.1501 -0.6063 -0.7501
   11CHL1  H15A  759   5.114   6.634   6.130 -1.2625  0.8519 -4.3617
   11CHL1  H15B  760   5.111   6.456   6.145 -0.2366 -0.4880 -0.1483
   11CHL1   C16  761   5.001   6.534   5.974  0.2595 -0.4185  0.2353
   11CHL1  H16A  762   5.067   6.594   5.909  0.2871 -1.4219 -0.7004
   11CHL1  H16B  763   5.008   6.425   5.952 -0.5949 -0.2419 -0.9898
   11CHL1   C17  764   4.846   6.568   5.970 -0.1475 -0.1375 -0.8435
   11CHL1   H17  765   4.788   6.473   5.974  0.0102 -0.2034  3.3821
   11CHL1   C13  766   4.830   6.639   6.106 -0.2954  0.2063 -0.0191
   11CHL1   C18  767   4.892   6.784   6.084  0.1594  0.6149 -0.0074
   11CHL1  H18A  768   4.992   6.781   6.035  1.5174  2.3174  2.4478
   11CHL1  H18B  769   4.829   6.833   6.007  1.6833  1.9228 -0.4752
   11CHL1  H18C  770   4.897   6.850   6.173 -1.9156 -1.2129  1.5874
   11CHL1   C12  771   4.689   6.635   6.164 -0.1309 -0.5658  0.2776
   11CHL1  H12A  772   4.615   6.695   6.106 -0.6121  1.1875  2.5409
   11CHL1  H12B  773   4.653   6.530   6.159 -0.7373 -0.4047  0.9006
   11CHL1   C11  774   4.693   6.695   6.312  0.3407  0.3745 -0.6096
   11CHL1  H11A  775   4.698   6.803   6.287  1.4816  0.0346 -2.0111
   11CHL1  H11B  776   4.594   6.691   6.361  0.8109  0.4687  0.3597
   11CHL1    C9  777   4.799   6.642   6.402 -0.3340 -0.4054 -0.1635
   11CHL1    H9  778   4.776   6.539   6.434 -1.2252  0.4841  2.2941
   11CHL1   C10  779   4.812   6.723   6.534  0.2726  0.1539  0.2110
   11CHL1   C19  780   4.835   6.875   6.505 -0.2379  0.3041 -0.5821
   11CHL1  H19A  781   4.820   6.935   6.597 -1.0056  2.1920 -1.8710
   11CHL1  H19B  782   4.941   6.896   6.481 -0.0563  0.5450  0.4126
   11CHL1  H19C  783   4.756   6.904   6.432 -0.1458  0.1229 -0.7585
   11CHL1    C1  784   4.677   6.710   6.621  0.2692 -0.6486 -1.0195
   11CHL1   H1A  785   4.597   6.768   6.571  1.9518  2.6714 -0.1157
   11CHL1   H1B  786   4.641   6.604   6.624  2.6398 -1.4781  0.2093
   11CHL1    C2  787   4.690   6.750   6.769 -0.5284 -0.3508 -0.2859
   11CHL1   H2A  788   4.593   6.735   6.821  0.7663  1.8513  3.0904
   11CHL1   H2B  789   4.715   6.859   6.769  0.5087 -0.5109 -2.7452
   11CHL1   C20  790   4.805   6.630   5.841 -0.2885 -0.1860 -0.0246
   11CHL1   H20  791   4.856   6.728   5.833 -1.3322  0.6977  3.0169
   11CHL1   C21  792   4.653   6.646   5.827 -1.1244  0.1493  0.0137
   11CHL1  H21A  793   4.606   6.546   5.837  1.7913 -1.2357  0.9927
   11CHL1  H21B  794   4.637   6.690   5.726  0.5440  0.2302 -0.2362
   11CHL1  H21C  795   4.619   6.721   5.902  3.9109  1.7453  1.0846
   11CHL1   C22  796   4.857   6.546   5.721 -0.5577 -0.3276 -0.1715
   11CHL1  H22A  797   4.968   6.535   5.725 -0.4577  0.7049  0.2544
   11CHL1  H22B  798   4.803   6.450   5.707 -1.7127  0.2162  0.4409
   11CHL1   C23  799   4.835   6.605   5.576  0.6463 -0.1341  0.4770
   11CHL1  H23A  800   4.727   6.626   5.557  0.6335 -1.7158 -1.5851
   11CHL1  H23B  801   4.900   6.691   5.551 -1.3980  1.4733  0.3527
   11CHL1   C24  802   4.878   6.498   5.476 -1.1056  0.4841 -0.4005
   11CHL1  H24A  803   4.986   6.482   5.496 -0.8824  1.8939 -0.3584
   11CHL1  H24B  804   4.838   6.398   5.501 -0.7747  0.4921  0.1934
   11CHL1   C25  805   4.853   6.534   5.333  0.1739  0.8448 -0.3843
   11CHL1   H25  806   4.752   6.579   5.326 -0.6231 -0.8192 -0.1195
   11CHL1   C26  807   4.947   6.649   5.281  0.3355 -0.6576  0.4015
   11CHL1  H26A  808   5.052   6.626   5.306 -0.5785 -3.3482  2.1988
   11CHL1  H26B  809   4.938   6.657   5.170  1.8038  0.0476  0.3156
   11CHL1  H26C  810   4.907   6.736   5.337  1.9224 -0.0810  0.6860
   11CHL1   C27  811   4.875   6.415   5.232  0.0848 -0.6323 -0.5170
   11CHL1  H27A  812   4.908   6.440   5.129 -0.6652  0.0674 -0.5976
   11CHL1  H27B  813   4.948   6.344   5.276 -2.2661 -0.9690  3.1762
   11CHL1  H27C  814   4.777   6.364   5.220 -1.3199  1.6989  0.3286
   12CHL1    C3  815   6.684   6.434   6.623  0.3183 -0.6036  0.0613
   12CHL1    H3  816   6.686   6.542   6.599  0.3840 -0.4911  0.5571
   12CHL1    O3  817   6.634   6.413   6.756  0.0720 -0.1843  0.0746
   12CHL1   H3'  818   6.539   6.401   6.753  0.1472 -0.6476 -0.5467
   12CHL1    C4  819   6.594   6.378   6.518 -0.1491  0.1215  0.6575
   12CHL1   H4A  820   6.581   6.269   6.532  1.9205 -0.6035 -2.1660
   12CHL1   H4B  821   6.499   6.434   6.530  0.4513  1.1232  0.9057
   12CHL1    C5  822   6.639   6.412   6.381 -0.0670  0.4501  0.1697
   12CHL1    C6  823   6.556   6.464   6.287  0.3179 -0.0326 -0.5855
   12CHL1    H6  824   6.452   6.488   6.314 -0.3283 -1.1641 -1.9170
   12CHL1    C7  825   6.597   6.490   6.139  0.4588 -0.4262  0.3845
   12CHL1   H7A  826   6.518   6.448   6.074  0.5586 -2.5826  1.5626
   12CHL1   H7B  827   6.604   6.599   6.121 -0.6355  0.0298  2.4262
   12CHL1    C8  828   6.728   6.434   6.094  0.1735  0.2981 -0.0247
   12CHL1    H8  829   6.709   6.324   6.088 -0.3158  0.3464  0.5422
   12CHL1   C14  830   6.771   6.491   5.964 -0.2923  0.7682 -0.3655
   12CHL1   H14  831   6.798   6.598   5.977  1.0991  0.2186  1.7799
   12CHL1   C15  832   6.680   6.498   5.838 -0.2821  0.0946 -0.0264
   12CHL1  H15A  833   6.620   6.406   5.831  0.1950 -0.1584 -0.9222
   12CHL1  H15B  834   6.612   6.585   5.849 -1.2884 -0.6849  0.0175
   12CHL1   C16  835   6.776   6.500   5.716 -0.3797 -0.1027 -0.0930
   12CHL1  H16A  836   6.758   6.408   5.657 -1.3324 -0.5575  0.8745
   12CHL1  H16B  837   6.758   6.592   5.656  0.4595  0.7967  0.9880
   12CHL1   C17  838   6.921   6.506   5.779  0.4965  0.1618 -0.2565
   12CHL1   H17  839   6.926   6.615   5.799 -0.2545  0.1484  0.0433
   12CHL1   C13  840   6.909   6.434   5.916  0.2762 -0.6069  0.2307
   12CHL1   C18  841   6.887   6.283   5.888  0.4673 -0.2144  0.1340
   12CHL1  H18A  842   6.974   6.236   5.837  0.3951 -1.6348  1.2645
   12CHL1  H18B  843   6.883   6.235   5.988  0.2064 -1.5879 -0.5203
   12CHL1  H18C  844   6.792   6.264   5.835  1.0999  1.0409 -1.5260
   12CHL1   C12  845   7.009   6.462   6.024  0.8478  0.0006  0.2150
   12CHL1  H12A  846   7.110   6.416   6.013  1.3522  0.9048  0.9171
   12CHL1  H12B  847   7.012   6.572   6.017  2.3909 -0.0306  0.1218
   12CHL1   C11  848   6.967   6.407   6.166 -0.3103 -0.0239 -0.1226
   12CHL1  H11A  849   6.997   6.300   6.157 -0.2371  0.1212 -2.0102
   12CHL1  H11B  850   7.044   6.438   6.240 -1.3134  2.1008  0.0829
   12CHL1    C9  851   6.829   6.441   6.208  0.1870 -0.2692 -0.8994
   12CHL1    H9  852   6.833   6.548   6.236  1.6490 -0.1376 -1.5315
   12CHL1   C10  853   6.781   6.369   6.346 -0.4106  0.7555  0.5002
   12CHL1   C19  854   6.796   6.211   6.320  0.4299 -0.1152  0.1362
   12CHL1  H19A  855   6.772   6.148   6.408 -4.9911  0.8825 -0.2841
   12CHL1  H19B  856   6.745   6.185   6.225  0.5288 -1.3171  0.4034
   12CHL1  H19C  857   6.901   6.194   6.290 -0.2106 -1.2139 -1.6229
   12CHL1    C1  858   6.873   6.398   6.469  0.1150  0.9486  0.4183
   12CHL1   H1A  859   6.975   6.353   6.457 -0.2894  0.0516  0.2587
   12CHL1   H1B  860   6.894   6.506   6.455 -0.5026  0.8824 -1.2332
   12CHL1    C2  861   6.821   6.374   6.611 -0.0910  1.1711 -0.2604
   12CHL1   H2A  862   6.888   6.416   6.688  0.1432  1.4063 -0.5879
   12CHL1   H2B  863   6.803   6.269   6.642 -0.4428  1.3139  0.0153
   12CHL1   C20  864   7.024   6.462   5.680 -0.4376 -0.7561  1.3991
   12CHL1   H20  865   7.049   6.354   5.685  1.3664 -0.4554 -0.0640
   12CHL1   C21  866   7.154   6.537   5.709  1.1403  0.1921  0.4415
   12CHL1  H21A  867   7.153   6.646   5.688 -0.7357  0.0166 -0.5801
   12CHL1  H21B  868   7.241   6.493   5.656  0.7608  0.8044 -0.7384
   12CHL1  H21C  869   7.182   6.537   5.816  2.4187  0.8117  0.1303
   12CHL1   C22  870   6.995   6.471   5.529  1.2250 -0.2917  0.0075
   12CHL1  H22A  871   6.934   6.385   5.493 -0.9483  1.1991 -0.0209
   12CHL1  H22B  872   6.935   6.562   5.511  0.4432 -1.2129 -2.4744
   12CHL1   C23  873   7.109   6.473   5.434  0.3278 -0.3743  0.9137
   12CHL1  H23A  874   7.166   6.567   5.447 -0.0704  0.0663 -0.3161
   12CHL1  H23B  875   7.179   6.389   5.451  1.0557  0.0747  0.1862
   12CHL1   C24  876   7.063   6.478   5.292 -1.2383  0.1350  0.3081
   12CHL1  H24A  877   6.998   6.390   5.277  0.1794 -0.6823 -1.3685
   12CHL1  H24B  878   7.002   6.567   5.269  1.0004  1.0749 -2.5612
   12CHL1   C25  879   7.173   6.485   5.181  0.5449  0.8149  0.2746
   12CHL1   H25  880   7.227   6.582   5.195 -1.1113  2.1827 -2.1862
   12CHL1   C26  881   7.279   6.367   5.200 -0.0847  0.3737 -0.1188
   12CHL1  H26A  882   7.238   6.265   5.190  0.6480 -0.0185  0.8101
   12CHL1  H26B  883   7.333   6.384   5.104  0.6966  1.9974  0.5542
   12CHL1  H26C  884   7.341   6.373   5.292 -2.4953 -1.5577  1.7773
   12CHL1   C27  885   7.111   6.476   5.035  0.1736 -0.7548  0.2569
   12CHL1  H27A  886   7.020   6.539   5.029 -0.7866 -2.1107  0.0219
   12CHL1  H27B  887   7.188   6.519   4.967 -0.5138  1.4329  0.7804
   12CHL1  H27C  888   7.085   6.372   5.003 -2.3384 -0.0439 -0.2366
   13CHL1    C3  889   4.371   0.486   6.714 -0.4835  0.1173 -0.0235
   13CHL1    H3  890   4.392   0.593   6.696 -0.2621 -0.1467 -1.4774
   13CHL1    O3  891   4.375   0.468   6.858  0.8309  0.0617  0.7357
   13CHL1   H3'  892   4.364   0.373   6.871  0.5512  0.3368  2.8680
   13CHL1    C4  893   4.241   0.439   6.653 -0.1620  0.0167  0.5696
   13CHL1   H4A  894   4.227   0.336   6.694  0.7956 -0.1192  0.5787
   13CHL1   H4B  895   4.169   0.514   6.693  2.4133  2.1238  1.5211
   13CHL1    C5  896   4.252   0.440   6.502 -0.0194 -0.0471  0.0441
   13CHL1    C6  897   4.156   0.501   6.428 -0.0734 -0.4206  0.2677
   13CHL1    H6  898   4.074   0.537   6.492  0.9946 -1.0043  2.0280
   13CHL1    C7  899   4.141   0.511   6.280 -0.2652  0.5619 -0.4059
   13CHL1   H7A  900   4.039   0.489   6.242 -0.3048  0.5103 -0.2712
   13CHL1   H7B  901   4.170   0.618   6.266 -1.2695  0.7916 -0.8247
   13CHL1    C8  902   4.241   0.414   6.216 -0.0293  0.5695 -0.2322
   13CHL1    H8  903   4.212   0.308   6.235  2.3718  0.0168  0.6815
   13CHL1   C14  904   4.256   0.448   6.064 -0.0788 -0.7360 -0.1429
   13CHL1   H14  905   4.278   0.557   6.063 -3.4000  0.0254 -0.0254
   13CHL1   C15  906   4.133   0.437   5.972 -0.2402 -0.0389  0.9988
   13CHL1  H15A  907   4.095   0.333   5.967 -0.6195  0.1514 -1.2222
   13CHL1  H15B  908   4.052   0.510   5.992 -0.5970  0.2375 -1.2309
   13CHL1   C16  909   4.199   0.464   5.833  0.0111 -0.3044 -0.0363
   13CHL1  H16A  910   4.168   0.392   5.755 -0.1619  0.5843 -0.7989
   13CHL1  H16B  911   4.174   0.561   5.786  2.3136 -0.4270 -1.6679
   13CHL1   C17  912   4.353   0.455   5.850 -0.3412  0.9133  0.5012
   13CHL1   H17  913   4.396   0.556   5.864 -0.2270  0.8784  0.4082
   13CHL1   C13  914   4.374   0.385   5.984 -1.0039  0.4695 -0.7872
   13CHL1   C18  915   4.354   0.232   5.973  0.0579 -0.4534  0.0289
   13CHL1  H18A  916   4.279   0.218   5.893  0.1648 -1.2463  0.0581
   13CHL1  H18B  917   4.449   0.182   5.942  0.6814 -0.5037  1.8991
   13CHL1  H18C  918   4.322   0.192   6.072 -0.8931  0.8970  0.2834
   13CHL1   C12  919   4.505   0.416   6.060  0.0476  0.1142  0.2789
   13CHL1  H12A  920   4.585   0.375   5.996 -0.4966  2.2266 -1.9337
   13CHL1  H12B  921   4.529   0.525   6.065  0.3984 -0.0176  4.3629
   13CHL1   C11  922   4.495   0.365   6.201  0.6158 -0.2307  0.4431
   13CHL1  H11A  923   4.483   0.255   6.204 -0.4173 -0.1549 -0.4676
   13CHL1  H11B  924   4.595   0.388   6.245  0.5763  0.7778  0.0487
   13CHL1    C9  925   4.379   0.431   6.281 -0.6641 -0.2931 -0.1184
   13CHL1    H9  926   4.395   0.540   6.275  2.0185 -0.7236 -2.4750
   13CHL1   C10  927   4.374   0.384   6.431 -0.5912  0.2158 -0.0574
   13CHL1   C19  928   4.383   0.229   6.442  0.1217  0.1388  0.4229
   13CHL1  H19A  929   4.486   0.190   6.428  0.3108  0.4971  0.7977
   13CHL1  H19B  930   4.359   0.190   6.544 -0.3019 -0.7634 -0.0095
   13CHL1  H19C  931   4.321   0.169   6.371  2.9021 -2.2422 -0.1742
   13CHL1    C1  932   4.506   0.430   6.506  0.0605 -0.3927  1.0748
   13CHL1   H1A  933   4.594   0.376   6.466  0.5199  0.7487  0.4899
   13CHL1   H1B  934   4.517   0.538   6.483 -0.1922 -1.0736 -3.2586
   13CHL1    C2  935   4.494   0.408   6.663  0.5600 -0.1081 -0.3928
   13CHL1   H2A  936   4.589   0.447   6.705  0.9750 -0.9935 -0.4857
   13CHL1   H2B  937   4.490   0.299   6.684  0.0553 -0.0722 -0.3021
   13CHL1   C20  938   4.416   0.397   5.719 -0.2476  0.4188  0.2345
   13CHL1   H20  939   4.378   0.295   5.698 -0.6017  0.4574  0.6741
   13CHL1   C21  940   4.570   0.402   5.741 -0.3181  0.8591  0.2736
   13CHL1  H21A  941   4.602   0.499   5.784  0.3595  1.0350 -0.6013
   13CHL1  H21B  942   4.627   0.400   5.646 -0.7513 -2.4828 -0.0579
   13CHL1  H21C  943   4.591   0.307   5.795 -0.4148  0.8795  0.3479
   13CHL1   C22  944   4.381   0.482   5.597  0.2903 -0.5373 -0.7784
   13CHL1  H22A  945   4.273   0.462   5.582  0.2449 -0.2646 -0.8237
   13CHL1  H22B  946   4.410   0.588   5.612  2.2523 -1.2780  1.2587
   13CHL1   C23  947   4.440   0.444   5.463 -0.6665 -0.3203 -0.1680
   13CHL1  H23A  948   4.544   0.481   5.457 -1.2138  1.2575 -0.2972
   13CHL1  H23B  949   4.442   0.333   5.453  0.1602 -0.3127 -0.1444
   13CHL1   C24  950   4.368   0.501   5.345 -0.3785 -0.7293  0.3836
   13CHL1  H24A  951   4.260   0.479   5.359 -0.6915  0.4055 -0.1350
   13CHL1  H24B  952   4.381   0.610   5.362 -0.0714 -0.7092  0.0389
   13CHL1   C25  953   4.429   0.452   5.210  0.2281  0.2257  0.0606
   13CHL1   H25  954   4.535   0.485   5.200  0.9458 -1.4251  1.6592
   13CHL1   C26  955   4.424   0.301   5.201  0.0379 -0.0021 -0.0660
   13CHL1  H26A  956   4.433   0.267   5.095 -0.8156 -2.3575  0.5544
   13CHL1  H26B  957   4.512   0.263   5.257  1.6367  2.0003 -1.0882
   13CHL1  H26C  958   4.329   0.271   5.250 -0.4744  0.2965 -0.8630
   13CHL1   C27  959   4.363   0.511   5.093 -0.1150 -0.1920  0.3362
   13CHL1  H27A  960   4.252   0.506   5.084 -0.0453 -1.8711 -0.0461
   13CHL1  H27B  961   4.383   0.620   5.092 -0.3978 -0.1386  0.0821
   13CHL1  H27C  962   4.401   0.472   4.996 -0.8127  0.7741 -0.3401
   14CHL1    C3  963   5.686   3.894   6.679  0.0701  0.0919 -0.0740
   14CHL1    H3  964   5.792   3.926   6.672 -0.1795  1.5381  1.7641
   14CHL1    O3  965   5.645   3.891   6.814 -0.0681 -0.5227  0.1200
   14CHL1   H3'  966   5.649   3.983   6.841  0.9411 -0.1630 -1.1523
   14CHL1    C4  967   5.606   3.997   6.602  0.2041 -0.1900 -0.1739
   14CHL1   H4A  968   5.497   3.979   6.605  0.1854 -0.9608 -2.8981
   14CHL1   H4B  969   5.627   4.089   6.661  1.1633 -0.7043  0.3155
   14CHL1    C5  970   5.638   4.008   6.456  0.5040 -0.7598  0.2600
   14CHL1    C6  971   5.670   4.134   6.409 -0.4523  0.0487 -0.2348
   14CHL1    H6  972   5.666   4.217   6.481  0.4885  2.3181 -2.6543
   14CHL1    C7  973   5.714   4.162   6.264  0.3789  0.0329 -0.2964
   14CHL1   H7A  974   5.656   4.253   6.235  1.2696  1.3190  1.7179
   14CHL1   H7B  975   5.822   4.183   6.252  0.2712 -0.0404 -1.4811
   14CHL1    C8  976   5.673   4.039   6.175  0.4620  0.6660  0.0403
   14CHL1    H8  977   5.562   4.042   6.169  0.5089  0.3187 -1.1924
   14CHL1   C14  978   5.728   4.046   6.029  0.0207 -0.9935  0.1699
   14CHL1   H14  979   5.839   4.057   6.035 -0.0442  0.1413 -0.3595
   14CHL1   C15  980   5.678   4.164   5.937  0.1179 -0.2160 -0.0428
   14CHL1  H15A  981   5.568   4.178   5.945  0.3731  0.7894  2.9827
   14CHL1  H15B  982   5.733   4.258   5.956  1.1194 -0.8086  0.0497
   14CHL1   C16  983   5.701   4.113   5.797 -0.4832 -0.1597  0.3132
   14CHL1  H16A  984   5.609   4.127   5.737  0.5225  2.3607 -0.7934
   14CHL1  H16B  985   5.792   4.160   5.752  0.0865 -0.1551  1.4454
   14CHL1   C17  986   5.748   3.963   5.808 -0.3119  0.6695 -0.1204
   14CHL1   H17  987   5.858   3.956   5.822 -0.5205  0.2831  1.5409
   14CHL1   C13  988   5.694   3.920   5.951 -0.0266 -0.4914  0.0821
   14CHL1   C18  989   5.541   3.888   5.936  0.1076 -0.2206  0.1221
   14CHL1  H18A  990   5.484   3.871   6.030 -0.5379 -1.2925 -0.4445
   14CHL1  H18B  991   5.499   3.966   5.871  0.7967  0.0471 -0.0133
   14CHL1  H18C  992   5.540   3.799   5.870  0.8345 -0.4423  0.3955
   14CHL1   C12  993   5.760   3.797   6.019 -0.2339  0.1298  0.1662
   14CHL1  H12A  994   5.733   3.703   5.966 -0.1606 -0.9357  1.9446
   14CHL1  H12B  995   5.871   3.802   6.011 -0.2693 -1.1513 -1.7610
   14CHL1   C11  996   5.709   3.774   6.159  0.2025 -0.1958  0.4648
   14CHL1  H11A  997   5.602   3.751   6.148  0.3157 -0.1006 -1.0679
   14CHL1  H11B  998   5.771   3.697   6.209  2.1837 -1.0720 -3.0018
   14CHL1    C9  999   5.711   3.902   6.247  0.1249  0.2188 -0.9352
   14CHL1    H9 1000   5.820   3.917   6.266  0.2574 -1.3093 -0.3534
   14CHL1   C10 1001   5.634   3.879   6.381 -0.1464 -0.5741 -0.4795
   14CHL1   C19 1002   5.487   3.830   6.350  0.9596 -0.2361 -0.2337
   14CHL1  H19A 1003   5.428   3.847   6.443  0.0595 -0.5157 -0.7418
   14CHL1  H19B 1004   5.448   3.894   6.269 -1.8544  1.3356  2.1647
   14CHL1  H19C 1005   5.478   3.723   6.323 -0.6981  0.1240 -1.2034
   14CHL1    C1 1006   5.704   3.773   6.464 -0.8389  0.2409 -0.8523
   14CHL1   H1A 1007   5.692   3.673   6.416  0.5153 -0.2579 -0.1868
   14CHL1   H1B 1008   5.810   3.803   6.457 -1.4664  2.6100 -1.1353
   14CHL1    C2 1009   5.671   3.757   6.615 -0.1801  0.5872 -0.2200
   14CHL1   H2A 1010   5.744   3.690   6.666  0.2327  0.6159 -0.7614
   14CHL1   H2B 1011   5.566   3.722   6.624 -0.1321  0.4924 -0.0067
   14CHL1   C20 1012   5.712   3.894   5.675 -0.5337  0.3479 -0.1366
   14CHL1   H20 1013   5.601   3.882   5.679 -0.4644 -0.0100  1.7355
   14CHL1   C21 1014   5.771   3.747   5.687  0.4221  0.1303  0.6054
   14CHL1  H21A 1015   5.707   3.689   5.757  0.7926  0.7123  1.4464
   14CHL1  H21B 1016   5.870   3.745   5.736 -0.0549 -0.2130  1.5835
   14CHL1  H21C 1017   5.779   3.698   5.588  0.1651  0.0030  0.6472
   14CHL1   C22 1018   5.755   3.964   5.543 -0.2977 -0.1224 -0.2929
   14CHL1  H22A 1019   5.720   4.069   5.550 -1.6466 -0.6520  3.3519
   14CHL1  H22B 1020   5.865   3.974   5.532 -0.0260 -0.1611  1.8596
   14CHL1   C23 1021   5.712   3.892   5.417  0.1796 -0.4184  0.5918
   14CHL1  H23A 1022   5.763   3.795   5.406  1.4258  0.4279 -1.5970
   14CHL1  H23B 1023   5.603   3.868   5.413  0.2786 -0.6498 -1.6270
   14CHL1   C24 1024   5.747   3.984   5.292 -0.0648  0.1756 -0.1214
   14CHL1  H24A 1025   5.712   4.086   5.319  0.4310  0.0383  1.1132
   14CHL1  H24B 1026   5.858   3.979   5.304 -0.1214  0.0189  0.3358
   14CHL1   C25 1027   5.707   3.935   5.153  0.0533  0.1941 -0.3094
   14CHL1   H25 1028   5.736   3.828   5.148  1.1590  0.4725 -0.0360
   14CHL1   C26 1029   5.551   3.952   5.128  0.1325  0.5997 -0.2893
   14CHL1  H26A 1030   5.492   3.897   5.204  1.1935  0.9425  0.8134
   14CHL1  H26B 1031   5.520   4.059   5.125  0.6474  0.7276 -1.6995
   14CHL1  H26C 1032   5.511   3.913   5.032 -0.4278 -2.5882  1.1107
   14CHL1   C27 1033   5.780   4.007   5.044 -0.3041 -0.6732 -0.3235
   14CHL1  H27A 1034   5.889   3.984   5.040  0.3143  1.3480  2.3809
   14CHL1  H27B 1035   5.741   3.979   4.944 -2.3496  1.3201 -0.1492
   14CHL1  H27C 1036   5.771   4.116   5.060 -1.1687 -0.8229  0.2857
   15CHL1    C3 1037   5.711   3.206   6.519  0.2005  0.7956  0.1423
   15CHL1    H3 1038   5.801   3.143   6.529 -0.7838 -0.4682  1.5204
   15CHL1    O3 1039   5.655   3.215   6.655  0.3891  0.1873  0.0774
   15CHL1   H3' 1040   5.578   3.269   6.638  0.9485  0.9297 -0.1316
   15CHL1    C4 1041   5.752   3.348   6.470  0.6379  0.4902 -0.2182
   15CHL1   H4A 1042   5.671   3.423   6.483  0.8421  0.5522  0.7766
   15CHL1   H4B 1043   5.835   3.385   6.534  0.4918  1.5711 -0.6175
   15CHL1    C5 1044   5.798   3.359   6.325 -0.1902  0.6951  0.3364
   15CHL1    C6 1045   5.908   3.429   6.295 -0.0673  0.2444 -0.0314
   15CHL1    H6 1046   5.957   3.487   6.374 -0.0486  0.6246 -0.3220
   15CHL1    C7 1047   5.966   3.436   6.155  0.1802 -0.4552  0.2517
   15CHL1   H7A 1048   6.011   3.533   6.125 -1.5618  0.5129  0.6737
   15CHL1   H7B 1049   6.055   3.369   6.144  1.7295  1.2623  1.6610
   15CHL1    C8 1050   5.859   3.394   6.049  0.0591 -0.1782  0.4377
   15CHL1    H8 1051   5.784   3.476   6.045  1.6119  1.2457 -1.1574
   15CHL1   C14 1052   5.922   3.378   5.919 -0.1233  0.6973 -0.2070
   15CHL1   H14 1053   6.000   3.301   5.937  0.4703  1.1478 -0.7934
   15CHL1   C15 1054   6.013   3.493   5.850 -0.5269 -0.1555 -0.1853
   15CHL1  H15A 1055   5.963   3.588   5.880  3.0772  0.8164  3.6809
   15CHL1  H15B 1056   6.120   3.500   5.879 -0.8143  1.1844  0.6189
   15CHL1   C16 1057   6.006   3.460   5.706 -0.5465 -1.1894  0.2692
   15CHL1  H16A 1058   5.952   3.546   5.660  0.0325  0.0803  1.8279
   15CHL1  H16B 1059   6.099   3.449   5.646 -1.7996 -2.2645 -1.5455
   15CHL1   C17 1060   5.937   3.320   5.698 -0.8685 -0.0088  0.3494
   15CHL1   H17 1061   6.021   3.248   5.703  0.2350  1.1263 -1.0604
   15CHL1   C13 1062   5.837   3.313   5.809  0.3298 -0.6758  0.4562
   15CHL1   C18 1063   5.720   3.407   5.778  0.6703 -0.5681  0.1648
   15CHL1  H18A 1064   5.653   3.429   5.864 -0.1367  0.9362 -0.7861
   15CHL1  H18B 1065   5.759   3.500   5.730  1.0821  0.0815  1.6973
   15CHL1  H18C 1066   5.655   3.357   5.703  0.7425  1.2113 -1.1611
   15CHL1   C12 1067   5.792   3.175   5.851 -0.1366 -0.4504  0.1086
   15CHL1  H12A 1068   5.727   3.117   5.783 -0.1979  0.6250 -0.7817
   15CHL1  H12B 1069   5.886   3.116   5.859 -0.9834 -1.6930  1.3543
   15CHL1   C11 1070   5.717   3.182   5.991  0.2932  0.5975  0.4529
   15CHL1  H11A 1071   5.623   3.239   5.979 -1.6482 -2.4068  0.1898
   15CHL1  H11B 1072   5.699   3.076   6.022  0.1113  0.9210  1.4849
   15CHL1    C9 1073   5.803   3.255   6.099  0.3410 -0.3997 -0.1037
   15CHL1    H9 1074   5.897   3.198   6.118  0.0321 -0.9968 -0.3284
   15CHL1   C10 1075   5.721   3.269   6.230 -0.1962  0.3501 -0.1681
   15CHL1   C19 1076   5.587   3.339   6.205 -0.8696  0.1765  0.3975
   15CHL1  H19A 1077   5.507   3.267   6.179 -1.5157  1.3523 -1.0440
   15CHL1  H19B 1078   5.549   3.398   6.291  1.5962 -0.2389  1.8736
   15CHL1  H19C 1079   5.602   3.422   6.132  0.1339 -0.3993 -0.0761
   15CHL1    C1 1080   5.679   3.131   6.297 -0.4119  0.3286  0.6271
   15CHL1   H1A 1081   5.611   3.078   6.227  1.1945 -0.3585 -0.4777
   15CHL1   H1B 1082   5.765   3.062   6.304 -0.8781 -0.2404  0.8272
   15CHL1    C2 1083   5.602   3.142   6.430  0.3753  0.0971  0.1772
   15CHL1   H2A 1084   5.574   3.039   6.460  0.1198  0.1222  0.0231
   15CHL1   H2B 1085   5.515   3.211   6.428  0.4988  0.3181 -3.6065
   15CHL1   C20 1086   5.883   3.285   5.558  0.3998 -0.7475 -0.0352
   15CHL1   H20 1087   5.783   3.238   5.574 -0.2036 -0.2053 -1.8804
   15CHL1   C21 1088   5.973   3.186   5.488  0.1838  0.8275  0.2856
   15CHL1  H21A 1089   5.989   3.093   5.547  0.2533 -0.2636 -1.3831
   15CHL1  H21B 1090   6.075   3.215   5.456  1.5235 -3.5599 -0.1085
   15CHL1  H21C 1091   5.914   3.141   5.405  0.5300  0.8132  0.0496
   15CHL1   C22 1092   5.850   3.410   5.465  0.3164  0.3488  0.1718
   15CHL1  H22A 1093   5.801   3.491   5.523 -0.2760  0.0996  0.0275
   15CHL1  H22B 1094   5.938   3.450   5.410  1.4067 -2.6465 -0.4406
   15CHL1   C23 1095   5.737   3.369   5.364  0.4984 -0.5250 -0.1962
   15CHL1  H23A 1096   5.760   3.272   5.315 -2.4534 -1.7632  0.6096
   15CHL1  H23B 1097   5.651   3.358   5.434 -0.1029 -0.7934 -0.9631
   15CHL1   C24 1098   5.706   3.489   5.274 -0.2050 -0.3276  0.1833
   15CHL1  H24A 1099   5.667   3.573   5.336 -0.2702 -1.2649  1.4499
   15CHL1  H24B 1100   5.799   3.534   5.233  1.0495 -0.6420  2.5014
   15CHL1   C25 1101   5.605   3.471   5.164 -0.0524  0.1832 -0.7221
   15CHL1   H25 1102   5.641   3.398   5.088 -1.8026 -1.9553  0.3778
   15CHL1   C26 1103   5.477   3.393   5.208  0.4071 -0.0802 -0.1112
   15CHL1  H26A 1104   5.429   3.426   5.303 -2.6506 -1.8331 -0.9240
   15CHL1  H26B 1105   5.398   3.410   5.132 -0.4384  1.2512  1.0071
   15CHL1  H26C 1106   5.502   3.285   5.216  2.5333  0.4801  2.4610
   15CHL1   C27 1107   5.579   3.603   5.097 -0.1637 -0.8254  0.4659
   15CHL1  H27A 1108   5.504   3.593   5.016 -0.9775  0.9729  0.9437
   15CHL1  H27B 1109   5.532   3.680   5.162 -1.1661 -0.5909 -0.5120
   15CHL1  H27C 1110   5.677   3.646   5.067 -0.5034  1.4139  2.2181
   16CHL1    C3 1111   3.109   1.330   7.058 -0.9499 -0.3155 -0.3249
   16CHL1    H3 1112   3.058   1.428   7.043 -0.5849 -0.1793 -0.6651
   16CHL1    O3 1113   3.114   1.299   7.193 -0.4207  0.1193  0.3177
   16CHL1   H3' 1114   3.179   1.355   7.235 -0.7667  1.4071 -0.7932
   16CHL1    C4 1115   3.034   1.216   6.983 -0.5756 -0.3820 -0.2160
   16CHL1   H4A 1116   3.082   1.120   7.010  0.1647  0.0983  0.2385
   16CHL1   H4B 1117   2.929   1.206   7.017 -0.8338  1.1173 -0.5001
   16CHL1    C5 1118   3.036   1.233   6.831  0.7838 -0.2551 -0.1450
   16CHL1    C6 1119   2.913   1.231   6.768 -0.0575  0.6271 -0.4418
   16CHL1    H6 1120   2.822   1.208   6.824  0.4012  0.2105  0.1573
   16CHL1    C7 1121   2.912   1.252   6.617 -0.4094 -0.2298  0.0611
   16CHL1   H7A 1122   2.836   1.196   6.557  0.9368  0.0875 -2.0549
   16CHL1   H7B 1123   2.885   1.358   6.601 -1.3040 -0.1671  1.7890
   16CHL1    C8 1124   3.043   1.225   6.545  0.1571  1.0663 -0.0049
   16CHL1    H8 1125   3.046   1.115   6.533 -1.3247  1.0313 -0.1976
   16CHL1   C14 1126   3.038   1.287   6.409  0.0693 -0.0795  0.0493
   16CHL1   H14 1127   3.029   1.397   6.423 -1.6324 -0.2047  0.2343
   16CHL1   C15 1128   2.911   1.250   6.323  0.0956 -0.1766  0.2053
   16CHL1  H15A 1129   2.896   1.140   6.329 -3.8872  0.1964 -0.0371
   16CHL1  H15B 1130   2.818   1.298   6.359 -0.3840 -0.6183 -0.4050
   16CHL1   C16 1131   2.953   1.299   6.177  0.1715  0.6035  0.1352
   16CHL1  H16A 1132   2.932   1.215   6.108 -1.6558 -0.4941  1.9266
   16CHL1  H16B 1133   2.894   1.388   6.146  0.9966  1.2586  0.4155
   16CHL1   C17 1134   3.103   1.335   6.182  0.3844  0.2311  0.4569
   16CHL1   H17 1135   3.115   1.444   6.199 -1.1959  0.5628 -0.4099
   16CHL1   C13 1136   3.160   1.272   6.314  0.2659  0.8312 -0.1829
   16CHL1   C18 1137   3.203   1.132   6.286  0.6250  0.0713 -0.1468
   16CHL1  H18A 1138   3.304   1.123   6.241 -0.3800 -0.6669 -2.3731
   16CHL1  H18B 1139   3.196   1.067   6.376  0.4164  1.5126  0.8979
   16CHL1  H18C 1140   3.124   1.083   6.225 -0.6372  0.8271  0.8311
   16CHL1   C12 1141   3.277   1.338   6.384  0.2079  0.1683  0.3756
   16CHL1  H12A 1142   3.375   1.314   6.336  0.0713 -1.3157  0.7874
   16CHL1  H12B 1143   3.258   1.446   6.396  0.6501  0.3111 -0.1721
   16CHL1   C11 1144   3.293   1.287   6.529 -0.4878  0.2840 -0.1747
   16CHL1  H11A 1145   3.322   1.180   6.522 -0.7228  0.0664  1.5511
   16CHL1  H11B 1146   3.369   1.340   6.591  0.2354 -1.1149  0.1640
   16CHL1    C9 1147   3.158   1.285   6.617 -0.6416 -0.0070 -0.0939
   16CHL1    H9 1148   3.137   1.394   6.617 -1.6107 -0.1845 -0.0840
   16CHL1   C10 1149   3.169   1.251   6.764 -0.2273  0.4993 -0.8598
   16CHL1   C19 1150   3.255   1.118   6.775  0.3892 -0.4173 -0.0453
   16CHL1  H19A 1151   3.205   1.038   6.718 -1.5391  0.3443  0.4950
   16CHL1  H19B 1152   3.358   1.127   6.734  0.4456  0.2268  0.2261
   16CHL1  H19C 1153   3.264   1.088   6.882 -0.2554  1.4862  0.5893
   16CHL1    C1 1154   3.239   1.364   6.848  0.2151  0.1872  0.3558
   16CHL1   H1A 1155   3.344   1.373   6.812  0.7583  2.1770  2.2144
   16CHL1   H1B 1156   3.187   1.461   6.831 -1.8594 -1.1287 -1.3774
   16CHL1    C2 1157   3.246   1.354   7.000  0.7798 -0.2956 -0.3546
   16CHL1   H2A 1158   3.298   1.438   7.051  0.3574 -0.3802  0.2352
   16CHL1   H2B 1159   3.299   1.259   7.020 -0.1818 -1.2774 -2.2187
   16CHL1   C20 1160   3.176   1.314   6.045  0.8718  0.7066 -0.6018
   16CHL1   H20 1161   3.174   1.205   6.024 -2.2978  0.3294  1.0538
   16CHL1   C21 1162   3.324   1.373   6.067 -0.3360 -0.4913  0.7566
   16CHL1  H21A 1163   3.384   1.296   6.120  1.7051  1.5636  1.5754
   16CHL1  H21B 1164   3.316   1.469   6.122  0.0964 -0.2078  0.3381
   16CHL1  H21C 1165   3.361   1.399   5.966  1.0966 -0.2691  1.3220
   16CHL1   C22 1166   3.108   1.385   5.920 -0.2615 -0.7663 -0.1449
   16CHL1  H22A 1167   3.076   1.491   5.935  1.2055 -0.5640  1.9920
   16CHL1  H22B 1168   3.184   1.380   5.840 -0.1734  3.4391 -0.5799
   16CHL1   C23 1169   2.989   1.311   5.866  0.7257 -0.2535  0.4416
   16CHL1  H23A 1170   2.992   1.200   5.863 -0.6692 -0.2919 -1.0096
   16CHL1  H23B 1171   2.898   1.338   5.924 -0.1254 -1.2420 -0.3815
   16CHL1   C24 1172   2.965   1.353   5.712 -0.4117 -0.1326  0.6771
   16CHL1  H24A 1173   2.938   1.459   5.694  0.6116  0.0236 -0.0157
   16CHL1  H24B 1174   3.058   1.335   5.655  0.7183  0.0619  2.4086
   16CHL1   C25 1175   2.860   1.259   5.640 -0.6443 -0.1616  0.4818
   16CHL1   H25 1176   2.891   1.153   5.635 -1.6172 -0.4573  0.3588
   16CHL1   C26 1177   2.730   1.268   5.711 -0.1271  0.4978  1.0284
   16CHL1  H26A 1178   2.730   1.200   5.799  1.8112 -1.0833 -0.1132
   16CHL1  H26B 1179   2.693   1.368   5.741 -0.0307  0.5127  1.1019
   16CHL1  H26C 1180   2.654   1.236   5.637  0.1302  2.3654 -0.0988
   16CHL1   C27 1181   2.847   1.302   5.494 -0.0088 -0.6260 -0.6310
   16CHL1  H27A 1182   2.929   1.258   5.433  3.0386  0.9632  2.0120
   16CHL1  H27B 1183   2.754   1.272   5.442 -0.6162 -0.7048  0.4665
   16CHL1  H27C 1184   2.860   1.412   5.488  0.4158 -0.6344  0.0368
   17CHL1    C3 1185   5.564   4.483   6.707 -0.4858  0.9277 -0.5298
   17CHL1    H3 1186   5.663   4.495   6.658 -0.7521  1.4991 -0.9234
   17CHL1    O3 1187   5.574   4.427   6.837 -0.4492  0.0396 -0.0663
   17CHL1   H3' 1188   5.487   4.406   6.871 -0.3707 -0.2545 -0.0393
   17CHL1    C4 1189   5.496   4.627   6.712 -0.7009 -0.2199  0.3628
   17CHL1   H4A 1190   5.401   4.606   6.765 -1.2623  0.0097 -0.5305
   17CHL1   H4B 1191   5.554   4.695   6.778 -1.6544  1.4421 -0.4341
   17CHL1    C5 1192   5.501   4.678   6.565  0.3252 -1.1973 -0.0249
   17CHL1    C6 1193   5.560   4.790   6.529  0.3766 -0.0336 -0.5492
   17CHL1    H6 1194   5.600   4.858   6.606 -0.3719 -0.8067  0.5517
   17CHL1    C7 1195   5.560   4.840   6.391  0.1698  0.1573  0.0626
   17CHL1   H7A 1196   5.555   4.951   6.386  2.5810  0.3381  0.5474
   17CHL1   H7B 1197   5.650   4.804   6.337 -0.5812 -0.1936 -0.9871
   17CHL1    C8 1198   5.439   4.778   6.310 -0.6988  0.1365 -0.8210
   17CHL1    H8 1199   5.353   4.826   6.361  0.0564  0.5529  0.0983
   17CHL1   C14 1200   5.448   4.820   6.165  0.2958  0.3129  0.0387
   17CHL1   H14 1201   5.546   4.774   6.139 -0.4546 -0.1666 -2.2071
   17CHL1   C15 1202   5.464   4.968   6.140 -0.8600  0.0911 -0.1874
   17CHL1  H15A 1203   5.387   5.034   6.184  2.1687  4.6881 -1.1580
   17CHL1  H15B 1204   5.562   5.009   6.169 -0.4647 -0.0151 -1.3093
   17CHL1   C16 1205   5.443   4.979   5.985 -0.0308 -0.0202 -0.2428
   17CHL1  H16A 1206   5.368   5.060   5.969 -0.7505 -0.7615 -0.6467
   17CHL1  H16B 1207   5.538   4.996   5.930 -0.9628  1.2704 -1.5278
   17CHL1   C17 1208   5.385   4.842   5.941 -0.1693 -0.0106 -0.1639
   17CHL1   H17 1209   5.473   4.789   5.898  1.9281  0.7233  2.9178
   17CHL1   C13 1210   5.341   4.766   6.069 -0.4684  0.2081 -0.1927
   17CHL1   C18 1211   5.205   4.827   6.117  0.1928  0.4470 -0.1717
   17CHL1  H18A 1212   5.200   4.818   6.228 -0.0893 -0.4178 -0.2474
   17CHL1  H18B 1213   5.194   4.933   6.085 -1.9240 -0.0198 -1.1232
   17CHL1  H18C 1214   5.129   4.774   6.057 -1.0341  1.2488  0.6331
   17CHL1   C12 1215   5.346   4.608   6.076  0.6027 -0.3893  0.5915
   17CHL1  H12A 1216   5.278   4.556   6.006 -0.0352 -0.3776  1.1863
   17CHL1  H12B 1217   5.446   4.570   6.049  0.1605 -1.7750  0.8360
   17CHL1   C11 1218   5.322   4.567   6.224 -0.3503 -0.0080  0.1615
   17CHL1  H11A 1219   5.220   4.595   6.256 -0.4471  1.7138 -1.4916
   17CHL1  H11B 1220   5.319   4.456   6.221 -1.7047  0.0339 -1.7158
   17CHL1    C9 1221   5.431   4.626   6.321 -0.0099 -0.3817 -0.1703
   17CHL1    H9 1222   5.529   4.584   6.292  1.1768  1.3556  1.1420
   17CHL1   C10 1223   5.418   4.579   6.463 -0.0618  0.4701 -0.0278
   17CHL1   C19 1224   5.270   4.588   6.509  0.0660 -0.1792  0.2642
   17CHL1  H19A 1225   5.268   4.561   6.617  2.3073  0.4232  0.5222
   17CHL1  H19B 1226   5.223   4.687   6.493 -0.0554 -0.3111 -0.2005
   17CHL1  H19C 1227   5.206   4.519   6.451  0.1355  0.9197 -1.1770
   17CHL1    C1 1228   5.461   4.429   6.484 -0.4066  0.0719  0.1120
   17CHL1   H1A 1229   5.387   4.368   6.428 -1.1775  1.1833 -0.1063
   17CHL1   H1B 1230   5.560   4.405   6.441 -0.6668 -1.1986  0.1723
   17CHL1    C2 1231   5.469   4.385   6.632 -0.6367 -0.6361 -0.0360
   17CHL1   H2A 1232   5.516   4.284   6.644 -0.4743 -0.3011  3.3164
   17CHL1   H2B 1233   5.368   4.385   6.680 -1.0965 -0.3598 -0.9878
   17CHL1   C20 1234   5.280   4.861   5.831 -0.6045  0.5025  0.2805
   17CHL1   H20 1235   5.198   4.927   5.867 -2.0371 -0.7915 -0.4369
   17CHL1   C21 1236   5.223   4.722   5.785 -0.5946  0.1310 -0.2041
   17CHL1  H21A 1237   5.146   4.725   5.705 -0.5626 -0.7419 -0.2750
   17CHL1  H21B 1238   5.169   4.668   5.865 -1.4498 -0.4658 -1.1540
   17CHL1  H21C 1239   5.307   4.662   5.743  0.5820  0.3060  1.7965
   17CHL1   C22 1240   5.357   4.918   5.702  0.6713  0.0070 -0.3352
   17CHL1  H22A 1241   5.425   4.999   5.736 -0.9733  0.5739  1.8497
   17CHL1  H22B 1242   5.422   4.835   5.668  0.2575 -1.0397  1.3138
   17CHL1   C23 1243   5.263   4.978   5.598 -1.2180  0.3460  0.1784
   17CHL1  H23A 1244   5.193   4.897   5.568  0.5563 -1.4995  0.7634
   17CHL1  H23B 1245   5.194   5.054   5.641 -1.2696 -0.0747  0.8558
   17CHL1   C24 1246   5.339   5.031   5.478 -0.4937  0.2693 -0.4137
   17CHL1  H24A 1247   5.393   5.120   5.515  0.3561 -0.5300  0.3220
   17CHL1  H24B 1248   5.410   4.951   5.448  1.4428  2.1047 -0.8893
   17CHL1   C25 1249   5.242   5.077   5.361  0.2999 -0.2573 -0.5602
   17CHL1   H25 1250   5.169   4.994   5.349  0.9832 -0.8724 -0.5938
   17CHL1   C26 1251   5.144   5.196   5.386 -1.0017 -0.4511  0.3179
   17CHL1  H26A 1252   5.071   5.208   5.303  0.8715 -0.3122 -1.3825
   17CHL1  H26B 1253   5.092   5.187   5.484 -0.2388  1.0650  0.8862
   17CHL1  H26C 1254   5.201   5.291   5.385 -1.0708 -0.4075  0.4755
   17CHL1   C27 1255   5.315   5.108   5.230  0.3484  0.6310 -0.0640
   17CHL1  H27A 1256   5.395   5.033   5.213  0.1060  1.1754 -4.9242
   17CHL1  H27B 1257   5.241   5.086   5.151 -0.6291 -2.7273  1.5878
   17CHL1  H27C 1258   5.350   5.214   5.233  1.2419  0.3754 -0.9944
   18CHL1    C3 1259   5.117   5.364   6.672 -0.3306 -1.1012  0.1810
   18CHL1    H3 1260   5.058   5.272   6.658  1.1793 -2.1260  0.3061
   18CHL1    O3 1261   5.173   5.379   6.800 -0.5886 -0.3182  1.0487
   18CHL1   H3' 1262   5.264   5.350   6.792 -0.0198  1.2333  1.5080
   18CHL1    C4 1263   5.244   5.357   6.576  0.2919 -0.3449 -0.0031
   18CHL1   H4A 1264   5.312   5.440   6.605 -0.7310  0.4793  0.0975
   18CHL1   H4B 1265   5.299   5.268   6.612 -2.1709 -0.3000  4.6228
   18CHL1    C5 1266   5.212   5.355   6.426  0.0557 -0.3673 -0.5296
   18CHL1    C6 1267   5.232   5.247   6.345 -0.2647  0.3459  0.0704
   18CHL1    H6 1268   5.293   5.161   6.376  1.9606  2.0921  0.8201
   18CHL1    C7 1269   5.182   5.249   6.205 -0.3517  0.0607 -0.0245
   18CHL1   H7A 1270   5.252   5.197   6.136  0.1001  1.1209 -0.3852
   18CHL1   H7B 1271   5.082   5.202   6.203  0.2427 -1.3547  1.2942
   18CHL1    C8 1272   5.171   5.401   6.152 -0.1019  0.2851 -0.1512
   18CHL1    H8 1273   5.271   5.448   6.158 -1.0508  2.2308  1.7933
   18CHL1   C14 1274   5.115   5.391   6.006  0.5510 -0.9830 -0.3576
   18CHL1   H14 1275   5.023   5.330   6.014 -0.3729  0.4854  0.5551
   18CHL1   C15 1276   5.197   5.324   5.901 -0.0108  0.2079 -0.1236
   18CHL1  H15A 1277   5.303   5.357   5.893  0.7036 -1.2940  2.2566
   18CHL1  H15B 1278   5.190   5.214   5.918 -0.3815  0.2604  0.0678
   18CHL1   C16 1279   5.124   5.365   5.769 -0.0400 -0.0436  0.1716
   18CHL1  H16A 1280   5.202   5.376   5.690 -1.4022  0.3466 -1.1531
   18CHL1  H16B 1281   5.065   5.282   5.725  0.7879  0.0304 -1.1714
   18CHL1   C17 1282   5.027   5.481   5.805  0.2249  0.5202  0.3001
   18CHL1   H17 1283   4.929   5.430   5.824 -0.4490  1.0048 -1.6603
   18CHL1   C13 1284   5.064   5.527   5.947 -1.2816  0.7640 -0.3935
   18CHL1   C18 1285   5.186   5.624   5.941  0.1422 -0.3046 -0.3356
   18CHL1  H18A 1286   5.267   5.593   5.871  0.2385  2.3527 -1.5153
   18CHL1  H18B 1287   5.148   5.719   5.897  1.1971 -0.6709 -2.1145
   18CHL1  H18C 1288   5.227   5.646   6.041  1.1887  2.0240 -1.2226
   18CHL1   C12 1289   4.955   5.586   6.039  0.4364  0.1418 -0.0049
   18CHL1  H12A 1290   4.937   5.687   5.997 -0.8017 -0.7996 -1.9025
   18CHL1  H12B 1291   4.860   5.531   6.019 -0.3304  1.7481 -1.0431
   18CHL1   C11 1292   4.998   5.587   6.185 -0.3020 -0.2984  0.6604
   18CHL1  H11A 1293   5.062   5.676   6.202 -1.4204  0.8045 -0.6320
   18CHL1  H11B 1294   4.908   5.610   6.246 -0.8494 -1.4365  0.3046
   18CHL1    C9 1295   5.071   5.467   6.244  0.3368 -0.0024 -0.3477
   18CHL1    H9 1296   4.985   5.398   6.252  0.1342  0.2697 -0.1573
   18CHL1   C10 1297   5.127   5.478   6.387  0.1615  0.1134  0.4579
   18CHL1   C19 1298   5.218   5.599   6.397 -0.5547 -0.2273  0.1139
   18CHL1  H19A 1299   5.309   5.577   6.337 -0.5764 -1.4902  0.5053
   18CHL1  H19B 1300   5.178   5.699   6.369  1.5002  1.1275  1.7463
   18CHL1  H19C 1301   5.254   5.604   6.502  0.9605  0.2495 -0.4145
   18CHL1    C1 1302   4.999   5.499   6.480 -0.0939  0.0597  0.4711
   18CHL1   H1A 1303   4.942   5.587   6.442 -0.7762 -0.4175  0.3642
   18CHL1   H1B 1304   4.938   5.406   6.475  0.2075 -0.0710 -1.2449
   18CHL1    C2 1305   5.037   5.489   6.630 -0.3692 -0.3376  0.1209
   18CHL1   H2A 1306   4.954   5.522   6.696  0.4151  1.4462  0.2718
   18CHL1   H2B 1307   5.104   5.577   6.645  1.8483 -1.8685 -0.3834
   18CHL1   C20 1308   5.005   5.588   5.687 -0.4517  0.3393 -0.3831
   18CHL1   H20 1309   5.099   5.647   5.697  0.4117 -1.2471  1.3975
   18CHL1   C21 1310   4.871   5.674   5.708 -0.3118  0.6987 -0.1714
   18CHL1  H21A 1311   4.786   5.603   5.704  0.0387  0.2399  0.4555
   18CHL1  H21B 1312   4.852   5.752   5.630 -1.5029  0.4551 -0.1461
   18CHL1  H21C 1313   4.865   5.723   5.808  0.3354 -0.6916  0.5742
   18CHL1   C22 1314   5.002   5.522   5.545 -0.4005 -0.1290  0.2065
   18CHL1  H22A 1315   5.090   5.454   5.542  0.9316  1.4812  1.4090
   18CHL1  H22B 1316   4.901   5.475   5.543  0.1953 -1.4427 -0.9300
   18CHL1   C23 1317   5.019   5.624   5.433 -0.3775 -0.4863  0.7082
   18CHL1  H23A 1318   4.994   5.576   5.336  0.7732  1.5808 -0.6900
   18CHL1  H23B 1319   4.942   5.702   5.450  1.5523  1.5900  0.3859
   18CHL1   C24 1320   5.156   5.689   5.416  0.3666  0.2676 -0.4627
   18CHL1  H24A 1321   5.208   5.681   5.514  1.2496  0.0187 -0.9422
   18CHL1  H24B 1322   5.214   5.618   5.353 -0.6448 -1.8973  0.8853
   18CHL1   C25 1323   5.157   5.834   5.364  0.1713 -0.3029  0.1464
   18CHL1   H25 1324   5.097   5.834   5.271  1.3618  0.1483 -0.6350
   18CHL1   C26 1325   5.115   5.925   5.476 -0.6986  0.9244  0.7903
   18CHL1  H26A 1326   5.107   6.027   5.432  0.5910  0.9992  0.6727
   18CHL1  H26B 1327   5.021   5.895   5.526 -2.3433 -0.1168 -2.6157
   18CHL1  H26C 1328   5.200   5.920   5.548  0.5711 -3.4475 -0.7319
   18CHL1   C27 1329   5.299   5.880   5.324 -0.5164 -0.0411  0.6376
   18CHL1  H27A 1330   5.363   5.872   5.415 -1.5491 -0.5285  1.3411
   18CHL1  H27B 1331   5.342   5.803   5.258  1.7372 -0.5233  2.5315
   18CHL1  H27C 1332   5.305   5.980   5.275  0.3544 -0.1918  0.4170
   19CHL1    C3 1333   4.625   3.896   6.378  0.1374 -0.7518 -0.6960
   19CHL1    H3 1334   4.519   3.925   6.360 -0.6129 -3.5335 -1.2518
   19CHL1    O3 1335   4.659   3.885   6.516 -0.0058  0.0189  0.2708
   19CHL1   H3' 1336   4.726   3.816   6.517 -0.3254 -0.5321 -3.1244
   19CHL1    C4 1337   4.640   3.761   6.302  0.2188 -0.0996  0.4206
   19CHL1   H4A 1338   4.742   3.720   6.314  0.8385  1.4577  0.7724
   19CHL1   H4B 1339   4.576   3.679   6.340 -0.3134 -0.4526 -1.1481
   19CHL1    C5 1340   4.609   3.780   6.154 -0.2247  0.2687  0.1490
   19CHL1    C6 1341   4.513   3.707   6.091 -0.1522 -0.2746 -0.6581
   19CHL1    H6 1342   4.446   3.642   6.149 -0.7224 -0.6638 -1.7117
   19CHL1    C7 1343   4.490   3.709   5.944  0.2898  0.6103 -0.1036
   19CHL1   H7A 1344   4.481   3.601   5.920 -1.8685  0.6312  0.4069
   19CHL1   H7B 1345   4.395   3.761   5.918 -0.5545  1.3359  3.8145
   19CHL1    C8 1346   4.605   3.773   5.864 -0.2249 -0.1776  0.1839
   19CHL1    H8 1347   4.686   3.698   5.872 -0.9803 -0.9798  0.4923
   19CHL1   C14 1348   4.555   3.812   5.723 -0.6549 -0.1409 -0.1907
   19CHL1   H14 1349   4.476   3.888   5.741  0.8184  1.3140  0.4081
   19CHL1   C15 1350   4.493   3.698   5.637  0.6991  0.0609  0.8185
   19CHL1  H15A 1351   4.563   3.613   5.643  1.0977  0.2823 -0.4004
   19CHL1  H15B 1352   4.399   3.660   5.682  0.7217  1.3161  1.9793
   19CHL1   C16 1353   4.481   3.762   5.493  0.5059  0.2414  0.4358
   19CHL1  H16A 1354   4.516   3.689   5.418  0.2098  0.5312  0.0043
   19CHL1  H16B 1355   4.381   3.803   5.464  0.5622  0.4173  0.4855
   19CHL1   C17 1356   4.579   3.886   5.494 -0.0402 -0.3378 -0.9167
   19CHL1   H17 1357   4.514   3.975   5.509  0.0095 -0.4491  0.0167
   19CHL1   C13 1358   4.656   3.873   5.625  0.3271 -0.5564  0.0864
   19CHL1   C18 1359   4.775   3.780   5.606 -1.1341 -0.3216  0.1009
   19CHL1  H18A 1360   4.750   3.697   5.537  2.0534 -1.2961 -0.0460
   19CHL1  H18B 1361   4.855   3.835   5.553  0.8748 -1.1899  2.0703
   19CHL1  H18C 1362   4.818   3.742   5.701 -0.7949 -0.0033  0.0748
   19CHL1   C12 1363   4.714   4.004   5.691  0.2636 -0.0103  0.0425
   19CHL1  H12A 1364   4.800   4.045   5.634 -0.4229  1.5432  0.0566
   19CHL1  H12B 1365   4.636   4.084   5.683 -0.4726 -0.6296  0.7913
   19CHL1   C11 1366   4.757   3.979   5.834  0.0425  0.4758 -0.0927
   19CHL1  H11A 1367   4.853   3.924   5.823 -0.3586  0.1861 -3.3483
   19CHL1  H11B 1368   4.786   4.072   5.886 -0.2538  0.8460 -0.5782
   19CHL1    C9 1369   4.654   3.904   5.929  0.5181  0.3387  0.5215
   19CHL1    H9 1370   4.564   3.969   5.921  1.3604  1.3280 -2.4099
   19CHL1   C10 1371   4.707   3.878   6.079  0.0133 -0.0770  0.0360
   19CHL1   C19 1372   4.846   3.812   6.077 -0.5684  0.2694  0.2888
   19CHL1  H19A 1373   4.888   3.777   6.174 -0.4818 -0.8158 -0.1252
   19CHL1  H19B 1374   4.849   3.725   6.008 -0.1380  1.4168 -1.2007
   19CHL1  H19C 1375   4.911   3.895   6.040 -0.8949  0.5260  0.2888
   19CHL1    C1 1376   4.714   4.013   6.161  0.3694  0.9646  0.3701
   19CHL1   H1A 1377   4.801   4.068   6.119  1.1778 -0.6982 -0.2340
   19CHL1   H1B 1378   4.623   4.072   6.136  0.5844  1.3436  0.4810
   19CHL1    C2 1379   4.725   3.992   6.314  0.2277 -0.6272  1.2105
   19CHL1   H2A 1380   4.709   4.091   6.362  1.4240  0.5849 -0.7169
   19CHL1   H2B 1381   4.824   3.951   6.344 -0.3886 -3.6578 -0.5182
   19CHL1   C20 1382   4.650   3.913   5.360 -0.6054 -0.0397  0.1918
   19CHL1   H20 1383   4.696   3.818   5.325 -1.8527 -0.1260 -1.2885
   19CHL1   C21 1384   4.751   4.025   5.372 -0.1237 -0.2826  0.0422
   19CHL1  H21A 1385   4.842   4.002   5.432  0.4517 -1.5720 -1.2668
   19CHL1  H21B 1386   4.705   4.107   5.432  1.2109 -0.9159  2.0520
   19CHL1  H21C 1387   4.783   4.061   5.272 -0.7328 -0.1301 -0.1039
   19CHL1   C22 1388   4.549   3.954   5.248  0.1196  0.0264  0.6688
   19CHL1  H22A 1389   4.461   3.885   5.251  3.0269 -4.0712  1.1873
   19CHL1  H22B 1390   4.516   4.058   5.264 -1.5970 -0.5194  0.8859
   19CHL1   C23 1391   4.605   3.935   5.099 -0.0364 -0.3691 -0.8622
   19CHL1  H23A 1392   4.687   4.006   5.073 -0.3084 -0.3202 -1.6180
   19CHL1  H23B 1393   4.640   3.832   5.077  1.3351  0.1954 -1.4707
   19CHL1   C24 1394   4.487   3.955   4.998 -0.1203  0.3183  0.5885
   19CHL1  H24A 1395   4.414   3.880   5.034  0.9652 -0.7677  0.5714
   19CHL1  H24B 1396   4.441   4.054   5.017 -0.0863  0.3155  0.6839
   19CHL1   C25 1397   4.531   3.932   4.852 -0.6061 -0.3419  0.8436
   19CHL1   H25 1398   4.633   3.976   4.846 -0.7479 -0.0711  0.3983
   19CHL1   C26 1399   4.571   3.787   4.813  0.3058 -0.1585 -0.3894
   19CHL1  H26A 1400   4.597   3.780   4.705 -0.4615 -0.3474 -0.5640
   19CHL1  H26B 1401   4.662   3.751   4.866 -0.4889 -0.3511  0.8748
   19CHL1  H26C 1402   4.480   3.724   4.815 -0.0704  0.3880  0.2421
   19CHL1   C27 1403   4.436   4.004   4.753  0.4574  0.0255  0.7474
   19CHL1  H27A 1404   4.478   4.021   4.651 -0.8579 -0.3803  0.1225
   19CHL1  H27B 1405   4.342   3.945   4.746 -1.3426  2.6799  0.8445
   19CHL1  H27C 1406   4.412   4.100   4.803  0.4042 -0.3517  1.4565
   20CHL1    C3 1407   3.608   0.321   6.800  0.3150 -0.6881  1.3233
   20CHL1    H3 1408   3.685   0.242   6.783  2.8363  1.7311  0.6884
   20CHL1    O3 1409   3.600   0.331   6.941 -0.3675  0.3281  0.2306
   20CHL1   H3' 1410   3.561   0.417   6.954 -1.8405  0.3746 -3.3946
   20CHL1    C4 1411   3.638   0.458   6.722  0.2734 -0.4764  0.0208
   20CHL1   H4A 1412   3.554   0.527   6.742  0.0217  0.2426 -3.0165
   20CHL1   H4B 1413   3.730   0.496   6.771 -0.9836  0.2519  1.9347
   20CHL1    C5 1414   3.639   0.441   6.571  0.5320 -0.6592 -0.0052
   20CHL1    C6 1415   3.748   0.484   6.506  0.1632  0.1269  0.0440
   20CHL1    H6 1416   3.834   0.533   6.554 -0.2611  1.4434 -0.4823
   20CHL1    C7 1417   3.738   0.489   6.356 -0.5691 -0.5918 -0.7232
   20CHL1   H7A 1418   3.780   0.587   6.325 -2.3096 -0.2034 -2.0221
   20CHL1   H7B 1419   3.798   0.404   6.317  0.5362  0.7317 -2.0444
   20CHL1    C8 1420   3.605   0.476   6.288  1.3284 -0.0006  0.4608
   20CHL1    H8 1421   3.552   0.573   6.282  3.1013  0.9678 -0.3364
   20CHL1   C14 1422   3.634   0.442   6.142  0.1972  0.2145 -0.3394
   20CHL1   H14 1423   3.695   0.350   6.130 -0.3917 -0.0815 -1.1726
   20CHL1   C15 1424   3.717   0.551   6.062  0.1849  0.3910  0.4198
   20CHL1  H15A 1425   3.668   0.650   6.077 -0.1803  0.5988 -1.8342
   20CHL1  H15B 1426   3.826   0.552   6.085  0.2975  0.7427 -0.1193
   20CHL1   C16 1427   3.690   0.496   5.915 -0.3323 -0.2519  0.3197
   20CHL1  H16A 1428   3.661   0.581   5.849  0.2865 -0.0735  0.2630
   20CHL1  H16B 1429   3.785   0.452   5.878  0.5195  1.6474  0.1134
   20CHL1   C17 1430   3.575   0.394   5.921  0.2938  0.0606 -0.4953
   20CHL1   H17 1431   3.617   0.291   5.927 -1.5125 -0.9656 -3.4001
   20CHL1   C13 1432   3.511   0.407   6.064 -0.1421 -0.0274  0.6940
   20CHL1   C18 1433   3.411   0.525   6.047  0.7442  0.3545  0.2492
   20CHL1  H18A 1434   3.454   0.603   5.981  1.0280  0.3473  0.4253
   20CHL1  H18B 1435   3.321   0.487   5.994  0.6034  0.3053  0.5192
   20CHL1  H18C 1436   3.379   0.572   6.142 -1.1512 -0.2312 -0.0508
   20CHL1   C12 1437   3.437   0.291   6.118  0.2790  0.0379  0.0535
   20CHL1  H12A 1438   3.333   0.281   6.080 -0.9923  1.1908  2.9431
   20CHL1  H12B 1439   3.494   0.201   6.087 -2.6116 -1.6835 -0.5913
   20CHL1   C11 1440   3.415   0.312   6.270  0.2866 -0.1477  0.2960
   20CHL1  H11A 1441   3.328   0.381   6.275 -1.0941 -1.5848 -1.9673
   20CHL1  H11B 1442   3.368   0.222   6.316 -0.1226  0.1020  0.3721
   20CHL1    C9 1443   3.533   0.363   6.359 -0.2837 -0.1290  0.2215
   20CHL1    H9 1444   3.601   0.275   6.358 -0.4180 -0.2575 -2.0481
   20CHL1   C10 1445   3.509   0.389   6.510 -0.1238 -0.5407 -0.3877
   20CHL1   C19 1446   3.387   0.485   6.520 -0.2039 -0.1382  1.3366
   20CHL1  H19A 1447   3.293   0.434   6.491 -1.2489  1.2976  2.1075
   20CHL1  H19B 1448   3.369   0.519   6.624 -2.2698  0.5712  0.7879
   20CHL1  H19C 1449   3.400   0.571   6.451  0.7102 -1.6360 -0.4611
   20CHL1    C1 1450   3.478   0.261   6.588 -0.5957 -0.0307  0.5961
   20CHL1   H1A 1451   3.381   0.222   6.550 -0.0865  0.1595 -0.9364
   20CHL1   H1B 1452   3.552   0.185   6.554  1.5227  2.7237 -1.3819
   20CHL1    C2 1453   3.475   0.269   6.740  0.0820 -0.6290 -0.0873
   20CHL1   H2A 1454   3.443   0.175   6.788  3.8761 -3.0114 -1.7577
   20CHL1   H2B 1455   3.399   0.342   6.775  0.2623 -0.2002 -0.5590
   20CHL1   C20 1456   3.482   0.382   5.797 -0.4053  0.8793  0.2158
   20CHL1   H20 1457   3.422   0.474   5.783 -0.7274  0.5834 -0.3659
   20CHL1   C21 1458   3.364   0.276   5.814 -0.5285  0.4429 -0.2735
   20CHL1  H21A 1459   3.280   0.299   5.882 -2.2705 -1.7061 -1.5689
   20CHL1  H21B 1460   3.416   0.185   5.851  1.9365  1.0374 -1.9923
   20CHL1  H21C 1461   3.311   0.249   5.720 -0.9167 -1.2769  0.4117
   20CHL1   C22 1462   3.562   0.338   5.668 -0.3498  0.4614  0.3194
   20CHL1  H22A 1463   3.645   0.412   5.667 -1.4558  1.7555  0.7904
   20CHL1  H22B 1464   3.603   0.235   5.678  2.5273  1.3475 -1.0852
   20CHL1   C23 1465   3.491   0.325   5.528  0.1082  0.5575  0.1488
   20CHL1  H23A 1466   3.561   0.278   5.456 -0.8357 -0.4303 -0.1459
   20CHL1  H23B 1467   3.425   0.238   5.542  3.1840 -2.0351 -0.3175
   20CHL1   C24 1468   3.419   0.455   5.491 -0.8350  0.1781 -0.6245
   20CHL1  H24A 1469   3.347   0.490   5.568 -0.8012 -1.1703  0.0476
   20CHL1  H24B 1470   3.491   0.540   5.483 -0.9623  0.2576 -0.9585
   20CHL1   C25 1471   3.338   0.450   5.359  0.3461 -0.1377  0.2236
   20CHL1   H25 1472   3.413   0.427   5.281 -1.3932  0.6007 -1.7847
   20CHL1   C26 1473   3.229   0.349   5.376 -0.9780 -1.1384 -0.0247
   20CHL1  H26A 1474   3.199   0.345   5.483  2.2458  0.0382  1.0361
   20CHL1  H26B 1475   3.141   0.384   5.317  0.3401  0.9970 -0.8356
   20CHL1  H26C 1476   3.272   0.249   5.354  0.2930 -0.5965 -0.0577
   20CHL1   C27 1477   3.289   0.587   5.320  0.0981  0.6623 -0.3088
   20CHL1  H27A 1478   3.371   0.660   5.302 -0.3528  1.1384 -0.4382
   20CHL1  H27B 1479   3.234   0.587   5.223 -1.3654 -1.5421  0.4567
   20CHL1  H27C 1480   3.219   0.633   5.392  0.7681  1.6419 -0.2669
   21CHL1    C3 1481   3.114   5.565   6.628  0.0969  0.0570 -0.3754
   21CHL1    H3 1482   3.081   5.468   6.586  0.4914 -2.3418  4.2004
   21CHL1    O3 1483   3.206   5.539   6.734 -0.2641  0.3354  0.3669
   21CHL1   H3' 1484   3.265   5.614   6.743  1.6335 -0.9267 -0.9920
   21CHL1    C4 1485   3.185   5.660   6.535 -0.1538  0.0905  0.4092
   21CHL1   H4A 1486   3.213   5.752   6.590  4.6554 -0.9782  0.1606
   21CHL1   H4B 1487   3.279   5.611   6.502 -0.0494  0.2508  0.4699
   21CHL1    C5 1488   3.088   5.702   6.422  0.9812 -0.1360  0.2615
   21CHL1    C6 1489   3.121   5.686   6.295  0.1963 -0.4685  0.9903
   21CHL1    H6 1490   3.227   5.668   6.270  0.1846  0.5491  0.1327
   21CHL1    C7 1491   3.049   5.734   6.170 -0.2670 -0.1449  0.1852
   21CHL1   H7A 1492   3.107   5.797   6.100  0.2408 -0.9681 -0.1524
   21CHL1   H7B 1493   3.022   5.638   6.121 -0.0859 -0.3954  0.5652
   21CHL1    C8 1494   2.931   5.822   6.200 -0.6125 -0.7876 -0.0623
   21CHL1    H8 1495   2.979   5.919   6.227 -2.9784  0.1050  1.2656
   21CHL1   C14 1496   2.833   5.844   6.092  0.1671  0.4187 -0.1030
   21CHL1   H14 1497   2.799   5.741   6.068 -0.8241  0.5569  0.6282
   21CHL1   C15 1498   2.895   5.876   5.956  0.0744 -0.4429 -0.2988
   21CHL1  H15A 1499   2.967   5.956   5.981 -0.0374 -1.0083  2.0365
   21CHL1  H15B 1500   2.948   5.790   5.909  0.2452 -1.1509  1.1505
   21CHL1   C16 1501   2.774   5.937   5.883  0.1641 -0.0299 -0.0090
   21CHL1  H16A 1502   2.792   6.046   5.874 -0.7076  0.0949 -0.3338
   21CHL1  H16B 1503   2.760   5.899   5.780 -1.8645 -2.0383  0.9093
   21CHL1   C17 1504   2.653   5.916   5.978  0.2054  0.0988  0.4871
   21CHL1   H17 1505   2.625   5.813   5.950  1.7948 -0.2888  0.1977
   21CHL1   C13 1506   2.708   5.927   6.118 -0.0958 -0.0659  0.0551
   21CHL1   C18 1507   2.747   6.063   6.169  0.1012 -0.3137  0.3900
   21CHL1  H18A 1508   2.821   6.109   6.100  0.4604 -2.0591 -0.4191
   21CHL1  H18B 1509   2.655   6.125   6.179 -0.6041 -1.4716  1.3428
   21CHL1  H18C 1510   2.782   6.068   6.274 -0.7750 -0.3678  0.6938
   21CHL1   C12 1511   2.628   5.854   6.233  0.2214 -0.6509  0.1193
   21CHL1  H12A 1512   2.534   5.906   6.259 -0.1810 -1.3857  0.1778
   21CHL1  H12B 1513   2.603   5.751   6.197 -0.6270 -1.0823  1.8616
   21CHL1   C11 1514   2.711   5.826   6.359 -0.4066 -0.1147 -0.1840
   21CHL1  H11A 1515   2.728   5.925   6.406  0.8595 -0.6610  0.5548
   21CHL1  H11B 1516   2.654   5.774   6.439  0.0762 -0.1979  0.1107
   21CHL1    C9 1517   2.851   5.763   6.330  0.0950  0.4936  0.1336
   21CHL1    H9 1518   2.837   5.659   6.293  1.0356 -0.1344  1.4715
   21CHL1   C10 1519   2.945   5.750   6.458  0.2792 -0.6384 -0.0275
   21CHL1   C19 1520   2.963   5.904   6.511 -0.5604 -0.1327  0.4038
   21CHL1  H19A 1521   3.008   5.966   6.430 -2.9003 -0.6981 -1.4623
   21CHL1  H19B 1522   2.866   5.950   6.539 -0.6634  0.5830 -1.0296
   21CHL1  H19C 1523   3.045   5.912   6.585  4.0161 -2.1386 -3.8135
   21CHL1    C1 1524   2.889   5.666   6.575 -0.2273 -0.3125  0.1437
   21CHL1   H1A 1525   2.798   5.716   6.615 -1.7898 -0.8761 -2.4701
   21CHL1   H1B 1526   2.855   5.570   6.530 -0.3908  0.3604 -1.2441
   21CHL1    C2 1527   2.993   5.630   6.684  0.1447 -0.5835 -0.0531
   21CHL1   H2A 1528   2.947   5.572   6.767 -3.1193  1.2648 -0.3957
   21CHL1   H2B 1529   3.025   5.722   6.737 -1.4886  0.5312 -0.9302
   21CHL1   C20 1530   2.541   6.015   5.939 -0.1245  0.5484 -0.1493
   21CHL1   H20 1531   2.544   6.117   5.982 -1.7180  1.1829 -1.4185
   21CHL1   C21 1532   2.410   5.955   5.990  0.0961  0.0161 -1.1508
   21CHL1  H21A 1533   2.319   5.997   5.942 -1.9626 -2.0559  0.6942
   21CHL1  H21B 1534   2.401   5.961   6.100  5.4839  3.3439 -0.5096
   21CHL1  H21C 1535   2.401   5.851   5.952  1.2716  0.4998 -2.9319
   21CHL1   C22 1536   2.528   6.022   5.781  0.3403 -0.6982  0.2635
   21CHL1  H22A 1537   2.602   6.099   5.750 -2.1746  1.4514 -0.7884
   21CHL1  H22B 1538   2.545   5.925   5.730 -0.9607  0.6733 -3.1001
   21CHL1   C23 1539   2.394   6.065   5.714  0.3435  0.3113 -0.1836
   21CHL1  H23A 1540   2.321   5.983   5.732 -0.9553  1.5166  0.2238
   21CHL1  H23B 1541   2.362   6.164   5.755  1.5941  0.7642 -0.2612
   21CHL1   C24 1542   2.409   6.087   5.564  0.2639  0.4725  0.1597
   21CHL1  H24A 1543   2.482   6.166   5.535 -1.7170  1.3956 -2.7701
   21CHL1  H24B 1544   2.429   5.998   5.500 -0.7739 -1.3329  2.2238
   21CHL1   C25 1545   2.285   6.160   5.503 -0.5808  0.2152  0.3294
   21CHL1   H25 1546   2.272   6.250   5.567 -1.4465  0.6521 -0.4347
   21CHL1   C26 1547   2.325   6.209   5.358 -0.7757  0.4153  0.6187
   21CHL1  H26A 1548   2.415   6.273   5.361  0.5312 -1.3210 -0.1164
   21CHL1  H26B 1549   2.335   6.131   5.279  0.4168  0.3833  0.7832
   21CHL1  H26C 1550   2.242   6.274   5.324 -0.9237  0.0594  0.2962
   21CHL1   C27 1551   2.162   6.077   5.502  0.0639  0.1551  0.0689
   21CHL1  H27A 1552   2.086   6.141   5.453 -3.8431 -2.7325  1.7639
   21CHL1  H27B 1553   2.177   5.984   5.443  0.5725 -0.1371  0.6520
   21CHL1  H27C 1554   2.133   6.044   5.604  0.9917 -2.9669 -0.5621
   22CHL1    C3 1555   2.750   3.743   6.327 -0.1294  0.1762 -0.6604
   22CHL1    H3 1556   2.798   3.649   6.292  0.2302 -0.6869  1.9487
   22CHL1    O3 1557   2.750   3.740   6.471 -0.6784  0.3459  0.1019
   22CHL1   H3' 1558   2.843   3.744   6.491 -0.8576 -1.7345  1.7698
   22CHL1    C4 1559   2.824   3.865   6.280  0.1384  0.7074 -0.5473
   22CHL1   H4A 1560   2.775   3.953   6.326  1.4519  1.8344 -1.2012
   22CHL1   H4B 1561   2.926   3.863   6.324 -0.1302 -0.6594  0.0430
   22CHL1    C5 1562   2.827   3.865   6.129  0.2872  0.6470  0.2145
   22CHL1    C6 1563   2.942   3.835   6.065  1.3643  0.0284 -0.7568
   22CHL1    H6 1564   3.033   3.828   6.126  0.3223 -1.0313  0.7441
   22CHL1    C7 1565   2.947   3.836   5.916 -0.6897 -0.2899 -0.5236
   22CHL1   H7A 1566   3.031   3.894   5.872 -0.2523 -0.6395 -0.1675
   22CHL1   H7B 1567   2.958   3.726   5.899 -1.2391 -0.4837  0.3356
   22CHL1    C8 1568   2.828   3.890   5.839  0.3491 -0.0433 -0.2229
   22CHL1    H8 1569   2.826   3.997   5.866  2.0227 -0.6183  2.5767
   22CHL1   C14 1570   2.838   3.858   5.692  0.1680 -0.0703  0.1177
   22CHL1   H14 1571   2.834   3.747   5.690 -2.4897 -0.0517  0.8089
   22CHL1   C15 1572   2.965   3.897   5.607 -0.0072 -0.5066  0.3593
   22CHL1  H15A 1573   3.010   3.997   5.624 -0.5933 -0.2146  0.2291
   22CHL1  H15B 1574   3.045   3.821   5.625  2.1586  1.6512  0.3926
   22CHL1   C16 1575   2.918   3.883   5.463  0.2866  0.4320  0.1222
   22CHL1  H16A 1576   2.938   3.976   5.407 -4.0972  0.8268 -1.1931
   22CHL1  H16B 1577   2.950   3.806   5.389 -2.0797  0.8964 -1.5119
   22CHL1   C17 1578   2.761   3.859   5.473  0.1804  0.2179 -1.6974
   22CHL1   H17 1579   2.754   3.749   5.479  2.5029  0.0865 -0.1313
   22CHL1   C13 1580   2.716   3.900   5.615 -0.2804 -0.2007  0.4997
   22CHL1   C18 1581   2.700   4.053   5.612 -0.4660 -0.7081  0.5613
   22CHL1  H18A 1582   2.683   4.103   5.709  2.1939  1.7996 -0.1470
   22CHL1  H18B 1583   2.802   4.087   5.583 -1.0129  0.4225 -0.1056
   22CHL1  H18C 1584   2.616   4.077   5.543 -0.5929 -0.0388  0.9418
   22CHL1   C12 1585   2.597   3.825   5.674  0.2890 -0.0397  0.6030
   22CHL1  H12A 1586   2.500   3.850   5.627  0.4540  0.9303  0.7439
   22CHL1  H12B 1587   2.597   3.715   5.666  1.0949  0.0525 -1.0673
   22CHL1   C11 1588   2.575   3.869   5.817 -0.4362  0.1747 -0.4155
   22CHL1  H11A 1589   2.547   3.977   5.812 -1.6412 -0.0905  0.2826
   22CHL1  H11B 1590   2.481   3.827   5.858 -0.8766  3.4249  2.3855
   22CHL1    C9 1591   2.701   3.827   5.895 -1.0597 -0.2457  0.0042
   22CHL1    H9 1592   2.697   3.716   5.884 -1.3045 -0.0535 -2.1961
   22CHL1   C10 1593   2.693   3.852   6.054  0.6234 -0.4918  0.4042
   22CHL1   C19 1594   2.622   3.992   6.074  0.3064 -0.5077  0.1995
   22CHL1  H19A 1595   2.680   4.066   6.015 -1.1851  1.7603  1.4109
   22CHL1  H19B 1596   2.523   3.977   6.026  0.7970  0.1127 -1.0552
   22CHL1  H19C 1597   2.616   4.022   6.181 -0.0343 -2.3835  0.7389
   22CHL1    C1 1598   2.606   3.732   6.114 -0.7066 -0.3996  0.2863
   22CHL1   H1A 1599   2.498   3.738   6.088 -0.3534 -0.4304 -1.2506
   22CHL1   H1B 1600   2.634   3.632   6.075 -2.0436 -2.3857  3.9291
   22CHL1    C2 1601   2.604   3.729   6.270 -0.2169  0.3645  0.0472
   22CHL1   H2A 1602   2.557   3.638   6.313 -1.5473  0.1801 -1.6981
   22CHL1   H2B 1603   2.545   3.821   6.291  1.2151  1.7307 -1.6654
   22CHL1   C20 1604   2.685   3.900   5.349 -0.4025 -0.5071  0.7577
   22CHL1   H20 1605   2.703   4.007   5.325  1.6617 -0.5802  1.7678
   22CHL1   C21 1606   2.531   3.889   5.355  0.1139  0.2729  0.1283
   22CHL1  H21A 1607   2.490   3.916   5.256  0.7659  0.7072 -0.0261
   22CHL1  H21B 1608   2.492   3.955   5.436  1.4370 -0.0557  1.0642
   22CHL1  H21C 1609   2.506   3.782   5.376  2.9058 -0.3978  0.4526
   22CHL1   C22 1610   2.731   3.814   5.224 -0.5996  0.0855 -0.3898
   22CHL1  H22A 1611   2.840   3.827   5.205 -0.2286 -0.4948  1.2185
   22CHL1  H22B 1612   2.714   3.709   5.253 -0.3534 -0.3433 -1.7446
   22CHL1   C23 1613   2.666   3.842   5.091  0.9658  0.4977 -0.1006
   22CHL1  H23A 1614   2.562   3.801   5.091  1.3782 -0.5806  0.5036
   22CHL1  H23B 1615   2.662   3.950   5.065 -0.9420  0.4740 -0.0419
   22CHL1   C24 1616   2.748   3.766   4.989  0.4752  0.0814  0.0077
   22CHL1  H24A 1617   2.855   3.795   4.999  0.0594  1.4841  0.7115
   22CHL1  H24B 1618   2.746   3.657   5.010  1.9767  0.4890  2.5658
   22CHL1   C25 1619   2.714   3.802   4.846  0.4727 -0.0385  0.5320
   22CHL1   H25 1620   2.698   3.912   4.846  0.8866  0.0243  0.7782
   22CHL1   C26 1621   2.826   3.744   4.761  1.2020  0.1452  0.0243
   22CHL1  H26A 1622   2.918   3.804   4.772  2.1787 -1.1707 -0.6951
   22CHL1  H26B 1623   2.839   3.635   4.776 -0.4604 -0.2433 -1.0671
   22CHL1  H26C 1624   2.798   3.750   4.654 -2.0427 -3.0865  0.4832
   22CHL1   C27 1625   2.586   3.739   4.809  0.2533  0.0729 -0.8219
   22CHL1  H27A 1626   2.565   3.752   4.700  0.2659  1.9481 -0.6270
   22CHL1  H27B 1627   2.587   3.631   4.835  0.0294  0.5192  1.1900
   22CHL1  H27C 1628   2.506   3.782   4.873  0.8991 -1.0670  0.8169
   23CHL1    C3 1629   2.509   6.623   6.762 -0.3821 -0.1178  0.4410
   23CHL1    H3 1630   2.590   6.699   6.767 -0.4168 -0.0615  0.1733
   23CHL1    O3 1631   2.462   6.607   6.894 -0.9497  0.1631  0.4054
   23CHL1   H3' 1632   2.379   6.558   6.886  0.3953 -1.9837 -2.1088
   23CHL1    C4 1633   2.388   6.684   6.680 -0.6089 -0.8036 -0.5459
   23CHL1   H4A 1634   2.296   6.626   6.699  0.4248 -1.6857  2.3403
   23CHL1   H4B 1635   2.367   6.782   6.729  0.7773 -0.6793 -0.1483
   23CHL1    C5 1636   2.414   6.693   6.527  0.2270 -0.6552 -0.3214
   23CHL1    C6 1637   2.399   6.816   6.457 -0.5429 -0.4796  0.3160
   23CHL1    H6 1638   2.361   6.908   6.504  0.4586 -0.3221  0.8301
   23CHL1    C7 1639   2.432   6.825   6.307  0.0416  0.5891  0.2393
   23CHL1   H7A 1640   2.365   6.901   6.260 -1.6892 -0.6038  0.6449
   23CHL1   H7B 1641   2.535   6.865   6.301 -0.6718  2.3838 -0.9679
   23CHL1    C8 1642   2.410   6.689   6.239  0.6301  0.3205 -0.3178
   23CHL1    H8 1643   2.303   6.664   6.258  1.1200 -0.7994  1.2263
   23CHL1   C14 1644   2.434   6.701   6.085 -0.8553 -0.0845 -0.2665
   23CHL1   H14 1645   2.540   6.733   6.078  0.3022 -2.9998  1.7846
   23CHL1   C15 1646   2.354   6.795   6.004 -0.2769 -0.6310  0.3831
   23CHL1  H15A 1647   2.243   6.787   6.015 -0.5804  1.9442 -0.1720
   23CHL1  H15B 1648   2.376   6.903   6.022  1.7941 -1.1962  1.4843
   23CHL1   C16 1649   2.383   6.754   5.855 -0.5453 -0.8420 -0.7501
   23CHL1  H16A 1650   2.283   6.747   5.807 -1.1203 -2.1225  0.5413
   23CHL1  H16B 1651   2.455   6.819   5.801  1.0483  0.1267  2.2920
   23CHL1   C17 1652   2.461   6.618   5.871  0.3188 -0.2062 -0.2851
   23CHL1   H17 1653   2.565   6.652   5.889 -0.3613 -0.0797  4.6648
   23CHL1   C13 1654   2.429   6.571   6.009  0.4126  0.3168  0.0619
   23CHL1   C18 1655   2.283   6.517   5.994  0.3715 -0.0948  0.0967
   23CHL1  H18A 1656   2.209   6.574   5.934 -0.9716 -1.4506  0.3832
   23CHL1  H18B 1657   2.286   6.418   5.944 -1.6578  0.2222 -0.7666
   23CHL1  H18C 1658   2.235   6.507   6.094  0.2879  1.8182  0.2871
   23CHL1   C12 1659   2.516   6.463   6.076  0.3279 -0.1937  1.1837
   23CHL1  H12A 1660   2.502   6.366   6.024  1.3590  0.3026 -0.0910
   23CHL1  H12B 1661   2.623   6.488   6.057 -0.3671  0.1169 -3.9565
   23CHL1   C11 1662   2.487   6.449   6.225 -0.3237 -0.6349 -0.1532
   23CHL1  H11A 1663   2.389   6.397   6.236 -0.9600  0.6656  0.5786
   23CHL1  H11B 1664   2.572   6.388   6.261  1.4238  1.9464  0.4163
   23CHL1    C9 1665   2.498   6.578   6.310  0.7981  0.1898  0.4622
   23CHL1    H9 1666   2.603   6.613   6.306  1.0806 -0.7009 -0.3352
   23CHL1   C10 1667   2.462   6.565   6.463 -0.5103 -0.5603 -0.0883
   23CHL1   C19 1668   2.332   6.471   6.478 -0.2141  0.7428 -0.1868
   23CHL1  H19A 1669   2.292   6.448   6.579  1.0369 -0.5274  0.0576
   23CHL1  H19B 1670   2.256   6.523   6.416 -1.4969 -1.1593 -0.2933
   23CHL1  H19C 1671   2.350   6.368   6.438  1.3978  1.0217 -0.2471
   23CHL1    C1 1672   2.573   6.507   6.548 -0.7455  0.5577  0.5773
   23CHL1   H1A 1673   2.608   6.407   6.513 -1.1151  1.0656 -1.3685
   23CHL1   H1B 1674   2.654   6.583   6.550 -0.1676 -0.0450  0.5079
   23CHL1    C2 1675   2.557   6.493   6.706  0.0373  0.1516 -0.4126
   23CHL1   H2A 1676   2.643   6.457   6.767 -1.1228  0.5177  1.5070
   23CHL1   H2B 1677   2.481   6.415   6.725  0.4226 -0.1550 -0.1122
   23CHL1   C20 1678   2.473   6.522   5.751  0.0134  0.2281  0.0246
   23CHL1   H20 1679   2.383   6.457   5.754 -1.2466  1.5892 -3.4806
   23CHL1   C21 1680   2.585   6.417   5.774 -1.2750 -0.0379 -0.5722
   23CHL1  H21A 1681   2.637   6.384   5.681 -1.2721  0.2482 -0.6747
   23CHL1  H21B 1682   2.548   6.325   5.823 -1.7030  0.4987  0.1331
   23CHL1  H21C 1683   2.669   6.452   5.839 -0.1993 -0.8528 -1.4768
   23CHL1   C22 1684   2.458   6.590   5.613 -0.7707 -0.3624 -0.3347
   23CHL1  H22A 1685   2.378   6.667   5.617 -0.2783  0.1248  0.2783
   23CHL1  H22B 1686   2.551   6.649   5.606  0.2099 -1.9053 -0.8546
   23CHL1   C23 1687   2.456   6.495   5.497  0.3719  0.1418  0.1426
   23CHL1  H23A 1688   2.524   6.407   5.508  1.3959  0.9812  0.6718
   23CHL1  H23B 1689   2.350   6.462   5.496  0.7010 -1.0242 -1.3708
   23CHL1   C24 1690   2.481   6.568   5.360  0.2217  0.3185 -0.0343
   23CHL1  H24A 1691   2.444   6.503   5.279  1.3908 -0.1325 -0.2211
   23CHL1  H24B 1692   2.419   6.661   5.356  2.8747  2.1725 -1.0965
   23CHL1   C25 1693   2.621   6.623   5.328  0.2228 -0.1982  0.4323
   23CHL1   H25 1694   2.646   6.701   5.404  1.6491 -0.5043  0.3169
   23CHL1   C26 1695   2.729   6.519   5.323 -0.0558 -0.3698  0.3892
   23CHL1  H26A 1696   2.744   6.452   5.410  1.8777 -0.2260  0.2040
   23CHL1  H26B 1697   2.714   6.453   5.235  1.0691  1.3443 -1.1753
   23CHL1  H26C 1698   2.829   6.566   5.313 -0.5747  0.9607  1.1369
   23CHL1   C27 1699   2.618   6.709   5.193 -0.6117 -0.2855 -0.3465
   23CHL1  H27A 1700   2.552   6.798   5.204 -0.3645 -0.2869  1.4691
   23CHL1  H27B 1701   2.721   6.745   5.172 -0.6090  0.7635  1.2572
   23CHL1  H27C 1702   2.581   6.646   5.110 -0.3144 -0.4327 -0.3676
   24CHL1    C3 1703   4.317   4.764   6.933 -0.7874 -0.3514  0.3495
   24CHL1    H3 1704   4.418   4.791   6.895 -0.5327 -0.0621  1.2000
   24CHL1    O3 1705   4.308   4.781   7.077  0.0579  0.3331  0.5404
   24CHL1   H3' 1706   4.218   4.810   7.095  0.6652  2.1995  0.7566
   24CHL1    C4 1707   4.215   4.864   6.867 -0.3103 -0.3079 -0.4052
   24CHL1   H4A 1708   4.122   4.826   6.914 -0.5613 -0.9929 -1.4137
   24CHL1   H4B 1709   4.227   4.967   6.908  0.3778 -1.2377  1.9145
   24CHL1    C5 1710   4.207   4.852   6.712 -0.0059  0.2722  0.1706
   24CHL1    C6 1711   4.241   4.955   6.633  0.0495  0.0315 -0.1899
   24CHL1    H6 1712   4.287   5.047   6.671 -0.8197 -0.1854  1.5370
   24CHL1    C7 1713   4.236   4.945   6.482 -0.0277 -0.2058  0.1477
   24CHL1   H7A 1714   4.183   5.036   6.446 -0.9783 -1.2193 -1.1154
   24CHL1   H7B 1715   4.338   4.932   6.441  0.5234 -0.9580  1.6618
   24CHL1    C8 1716   4.146   4.829   6.438  0.2572  0.3638  0.0107
   24CHL1    H8 1717   4.038   4.847   6.454 -0.7811 -2.8341 -2.3419
   24CHL1   C14 1718   4.151   4.817   6.282  0.1481  0.1736 -0.5426
   24CHL1   H14 1719   4.253   4.781   6.256  0.2099 -0.3990  0.4467
   24CHL1   C15 1720   4.127   4.940   6.202  0.0363 -0.0428 -0.4208
   24CHL1  H15A 1721   4.050   5.006   6.246  0.9888 -0.2222  1.6228
   24CHL1  H15B 1722   4.222   4.997   6.190  0.2311 -0.3279 -0.2537
   24CHL1   C16 1723   4.087   4.880   6.062 -0.4118 -0.4973  0.5618
   24CHL1  H16A 1724   3.982   4.912   6.042  0.2152  1.3941  0.0555
   24CHL1  H16B 1725   4.165   4.918   5.993  0.3093 -0.9143  1.1300
   24CHL1   C17 1726   4.093   4.722   6.071 -0.1783 -0.2209  0.5319
   24CHL1   H17 1727   4.202   4.706   6.055 -0.2423  1.1842 -1.6782
   24CHL1   C13 1728   4.060   4.701   6.221 -0.1055 -0.4494  0.4140
   24CHL1   C18 1729   3.911   4.715   6.249 -0.1285  0.4803  0.0600
   24CHL1  H18A 1730   3.861   4.786   6.180  1.2338  1.8966  0.4624
   24CHL1  H18B 1731   3.864   4.615   6.248 -0.8397  0.8039 -1.1597
   24CHL1  H18C 1732   3.892   4.744   6.355  0.9681  3.0300 -0.3573
   24CHL1   C12 1733   4.116   4.573   6.290 -0.0177  0.0628  0.4677
   24CHL1  H12A 1734   4.062   4.483   6.252  0.6766  0.0700 -0.5642
   24CHL1  H12B 1735   4.221   4.560   6.257  0.8010  0.2156  2.8497
   24CHL1   C11 1736   4.104   4.578   6.445 -0.0679  0.4707  0.2420
   24CHL1  H11A 1737   3.999   4.564   6.477  0.1485 -3.0224 -0.1949
   24CHL1  H11B 1738   4.139   4.479   6.483 -3.5267 -1.4610 -1.1899
   24CHL1    C9 1739   4.181   4.695   6.511 -0.3022 -0.4130  0.4587
   24CHL1    H9 1740   4.287   4.679   6.482  0.2903  1.4957  1.4184
   24CHL1   C10 1741   4.173   4.705   6.664 -0.7715  0.4227 -0.1033
   24CHL1   C19 1742   4.030   4.670   6.710  0.4041  0.1494  0.1200
   24CHL1  H19A 1743   3.962   4.725   6.642  0.7268 -0.9161 -1.1032
   24CHL1  H19B 1744   4.006   4.562   6.700 -4.0097  0.9006  0.6078
   24CHL1  H19C 1745   4.009   4.686   6.818 -0.4115 -2.6404  0.4536
   24CHL1    C1 1746   4.273   4.608   6.732  0.5924  0.0491 -0.3301
   24CHL1   H1A 1747   4.245   4.505   6.701  3.9731 -1.3502  0.7078
   24CHL1   H1B 1748   4.368   4.630   6.678  0.6142 -2.0932 -1.2533
   24CHL1    C2 1749   4.290   4.619   6.887  0.6839 -0.0359 -0.1813
   24CHL1   H2A 1750   4.369   4.547   6.920  1.1262 -0.2123 -1.5650
   24CHL1   H2B 1751   4.199   4.577   6.935  1.0306  1.4429  1.8889
   24CHL1   C20 1752   4.010   4.649   5.958 -0.3233  0.1133  0.1849
   24CHL1   H20 1753   3.903   4.650   5.988 -1.1140  1.0815 -2.4412
   24CHL1   C21 1754   4.054   4.501   5.955 -0.2856  0.0727  0.7269
   24CHL1  H21A 1755   4.163   4.499   5.939 -0.4281  1.6777 -0.7395
   24CHL1  H21B 1756   4.004   4.447   5.872 -1.0270 -0.7770  1.6870
   24CHL1  H21C 1757   4.029   4.447   6.049 -1.1846  0.7986  0.9204
   24CHL1   C22 1758   4.009   4.726   5.824 -0.1889  0.4773  0.0913
   24CHL1  H22A 1759   3.991   4.835   5.831 -1.6458  0.2292  0.5956
   24CHL1  H22B 1760   4.112   4.712   5.786 -0.5938  1.0549 -1.2883
   24CHL1   C23 1761   3.914   4.669   5.711 -0.6498  0.6042  0.4713
   24CHL1  H23A 1762   3.906   4.559   5.721 -3.6386  0.7144  0.0734
   24CHL1  H23B 1763   3.812   4.703   5.737 -1.2503 -1.9384  1.7458
   24CHL1   C24 1764   3.936   4.694   5.559 -0.0646  0.5577  0.0707
   24CHL1  H24A 1765   4.028   4.639   5.532 -1.6146 -1.8815 -0.6044
   24CHL1  H24B 1766   3.850   4.659   5.497 -0.0431  0.2298  0.2299
   24CHL1   C25 1767   3.948   4.847   5.534  0.0461  0.2915 -0.0481
   24CHL1   H25 1768   4.026   4.880   5.606 -0.9157  2.0224  0.2337
   24CHL1   C26 1769   3.987   4.867   5.383  0.3202 -0.2133 -0.7093
   24CHL1  H26A 1770   3.895   4.868   5.321  0.2565 -0.7012 -0.6196
   24CHL1  H26B 1771   4.033   4.967   5.368  0.9371 -0.0178  1.9302
   24CHL1  H26C 1772   4.049   4.779   5.356  1.8721 -0.2335  2.4567
   24CHL1   C27 1773   3.812   4.916   5.574 -0.9206 -0.6660 -0.4182
   24CHL1  H27A 1774   3.801   4.908   5.684  1.5516 -0.1005 -0.0668
   24CHL1  H27B 1775   3.811   5.024   5.548  1.3322  0.3100  2.8503
   24CHL1  H27C 1776   3.730   4.858   5.528 -1.2832 -0.4330 -0.0667
   25CHL1    C3 1777   1.443   1.359   7.249 -0.1668 -0.5965 -1.1776
   25CHL1    H3 1778   1.370   1.440   7.227  2.3996  1.6123 -2.1308
   25CHL1    O3 1779   1.444   1.357   7.388  0.6021 -0.1704  0.4069
   25CHL1   H3' 1780   1.351   1.359   7.415  1.2109 -0.3873  2.7068
   25CHL1    C4 1781   1.378   1.231   7.204 -0.9197  0.4507 -0.4885
   25CHL1   H4A 1782   1.448   1.151   7.238  0.6937  1.9279 -0.1562
   25CHL1   H4B 1783   1.278   1.210   7.248 -0.5489  0.2321  0.2818
   25CHL1    C5 1784   1.378   1.226   7.057 -0.1606  0.7574  1.0623
   25CHL1    C6 1785   1.260   1.199   6.996 -0.3991  0.5346  0.6807
   25CHL1    H6 1786   1.168   1.171   7.049 -0.2292  0.2773  0.8418
   25CHL1    C7 1787   1.256   1.169   6.849  0.2170  0.2609 -0.2832
   25CHL1   H7A 1788   1.193   1.079   6.839  0.0689  0.1490  1.4051
   25CHL1   H7B 1789   1.207   1.252   6.794 -2.4704 -1.2251 -0.2591
   25CHL1    C8 1790   1.394   1.140   6.779  0.0381  0.2444 -0.1181
   25CHL1    H8 1791   1.439   1.041   6.803  2.9270  0.7690 -2.7488
   25CHL1   C14 1792   1.385   1.140   6.626  0.2995 -0.5539 -0.6517
   25CHL1   H14 1793   1.341   1.237   6.593  3.1111  1.4142  0.9712
   25CHL1   C15 1794   1.296   1.031   6.564 -0.0433 -0.0008  0.1161
   25CHL1  H15A 1795   1.288   0.935   6.618  2.0654  0.2853  1.0271
   25CHL1  H15B 1796   1.196   1.079   6.567 -1.0392 -1.9854  0.5519
   25CHL1   C16 1797   1.349   1.023   6.417  0.3837 -0.3473  0.3824
   25CHL1  H16A 1798   1.390   0.920   6.407 -0.6585 -0.6608 -0.9069
   25CHL1  H16B 1799   1.268   1.044   6.345 -0.9189 -0.2664  1.8124
   25CHL1   C17 1800   1.460   1.133   6.403 -0.2971  1.2166  0.1156
   25CHL1   H17 1801   1.407   1.227   6.379 -1.7839 -0.0086 -1.7043
   25CHL1   C13 1802   1.516   1.138   6.547  0.3003  0.3160 -0.3118
   25CHL1   C18 1803   1.602   1.012   6.581 -0.2208  0.1827 -0.5104
   25CHL1  H18A 1804   1.549   0.923   6.542 -0.9399  0.0030  0.8233
   25CHL1  H18B 1805   1.698   1.022   6.526 -0.8726  0.0864 -1.6859
   25CHL1  H18C 1806   1.624   1.000   6.690  0.3466 -0.8573 -0.7260
   25CHL1   C12 1807   1.595   1.263   6.583  0.2987  0.2391 -0.2117
   25CHL1  H12A 1808   1.696   1.265   6.538  0.6583  0.0598  0.5731
   25CHL1  H12B 1809   1.526   1.341   6.544 -0.2871  0.6524  1.5404
   25CHL1   C11 1810   1.615   1.271   6.736  0.0020  0.0184  0.1040
   25CHL1  H11A 1811   1.705   1.210   6.756 -0.0280 -0.9222 -2.2858
   25CHL1  H11B 1812   1.646   1.377   6.754 -0.7440  0.6033 -1.7657
   25CHL1    C9 1813   1.488   1.251   6.829 -0.0262  0.2784  0.2091
   25CHL1    H9 1814   1.429   1.342   6.805  0.3440 -0.1167 -2.5018
   25CHL1   C10 1815   1.507   1.245   6.981  0.2360 -0.0132  0.4414
   25CHL1   C19 1816   1.608   1.132   7.014 -0.1396 -0.1194 -0.4846
   25CHL1  H19A 1817   1.625   1.117   7.123 -1.0041 -0.2602 -0.3639
   25CHL1  H19B 1818   1.581   1.032   6.973  0.4297 -0.0482 -1.0517
   25CHL1  H19C 1819   1.702   1.158   6.960 -0.8715  1.9697 -0.8262
   25CHL1    C1 1820   1.562   1.378   7.029 -0.2273  0.2300 -0.6182
   25CHL1   H1A 1821   1.661   1.392   6.981  1.1054  0.8809  2.1542
   25CHL1   H1B 1822   1.494   1.465   7.011 -0.2171  0.6856  1.3587
   25CHL1    C2 1823   1.582   1.382   7.181 -0.3100  0.1348 -0.3609
   25CHL1   H2A 1824   1.628   1.479   7.208  2.0490 -0.9144 -0.3647
   25CHL1   H2B 1825   1.664   1.310   7.204 -0.0136  0.6731  0.2869
   25CHL1   C20 1826   1.563   1.107   6.284 -0.2580  0.4489 -0.3952
   25CHL1   H20 1827   1.600   1.002   6.291  0.6421  0.7086 -1.0645
   25CHL1   C21 1828   1.669   1.208   6.270  0.3438  0.1691  0.0908
   25CHL1  H21A 1829   1.627   1.310   6.265 -1.3321 -0.4534  0.4989
   25CHL1  H21B 1830   1.735   1.184   6.184 -0.1902 -0.9219 -0.0438
   25CHL1  H21C 1831   1.734   1.194   6.359 -1.3790 -0.5204  1.3098
   25CHL1   C22 1832   1.486   1.111   6.152  0.1141 -0.1795  0.4781
   25CHL1  H22A 1833   1.385   1.068   6.167  0.9063 -1.5381  2.2679
   25CHL1  H22B 1834   1.483   1.217   6.118  2.1215 -0.8310 -2.1124
   25CHL1   C23 1835   1.552   1.021   6.051 -1.0230  0.2428  0.3937
   25CHL1  H23A 1836   1.662   1.031   6.054 -0.9949 -0.0824  0.4956
   25CHL1  H23B 1837   1.522   0.917   6.078 -2.2564  0.6388  0.6357
   25CHL1   C24 1838   1.506   1.036   5.907  0.5129  0.2694  0.7760
   25CHL1  H24A 1839   1.395   1.037   5.914  0.2687 -3.1761 -0.5293
   25CHL1  H24B 1840   1.539   1.138   5.877 -1.2136  0.6773  0.1142
   25CHL1   C25 1841   1.541   0.930   5.808  0.5117  0.1257 -0.1376
   25CHL1   H25 1842   1.651   0.919   5.803  0.5108 -0.5239  0.9162
   25CHL1   C26 1843   1.469   0.799   5.840 -0.0239 -0.1532 -0.0385
   25CHL1  H26A 1844   1.494   0.766   5.943 -0.3490  1.5035  0.5965
   25CHL1  H26B 1845   1.359   0.809   5.837 -0.1406 -0.7472  1.3241
   25CHL1  H26C 1846   1.505   0.711   5.782  0.8236  0.9689 -1.2877
   25CHL1   C27 1847   1.482   0.971   5.669 -0.6682  1.0760 -0.5515
   25CHL1  H27A 1848   1.497   0.880   5.606  0.7653  0.3279  0.7978
   25CHL1  H27B 1849   1.373   0.988   5.678 -1.3652 -2.9029  0.2977
   25CHL1  H27C 1850   1.538   1.061   5.635  0.1844  0.5080 -0.6930
   26CHL1    C3 1851   5.996   4.973   6.664 -0.1347  0.1188 -0.0537
   26CHL1    H3 1852   6.001   4.878   6.607 -1.5817  1.1066 -1.9735
   26CHL1    O3 1853   5.973   4.940   6.798 -0.4602 -0.0875 -0.3398
   26CHL1   H3' 1854   5.958   5.023   6.844  3.1853  0.1677  0.6955
   26CHL1    C4 1855   6.130   5.047   6.645 -0.9427 -0.4023 -1.1320
   26CHL1   H4A 1856   6.110   5.138   6.705 -0.7625 -3.3862  4.0648
   26CHL1   H4B 1857   6.206   4.994   6.708 -2.1795 -0.7590  0.1108
   26CHL1    C5 1858   6.168   5.073   6.497 -0.2850 -0.6862 -0.3649
   26CHL1    C6 1859   6.277   5.020   6.438  0.1075 -0.0475  0.7312
   26CHL1    H6 1860   6.348   4.964   6.500  0.6118 -0.7494 -0.4386
   26CHL1    C7 1861   6.312   5.036   6.288  0.5226 -0.6115  0.1237
   26CHL1   H7A 1862   6.420   5.060   6.280  0.5224 -0.6308  0.0586
   26CHL1   H7B 1863   6.292   4.938   6.241 -0.0114 -0.8191  0.7640
   26CHL1    C8 1864   6.215   5.134   6.214 -0.2019  0.1083 -0.0119
   26CHL1    H8 1865   6.249   5.239   6.223  2.1581 -0.4571 -1.3767
   26CHL1   C14 1866   6.218   5.090   6.070 -0.6682  1.0240 -0.0784
   26CHL1   H14 1867   6.183   4.985   6.075  1.6834  0.1566 -0.5944
   26CHL1   C15 1868   6.358   5.081   6.004 -0.4153  0.5308 -0.3377
   26CHL1  H15A 1869   6.433   5.163   6.011 -0.2906  0.6968 -2.7199
   26CHL1  H15B 1870   6.417   4.989   6.028 -0.9090  0.2428 -0.2176
   26CHL1   C16 1871   6.320   5.083   5.849  0.3987 -0.8193  0.4033
   26CHL1  H16A 1872   6.382   5.163   5.804 -1.7335 -0.3183 -1.8134
   26CHL1  H16B 1873   6.353   4.993   5.793 -2.1038 -0.7923 -1.2405
   26CHL1   C17 1874   6.168   5.110   5.839  0.5791 -0.0080 -0.0073
   26CHL1   H17 1875   6.112   5.014   5.841 -1.4375  1.1043  1.4071
   26CHL1   C13 1876   6.125   5.171   5.975  0.1806  0.3287  0.0095
   26CHL1   C18 1877   6.162   5.321   5.976  0.1378  0.3184 -0.4236
   26CHL1  H18A 1878   6.161   5.365   6.078 -1.3434 -0.7797  0.0668
   26CHL1  H18B 1879   6.261   5.352   5.937 -0.3767  0.0636 -2.0087
   26CHL1  H18C 1880   6.083   5.392   5.943 -0.5002  1.9624  3.9597
   26CHL1   C12 1881   5.982   5.150   6.019  0.5360 -0.2140  0.7756
   26CHL1  H12A 1882   5.904   5.205   5.962  1.4347 -0.1766 -0.4697
   26CHL1  H12B 1883   5.952   5.045   6.002 -1.3522  0.5550 -0.9860
   26CHL1   C11 1884   5.968   5.189   6.167 -0.0454 -0.5961 -0.3246
   26CHL1  H11A 1885   5.980   5.299   6.179  4.6954 -0.8669 -0.7544
   26CHL1  H11B 1886   5.864   5.167   6.196  0.5040 -1.0990  1.3407
   26CHL1    C9 1887   6.075   5.119   6.260  1.4155  0.1935 -0.3699
   26CHL1    H9 1888   6.046   5.013   6.244 -0.6739  0.7386 -0.4569
   26CHL1   C10 1889   6.058   5.136   6.411 -0.0715  0.5278 -0.1725
   26CHL1   C19 1890   6.068   5.290   6.445 -0.5014  0.0338 -0.0998
   26CHL1  H19A 1891   5.984   5.350   6.404 -2.2688 -1.5846  0.9925
   26CHL1  H19B 1892   6.068   5.307   6.555 -1.1615  0.4782 -0.1644
   26CHL1  H19C 1893   6.161   5.332   6.402  0.8438 -3.5575 -1.0222
   26CHL1    C1 1894   5.915   5.080   6.449  0.5251  0.2136 -0.2340
   26CHL1   H1A 1895   5.839   5.144   6.398 -0.1719  0.0496  0.5606
   26CHL1   H1B 1896   5.903   4.980   6.403 -0.1842  0.9062 -1.6264
   26CHL1    C2 1897   5.883   5.060   6.597 -0.1337 -0.1700 -0.3022
   26CHL1   H2A 1898   5.776   5.032   6.613 -0.2301  1.2655  1.9380
   26CHL1   H2B 1899   5.890   5.158   6.647 -0.6640 -1.0006  1.4955
   26CHL1   C20 1900   6.119   5.181   5.713 -0.0793  0.0611 -0.0811
   26CHL1   H20 1901   6.092   5.285   5.741 -0.3043 -0.6709  2.7391
   26CHL1   C21 1902   5.991   5.108   5.664 -0.8156 -0.2146  0.0004
   26CHL1  H21A 1903   6.009   5.003   5.633  0.2912 -0.1946  0.5327
   26CHL1  H21B 1904   5.949   5.162   5.576 -0.2629  2.4692  1.2804
   26CHL1  H21C 1905   5.921   5.109   5.750 -2.6543 -4.4485 -1.1636
   26CHL1   C22 1906   6.225   5.186   5.602  1.2584  0.6692  0.3171
   26CHL1  H22A 1907   6.309   5.243   5.647  0.6973  0.7368  1.3166
   26CHL1  H22B 1908   6.262   5.087   5.570  1.8945  1.0248 -0.0573
   26CHL1   C23 1909   6.179   5.273   5.492  0.3194  0.4667  0.6716
   26CHL1  H23A 1910   6.095   5.231   5.433  1.7051 -0.3562 -0.8153
   26CHL1  H23B 1911   6.128   5.364   5.529 -3.7682 -2.1043  1.9661
   26CHL1   C24 1912   6.288   5.291   5.381 -0.3686  0.1767 -0.3292
   26CHL1  H24A 1913   6.266   5.386   5.328  0.5830  0.0393 -0.9931
   26CHL1  H24B 1914   6.386   5.299   5.433 -1.4631  1.7278  1.5988
   26CHL1   C25 1915   6.289   5.180   5.276  0.0473 -0.4154  0.1917
   26CHL1   H25 1916   6.269   5.085   5.330 -1.5847  1.3770  3.0160
   26CHL1   C26 1917   6.189   5.208   5.159  0.6493 -0.5083 -0.6030
   26CHL1  H26A 1918   6.201   5.141   5.071  0.4836  0.6356 -1.5214
   26CHL1  H26B 1919   6.084   5.194   5.191  0.5178 -2.4429 -1.7314
   26CHL1  H26C 1920   6.199   5.312   5.119  1.1648  0.6291  2.2619
   26CHL1   C27 1921   6.430   5.182   5.214  0.4550 -0.4509 -0.4828
   26CHL1  H27A 1922   6.509   5.181   5.292 -2.1014 -0.2322  2.2898
   26CHL1  H27B 1923   6.437   5.085   5.159 -0.1473 -1.7150  1.5622
   26CHL1  H27C 1924   6.435   5.270   5.146  1.1275  1.1912  1.5879
   27CHL1    C3 1925   4.745   4.621   6.592 -0.0910  0.0611 -0.6543
   27CHL1    H3 1926   4.772   4.729   6.590  2.2707 -0.3967  1.6537
   27CHL1    O3 1927   4.731   4.586   6.730  0.4682 -0.3089 -0.2871
   27CHL1   H3' 1928   4.743   4.491   6.736  2.0132 -0.2628 -1.8603
   27CHL1    C4 1929   4.617   4.585   6.525 -0.7176 -0.4348  0.5355
   27CHL1   H4A 1930   4.586   4.484   6.559  0.5870 -1.4887 -1.2481
   27CHL1   H4B 1931   4.533   4.654   6.548 -0.7179  0.0284 -0.8011
   27CHL1    C5 1932   4.638   4.566   6.371  1.0512 -0.4318  0.6684
   27CHL1    C6 1933   4.540   4.618   6.283  0.6659 -0.3137  0.4001
   27CHL1    H6 1934   4.454   4.677   6.317  0.1523  0.3108 -1.8629
   27CHL1    C7 1935   4.547   4.626   6.138  0.4810 -0.0089 -1.1816
   27CHL1   H7A 1936   4.451   4.588   6.098 -1.4512 -0.5601  3.3082
   27CHL1   H7B 1937   4.567   4.731   6.107  3.1791  0.2855  1.1613
   27CHL1    C8 1938   4.665   4.534   6.084 -0.6524  0.1608  0.3184
   27CHL1    H8 1939   4.637   4.429   6.108  1.8394 -0.3800  1.2596
   27CHL1   C14 1940   4.696   4.565   5.935 -0.4787  0.7566 -0.3007
   27CHL1   H14 1941   4.738   4.668   5.927  1.4095 -0.0524 -1.6971
   27CHL1   C15 1942   4.572   4.557   5.841 -0.5254  0.3717 -0.1404
   27CHL1  H15A 1943   4.506   4.467   5.844 -1.5011  1.0807  0.1190
   27CHL1  H15B 1944   4.514   4.649   5.860 -0.0457  0.3771  1.4480
   27CHL1   C16 1945   4.647   4.560   5.702  0.9502  0.3902  0.8294
   27CHL1  H16A 1946   4.607   4.479   5.637  1.6450  2.1544 -1.9370
   27CHL1  H16B 1947   4.627   4.653   5.646  0.0090  0.3617  1.0901
   27CHL1   C17 1948   4.798   4.544   5.725  0.7033  0.3573  0.0575
   27CHL1   H17 1949   4.847   4.644   5.731 -0.8455  1.2232 -0.9006
   27CHL1   C13 1950   4.814   4.487   5.869 -0.2375  0.4188  0.4590
   27CHL1   C18 1951   4.784   4.338   5.876 -0.4352  0.4302  0.0785
   27CHL1  H18A 1952   4.881   4.284   5.869  0.4968  1.6590  2.3968
   27CHL1  H18B 1953   4.748   4.309   5.977 -1.3952  0.0478 -0.3604
   27CHL1  H18C 1954   4.709   4.305   5.801 -1.2908  0.3084  0.9766
   27CHL1   C12 1955   4.940   4.525   5.951  0.4992  0.4042  0.6853
   27CHL1  H12A 1956   5.031   4.469   5.919 -1.1012 -0.3807 -2.9944
   27CHL1  H12B 1957   4.948   4.634   5.932 -1.6564  0.2586 -1.5543
   27CHL1   C11 1958   4.915   4.490   6.102 -0.2138 -0.7804  0.1445
   27CHL1  H11A 1959   4.904   4.380   6.112 -3.8783 -0.6557 -1.1165
   27CHL1  H11B 1960   5.001   4.522   6.165 -0.9162 -1.3351  1.4256
   27CHL1    C9 1961   4.789   4.552   6.167 -0.1703 -0.6489  0.8856
   27CHL1    H9 1962   4.813   4.661   6.172 -2.7996 -0.0318  1.2175
   27CHL1   C10 1963   4.773   4.511   6.321  0.0795 -0.1644  0.3809
   27CHL1   C19 1964   4.773   4.358   6.331 -0.6448  0.3409 -0.7978
   27CHL1  H19A 1965   4.866   4.306   6.299 -1.1701 -1.6177  0.7003
   27CHL1  H19B 1966   4.760   4.326   6.437  1.9300 -1.0243 -0.8009
   27CHL1  H19C 1967   4.691   4.308   6.276 -0.1015 -1.2827 -0.2064
   27CHL1    C1 1968   4.893   4.555   6.401 -0.9530 -0.1432 -0.8060
   27CHL1   H1A 1969   4.980   4.488   6.385  2.5124  3.1688  2.2932
   27CHL1   H1B 1970   4.932   4.653   6.367  2.4041 -1.7152 -1.9604
   27CHL1    C2 1971   4.874   4.545   6.553  0.7041 -0.3274 -0.2007
   27CHL1   H2A 1972   4.956   4.592   6.612 -0.2852 -0.8032  1.6321
   27CHL1   H2B 1973   4.866   4.440   6.587  1.6062  0.1642  1.6912
   27CHL1   C20 1974   4.859   4.463   5.610  0.5197 -0.2883  0.4736
   27CHL1   H20 1975   4.806   4.366   5.599  0.4577 -0.1088 -0.9467
   27CHL1   C21 1976   5.001   4.431   5.634 -0.4047  0.6289 -0.1067
   27CHL1  H21A 1977   5.012   4.379   5.732  0.2064  1.9467  0.5426
   27CHL1  H21B 1978   5.062   4.524   5.638  0.2432  0.3228 -1.8391
   27CHL1  H21C 1979   5.031   4.358   5.555 -2.5011 -0.4358  0.0267
   27CHL1   C22 1980   4.853   4.531   5.472 -0.2930  0.5180  0.1894
   27CHL1  H22A 1981   4.753   4.577   5.457 -1.7309 -2.2326  0.5842
   27CHL1  H22B 1982   4.929   4.611   5.465  1.3472 -1.0963 -2.6392
   27CHL1   C23 1983   4.885   4.426   5.356 -0.2858  0.1631  0.1559
   27CHL1  H23A 1984   4.990   4.390   5.364 -0.8189 -1.4950  0.0226
   27CHL1  H23B 1985   4.816   4.340   5.368  0.2288 -0.7006 -2.3338
   27CHL1   C24 1986   4.867   4.490   5.209 -0.3041  0.1088 -0.6860
   27CHL1  H24A 1987   4.764   4.520   5.178  0.1112 -1.2079 -3.7120
   27CHL1  H24B 1988   4.921   4.586   5.220  1.2067 -0.7910 -0.0608
   27CHL1   C25 1989   4.917   4.413   5.089 -0.3707  0.6847 -1.1226
   27CHL1   H25 1990   4.841   4.333   5.080 -2.9008  2.8017  0.0589
   27CHL1   C26 1991   4.905   4.505   4.965 -0.3214 -0.2401 -0.1917
   27CHL1  H26A 1992   4.976   4.590   4.963 -0.2263 -0.3299 -1.1723
   27CHL1  H26B 1993   4.923   4.461   4.865  1.8729  1.8684 -0.8288
   27CHL1  H26C 1994   4.810   4.562   4.963 -0.4999 -0.4897  0.5231
   27CHL1   C27 1995   5.055   4.358   5.107  0.0781 -0.6707 -0.2431
   27CHL1  H27A 1996   5.102   4.312   5.018  3.6829  2.8768 -0.4586
   27CHL1  H27B 1997   5.132   4.435   5.131  1.1860 -1.3018 -1.6617
   27CHL1  H27C 1998   5.058   4.282   5.188 -0.3036  0.0594  0.4777
   28CHL1    C3 1999   4.739   5.178   6.667 -0.6216 -0.0443 -0.1214
   28CHL1    H3 2000   4.794   5.274   6.662 -0.6703  0.0634  1.0885
   28CHL1    O3 2001   4.709   5.143   6.799 -0.3131 -0.5802  0.2661
   28CHL1   H3' 2002   4.783   5.090   6.830  0.5306  0.2185 -0.3158
   28CHL1    C4 2003   4.614   5.188   6.584  0.1636 -0.4635 -0.5138
   28CHL1   H4A 2004   4.550   5.100   6.607  0.1870 -0.3967 -0.1839
   28CHL1   H4B 2005   4.552   5.272   6.621  0.9855  0.7210 -1.7311
   28CHL1    C5 2006   4.647   5.192   6.437 -0.0223 -0.1052  0.2505
   28CHL1    C6 2007   4.597   5.294   6.364  0.0053  0.2006  0.0237
   28CHL1    H6 2008   4.530   5.365   6.415 -0.8762 -0.8674  0.3931
   28CHL1    C7 2009   4.612   5.303   6.210  0.6103  1.0130 -0.0548
   28CHL1   H7A 2010   4.515   5.336   6.166 -0.8252  0.2385  2.3409
   28CHL1   H7B 2011   4.688   5.383   6.194  2.0625 -0.1761  0.6550
   28CHL1    C8 2012   4.653   5.169   6.146 -0.5391 -0.0628  0.5796
   28CHL1    H8 2013   4.562   5.106   6.147 -1.6034  1.3960 -0.7579
   28CHL1   C14 2014   4.707   5.193   6.008  0.4873 -1.3543  0.1460
   28CHL1   H14 2015   4.799   5.253   6.018 -0.1406  0.2633 -2.6833
   28CHL1   C15 2016   4.611   5.266   5.911 -1.0388  0.0629  0.0235
   28CHL1  H15A 2017   4.506   5.233   5.930 -0.2042 -2.4862  0.5771
   28CHL1  H15B 2018   4.628   5.374   5.929 -0.5088 -0.0462  0.1678
   28CHL1   C16 2019   4.675   5.223   5.769  0.4305  0.0800 -0.6170
   28CHL1  H16A 2020   4.584   5.181   5.721 -0.6313  0.8801  0.5968
   28CHL1  H16B 2021   4.701   5.315   5.712  1.4858  0.5343  0.5466
   28CHL1   C17 2022   4.788   5.122   5.794 -0.0332 -0.0560 -0.7123
   28CHL1   H17 2023   4.886   5.174   5.797  0.0949 -0.2569 -1.2953
   28CHL1   C13 2024   4.751   5.067   5.933  0.2321  0.7618 -0.4495
   28CHL1   C18 2025   4.626   4.967   5.919  0.0098 -0.8084  0.2203
   28CHL1  H18A 2026   4.598   4.927   6.019 -1.3557 -2.0101 -0.6099
   28CHL1  H18B 2027   4.542   5.022   5.871 -0.1022  1.2234  2.5283
   28CHL1  H18C 2028   4.656   4.887   5.849 -0.0471  1.5940 -2.7412
   28CHL1   C12 2029   4.864   5.000   6.015 -1.0950  0.4099 -0.6898
   28CHL1  H12A 2030   4.894   4.911   5.955  0.0457  2.6334 -3.6689
   28CHL1  H12B 2031   4.952   5.068   6.009  0.7847 -1.8007  0.1942
   28CHL1   C11 2032   4.826   4.978   6.163  0.0477  0.0195 -0.1377
   28CHL1  H11A 2033   4.751   4.896   6.167 -0.7451  0.7574  0.5027
   28CHL1  H11B 2034   4.919   4.958   6.221  1.3592  2.2001 -1.3697
   28CHL1    C9 2035   4.760   5.104   6.225  0.2510 -0.6646 -0.8316
   28CHL1    H9 2036   4.838   5.182   6.232 -2.0470  1.7867 -0.9185
   28CHL1   C10 2037   4.727   5.078   6.379 -0.8448 -0.8563 -0.5711
   28CHL1   C19 2038   4.654   4.949   6.390  0.3767  0.1235 -0.5275
   28CHL1  H19A 2039   4.561   4.945   6.329  1.5480  1.9501 -2.5774
   28CHL1  H19B 2040   4.714   4.858   6.371  1.2218  0.2957  1.0612
   28CHL1  H19C 2041   4.633   4.926   6.497  0.7797 -1.7163 -0.8120
   28CHL1    C1 2042   4.864   5.077   6.462 -0.0773  0.1893 -0.5603
   28CHL1   H1A 2043   4.931   4.996   6.428 -1.5074 -1.6661  0.7914
   28CHL1   H1B 2044   4.913   5.171   6.428  0.9952 -0.7327 -1.6095
   28CHL1    C2 2045   4.841   5.071   6.616 -0.4528  0.7029 -0.0200
   28CHL1   H2A 2046   4.938   5.077   6.670  0.2571 -0.5086 -1.0753
   28CHL1   H2B 2047   4.808   4.969   6.646  0.8695 -0.3329 -1.8130
   28CHL1   C20 2048   4.795   5.028   5.670 -0.3052  0.4709 -0.2287
   28CHL1   H20 2049   4.705   4.963   5.669  1.0765 -1.6135 -3.0536
   28CHL1   C21 2050   4.918   4.935   5.684  0.5836 -0.2398  0.2826
   28CHL1  H21A 2051   5.008   4.993   5.711  0.1310  1.0249 -0.8237
   28CHL1  H21B 2052   4.920   4.872   5.592  0.7600 -0.8623  0.7095
   28CHL1  H21C 2053   4.896   4.873   5.773  2.3786  1.7719  2.2446
   28CHL1   C22 2054   4.791   5.098   5.533  0.4236  0.1366 -0.7909
   28CHL1  H22A 2055   4.688   5.136   5.516  0.0613 -0.0334  0.8604
   28CHL1  H22B 2056   4.860   5.182   5.511  1.2267 -1.0285 -3.1943
   28CHL1   C23 2057   4.825   5.003   5.416  0.0063 -0.5703 -0.5150
   28CHL1  H23A 2058   4.929   4.965   5.422  0.2541  0.0652 -0.7412
   28CHL1  H23B 2059   4.766   4.910   5.434  0.0378 -0.1456  2.0692
   28CHL1   C24 2060   4.790   5.065   5.280  0.3910  0.1048 -0.1362
   28CHL1  H24A 2061   4.687   5.107   5.277 -0.1528 -1.1979 -2.0758
   28CHL1  H24B 2062   4.867   5.142   5.258  1.5068 -0.5299  1.3442
   28CHL1   C25 2063   4.792   4.953   5.171 -0.1401  0.7866 -0.4243
   28CHL1   H25 2064   4.770   5.010   5.078  1.0927  0.3989 -0.9722
   28CHL1   C26 2065   4.926   4.875   5.148 -0.3035  0.1842  0.0173
   28CHL1  H26A 2066   5.010   4.947   5.139 -1.5716  1.5474 -1.3547
   28CHL1  H26B 2067   4.961   4.806   5.229  0.7863 -1.0244 -1.4240
   28CHL1  H26C 2068   4.914   4.821   5.052 -1.0369  0.1510  0.1182
   28CHL1   C27 2069   4.686   4.841   5.194 -0.3410  0.0040 -0.0990
   28CHL1  H27A 2070   4.722   4.776   5.277 -2.0172  1.4467  1.8569
   28CHL1  H27B 2071   4.587   4.887   5.215  0.5047  0.8211  2.5406
   28CHL1  H27C 2072   4.680   4.776   5.104 -0.3252  1.2058 -0.9888
   29CHL1    C3 2073   4.312   4.505   3.484 -0.4750 -0.7142  0.9522
   29CHL1    H3 2074   4.214   4.553   3.463 -0.7027 -2.2691 -2.2071
   29CHL1    O3 2075   4.369   4.452   3.367 -0.3953  0.1229  0.4213
   29CHL1   H3' 2076   4.293   4.405   3.331  0.9019 -1.1728 -0.7342
   29CHL1    C4 2077   4.412   4.616   3.535  0.4953  0.0261  1.1331
   29CHL1   H4A 2078   4.518   4.582   3.537  0.2789 -0.8504 -0.6297
   29CHL1   H4B 2079   4.423   4.701   3.464 -1.1883 -0.4179  0.2872
   29CHL1    C5 2080   4.373   4.659   3.672  0.0132 -1.1194  0.2116
   29CHL1    C6 2081   4.358   4.790   3.693  0.0468  0.1168  0.5121
   29CHL1    H6 2082   4.366   4.859   3.608  1.7033  1.2329  1.5224
   29CHL1    C7 2083   4.323   4.854   3.828 -0.2238  0.4484 -0.0119
   29CHL1   H7A 2084   4.378   4.950   3.837 -0.8542  0.9253 -1.0532
   29CHL1   H7B 2085   4.218   4.888   3.822 -0.2139  0.2493 -2.3270
   29CHL1    C8 2086   4.352   4.759   3.944  0.4040  0.1828  0.3710
   29CHL1    H8 2087   4.459   4.771   3.970  0.3143  0.6549  0.5416
   29CHL1   C14 2088   4.276   4.801   4.069 -0.5287  0.3181  0.2641
   29CHL1   H14 2089   4.167   4.791   4.053 -0.6255  1.7527 -0.1604
   29CHL1   C15 2090   4.300   4.947   4.121 -0.1556 -0.6775 -0.7961
   29CHL1  H15A 2091   4.411   4.953   4.134 -0.2580 -2.0951  1.4451
   29CHL1  H15B 2092   4.269   5.033   4.059  3.0556 -0.3645 -2.1541
   29CHL1   C16 2093   4.235   4.943   4.260  0.1816  0.6393  0.1745
   29CHL1  H16A 2094   4.312   4.989   4.326  0.6274 -1.9861  1.6409
   29CHL1  H16B 2095   4.137   4.994   4.265 -0.3610 -0.2807 -0.6123
   29CHL1   C17 2096   4.217   4.786   4.295 -0.4727  0.1551 -0.2451
   29CHL1   H17 2097   4.111   4.764   4.269 -0.4076  0.5746 -0.8741
   29CHL1   C13 2098   4.298   4.711   4.191  0.1370 -0.0711 -0.3195
   29CHL1   C18 2099   4.448   4.704   4.233  0.0889  0.3591 -0.4082
   29CHL1  H18A 2100   4.515   4.686   4.146 -2.3575  0.7759 -2.5114
   29CHL1  H18B 2101   4.468   4.801   4.284 -0.1084 -0.7518  1.9086
   29CHL1  H18C 2102   4.454   4.622   4.307  0.0998  2.0420  1.5375
   29CHL1   C12 2103   4.248   4.566   4.162  0.7772  0.3958 -1.0686
   29CHL1  H12A 2104   4.268   4.497   4.248 -0.1114  1.2459 -0.1542
   29CHL1  H12B 2105   4.138   4.578   4.157  0.7627  3.2345  2.1920
   29CHL1   C11 2106   4.312   4.518   4.034 -0.3300  0.1909  0.8416
   29CHL1  H11A 2107   4.416   4.487   4.056 -0.8370 -1.8961  0.5501
   29CHL1  H11B 2108   4.259   4.427   3.996 -1.9699  1.3300  0.3141
   29CHL1    C9 2109   4.309   4.619   3.916  0.4249 -0.1244  0.2891
   29CHL1    H9 2110   4.199   4.635   3.909  0.5455  1.5500  1.4551
   29CHL1   C10 2111   4.366   4.558   3.789 -0.7854  0.1733 -0.2378
   29CHL1   C19 2112   4.520   4.519   3.799  0.1689 -0.4961  0.3595
   29CHL1  H19A 2113   4.534   4.440   3.876 -0.4169 -0.5519  0.4178
   29CHL1  H19B 2114   4.557   4.482   3.700  0.9202  0.3040  0.3362
   29CHL1  H19C 2115   4.579   4.608   3.828 -0.1043  0.2557 -1.2807
   29CHL1    C1 2116   4.287   4.441   3.734  0.8049  1.1363  0.5778
   29CHL1   H1A 2117   4.301   4.358   3.806 -0.0172 -0.8963 -1.4605
   29CHL1   H1B 2118   4.178   4.465   3.732  0.4116 -0.5057 -0.3864
   29CHL1    C2 2119   4.314   4.393   3.587  0.5128 -0.3992 -0.0796
   29CHL1   H2A 2120   4.254   4.304   3.558  0.1066 -0.3033  0.4458
   29CHL1   H2B 2121   4.418   4.355   3.592  0.6308 -0.0409  0.2380
   29CHL1   C20 2122   4.233   4.746   4.445 -0.5790 -0.2895  0.1106
   29CHL1   H20 2123   4.328   4.691   4.464 -1.6312 -1.6326  1.8262
   29CHL1   C21 2124   4.113   4.646   4.477 -0.0850 -0.1747 -1.2931
   29CHL1  H21A 2125   4.110   4.623   4.585 -2.0578 -3.6307 -1.9337
   29CHL1  H21B 2126   4.128   4.546   4.432 -0.2454 -1.1678  0.7436
   29CHL1  H21C 2127   4.021   4.697   4.439  1.3090  2.1623 -1.7770
   29CHL1   C22 2128   4.224   4.861   4.549  0.4824  0.2439  0.3423
   29CHL1  H22A 2129   4.262   4.822   4.646 -2.3820 -2.1170  0.6628
   29CHL1  H22B 2130   4.298   4.939   4.520 -0.7849  0.5505 -2.3764
   29CHL1   C23 2131   4.091   4.934   4.569 -0.9842 -0.2731 -0.4216
   29CHL1  H23A 2132   4.045   4.964   4.472  0.5029  1.1687 -0.7292
   29CHL1  H23B 2133   4.021   4.861   4.614  0.1930 -3.3273 -3.1653
   29CHL1   C24 2134   4.115   5.051   4.658 -0.2987  0.1368 -0.1224
   29CHL1  H24A 2135   4.164   5.017   4.751  2.1759  1.2018 -0.9631
   29CHL1  H24B 2136   4.190   5.121   4.616 -0.1194 -0.8206 -1.4686
   29CHL1   C25 2137   3.983   5.134   4.683 -0.0695  0.4782 -0.7825
   29CHL1   H25 2138   3.940   5.170   4.587 -1.6777  1.1748  0.1411
   29CHL1   C26 2139   3.879   5.046   4.753 -0.5353 -0.1982  0.1186
   29CHL1  H26A 2140   3.787   5.106   4.771  0.7297  2.1919 -0.9165
   29CHL1  H26B 2141   3.845   4.961   4.690 -2.0805  1.9008 -2.0895
   29CHL1  H26C 2142   3.910   5.014   4.854  1.1028 -1.5864 -0.7792
   29CHL1   C27 2143   4.017   5.261   4.769  0.5481 -0.3179 -0.3953
   29CHL1  H27A 2144   4.053   5.225   4.868  2.6544 -2.3081 -1.7697
   29CHL1  H27B 2145   4.089   5.328   4.718 -1.0869  2.9216  1.2815
   29CHL1  H27C 2146   3.923   5.316   4.787  0.7882  0.1494 -0.5666
   30CHL1    C3 2147   6.094   6.376   3.602  0.0818 -0.3686 -0.4933
   30CHL1    H3 2148   5.998   6.426   3.626  0.1859 -0.0852 -0.6663
   30CHL1    O3 2149   6.119   6.383   3.461  0.5062  0.5405 -0.4835
   30CHL1   H3' 2150   6.214   6.377   3.455  0.4242 -0.1396 -1.3872
   30CHL1    C4 2151   6.210   6.458   3.664  0.0946 -0.2840 -0.1802
   30CHL1   H4A 2152   6.308   6.425   3.625 -0.6618  0.7922 -3.2714
   30CHL1   H4B 2153   6.202   6.559   3.619 -4.6870 -0.1007  0.4946
   30CHL1    C5 2154   6.211   6.458   3.820 -0.2343 -0.0945  0.4235
   30CHL1    C6 2155   6.229   6.567   3.897 -0.6368 -0.1809 -0.5553
   30CHL1    H6 2156   6.244   6.660   3.840 -2.3347 -0.2310 -1.1337
   30CHL1    C7 2157   6.257   6.571   4.046  0.1527  0.2288  0.0455
   30CHL1   H7A 2158   6.350   6.631   4.056 -0.2657  0.7472  0.9051
   30CHL1   H7B 2159   6.168   6.621   4.089 -1.8311 -2.3350 -0.8311
   30CHL1    C8 2160   6.277   6.428   4.100  0.2519  0.6987 -0.0671
   30CHL1    H8 2161   6.383   6.393   4.094 -0.5988 -2.1077 -0.1204
   30CHL1   C14 2162   6.245   6.437   4.250  0.0263 -0.4060 -0.3180
   30CHL1   H14 2163   6.145   6.484   4.262  0.2952 -0.0350  0.4964
   30CHL1   C15 2164   6.332   6.531   4.330  1.0151 -0.4919 -0.1030
   30CHL1  H15A 2165   6.437   6.508   4.302  0.7443 -0.7892 -0.9201
   30CHL1  H15B 2166   6.304   6.637   4.318 -0.9192 -0.8428  0.8631
   30CHL1   C16 2167   6.309   6.491   4.481 -0.0459  0.2077  0.0873
   30CHL1  H16A 2168   6.412   6.480   4.520  0.6447  1.6658 -1.2627
   30CHL1  H16B 2169   6.249   6.572   4.529 -0.9652 -0.7113  0.5320
   30CHL1   C17 2170   6.229   6.362   4.472  0.2155 -0.0927  0.2678
   30CHL1   H17 2171   6.121   6.386   4.476  0.0893 -0.5039 -0.4624
   30CHL1   C13 2172   6.252   6.305   4.328  0.2976 -0.1060  0.6840
   30CHL1   C18 2173   6.393   6.242   4.321  0.6181  0.1075 -0.1157
   30CHL1  H18A 2174   6.432   6.214   4.221  4.3680  2.2413  0.5496
   30CHL1  H18B 2175   6.471   6.308   4.365  2.0946  0.2487 -2.7325
   30CHL1  H18C 2176   6.397   6.151   4.384 -0.8636  0.5717  0.6887
   30CHL1   C12 2177   6.145   6.218   4.266  0.6248 -0.6416 -0.1643
   30CHL1  H12A 2178   6.143   6.120   4.317 -0.6607 -1.0363 -0.9276
   30CHL1  H12B 2179   6.050   6.276   4.275 -1.3923 -3.0864 -3.3549
   30CHL1   C11 2180   6.160   6.196   4.119 -0.7812  0.7938  0.5656
   30CHL1  H11A 2181   6.241   6.123   4.098 -2.3536 -0.8097 -0.1724
   30CHL1  H11B 2182   6.074   6.135   4.084  0.9443 -1.4760 -0.0176
   30CHL1    C9 2183   6.181   6.332   4.036 -0.4452  0.5594 -0.4450
   30CHL1    H9 2184   6.086   6.388   4.051  0.3130  1.1468  2.9026
   30CHL1   C10 2185   6.202   6.317   3.885  0.4962 -0.2238  0.6473
   30CHL1   C19 2186   6.331   6.238   3.860 -0.1637  0.9542  0.1106
   30CHL1  H19A 2187   6.304   6.139   3.901  1.2502  0.7365  0.5569
   30CHL1  H19B 2188   6.353   6.233   3.752  0.1749 -1.3324  0.2429
   30CHL1  H19C 2189   6.418   6.275   3.918 -1.0059  1.0763  1.3410
   30CHL1    C1 2190   6.072   6.245   3.819 -0.1238 -0.6846 -0.0588
   30CHL1   H1A 2191   6.064   6.143   3.862 -0.9795 -0.5362  0.1475
   30CHL1   H1B 2192   5.979   6.302   3.841  1.2826  2.2369 -1.0942
   30CHL1    C2 2193   6.077   6.234   3.666 -0.3029  0.1030 -0.1071
   30CHL1   H2A 2194   5.996   6.173   3.623  0.2891 -1.1786  0.5482
   30CHL1   H2B 2195   6.173   6.180   3.649  1.2193  1.4152  3.4016
   30CHL1   C20 2196   6.260   6.271   4.591  0.2719  0.0158  0.2772
   30CHL1   H20 2197   6.359   6.228   4.568  1.2370  2.8482 -1.4925
   30CHL1   C21 2198   6.153   6.154   4.606  0.1812  0.3522 -0.3751
   30CHL1  H21A 2199   6.049   6.192   4.600 -0.1393 -0.4003  0.3219
   30CHL1  H21B 2200   6.157   6.107   4.706 -2.6425  2.0562  0.6493
   30CHL1  H21C 2201   6.168   6.081   4.524  0.8683 -0.7673  0.7156
   30CHL1   C22 2202   6.275   6.352   4.726 -0.6114  0.0971 -0.6777
   30CHL1  H22A 2203   6.296   6.271   4.799  1.9401  0.1170 -1.2836
   30CHL1  H22B 2204   6.355   6.429   4.715 -1.9135  1.3321 -1.9103
   30CHL1   C23 2205   6.143   6.413   4.774 -0.0435 -0.7681 -0.6648
   30CHL1  H23A 2206   6.086   6.489   4.717 -1.5462 -0.6646  0.9066
   30CHL1  H23B 2207   6.064   6.335   4.773 -1.1269  0.2907 -1.7607
   30CHL1   C24 2208   6.159   6.478   4.912  0.6081 -0.1421 -0.1687
   30CHL1  H24A 2209   6.056   6.492   4.951  0.2260 -2.3554 -0.2676
   30CHL1  H24B 2210   6.195   6.400   4.982 -0.1257 -1.7803 -1.5337
   30CHL1   C25 2211   6.244   6.605   4.926  0.2782 -0.4453  0.2995
   30CHL1   H25 2212   6.349   6.587   4.894  1.4729  0.0930  3.5034
   30CHL1   C26 2213   6.178   6.718   4.849  0.6167 -0.4210 -0.3015
   30CHL1  H26A 2214   6.069   6.728   4.868  0.9722  1.8483  0.8779
   30CHL1  H26B 2215   6.229   6.814   4.874  1.9854 -0.8343 -1.4342
   30CHL1  H26C 2216   6.191   6.706   4.739  1.1878  1.3052 -0.4662
   30CHL1   C27 2217   6.248   6.640   5.078  0.7323 -0.3317  0.0361
   30CHL1  H27A 2218   6.328   6.716   5.094  1.5600 -1.3751  0.9976
   30CHL1  H27B 2219   6.145   6.673   5.104  0.0388 -2.6047  0.3425
   30CHL1  H27C 2220   6.266   6.552   5.142 -0.6251 -0.6088  0.0584
   31CHL1    C3 2221   6.349   0.239   3.545 -0.5118  0.2240  0.2132
   31CHL1    H3 2222   6.313   0.134   3.554 -0.1533  0.1010  0.2475
   31CHL1    O3 2223   6.335   0.288   3.410  0.3914 -0.2164 -0.3055
   31CHL1   H3' 2224   6.405   0.352   3.392  2.5267 -2.2637  0.1945
   31CHL1    C4 2225   6.255   0.321   3.643 -0.3108 -0.3655 -0.1685
   31CHL1   H4A 2226   6.285   0.426   3.623 -2.7258  0.8354  2.0850
   31CHL1   H4B 2227   6.147   0.315   3.619 -0.4324  1.2742 -0.1587
   31CHL1    C5 2228   6.283   0.292   3.791 -0.7047 -0.7377  0.2331
   31CHL1    C6 2229   6.181   0.281   3.876 -0.0224  0.6527  0.2866
   31CHL1    H6 2230   6.079   0.292   3.836 -0.5006 -0.3555  1.1692
   31CHL1    C7 2231   6.191   0.274   4.028  0.3551 -0.2375  0.3730
   31CHL1   H7A 2232   6.114   0.332   4.083 -0.1571 -0.4705 -0.0841
   31CHL1   H7B 2233   6.175   0.166   4.046 -1.6058 -0.0875 -0.2175
   31CHL1    C8 2234   6.336   0.302   4.077  0.8958 -0.2434  0.2121
   31CHL1    H8 2235   6.354   0.411   4.086  0.5295 -0.1389 -0.2491
   31CHL1   C14 2236   6.354   0.243   4.216  0.0652  0.3951 -0.3354
   31CHL1   H14 2237   6.347   0.133   4.202 -0.2564 -0.1049  2.8715
   31CHL1   C15 2238   6.243   0.266   4.318  0.6894 -0.3891  0.4347
   31CHL1  H15A 2239   6.233   0.376   4.324  1.9840 -0.1185 -1.4784
   31CHL1  H15B 2240   6.144   0.223   4.291  1.6567 -1.0826 -2.4285
   31CHL1   C16 2241   6.315   0.212   4.448  0.0240 -0.1446 -0.6225
   31CHL1  H16A 2242   6.317   0.293   4.524 -1.4707 -0.9395  0.3240
   31CHL1  H16B 2243   6.264   0.123   4.492  0.2795  1.5406  3.5224
   31CHL1   C17 2244   6.465   0.185   4.408  0.0398 -0.3612 -1.2629
   31CHL1   H17 2245   6.483   0.076   4.394  2.2290 -0.6343  2.3128
   31CHL1   C13 2246   6.496   0.258   4.284  0.3390 -0.3493 -0.4570
   31CHL1   C18 2247   6.510   0.414   4.310  0.1922  0.3612 -0.2005
   31CHL1  H18A 2248   6.515   0.476   4.218  4.1034  2.0178  0.8862
   31CHL1  H18B 2249   6.424   0.443   4.374 -0.9539 -0.4752 -1.3392
   31CHL1  H18C 2250   6.609   0.428   4.359  0.3980 -1.0627 -0.1707
   31CHL1   C12 2251   6.597   0.203   4.181 -0.0237 -0.2001 -0.0824
   31CHL1  H12A 2252   6.698   0.223   4.223 -0.2690 -0.3674  0.5927
   31CHL1  H12B 2253   6.579   0.093   4.179  0.1488 -0.2295 -0.0719
   31CHL1   C11 2254   6.591   0.275   4.046 -0.2459 -0.1831  0.4257
   31CHL1  H11A 2255   6.618   0.380   4.070  0.4269  0.4053 -2.4200
   31CHL1  H11B 2256   6.664   0.239   3.970 -0.5057  0.1092  0.0276
   31CHL1    C9 2257   6.452   0.254   3.985  1.3102 -0.0982  0.0571
   31CHL1    H9 2258   6.437   0.144   3.987 -0.6284  0.0803  4.1667
   31CHL1   C10 2259   6.434   0.303   3.834  0.1679 -0.2282 -0.0408
   31CHL1   C19 2260   6.472   0.457   3.830  0.0625  0.2849  0.1520
   31CHL1  H19A 2261   6.582   0.459   3.841  0.0025 -0.6027  1.0325
   31CHL1  H19B 2262   6.450   0.499   3.730 -0.2296  2.7126  1.1656
   31CHL1  H19C 2263   6.421   0.516   3.909 -0.7137 -0.7755  0.4681
   31CHL1    C1 2264   6.521   0.215   3.736 -0.7343 -0.5928 -0.6560
   31CHL1   H1A 2265   6.626   0.231   3.768 -1.0666  1.2264 -0.3970
   31CHL1   H1B 2266   6.501   0.108   3.760  1.9455 -0.7745  1.1490
   31CHL1    C2 2267   6.499   0.258   3.591  0.4341 -0.1654 -0.4788
   31CHL1   H2A 2268   6.563   0.198   3.523  1.7238  0.6143  0.0241
   31CHL1   H2B 2269   6.539   0.361   3.582  0.7091 -0.0650  1.4598
   31CHL1   C20 2270   6.554   0.204   4.538 -0.4134  0.1790 -0.3239
   31CHL1   H20 2271   6.555   0.309   4.573  1.3774  0.8275 -2.1761
   31CHL1   C21 2272   6.701   0.167   4.504  0.6431  0.2728  0.2397
   31CHL1  H21A 2273   6.750   0.245   4.441 -0.3548  0.2763 -0.5623
   31CHL1  H21B 2274   6.714   0.062   4.468  3.7720  0.6437  0.0273
   31CHL1  H21C 2275   6.767   0.169   4.593  1.8598  0.4061 -0.6279
   31CHL1   C22 2276   6.493   0.110   4.652  0.0457 -0.2457  0.4925
   31CHL1  H22A 2277   6.400   0.160   4.685 -0.5450 -0.8254 -0.2551
   31CHL1  H22B 2278   6.472   0.010   4.607  0.5690  0.1003 -0.5622
   31CHL1   C23 2279   6.575   0.074   4.779 -0.0463  0.1163  0.0591
   31CHL1  H23A 2280   6.523  -0.004   4.838 -0.0726  0.5692  0.6391
   31CHL1  H23B 2281   6.676   0.034   4.755 -0.4725 -0.2610 -1.2380
   31CHL1   C24 2282   6.589   0.191   4.874 -0.2481 -0.0385 -0.9492
   31CHL1  H24A 2283   6.607   0.289   4.824  0.1883  1.5825  2.0913
   31CHL1  H24B 2284   6.499   0.200   4.940  0.0259 -2.2581 -0.2035
   31CHL1   C25 2285   6.706   0.184   4.974 -0.4093  0.2760  0.4766
   31CHL1   H25 2286   6.800   0.184   4.913 -1.5457 -1.7502 -1.4394
   31CHL1   C26 2287   6.713   0.300   5.079 -0.1751 -0.9417  0.7370
   31CHL1  H26A 2288   6.732   0.394   5.023  0.5545 -1.5985 -0.1511
   31CHL1  H26B 2289   6.626   0.303   5.148  0.3634  2.4333  1.4443
   31CHL1  H26C 2290   6.799   0.270   5.143 -0.1873  0.8663  1.6692
   31CHL1   C27 2291   6.708   0.054   5.051  0.1368  0.6093 -0.5897
   31CHL1  H27A 2292   6.725  -0.038   4.992  0.7819  1.8159 -2.3787
   31CHL1  H27B 2293   6.783   0.053   5.133  0.2027  0.5999 -0.6494
   31CHL1  H27C 2294   6.611   0.043   5.103  1.0861 -0.4166  1.0557
   32CHL1    C3 2295   4.810   5.611   3.543  0.5064 -1.0119  0.6165
   32CHL1    H3 2296   4.917   5.642   3.553 -0.1324  2.0247 -0.8839
   32CHL1    O3 2297   4.785   5.574   3.408 -0.4143  0.1129 -0.1525
   32CHL1   H3' 2298   4.689   5.579   3.399 -0.4214  0.6075  0.1456
   32CHL1    C4 2299   4.777   5.491   3.634 -0.1676 -0.2335 -0.2130
   32CHL1   H4A 2300   4.678   5.456   3.598 -0.2048 -1.4050  0.9607
   32CHL1   H4B 2301   4.850   5.409   3.615  4.4211  2.8686  2.2609
   32CHL1    C5 2302   4.788   5.516   3.784 -0.3056 -0.2777  0.2163
   32CHL1    C6 2303   4.845   5.431   3.870 -0.0970 -0.1872  0.4369
   32CHL1    H6 2304   4.889   5.341   3.824  0.3157 -0.3509  1.1265
   32CHL1    C7 2305   4.872   5.461   4.010  0.1834  0.3789 -0.3757
   32CHL1   H7A 2306   4.850   5.377   4.080 -1.0543  1.0648  0.0948
   32CHL1   H7B 2307   4.978   5.495   4.014  0.9561 -1.8622 -0.7697
   32CHL1    C8 2308   4.778   5.576   4.069  0.6216 -0.5536  0.1796
   32CHL1    H8 2309   4.679   5.532   4.094  0.6489 -0.8558 -0.2142
   32CHL1   C14 2310   4.833   5.619   4.206 -0.3486 -0.4696  0.8227
   32CHL1   H14 2311   4.941   5.642   4.194 -0.4397  1.8065  3.3100
   32CHL1   C15 2312   4.839   5.505   4.307 -0.1771 -0.2443 -0.6123
   32CHL1  H15A 2313   4.749   5.440   4.321  0.4123 -0.4889  3.1653
   32CHL1  H15B 2314   4.929   5.441   4.293  0.6368  1.1726 -2.2726
   32CHL1   C16 2315   4.857   5.582   4.446 -0.8163 -0.4284  0.6224
   32CHL1  H16A 2316   4.777   5.537   4.509 -1.1068 -1.9007 -0.7333
   32CHL1  H16B 2317   4.954   5.556   4.495 -0.3143 -0.9517 -0.6118
   32CHL1   C17 2318   4.830   5.737   4.416 -0.4085  0.2186  0.4501
   32CHL1   H17 2319   4.930   5.785   4.410 -1.4219  2.2564 -1.3557
   32CHL1   C13 2320   4.765   5.737   4.277 -0.0533 -0.0103  0.0474
   32CHL1   C18 2321   4.616   5.701   4.300  0.9297  0.3597 -0.1241
   32CHL1  H18A 2322   4.588   5.615   4.364 -1.9787  0.6857 -0.7848
   32CHL1  H18B 2323   4.556   5.784   4.342  0.7647  0.3349 -0.3060
   32CHL1  H18C 2324   4.569   5.683   4.200 -0.3237  3.5035 -0.2286
   32CHL1   C12 2325   4.783   5.854   4.174 -0.4262  0.3855 -0.6700
   32CHL1  H12A 2326   4.727   5.944   4.208 -3.4468 -1.9983  1.3183
   32CHL1  H12B 2327   4.892   5.873   4.167 -0.5726  2.0208  0.8463
   32CHL1   C11 2328   4.724   5.831   4.033 -0.4330 -0.2429 -0.1349
   32CHL1  H11A 2329   4.616   5.811   4.049 -0.4925 -1.6401 -1.9513
   32CHL1  H11B 2330   4.753   5.922   3.977  2.6585 -0.2650  1.2230
   32CHL1    C9 2331   4.784   5.692   3.972  0.4139 -0.3002 -0.0183
   32CHL1    H9 2332   4.891   5.719   3.963  0.3607  0.2063  0.7816
   32CHL1   C10 2333   4.729   5.649   3.835  0.8799  0.7350 -0.1496
   32CHL1   C19 2334   4.582   5.612   3.846  0.4366  0.1388  0.7518
   32CHL1  H19A 2335   4.534   5.706   3.880  1.4167  1.5771 -1.6136
   32CHL1  H19B 2336   4.530   5.577   3.754  0.4816  0.9564  0.4098
   32CHL1  H19C 2337   4.544   5.543   3.924 -0.7393  2.0208  1.9132
   32CHL1    C1 2338   4.746   5.760   3.731  0.0280  0.0287  0.1983
   32CHL1   H1A 2339   4.667   5.836   3.750  0.9852  0.6047  2.0957
   32CHL1   H1B 2340   4.847   5.801   3.754  0.4841 -0.9598  0.0006
   32CHL1    C2 2341   4.721   5.724   3.587  0.3054  0.0075 -0.1624
   32CHL1   H2A 2342   4.736   5.816   3.526 -1.5142  0.6119  0.2544
   32CHL1   H2B 2343   4.612   5.700   3.584  0.5366 -0.9905 -1.6048
   32CHL1   C20 2344   4.765   5.805   4.532  0.7899 -0.3539  0.2660
   32CHL1   H20 2345   4.658   5.777   4.546  0.3662 -0.1982 -2.1451
   32CHL1   C21 2346   4.745   5.958   4.492 -0.6559 -0.0373 -0.1187
   32CHL1  H21A 2347   4.836   6.005   4.449  0.8180 -0.1042  2.7206
   32CHL1  H21B 2348   4.706   6.029   4.567 -1.7267  0.3638 -1.0282
   32CHL1  H21C 2349   4.667   5.976   4.415 -1.0815 -0.1230  0.2833
   32CHL1   C22 2350   4.838   5.781   4.663  0.1296 -0.2461  0.0021
   32CHL1  H22A 2351   4.854   5.673   4.679 -1.2783 -0.0752  3.1977
   32CHL1  H22B 2352   4.942   5.820   4.669  1.4614 -3.8140  3.1456
   32CHL1   C23 2353   4.756   5.838   4.778 -0.0196  0.3283 -0.1145
   32CHL1  H23A 2354   4.735   5.948   4.779 -0.6107  0.2276  0.9512
   32CHL1  H23B 2355   4.665   5.774   4.781 -0.2448  0.6654  2.2350
   32CHL1   C24 2356   4.821   5.803   4.909 -0.0766 -0.5181 -0.1309
   32CHL1  H24A 2357   4.818   5.693   4.926 -1.7006 -0.4966 -0.1725
   32CHL1  H24B 2358   4.928   5.833   4.902 -0.5240  3.0694  4.1676
   32CHL1   C25 2359   4.761   5.896   5.022  0.4217  0.9398  1.0969
   32CHL1   H25 2360   4.764   6.001   4.987 -1.7132  0.6803 -0.0463
   32CHL1   C26 2361   4.601   5.888   5.031 -0.5093 -0.1861 -0.2167
   32CHL1  H26A 2362   4.571   5.781   5.033  0.6987 -0.6693 -3.0351
   32CHL1  H26B 2363   4.577   5.927   5.132  0.2362 -2.6487  0.9811
   32CHL1  H26C 2364   4.549   5.944   4.950  1.8922  2.2092 -0.2387
   32CHL1   C27 2365   4.837   5.892   5.158 -0.1774 -0.8233 -0.3165
   32CHL1  H27A 2366   4.783   5.966   5.221 -0.4674 -0.2524 -1.2171
   32CHL1  H27B 2367   4.814   5.792   5.201  1.0211 -0.4136  1.4143
   32CHL1  H27C 2368   4.946   5.907   5.139 -0.0819 -0.3684  0.5337
   33CHL1    C3 2369   3.225   4.482   6.914  0.4911  0.5842  0.0588
   33CHL1    H3 2370   3.253   4.376   6.898 -1.7014 -0.0347  0.0064
   33CHL1    O3 2371   3.199   4.498   7.056 -0.5135  0.7779  0.1571
   33CHL1   H3' 2372   3.187   4.406   7.079  1.9714 -0.1375 -1.7544
   33CHL1    C4 2373   3.338   4.575   6.873 -0.0975  0.5265 -0.0908
   33CHL1   H4A 2374   3.315   4.679   6.903  1.5555  0.7221  0.6220
   33CHL1   H4B 2375   3.430   4.550   6.930  0.3251  1.2591 -0.4421
   33CHL1    C5 2376   3.352   4.574   6.719 -0.8980 -1.1537 -0.8612
   33CHL1    C6 2377   3.477   4.559   6.666  0.2717 -0.4177  0.3825
   33CHL1    H6 2378   3.560   4.542   6.736 -0.3577 -2.4551  0.6981
   33CHL1    C7 2379   3.502   4.577   6.517 -0.3338  0.4363  0.0958
   33CHL1   H7A 2380   3.575   4.659   6.501  1.0046 -0.4190  1.4492
   33CHL1   H7B 2381   3.550   4.493   6.463  1.4883  2.1675 -1.1216
   33CHL1    C8 2382   3.377   4.630   6.436 -0.1003  0.5355  0.2047
   33CHL1    H8 2383   3.381   4.741   6.449  2.3270  0.7689 -1.8337
   33CHL1   C14 2384   3.393   4.599   6.289 -0.4602 -0.5668  0.6195
   33CHL1   H14 2385   3.399   4.491   6.265  0.7736 -0.3550 -0.1000
   33CHL1   C15 2386   3.525   4.654   6.228 -0.3435  0.4296 -0.4649
   33CHL1  H15A 2387   3.555   4.752   6.270  1.5734 -1.1203  2.0980
   33CHL1  H15B 2388   3.616   4.591   6.239 -1.1688 -0.3890  2.8397
   33CHL1   C16 2389   3.483   4.671   6.085 -0.0683  0.3387  0.0784
   33CHL1  H16A 2390   3.494   4.778   6.057 -0.1320  0.4320  0.4058
   33CHL1  H16B 2391   3.547   4.623   6.008 -1.3483  2.2731 -2.3417
   33CHL1   C17 2392   3.340   4.615   6.061 -0.4170  0.7994 -0.2790
   33CHL1   H17 2393   3.357   4.505   6.054  0.6745  0.8943  0.6604
   33CHL1   C13 2394   3.283   4.652   6.199  0.6212 -0.0766  0.4780
   33CHL1   C18 2395   3.274   4.802   6.217 -0.1101  0.8468 -0.1127
   33CHL1  H18A 2396   3.357   4.864   6.176  1.6603 -1.0751  0.3704
   33CHL1  H18B 2397   3.173   4.827   6.178 -0.7315  0.0339  0.9119
   33CHL1  H18C 2398   3.265   4.828   6.324 -0.4293  1.6009 -0.3194
   33CHL1   C12 2399   3.163   4.572   6.243 -0.0275 -0.5900 -0.1611
   33CHL1  H12A 2400   3.069   4.598   6.191  0.5166  2.4734  0.2241
   33CHL1  H12B 2401   3.179   4.464   6.220 -1.3136 -0.3188 -2.6866
   33CHL1   C11 2402   3.130   4.604   6.389 -0.1197  0.3067  0.8584
   33CHL1  H11A 2403   3.099   4.710   6.403  2.6159  1.0054  2.4137
   33CHL1  H11B 2404   3.048   4.534   6.416  0.7702 -0.3074  2.0332
   33CHL1    C9 2405   3.246   4.572   6.484  0.0056  0.1028 -0.0594
   33CHL1    H9 2406   3.257   4.462   6.478 -0.4493  0.1565 -2.9578
   33CHL1   C10 2407   3.228   4.600   6.637 -0.5431  0.8687  0.4785
   33CHL1   C19 2408   3.189   4.749   6.659  0.2170  0.0505 -0.2081
   33CHL1  H19A 2409   3.197   4.773   6.767  0.7308  0.3802 -0.3158
   33CHL1  H19B 2410   3.279   4.805   6.627  0.1239 -0.0343 -0.6171
   33CHL1  H19C 2411   3.100   4.777   6.598  1.0324 -0.5602 -1.7101
   33CHL1    C1 2412   3.118   4.505   6.681  0.8844 -0.5588 -0.6728
   33CHL1   H1A 2413   3.024   4.529   6.628  1.4043 -1.9644 -2.3181
   33CHL1   H1B 2414   3.128   4.398   6.653 -0.1336 -0.5884 -0.9876
   33CHL1    C2 2415   3.095   4.514   6.831  0.1413  0.3058  0.7160
   33CHL1   H2A 2416   3.019   4.442   6.869 -0.8271  2.0979  2.3264
   33CHL1   H2B 2417   3.058   4.616   6.856  0.8915  1.2963 -1.8760
   33CHL1   C20 2418   3.272   4.661   5.927  1.3446 -0.0277 -0.5360
   33CHL1   H20 2419   3.241   4.768   5.935  0.2699 -0.3758  0.0936
   33CHL1   C21 2420   3.140   4.578   5.905  0.6166 -0.5921  0.4258
   33CHL1  H21A 2421   3.154   4.476   5.865  0.4447 -0.7083  0.6614
   33CHL1  H21B 2422   3.076   4.637   5.835  2.0688 -0.3131 -0.7286
   33CHL1  H21C 2423   3.089   4.572   6.003  0.3347 -0.1342  0.3131
   33CHL1   C22 2424   3.360   4.653   5.806 -0.2633  0.0827  0.8491
   33CHL1  H22A 2425   3.460   4.694   5.833 -0.4353  0.7768  0.4636
   33CHL1  H22B 2426   3.367   4.548   5.769 -2.4291 -0.0462  0.6716
   33CHL1   C23 2427   3.311   4.726   5.674  0.0405  0.6477  0.1615
   33CHL1  H23A 2428   3.216   4.677   5.645  0.3221  1.2675 -1.9675
   33CHL1  H23B 2429   3.290   4.834   5.692  1.0243  0.8276  0.2727
   33CHL1   C24 2430   3.416   4.726   5.562  0.1459  0.2113 -0.0176
   33CHL1  H24A 2431   3.504   4.786   5.595 -0.2746  1.1509 -0.5467
   33CHL1  H24B 2432   3.439   4.621   5.534 -2.2650 -0.1892 -0.7538
   33CHL1   C25 2433   3.366   4.807   5.439  0.0398 -0.2068  0.5388
   33CHL1   H25 2434   3.293   4.879   5.481 -0.3276 -0.4993  0.4107
   33CHL1   C26 2435   3.484   4.866   5.359 -0.3330  0.5291  0.0275
   33CHL1  H26A 2436   3.444   4.911   5.265  1.7809  0.6386 -0.8710
   33CHL1  H26B 2437   3.536   4.941   5.423  1.3532  1.0932 -1.8972
   33CHL1  H26C 2438   3.556   4.789   5.324  1.1942  2.4420 -1.2759
   33CHL1   C27 2439   3.281   4.711   5.348  0.2077  0.5797  0.4478
   33CHL1  H27A 2440   3.213   4.655   5.415  0.3582  0.8475  0.8282
   33CHL1  H27B 2441   3.226   4.780   5.280 -1.1367  0.6913  1.6015
   33CHL1  H27C 2442   3.344   4.641   5.288  1.7047  2.6306 -0.4985
   34CHL1    C3 2443   0.271   0.734   3.490 -0.0531 -0.5868  0.0224
   34CHL1    H3 2444   0.379   0.708   3.499  0.5551  1.3120 -1.2670
   34CHL1    O3 2445   0.240   0.737   3.354  0.1253 -0.2813  0.4436
   34CHL1   H3' 2446   0.152   0.775   3.351  0.3568  0.3508  1.2548
   34CHL1    C4 2447   0.179   0.634   3.566  0.4262  0.5602 -0.5062
   34CHL1   H4A 2448   0.070   0.647   3.550  0.0897 -0.1930  0.9701
   34CHL1   H4B 2449   0.201   0.535   3.519 -1.3077  0.2234 -0.6595
   34CHL1    C5 2450   0.193   0.626   3.722  0.0939  0.2198 -0.3168
   34CHL1    C6 2451   0.205   0.511   3.788 -0.8335  0.7008 -0.0567
   34CHL1    H6 2452   0.191   0.420   3.728  2.1527  0.5683 -0.7018
   34CHL1    C7 2453   0.233   0.496   3.937 -0.0981  0.0567 -0.3916
   34CHL1   H7A 2454   0.160   0.425   3.982  1.1840 -1.1289 -0.0819
   34CHL1   H7B 2455   0.329   0.446   3.963 -0.9966 -0.5166  2.0044
   34CHL1    C8 2456   0.216   0.632   4.005  0.0079 -0.3212  0.0243
   34CHL1    H8 2457   0.106   0.642   4.018  0.1546 -0.4675  1.6013
   34CHL1   C14 2458   0.267   0.623   4.149  0.3550 -0.1739  0.7736
   34CHL1   H14 2459   0.376   0.600   4.143 -0.1341 -2.6151 -0.3774
   34CHL1   C15 2460   0.213   0.501   4.237  0.7184 -0.1432 -0.0990
   34CHL1  H15A 2461   0.102   0.493   4.232  0.3962 -1.2578  4.5105
   34CHL1  H15B 2462   0.263   0.404   4.213 -1.3884 -0.8761 -1.8355
   34CHL1   C16 2463   0.246   0.554   4.380  0.0921  0.3099 -0.4485
   34CHL1  H16A 2464   0.160   0.546   4.449  1.0318 -0.4273  0.6683
   34CHL1  H16B 2465   0.319   0.485   4.425  0.0678  0.2990 -0.4262
   34CHL1   C17 2466   0.296   0.703   4.371 -0.1643  0.2696  0.2129
   34CHL1   H17 2467   0.407   0.702   4.370 -0.1365 -0.2454  1.6862
   34CHL1   C13 2468   0.249   0.750   4.229  0.3121 -0.1848  0.9676
   34CHL1   C18 2469   0.099   0.793   4.240 -0.0871  0.1192 -0.3468
   34CHL1  H18A 2470   0.059   0.831   4.143  0.0392 -1.8150 -1.2101
   34CHL1  H18B 2471   0.034   0.704   4.257 -1.9481  1.5581  0.3988
   34CHL1  H18C 2472   0.068   0.868   4.315 -0.9444 -0.0357 -0.5329
   34CHL1   C12 2473   0.331   0.855   4.154  0.3030 -0.4376 -0.0520
   34CHL1  H12A 2474   0.336   0.955   4.201 -3.9831  0.0025 -0.1131
   34CHL1  H12B 2475   0.432   0.809   4.146  1.0282  1.0731  0.2121
   34CHL1   C11 2476   0.294   0.879   4.005  0.5594  0.0485 -0.3311
   34CHL1  H11A 2477   0.204   0.942   3.992  1.4332  1.1077 -1.3915
   34CHL1  H11B 2478   0.384   0.933   3.968 -0.4120  0.9147 -1.4987
   34CHL1    C9 2479   0.281   0.747   3.929 -0.3204 -0.6377 -0.4889
   34CHL1    H9 2480   0.386   0.714   3.913  0.1477  1.2674 -1.5687
   34CHL1   C10 2481   0.211   0.768   3.788 -0.3829 -0.0746  0.0526
   34CHL1   C19 2482   0.070   0.822   3.807 -0.0387  0.0361 -0.0990
   34CHL1  H19A 2483   0.033   0.826   3.702  2.4129  1.9022 -0.9802
   34CHL1  H19B 2484   0.017   0.754   3.878  1.4807  1.2592  2.3327
   34CHL1  H19C 2485   0.070   0.924   3.849  0.8299 -0.2904  0.7381
   34CHL1    C1 2486   0.295   0.863   3.714  0.6333 -0.2065  0.0159
   34CHL1   H1A 2487   0.284   0.965   3.758  2.7515 -0.1269  0.4549
   34CHL1   H1B 2488   0.399   0.826   3.714  0.2269 -1.3972 -1.4773
   34CHL1    C2 2489   0.263   0.872   3.559  0.0521 -0.6781  0.5466
   34CHL1   H2A 2490   0.326   0.950   3.511 -2.9402  1.8577  0.3895
   34CHL1   H2B 2491   0.160   0.911   3.542 -0.2714 -1.4216  0.7566
   34CHL1   C20 2492   0.259   0.774   4.502  0.4109  0.0620  0.1776
   34CHL1   H20 2493   0.149   0.780   4.515  0.0851 -1.7254 -1.3213
   34CHL1   C21 2494   0.307   0.917   4.488 -0.2838 -0.0224  0.3472
   34CHL1  H21A 2495   0.261   0.962   4.579  1.8880 -0.1494  1.5706
   34CHL1  H21B 2496   0.266   0.974   4.402 -0.9510  1.8324  1.8129
   34CHL1  H21C 2497   0.417   0.930   4.497 -0.4242  0.3310  1.7289
   34CHL1   C22 2498   0.327   0.710   4.624  0.7298  0.3464 -0.6168
   34CHL1  H22A 2499   0.292   0.606   4.640 -2.1118  1.1783 -1.0011
   34CHL1  H22B 2500   0.435   0.716   4.597  0.9731  1.4996  0.5028
   34CHL1   C23 2501   0.302   0.774   4.756 -0.1246 -0.1154 -0.0577
   34CHL1  H23A 2502   0.374   0.853   4.784  1.0195 -2.0998  3.2122
   34CHL1  H23B 2503   0.200   0.817   4.761 -0.0844  0.0326 -0.5340
   34CHL1   C24 2504   0.324   0.676   4.875  0.7068 -0.7950  1.1689
   34CHL1  H24A 2505   0.264   0.589   4.840 -0.5019  1.5379 -3.3368
   34CHL1  H24B 2506   0.432   0.651   4.886  1.6283  2.7325  1.3594
   34CHL1   C25 2507   0.268   0.724   5.015 -0.6477  0.8989  0.1485
   34CHL1   H25 2508   0.167   0.770   5.009 -1.6209 -0.8256  1.9775
   34CHL1   C26 2509   0.256   0.606   5.114 -0.2276  0.2887 -0.0163
   34CHL1  H26A 2510   0.221   0.640   5.214 -1.4494 -0.2862 -0.2408
   34CHL1  H26B 2511   0.180   0.536   5.075  0.6617 -0.4191 -0.5086
   34CHL1  H26C 2512   0.357   0.559   5.120  2.3757  5.1891  0.1736
   34CHL1   C27 2513   0.364   0.842   5.063 -0.2042  0.6392 -0.3679
   34CHL1  H27A 2514   0.459   0.804   5.108 -1.1344 -1.1978  0.1580
   34CHL1  H27B 2515   0.387   0.920   4.987  1.6144  3.2340  2.6048
   34CHL1  H27C 2516   0.311   0.894   5.145 -0.7516 -0.0007 -0.3051
   35CHL1    C3 2517   3.426   0.673   3.384  0.6365 -0.1582  0.3406
   35CHL1    H3 2518   3.318   0.647   3.391  0.4088  0.4669 -0.6029
   35CHL1    O3 2519   3.456   0.672   3.247 -0.0913  0.5602 -0.4497
   35CHL1   H3' 2520   3.531   0.731   3.245  0.8897 -0.6049  0.2470
   35CHL1    C4 2521   3.455   0.803   3.455 -0.1757 -0.4082 -0.2638
   35CHL1   H4A 2522   3.560   0.831   3.433 -0.6476  1.5507 -0.1826
   35CHL1   H4B 2523   3.382   0.880   3.421 -0.6541  0.4491  2.4480
   35CHL1    C5 2524   3.445   0.792   3.608  0.7013  0.0810  0.0860
   35CHL1    C6 2525   3.366   0.877   3.673  0.0135  0.1364  0.0884
   35CHL1    H6 2526   3.309   0.955   3.621 -0.5324 -2.7368 -4.1911
   35CHL1    C7 2527   3.352   0.887   3.821  0.1362 -0.5198 -0.3215
   35CHL1   H7A 2528   3.364   0.989   3.862  0.4161 -0.7616  0.2031
   35CHL1   H7B 2529   3.247   0.852   3.838  0.3413 -0.7630  0.4831
   35CHL1    C8 2530   3.450   0.790   3.904  0.1176 -0.4457  0.6336
   35CHL1    H8 2531   3.544   0.849   3.909 -0.3456  0.3787 -0.0225
   35CHL1   C14 2532   3.397   0.750   4.041 -0.2141 -0.0296  0.9942
   35CHL1   H14 2533   3.316   0.679   4.013 -0.0124  0.4299 -0.8232
   35CHL1   C15 2534   3.350   0.862   4.125 -0.1056 -0.8544  0.4847
   35CHL1  H15A 2535   3.432   0.937   4.123  0.0876 -1.0017  1.9195
   35CHL1  H15B 2536   3.258   0.912   4.086 -0.1761 -1.1486  0.2681
   35CHL1   C16 2537   3.343   0.794   4.263  0.1500  0.0111  0.5238
   35CHL1  H16A 2538   3.396   0.848   4.345  0.6244  0.5388 -0.1226
   35CHL1  H16B 2539   3.236   0.779   4.288 -0.1524 -0.3356 -0.8913
   35CHL1   C17 2540   3.407   0.651   4.249 -0.5535  0.3612  0.3673
   35CHL1   H17 2541   3.324   0.581   4.227 -0.7118  0.3711  0.9019
   35CHL1   C13 2542   3.487   0.662   4.124  0.2583  0.1625 -0.4251
   35CHL1   C18 2543   3.617   0.732   4.146  0.2964 -0.8938 -0.3300
   35CHL1  H18A 2544   3.624   0.823   4.209  0.6767 -0.7190 -0.6206
   35CHL1  H18B 2545   3.694   0.664   4.190 -0.1082 -0.1599  1.6191
   35CHL1  H18C 2546   3.657   0.762   4.047  0.4198  0.2000  0.0442
   35CHL1   C12 2547   3.505   0.534   4.046 -0.5005  0.3292  0.2306
   35CHL1  H12A 2548   3.585   0.469   4.087 -1.0994 -0.0842  0.7495
   35CHL1  H12B 2549   3.412   0.473   4.051  0.4269 -0.9999  2.1249
   35CHL1   C11 2550   3.557   0.552   3.903  0.2087  0.0234  0.3156
   35CHL1  H11A 2551   3.665   0.580   3.907 -0.4089  2.5390  1.2253
   35CHL1  H11B 2552   3.550   0.452   3.856  0.3942 -0.5032  1.3857
   35CHL1    C9 2553   3.473   0.655   3.827  0.3243  0.3705 -0.8770
   35CHL1    H9 2554   3.377   0.602   3.810 -0.6744  2.1368 -1.0169
   35CHL1   C10 2555   3.526   0.678   3.682 -0.2618  0.3524 -0.4211
   35CHL1   C19 2556   3.674   0.726   3.691 -0.8796  0.3125  0.5373
   35CHL1  H19A 2557   3.735   0.643   3.732 -0.8174 -0.1183 -0.3973
   35CHL1  H19B 2558   3.715   0.742   3.589 -0.3755  1.9217  0.9557
   35CHL1  H19C 2559   3.689   0.820   3.748  0.9521  2.3602 -2.9900
   35CHL1    C1 2560   3.508   0.543   3.596  1.3767  0.3452 -0.3711
   35CHL1   H1A 2561   3.577   0.465   3.634 -0.3038 -1.4375 -0.7975
   35CHL1   H1B 2562   3.407   0.501   3.619  0.7137  1.1463 -1.6987
   35CHL1    C2 2563   3.521   0.569   3.445  0.5815 -0.4627  0.4600
   35CHL1   H2A 2564   3.501   0.475   3.391 -1.9309  0.2442  0.0090
   35CHL1   H2B 2565   3.619   0.611   3.415 -1.4600  1.4187 -4.7474
   35CHL1   C20 2566   3.470   0.598   4.377  0.2297  0.4769 -0.6662
   35CHL1   H20 2567   3.545   0.673   4.410 -1.0921  0.9959  1.3413
   35CHL1   C21 2568   3.528   0.460   4.356 -0.3971  0.5413  0.4086
   35CHL1  H21A 2569   3.624   0.476   4.303 -1.0029 -0.0400 -0.9123
   35CHL1  H21B 2570   3.465   0.402   4.285  2.2332 -0.6759 -1.0376
   35CHL1  H21C 2571   3.540   0.394   4.444  1.1259 -1.7973 -1.4600
   35CHL1   C22 2572   3.377   0.593   4.502  0.3536  0.2233 -0.1133
   35CHL1  H22A 2573   3.455   0.564   4.575 -0.0260 -2.1703 -0.5956
   35CHL1  H22B 2574   3.345   0.696   4.530  1.4461  0.5728 -0.1305
   35CHL1   C23 2575   3.262   0.487   4.503 -0.4892 -0.1497 -0.0725
   35CHL1  H23A 2576   3.181   0.529   4.440  0.7579 -0.5395 -2.0280
   35CHL1  H23B 2577   3.298   0.396   4.450  0.2960 -0.8538  1.6096
   35CHL1   C24 2578   3.208   0.451   4.640  0.3269  0.1229  0.0772
   35CHL1  H24A 2579   3.153   0.536   4.686 -1.1552 -1.0663  0.5862
   35CHL1  H24B 2580   3.136   0.369   4.623  2.1190 -1.5313  0.0568
   35CHL1   C25 2581   3.305   0.384   4.744 -0.1100 -0.4775  0.4229
   35CHL1   H25 2582   3.371   0.464   4.783 -1.2914  0.1287  1.2221
   35CHL1   C26 2583   3.227   0.346   4.874  0.9656  0.0655 -0.7191
   35CHL1  H26A 2584   3.196   0.434   4.934 -1.4768  0.5911 -2.5712
   35CHL1  H26B 2585   3.135   0.289   4.849  0.0099  1.3894 -0.3296
   35CHL1  H26C 2586   3.289   0.278   4.936 -0.2102 -2.1426 -1.8090
   35CHL1   C27 2587   3.380   0.264   4.686 -0.2704 -0.2886  0.1275
   35CHL1  H27A 2588   3.428   0.292   4.590  0.0157  0.5849  0.5181
   35CHL1  H27B 2589   3.462   0.237   4.755 -0.7699  4.0421  2.8053
   35CHL1  H27C 2590   3.310   0.179   4.667 -0.6653  0.3801 -1.5975
   36CHL1    C3 2591   4.265   1.155   3.576  1.0562 -0.2250  0.2511
   36CHL1    H3 2592   4.175   1.092   3.595  2.2463 -2.7628 -1.9131
   36CHL1    O3 2593   4.269   1.163   3.435  0.0718 -0.4260 -0.5511
   36CHL1   H3' 2594   4.361   1.150   3.413 -0.2713 -0.9549 -1.7513
   36CHL1    C4 2595   4.261   1.299   3.636  0.1274 -0.1026  0.3228
   36CHL1   H4A 2596   4.357   1.350   3.610 -0.4745  0.6366 -0.4924
   36CHL1   H4B 2597   4.183   1.360   3.586  2.8010  2.2894 -1.2174
   36CHL1    C5 2598   4.252   1.277   3.787 -0.0289  0.1836  0.0373
   36CHL1    C6 2599   4.148   1.334   3.849  0.3207  0.1285 -0.2286
   36CHL1    H6 2600   4.076   1.392   3.791  0.1026 -1.5372 -1.6910
   36CHL1    C7 2601   4.124   1.317   3.995 -0.4798 -0.6372  0.7381
   36CHL1   H7A 2602   4.070   1.405   4.037  0.5288  0.4080 -0.0937
   36CHL1   H7B 2603   4.056   1.233   4.019 -1.2291 -0.1942  0.2383
   36CHL1    C8 2604   4.261   1.295   4.068 -0.1367  0.2992 -0.7589
   36CHL1    H8 2605   4.323   1.387   4.068 -2.0619  1.6640 -1.5546
   36CHL1   C14 2606   4.232   1.250   4.206 -0.4242  0.0924  0.0024
   36CHL1   H14 2607   4.190   1.147   4.206  0.4679 -0.2806 -1.0345
   36CHL1   C15 2608   4.134   1.340   4.285  0.7032  0.2437  0.2017
   36CHL1  H15A 2609   4.152   1.448   4.268  1.1066 -0.1195 -1.9159
   36CHL1  H15B 2610   4.029   1.319   4.255  0.4310  0.6355  0.8611
   36CHL1   C16 2611   4.160   1.313   4.436  0.2014  0.3592 -0.1097
   36CHL1  H16A 2612   4.208   1.404   4.478  1.0759 -0.8683  1.6865
   36CHL1  H16B 2613   4.069   1.297   4.498  0.1394  0.7629 -0.0957
   36CHL1   C17 2614   4.277   1.203   4.434  0.3552  0.1802  0.4430
   36CHL1   H17 2615   4.222   1.107   4.422 -2.4315  1.6227  0.8541
   36CHL1   C13 2616   4.347   1.234   4.294 -0.1061 -0.6882  0.4337
   36CHL1   C18 2617   4.424   1.368   4.297  0.1571 -0.7207 -0.0156
   36CHL1  H18A 2618   4.359   1.458   4.307  2.2678  0.9749 -0.8149
   36CHL1  H18B 2619   4.496   1.373   4.382  1.7075 -2.6340 -1.1311
   36CHL1  H18C 2620   4.489   1.373   4.207 -1.7485 -1.1389 -1.4725
   36CHL1   C12 2621   4.439   1.126   4.232  0.1695  0.2314  0.4639
   36CHL1  H12A 2622   4.539   1.120   4.280 -0.0864 -0.5705  0.9192
   36CHL1  H12B 2623   4.385   1.030   4.247  0.4657  0.1769  1.2230
   36CHL1   C11 2624   4.466   1.136   4.078 -0.3716  0.8723 -0.4838
   36CHL1  H11A 2625   4.538   1.221   4.078  1.0276 -0.2543  1.2407
   36CHL1  H11B 2626   4.517   1.048   4.036  1.9313  1.4568  0.9306
   36CHL1    C9 2627   4.334   1.180   4.005 -0.9614  0.2808 -0.3769
   36CHL1    H9 2628   4.265   1.093   4.011  1.6236 -1.9012 -0.5821
   36CHL1   C10 2629   4.365   1.209   3.856  0.0723  0.6267  0.4430
   36CHL1   C19 2630   4.494   1.281   3.844 -0.6741  0.1674 -0.0475
   36CHL1  H19A 2631   4.579   1.212   3.866 -1.9518 -0.5545  3.1642
   36CHL1  H19B 2632   4.509   1.298   3.735  2.0862 -0.7221  0.1208
   36CHL1  H19C 2633   4.499   1.382   3.890 -0.8610  1.3069 -2.3887
   36CHL1    C1 2634   4.385   1.072   3.777 -0.1389  0.1760 -0.4929
   36CHL1   H1A 2635   4.475   1.022   3.820 -0.8780 -0.6426  0.1422
   36CHL1   H1B 2636   4.298   1.008   3.806 -0.9087  1.1206 -0.6697
   36CHL1    C2 2637   4.386   1.081   3.628 -0.4206  0.1674 -0.0156
   36CHL1   H2A 2638   4.397   0.982   3.577  0.7122  0.7417 -0.9386
   36CHL1   H2B 2639   4.477   1.131   3.588  0.1081 -0.9218 -0.2176
   36CHL1   C20 2640   4.370   1.184   4.554 -0.6107 -0.1647 -0.0753
   36CHL1   H20 2641   4.435   1.275   4.559 -1.1803  0.5221 -3.1368
   36CHL1   C21 2642   4.442   1.050   4.547 -0.0082  0.1776  0.6104
   36CHL1  H21A 2643   4.375   0.973   4.503 -1.0552  1.7544 -0.6815
   36CHL1  H21B 2644   4.471   1.015   4.648  3.0710  0.9454  0.0953
   36CHL1  H21C 2645   4.535   1.049   4.486  0.0940 -2.4609  0.7025
   36CHL1   C22 2646   4.279   1.187   4.677 -0.2835  0.8029 -0.2065
   36CHL1  H22A 2647   4.217   1.279   4.672 -0.8789  0.3351 -2.2851
   36CHL1  H22B 2648   4.209   1.101   4.676 -0.0276  0.5265  1.6879
   36CHL1   C23 2649   4.351   1.199   4.810  0.0153  0.1682 -0.1695
   36CHL1  H23A 2650   4.446   1.143   4.804 -0.2390 -0.2203 -0.6075
   36CHL1  H23B 2651   4.391   1.302   4.824 -1.1375  0.9536 -2.1545
   36CHL1   C24 2652   4.270   1.162   4.939  0.6674 -0.6618 -0.0855
   36CHL1  H24A 2653   4.192   1.240   4.946  1.7026  0.5167 -1.1093
   36CHL1  H24B 2654   4.214   1.067   4.924  1.5288 -0.7837 -3.2624
   36CHL1   C25 2655   4.351   1.144   5.064 -0.5542 -0.5004 -0.1070
   36CHL1   H25 2656   4.428   1.224   5.077  0.9506 -2.0248  0.6902
   36CHL1   C26 2657   4.272   1.156   5.186 -1.0540 -0.4838 -0.8105
   36CHL1  H26A 2658   4.337   1.123   5.269 -1.0954 -0.5625 -0.8093
   36CHL1  H26B 2659   4.245   1.261   5.214  1.5356 -0.1913  0.9307
   36CHL1  H26C 2660   4.175   1.103   5.181 -2.0555  1.0797  0.6896
   36CHL1   C27 2661   4.408   1.006   5.057 -0.4064 -0.4669 -0.1106
   36CHL1  H27A 2662   4.467   0.981   5.148 -1.3899 -0.0579  0.6657
   36CHL1  H27B 2663   4.329   0.928   5.061 -0.2093 -0.8323 -2.1280
   36CHL1  H27C 2664   4.479   0.984   4.975  0.0610 -0.5071  0.3042
   37CHL1    C3 2665   1.969   6.581   3.493 -0.2128 -0.4309 -0.1195
   37CHL1    H3 2666   1.867   6.539   3.497 -2.0749  3.6930  1.4515
   37CHL1    O3 2667   1.989   6.609   3.351  0.3116 -0.2886 -0.2029
   37CHL1   H3' 2668   2.080   6.630   3.329 -0.5507  1.2354 -2.9659
   37CHL1    C4 2669   1.975   6.717   3.565  0.6651 -0.6562 -0.2463
   37CHL1   H4A 2670   2.059   6.787   3.544 -0.1958  0.2872 -0.6274
   37CHL1   H4B 2671   1.890   6.772   3.520 -1.3702 -2.6950  0.8947
   37CHL1    C5 2672   1.972   6.709   3.709 -0.5707 -0.5469 -0.5063
   37CHL1    C6 2673   1.881   6.771   3.781  0.5071 -0.0355  0.4474
   37CHL1    H6 2674   1.820   6.844   3.726  0.4863 -1.5336 -1.6267
   37CHL1    C7 2675   1.875   6.781   3.935  0.2778  0.1265  0.5186
   37CHL1   H7A 2676   1.866   6.887   3.967 -1.7230  0.0470  0.3616
   37CHL1   H7B 2677   1.787   6.725   3.974 -0.1215 -0.9532 -1.7505
   37CHL1    C8 2678   2.008   6.727   3.992  0.0299 -0.2294 -0.1544
   37CHL1    H8 2679   2.078   6.812   3.977 -2.4331  1.8256 -0.6591
   37CHL1   C14 2680   1.985   6.707   4.141 -1.0390  0.0886 -0.2573
   37CHL1   H14 2681   1.900   6.635   4.147 -0.1147 -1.1048 -1.0043
   37CHL1   C15 2682   1.929   6.829   4.222 -0.0856 -0.5734 -0.1524
   37CHL1  H15A 2683   1.985   6.918   4.187 -0.9547  0.0571  0.0372
   37CHL1  H15B 2684   1.819   6.843   4.214  0.2543  1.9924 -0.9787
   37CHL1   C16 2685   1.963   6.791   4.368 -0.7033 -0.0503 -0.1799
   37CHL1  H16A 2686   2.023   6.877   4.405 -1.1275 -0.0349  0.4998
   37CHL1  H16B 2687   1.876   6.771   4.434  0.5131  0.5366  1.6949
   37CHL1   C17 2688   2.050   6.657   4.363 -0.5749  0.0479 -0.1196
   37CHL1   H17 2689   1.969   6.582   4.370  0.2841 -1.0144 -1.1932
   37CHL1   C13 2690   2.107   6.652   4.218  0.1750  0.8395 -0.0208
   37CHL1   C18 2691   2.224   6.750   4.216 -0.1438 -0.4789  0.4431
   37CHL1  H18A 2692   2.207   6.838   4.281  0.0201  0.6005 -0.9374
   37CHL1  H18B 2693   2.315   6.688   4.230 -0.0907 -0.9582 -1.7227
   37CHL1  H18C 2694   2.231   6.783   4.111  1.6901  0.4035  0.8065
   37CHL1   C12 2695   2.136   6.518   4.150 -0.2526  0.7889  0.3799
   37CHL1  H12A 2696   2.202   6.453   4.211 -0.4920  1.6875  1.6250
   37CHL1  H12B 2697   2.036   6.469   4.151  0.0193  0.2186  0.1684
   37CHL1   C11 2698   2.178   6.541   4.001  0.1823 -0.2056 -0.6531
   37CHL1  H11A 2699   2.280   6.583   3.988 -0.0561  1.8979  2.9727
   37CHL1  H11B 2700   2.184   6.437   3.962 -0.8134  0.4219 -2.5614
   37CHL1    C9 2701   2.061   6.606   3.927 -0.5246  0.7962 -0.8108
   37CHL1    H9 2702   1.982   6.530   3.940 -1.4139  1.6236 -1.2706
   37CHL1   C10 2703   2.080   6.628   3.775 -0.4508  0.0586 -0.0886
   37CHL1   C19 2704   2.223   6.696   3.753  0.8805  0.5867  0.3954
   37CHL1  H19A 2705   2.303   6.624   3.779  0.0128  0.0258  1.6026
   37CHL1  H19B 2706   2.244   6.729   3.649 -1.9197 -2.1360 -1.2054
   37CHL1  H19C 2707   2.233   6.790   3.812 -1.9073  0.1973  1.6111
   37CHL1    C1 2708   2.063   6.489   3.701  0.1018  0.0417 -0.7731
   37CHL1   H1A 2709   2.146   6.421   3.729  0.3943 -0.4775 -2.7069
   37CHL1   H1B 2710   1.966   6.445   3.733  0.6872 -0.1183  0.8573
   37CHL1    C2 2711   2.078   6.494   3.549 -0.3721  0.4846  0.1669
   37CHL1   H2A 2712   2.059   6.392   3.509 -0.1716  0.4217  0.2319
   37CHL1   H2B 2713   2.177   6.530   3.515  0.2030 -1.3289 -0.1939
   37CHL1   C20 2714   2.146   6.640   4.482  0.2363  0.8137  0.2664
   37CHL1   H20 2715   2.229   6.712   4.470 -0.8984  2.0163 -0.6488
   37CHL1   C21 2716   2.219   6.506   4.465 -0.3136 -0.5400 -0.1077
   37CHL1  H21A 2717   2.266   6.474   4.560 -1.2923 -0.3756  0.4344
   37CHL1  H21B 2718   2.290   6.514   4.379  0.6916  0.1500  0.7649
   37CHL1  H21C 2719   2.140   6.434   4.436 -2.4287  1.0015  1.4900
   37CHL1   C22 2720   2.080   6.674   4.624  0.3461  0.8814  0.3295
   37CHL1  H22A 2721   2.030   6.772   4.616 -0.1942  0.6376  0.7004
   37CHL1  H22B 2722   2.003   6.605   4.663  1.2564 -0.5807 -0.3499
   37CHL1   C23 2723   2.187   6.691   4.730  0.4478  0.3318  0.4075
   37CHL1  H23A 2724   2.216   6.590   4.767  2.1955  0.4994 -0.4079
   37CHL1  H23B 2725   2.278   6.732   4.681 -0.9715 -1.1440 -3.9736
   37CHL1   C24 2726   2.135   6.783   4.844  0.2090  0.0731  0.0604
   37CHL1  H24A 2727   2.073   6.870   4.812 -0.6444 -0.7362 -0.5486
   37CHL1  H24B 2728   2.055   6.721   4.891  0.5661  0.1032  0.7228
   37CHL1   C25 2729   2.230   6.799   4.958 -0.5690 -0.2123  0.1371
   37CHL1   H25 2730   2.268   6.702   4.998  0.2016  0.4666  1.1188
   37CHL1   C26 2731   2.359   6.867   4.906 -0.1413 -0.0109  0.0198
   37CHL1  H26A 2732   2.415   6.814   4.826 -0.5487  1.8095 -1.5512
   37CHL1  H26B 2733   2.328   6.964   4.861  1.1588  0.7788  0.7939
   37CHL1  H26C 2734   2.428   6.892   4.989  0.1642  0.0717 -0.2549
   37CHL1   C27 2735   2.160   6.872   5.073  0.2118  0.0869 -0.2354
   37CHL1  H27A 2736   2.235   6.922   5.137  0.3895 -1.2853  0.6804
   37CHL1  H27B 2737   2.097   6.951   5.026 -0.9140 -0.0676  0.9514
   37CHL1  H27C 2738   2.092   6.797   5.120  0.8000 -1.8871 -2.3222
   38CHL1    C3 2739   5.291   4.997   3.326  0.8040  0.3843 -0.2963
   38CHL1    H3 2740   5.369   4.921   3.350 -0.0864  0.2778  2.6406
   38CHL1    O3 2741   5.257   4.981   3.186 -0.9267 -0.3418 -0.0737
   38CHL1   H3' 2742   5.337   4.997   3.135  0.0509 -0.0380  1.4554
   38CHL1    C4 2743   5.166   4.959   3.412 -0.1243 -0.5838  0.2579
   38CHL1   H4A 2744   5.085   5.026   3.377  0.2273 -0.1129  0.3312
   38CHL1   H4B 2745   5.138   4.856   3.384 -1.8116  0.2187 -1.2047
   38CHL1    C5 2746   5.203   4.975   3.559  0.0273 -0.3884 -0.0490
   38CHL1    C6 2747   5.205   4.866   3.644  0.1734  0.1187 -0.1714
   38CHL1    H6 2748   5.171   4.768   3.607  0.5502 -0.0398 -0.1042
   38CHL1    C7 2749   5.215   4.867   3.792  0.2842  0.0238 -1.0536
   38CHL1   H7A 2750   5.142   4.797   3.837 -1.5404  0.9481 -2.4324
   38CHL1   H7B 2751   5.310   4.818   3.821 -0.2955 -0.3346  0.2716
   38CHL1    C8 2752   5.202   5.014   3.843  1.1100  0.6011  0.2087
   38CHL1    H8 2753   5.093   5.035   3.838  1.2937  1.2633 -2.0759
   38CHL1   C14 2754   5.247   5.025   3.984 -0.2744  0.0006 -0.6846
   38CHL1   H14 2755   5.354   4.996   3.980  0.0293  0.9452  0.1480
   38CHL1   C15 2756   5.186   4.914   4.084 -0.1606 -0.4602 -0.5237
   38CHL1  H15A 2757   5.076   4.903   4.069 -0.0821 -0.5038 -1.1005
   38CHL1  H15B 2758   5.228   4.812   4.078  1.8509  0.3863 -1.6962
   38CHL1   C16 2759   5.205   4.989   4.219 -0.1957  0.8848  0.1022
   38CHL1  H16A 2760   5.103   5.004   4.259 -0.8460 -0.3394 -1.0267
   38CHL1  H16B 2761   5.255   4.927   4.297 -0.7515  1.2355  0.7494
   38CHL1   C17 2762   5.284   5.119   4.192 -0.2388  0.1572  0.1462
   38CHL1   H17 2763   5.393   5.093   4.188  0.0133  0.4834  3.1658
   38CHL1   C13 2764   5.241   5.158   4.049  0.1243  0.0654 -0.0977
   38CHL1   C18 2765   5.094   5.212   4.047 -0.4485 -0.7670  0.0580
   38CHL1  H18A 2766   5.023   5.147   4.104  0.2836 -0.6411  1.1368
   38CHL1  H18B 2767   5.084   5.302   4.111 -0.7192  0.1385 -1.2295
   38CHL1  H18C 2768   5.050   5.229   3.947 -0.6832 -1.2434  0.0786
   38CHL1   C12 2769   5.332   5.250   3.971 -0.7582  0.3447 -0.1934
   38CHL1  H12A 2770   5.317   5.350   4.016 -2.9754  0.1545 -0.3896
   38CHL1  H12B 2771   5.434   5.217   4.000 -1.4437 -2.7670 -0.9375
   38CHL1   C11 2772   5.306   5.253   3.821 -0.2332 -0.2005 -0.1353
   38CHL1  H11A 2773   5.210   5.309   3.816 -0.2641 -0.2228  0.1953
   38CHL1  H11B 2774   5.375   5.310   3.755  0.4410  1.1163  1.6464
   38CHL1    C9 2775   5.282   5.112   3.755 -0.1320  0.1695  0.4107
   38CHL1    H9 2776   5.388   5.078   3.754  0.1888  1.0901  1.5924
   38CHL1   C10 2777   5.239   5.117   3.597  0.0110  0.0459  0.2499
   38CHL1   C19 2778   5.110   5.202   3.589 -0.1866  0.1632 -0.4410
   38CHL1  H19A 2779   5.147   5.306   3.599 -0.5358  0.1254  1.7816
   38CHL1  H19B 2780   5.062   5.195   3.489  0.9151 -0.1373 -0.9580
   38CHL1  H19C 2781   5.042   5.178   3.674 -1.2585  2.0740 -0.7044
   38CHL1    C1 2782   5.344   5.171   3.499  0.0094  0.5060  0.1596
   38CHL1   H1A 2783   5.349   5.280   3.519 -0.0475  1.0531 -2.5398
   38CHL1   H1B 2784   5.442   5.127   3.527 -0.5723 -0.3665  0.9061
   38CHL1    C2 2785   5.331   5.140   3.352  0.7843  0.5813  1.1755
   38CHL1   H2A 2786   5.432   5.160   3.312 -0.0368  2.6495 -0.0143
   38CHL1   H2B 2787   5.265   5.213   3.299  0.3259 -1.3053 -0.9776
   38CHL1   C20 2788   5.274   5.225   4.302  0.3778 -0.3791 -0.2103
   38CHL1   H20 2789   5.195   5.297   4.269  1.2352 -0.5875 -2.9521
   38CHL1   C21 2790   5.405   5.309   4.302 -0.6722  0.6997  0.4253
   38CHL1  H21A 2791   5.416   5.367   4.208 -2.9878 -0.0776 -0.3776
   38CHL1  H21B 2792   5.489   5.236   4.304 -1.7339 -0.6184 -0.9708
   38CHL1  H21C 2793   5.404   5.386   4.382  0.3687  3.3368 -1.9257
   38CHL1   C22 2794   5.249   5.169   4.450 -0.6548 -0.2024  0.5289
   38CHL1  H22A 2795   5.164   5.100   4.467 -1.7292  1.3949  2.1820
   38CHL1  H22B 2796   5.338   5.112   4.484 -2.0455 -3.1213 -0.4375
   38CHL1   C23 2797   5.209   5.289   4.547 -0.0097  0.5145  0.7456
   38CHL1  H23A 2798   5.299   5.354   4.558  0.4120 -0.1776  1.4611
   38CHL1  H23B 2799   5.138   5.359   4.498 -0.1605  1.0063  1.6496
   38CHL1   C24 2800   5.165   5.233   4.682  0.1136 -0.6521 -0.2452
   38CHL1  H24A 2801   5.062   5.191   4.671 -1.3604  2.0693  1.8577
   38CHL1  H24B 2802   5.232   5.150   4.711  1.8868  0.3019 -1.4206
   38CHL1   C25 2803   5.149   5.346   4.790 -0.0224  0.3632 -0.2214
   38CHL1   H25 2804   5.240   5.409   4.792 -0.1243  0.5188 -0.5710
   38CHL1   C26 2805   5.025   5.434   4.762 -0.2647 -0.5354  0.2273
   38CHL1  H26A 2806   4.930   5.377   4.769 -0.2067 -0.6105  0.4135
   38CHL1  H26B 2807   5.018   5.514   4.839  1.8777  0.4256 -0.4962
   38CHL1  H26C 2808   5.029   5.480   4.661 -0.0809 -0.9542  0.0417
   38CHL1   C27 2809   5.143   5.276   4.926 -0.2845  0.2664 -0.0426
   38CHL1  H27A 2810   5.150   5.357   5.001 -0.7401  1.1203 -0.9041
   38CHL1  H27B 2811   5.054   5.211   4.943  1.1384 -1.1320  2.7374
   38CHL1  H27C 2812   5.234   5.215   4.946  0.0040  1.3021  2.0451
   39CHL1    C3 2813   5.562   6.103   3.525  0.6816 -0.1599  0.1973
   39CHL1    H3 2814   5.461   6.146   3.542  0.5438  0.4999 -1.9759
   39CHL1    O3 2815   5.572   6.093   3.383  0.2260 -0.6055 -0.0393
   39CHL1   H3' 2816   5.510   6.021   3.366 -1.1674 -0.2223  2.7803
   39CHL1    C4 2817   5.679   6.183   3.582  0.0406 -0.3770  0.6810
   39CHL1   H4A 2818   5.771   6.130   3.547 -2.3811 -3.5585 -1.4698
   39CHL1   H4B 2819   5.677   6.279   3.526  1.0254 -0.2835  0.7898
   39CHL1    C5 2820   5.681   6.191   3.732  0.1838 -0.7277  0.3256
   39CHL1    C6 2821   5.678   6.309   3.791  0.8684 -0.5207  0.0727
   39CHL1    H6 2822   5.658   6.393   3.723  0.6250 -1.2863 -0.8161
   39CHL1    C7 2823   5.691   6.333   3.941  0.2662  0.1582  0.2709
   39CHL1   H7A 2824   5.772   6.406   3.961 -0.9263  1.8786 -0.9871
   39CHL1   H7B 2825   5.594   6.369   3.980  1.4673  1.4989  2.1673
   39CHL1    C8 2826   5.709   6.196   4.023  0.0026 -0.2964  0.1193
   39CHL1    H8 2827   5.819   6.184   4.028  0.0638  0.7255  2.4107
   39CHL1   C14 2828   5.670   6.205   4.168 -0.4886  0.1537 -0.0601
   39CHL1   H14 2829   5.561   6.228   4.174 -0.3609  1.4008 -1.7483
   39CHL1   C15 2830   5.723   6.327   4.242 -0.6719 -0.2856 -0.0919
   39CHL1  H15A 2831   5.832   6.328   4.225 -0.7694 -2.5085 -1.0594
   39CHL1  H15B 2832   5.665   6.418   4.213 -1.5876 -0.5079  0.9651
   39CHL1   C16 2833   5.696   6.291   4.391 -0.5203 -0.1946 -0.0107
   39CHL1  H16A 2834   5.779   6.328   4.454 -1.1230 -0.3679  0.9002
   39CHL1  H16B 2835   5.617   6.360   4.426  0.8309  1.6742 -0.4944
   39CHL1   C17 2836   5.648   6.140   4.398  0.2278  0.2012  0.6065
   39CHL1   H17 2837   5.537   6.138   4.394  0.2537 -0.3645 -0.1123
   39CHL1   C13 2838   5.692   6.082   4.255 -0.1500 -0.8079  0.1712
   39CHL1   C18 2839   5.839   6.039   4.262 -0.2990  0.4244  0.9718
   39CHL1  H18A 2840   5.909   6.118   4.296  3.6060 -2.2788 -0.1240
   39CHL1  H18B 2841   5.833   5.949   4.327 -2.3574  1.5722  2.4795
   39CHL1  H18C 2842   5.871   6.009   4.160  1.6029 -1.0441  1.9498
   39CHL1   C12 2843   5.591   5.983   4.188 -0.6670  0.5921  0.2571
   39CHL1  H12A 2844   5.603   5.881   4.230 -3.3886  0.5359  1.0750
   39CHL1  H12B 2845   5.487   6.011   4.217 -0.9772 -0.6147  0.3946
   39CHL1   C11 2846   5.628   5.953   4.039 -0.2867  0.0898 -0.1322
   39CHL1  H11A 2847   5.731   5.911   4.039 -0.5535 -0.7876 -2.7285
   39CHL1  H11B 2848   5.556   5.879   3.999  1.9361 -2.3796  0.2216
   39CHL1    C9 2849   5.629   6.079   3.954  0.3203  0.4762 -0.2517
   39CHL1    H9 2850   5.525   6.120   3.950  0.8206  1.8629  0.2203
   39CHL1   C10 2851   5.663   6.060   3.809 -0.3979  1.6210  0.2853
   39CHL1   C19 2852   5.806   5.998   3.806  0.1732  0.6720 -0.8400
   39CHL1  H19A 2853   5.868   6.049   3.882 -1.2742 -1.9260  2.2877
   39CHL1  H19B 2854   5.799   5.889   3.828  1.3047  0.5588 -0.9386
   39CHL1  H19C 2855   5.853   6.011   3.706  0.5786  1.2391 -0.5823
   39CHL1    C1 2856   5.557   5.969   3.738  0.1238 -0.7671  0.6648
   39CHL1   H1A 2857   5.584   5.864   3.763  0.2286 -0.7852  0.4818
   39CHL1   H1B 2858   5.455   5.993   3.774  0.4527  0.2413  0.9409
   39CHL1    C2 2859   5.573   5.959   3.585  0.1421  0.6591 -0.2636
   39CHL1   H2A 2860   5.483   5.903   3.551 -1.7929  1.8555  2.4822
   39CHL1   H2B 2861   5.673   5.920   3.559 -0.1371  0.0498 -0.4542
   39CHL1   C20 2862   5.674   6.060   4.528 -0.7834  0.3743 -0.9821
   39CHL1   H20 2863   5.784   6.042   4.524 -1.1034 -1.7265 -1.6225
   39CHL1   C21 2864   5.609   5.924   4.532  0.0798  0.2201 -0.4943
   39CHL1  H21A 2865   5.631   5.852   4.450 -0.1187  0.3058 -0.6260
   39CHL1  H21B 2866   5.501   5.952   4.525  0.0947  0.0525 -1.5449
   39CHL1  H21C 2867   5.627   5.877   4.631  1.1516  2.9100  0.6886
   39CHL1   C22 2868   5.638   6.141   4.650  0.8413 -0.5191  0.2241
   39CHL1  H22A 2869   5.666   6.249   4.653 -1.3041  0.1817 -1.9138
   39CHL1  H22B 2870   5.528   6.143   4.641  0.8236  0.7007  0.5168
   39CHL1   C23 2871   5.675   6.079   4.786  0.3299 -0.6952 -0.3527
   39CHL1  H23A 2872   5.620   5.983   4.792  1.9222 -1.7072 -1.2513
   39CHL1  H23B 2873   5.785   6.062   4.782  0.3454 -0.5168 -0.7426
   39CHL1   C24 2874   5.635   6.175   4.903 -0.4380  0.4109  0.2586
   39CHL1  H24A 2875   5.696   6.268   4.901  0.7685 -0.3518  0.3337
   39CHL1  H24B 2876   5.529   6.206   4.895 -0.8710 -0.7629  1.1641
   39CHL1   C25 2877   5.663   6.112   5.043 -0.0369 -0.2992  0.2019
   39CHL1   H25 2878   5.616   6.012   5.041  0.2975 -0.4650  0.5285
   39CHL1   C26 2879   5.809   6.095   5.067 -0.6254  0.1072 -0.2980
   39CHL1  H26A 2880   5.825   6.082   5.176  0.1414 -2.8718 -0.6732
   39CHL1  H26B 2881   5.853   6.001   5.026 -1.1602 -0.9623  1.4543
   39CHL1  H26C 2882   5.863   6.185   5.033 -2.2515  0.3615 -2.4046
   39CHL1   C27 2883   5.591   6.193   5.155 -0.5392  0.0253 -0.4780
   39CHL1  H27A 2884   5.619   6.144   5.250 -2.3642 -1.4537 -0.6486
   39CHL1  H27B 2885   5.633   6.295   5.169 -3.1215  1.3937 -1.9163
   39CHL1  H27C 2886   5.483   6.195   5.129 -0.0528 -0.9391 -2.8708
   40CHL1    C3 2887   0.161   4.937   3.333  0.1147  0.0130  0.8336
   40CHL1    H3 2888   0.261   4.897   3.361 -0.4253 -3.4665 -1.6336
   40CHL1    O3 2889   0.173   4.945   3.194  0.8894 -1.0902 -0.4887
   40CHL1   H3' 2890   0.106   4.881   3.169  1.8183 -2.5793  0.6858
   40CHL1    C4 2891   0.053   4.831   3.364  0.3814 -0.1842  0.9102
   40CHL1   H4A 2892  -0.038   4.860   3.307  0.1605 -1.1273  0.7710
   40CHL1   H4B 2893   0.082   4.736   3.313 -0.0559  0.2742 -0.2339
   40CHL1    C5 2894   0.025   4.806   3.509  0.3337 -0.7003 -0.0748
   40CHL1    C6 2895   0.037   4.680   3.565 -0.4242 -0.8303  0.2302
   40CHL1    H6 2896   0.074   4.603   3.496  0.8118 -1.2495  1.3358
   40CHL1    C7 2897   0.030   4.650   3.709  0.0734 -0.2843 -0.1154
   40CHL1   H7A 2898  -0.043   4.567   3.718  1.6347 -1.6730  0.3639
   40CHL1   H7B 2899   0.127   4.618   3.753  1.2490  0.0604 -2.3282
   40CHL1    C8 2900  -0.025   4.777   3.785  0.0371 -0.0866  0.0208
   40CHL1    H8 2901  -0.133   4.773   3.762 -0.1695 -0.8590  1.0323
   40CHL1   C14 2902  -0.005   4.756   3.938  0.0227  0.3237  0.1926
   40CHL1   H14 2903   0.104   4.746   3.959 -0.2864 -1.3299  1.1061
   40CHL1   C15 2904  -0.054   4.633   4.005  0.0219  0.7932  0.7909
   40CHL1  H15A 2905  -0.151   4.604   3.959  0.9824 -0.1649 -0.6881
   40CHL1  H15B 2906   0.016   4.547   3.998 -0.0468  0.7331  0.8319
   40CHL1   C16 2907  -0.083   4.673   4.148 -0.3398  0.3225 -0.0052
   40CHL1  H16A 2908  -0.192   4.658   4.163 -0.5505 -0.5708 -2.0265
   40CHL1  H16B 2909  -0.033   4.606   4.220 -1.1086 -0.1712  0.0830
   40CHL1   C17 2910  -0.038   4.819   4.170 -0.2735 -1.0752 -0.4544
   40CHL1   H17 2911   0.072   4.811   4.183  0.1259  1.5351 -1.5359
   40CHL1   C13 2912  -0.059   4.875   4.031  0.0875 -0.6581  0.3824
   40CHL1   C18 2913  -0.211   4.905   4.004 -0.8593  0.0291 -0.0779
   40CHL1  H18A 2914  -0.232   5.007   4.042  2.3765  1.7249 -2.3426
   40CHL1  H18B 2915  -0.227   4.904   3.894  2.4100  0.2853 -0.6521
   40CHL1  H18C 2916  -0.281   4.833   4.052 -1.2554 -1.7693 -3.0677
   40CHL1   C12 2917   0.035   4.993   3.989  0.1436 -0.5036  1.0384
   40CHL1  H12A 2918   0.007   5.082   4.050  0.4729  0.7479 -0.5577
   40CHL1  H12B 2919   0.134   4.946   4.007 -0.4798 -2.2831  0.0249
   40CHL1   C11 2920   0.020   5.021   3.844  0.7261 -0.0766 -0.5089
   40CHL1  H11A 2921  -0.086   5.051   3.829  0.8851  0.4488 -0.6041
   40CHL1  H11B 2922   0.080   5.107   3.806 -0.0887  1.4760  1.5059
   40CHL1    C9 2923   0.045   4.902   3.738  0.5393 -0.8984 -0.6070
   40CHL1    H9 2924   0.155   4.888   3.749  0.9827  2.2846 -0.2242
   40CHL1   C10 2925   0.013   4.935   3.589  0.2461 -0.8526 -1.1416
   40CHL1   C19 2926  -0.128   4.990   3.576  0.7579  0.3902  0.5315
   40CHL1  H19A 2927  -0.157   5.080   3.635 -0.6680  1.6426 -1.9220
   40CHL1  H19B 2928  -0.150   5.025   3.473  2.0204  0.3410  0.2370
   40CHL1  H19C 2929  -0.204   4.918   3.614  1.4763  0.4522  2.1726
   40CHL1    C1 2930   0.118   5.036   3.546  0.0625 -0.4241 -0.1407
   40CHL1   H1A 2931   0.115   5.132   3.602  2.4387 -0.5489  0.3230
   40CHL1   H1B 2932   0.219   4.994   3.566 -0.4290 -1.8317 -0.4870
   40CHL1    C2 2933   0.139   5.068   3.406  0.6245  0.1696  0.3126
   40CHL1   H2A 2934   0.231   5.129   3.389 -1.2473  2.5295 -2.2253
   40CHL1   H2B 2935   0.050   5.126   3.375  1.0665  1.7194  1.7452
   40CHL1   C20 2936  -0.103   4.894   4.292 -0.3749  0.4813  0.0662
   40CHL1   H20 2937  -0.211   4.916   4.275 -0.3293  0.9961  0.4001
   40CHL1   C21 2938  -0.029   5.030   4.318  0.2659 -0.0364 -0.4356
   40CHL1  H21A 2939   0.077   5.000   4.331  0.1922 -0.2681 -0.3514
   40CHL1  H21B 2940  -0.061   5.092   4.405 -0.5544 -1.9381  0.7033
   40CHL1  H21C 2941  -0.057   5.098   4.235 -1.6790 -0.1282  0.0873
   40CHL1   C22 2942  -0.107   4.804   4.416  0.0680 -0.1602  0.0235
   40CHL1  H22A 2943  -0.180   4.723   4.390  0.7349 -0.9018  0.4159
   40CHL1  H22B 2944  -0.012   4.749   4.434 -0.2605 -1.4772 -1.8367
   40CHL1   C23 2945  -0.161   4.866   4.544  0.7142  0.8006 -0.4411
   40CHL1  H23A 2946  -0.113   4.963   4.568 -1.4729  1.3159  2.3997
   40CHL1  H23B 2947  -0.268   4.893   4.541  0.2388 -0.8959  0.1611
   40CHL1   C24 2948  -0.142   4.770   4.663  0.2918  0.0743 -0.2499
   40CHL1  H24A 2949  -0.194   4.675   4.640 -1.2175  0.2798  1.9503
   40CHL1  H24B 2950  -0.033   4.760   4.680  0.9761 -0.0464 -3.9623
   40CHL1   C25 2951  -0.211   4.823   4.794 -0.5537  0.1732 -0.2980
   40CHL1   H25 2952  -0.201   4.757   4.882 -0.9616  0.1388 -0.2745
   40CHL1   C26 2953  -0.157   4.959   4.834 -0.0249 -0.6332 -0.9052
   40CHL1  H26A 2954  -0.166   5.047   4.767  0.0114  0.6930  0.7684
   40CHL1  H26B 2955  -0.195   4.998   4.931  0.0744  1.9279 -1.8185
   40CHL1  H26C 2956  -0.051   4.936   4.861 -0.8423 -2.4156  1.0442
   40CHL1   C27 2957  -0.362   4.824   4.778  0.3566 -0.1523  0.9488
   40CHL1  H27A 2958  -0.396   4.907   4.713 -1.5949 -2.6338 -1.4192
   40CHL1  H27B 2959  -0.388   4.734   4.719 -2.4433  2.1700 -1.6801
   40CHL1  H27C 2960  -0.423   4.823   4.871  1.2080 -1.6147  1.5259
   41CHL1    C3 2961   6.467   1.351   3.704 -1.1590 -0.1907  0.5351
   41CHL1    H3 2962   6.402   1.441   3.710 -0.4150  0.5111 -1.3198
   41CHL1    O3 2963   6.493   1.324   3.564 -0.1041 -0.0322 -0.4017
   41CHL1   H3' 2964   6.526   1.403   3.520 -1.1646  1.1407  0.7927
   41CHL1    C4 2965   6.599   1.377   3.767 -0.6726  0.1593  0.7827
   41CHL1   H4A 2966   6.664   1.288   3.753 -1.2524 -0.4534  1.8517
   41CHL1   H4B 2967   6.658   1.459   3.721 -2.9368  0.8745 -1.0402
   41CHL1    C5 2968   6.584   1.386   3.918  0.0103  0.6291  0.1319
   41CHL1    C6 2969   6.619   1.501   3.975 -0.0551 -0.4130  0.4206
   41CHL1    H6 2970   6.684   1.566   3.915 -0.5193 -0.1660  0.1827
   41CHL1    C7 2971   6.608   1.531   4.125 -0.2723 -0.2910 -0.0151
   41CHL1   H7A 2972   6.709   1.564   4.160 -0.1656  2.2218 -2.3694
   41CHL1   H7B 2973   6.535   1.614   4.135 -0.7745 -0.7651  0.2417
   41CHL1    C8 2974   6.571   1.403   4.208  0.1123 -0.2236  0.2627
   41CHL1    H8 2975   6.661   1.339   4.217 -0.6599 -1.2771  0.8666
   41CHL1   C14 2976   6.524   1.447   4.350 -0.5292 -0.4494  0.5029
   41CHL1   H14 2977   6.442   1.521   4.347  0.6781  0.9451  0.8194
   41CHL1   C15 2978   6.621   1.540   4.433 -0.3173  1.0000 -0.6641
   41CHL1  H15A 2979   6.724   1.500   4.440 -0.9487 -0.8104 -1.1299
   41CHL1  H15B 2980   6.637   1.644   4.398  1.6609  0.7516 -0.5755
   41CHL1   C16 2981   6.564   1.525   4.582 -0.5152 -0.3469  0.0469
   41CHL1  H16A 2982   6.648   1.493   4.647  2.8771  0.3463 -3.5774
   41CHL1  H16B 2983   6.518   1.622   4.609 -0.2057 -0.5281  1.2731
   41CHL1   C17 2984   6.445   1.423   4.571  0.7281 -0.5997  0.3143
   41CHL1   H17 2985   6.351   1.476   4.546  1.0711  0.2327  0.7580
   41CHL1   C13 2986   6.473   1.339   4.438  0.2812 -0.0074  0.1866
   41CHL1   C18 2987   6.589   1.240   4.468 -0.0244  0.7555  0.4595
   41CHL1  H18A 2988   6.670   1.276   4.535  1.2464 -2.8197  1.0182
   41CHL1  H18B 2989   6.551   1.154   4.526 -0.7455 -0.0398 -1.1300
   41CHL1  H18C 2990   6.635   1.214   4.370 -1.5164  1.9239 -0.6218
   41CHL1   C12 2991   6.352   1.262   4.365 -0.0353  0.0634 -0.1126
   41CHL1  H12A 2992   6.323   1.180   4.435 -3.2296  0.1677 -1.1780
   41CHL1  H12B 2993   6.276   1.341   4.349 -0.0847 -0.0456 -0.4143
   41CHL1   C11 2994   6.399   1.204   4.227 -0.0004  0.1467 -0.2408
   41CHL1  H11A 2995   6.476   1.126   4.241 -1.2989 -1.2435 -0.5799
   41CHL1  H11B 2996   6.308   1.159   4.182 -1.2682  2.5687 -0.2925
   41CHL1    C9 2997   6.463   1.323   4.137  0.7589  0.0772  0.2442
   41CHL1    H9 2998   6.374   1.388   4.130  0.5169  0.1171  2.8360
   41CHL1   C10 2999   6.510   1.273   3.992  0.1266  0.5186 -0.6252
   41CHL1   C19 3000   6.602   1.150   3.998 -0.2258  0.1769  1.0358
   41CHL1  H19A 3001   6.684   1.171   4.070  0.9292  1.6845 -0.6376
   41CHL1  H19B 3002   6.541   1.064   4.035  1.4590 -1.0025  1.2194
   41CHL1  H19C 3003   6.644   1.138   3.896  0.0498 -1.5974  1.3154
   41CHL1    C1 3004   6.380   1.243   3.914  0.4097 -0.2575  0.2345
   41CHL1   H1A 3005   6.336   1.148   3.951  1.2209 -0.8381 -0.2463
   41CHL1   H1B 3006   6.307   1.326   3.927 -1.4807 -1.2317 -2.9420
   41CHL1    C2 3007   6.404   1.230   3.766  0.2738  0.2257  0.1952
   41CHL1   H2A 3008   6.303   1.225   3.721 -0.1954 -1.8285  1.3287
   41CHL1   H2B 3009   6.464   1.145   3.725 -0.1489  1.4137 -3.2406
   41CHL1   C20 3010   6.438   1.356   4.710 -0.2977 -0.0318 -0.3602
   41CHL1   H20 3011   6.533   1.301   4.724  0.3558  1.5837  2.1863
   41CHL1   C21 3012   6.324   1.252   4.714 -0.2071 -0.5833  0.0102
   41CHL1  H21A 3013   6.313   1.197   4.810 -1.8765 -1.3119 -0.5575
   41CHL1  H21B 3014   6.341   1.184   4.628  1.4031  1.3419 -1.2830
   41CHL1  H21C 3015   6.238   1.311   4.674  1.0649 -0.5453 -2.9314
   41CHL1   C22 3016   6.433   1.464   4.822 -0.4973 -0.2084  0.5380
   41CHL1  H22A 3017   6.533   1.508   4.845 -0.6627 -0.1540  1.1903
   41CHL1  H22B 3018   6.360   1.539   4.786  1.2236  0.8433 -0.9018
   41CHL1   C23 3019   6.399   1.398   4.956 -0.3461  0.1834  0.8426
   41CHL1  H23A 3020   6.296   1.356   4.952 -0.5301  0.5616  1.4015
   41CHL1  H23B 3021   6.467   1.312   4.970 -0.8123 -0.5390 -1.0603
   41CHL1   C24 3022   6.400   1.504   5.070  0.2302  0.0974  0.1877
   41CHL1  H24A 3023   6.502   1.548   5.078 -0.2349  1.2685 -0.1215
   41CHL1  H24B 3024   6.335   1.583   5.026 -0.1138 -0.3749 -0.1540
   41CHL1   C25 3025   6.365   1.457   5.216 -0.4671 -0.0504  0.3592
   41CHL1   H25 3026   6.259   1.428   5.232 -0.1455 -0.9160  0.9858
   41CHL1   C26 3027   6.447   1.330   5.262  0.3211 -0.3416 -0.3602
   41CHL1  H26A 3028   6.457   1.254   5.182  0.4243 -1.1103  0.3693
   41CHL1  H26B 3029   6.549   1.357   5.296 -0.6414  1.2019  1.5128
   41CHL1  H26C 3030   6.387   1.275   5.338 -1.1095  0.3920 -0.9166
   41CHL1   C27 3031   6.404   1.571   5.313  0.9925 -0.3536  0.4674
   41CHL1  H27A 3032   6.353   1.663   5.276  1.2639 -0.4375 -0.1373
   41CHL1  H27B 3033   6.361   1.552   5.413 -0.4923 -0.0112 -0.0762
   41CHL1  H27C 3034   6.513   1.593   5.311  0.7940  0.7869 -1.4908
   42CHL1    C3 3035   3.028   6.001   3.358 -0.0680 -0.4544 -0.3477
   42CHL1    H3 3036   2.957   5.918   3.376 -0.2454  0.1362  1.9830
   42CHL1    O3 3037   3.033   6.023   3.223 -0.4485  0.0222  0.2660
   42CHL1   H3' 3038   3.022   6.118   3.217  1.2365  0.4288  2.2961
   42CHL1    C4 3039   3.003   6.127   3.448 -0.5029  0.9159  0.0669
   42CHL1   H4A 3040   3.086   6.200   3.441 -1.3406  1.8309 -0.5888
   42CHL1   H4B 3041   2.911   6.163   3.396 -0.5020  0.0005 -0.5942
   42CHL1    C5 3042   2.982   6.079   3.589 -0.0623 -0.3129 -1.0678
   42CHL1    C6 3043   2.863   6.106   3.637  0.4326 -0.7847 -0.3676
   42CHL1    H6 3044   2.789   6.162   3.579  0.7918  1.3224  1.1179
   42CHL1    C7 3045   2.824   6.069   3.781  0.6879  0.7010 -0.0568
   42CHL1   H7A 3046   2.778   6.158   3.830 -0.2975  0.9238 -1.3200
   42CHL1   H7B 3047   2.738   5.999   3.786  1.1458  0.2108  1.7401
   42CHL1    C8 3048   2.947   6.025   3.855 -0.4497  0.2310  0.0514
   42CHL1    H8 3049   3.015   6.109   3.882  0.8283 -1.1443  1.2941
   42CHL1   C14 3050   2.909   5.963   3.988 -0.2572 -0.3799 -0.5635
   42CHL1   H14 3051   2.853   5.871   3.961  0.5266 -1.9864  2.8191
   42CHL1   C15 3052   2.810   6.041   4.072  0.7169 -0.7843 -0.4237
   42CHL1  H15A 3053   2.821   6.151   4.062  1.9155 -0.8722 -0.1787
   42CHL1  H15B 3054   2.704   6.018   4.046 -0.1294  2.6269 -0.5416
   42CHL1   C16 3055   2.830   5.984   4.214 -0.4078  0.0555  0.1705
   42CHL1  H16A 3056   2.871   6.059   4.285  0.7639 -0.2529 -0.1543
   42CHL1  H16B 3057   2.739   5.946   4.265  0.1954 -1.3009  0.2763
   42CHL1   C17 3058   2.936   5.877   4.198  0.1232  0.6149  0.2752
   42CHL1   H17 3059   2.889   5.779   4.175 -1.1998  0.9633  1.3798
   42CHL1   C13 3060   3.024   5.909   4.075 -0.3804 -0.2864 -0.4128
   42CHL1   C18 3061   3.119   6.026   4.097 -0.2494  0.1662 -1.2265
   42CHL1  H18A 3062   3.191   6.013   4.181 -0.6341  0.4819 -0.8383
   42CHL1  H18B 3063   3.163   6.057   4.000 -0.7683 -0.6519 -1.7296
   42CHL1  H18C 3064   3.048   6.105   4.129 -0.7576 -0.5670 -0.4932
   42CHL1   C12 3065   3.079   5.790   3.995  0.0783 -0.0091 -0.6892
   42CHL1  H12A 3066   3.159   5.737   4.051 -0.5306  0.0733  0.2791
   42CHL1  H12B 3067   3.005   5.708   3.983  0.3308 -0.5111  0.9259
   42CHL1   C11 3068   3.136   5.831   3.858 -0.3033  0.5376  0.2271
   42CHL1  H11A 3069   3.233   5.879   3.884  0.5230 -1.4935  1.0854
   42CHL1  H11B 3070   3.170   5.750   3.790  2.9066  0.5086  1.6757
   42CHL1    C9 3071   3.037   5.921   3.778 -0.1858  0.2509 -0.5950
   42CHL1    H9 3072   2.967   5.848   3.732 -0.2975 -1.1808  1.6801
   42CHL1   C10 3073   3.093   5.994   3.650 -0.0008 -0.2105  0.5356
   42CHL1   C19 3074   3.204   6.097   3.695  0.2882  0.0842  0.1858
   42CHL1  H19A 3075   3.291   6.042   3.736 -0.2042 -1.1669 -0.4161
   42CHL1  H19B 3076   3.243   6.144   3.601  1.2318 -1.5661 -0.2884
   42CHL1  H19C 3077   3.173   6.162   3.779 -1.2104  1.0616 -1.0721
   42CHL1    C1 3078   3.157   5.897   3.552 -0.4473 -0.3484  0.1556
   42CHL1   H1A 3079   3.261   5.874   3.585 -1.2228 -2.0050  1.6153
   42CHL1   H1B 3080   3.106   5.799   3.566 -1.2334 -0.1131 -0.9559
   42CHL1    C2 3081   3.159   5.944   3.398 -0.2713  0.0151  0.2737
   42CHL1   H2A 3082   3.186   5.863   3.327 -0.4267 -0.2740  0.5388
   42CHL1   H2B 3083   3.237   6.020   3.378  0.1158 -0.7567 -1.2877
   42CHL1   C20 3084   3.015   5.853   4.322  0.7126 -0.3776 -0.3481
   42CHL1   H20 3085   3.055   5.950   4.361 -1.5483  1.2142 -1.7283
   42CHL1   C21 3086   3.132   5.748   4.305 -0.1635 -0.4790  0.5430
   42CHL1  H21A 3087   3.098   5.658   4.250 -1.7768 -1.3707  2.8470
   42CHL1  H21B 3088   3.179   5.716   4.401 -0.3950 -0.3054  0.7168
   42CHL1  H21C 3089   3.218   5.790   4.249  0.2027 -1.2104  0.5572
   42CHL1   C22 3090   2.909   5.811   4.433  0.0495 -0.3371 -0.3239
   42CHL1  H22A 3091   2.853   5.900   4.468  2.0975  0.7692  0.3145
   42CHL1  H22B 3092   2.843   5.726   4.403 -0.8099 -0.8623  2.6666
   42CHL1   C23 3093   2.971   5.747   4.563 -0.6214 -0.0437 -0.8194
   42CHL1  H23A 3094   3.012   5.646   4.540 -1.3840 -0.4350 -0.4820
   42CHL1  H23B 3095   3.056   5.811   4.597 -0.7803 -1.2353  2.0924
   42CHL1   C24 3096   2.885   5.731   4.689 -0.5116  0.2781  0.8441
   42CHL1  H24A 3097   2.853   5.831   4.724 -2.4878 -0.1276  0.3776
   42CHL1  H24B 3098   2.790   5.679   4.663  0.5198 -0.6208 -1.3856
   42CHL1   C25 3099   2.965   5.659   4.806 -0.1226 -0.0375 -0.6956
   42CHL1   H25 3100   3.040   5.591   4.761  1.3213  1.6810 -1.0172
   42CHL1   C26 3101   3.031   5.757   4.898 -0.1157  0.1066 -0.2526
   42CHL1  H26A 3102   3.116   5.801   4.842 -0.3907  0.4438 -0.4130
   42CHL1  H26B 3103   2.958   5.835   4.928  2.0585  1.6302  1.4384
   42CHL1  H26C 3104   3.068   5.708   4.991  2.7344 -0.0870 -1.3964
   42CHL1   C27 3105   2.860   5.586   4.893  0.2243  0.7638 -0.0689
   42CHL1  H27A 3106   2.812   5.506   4.834  1.0482 -0.5464  0.9792
   42CHL1  H27B 3107   2.910   5.531   4.975  0.6354 -2.6044 -2.3882
   42CHL1  H27C 3108   2.787   5.661   4.931  0.6283  1.6281 -0.9585
   43CHL1    C3 3109   3.667   5.896   3.482  0.1164 -0.3702  0.1630
   43CHL1    H3 3110   3.613   5.993   3.479 -0.3038 -0.5811  0.6992
   43CHL1    O3 3111   3.674   5.845   3.346 -0.2670 -0.7071 -0.7328
   43CHL1   H3' 3112   3.722   5.918   3.307 -0.4703 -0.8983 -1.3659
   43CHL1    C4 3113   3.804   5.921   3.548 -0.3556  0.8583  0.5573
   43CHL1   H4A 3114   3.872   5.834   3.535 -2.0120 -0.5120  0.6790
   43CHL1   H4B 3115   3.848   6.001   3.485  0.0676  0.0304 -0.2320
   43CHL1    C5 3116   3.791   5.962   3.698 -0.3445  0.6129 -0.1929
   43CHL1    C6 3117   3.860   6.075   3.743  0.8282  0.7540 -0.3485
   43CHL1    H6 3118   3.902   6.151   3.675 -2.3462  3.1381  0.0986
   43CHL1    C7 3119   3.862   6.099   3.889 -0.4964  0.5460  0.1917
   43CHL1   H7A 3120   3.968   6.109   3.920 -0.1497 -0.0094 -0.7753
   43CHL1   H7B 3121   3.817   6.200   3.900 -0.8567  0.3835  0.2290
   43CHL1    C8 3122   3.791   6.001   3.984 -0.8710  0.0541 -0.6874
   43CHL1    H8 3123   3.872   5.933   4.018  0.3822  1.2256 -1.2264
   43CHL1   C14 3124   3.735   6.076   4.103  0.1362 -0.3989 -0.3081
   43CHL1   H14 3125   3.652   6.137   4.061  0.1811 -0.3925 -0.3870
   43CHL1   C15 3126   3.821   6.178   4.180  0.6107 -0.1063  0.2868
   43CHL1  H15A 3127   3.925   6.145   4.198 -0.2559 -1.9920  2.2110
   43CHL1  H15B 3128   3.822   6.270   4.118  0.0059 -0.3770 -0.1302
   43CHL1   C16 3129   3.741   6.202   4.310 -0.3697 -0.4472  0.4179
   43CHL1  H16A 3130   3.823   6.183   4.384  1.7776 -0.7086 -1.8930
   43CHL1  H16B 3131   3.694   6.302   4.322  0.4967 -0.0322  0.4289
   43CHL1   C17 3132   3.625   6.099   4.312 -0.7399 -0.4489 -0.0727
   43CHL1   H17 3133   3.539   6.155   4.269  0.2506 -0.2610 -1.9105
   43CHL1   C13 3134   3.664   5.992   4.208  0.8987 -0.2970 -0.5302
   43CHL1   C18 3135   3.765   5.904   4.271  0.1523  0.0676 -0.4118
   43CHL1  H18A 3136   3.723   5.818   4.328  1.4249  0.1474  0.6819
   43CHL1  H18B 3137   3.816   5.839   4.197 -1.7332 -2.2102  0.1672
   43CHL1  H18C 3138   3.846   5.960   4.321 -0.6089  0.8015  0.0190
   43CHL1   C12 3139   3.540   5.915   4.145 -0.1289 -0.7311  0.5814
   43CHL1  H12A 3140   3.478   5.850   4.212  0.4479  0.7274  2.6198
   43CHL1  H12B 3141   3.475   5.998   4.109  0.0915 -1.0608 -0.6289
   43CHL1   C11 3142   3.595   5.845   4.021 -0.6023  0.4687  0.1631
   43CHL1  H11A 3143   3.661   5.760   4.048 -2.4477 -2.1221 -2.6836
   43CHL1  H11B 3144   3.512   5.794   3.967 -1.4826  2.6777 -0.6932
   43CHL1    C9 3145   3.673   5.933   3.922  0.0610 -0.2185  0.2713
   43CHL1    H9 3146   3.590   6.004   3.902 -0.5866 -0.6133  1.4766
   43CHL1   C10 3147   3.699   5.871   3.783 -0.6567  0.1197 -0.2662
   43CHL1   C19 3148   3.788   5.737   3.794  0.2167  0.8876  0.4544
   43CHL1  H19A 3149   3.799   5.689   3.695 -0.6021 -0.7267  1.1095
   43CHL1  H19B 3150   3.882   5.754   3.851 -0.1870  1.1705  1.0519
   43CHL1  H19C 3151   3.739   5.653   3.847 -0.2016  0.6422 -0.3041
   43CHL1    C1 3152   3.568   5.827   3.716 -0.2729 -0.4509  0.1760
   43CHL1   H1A 3153   3.532   5.738   3.772  3.5584 -1.8965  0.6582
   43CHL1   H1B 3154   3.495   5.911   3.717  2.5558  2.2740 -2.1984
   43CHL1    C2 3155   3.579   5.794   3.565 -0.7112 -0.1206 -0.0490
   43CHL1   H2A 3156   3.475   5.789   3.527 -0.5054 -2.5702 -0.4172
   43CHL1   H2B 3157   3.629   5.696   3.553  1.9981  1.2599 -1.1011
   43CHL1   C20 3158   3.581   6.049   4.445  0.5005  0.2620 -0.3843
   43CHL1   H20 3159   3.578   5.938   4.451 -2.3986  0.1551 -2.1483
   43CHL1   C21 3160   3.431   6.097   4.467 -0.1532 -0.3661 -0.5812
   43CHL1  H21A 3161   3.383   6.061   4.560 -1.6286  2.6728 -0.0464
   43CHL1  H21B 3162   3.374   6.061   4.379 -1.8494  0.2828  0.2090
   43CHL1  H21C 3163   3.430   6.208   4.479  0.0237 -0.5386  1.4129
   43CHL1   C22 3164   3.669   6.090   4.566  0.2926  0.4205 -0.3673
   43CHL1  H22A 3165   3.767   6.039   4.557 -0.1712 -0.8768  1.4351
   43CHL1  H22B 3166   3.678   6.200   4.558 -0.1642  0.5516  0.7927
   43CHL1   C23 3167   3.616   6.055   4.704 -0.2006  0.2219  0.2933
   43CHL1  H23A 3168   3.522   6.105   4.734 -0.8254 -1.0934  0.6032
   43CHL1  H23B 3169   3.592   5.947   4.720 -0.9258  0.4257  0.6055
   43CHL1   C24 3170   3.722   6.082   4.811  0.3537  0.4466 -0.3338
   43CHL1  H24A 3171   3.800   6.002   4.806 -0.0199 -0.1039  1.6235
   43CHL1  H24B 3172   3.764   6.185   4.813  0.8271  0.2540  0.3793
   43CHL1   C25 3173   3.667   6.061   4.959  0.0852 -0.3692 -0.2846
   43CHL1   H25 3174   3.564   6.103   4.964 -0.8165 -2.3768 -0.8971
   43CHL1   C26 3175   3.655   5.907   4.989  0.8264 -0.3552  0.0759
   43CHL1  H26A 3176   3.652   5.892   5.099  0.3407  1.2290  0.3040
   43CHL1  H26B 3177   3.565   5.859   4.945 -0.8716  0.1498  2.7836
   43CHL1  H26C 3178   3.747   5.858   4.951  0.1382 -0.1118 -2.0060
   43CHL1   C27 3179   3.749   6.131   5.067  0.1086  0.0786 -0.7015
   43CHL1  H27A 3180   3.844   6.074   5.067 -0.6168 -1.2167 -2.5034
   43CHL1  H27B 3181   3.770   6.239   5.047  1.1212 -0.0601 -0.4542
   43CHL1  H27C 3182   3.703   6.104   5.164 -1.3822  0.5662 -1.2378
   44CHL1    C3 3183   0.818   6.681   3.666 -0.3824 -0.6209  0.4398
   44CHL1    H3 3184   0.760   6.755   3.725 -0.4326  1.0685 -1.6294
   44CHL1    O3 3185   0.747   6.682   3.543 -0.6273  0.0455  0.4000
   44CHL1   H3' 3186   0.673   6.621   3.555 -0.8606 -0.1992 -1.8485
   44CHL1    C4 3187   0.969   6.723   3.648 -0.0336  0.0692  0.0015
   44CHL1   H4A 3188   1.003   6.665   3.559  0.3871  0.4196 -0.0649
   44CHL1   H4B 3189   0.968   6.828   3.612 -1.9183  0.7709  1.8956
   44CHL1    C5 3190   1.054   6.711   3.770 -0.0190 -0.3248  0.1192
   44CHL1    C6 3191   1.121   6.817   3.807 -0.3189 -0.3225 -0.2403
   44CHL1    H6 3192   1.126   6.913   3.754  3.2328 -1.1220 -1.6473
   44CHL1    C7 3193   1.217   6.808   3.917 -0.8196  0.2785 -0.9757
   44CHL1   H7A 3194   1.311   6.860   3.889 -1.6712  2.2042 -0.4207
   44CHL1   H7B 3195   1.178   6.852   4.011  0.9463 -1.9513  0.9324
   44CHL1    C8 3196   1.258   6.662   3.955 -0.1838 -0.0956 -0.3111
   44CHL1    H8 3197   1.321   6.629   3.870 -0.5245  0.0487 -0.6222
   44CHL1   C14 3198   1.331   6.663   4.093 -0.1010  0.0370  0.1869
   44CHL1   H14 3199   1.251   6.696   4.162 -1.7825  1.5065 -2.2769
   44CHL1   C15 3200   1.457   6.759   4.100 -0.4278 -0.2795 -0.5585
   44CHL1  H15A 3201   1.507   6.751   4.001  1.2254 -1.5565  0.3175
   44CHL1  H15B 3202   1.437   6.865   4.126  0.0018 -0.1791 -0.6235
   44CHL1   C16 3203   1.541   6.693   4.214 -0.0422 -0.4447 -0.1399
   44CHL1  H16A 3204   1.637   6.670   4.163 -0.2002  0.0434 -0.6693
   44CHL1  H16B 3205   1.551   6.756   4.305  0.5988 -1.3791  0.4566
   44CHL1   C17 3206   1.462   6.570   4.260  0.6780  0.6408 -0.4380
   44CHL1   H17 3207   1.387   6.609   4.332  1.5075 -0.1435  0.9073
   44CHL1   C13 3208   1.385   6.529   4.136  0.6413 -0.4189  0.0813
   44CHL1   C18 3209   1.481   6.471   4.033 -0.3205  0.0854 -0.5603
   44CHL1  H18A 3210   1.440   6.455   3.932 -0.5289 -2.1121 -0.1780
   44CHL1  H18B 3211   1.570   6.532   4.009 -0.1515 -0.0690 -0.3422
   44CHL1  H18C 3212   1.511   6.372   4.075  0.2795  0.1643 -0.7855
   44CHL1   C12 3213   1.262   6.441   4.155 -0.3241  0.1573  0.0493
   44CHL1  H12A 3214   1.293   6.336   4.175  2.3464  0.7447 -0.5738
   44CHL1  H12B 3215   1.200   6.483   4.236  2.6457  0.5579  2.2759
   44CHL1   C11 3216   1.176   6.438   4.030 -0.7113 -1.0844  0.0237
   44CHL1  H11A 3217   1.250   6.409   3.953  0.5785  1.5819  0.1497
   44CHL1  H11B 3218   1.088   6.373   4.049 -0.7997 -1.1440 -0.5848
   44CHL1    C9 3219   1.136   6.573   3.968  0.0385 -0.9281 -0.6970
   44CHL1    H9 3220   1.075   6.628   4.042  0.0631 -0.8001 -0.7715
   44CHL1   C10 3221   1.051   6.572   3.842  0.3602 -0.1768  0.6291
   44CHL1   C19 3222   1.121   6.478   3.740  0.1405 -0.0500 -0.3324
   44CHL1  H19A 3223   1.085   6.478   3.635 -1.2838  1.3631  0.1154
   44CHL1  H19B 3224   1.230   6.500   3.735  0.2066 -0.6804 -2.0299
   44CHL1  H19C 3225   1.101   6.375   3.775  0.8041 -0.4323 -1.0601
   44CHL1    C1 3226   0.901   6.525   3.867  0.2012  0.0369 -0.3633
   44CHL1   H1A 3227   0.926   6.421   3.899  0.1943 -0.0331 -0.5779
   44CHL1   H1B 3228   0.858   6.578   3.954 -0.6654 -0.8373 -0.2403
   44CHL1    C2 3229   0.818   6.548   3.727  0.7569  0.4044 -0.3680
   44CHL1   H2A 3230   0.713   6.535   3.759  0.6075 -1.6952 -1.5296
   44CHL1   H2B 3231   0.858   6.479   3.650  0.1894  1.0733 -1.2821
   44CHL1   C20 3232   1.558   6.469   4.332  0.7561 -0.0308 -0.2043
   44CHL1   H20 3233   1.643   6.429   4.273  0.1563  0.2955 -1.3359
   44CHL1   C21 3234   1.481   6.338   4.371  0.3024  0.0069  0.0819
   44CHL1  H21A 3235   1.472   6.275   4.280 -2.1470  0.5160 -0.0806
   44CHL1  H21B 3236   1.387   6.362   4.426  0.5605  1.0756  0.0651
   44CHL1  H21C 3237   1.538   6.280   4.447  0.5116  0.1416  0.0279
   44CHL1   C22 3238   1.614   6.539   4.457 -0.4275 -0.1488 -0.8520
   44CHL1  H22A 3239   1.702   6.483   4.495 -1.4656 -2.2497 -1.4052
   44CHL1  H22B 3240   1.661   6.637   4.433  1.3135 -0.9844 -1.0084
   44CHL1   C23 3241   1.522   6.554   4.582 -0.7024 -0.3546 -0.0662
   44CHL1  H23A 3242   1.425   6.599   4.552 -1.2500 -1.8269 -0.6136
   44CHL1  H23B 3243   1.508   6.446   4.602  1.7551 -1.0015 -1.5042
   44CHL1   C24 3244   1.598   6.625   4.699  0.0226  0.5921  0.3628
   44CHL1  H24A 3245   1.533   6.623   4.790 -0.2376  3.2588  0.3247
   44CHL1  H24B 3246   1.696   6.577   4.718  0.3116  0.8566 -0.4217
   44CHL1   C25 3247   1.639   6.771   4.674  0.0451  0.0162 -0.1077
   44CHL1   H25 3248   1.686   6.787   4.575 -0.0656  2.5584  0.1910
   44CHL1   C26 3249   1.519   6.874   4.687  0.1598 -0.6702  0.8279
   44CHL1  H26A 3250   1.451   6.865   4.775 -0.4317  1.6384  0.6694
   44CHL1  H26B 3251   1.577   6.967   4.701  0.2856 -0.8902  1.8767
   44CHL1  H26C 3252   1.455   6.872   4.596 -0.0071 -0.3964  0.9387
   44CHL1   C27 3253   1.735   6.811   4.788 -0.0676  0.2019  0.0246
   44CHL1  H27A 3254   1.682   6.790   4.883  0.9327  2.4291  1.1514
   44CHL1  H27B 3255   1.835   6.761   4.786  0.4532  1.1881  0.3824
   44CHL1  H27C 3256   1.759   6.920   4.784  0.4809  0.0566 -0.8489
   45CHL1    C3 3257   1.671   1.202   3.736  0.0090 -0.4496  0.5547
   45CHL1    H3 3258   1.775   1.184   3.703  0.5109  3.8276 -0.8390
   45CHL1    O3 3259   1.589   1.226   3.626 -0.1048  0.4480  0.2110
   45CHL1   H3' 3260   1.607   1.313   3.590  1.8262 -0.4897 -1.3002
   45CHL1    C4 3261   1.614   1.080   3.817 -1.2498 -0.3650 -0.5706
   45CHL1   H4A 3262   1.506   1.100   3.830 -0.8640  1.5529  0.0117
   45CHL1   H4B 3263   1.628   0.995   3.747 -1.3171  0.4768 -1.6361
   45CHL1    C5 3264   1.670   1.059   3.955  0.5278 -0.2080  0.1416
   45CHL1    C6 3265   1.713   0.938   3.989  0.1269  0.0493  0.4844
   45CHL1    H6 3266   1.673   0.854   3.930 -0.9093  0.7835  0.1081
   45CHL1    C7 3267   1.777   0.902   4.119 -0.0958  0.2641 -0.9826
   45CHL1   H7A 3268   1.734   0.812   4.168  1.7538  0.0040  0.2730
   45CHL1   H7B 3269   1.888   0.890   4.110  0.3010  2.6146  0.1131
   45CHL1    C8 3270   1.765   1.024   4.220  0.2794 -0.1585  0.3464
   45CHL1    H8 3271   1.659   1.028   4.254  0.6730 -0.6533  1.7214
   45CHL1   C14 3272   1.856   1.012   4.338 -0.4189 -0.4485 -0.0993
   45CHL1   H14 3273   1.956   1.022   4.290 -0.8667  0.6842 -0.8445
   45CHL1   C15 3274   1.864   0.886   4.422 -0.4655 -0.1737 -0.8172
   45CHL1  H15A 3275   1.765   0.855   4.462 -0.5640  1.6992  0.4947
   45CHL1  H15B 3276   1.908   0.803   4.362 -0.9513 -0.8741 -0.2238
   45CHL1   C16 3277   1.967   0.918   4.540  0.2376  0.1788 -0.1533
   45CHL1  H16A 3278   1.948   0.858   4.632  0.5245 -0.3022 -0.4059
   45CHL1  H16B 3279   2.068   0.883   4.512  0.6315 -0.9936  2.4165
   45CHL1   C17 3280   1.951   1.071   4.558  0.5367  0.9112  0.4764
   45CHL1   H17 3281   2.050   1.112   4.529  0.6237  0.0918 -0.4614
   45CHL1   C13 3282   1.856   1.123   4.442  0.3684  0.4565 -0.5420
   45CHL1   C18 3283   1.715   1.129   4.505 -0.0904  0.7185  0.3906
   45CHL1  H18A 3284   1.640   1.152   4.427 -0.4422 -2.9123 -0.5302
   45CHL1  H18B 3285   1.682   1.031   4.547 -0.5122  0.6543 -0.0910
   45CHL1  H18C 3286   1.707   1.210   4.580 -2.1145  0.6399  0.3233
   45CHL1   C12 3287   1.887   1.254   4.375 -0.5417 -0.1290  0.0219
   45CHL1  H12A 3288   1.866   1.339   4.443 -0.6141  1.7933 -2.2501
   45CHL1  H12B 3289   1.996   1.253   4.353 -0.2460 -1.8853  1.3696
   45CHL1   C11 3290   1.799   1.276   4.259 -0.0475 -0.3362  0.5365
   45CHL1  H11A 3291   1.703   1.316   4.297  1.7028  2.5744  2.2545
   45CHL1  H11B 3292   1.840   1.369   4.214 -2.4618  0.0053 -1.1131
   45CHL1    C9 3293   1.791   1.160   4.158 -0.3821 -0.3102 -0.0400
   45CHL1    H9 3294   1.895   1.158   4.118  0.1084 -1.4036  1.1962
   45CHL1   C10 3295   1.699   1.185   4.041  0.8216  0.6126 -0.2884
   45CHL1   C19 3296   1.555   1.225   4.086  0.0557 -0.4964  0.1304
   45CHL1  H19A 3297   1.498   1.148   4.144  0.0330  0.6112  1.6373
   45CHL1  H19B 3298   1.544   1.302   4.165 -2.5750 -0.2689 -0.3465
   45CHL1  H19C 3299   1.486   1.249   4.003 -0.3154  2.6854  1.2311
   45CHL1    C1 3300   1.752   1.298   3.950  0.1154 -0.1803  0.3469
   45CHL1   H1A 3301   1.744   1.391   4.010  1.2243 -0.7439  1.4037
   45CHL1   H1B 3302   1.854   1.278   3.909 -0.3483  1.2862 -1.6298
   45CHL1    C2 3303   1.675   1.326   3.823  0.1023  0.1954  0.0722
   45CHL1   H2A 3304   1.721   1.413   3.772  0.5535 -0.1956 -0.1994
   45CHL1   H2B 3305   1.578   1.368   3.857  1.2293  1.7701  1.5244
   45CHL1   C20 3306   1.930   1.118   4.699  0.4129 -0.5610 -0.4760
   45CHL1   H20 3307   1.896   1.224   4.702 -0.2363 -0.7841  0.7528
   45CHL1   C21 3308   2.069   1.110   4.773  0.2834  0.5854  0.5633
   45CHL1  H21A 3309   2.105   1.005   4.780  0.0145  0.3877 -0.6895
   45CHL1  H21B 3310   2.058   1.151   4.876  0.0734  0.5530  0.5556
   45CHL1  H21C 3311   2.142   1.171   4.717 -0.3298  1.0384  0.2418
   45CHL1   C22 3312   1.827   1.044   4.789 -0.5958 -0.2409  0.6295
   45CHL1  H22A 3313   1.728   1.040   4.738 -1.5740  2.4335  2.1021
   45CHL1  H22B 3314   1.861   0.943   4.819  0.2204  0.0099  0.5755
   45CHL1   C23 3315   1.801   1.116   4.930  0.4774  0.3813  0.5218
   45CHL1  H23A 3316   1.890   1.124   4.996 -0.4410 -0.1436  1.8831
   45CHL1  H23B 3317   1.783   1.225   4.915  0.8327  0.4926  0.8607
   45CHL1   C24 3318   1.691   1.047   5.016  0.1593 -0.3659 -0.7105
   45CHL1  H24A 3319   1.603   1.026   4.952 -0.7933 -0.7089  0.6777
   45CHL1  H24B 3320   1.726   0.942   5.027 -1.3871 -0.9281 -0.9162
   45CHL1   C25 3321   1.668   1.119   5.155 -0.6397 -0.4718 -0.7398
   45CHL1   H25 3322   1.766   1.152   5.195 -0.6475 -0.3621 -0.8117
   45CHL1   C26 3323   1.589   1.248   5.137 -0.0193 -0.1829  0.1381
   45CHL1  H26A 3324   1.633   1.307   5.053 -2.4223  0.4981 -0.7281
   45CHL1  H26B 3325   1.480   1.237   5.122 -0.0737  1.3861 -0.8273
   45CHL1  H26C 3326   1.607   1.313   5.225 -0.4258 -2.5264  2.0543
   45CHL1   C27 3327   1.601   1.021   5.252  0.2724  0.3848 -0.4336
   45CHL1  H27A 3328   1.670   0.940   5.284 -0.9150  0.1791  1.8516
   45CHL1  H27B 3329   1.568   1.077   5.343 -1.1415 -0.4825 -0.3788
   45CHL1  H27C 3330   1.507   0.981   5.208 -0.7321  0.6301  1.3612
   46CHL1    C3 3331   5.985   1.182   3.775  0.5348  0.5714  0.0097
   46CHL1    H3 3332   6.087   1.144   3.792  1.4158  3.8694  3.5810
   46CHL1    O3 3333   5.949   1.194   3.642  0.4506  0.3556  0.4184
   46CHL1   H3' 3334   5.986   1.275   3.606 -3.6889  1.0325 -3.2266
   46CHL1    C4 3335   5.881   1.082   3.835  0.5520 -0.4381 -0.1028
   46CHL1   H4A 3336   5.775   1.109   3.812  0.3415 -0.1616  1.1504
   46CHL1   H4B 3337   5.891   0.984   3.783  1.9424 -0.1598 -0.3870
   46CHL1    C5 3338   5.897   1.075   3.989  0.5504  0.5396  0.2231
   46CHL1    C6 3339   5.916   0.960   4.055  0.1319 -0.3339  0.6469
   46CHL1    H6 3340   5.920   0.875   3.986 -0.8254  0.7023 -0.7518
   46CHL1    C7 3341   5.920   0.954   4.205  0.0565  0.4226  0.1214
   46CHL1   H7A 3342   5.865   0.865   4.244  0.6854 -1.4391 -2.9046
   46CHL1   H7B 3343   6.025   0.949   4.241  0.1222 -0.7860 -0.2065
   46CHL1    C8 3344   5.861   1.081   4.277 -0.6749 -0.4774 -0.2098
   46CHL1    H8 3345   5.752   1.089   4.256 -0.3531  0.2912 -1.6883
   46CHL1   C14 3346   5.897   1.082   4.424  0.4639 -0.1490 -0.3131
   46CHL1   H14 3347   6.007   1.089   4.434  0.3072  1.1633  0.6818
   46CHL1   C15 3348   5.855   0.960   4.510  0.0410 -0.1199  0.6796
   46CHL1  H15A 3349   5.750   0.927   4.494  0.0666 -0.7024  1.6333
   46CHL1  H15B 3350   5.918   0.870   4.492 -0.0580  0.1672 -1.3848
   46CHL1   C16 3351   5.874   1.012   4.654 -0.3319 -0.6414 -0.7785
   46CHL1  H16A 3352   5.799   0.977   4.728 -1.1565  1.4170 -0.5782
   46CHL1  H16B 3353   5.981   0.993   4.676 -0.6490 -1.6561 -0.0407
   46CHL1   C17 3354   5.871   1.168   4.652  0.0650 -0.4199  0.1640
   46CHL1   H17 3355   5.974   1.209   4.664 -0.7982  1.6922  0.8568
   46CHL1   C13 3356   5.834   1.200   4.502  0.2420 -0.1802 -0.2015
   46CHL1   C18 3357   5.686   1.195   4.487  0.2285  0.4682  0.0546
   46CHL1  H18A 3358   5.629   1.278   4.533 -0.4940 -0.5542  1.0632
   46CHL1  H18B 3359   5.659   1.203   4.379  0.4574  1.6670  0.0738
   46CHL1  H18C 3360   5.644   1.103   4.532 -1.4080  0.7862 -0.7451
   46CHL1   C12 3361   5.906   1.323   4.440 -0.7063 -0.4083 -0.0501
   46CHL1  H12A 3362   5.876   1.421   4.483  1.1673  0.7211 -1.1814
   46CHL1  H12B 3363   6.015   1.305   4.452 -0.7445 -0.7490 -0.2210
   46CHL1   C11 3364   5.886   1.335   4.290 -0.2084 -0.1836 -0.0426
   46CHL1  H11A 3365   5.777   1.357   4.288 -0.5666 -0.8331  4.0975
   46CHL1  H11B 3366   5.949   1.423   4.265 -0.2415  0.0745  0.7615
   46CHL1    C9 3367   5.921   1.207   4.213  0.6607  0.5922  0.2921
   46CHL1    H9 3368   6.030   1.187   4.219  0.4672 -1.3173 -1.5030
   46CHL1   C10 3369   5.893   1.213   4.056  0.1338 -0.6441  0.0515
   46CHL1   C19 3370   5.748   1.274   4.049 -0.0246  0.3225 -0.6592
   46CHL1  H19A 3371   5.693   1.266   3.953 -0.5133 -0.4228 -0.3300
   46CHL1  H19B 3372   5.681   1.217   4.118 -0.1615 -0.2208 -1.2255
   46CHL1  H19C 3373   5.752   1.381   4.075  0.1445  0.3231 -0.6866
   46CHL1    C1 3374   5.986   1.314   3.989  0.4185  0.5051  0.1769
   46CHL1   H1A 3375   5.984   1.416   4.032  1.6602  0.5349  0.2235
   46CHL1   H1B 3376   6.086   1.267   4.003 -1.2317 -3.1158  1.0093
   46CHL1    C2 3377   5.974   1.321   3.833 -0.1480 -0.3067 -0.3792
   46CHL1   H2A 3378   6.049   1.389   3.786 -2.7641  0.5363 -3.7178
   46CHL1   H2B 3379   5.874   1.365   3.810  0.4962  0.8095 -1.1511
   46CHL1   C20 3380   5.784   1.234   4.760 -0.0003  0.1805  0.3763
   46CHL1   H20 3381   5.684   1.187   4.748  0.4752 -0.6838 -0.3401
   46CHL1   C21 3382   5.777   1.390   4.748 -0.3087 -0.1794 -0.7285
   46CHL1  H21A 3383   5.872   1.448   4.747 -1.8932  2.6723  1.5438
   46CHL1  H21B 3384   5.710   1.433   4.825  0.3917 -0.2345 -0.0820
   46CHL1  H21C 3385   5.736   1.407   4.646 -1.5150  1.3294 -0.0289
   46CHL1   C22 3386   5.837   1.197   4.906 -0.3197 -0.3844 -0.7102
   46CHL1  H22A 3387   5.762   1.229   4.980  0.4016 -1.6338  0.6170
   46CHL1  H22B 3388   5.832   1.086   4.900 -0.7602 -0.2923 -2.4365
   46CHL1   C23 3389   5.983   1.250   4.940  0.2494 -0.3157  0.6232
   46CHL1  H23A 3390   6.049   1.225   4.855  0.5336 -3.3109  1.5791
   46CHL1  H23B 3391   5.977   1.360   4.934 -0.4859 -0.3969 -0.3711
   46CHL1   C24 3392   6.031   1.212   5.075  0.3404 -0.1192 -0.4066
   46CHL1  H24A 3393   6.127   1.267   5.078 -1.1954  2.8265 -1.0178
   46CHL1  H24B 3394   5.964   1.261   5.149 -1.1317 -0.2084 -1.6171
   46CHL1   C25 3395   6.056   1.060   5.115 -0.4307  0.0457  0.4032
   46CHL1   H25 3396   5.977   0.987   5.089 -0.7916 -0.1307  1.9048
   46CHL1   C26 3397   6.174   1.004   5.040 -0.6579  0.7260 -0.1364
   46CHL1  H26A 3398   6.149   1.006   4.932 -1.6788  1.7671  0.1051
   46CHL1  H26B 3399   6.272   1.052   5.058 -0.7766  0.5079  1.2127
   46CHL1  H26C 3400   6.199   0.897   5.057  0.9908  0.9206 -1.1236
   46CHL1   C27 3401   6.105   1.044   5.262 -0.4088  0.2233  0.1752
   46CHL1  H27A 3402   6.196   1.107   5.267 -1.1985  1.3042  1.3885
   46CHL1  H27B 3403   6.028   1.069   5.338 -1.7998  1.1328 -1.4549
   46CHL1  H27C 3404   6.126   0.936   5.273 -0.2305  0.3279  0.8995
   47CHL1    C3 3405   3.281   2.112   3.745 -0.2157  0.3472  1.0347
   47CHL1    H3 3406   3.310   2.013   3.784 -0.7337 -0.9641 -1.6842
   47CHL1    O3 3407   3.279   2.085   3.603 -0.0360 -0.2167  0.0094
   47CHL1   H3' 3408   3.328   2.162   3.572  0.4506 -1.2833 -2.0948
   47CHL1    C4 3409   3.134   2.136   3.794  0.6354  0.0828  0.1889
   47CHL1   H4A 3410   3.089   2.222   3.740  2.0717  0.8444  0.1410
   47CHL1   H4B 3411   3.061   2.061   3.757  1.5004  0.3566 -2.2523
   47CHL1    C5 3412   3.122   2.160   3.937  0.8773  0.1234  0.2468
   47CHL1    C6 3413   3.030   2.093   4.014 -0.3992  0.2055 -0.6578
   47CHL1    H6 3414   2.969   2.018   3.960  1.3062 -1.2890 -0.6292
   47CHL1    C7 3415   3.019   2.089   4.163  0.1255 -0.3164  0.6677
   47CHL1   H7A 3416   2.913   2.080   4.194  0.0800  0.1175  0.6446
   47CHL1   H7B 3417   3.081   2.006   4.204  1.4915  2.2567  4.3683
   47CHL1    C8 3418   3.082   2.223   4.212 -0.1621  0.3875  0.2305
   47CHL1    H8 3419   3.014   2.300   4.171  0.7190  0.4790 -1.1224
   47CHL1   C14 3420   3.093   2.222   4.363  0.0943  0.2549 -0.6690
   47CHL1   H14 3421   3.170   2.146   4.387  0.5354  0.9951  0.3329
   47CHL1   C15 3422   2.969   2.193   4.442  0.0385 -0.3611 -0.4837
   47CHL1  H15A 3423   2.882   2.249   4.401  0.3214  0.2846 -0.2089
   47CHL1  H15B 3424   2.949   2.084   4.451  0.5721 -0.5507 -1.4279
   47CHL1   C16 3425   3.000   2.247   4.586  0.2061  0.3773 -0.2463
   47CHL1  H16A 3426   2.917   2.309   4.627  1.6222  2.1670  0.0106
   47CHL1  H16B 3427   3.017   2.161   4.653  0.2046  1.9174  1.8235
   47CHL1   C17 3428   3.134   2.322   4.578 -0.2858  0.4362 -0.3736
   47CHL1   H17 3429   3.215   2.248   4.599 -1.6169 -0.4907  1.8426
   47CHL1   C13 3430   3.148   2.349   4.429 -0.5086  0.0905  0.0542
   47CHL1   C18 3431   3.050   2.463   4.395  0.2429 -0.7416  0.1314
   47CHL1  H18A 3432   3.041   2.481   4.285  1.1541  0.3139  0.2076
   47CHL1  H18B 3433   2.952   2.441   4.441  0.1847  0.9346  0.8754
   47CHL1  H18C 3434   3.083   2.555   4.448  1.4823 -1.6381  0.9876
   47CHL1   C12 3435   3.288   2.370   4.372 -0.4902 -0.3678 -0.1695
   47CHL1  H12A 3436   3.338   2.466   4.398 -0.3868 -0.0054 -1.6207
   47CHL1  H12B 3437   3.352   2.282   4.394  1.4166  1.0663  0.2348
   47CHL1   C11 3438   3.278   2.386   4.222  1.0721  0.7187 -0.3335
   47CHL1  H11A 3439   3.226   2.480   4.195  1.0599  0.6736 -0.4701
   47CHL1  H11B 3440   3.382   2.396   4.186  1.5704 -2.5994 -0.1760
   47CHL1    C9 3441   3.218   2.261   4.154 -0.4943  0.3521 -0.0220
   47CHL1    H9 3442   3.282   2.172   4.174 -2.6275 -1.7507 -1.9262
   47CHL1   C10 3443   3.212   2.267   3.997 -0.4030 -0.8800 -0.3339
   47CHL1   C19 3444   3.173   2.409   3.946  0.1583 -1.0439 -0.3228
   47CHL1  H19A 3445   3.163   2.417   3.836 -0.4129 -4.7720 -0.6773
   47CHL1  H19B 3446   3.070   2.435   3.978 -0.8724  0.3876 -4.2071
   47CHL1  H19C 3447   3.247   2.486   3.978 -1.1431  0.3508 -0.5457
   47CHL1    C1 3448   3.360   2.244   3.947  0.3832 -0.0125 -0.0164
   47CHL1   H1A 3449   3.419   2.333   3.979  1.0732 -0.5799  0.3059
   47CHL1   H1B 3450   3.409   2.159   3.998  0.5336 -0.3434 -0.7074
   47CHL1    C2 3451   3.365   2.228   3.791 -0.3827 -0.3105 -0.3642
   47CHL1   H2A 3452   3.472   2.224   3.764  0.0919  2.5732  0.7477
   47CHL1   H2B 3453   3.317   2.317   3.744 -2.0659  0.5285  2.6203
   47CHL1   C20 3454   3.166   2.438   4.681 -0.9963  0.3644 -0.1690
   47CHL1   H20 3455   3.095   2.521   4.663 -1.4891  0.3357  1.4804
   47CHL1   C21 3456   3.309   2.507   4.668 -0.2672 -0.4404 -1.6738
   47CHL1  H21A 3457   3.386   2.427   4.656  1.4690  0.9303 -0.3048
   47CHL1  H21B 3458   3.329   2.574   4.754 -2.1715 -0.6067 -1.0664
   47CHL1  H21C 3459   3.319   2.571   4.578 -0.3626  2.5814  0.3281
   47CHL1   C22 3460   3.129   2.401   4.831 -0.6451 -0.3949  0.1288
   47CHL1  H22A 3461   3.156   2.488   4.895 -0.6048 -1.1867  1.2117
   47CHL1  H22B 3462   3.020   2.381   4.827 -0.4072 -1.8852  0.6284
   47CHL1   C23 3463   3.208   2.285   4.901 -0.1016  0.3764 -0.1300
   47CHL1  H23A 3464   3.214   2.199   4.831 -0.3364  2.0322 -2.2945
   47CHL1  H23B 3465   3.312   2.322   4.901  0.5427 -1.2574 -1.7415
   47CHL1   C24 3466   3.165   2.243   5.040  0.0999  0.4146 -0.1271
   47CHL1  H24A 3467   3.055   2.228   5.042  0.1945 -0.3016 -0.1827
   47CHL1  H24B 3468   3.219   2.151   5.071  0.1015  0.7806  1.0151
   47CHL1   C25 3469   3.198   2.335   5.162  0.1084 -0.9141  0.0139
   47CHL1   H25 3470   3.159   2.429   5.118 -1.0689 -1.9056 -1.1516
   47CHL1   C26 3471   3.121   2.290   5.285 -0.1452 -0.1483  0.0126
   47CHL1  H26A 3472   3.151   2.192   5.329 -0.5998  0.1982  1.1347
   47CHL1  H26B 3473   3.144   2.347   5.378  1.6921 -1.7648  0.6136
   47CHL1  H26C 3474   3.012   2.285   5.265 -0.0773 -2.9712 -0.1007
   47CHL1   C27 3475   3.349   2.349   5.188 -0.1745 -0.1663 -0.7798
   47CHL1  H27A 3476   3.365   2.434   5.258  0.7855  1.9103 -3.3550
   47CHL1  H27B 3477   3.400   2.258   5.227  1.3277  1.6018  1.7284
   47CHL1  H27C 3478   3.391   2.376   5.088 -0.6773  1.1785 -0.6500
   48CHL1    C3 3479   0.685   5.105   3.275 -0.2662 -0.1859  0.2650
   48CHL1    H3 3480   0.748   5.017   3.300  0.8305  0.2065 -0.9829
   48CHL1    O3 3481   0.686   5.121   3.134 -0.5781 -0.0860 -0.1639
   48CHL1   H3' 3482   0.722   5.202   3.099 -0.7416 -0.7586 -2.0070
   48CHL1    C4 3483   0.546   5.071   3.328 -0.5891  0.0974  0.2379
   48CHL1   H4A 3484   0.477   5.151   3.293 -2.0582 -0.1785  2.3013
   48CHL1   H4B 3485   0.515   4.974   3.284 -1.4196  0.5106 -0.1232
   48CHL1    C5 3486   0.536   5.064   3.478 -0.3524 -0.4637  0.3541
   48CHL1    C6 3487   0.522   4.949   3.548  0.3923 -0.0079  1.2664
   48CHL1    H6 3488   0.491   4.858   3.493 -0.7375  0.4850  1.0459
   48CHL1    C7 3489   0.523   4.929   3.698  0.1410  0.1078  0.2193
   48CHL1   H7A 3490   0.451   4.849   3.725  1.2066 -1.4024 -1.2241
   48CHL1   H7B 3491   0.623   4.893   3.728 -0.4212 -1.7105  0.0445
   48CHL1    C8 3492   0.500   5.064   3.765  0.1178  0.7280 -0.1842
   48CHL1    H8 3493   0.393   5.087   3.747  0.5629  2.3023 -1.0778
   48CHL1   C14 3494   0.530   5.058   3.915  0.1623  0.1188 -0.7465
   48CHL1   H14 3495   0.640   5.065   3.922  0.2538 -1.8085  0.4517
   48CHL1   C15 3496   0.501   4.930   3.992  0.4552  0.5188 -0.2715
   48CHL1  H15A 3497   0.419   4.868   3.951  0.7125  0.9382 -1.4652
   48CHL1  H15B 3498   0.592   4.868   3.980 -0.0777 -0.0803 -1.3463
   48CHL1   C16 3499   0.485   4.966   4.139  0.2868  0.2669  0.0042
   48CHL1  H16A 3500   0.381   4.964   4.179  0.0969  3.2322 -0.1459
   48CHL1  H16B 3501   0.564   4.912   4.196  0.1245  0.5736  0.5192
   48CHL1   C17 3502   0.529   5.120   4.141 -0.6906  0.6604  0.6943
   48CHL1   H17 3503   0.640   5.116   4.144 -0.4536  0.6582 -3.0669
   48CHL1   C13 3504   0.488   5.174   4.001 -0.0571  0.3721 -0.4297
   48CHL1   C18 3505   0.334   5.192   4.010  0.1913  0.5565  0.4317
   48CHL1  H18A 3506   0.291   5.203   3.908  0.4445  0.5582  0.3246
   48CHL1  H18B 3507   0.287   5.108   4.066  1.1649  0.0582  0.5268
   48CHL1  H18C 3508   0.305   5.284   4.066 -0.7599  1.0410 -0.7933
   48CHL1   C12 3509   0.564   5.295   3.942  1.0849  0.8474 -0.2986
   48CHL1  H12A 3510   0.527   5.395   3.972 -2.7676  0.6916 -3.6574
   48CHL1  H12B 3511   0.670   5.280   3.973  0.3842 -1.9958  1.0085
   48CHL1   C11 3512   0.574   5.308   3.792  0.2086  0.2691 -0.4376
   48CHL1  H11A 3513   0.475   5.356   3.775 -0.5456 -1.3326 -0.6948
   48CHL1  H11B 3514   0.663   5.371   3.770  0.8473 -0.3579  0.2995
   48CHL1    C9 3515   0.585   5.178   3.709 -0.3420 -0.9556 -0.6685
   48CHL1    H9 3516   0.683   5.134   3.735 -0.3992 -0.6188  0.1756
   48CHL1   C10 3517   0.571   5.194   3.551 -0.5805 -0.1714 -0.6560
   48CHL1   C19 3518   0.457   5.295   3.527 -0.7125  0.7289  0.1156
   48CHL1  H19A 3519   0.371   5.250   3.581 -0.7489  0.8040  0.1194
   48CHL1  H19B 3520   0.461   5.394   3.578 -0.4798 -0.0897  1.7818
   48CHL1  H19C 3521   0.436   5.307   3.419 -0.3780 -0.8967 -0.1599
   48CHL1    C1 3522   0.708   5.240   3.492 -0.3288  0.3483 -0.2231
   48CHL1   H1A 3523   0.729   5.344   3.525 -0.8417  0.3495  0.1070
   48CHL1   H1B 3524   0.792   5.174   3.521 -1.0317 -1.1836 -1.5184
   48CHL1    C2 3525   0.716   5.236   3.336  0.4232 -0.2111 -0.3736
   48CHL1   H2A 3526   0.818   5.274   3.315 -0.5818  2.6875 -0.4283
   48CHL1   H2B 3527   0.647   5.317   3.307 -0.6986 -0.0037  2.5686
   48CHL1   C20 3528   0.477   5.189   4.263 -0.0798 -0.3325 -0.1738
   48CHL1   H20 3529   0.366   5.189   4.257 -0.1402  2.5473 -0.9043
   48CHL1   C21 3530   0.519   5.335   4.274  0.0181 -0.0792  0.4766
   48CHL1  H21A 3531   0.630   5.339   4.275  0.0076  0.4270 -0.0502
   48CHL1  H21B 3532   0.491   5.379   4.372  1.3173 -0.1921  0.9124
   48CHL1  H21C 3533   0.473   5.405   4.201 -1.1262 -1.6216 -0.3519
   48CHL1   C22 3534   0.514   5.123   4.392 -1.1402  0.3543  0.3647
   48CHL1  H22A 3535   0.514   5.014   4.375  0.0489  0.3908  0.0286
   48CHL1  H22B 3536   0.619   5.146   4.420 -1.0671 -0.1560  0.5212
   48CHL1   C23 3537   0.411   5.142   4.499  0.4285 -1.2715  0.3888
   48CHL1  H23A 3538   0.388   5.249   4.520  0.6833 -0.9793 -0.7459
   48CHL1  H23B 3539   0.326   5.081   4.462 -1.1889  1.0283  0.0332
   48CHL1   C24 3540   0.447   5.070   4.624 -0.4035  0.1726 -0.3064
   48CHL1  H24A 3541   0.445   4.962   4.597  1.1665  0.2007 -0.6217
   48CHL1  H24B 3542   0.552   5.090   4.654 -0.9932  1.3252  1.0926
   48CHL1   C25 3543   0.345   5.111   4.741  0.3738 -0.1322 -0.5015
   48CHL1   H25 3544   0.363   5.217   4.770 -1.9302 -0.1180  1.1932
   48CHL1   C26 3545   0.198   5.091   4.699 -0.7145 -1.1326  0.1375
   48CHL1  H26A 3546   0.184   4.993   4.650  3.3400 -2.3475  1.0373
   48CHL1  H26B 3547   0.133   5.109   4.788 -0.7401  3.5042 -0.5825
   48CHL1  H26C 3548   0.170   5.175   4.632  0.6094 -1.4860 -0.8925
   48CHL1   C27 3549   0.372   5.032   4.870  0.0615  0.1536  0.2620
   48CHL1  H27A 3550   0.289   5.064   4.937  0.3147 -0.2267  0.7596
   48CHL1  H27B 3551   0.366   4.923   4.851  1.0802 -0.0450  0.9760
   48CHL1  H27C 3552   0.467   5.048   4.926  0.1011 -2.0816  0.9005
   49CHL1    C3 3553   1.063   2.068   3.891 -0.1766 -0.5443  0.0682
   49CHL1    H3 3554   1.134   2.150   3.867 -1.5499  0.0957 -2.1430
   49CHL1    O3 3555   1.004   2.013   3.771 -0.2557  0.3857 -0.1078
   49CHL1   H3' 3556   1.075   1.994   3.709  0.3989  2.6085 -0.1258
   49CHL1    C4 3557   1.153   1.959   3.963  0.3147 -0.2879  0.4388
   49CHL1   H4A 3558   1.085   1.872   3.969 -0.4758  0.1107 -1.7714
   49CHL1   H4B 3559   1.231   1.940   3.886 -1.1080 -0.0847 -1.1005
   49CHL1    C5 3560   1.203   1.997   4.103 -0.5926 -0.5086  0.4538
   49CHL1    C6 3561   1.333   1.991   4.131  0.1964 -0.7357 -0.0807
   49CHL1    H6 3562   1.393   1.953   4.047  1.1796  1.5512 -0.4909
   49CHL1    C7 3563   1.383   2.016   4.269  0.1778  1.1153 -0.2921
   49CHL1   H7A 3564   1.456   1.935   4.291  0.2390  1.4729  0.8749
   49CHL1   H7B 3565   1.426   2.118   4.264  0.4654  1.0185  0.2086
   49CHL1    C8 3566   1.268   2.015   4.377 -1.1066 -0.0713 -0.3070
   49CHL1    H8 3567   1.249   1.906   4.386  3.3153 -1.0801 -0.4977
   49CHL1   C14 3568   1.311   2.074   4.507  0.3974  0.0909 -0.0925
   49CHL1   H14 3569   1.319   2.182   4.486  0.3346  0.4024  1.3751
   49CHL1   C15 3570   1.436   2.013   4.579 -1.2324 -0.0841  0.7420
   49CHL1  H15A 3571   1.421   1.903   4.580  2.5286 -0.7233  2.6841
   49CHL1  H15B 3572   1.535   2.033   4.534 -0.9160 -1.5064  0.7494
   49CHL1   C16 3573   1.421   2.064   4.726 -0.6824  0.4007  0.4249
   49CHL1  H16A 3574   1.448   1.980   4.794  1.4482 -1.3032 -2.2991
   49CHL1  H16B 3575   1.501   2.138   4.748  0.7194 -0.9497  0.0567
   49CHL1   C17 3576   1.282   2.139   4.733  0.1010  0.0950  0.5250
   49CHL1   H17 3577   1.301   2.244   4.704  2.0551 -0.5847 -0.8936
   49CHL1   C13 3578   1.198   2.078   4.617  0.1620 -0.2917  0.2119
   49CHL1   C18 3579   1.148   1.937   4.655 -0.1133  0.1431 -0.0231
   49CHL1  H18A 3580   1.103   1.888   4.567 -0.8748 -0.0192  0.4461
   49CHL1  H18B 3581   1.226   1.878   4.708 -0.3894  1.0030  1.3953
   49CHL1  H18C 3582   1.067   1.957   4.728 -1.4611  0.9133 -1.6754
   49CHL1   C12 3583   1.085   2.180   4.568 -0.7239 -1.0495 -0.3801
   49CHL1  H12A 3584   1.004   2.196   4.642 -0.4407  0.8777 -0.4389
   49CHL1  H12B 3585   1.135   2.279   4.558  1.0273 -1.9321 -0.8563
   49CHL1   C11 3586   1.032   2.125   4.438 -0.2333  0.0363  0.6930
   49CHL1  H11A 3587   0.976   2.034   4.468 -0.4585 -0.7131 -1.7847
   49CHL1  H11B 3588   0.956   2.195   4.396 -1.5062 -1.0939  1.0101
   49CHL1    C9 3589   1.145   2.101   4.328 -0.1526  0.2473 -0.4546
   49CHL1    H9 3590   1.191   2.200   4.308  1.5748 -0.5531 -0.6516
   49CHL1   C10 3591   1.096   2.037   4.201  0.1721 -0.2091  0.1027
   49CHL1   C19 3592   1.015   1.904   4.236 -0.1963 -0.5761  0.1229
   49CHL1  H19A 3593   0.965   1.860   4.147 -1.1610 -0.6147  0.6641
   49CHL1  H19B 3594   1.084   1.834   4.288 -0.7061 -1.4170 -0.3114
   49CHL1  H19C 3595   0.929   1.922   4.304  0.4027  1.3217  0.4424
   49CHL1    C1 3596   1.012   2.148   4.122 -0.4940  0.7433  0.3469
   49CHL1   H1A 3597   0.936   2.196   4.189 -1.1789  3.1717 -1.9742
   49CHL1   H1B 3598   1.077   2.236   4.100 -2.0409  2.0876  0.9000
   49CHL1    C2 3599   0.953   2.107   3.983  0.3075 -0.6195 -0.0014
   49CHL1   H2A 3600   0.884   2.187   3.946  0.5468 -0.6296 -0.4708
   49CHL1   H2B 3601   0.886   2.020   3.997  0.8457 -1.1169 -0.4934
   49CHL1   C20 3602   1.219   2.138   4.870  0.0872 -0.1513 -0.6312
   49CHL1   H20 3603   1.108   2.144   4.861 -0.0856 -0.1507  1.1432
   49CHL1   C21 3604   1.258   2.271   4.939 -0.8146  0.4860 -0.3986
   49CHL1  H21A 3605   1.240   2.359   4.874 -1.2898  1.1046  0.5443
   49CHL1  H21B 3606   1.368   2.262   4.949 -0.5252  4.1045  1.6403
   49CHL1  H21C 3607   1.210   2.286   5.038  0.7943 -0.9214  0.6465
   49CHL1   C22 3608   1.236   2.009   4.959 -0.8009 -0.4916 -0.4475
   49CHL1  H22A 3609   1.220   1.911   4.909  1.3198 -1.4438  0.6460
   49CHL1  H22B 3610   1.342   2.014   4.990 -1.2364 -1.0963  1.2937
   49CHL1   C23 3611   1.157   2.007   5.086 -0.2403  0.1972 -0.1839
   49CHL1  H23A 3612   1.176   2.096   5.150  1.3816 -0.8827  0.8973
   49CHL1  H23B 3613   1.052   2.025   5.052  0.0316  3.5163  0.3846
   49CHL1   C24 3614   1.184   1.888   5.171 -0.7076  0.0851 -0.2135
   49CHL1  H24A 3615   1.171   1.792   5.116 -1.0204  0.2334 -0.4023
   49CHL1  H24B 3616   1.289   1.887   5.207  0.1248 -1.0669 -2.4697
   49CHL1   C25 3617   1.104   1.897   5.304 -0.4790 -0.8428 -0.4130
   49CHL1   H25 3618   1.104   2.003   5.338  0.5883 -0.7774 -0.5716
   49CHL1   C26 3619   0.963   1.846   5.275 -0.3100  0.1390 -0.1411
   49CHL1  H26A 3620   0.927   1.898   5.184 -0.6977  0.7109  0.3315
   49CHL1  H26B 3621   0.989   1.739   5.260 -0.4062  0.3452 -1.9328
   49CHL1  H26C 3622   0.898   1.877   5.360 -1.0128  2.6751 -1.5069
   49CHL1   C27 3623   1.170   1.812   5.409  0.2840  0.7181 -0.6343
   49CHL1  H27A 3624   1.200   1.712   5.372  0.4954 -0.2704  2.0090
   49CHL1  H27B 3625   1.252   1.863   5.464 -0.2054  3.0001 -1.8920
   49CHL1  H27C 3626   1.088   1.794   5.482 -0.2677  2.8430 -0.6597
   50CHL1    C3 3627   6.510   1.834   3.833  0.1873 -1.0788  0.4948
   50CHL1    H3 3628   6.586   1.765   3.877  1.3641  0.0130  0.2326
   50CHL1    O3 3629   6.543   1.854   3.695 -0.0929 -1.0021 -0.3844
   50CHL1   H3' 3630   6.482   1.915   3.654  0.2220  0.1062  0.7250
   50CHL1    C4 3631   6.360   1.793   3.841 -0.5114  0.0384  0.0333
   50CHL1   H4A 3632   6.303   1.870   3.785  0.2405 -1.2281 -2.6728
   50CHL1   H4B 3633   6.354   1.698   3.783  0.0390  0.9402 -1.5717
   50CHL1    C5 3634   6.319   1.777   3.990 -0.5943 -0.4115  0.8644
   50CHL1    C6 3635   6.259   1.664   4.028 -0.1008  0.1524  0.3107
   50CHL1    H6 3636   6.257   1.582   3.954 -0.9487 -1.9710  2.5543
   50CHL1    C7 3637   6.219   1.633   4.169 -0.3075 -0.3824 -0.4417
   50CHL1   H7A 3638   6.118   1.586   4.171 -0.6812  0.4230  0.5445
   50CHL1   H7B 3639   6.289   1.565   4.222 -0.4757 -0.4905 -0.3547
   50CHL1    C8 3640   6.211   1.764   4.257  0.2815  0.5342 -0.6968
   50CHL1    H8 3641   6.124   1.818   4.215 -0.2742  1.1794  1.1824
   50CHL1   C14 3642   6.185   1.731   4.400 -1.1153  0.4900 -0.1337
   50CHL1   H14 3643   6.268   1.671   4.444 -1.7632  0.1763  0.6705
   50CHL1   C15 3644   6.057   1.648   4.440  0.0578 -0.1723 -0.5697
   50CHL1  H15A 3645   5.984   1.691   4.368  2.0572 -1.4250 -3.5295
   50CHL1  H15B 3646   6.068   1.544   4.404  3.4957  0.9542 -3.4070
   50CHL1   C16 3647   6.040   1.671   4.585 -0.2081  0.0894 -0.5074
   50CHL1  H16A 3648   5.932   1.698   4.597 -0.0220  0.1248  1.3621
   50CHL1  H16B 3649   6.051   1.579   4.645 -2.5285  0.3955  0.5190
   50CHL1   C17 3650   6.148   1.776   4.623  0.5523 -0.0956 -0.2586
   50CHL1   H17 3651   6.237   1.717   4.653 -1.1677 -2.2834  0.7311
   50CHL1   C13 3652   6.180   1.851   4.492  0.4100 -0.2625  0.5418
   50CHL1   C18 3653   6.054   1.942   4.456 -0.7751  0.5383 -0.5114
   50CHL1  H18A 3654   6.059   2.023   4.532  0.0568 -2.5817  3.0197
   50CHL1  H18B 3655   6.061   1.968   4.348 -1.6231  1.4637 -0.3625
   50CHL1  H18C 3656   5.953   1.895   4.464  1.0967 -3.9034 -0.5162
   50CHL1   C12 3657   6.314   1.926   4.476  0.1649  0.3948 -0.8992
   50CHL1  H12A 3658   6.336   2.011   4.543  0.8997 -0.4583 -0.0395
   50CHL1  H12B 3659   6.393   1.851   4.496 -0.2622 -0.0216 -0.7435
   50CHL1   C11 3660   6.336   1.974   4.331 -0.3315  0.6604 -0.8798
   50CHL1  H11A 3661   6.276   2.063   4.303 -1.2118  0.9304  1.5977
   50CHL1  H11B 3662   6.432   2.031   4.336 -1.3377  2.3090  1.5857
   50CHL1    C9 3663   6.333   1.859   4.233  0.3373  0.7408  0.8323
   50CHL1    H9 3664   6.414   1.784   4.251  0.8168  0.4571 -2.0011
   50CHL1   C10 3665   6.355   1.898   4.085 -0.1363  0.5073 -0.5290
   50CHL1   C19 3666   6.255   2.008   4.042 -0.3822 -0.4660  0.0835
   50CHL1  H19A 3667   6.150   1.973   4.049 -0.3091 -0.9041 -0.8839
   50CHL1  H19B 3668   6.259   2.093   4.114 -2.0100 -1.3604  1.2952
   50CHL1  H19C 3669   6.271   2.039   3.937  0.7575 -0.2675  0.2970
   50CHL1    C1 3670   6.501   1.949   4.054  0.8704  0.1853 -0.3501
   50CHL1   H1A 3671   6.516   2.050   4.099  1.6253  1.2244 -2.7498
   50CHL1   H1B 3672   6.571   1.878   4.103  1.3974 -1.2754 -3.0215
   50CHL1    C2 3673   6.531   1.963   3.906 -0.2974 -0.9677  0.4044
   50CHL1   H2A 3674   6.638   1.989   3.892 -0.9171  0.8401 -1.6413
   50CHL1   H2B 3675   6.461   2.040   3.864  0.6628 -0.3660 -0.1317
   50CHL1   C20 3676   6.116   1.870   4.740  0.7450  0.0642 -0.0395
   50CHL1   H20 3677   6.164   1.968   4.717 -1.7552  0.8525 -2.4488
   50CHL1   C21 3678   6.177   1.823   4.873 -0.0978 -0.8771 -0.3042
   50CHL1  H21A 3679   6.288   1.831   4.866 -0.2833  1.4094 -1.3542
   50CHL1  H21B 3680   6.155   1.715   4.889  3.7313 -1.7083  0.3583
   50CHL1  H21C 3681   6.147   1.872   4.968 -0.7856  0.1043 -1.0051
   50CHL1   C22 3682   5.965   1.910   4.760  1.0712 -0.4705 -0.1637
   50CHL1  H22A 3683   5.903   1.899   4.669 -1.5450 -1.5259  1.6234
   50CHL1  H22B 3684   5.905   1.842   4.825  0.2114  0.6228  0.2381
   50CHL1   C23 3685   5.945   2.050   4.812  0.4130 -0.5414 -0.7072
   50CHL1  H23A 3686   6.015   2.071   4.896  0.4471  0.3839 -0.9535
   50CHL1  H23B 3687   5.976   2.130   4.742  0.3078  2.4882  2.4541
   50CHL1   C24 3688   5.800   2.085   4.837  0.1301  0.6456 -0.1623
   50CHL1  H24A 3689   5.740   2.055   4.748 -1.2777  0.2342  0.8899
   50CHL1  H24B 3690   5.766   2.022   4.922  0.0868 -0.4134 -0.9503
   50CHL1   C25 3691   5.777   2.236   4.853  0.0169  0.1348  0.0251
   50CHL1   H25 3692   5.837   2.292   4.778  3.2236  0.9916  2.9667
   50CHL1   C26 3693   5.627   2.272   4.851  0.9108 -0.0924  0.6778
   50CHL1  H26A 3694   5.575   2.235   4.942  1.2641  0.1339  0.9775
   50CHL1  H26B 3695   5.634   2.382   4.843  0.3091  0.0188  1.5220
   50CHL1  H26C 3696   5.591   2.228   4.756 -1.6637 -0.2543  1.6668
   50CHL1   C27 3697   5.839   2.288   4.982 -0.1951 -0.0909  0.0984
   50CHL1  H27A 3698   5.815   2.394   5.006  0.1429 -0.1887  0.8827
   50CHL1  H27B 3699   5.812   2.213   5.059 -0.4418 -1.8490 -1.6088
   50CHL1  H27C 3700   5.949   2.281   4.967 -0.3040 -1.2297 -0.2980
   51CHL1    C3 3701   1.872   1.873   3.682  0.2190  0.0135  0.2669
   51CHL1    H3 3702   1.977   1.907   3.676  0.2302 -0.1166 -0.3754
   51CHL1    O3 3703   1.835   1.853   3.552 -0.3376 -0.2722  0.1117
   51CHL1   H3' 3704   1.749   1.811   3.556 -0.0500 -1.4757 -3.2519
   51CHL1    C4 3705   1.864   1.736   3.753  0.2839 -0.2138  0.4393
   51CHL1   H4A 3706   1.760   1.698   3.747 -0.1165  0.5039  2.2860
   51CHL1   H4B 3707   1.933   1.671   3.694 -0.2203 -0.2337 -0.1352
   51CHL1    C5 3708   1.905   1.731   3.900 -0.0718 -0.0254  0.2760
   51CHL1    C6 3709   1.998   1.651   3.950 -0.1981 -0.2961 -0.3449
   51CHL1    H6 3710   2.045   1.575   3.886  0.4720 -0.0688 -0.1277
   51CHL1    C7 3711   2.037   1.654   4.095 -0.5933  1.1291 -0.6598
   51CHL1   H7A 3712   2.030   1.548   4.129  2.0765  1.1147  0.0683
   51CHL1   H7B 3713   2.139   1.691   4.115 -0.6724  0.2458  1.8167
   51CHL1    C8 3714   1.943   1.736   4.189 -0.1225  0.4691 -0.0314
   51CHL1    H8 3715   1.854   1.671   4.201  0.4716 -1.2030 -3.4296
   51CHL1   C14 3716   2.017   1.769   4.318  0.7196 -0.7218  0.5276
   51CHL1   H14 3717   2.093   1.838   4.277 -0.1861 -0.0924 -0.1210
   51CHL1   C15 3718   2.092   1.654   4.396 -0.4059  0.2010  0.1982
   51CHL1  H15A 3719   2.041   1.556   4.386 -0.5250  0.3732 -0.9833
   51CHL1  H15B 3720   2.198   1.642   4.365 -0.0966  1.4487  0.7127
   51CHL1   C16 3721   2.087   1.709   4.540 -0.0431  0.1173  0.0211
   51CHL1  H16A 3722   2.045   1.640   4.615  2.4249 -1.0732  0.3781
   51CHL1  H16B 3723   2.196   1.715   4.559  0.3118 -0.4648 -1.6795
   51CHL1   C17 3724   2.019   1.847   4.536  0.2814 -0.2988  0.4809
   51CHL1   H17 3725   2.105   1.911   4.505 -0.6008  0.6810  0.0192
   51CHL1   C13 3726   1.924   1.849   4.414 -0.1867  0.2090 -0.3869
   51CHL1   C18 3727   1.793   1.765   4.457 -0.2245  0.2201 -0.4880
   51CHL1  H18A 3728   1.824   1.667   4.499  1.8940  0.5431 -1.1686
   51CHL1  H18B 3729   1.732   1.815   4.536  0.0688 -1.2044  0.6820
   51CHL1  H18C 3730   1.728   1.754   4.368  0.1550  2.5127 -1.1142
   51CHL1   C12 3731   1.884   1.982   4.351 -0.8158 -0.2466 -0.7885
   51CHL1  H12A 3732   1.815   2.039   4.416  0.9131  0.5475  0.4138
   51CHL1  H12B 3733   1.968   2.050   4.328 -0.8760 -0.0065 -0.3060
   51CHL1   C11 3734   1.816   1.959   4.215 -0.8028  0.1280  0.4225
   51CHL1  H11A 3735   1.716   1.917   4.238 -0.5278 -0.4895  0.5174
   51CHL1  H11B 3736   1.800   2.060   4.171 -0.4392 -0.2685 -0.6551
   51CHL1    C9 3737   1.899   1.865   4.121  0.3922 -0.1648  0.0396
   51CHL1    H9 3738   1.993   1.921   4.099  0.2227  2.1777  4.3454
   51CHL1   C10 3739   1.831   1.841   3.982 -0.4370 -1.1112 -0.2222
   51CHL1   C19 3740   1.681   1.799   3.990  0.1458  0.1398 -0.5171
   51CHL1  H19A 3741   1.631   1.779   3.893 -1.2385  0.6635  0.0585
   51CHL1  H19B 3742   1.680   1.709   4.056  0.4626  0.7105  0.2879
   51CHL1  H19C 3743   1.627   1.873   4.053  0.8308  0.0909  0.1474
   51CHL1    C1 3744   1.847   1.976   3.902  0.0968  0.4339 -0.3822
   51CHL1   H1A 3745   1.799   2.057   3.960  0.7197  0.0160  0.7557
   51CHL1   H1B 3746   1.954   2.005   3.889  0.8748 -1.7650  0.6642
   51CHL1    C2 3747   1.794   1.973   3.757 -0.0292 -0.3792 -0.1651
   51CHL1   H2A 3748   1.812   2.069   3.705  1.9336 -0.8096 -0.3547
   51CHL1   H2B 3749   1.687   1.942   3.756  0.1131 -0.8786 -0.2155
   51CHL1   C20 3750   1.965   1.914   4.667 -0.8346  0.0897 -0.2929
   51CHL1   H20 3751   1.867   1.867   4.690 -0.5666 -0.4393 -0.2079
   51CHL1   C21 3752   1.950   2.068   4.655 -0.7101  0.1797 -0.0545
   51CHL1  H21A 3753   2.034   2.102   4.591  0.4085 -2.7393 -0.3141
   51CHL1  H21B 3754   1.966   2.117   4.753  0.9171  1.6663 -1.0132
   51CHL1  H21C 3755   1.851   2.087   4.608 -0.0950 -1.3636 -2.1600
   51CHL1   C22 3756   2.052   1.871   4.794 -0.6310 -0.2135 -0.4426
   51CHL1  H22A 3757   2.000   1.912   4.883 -0.2966  0.6108 -0.6157
   51CHL1  H22B 3758   2.048   1.760   4.804  1.3154 -0.3913 -1.2230
   51CHL1   C23 3759   2.191   1.927   4.813  0.8048  0.2548  0.0806
   51CHL1  H23A 3760   2.243   1.944   4.716 -2.9098 -2.8514 -2.7551
   51CHL1  H23B 3761   2.172   2.026   4.861 -0.2292  0.8316 -1.4571
   51CHL1   C24 3762   2.261   1.847   4.919 -0.3861 -0.3391 -0.4494
   51CHL1  H24A 3763   2.204   1.849   5.013  2.1860  2.0907  1.2175
   51CHL1  H24B 3764   2.265   1.743   4.879 -1.4830 -0.3133 -0.6564
   51CHL1   C25 3765   2.405   1.899   4.966 -0.3719 -0.2662  0.1238
   51CHL1   H25 3766   2.479   1.924   4.887 -0.0845 -0.0741  0.4472
   51CHL1   C26 3767   2.390   2.010   5.070  0.3581  0.6311 -0.3633
   51CHL1  H26A 3768   2.490   2.042   5.107 -0.5491  3.6999 -0.2730
   51CHL1  H26B 3769   2.346   2.099   5.020 -2.1262  1.8887  3.5811
   51CHL1  H26C 3770   2.322   1.976   5.151  0.4523  0.2377 -0.4464
   51CHL1   C27 3771   2.471   1.775   5.038  0.0541 -0.0028 -0.9215
   51CHL1  H27A 3772   2.479   1.687   4.970 -0.5298 -1.3485  0.6898
   51CHL1  H27B 3773   2.567   1.805   5.084 -0.8857 -1.2733  2.1413
   51CHL1  H27C 3774   2.411   1.734   5.122  1.6837 -2.3516 -0.7960
   52CHL1    C3 3775   1.011   5.544   3.398 -0.0726  0.2395 -0.4520
   52CHL1    H3 3776   0.967   5.442   3.397  0.7548 -0.1195 -1.3659
   52CHL1    O3 3777   1.009   5.602   3.268  0.1215  0.1236  0.0830
   52CHL1   H3' 3778   1.098   5.630   3.245  0.2845 -0.8251 -0.4645
   52CHL1    C4 3779   0.928   5.630   3.494 -0.3071  0.1940  0.4554
   52CHL1   H4A 3780   0.965   5.733   3.476 -0.2454 -0.2970 -2.7282
   52CHL1   H4B 3781   0.823   5.620   3.458 -0.3263  0.7981  0.3383
   52CHL1    C5 3782   0.944   5.590   3.638 -0.7107 -0.5136  0.5086
   52CHL1    C6 3783   0.839   5.574   3.713  0.2078  1.2141 -0.2582
   52CHL1    H6 3784   0.736   5.576   3.673  0.7256  0.0600 -1.7233
   52CHL1    C7 3785   0.850   5.544   3.862  0.2552 -0.0336  0.2657
   52CHL1   H7A 3786   0.771   5.597   3.919  1.7685 -1.0337  3.5464
   52CHL1   H7B 3787   0.834   5.435   3.881  1.9465 -0.2186  0.7950
   52CHL1    C8 3788   0.986   5.571   3.920 -0.3532 -0.0713 -0.5679
   52CHL1    H8 3789   1.009   5.680   3.915 -0.2712 -0.0801 -0.3697
   52CHL1   C14 3790   0.994   5.517   4.063  0.0532 -0.1026 -0.2011
   52CHL1   H14 3791   0.998   5.406   4.058 -0.8161 -0.2531  1.6109
   52CHL1   C15 3792   0.892   5.553   4.167  0.3894 -0.1372  0.2374
   52CHL1  H15A 3793   0.869   5.660   4.180 -1.8965 -0.2862 -1.8441
   52CHL1  H15B 3794   0.793   5.503   4.162 -0.4033  1.4931 -2.5847
   52CHL1   C16 3795   0.955   5.506   4.296  0.1607 -0.9593 -0.2430
   52CHL1  H16A 3796   0.935   5.569   4.385  0.3534 -1.6706  0.3150
   52CHL1  H16B 3797   0.918   5.406   4.327 -1.7720 -0.5273 -0.9879
   52CHL1   C17 3798   1.109   5.487   4.270  0.2268 -0.3586 -0.2837
   52CHL1   H17 3799   1.131   5.379   4.259  0.9979 -0.0177 -2.3466
   52CHL1   C13 3800   1.131   5.540   4.130 -0.2512 -0.0187 -0.4334
   52CHL1   C18 3801   1.158   5.691   4.137  0.5650  0.4556  0.3265
   52CHL1  H18A 3802   1.079   5.743   4.195 -1.4312  0.7852 -2.5183
   52CHL1  H18B 3803   1.256   5.714   4.185  2.8515 -1.1565 -3.1381
   52CHL1  H18C 3804   1.166   5.739   4.037  0.6997  0.4798  0.3490
   52CHL1   C12 3805   1.239   5.464   4.050  0.1487 -0.6138 -0.1831
   52CHL1  H12A 3806   1.338   5.483   4.097  0.7477 -1.5188 -1.0139
   52CHL1  H12B 3807   1.221   5.354   4.051  0.9010 -0.7745 -1.2407
   52CHL1   C11 3808   1.238   5.499   3.898 -0.7790  0.2439  0.1087
   52CHL1  H11A 3809   1.288   5.597   3.885 -2.3892  0.7957 -2.7340
   52CHL1  H11B 3810   1.292   5.421   3.839 -0.8243 -1.2572  1.9381
   52CHL1    C9 3811   1.097   5.504   3.833  0.2047 -0.7724  0.0038
   52CHL1    H9 3812   1.060   5.400   3.824 -3.6862  0.4869 -0.2583
   52CHL1   C10 3813   1.097   5.572   3.684  0.1722 -0.3000 -0.0721
   52CHL1   C19 3814   1.150   5.714   3.690  0.8645 -0.3348  0.0562
   52CHL1  H19A 3815   1.121   5.773   3.601  0.9176  0.4381  0.5471
   52CHL1  H19B 3816   1.103   5.778   3.767 -2.1134  2.3510 -3.6487
   52CHL1  H19C 3817   1.258   5.708   3.716  0.2626  0.0612  2.8984
   52CHL1    C1 3818   1.169   5.478   3.582  0.6270  0.0571 -0.1919
   52CHL1   H1A 3819   1.277   5.463   3.602  0.6931  0.3688 -0.2965
   52CHL1   H1B 3820   1.116   5.381   3.585 -1.1625  1.0283  0.8386
   52CHL1    C2 3821   1.154   5.528   3.435  0.0338  0.0515  0.3195
   52CHL1   H2A 3822   1.203   5.458   3.364 -0.3174 -1.1791  1.2791
   52CHL1   H2B 3823   1.199   5.630   3.434  1.9107 -0.6958  1.9771
   52CHL1   C20 3824   1.200   5.547   4.385  0.8159  0.5197  0.2318
   52CHL1   H20 3825   1.196   5.657   4.373  0.0656  0.3764 -1.0332
   52CHL1   C21 3826   1.345   5.504   4.362 -0.5303  0.4669  0.9880
   52CHL1  H21A 3827   1.354   5.396   4.335 -2.0115  0.0421  2.0569
   52CHL1  H21B 3828   1.412   5.530   4.446  0.1854  1.5102  0.1151
   52CHL1  H21C 3829   1.391   5.562   4.280 -1.2387 -0.5023 -0.1288
   52CHL1   C22 3830   1.144   5.504   4.531 -1.0630 -0.3365 -0.3260
   52CHL1  H22A 3831   1.043   5.546   4.548  0.2578  2.5584  1.0823
   52CHL1  H22B 3832   1.137   5.393   4.529  0.2542 -0.4368 -2.3591
   52CHL1   C23 3833   1.226   5.557   4.649  1.1607 -0.8726 -0.2338
   52CHL1  H23A 3834   1.328   5.516   4.637  0.8528 -1.8967  0.5203
   52CHL1  H23B 3835   1.224   5.668   4.647 -2.8597 -0.7864 -1.1531
   52CHL1   C24 3836   1.164   5.500   4.786  0.1854 -0.3233  0.4487
   52CHL1  H24A 3837   1.065   5.548   4.794  0.5545  0.6629 -0.5825
   52CHL1  H24B 3838   1.142   5.392   4.768 -0.8220  0.0827 -0.8784
   52CHL1   C25 3839   1.253   5.524   4.901 -0.8969  0.0927 -0.1410
   52CHL1   H25 3840   1.279   5.632   4.895 -0.6548  0.0871  0.7862
   52CHL1   C26 3841   1.187   5.504   5.036  1.0185  0.6081 -0.7713
   52CHL1  H26A 3842   1.090   5.557   5.042 -0.2713 -1.2216 -3.2291
   52CHL1  H26B 3843   1.144   5.401   5.038 -1.0444  1.3428 -2.7310
   52CHL1  H26C 3844   1.245   5.518   5.130  3.3740 -1.7203 -1.7434
   52CHL1   C27 3845   1.383   5.434   4.890  0.3030  0.2855  0.0558
   52CHL1  H27A 3846   1.442   5.456   4.798 -1.6837  0.1413 -1.3253
   52CHL1  H27B 3847   1.454   5.449   4.973  2.0473 -0.3580 -1.2660
   52CHL1  H27C 3848   1.356   5.327   4.876 -0.6928  0.7484 -2.0881
   53CHL1    C3 3849   3.739   2.074   3.458  0.1478  0.0178 -1.5388
   53CHL1    H3 3850   3.634   2.111   3.460  0.6630  1.5743  0.7438
   53CHL1    O3 3851   3.779   2.029   3.328 -0.1810 -0.1951 -0.0816
   53CHL1   H3' 3852   3.742   2.097   3.271  0.2008 -1.5559 -2.0516
   53CHL1    C4 3853   3.836   2.183   3.507 -0.0988 -0.5570  0.4559
   53CHL1   H4A 3854   3.940   2.150   3.488 -0.2160 -0.1304 -1.0314
   53CHL1   H4B 3855   3.826   2.269   3.437  1.3333 -1.2279 -0.6188
   53CHL1    C5 3856   3.808   2.220   3.646 -0.8099  0.4567 -0.1739
   53CHL1    C6 3857   3.751   2.336   3.675 -0.4550 -0.0779 -0.6816
   53CHL1    H6 3858   3.742   2.409   3.593 -1.4686  0.1139 -0.4104
   53CHL1    C7 3859   3.729   2.387   3.816  0.6744  0.6702  0.8566
   53CHL1   H7A 3860   3.772   2.489   3.822 -0.4306  1.1893  0.2616
   53CHL1   H7B 3861   3.620   2.386   3.838  0.5821  0.3581  0.3933
   53CHL1    C8 3862   3.800   2.302   3.927  0.0361  0.2269 -0.8151
   53CHL1    H8 3863   3.906   2.334   3.932 -0.3992  1.6687 -0.4227
   53CHL1   C14 3864   3.744   2.325   4.068  0.2437 -0.0340  0.2457
   53CHL1   H14 3865   3.636   2.304   4.051  0.7154 -1.2032 -1.5650
   53CHL1   C15 3866   3.742   2.476   4.112  0.3901 -0.0909 -0.8204
   53CHL1  H15A 3867   3.832   2.540   4.098  1.0887 -0.9445 -0.3112
   53CHL1  H15B 3868   3.666   2.539   4.061 -0.8189 -1.3641 -0.6369
   53CHL1   C16 3869   3.696   2.467   4.259 -0.6519  0.4401  0.1133
   53CHL1  H16A 3870   3.764   2.532   4.318 -0.8719  1.1776 -0.4306
   53CHL1  H16B 3871   3.592   2.505   4.267 -1.3019 -1.5080  1.4848
   53CHL1   C17 3872   3.720   2.319   4.299  0.5790 -0.1117 -0.0400
   53CHL1   H17 3873   3.620   2.272   4.305  1.1929 -1.6407 -1.0868
   53CHL1   C13 3874   3.798   2.251   4.185  0.4678  0.1555 -0.2576
   53CHL1   C18 3875   3.943   2.290   4.191  1.0209 -0.1901 -0.6888
   53CHL1  H18A 3876   3.964   2.399   4.192  0.5180  0.0866 -4.5343
   53CHL1  H18B 3877   3.989   2.233   4.274 -0.5252 -2.8332 -1.5368
   53CHL1  H18C 3878   4.002   2.249   4.106  2.2767 -2.1269  1.0194
   53CHL1   C12 3879   3.775   2.097   4.161  0.0871  0.3881 -0.1482
   53CHL1  H12A 3880   3.829   2.040   4.239 -1.3793 -0.6840  0.1238
   53CHL1  H12B 3881   3.668   2.073   4.172  0.3178 -2.0395 -2.1870
   53CHL1   C11 3882   3.817   2.059   4.014  0.9436  0.1391  0.5454
   53CHL1  H11A 3883   3.927   2.051   4.010  0.7965 -1.8874 -2.3356
   53CHL1  H11B 3884   3.766   1.963   3.991  2.1194 -0.1602 -0.9701
   53CHL1    C9 3885   3.766   2.154   3.900 -0.6150 -0.1603 -0.6047
   53CHL1    H9 3886   3.656   2.145   3.898 -0.4799 -2.4889  0.0687
   53CHL1   C10 3887   3.814   2.120   3.761 -1.1304  0.1388  0.0638
   53CHL1   C19 3888   3.973   2.087   3.767 -0.3247 -0.0050 -0.2041
   53CHL1  H19A 3889   3.978   1.997   3.832 -1.8907  1.7608  2.5685
   53CHL1  H19B 3890   4.022   2.076   3.668 -1.3238 -1.1143 -0.5891
   53CHL1  H19C 3891   4.020   2.172   3.821 -2.4153 -0.0619  1.8592
   53CHL1    C1 3892   3.724   2.002   3.718  0.4971 -0.1506 -0.0282
   53CHL1   H1A 3893   3.750   1.916   3.783  1.4005  2.2103  2.9410
   53CHL1   H1B 3894   3.618   2.030   3.734 -0.5665 -2.6464 -1.9879
   53CHL1    C2 3895   3.741   1.962   3.565  0.1415 -0.4696 -0.4096
   53CHL1   H2A 3896   3.673   1.880   3.537  0.6051 -0.8723 -0.3750
   53CHL1   H2B 3897   3.838   1.908   3.552  0.0450 -0.8617  0.4168
   53CHL1   C20 3898   3.768   2.308   4.439  0.5851  0.0009 -0.2816
   53CHL1   H20 3899   3.872   2.349   4.441  1.0714 -1.2106  1.4431
   53CHL1   C21 3900   3.796   2.156   4.472 -0.5247 -1.1738  0.2041
   53CHL1  H21A 3901   3.831   2.152   4.577 -1.4128  1.1707  0.6472
   53CHL1  H21B 3902   3.880   2.113   4.413 -0.4914 -0.4396 -0.2895
   53CHL1  H21C 3903   3.696   2.108   4.464 -0.0647 -2.2687  0.7634
   53CHL1   C22 3904   3.688   2.373   4.551  0.6979  0.0024 -0.5455
   53CHL1  H22A 3905   3.632   2.460   4.512 -2.1386 -1.2362  0.5373
   53CHL1  H22B 3906   3.617   2.297   4.590 -0.2834  0.1065 -2.0594
   53CHL1   C23 3907   3.774   2.435   4.665 -0.6583 -0.6087  0.0018
   53CHL1  H23A 3908   3.840   2.352   4.695  0.1387 -0.2994 -0.8459
   53CHL1  H23B 3909   3.846   2.514   4.636 -0.6781  0.2214  2.0464
   53CHL1   C24 3910   3.685   2.475   4.783 -0.5272  0.6067  0.0084
   53CHL1  H24A 3911   3.622   2.564   4.762  2.8236  3.0019 -0.6294
   53CHL1  H24B 3912   3.626   2.382   4.802 -0.8113  0.4333 -1.5922
   53CHL1   C25 3913   3.756   2.493   4.919 -0.0182  0.1876  0.8419
   53CHL1   H25 3914   3.824   2.407   4.936 -2.1656 -1.8304 -0.2848
   53CHL1   C26 3915   3.848   2.618   4.921  0.2368  0.3175 -0.5052
   53CHL1  H26A 3916   3.778   2.701   4.943 -1.4397 -1.2242  0.2170
   53CHL1  H26B 3917   3.929   2.608   4.996  1.9583  3.0033 -1.8543
   53CHL1  H26C 3918   3.896   2.636   4.823 -0.1795  0.2484 -0.7224
   53CHL1   C27 3919   3.659   2.497   5.044 -0.3251  0.6770  0.6344
   53CHL1  H27A 3920   3.582   2.576   5.035  0.3179  1.7108  3.3634
   53CHL1  H27B 3921   3.615   2.396   5.055  2.9769 -1.1646 -1.2608
   53CHL1  H27C 3922   3.718   2.521   5.134  1.5664 -0.7462 -0.1337
   54CHL1    C3 3923   2.319   1.703   3.568  0.0980  0.3994  0.4674
   54CHL1    H3 3924   2.209   1.711   3.576 -0.2261 -1.2993 -1.5182
   54CHL1    O3 3925   2.347   1.647   3.444  0.2024  0.5836 -0.7663
   54CHL1   H3' 3926   2.412   1.697   3.395  1.2288  1.9983  1.8625
   54CHL1    C4 3927   2.375   1.850   3.580 -0.0872 -0.0660  0.6426
   54CHL1   H4A 3928   2.481   1.846   3.549 -0.6116 -2.3179 -1.1647
   54CHL1   H4B 3929   2.323   1.917   3.508  0.6464  2.2916  2.1659
   54CHL1    C5 3930   2.370   1.909   3.716  0.0933 -0.3300  0.2626
   54CHL1    C6 3931   2.314   2.028   3.738  0.1501  0.4461 -0.9077
   54CHL1    H6 3932   2.268   2.091   3.659  0.2019 -0.6348 -1.8337
   54CHL1    C7 3933   2.300   2.078   3.880  0.1288  0.3237  0.1884
   54CHL1   H7A 3934   2.314   2.188   3.875  0.4512  0.2448 -0.9511
   54CHL1   H7B 3935   2.198   2.057   3.917  1.0574 -0.3071  2.5535
   54CHL1    C8 3936   2.405   2.014   3.987 -0.2458 -0.0390 -0.2440
   54CHL1    H8 3937   2.504   2.051   3.957 -0.7868  0.9723 -0.8247
   54CHL1   C14 3938   2.389   2.056   4.130  0.3928  0.8216 -0.4424
   54CHL1   H14 3939   2.284   2.026   4.153  1.1039 -0.7760  0.9852
   54CHL1   C15 3940   2.393   2.204   4.154 -0.6896 -0.0459  0.7450
   54CHL1  H15A 3941   2.480   2.258   4.110 -1.3021  0.0226 -0.4038
   54CHL1  H15B 3942   2.302   2.250   4.111 -0.7766  0.7147  1.6934
   54CHL1   C16 3943   2.411   2.218   4.304  0.0432  0.4788 -0.0971
   54CHL1  H16A 3944   2.493   2.286   4.335 -0.8470  1.6623 -0.3105
   54CHL1  H16B 3945   2.321   2.261   4.353  0.5256  0.7164  0.6016
   54CHL1   C17 3946   2.439   2.072   4.356 -0.6291  0.6965 -0.2170
   54CHL1   H17 3947   2.341   2.033   4.390 -1.3209  1.8181 -0.8732
   54CHL1   C13 3948   2.477   1.988   4.232 -0.2157 -0.6049 -0.4042
   54CHL1   C18 3949   2.626   2.026   4.202 -0.5345 -0.0781 -0.5107
   54CHL1  H18A 3950   2.643   2.135   4.193 -0.4751 -0.0354  0.0955
   54CHL1  H18B 3951   2.703   1.986   4.271 -0.0335  2.2500  0.3804
   54CHL1  H18C 3952   2.645   1.983   4.101  0.0433  1.6152 -1.1530
   54CHL1   C12 3953   2.438   1.830   4.233 -0.8603 -0.9023  0.0254
   54CHL1  H12A 3954   2.492   1.766   4.305 -1.3042 -2.0812 -0.6522
   54CHL1  H12B 3955   2.329   1.820   4.252 -1.1012 -1.2047 -1.4061
   54CHL1   C11 3956   2.464   1.784   4.088 -0.6754 -0.0368 -0.6873
   54CHL1  H11A 3957   2.574   1.784   4.077 -0.5050 -2.3032  0.4708
   54CHL1  H11B 3958   2.420   1.681   4.084 -2.2055  0.4501  1.6161
   54CHL1    C9 3959   2.401   1.863   3.973 -0.6096  0.1060 -0.4327
   54CHL1    H9 3960   2.292   1.851   3.988 -0.6117  1.3313  0.7113
   54CHL1   C10 3961   2.420   1.810   3.827 -0.0499  0.4000  0.0488
   54CHL1   C19 3962   2.574   1.798   3.811  0.4019 -0.3824 -0.0674
   54CHL1  H19A 3963   2.618   1.716   3.872  2.1830  0.8680  0.3884
   54CHL1  H19B 3964   2.602   1.760   3.710  2.6032 -0.8695  0.6618
   54CHL1  H19C 3965   2.628   1.894   3.823 -1.2951  0.6605 -0.4122
   54CHL1    C1 3966   2.361   1.667   3.810 -0.3553 -0.0500 -0.1050
   54CHL1   H1A 3967   2.397   1.587   3.878  0.1492 -0.0084 -0.3133
   54CHL1   H1B 3968   2.254   1.674   3.838 -0.9601 -1.7018 -1.7851
   54CHL1    C2 3969   2.382   1.609   3.665  0.3641 -0.4829  0.2767
   54CHL1   H2A 3970   2.336   1.508   3.669 -0.8769  0.0322 -0.5652
   54CHL1   H2B 3971   2.492   1.594   3.652  0.6192 -0.6532  2.1999
   54CHL1   C20 3972   2.534   2.065   4.475 -0.2891 -0.1560  0.1497
   54CHL1   H20 3973   2.634   2.105   4.446 -0.7362  0.9837  0.1598
   54CHL1   C21 3974   2.555   1.926   4.529 -0.5927  0.1697 -1.1439
   54CHL1  H21A 3975   2.460   1.871   4.550 -0.5254  0.7580  0.8755
   54CHL1  H21B 3976   2.612   1.935   4.624 -2.4255  0.4769 -0.0081
   54CHL1  H21C 3977   2.626   1.871   4.464  1.9572  0.3415  1.3391
   54CHL1   C22 3978   2.496   2.165   4.589  0.4703  0.1477 -0.3746
   54CHL1  H22A 3979   2.462   2.262   4.547  0.7199  0.7873  0.8500
   54CHL1  H22B 3980   2.413   2.130   4.654  0.6230 -0.3371 -0.4395
   54CHL1   C23 3981   2.606   2.204   4.682  0.1572 -0.5070 -0.7537
   54CHL1  H23A 3982   2.620   2.127   4.761  0.0778 -0.6317 -0.8596
   54CHL1  H23B 3983   2.702   2.204   4.626  1.6370  1.3641  1.6004
   54CHL1   C24 3984   2.590   2.334   4.768 -0.3808 -0.2803  0.2370
   54CHL1  H24A 3985   2.586   2.422   4.700  1.2030  0.5289  1.1388
   54CHL1  H24B 3986   2.491   2.331   4.817 -0.0329 -0.7496  0.9195
   54CHL1   C25 3987   2.705   2.349   4.869  0.3088  0.2606  0.0661
   54CHL1   H25 3988   2.792   2.305   4.817 -0.4878  1.7324 -2.7228
   54CHL1   C26 3989   2.731   2.495   4.898 -0.2479 -0.0084 -1.1657
   54CHL1  H26A 3990   2.749   2.547   4.802  0.6158  0.4041 -0.7846
   54CHL1  H26B 3991   2.652   2.536   4.964  0.3514  1.1599 -1.1467
   54CHL1  H26C 3992   2.821   2.498   4.962 -2.5745 -1.3598  2.4943
   54CHL1   C27 3993   2.665   2.262   4.998 -0.7187 -0.3359 -0.2766
   54CHL1  H27A 3994   2.634   2.157   4.975  1.8650 -1.0642 -0.7072
   54CHL1  H27B 3995   2.754   2.261   5.064 -1.2374 -1.2830  0.4470
   54CHL1  H27C 3996   2.587   2.320   5.052  0.4589  1.0698 -0.0191
   55CHL1    C3 3997   0.350   3.676   3.212  0.2323 -0.6371 -0.7418
   55CHL1    H3 3998   0.313   3.573   3.230 -1.1506 -0.1133 -0.4201
   55CHL1    O3 3999   0.311   3.701   3.077 -0.2673  0.1763  0.5260
   55CHL1   H3' 4000   0.309   3.794   3.054  1.9757 -0.3946 -2.6386
   55CHL1    C4 4001   0.285   3.777   3.303  0.0748 -0.9062  0.1856
   55CHL1   H4A 4002   0.331   3.873   3.272 -0.4970 -0.8785 -0.5938
   55CHL1   H4B 4003   0.175   3.788   3.292  0.1294 -0.6592 -0.1275
   55CHL1    C5 4004   0.314   3.740   3.451  0.2837 -0.0898 -0.3666
   55CHL1    C6 4005   0.212   3.726   3.537  0.5997 -0.5566 -0.9080
   55CHL1    H6 4006   0.111   3.723   3.495 -1.0159  3.4268  1.9642
   55CHL1    C7 4007   0.229   3.693   3.684  0.1972 -0.2117 -0.2531
   55CHL1   H7A 4008   0.156   3.756   3.739 -1.7496 -2.4305 -0.1192
   55CHL1   H7B 4009   0.208   3.585   3.703 -1.0958  0.1803  0.6540
   55CHL1    C8 4010   0.374   3.736   3.733  0.2751  0.5171  0.6828
   55CHL1    H8 4011   0.376   3.846   3.748 -0.0093  0.2184  3.4316
   55CHL1   C14 4012   0.413   3.670   3.864  0.0749 -0.0235 -0.0483
   55CHL1   H14 4013   0.434   3.562   3.853  0.8120  0.1366 -0.2470
   55CHL1   C15 4014   0.300   3.667   3.970  0.9433  0.8063  0.0986
   55CHL1  H15A 4015   0.242   3.761   3.962  0.8856  0.7851  0.2608
   55CHL1  H15B 4016   0.231   3.581   3.962  2.4477 -0.3127 -1.9699
   55CHL1   C16 4017   0.372   3.656   4.098  0.9872  0.4389  0.1740
   55CHL1  H16A 4018   0.367   3.745   4.165  1.4793  0.0425  0.7515
   55CHL1  H16B 4019   0.352   3.559   4.148 -0.0002  0.2964 -0.4872
   55CHL1   C17 4020   0.522   3.653   4.061 -0.1258 -0.2354  0.3637
   55CHL1   H17 4021   0.545   3.546   4.038 -0.4241 -0.6364  1.8306
   55CHL1   C13 4022   0.538   3.727   3.929  0.1592 -0.0441  0.2222
   55CHL1   C18 4023   0.526   3.871   3.952  0.6034 -0.5921  0.1278
   55CHL1  H18A 4024   0.538   3.932   3.860  0.7811 -1.2074 -0.2640
   55CHL1  H18B 4025   0.429   3.889   4.004  1.5157 -0.4134  1.8544
   55CHL1  H18C 4026   0.601   3.919   4.019  2.1459  1.9436 -3.1025
   55CHL1   C12 4027   0.648   3.680   3.834  0.3146  0.2505  0.0223
   55CHL1  H12A 4028   0.746   3.725   3.857  1.1639 -1.1458 -0.7167
   55CHL1  H12B 4029   0.659   3.569   3.826 -0.1266  0.2433 -0.6203
   55CHL1   C11 4030   0.626   3.729   3.693  0.4868 -0.1827  0.5662
   55CHL1  H11A 4031   0.623   3.840   3.700  0.6117 -0.1207 -0.2175
   55CHL1  H11B 4032   0.709   3.700   3.625 -1.3135  0.2090 -1.9638
   55CHL1    C9 4033   0.490   3.693   3.632 -0.3862  0.0383  0.7208
   55CHL1    H9 4034   0.482   3.583   3.625  1.2736 -0.0314 -1.1008
   55CHL1   C10 4035   0.468   3.737   3.481  0.1333  0.4649  0.0654
   55CHL1   C19 4036   0.520   3.884   3.470 -0.4765 -0.3563 -0.4995
   55CHL1  H19A 4037   0.627   3.884   3.502 -0.2277 -1.5566 -1.2766
   55CHL1  H19B 4038   0.498   3.926   3.369 -0.6823 -0.2667 -0.4172
   55CHL1  H19C 4039   0.475   3.952   3.546  1.3332  0.1821  0.1613
   55CHL1    C1 4040   0.542   3.641   3.375 -0.1010 -0.3052 -0.3953
   55CHL1   H1A 4041   0.651   3.651   3.390 -0.0067 -0.4649 -0.9512
   55CHL1   H1B 4042   0.526   3.533   3.395  2.7312 -0.4863  1.2870
   55CHL1    C2 4043   0.500   3.680   3.230  0.9264  1.1996 -0.1385
   55CHL1   H2A 4044   0.540   3.609   3.154 -0.5357  0.5499 -0.3286
   55CHL1   H2B 4045   0.531   3.785   3.214  0.7228  1.2509 -0.1922
   55CHL1   C20 4046   0.616   3.694   4.176 -0.7244 -0.3711 -0.6028
   55CHL1   H20 4047   0.604   3.802   4.199  1.7201  0.1125 -1.2745
   55CHL1   C21 4048   0.763   3.674   4.125  0.4150  0.4660 -0.9154
   55CHL1  H21A 4049   0.793   3.751   4.051 -1.5461  0.3765 -1.8565
   55CHL1  H21B 4050   0.775   3.567   4.097  2.1996  0.2201  0.5656
   55CHL1  H21C 4051   0.831   3.686   4.212  0.1840 -1.0137 -0.5131
   55CHL1   C22 4052   0.599   3.624   4.316  0.7668  0.6171 -0.2966
   55CHL1  H22A 4053   0.683   3.653   4.382  1.7322 -2.2574 -0.1131
   55CHL1  H22B 4054   0.500   3.654   4.357 -1.3995 -1.8213 -3.3313
   55CHL1   C23 4055   0.594   3.469   4.312  0.6173  0.5348 -0.1444
   55CHL1  H23A 4056   0.512   3.428   4.249  0.8111 -2.2931  1.2729
   55CHL1  H23B 4057   0.689   3.440   4.263  0.1907 -0.2973 -0.4972
   55CHL1   C24 4058   0.594   3.401   4.449 -0.0455  0.0085 -0.0137
   55CHL1  H24A 4059   0.685   3.434   4.503 -0.6587 -1.0792  1.7707
   55CHL1  H24B 4060   0.503   3.442   4.498  0.3858  1.5808 -0.4729
   55CHL1   C25 4061   0.577   3.252   4.441 -0.9005 -0.8735  0.3463
   55CHL1   H25 4062   0.495   3.238   4.368  1.5704 -2.0562 -2.4190
   55CHL1   C26 4063   0.700   3.179   4.386  0.2386 -0.6907  0.0010
   55CHL1  H26A 4064   0.798   3.205   4.432  0.4445  1.5645 -1.5293
   55CHL1  H26B 4065   0.685   3.069   4.391  4.5809 -1.4125  1.9546
   55CHL1  H26C 4066   0.711   3.217   4.282  0.3989  0.8281  0.5515
   55CHL1   C27 4067   0.544   3.198   4.580  1.0198  0.0808 -0.0219
   55CHL1  H27A 4068   0.637   3.183   4.639  1.4629 -0.4146 -0.8271
   55CHL1  H27B 4069   0.465   3.260   4.627  1.1359  0.2745 -0.0805
   55CHL1  H27C 4070   0.501   3.097   4.562  0.6044  0.5312 -1.8135
   56CHL1    C3 4071   0.578   2.679   3.242  0.5104  0.2178 -0.4743
   56CHL1    H3 4072   0.637   2.586   3.254  2.7684  1.7538  1.2339
   56CHL1    O3 4073   0.565   2.683   3.104 -0.5770 -0.0233  0.0724
   56CHL1   H3' 4074   0.515   2.762   3.083 -1.4982 -1.1757 -2.4311
   56CHL1    C4 4075   0.441   2.647   3.306  0.0393 -0.2385  0.3452
   56CHL1   H4A 4076   0.386   2.742   3.289 -0.5786 -0.7149 -0.3794
   56CHL1   H4B 4077   0.376   2.574   3.253 -1.8214  0.5403  1.4412
   56CHL1    C5 4078   0.455   2.636   3.458  0.0695  0.7728  0.1883
   56CHL1    C6 4079   0.410   2.531   3.518  0.7816  0.3073 -0.1078
   56CHL1    H6 4080   0.374   2.449   3.454  1.2459 -0.9268  1.1613
   56CHL1    C7 4081   0.398   2.522   3.667  0.3885  0.4315  0.2679
   56CHL1   H7A 4082   0.298   2.499   3.708 -0.0307  0.7727 -0.5342
   56CHL1   H7B 4083   0.457   2.433   3.698 -0.1326  0.1985  0.5990
   56CHL1    C8 4084   0.450   2.652   3.738 -0.6491  0.8298 -0.1464
   56CHL1    H8 4085   0.372   2.731   3.749 -1.0410  0.1761  2.3815
   56CHL1   C14 4086   0.489   2.616   3.885 -0.3341  0.1669  0.2430
   56CHL1   H14 4087   0.573   2.544   3.871 -1.3123 -1.1331  0.9141
   56CHL1   C15 4088   0.379   2.553   3.975  0.4322 -0.0530 -0.0583
   56CHL1  H15A 4089   0.272   2.573   3.953  0.7661  1.3959 -0.4913
   56CHL1  H15B 4090   0.392   2.444   3.956 -2.0577 -0.4063 -0.0666
   56CHL1   C16 4091   0.426   2.582   4.122 -0.5325  0.5236  0.2706
   56CHL1  H16A 4092   0.341   2.639   4.166 -3.2586 -1.4322 -2.0190
   56CHL1  H16B 4093   0.434   2.496   4.191 -3.3472 -0.9374 -1.0222
   56CHL1   C17 4094   0.558   2.666   4.113 -0.1085 -0.6038  0.2044
   56CHL1   H17 4095   0.648   2.601   4.108 -1.0393 -1.9314  0.2792
   56CHL1   C13 4096   0.542   2.731   3.968  0.3272  0.0120 -0.1630
   56CHL1   C18 4097   0.433   2.836   3.973  0.0095  0.3324 -0.3099
   56CHL1  H18A 4098   0.466   2.911   4.049 -0.6892  1.4565 -1.0913
   56CHL1  H18B 4099   0.420   2.898   3.881  0.4315  0.8456 -0.0290
   56CHL1  H18C 4100   0.336   2.794   4.008  0.0853  0.5819  0.2193
   56CHL1   C12 4101   0.670   2.782   3.901 -0.0106 -0.2648  0.0654
   56CHL1  H12A 4102   0.710   2.877   3.941  0.1685  1.1332 -3.1320
   56CHL1  H12B 4103   0.754   2.708   3.905  0.8197  0.6617  0.2409
   56CHL1   C11 4104   0.637   2.823   3.753 -1.4656 -0.5224 -0.0820
   56CHL1  H11A 4105   0.574   2.915   3.760 -0.8386 -0.2014  2.2413
   56CHL1  H11B 4106   0.727   2.858   3.698  0.2459 -2.7449  1.1185
   56CHL1    C9 4107   0.574   2.708   3.669  0.9512  0.3974 -0.3684
   56CHL1    H9 4108   0.644   2.623   3.657 -0.1141 -0.6324  0.4807
   56CHL1   C10 4109   0.531   2.748   3.524  0.4902 -0.9247 -0.4962
   56CHL1   C19 4110   0.438   2.874   3.531  0.5606 -0.0609  0.1175
   56CHL1  H19A 4111   0.496   2.961   3.569 -0.7071  0.8629  0.0211
   56CHL1  H19B 4112   0.394   2.912   3.437 -2.4549  2.3389  2.2962
   56CHL1  H19C 4113   0.353   2.858   3.601 -0.1941  1.4774 -0.4115
   56CHL1    C1 4114   0.655   2.790   3.447 -1.3070 -0.6682  0.1046
   56CHL1   H1A 4115   0.711   2.873   3.495 -1.8409 -1.7322  2.7497
   56CHL1   H1B 4116   0.724   2.704   3.456  0.0862  0.6006  2.5845
   56CHL1    C2 4117   0.644   2.809   3.292 -0.0802  0.5661 -0.4488
   56CHL1   H2A 4118   0.747   2.819   3.251  0.1996  0.1006  0.1367
   56CHL1   H2B 4119   0.572   2.893   3.276 -1.2333  0.1489  2.0981
   56CHL1   C20 4120   0.571   2.763   4.233 -0.1429  0.1745  0.5673
   56CHL1   H20 4121   0.475   2.817   4.243 -1.3007 -2.0529  2.6719
   56CHL1   C21 4122   0.693   2.853   4.217  0.1084 -0.0631  0.0476
   56CHL1  H21A 4123   0.722   2.902   4.312  2.1693 -2.3743  0.7408
   56CHL1  H21B 4124   0.679   2.938   4.147 -2.6106  0.7935  1.4913
   56CHL1  H21C 4125   0.783   2.791   4.193 -0.4050 -1.3692  1.3449
   56CHL1   C22 4126   0.574   2.686   4.372  0.6518 -0.5243  0.5669
   56CHL1  H22A 4127   0.524   2.587   4.363 -0.6755  0.2145 -0.5353
   56CHL1  H22B 4128   0.680   2.676   4.405  1.2700 -1.3211 -1.5008
   56CHL1   C23 4129   0.491   2.755   4.481 -0.8433 -0.2611  0.0438
   56CHL1  H23A 4130   0.556   2.829   4.532 -1.8899  1.8729 -1.5792
   56CHL1  H23B 4131   0.389   2.793   4.459 -0.8405  0.6849  1.5436
   56CHL1   C24 4132   0.471   2.651   4.591  0.8336 -0.6247 -0.7787
   56CHL1  H24A 4133   0.366   2.616   4.581  0.3518  0.5626 -0.0446
   56CHL1  H24B 4134   0.535   2.560   4.588 -0.2475 -1.5342  1.1412
   56CHL1   C25 4135   0.493   2.711   4.731  0.7353 -0.1173  0.5313
   56CHL1   H25 4136   0.599   2.742   4.716  0.6577 -0.0420  0.1103
   56CHL1   C26 4137   0.415   2.842   4.760 -0.2344 -0.4447 -0.4713
   56CHL1  H26A 4138   0.465   2.896   4.843  0.4434 -0.6241 -0.7475
   56CHL1  H26B 4139   0.397   2.912   4.675  0.3251 -0.4758 -0.6247
   56CHL1  H26C 4140   0.310   2.815   4.783  0.3895 -1.7010  1.0849
   56CHL1   C27 4141   0.478   2.617   4.840  0.0312  0.4179  0.2001
   56CHL1  H27A 4142   0.542   2.530   4.814 -0.1403  1.0530 -2.8196
   56CHL1  H27B 4143   0.503   2.664   4.937 -0.2271 -0.6218  0.7816
   56CHL1  H27C 4144   0.372   2.584   4.844 -0.3413  1.6538  1.8040
   57SAPC     N 4145   0.936   1.419   8.122  0.0203  0.6942  0.2063
   57SAPC   C12 4146   0.920   1.333   7.998  0.5984  0.1502  0.2973
   57SAPC  H12A 4147   0.841   1.262   8.017  0.0623  1.1631  2.0801
   57SAPC  H12B 4148   1.015   1.283   7.990  1.6947  1.1054  4.5541
   57SAPC   C13 4149   0.801   1.481   8.158 -0.0551 -0.5752 -0.2758
   57SAPC  H13A 4150   0.738   1.405   8.201 -0.5711 -0.8737 -1.5130
   57SAPC  H13B 4151   0.812   1.563   8.228 -2.2044  0.1348 -0.6853
   57SAPC  H13C 4152   0.772   1.531   8.066 -0.2698  1.3119  0.7766
   57SAPC   C14 4153   0.992   1.340   8.231  0.8353  0.2516  0.1814
   57SAPC  H14A 4154   0.985   1.396   8.323 -1.3109  0.2152  0.0988
   57SAPC  H14B 4155   0.918   1.261   8.228  1.1488 -0.0729 -3.2497
   57SAPC  H14C 4156   1.088   1.291   8.221  0.3689 -1.1962  2.1678
   57SAPC   C15 4157   1.034   1.526   8.086  0.3012 -0.0835 -0.2369
   57SAPC  H15A 4158   1.131   1.490   8.058  0.2638  0.2995 -0.8737
   57SAPC  H15B 4159   0.991   1.576   8.000 -0.0725 -0.5420 -0.3224
   57SAPC  H15C 4160   1.042   1.600   8.165  1.3693  1.0665 -1.3835
   57SAPC   C11 4161   0.888   1.400   7.867 -0.2873  0.0571  0.1078
   57SAPC  H11A 4162   0.891   1.332   7.779 -2.1870 -0.4540  0.3863
   57SAPC  H11B 4163   0.962   1.479   7.846  2.5980 -2.8018 -1.3159
   57SAPC     P 4164   0.633   1.397   7.828  0.5346 -0.0106 -0.6132
   57SAPC   O13 4165   0.627   1.253   7.872 -0.4222 -0.4403  0.1455
   57SAPC   O14 4166   0.528   1.490   7.878 -0.4469  0.3017  0.4267
   57SAPC   O12 4167   0.765   1.466   7.874  0.4447 -0.0859 -0.3099
   57SAPC   O11 4168   0.634   1.409   7.672 -0.1356 -0.1609 -0.0207
   57SAPC    C1 4169   0.719   1.508   7.603  0.6775  0.3966 -0.7135
   57SAPC    HA 4170   0.730   1.603   7.659  0.3003  0.0586 -0.0600
   57SAPC    HB 4171   0.820   1.467   7.581 -0.4776 -3.7769  0.7612
   57SAPC    C2 4172   0.652   1.531   7.464 -0.3233 -0.1951 -0.7097
   57SAPC    HS 4173   0.545   1.548   7.492  0.1409  0.3789  0.8061
   57SAPC   O21 4174   0.653   1.406   7.391  0.2438 -0.3683 -0.1882
   57SAPC   C21 4175   0.570   1.403   7.286  0.2959  0.0066 -0.9003
   57SAPC   O22 4176   0.483   1.490   7.260 -0.1147  0.3702 -0.9265
   57SAPC   C22 4177   0.582   1.275   7.221  0.1223  0.5630  1.1086
   57SAPC   H2R 4178   0.675   1.220   7.249 -0.1703 -0.5264  0.0346
   57SAPC   H2S 4179   0.490   1.215   7.236  0.4324 -0.0551  0.5861
   57SAPC    C3 4180   0.713   1.650   7.384 -0.2281 -0.5916  0.4927
   57SAPC    HX 4181   0.717   1.738   7.452  1.3359 -0.9127  0.8608
   57SAPC    HY 4182   0.654   1.680   7.295  0.8882  1.4399  0.3682
   57SAPC   O31 4183   0.854   1.621   7.349 -0.1648 -0.1995  0.3603
   57SAPC   C31 4184   0.877   1.569   7.228  0.6614  0.0311  0.5163
   57SAPC   O32 4185   0.798   1.556   7.137 -0.2131  0.2148 -0.0220
   57SAPC   C32 4186   1.016   1.529   7.219 -0.4325 -0.4170  0.0580
   57SAPC   H2X 4187   1.028   1.433   7.163  1.4769  0.3219 -0.8949
   57SAPC   H2Y 4188   1.072   1.515   7.314  0.8492 -1.4736 -0.8108
   57SAPC   C23 4189   0.580   1.296   7.069 -0.5668 -0.4317  0.0371
   57SAPC   H3R 4190   0.666   1.362   7.044  0.2195 -0.0434  3.3138
   57SAPC   H3S 4191   0.490   1.353   7.037  1.4227  2.3750 -1.0386
   57SAPC   C24 4192   0.606   1.165   6.989 -0.4832  0.1052 -0.5123
   57SAPC   H4R 4193   0.514   1.106   7.006 -0.8368  0.5845 -0.7479
   57SAPC   H4S 4194   0.690   1.109   7.035 -0.0540  0.7186 -0.5289
   57SAPC   C25 4195   0.622   1.186   6.841  0.5904 -0.2543  0.2775
   57SAPC   H5R 4196   0.530   1.192   6.780 -0.6008  0.5995  2.0854
   57SAPC   C26 4197   0.736   1.199   6.771  0.2826 -0.0614  0.2087
   57SAPC   H6R 4198   0.730   1.224   6.665  0.2967  4.1029  1.0271
   57SAPC   C27 4199   0.879   1.192   6.821 -0.4963  0.6733 -0.0854
   57SAPC   H7R 4200   0.892   1.276   6.892  0.4369  0.3595  0.1227
   57SAPC   H7S 4201   0.957   1.188   6.742  0.8180  0.1096  1.1906
   57SAPC   C28 4202   0.920   1.067   6.900 -0.1861 -0.0183 -0.5113
   57SAPC   H8R 4203   0.926   1.086   7.008 -0.0630  1.3771 -0.7430
   57SAPC   C29 4204   0.955   0.944   6.853 -0.7927  0.2036  0.8276
   57SAPC   H9R 4205   0.989   0.868   6.924  2.4570 -1.1097 -1.8187
   57SAPC  C210 4206   0.972   0.907   6.707  0.6168  0.1027  0.7172
   57SAPC  H10R 4207   1.020   0.807   6.697 -0.5369 -0.4181 -0.0060
   57SAPC  H10S 4208   1.039   0.981   6.659  0.5722 -0.4323 -0.1955
   57SAPC  C211 4209   0.830   0.897   6.643  0.5925 -0.1196 -0.2444
   57SAPC  H11R 4210   0.742   0.876   6.706  0.1565  0.9848 -0.4670
   57SAPC  C212 4211   0.797   0.925   6.516  0.5930  0.2903 -0.1746
   57SAPC  H12R 4212   0.691   0.920   6.486  0.1468 -0.8180  1.4555
   57SAPC  C213 4213   0.885   0.978   6.407 -0.2236  0.1275  0.5066
   57SAPC  H13R 4214   0.908   0.908   6.324  1.7969  3.3088 -1.8514
   57SAPC  H13S 4215   0.993   0.973   6.432  0.5705 -1.6965 -2.7829
   57SAPC  C214 4216   0.840   1.119   6.363  0.3482  0.4595 -0.0685
   57SAPC  H14R 4217   0.885   1.197   6.426  0.2938 -0.0699  0.6344
   57SAPC  C215 4218   0.760   1.147   6.257  0.3563  0.0183 -0.1426
   57SAPC  H15R 4219   0.726   1.251   6.244  0.1161  0.1447  1.2999
   57SAPC  C216 4220   0.695   1.045   6.158  0.3586  0.1993 -0.2520
   57SAPC  H16R 4221   0.585   1.059   6.168  0.6585  1.6571  1.3443
   57SAPC  H16S 4222   0.719   0.939   6.181  0.7530 -0.2027 -2.2870
   57SAPC  C217 4223   0.734   1.076   6.011  0.1622  0.4941  0.1500
   57SAPC  H17R 4224   0.842   1.055   5.993 -0.2679 -1.4424 -0.3775
   57SAPC  H17S 4225   0.720   1.185   5.994 -0.1840  0.6300  1.2287
   57SAPC  C218 4226   0.665   0.997   5.906  0.2348 -0.3059 -0.3063
   57SAPC  H18R 4227   0.555   0.996   5.924  0.4449 -0.5822  1.0932
   57SAPC  H18S 4228   0.691   0.889   5.904 -0.0749 -0.4412  1.4363
   57SAPC  C219 4229   0.677   1.063   5.770  0.9822 -0.0133 -0.2897
   57SAPC  H19R 4230   0.775   1.028   5.731  0.8077 -0.6713 -0.1424
   57SAPC  H19S 4231   0.683   1.174   5.782 -0.9345  0.0987 -0.1551
   57SAPC  C220 4232   0.570   1.031   5.675 -0.7701  0.4216  0.3690
   57SAPC  H20R 4233   0.470   1.050   5.718 -1.4186 -1.0595 -0.4335
   57SAPC  H20S 4234   0.559   0.922   5.661 -0.1535  0.5186 -1.0869
   57SAPC  H20T 4235   0.581   1.072   5.573 -1.2532  1.8378  0.8612
   57SAPC   C33 4236   1.097   1.628   7.135 -0.4806  0.3434  0.2716
   57SAPC   H3X 4237   1.203   1.594   7.127 -0.3263  0.7766  0.4460
   57SAPC   H3Y 4238   1.105   1.728   7.182  2.6951 -0.7610  2.4528
   57SAPC   C34 4239   1.058   1.639   6.986  0.4513  0.5636  0.2573
   57SAPC   H4X 4240   1.103   1.735   6.954  1.0267  1.0083  2.2408
   57SAPC   H4Y 4241   0.949   1.656   6.973  0.2591  0.8199  2.0008
   57SAPC   C35 4242   1.110   1.533   6.892  0.2060 -0.2813 -0.2026
   57SAPC   H5X 4243   1.072   1.431   6.915  3.0794 -1.3580  0.2394
   57SAPC   H5Y 4244   1.221   1.537   6.895  0.2254  1.7279 -1.5059
   57SAPC   C36 4245   1.051   1.572   6.754 -0.4402 -0.7388 -0.1111
   57SAPC   H6X 4246   1.070   1.677   6.723 -1.3129 -0.6808 -0.4584
   57SAPC   H6Y 4247   0.941   1.558   6.759 -0.5160 -2.0771 -3.0958
   57SAPC   C37 4248   1.102   1.479   6.646  0.5933 -0.5129 -0.0694
   57SAPC   H7X 4249   1.055   1.381   6.668 -2.6387  1.2399  1.7773
   57SAPC   H7Y 4250   1.212   1.473   6.663  0.8054  1.3304 -0.5530
   57SAPC   C38 4251   1.079   1.537   6.502  0.0492 -0.3531 -0.2304
   57SAPC   H8X 4252   1.113   1.643   6.497  1.6199 -0.8361 -0.5071
   57SAPC   H8Y 4253   0.973   1.533   6.472 -0.1407 -3.5537  0.4542
   57SAPC   C39 4254   1.164   1.453   6.396 -0.0356  1.1049 -0.1080
   57SAPC   H9X 4255   1.151   1.345   6.420  3.0697  0.6662  0.0599
   57SAPC   H9Y 4256   1.271   1.480   6.411  0.2296  0.7490 -1.2751
   57SAPC  C310 4257   1.134   1.480   6.251 -0.9918 -0.0926 -0.3276
   57SAPC  H10X 4258   1.144   1.588   6.229 -0.3849  0.0820  0.7261
   57SAPC  H10Y 4259   1.028   1.447   6.248 -1.0686  0.1630 -0.4536
   57SAPC  C311 4260   1.217   1.402   6.149 -0.5184  0.8856 -1.2988
   57SAPC  H11X 4261   1.199   1.294   6.167  3.3489  0.1840 -0.6418
   57SAPC  H11Y 4262   1.318   1.427   6.188 -1.0965 -0.6799  1.5269
   57SAPC  C312 4263   1.186   1.450   6.008  0.1285 -1.0140  0.4120
   57SAPC  H12X 4264   1.216   1.556   5.997  0.2227 -1.0098  0.6951
   57SAPC  H12Y 4265   1.077   1.426   6.000  0.4499 -3.0805  1.3518
   57SAPC  C313 4266   1.262   1.374   5.900 -0.7718  0.5694  0.5657
   57SAPC  H13X 4267   1.234   1.268   5.879  0.2713  0.4879 -0.5230
   57SAPC  H13Y 4268   1.369   1.385   5.928 -0.8821  2.5876  0.3443
   57SAPC  C314 4269   1.244   1.446   5.770 -0.1718 -0.1101  0.1503
   57SAPC  H14X 4270   1.271   1.552   5.791  0.6415 -0.5384  1.2906
   57SAPC  H14Y 4271   1.138   1.462   5.738 -0.7879 -2.5308  0.8257
   57SAPC  C315 4272   1.353   1.415   5.658  0.5202  0.5686 -0.5473
   57SAPC  H15X 4273   1.367   1.310   5.627  1.2576  0.6321 -0.4485
   57SAPC  H15Y 4274   1.445   1.455   5.706 -0.8956 -0.7901  3.8585
   57SAPC  C316 4275   1.326   1.483   5.524  0.3039  0.9474 -0.0272
   57SAPC  H16X 4276   1.285   1.586   5.530  0.5712  1.1974 -1.8588
   57SAPC  H16Y 4277   1.241   1.423   5.485  1.8602  0.6367 -3.3093
   57SAPC  C317 4278   1.440   1.461   5.418 -0.2294  0.5143  0.1973
   57SAPC  H17X 4279   1.459   1.352   5.406  1.4498  0.9270 -1.3595
   57SAPC  H17Y 4280   1.536   1.506   5.451  0.3996  0.0331 -0.9004
   57SAPC  C318 4281   1.406   1.513   5.280  0.3790  0.4094  0.4996
   57SAPC  H18X 4282   1.318   1.455   5.246  0.7755  1.0320 -1.7927
   57SAPC  H18Y 4283   1.486   1.501   5.203 -1.8876  2.1179 -2.3360
   57SAPC  H18Z 4284   1.388   1.623   5.285  0.9540  0.5795 -0.6441
   58SAPC     N 4285   5.603   5.963   7.387 -0.0489  0.0433  0.0066
   58SAPC   C12 4286   5.678   6.074   7.317  0.6867 -0.3959 -0.7623
   58SAPC  H12A 4287   5.778   6.044   7.291  0.7702  1.4025 -2.7861
   58SAPC  H12B 4288   5.681   6.158   7.384  0.5654 -0.7633 -0.2899
   58SAPC   C13 4289   5.460   5.984   7.394  0.6307 -0.4418 -0.2996
   58SAPC  H13A 4290   5.423   5.988   7.293  1.1175 -0.0808 -0.4689
   58SAPC  H13B 4291   5.404   5.916   7.456  0.5425  0.1728  0.3115
   58SAPC  H13C 4292   5.428   6.081   7.427 -0.5650 -0.7746 -0.4574
   58SAPC   C14 4293   5.629   5.829   7.318 -0.2264  0.5655  0.3826
   58SAPC  H14A 4294   5.736   5.819   7.324 -0.1442  2.1279  2.3474
   58SAPC  H14B 4295   5.575   5.754   7.373 -2.5221  1.8512  0.0154
   58SAPC  H14C 4296   5.600   5.830   7.213  0.2326  0.7924  0.2553
   58SAPC   C15 4297   5.655   5.948   7.527 -0.2216 -0.3272 -0.1169
   58SAPC  H15A 4298   5.762   5.943   7.541 -0.3518  0.3797  1.2853
   58SAPC  H15B 4299   5.629   6.034   7.587 -0.6788 -0.6021  0.0810
   58SAPC  H15C 4300   5.604   5.866   7.574 -0.5920  0.1823  0.3778
   58SAPC   C11 4301   5.611   6.131   7.186  0.0923  0.3656 -0.1513
   58SAPC  H11A 4302   5.580   6.053   7.114 -0.0100  1.4854 -1.3662
   58SAPC  H11B 4303   5.686   6.201   7.145  0.6114  1.6078  2.6753
   58SAPC     P 4304   5.370   6.240   7.147 -0.4183  0.3308 -0.0937
   58SAPC   O13 4305   5.286   6.119   7.174  0.1928  0.4395 -0.1195
   58SAPC   O14 4306   5.312   6.376   7.177  0.3106 -0.2709 -0.3364
   58SAPC   O12 4307   5.504   6.223   7.225  0.3113 -0.3055 -0.2002
   58SAPC   O11 4308   5.421   6.232   6.999  0.6040 -0.4487  0.7633
   58SAPC    C1 4309   5.484   6.348   6.941  0.1205  0.3291  0.4861
   58SAPC    HA 4310   5.555   6.395   7.012  2.6946 -0.2652 -1.4921
   58SAPC    HB 4311   5.544   6.300   6.860 -0.4811 -1.5771  1.1044
   58SAPC    C2 4312   5.386   6.456   6.881 -0.1979  0.4894 -0.3329
   58SAPC    HS 4313   5.301   6.467   6.952 -0.4151 -0.9669 -0.3278
   58SAPC   O21 4314   5.335   6.420   6.752 -0.0079  0.1444  0.0171
   58SAPC   C21 4315   5.251   6.321   6.743 -0.0133 -0.3693  0.0670
   58SAPC   O22 4316   5.180   6.274   6.833  0.8790 -0.1379 -0.1096
   58SAPC   C22 4317   5.263   6.277   6.595 -0.3047  1.1334 -0.1878
   58SAPC   H2R 4318   5.257   6.361   6.522 -0.3483  1.4986  0.2328
   58SAPC   H2S 4319   5.359   6.228   6.568 -0.7822  0.8589 -1.4862
   58SAPC    C3 4320   5.458   6.591   6.872  0.2447 -1.0990 -0.9366
   58SAPC    HX 4321   5.557   6.574   6.823  1.4930 -1.4188  1.5374
   58SAPC    HY 4322   5.495   6.615   6.974  0.2996 -2.2219 -0.6821
   58SAPC   O31 4323   5.379   6.699   6.826 -0.4882 -0.1697  0.5670
   58SAPC   C31 4324   5.431   6.775   6.726 -0.7037 -0.0257  0.5771
   58SAPC   O32 4325   5.515   6.741   6.646  0.2084  0.7514 -0.7744
   58SAPC   C32 4326   5.328   6.885   6.703  0.8648 -0.1100 -0.0790
   58SAPC   H2X 4327   5.358   6.957   6.782  4.0307  0.6537 -1.7880
   58SAPC   H2Y 4328   5.225   6.847   6.717  1.3617 -1.3462  0.3444
   58SAPC   C23 4329   5.154   6.171   6.557 -0.1315 -1.1438 -0.8228
   58SAPC   H3R 4330   5.054   6.215   6.574 -0.4519 -0.8974 -3.0113
   58SAPC   H3S 4331   5.163   6.081   6.621 -2.6495  0.7558  2.5481
   58SAPC   C24 4332   5.152   6.136   6.405 -0.1356  0.6264 -0.4594
   58SAPC   H4R 4333   5.252   6.099   6.374 -1.9988 -3.7712 -2.0563
   58SAPC   H4S 4334   5.136   6.234   6.354  0.0636  1.1178  0.3911
   58SAPC   C25 4335   5.060   6.030   6.360  0.2463  0.3900 -0.2297
   58SAPC   H5R 4336   5.033   5.953   6.433 -1.9121  0.7272 -0.6250
   58SAPC   C26 4337   5.008   6.028   6.240  0.7650  0.3301 -0.3648
   58SAPC   H6R 4338   4.942   5.943   6.218  0.7320  0.4296 -0.6522
   58SAPC   C27 4339   5.040   6.129   6.125  0.9115  0.5171 -0.0598
   58SAPC   H7R 4340   5.123   6.202   6.134  1.0483  0.3833 -0.2387
   58SAPC   H7S 4341   4.946   6.184   6.101  1.7627  1.6071 -0.9866
   58SAPC   C28 4342   5.069   6.050   6.004 -0.2256 -0.2470  0.3998
   58SAPC   H8R 4343   5.139   5.966   6.016  2.1850  1.1517 -2.4499
   58SAPC   C29 4344   5.023   6.068   5.880 -0.1244 -0.4851  0.4255
   58SAPC   H9R 4345   5.044   6.001   5.795 -2.3740 -2.3664  1.2801
   58SAPC  C210 4346   4.921   6.175   5.847 -0.2081 -0.2435  0.2937
   58SAPC  H10R 4347   4.945   6.212   5.745 -0.4278  2.0931  1.0170
   58SAPC  H10S 4348   4.917   6.266   5.911 -1.8324  0.0894 -0.2326
   58SAPC  C211 4349   4.786   6.108   5.840  0.5644  0.5322 -0.0671
   58SAPC  H11R 4350   4.741   6.075   5.935 -1.6876 -0.0322 -1.2574
   58SAPC  C212 4351   4.709   6.084   5.731  0.3098 -0.4059 -0.7428
   58SAPC  H12R 4352   4.610   6.052   5.768  0.7606 -1.1601 -0.1280
   58SAPC  C213 4353   4.732   6.121   5.589  0.9972 -0.4879  0.4833
   58SAPC  H13R 4354   4.839   6.145   5.572  0.5286  2.1673  0.8140
   58SAPC  H13S 4355   4.675   6.213   5.563 -0.3594 -1.6681 -0.9133
   58SAPC  C214 4356   4.693   6.006   5.495  0.5112  0.3890 -0.1902
   58SAPC  H14R 4357   4.762   5.921   5.484 -0.3852 -0.4199  0.2625
   58SAPC  C215 4358   4.579   6.013   5.419  0.2493 -0.3493  0.4347
   58SAPC  H15R 4359   4.573   5.936   5.341  0.3007 -1.4131  1.4526
   58SAPC  C216 4360   4.482   6.127   5.402  0.2223 -0.9939 -0.8965
   58SAPC  H16R 4361   4.523   6.220   5.356 -0.4002  0.1422  0.7695
   58SAPC  H16S 4362   4.436   6.157   5.499 -0.5853  0.9385 -1.8059
   58SAPC  C217 4363   4.348   6.099   5.323 -0.1002 -0.3148 -0.0268
   58SAPC  H17R 4364   4.378   6.072   5.219  2.4997 -1.7217  0.9990
   58SAPC  H17S 4365   4.286   6.192   5.325  0.4933  0.2025 -2.1598
   58SAPC  C218 4366   4.267   5.983   5.378 -0.3299  0.1437 -0.3190
   58SAPC  H18R 4367   4.335   5.900   5.350 -0.3492 -0.5986  1.6549
   58SAPC  H18S 4368   4.167   5.975   5.328 -1.2544 -0.5198  1.5463
   58SAPC  C219 4369   4.252   5.964   5.532 -0.3543 -0.1611  0.6261
   58SAPC  H19R 4370   4.205   6.057   5.570 -0.8389  0.4890 -1.4720
   58SAPC  H19S 4371   4.347   5.966   5.589 -1.2207  0.5324  2.1073
   58SAPC  C220 4372   4.165   5.848   5.569  0.3179  0.7129  0.0988
   58SAPC  H20R 4373   4.160   5.835   5.680 -1.2529  0.8438  0.0675
   58SAPC  H20S 4374   4.203   5.749   5.537  1.2895  1.1155 -0.0307
   58SAPC  H20T 4375   4.064   5.857   5.524  0.2023  0.8906  0.3890
   58SAPC   C33 4376   5.334   6.957   6.565 -0.9529  0.3612  0.6860
   58SAPC   H3X 4377   5.439   6.975   6.533 -0.5851 -1.2651  0.9083
   58SAPC   H3Y 4378   5.284   7.056   6.578 -0.9780  0.2300  1.6449
   58SAPC   C34 4379   5.251   6.880   6.460  0.2595  0.0485  0.0669
   58SAPC   H4X 4380   5.152   6.856   6.504  0.1254  2.5475  1.2876
   58SAPC   H4Y 4381   5.300   6.783   6.437  0.4881 -0.1533  1.3198
   58SAPC   C35 4382   5.233   6.955   6.328  0.2516  0.0015  0.2878
   58SAPC   H5X 4383   5.221   7.065   6.331 -0.3697 -0.0726  0.7077
   58SAPC   H5Y 4384   5.132   6.921   6.297  0.0113  1.3090 -0.3976
   58SAPC   C36 4385   5.329   6.909   6.219 -0.1803 -0.6183 -0.5159
   58SAPC   H6X 4386   5.353   6.801   6.230 -1.2692 -0.8650 -0.4516
   58SAPC   H6Y 4387   5.427   6.962   6.220 -1.1423  1.7172 -4.5454
   58SAPC   C37 4388   5.273   6.938   6.078  0.4409 -0.0844 -0.1485
   58SAPC   H7X 4389   5.217   7.034   6.086  0.5711 -0.1106  1.2745
   58SAPC   H7Y 4390   5.192   6.867   6.052  1.2815 -1.0086 -0.3304
   58SAPC   C38 4391   5.383   6.950   5.967  0.0617 -0.1828  0.3273
   58SAPC   H8X 4392   5.449   7.036   5.990 -2.0823  1.1704  1.8044
   58SAPC   H8Y 4393   5.328   6.969   5.872  1.4588  0.9282 -0.2862
   58SAPC   C39 4394   5.468   6.819   5.948 -0.1409  0.1289 -0.0810
   58SAPC   H9X 4395   5.400   6.755   5.888 -1.9290  2.4477 -0.6923
   58SAPC   H9Y 4396   5.487   6.758   6.039 -1.3374 -0.4757 -0.2147
   58SAPC  C310 4397   5.597   6.838   5.868 -0.1701 -0.4223  0.1178
   58SAPC  H10X 4398   5.658   6.917   5.919  1.5471 -1.3906 -0.3397
   58SAPC  H10Y 4399   5.577   6.871   5.764 -0.5132 -1.9331 -0.3089
   58SAPC  C311 4400   5.680   6.715   5.866 -0.3512 -0.3166 -1.1841
   58SAPC  H11X 4401   5.619   6.627   5.837 -1.8314  0.2365  0.0888
   58SAPC  H11Y 4402   5.713   6.709   5.971 -0.1607 -0.7044 -1.2666
   58SAPC  C312 4403   5.812   6.736   5.790  0.7699 -0.6231  0.3571
   58SAPC  H12X 4404   5.894   6.671   5.828  2.7103  1.8786  0.6771
   58SAPC  H12Y 4405   5.840   6.840   5.815 -0.9848 -0.3201  1.2883
   58SAPC  C313 4406   5.781   6.713   5.638 -0.2389  0.0714 -0.1706
   58SAPC  H13X 4407   5.853   6.773   5.578 -1.1922  0.2442 -1.1751
   58SAPC  H13Y 4408   5.683   6.762   5.618 -0.2090 -0.3245 -1.4324
   58SAPC  C314 4409   5.784   6.564   5.592 -0.5910 -0.1268 -0.1127
   58SAPC  H14X 4410   5.710   6.517   5.660 -1.0195  1.8100  0.8263
   58SAPC  H14Y 4411   5.881   6.527   5.633  0.6664  3.2044  0.2206
   58SAPC  C315 4412   5.763   6.538   5.449  0.4470  0.0301 -0.3057
   58SAPC  H15X 4413   5.658   6.569   5.429  0.0378 -1.0720  0.0677
   58SAPC  H15Y 4414   5.751   6.431   5.423 -3.3601  0.0535  0.6890
   58SAPC  C316 4415   5.858   6.600   5.349  0.3572 -0.8033  0.0259
   58SAPC  H16X 4416   5.964   6.590   5.378  0.0406 -1.0994  1.1414
   58SAPC  H16Y 4417   5.841   6.709   5.340 -1.5725 -0.9943  0.7234
   58SAPC  C317 4418   5.839   6.541   5.211  0.4463 -0.9822  0.2351
   58SAPC  H17X 4419   5.870   6.435   5.214 -0.4183 -1.3412 -1.9877
   58SAPC  H17Y 4420   5.915   6.585   5.143  1.3860  0.3910  2.0747
   58SAPC  C318 4421   5.700   6.556   5.156 -0.3093  0.3153  0.7442
   58SAPC  H18X 4422   5.677   6.660   5.128  0.7029  0.2613 -0.3721
   58SAPC  H18Y 4423   5.626   6.513   5.228  0.3633 -2.5788 -0.1648
   58SAPC  H18Z 4424   5.690   6.491   5.066  1.9007 -0.2054  0.8138
   59SAPC     N 4425   4.337   3.344   7.366  0.7873  0.2545 -0.7460
   59SAPC   C12 4426   4.293   3.408   7.236 -0.1108  0.2053  0.2928
   59SAPC  H12A 4427   4.368   3.370   7.168  1.4756  1.2710  1.3525
   59SAPC  H12B 4428   4.318   3.512   7.255  1.3369 -0.3704  1.7215
   59SAPC   C13 4429   4.471   3.388   7.397  0.2094  0.0631 -0.1344
   59SAPC  H13A 4430   4.482   3.484   7.446  0.7776 -1.1443  2.2511
   59SAPC  H13B 4431   4.525   3.313   7.453  0.1679 -2.0688 -2.7615
   59SAPC  H13C 4432   4.533   3.385   7.309  0.1182 -4.1727 -0.2604
   59SAPC   C14 4433   4.250   3.394   7.478  0.4641  0.5462 -0.6936
   59SAPC  H14A 4434   4.273   3.337   7.567 -3.0324 -2.2427 -1.3459
   59SAPC  H14B 4435   4.268   3.499   7.499 -1.4444  0.4517  1.8666
   59SAPC  H14C 4436   4.146   3.384   7.451  0.2713  0.0160  0.2076
   59SAPC   C15 4437   4.337   3.202   7.355 -0.4546  0.4083  0.4705
   59SAPC  H15A 4438   4.411   3.159   7.289 -1.1766 -0.3926  0.1672
   59SAPC  H15B 4439   4.343   3.158   7.453 -2.1550 -0.3547  0.2719
   59SAPC  H15C 4440   4.248   3.159   7.312 -2.0211  0.2520  3.5956
   59SAPC   C11 4441   4.148   3.382   7.189 -0.3899  0.1324  0.2973
   59SAPC  H11A 4442   4.125   3.276   7.167 -1.4452  0.9043 -3.0242
   59SAPC  H11B 4443   4.137   3.428   7.088  0.9626 -0.9232 -0.3649
   59SAPC     P 4444   4.020   3.585   7.284 -0.1040  0.4958 -0.0901
   59SAPC   O13 4445   3.944   3.618   7.407  0.1240  0.3163  0.0002
   59SAPC   O14 4446   4.146   3.657   7.261 -0.1872  0.3085 -0.2846
   59SAPC   O12 4447   4.051   3.434   7.277  0.2449  0.8805 -0.4851
   59SAPC   O11 4448   3.941   3.602   7.155  0.2678  0.5572  0.5337
   59SAPC    C1 4449   3.810   3.551   7.138 -0.1780 -0.8959  0.8649
   59SAPC    HA 4450   3.812   3.444   7.166  1.8346 -1.0314  0.3498
   59SAPC    HB 4451   3.739   3.611   7.199 -0.3415 -0.6107  0.4057
   59SAPC    C2 4452   3.753   3.579   6.994  0.0933 -0.0263 -0.5412
   59SAPC    HS 4453   3.648   3.542   6.987 -0.0191  0.2875 -0.5168
   59SAPC   O21 4454   3.837   3.527   6.895 -0.0781 -0.1418  0.4507
   59SAPC   C21 4455   3.814   3.400   6.870 -0.3891  0.7702 -0.5576
   59SAPC   O22 4456   3.738   3.326   6.930 -0.4258 -0.0059 -0.1648
   59SAPC   C22 4457   3.911   3.348   6.755  0.3079 -0.2253 -0.8379
   59SAPC   H2R 4458   4.007   3.313   6.799  1.5081  1.5324 -1.8892
   59SAPC   H2S 4459   3.861   3.262   6.705  0.4825 -1.5374  1.1459
   59SAPC    C3 4460   3.746   3.730   6.959 -0.4464  0.7245 -0.1355
   59SAPC    HX 4461   3.852   3.763   6.966  0.9848 -3.5680  3.1437
   59SAPC    HY 4462   3.694   3.782   7.043 -0.7057  0.7625 -0.3209
   59SAPC   O31 4463   3.691   3.765   6.832 -0.3267  0.3746  0.2746
   59SAPC   C31 4464   3.766   3.790   6.728 -0.4615 -0.5504 -0.9802
   59SAPC   O32 4465   3.888   3.787   6.725  0.1739  0.4829  0.2129
   59SAPC   C32 4466   3.678   3.842   6.614 -0.0346  0.2795  0.2052
   59SAPC   H2X 4467   3.713   3.947   6.608  0.0223  0.4662  2.7120
   59SAPC   H2Y 4468   3.570   3.833   6.639 -0.2694 -1.5836 -1.2604
   59SAPC   C23 4469   3.946   3.465   6.655 -0.1097 -0.2544  0.0574
   59SAPC   H3R 4470   3.980   3.554   6.712  1.3690  0.5187 -1.9483
   59SAPC   H3S 4471   3.856   3.495   6.597  0.9873  0.3066 -1.4067
   59SAPC   C24 4472   4.050   3.424   6.548  0.1827  0.7774 -0.3288
   59SAPC   H4R 4473   4.085   3.512   6.490  3.0312  0.1535  0.3195
   59SAPC   H4S 4474   4.007   3.363   6.465  0.8012 -0.1476  0.0115
   59SAPC   C25 4475   4.180   3.373   6.601 -0.3793  0.0533 -0.4585
   59SAPC   H5R 4476   4.213   3.448   6.674 -1.8693 -0.6949  1.0576
   59SAPC   C26 4477   4.237   3.255   6.567 -0.0704 -0.4816 -0.7040
   59SAPC   H6R 4478   4.331   3.215   6.608  0.2493  1.9716  1.1809
   59SAPC   C27 4479   4.162   3.160   6.469  0.3701  0.6804  0.1247
   59SAPC   H7R 4480   4.151   3.222   6.378  1.9522  0.1482 -0.4595
   59SAPC   H7S 4481   4.057   3.142   6.501  0.3276  0.2147 -0.2592
   59SAPC   C28 4482   4.236   3.033   6.443 -0.1949  0.3533 -0.3979
   59SAPC   H8R 4483   4.251   2.964   6.527 -1.5172 -0.7739 -1.0633
   59SAPC   C29 4484   4.262   2.982   6.323  0.4788  0.0662 -0.0866
   59SAPC   H9R 4485   4.333   2.900   6.304  0.9680  0.7728 -1.4467
   59SAPC  C210 4486   4.237   3.053   6.196  0.1032  0.5694  0.5929
   59SAPC  H10R 4487   4.133   3.090   6.187 -0.5856 -1.6696 -1.5531
   59SAPC  H10S 4488   4.244   2.976   6.117 -0.3499  1.2329 -0.1153
   59SAPC  C211 4489   4.336   3.159   6.164 -0.0424  0.6199  0.0279
   59SAPC  H11R 4490   4.372   3.195   6.261 -3.6491 -0.5955  2.0320
   59SAPC  C212 4491   4.361   3.221   6.048  0.4940 -0.0773  0.4729
   59SAPC  H12R 4492   4.441   3.294   6.067  0.6593 -0.6418  2.0951
   59SAPC  C213 4493   4.311   3.188   5.909 -0.0843 -0.0630 -0.0049
   59SAPC  H13R 4494   4.206   3.221   5.901  0.4600  1.5063 -1.0908
   59SAPC  H13S 4495   4.315   3.078   5.898  0.2847  0.0555 -1.1491
   59SAPC  C214 4496   4.405   3.262   5.814  0.8580 -0.6622 -0.2963
   59SAPC  H14R 4497   4.512   3.261   5.841  0.4441  1.6066  1.8088
   59SAPC  C215 4498   4.363   3.348   5.719 -0.3896 -0.2163  0.3774
   59SAPC  H15R 4499   4.444   3.406   5.671 -1.0717 -0.0204 -0.5609
   59SAPC  C216 4500   4.224   3.382   5.677 -0.2342  0.5386 -0.6442
   59SAPC  H16R 4501   4.195   3.480   5.720 -0.3065  1.2748 -2.2890
   59SAPC  H16S 4502   4.150   3.314   5.723  0.5639 -0.3257 -0.6019
   59SAPC  C217 4503   4.183   3.393   5.533 -0.3181 -0.2229  0.5534
   59SAPC  H17R 4504   4.074   3.410   5.522 -0.5757 -2.5537 -1.6181
   59SAPC  H17S 4505   4.199   3.300   5.474 -4.3043  0.6671 -2.3667
   59SAPC  C218 4506   4.257   3.501   5.443 -0.5365 -0.2490 -0.0967
   59SAPC  H18R 4507   4.367   3.488   5.449 -0.5755 -0.7426 -0.4349
   59SAPC  H18S 4508   4.219   3.601   5.474  1.6932  0.3103  1.0548
   59SAPC  C219 4509   4.229   3.492   5.293 -0.7751 -0.1191 -0.0101
   59SAPC  H19R 4510   4.121   3.481   5.271 -0.9554 -3.8535  1.9326
   59SAPC  H19S 4511   4.275   3.406   5.241  0.7803  0.6848 -0.0165
   59SAPC  C220 4512   4.286   3.618   5.226 -0.6563 -0.8500  0.0017
   59SAPC  H20R 4513   4.397   3.609   5.233 -0.5480 -0.3333 -0.8915
   59SAPC  H20S 4514   4.242   3.711   5.267  2.2087  0.8823 -0.5481
   59SAPC  H20T 4515   4.266   3.624   5.117 -1.4611 -1.3237  0.1101
   59SAPC   C33 4516   3.709   3.772   6.483  0.3699  0.6522  0.6316
   59SAPC   H3X 4517   3.707   3.662   6.495 -1.0729  0.2711 -2.3136
   59SAPC   H3Y 4518   3.816   3.792   6.458  0.7702 -2.6116 -0.8083
   59SAPC   C34 4519   3.620   3.812   6.366 -0.7129 -0.8860  0.1455
   59SAPC   H4X 4520   3.602   3.921   6.354 -0.2729 -0.7670  0.5315
   59SAPC   H4Y 4521   3.523   3.760   6.386 -1.7788  0.3562 -1.5172
   59SAPC   C35 4522   3.667   3.763   6.232 -0.1443  0.0444  0.6430
   59SAPC   H5X 4523   3.747   3.836   6.208 -0.3684  0.0481 -0.1225
   59SAPC   H5Y 4524   3.589   3.778   6.153  1.8481 -1.4775 -1.7718
   59SAPC   C36 4525   3.712   3.613   6.240  0.2798 -0.7748 -1.1645
   59SAPC   H6X 4526   3.675   3.560   6.329 -1.0154 -0.2494 -1.3598
   59SAPC   H6Y 4527   3.822   3.629   6.251 -0.3372  2.8388  1.7297
   59SAPC   C37 4528   3.687   3.538   6.109 -0.2538  0.0059 -0.3242
   59SAPC   H7X 4529   3.703   3.591   6.013  0.1322  0.4951  0.0107
   59SAPC   H7Y 4530   3.578   3.518   6.113 -0.5039  1.2481 -0.7472
   59SAPC   C38 4531   3.773   3.406   6.128  0.1298  0.8736 -0.0155
   59SAPC   H8X 4532   3.739   3.345   6.214  2.3598  0.3042  0.5120
   59SAPC   H8Y 4533   3.877   3.441   6.146  1.0426 -1.9895  0.7693
   59SAPC   C39 4534   3.767   3.299   6.010 -0.0873 -0.9107 -0.1554
   59SAPC   H9X 4535   3.785   3.359   5.918 -2.1982  1.3629  0.8043
   59SAPC   H9Y 4536   3.662   3.262   6.013 -0.3899 -0.1196 -0.5694
   59SAPC  C310 4537   3.866   3.183   6.050  0.2619 -0.2163  0.2063
   59SAPC  H10X 4538   3.836   3.134   6.146 -2.7810  0.9011 -0.0811
   59SAPC  H10Y 4539   3.965   3.228   6.075 -0.0832  0.3628  0.5532
   59SAPC  C311 4540   3.882   3.074   5.941  0.1480 -0.1250 -0.2965
   59SAPC  H11X 4541   3.790   3.017   5.914 -0.6070  1.4422 -1.2198
   59SAPC  H11Y 4542   3.955   3.000   5.978  0.5640  1.0475  1.3214
   59SAPC  C312 4543   3.939   3.134   5.811 -0.6630 -0.0926 -0.5430
   59SAPC  H12X 4544   4.007   3.215   5.843 -1.1933 -0.3275  1.3149
   59SAPC  H12Y 4545   3.875   3.191   5.741  2.0921  3.8801 -0.1590
   59SAPC  C313 4546   4.008   3.027   5.725  0.9762  0.5100  0.1452
   59SAPC  H13X 4547   3.956   2.929   5.739  0.6701  0.5746 -0.5166
   59SAPC  H13Y 4548   4.107   3.020   5.775 -0.2383  0.1408  2.6689
   59SAPC  C314 4549   4.023   3.064   5.579  0.3533  0.3621  0.4874
   59SAPC  H14X 4550   4.097   2.994   5.534 -0.9733 -1.4782  1.0277
   59SAPC  H14Y 4551   4.056   3.169   5.566 -0.9534  0.9427  1.6285
   59SAPC  C315 4552   3.887   3.047   5.509 -0.3319 -0.0522  0.3036
   59SAPC  H15X 4553   3.818   3.133   5.521 -2.1989 -1.5191  0.4687
   59SAPC  H15Y 4554   3.834   2.962   5.556 -2.3575  0.5661 -0.7543
   59SAPC  C316 4555   3.900   3.004   5.360  0.0078 -0.2677 -0.3060
   59SAPC  H16X 4556   3.978   2.926   5.343  2.1480  1.7460 -0.2239
   59SAPC  H16Y 4557   3.942   3.092   5.306 -0.1471  0.9936  1.5692
   59SAPC  C317 4558   3.774   2.973   5.282 -0.3221 -0.1797  0.3060
   59SAPC  H17X 4559   3.718   3.069   5.284 -1.4860 -0.8429  0.7212
   59SAPC  H17Y 4560   3.694   2.911   5.327 -1.6388 -0.0110 -1.6613
   59SAPC  C318 4561   3.795   2.919   5.139 -0.3853  0.2524 -0.1986
   59SAPC  H18X 4562   3.698   2.932   5.085  0.7078  0.8232 -2.1206
   59SAPC  H18Y 4563   3.821   2.811   5.146 -0.2796  0.2693 -0.3236
   59SAPC  H18Z 4564   3.878   2.973   5.090 -0.6274  2.4476  1.6339
   60SAPC     N 4565   2.922   2.656   7.679 -0.0146 -0.4150  0.6099
   60SAPC   C12 4566   2.982   2.745   7.574  0.4036 -0.7610  0.6571
   60SAPC  H12A 4567   3.084   2.722   7.548  0.4863  1.7333 -1.8114
   60SAPC  H12B 4568   3.002   2.838   7.625 -0.6852 -1.1251  1.8131
   60SAPC   C13 4569   2.803   2.724   7.748 -0.4830 -0.2843  0.0285
   60SAPC  H13A 4570   2.735   2.752   7.669 -0.0408 -1.8317 -0.9415
   60SAPC  H13B 4571   2.752   2.656   7.815  0.6210 -0.9761  0.1876
   60SAPC  H13C 4572   2.832   2.810   7.808  0.2827 -0.2778 -0.3436
   60SAPC   C14 4573   2.860   2.534   7.618  0.3093  0.3355 -0.2046
   60SAPC  H14A 4574   2.794   2.563   7.537  0.6563 -3.3542 -2.0106
   60SAPC  H14B 4575   2.937   2.468   7.582 -0.1799  0.3887 -1.3856
   60SAPC  H14C 4576   2.796   2.483   7.689  0.0955  1.8981  0.7746
   60SAPC   C15 4577   3.024   2.606   7.769  0.1685 -0.5038  0.5445
   60SAPC  H15A 4578   3.089   2.687   7.799 -0.1668  0.3045 -0.8463
   60SAPC  H15B 4579   2.976   2.563   7.856 -0.3792  1.9078  1.5279
   60SAPC  H15C 4580   3.092   2.535   7.727 -0.1434  0.1690 -1.1807
   60SAPC   C11 4581   2.914   2.787   7.441  1.0129 -0.5477 -0.5998
   60SAPC  H11A 4582   2.929   2.701   7.374 -0.7771 -1.1959 -0.2116
   60SAPC  H11B 4583   2.980   2.860   7.389  3.4539  0.3188  3.2617
   60SAPC     P 4584   2.723   2.964   7.479 -0.4052 -0.5371  0.1755
   60SAPC   O13 4585   2.623   2.955   7.589  0.8691  0.6148 -0.1296
   60SAPC   O14 4586   2.830   3.070   7.497  0.0601 -0.2488 -0.1706
   60SAPC   O12 4587   2.780   2.817   7.466  0.3120  0.2628 -0.0782
   60SAPC   O11 4588   2.648   2.998   7.344  0.4732  0.1285  0.4562
   60SAPC    C1 4589   2.631   2.923   7.230  0.4866  0.7714 -0.1116
   60SAPC    HA 4590   2.696   2.833   7.229 -1.4963 -0.7629  0.9887
   60SAPC    HB 4591   2.529   2.881   7.215  1.3263 -0.7079 -2.3403
   60SAPC    C2 4592   2.657   3.001   7.104  0.0356 -0.2697  0.1910
   60SAPC    HS 4593   2.593   3.091   7.092  0.6364  0.1073 -0.2475
   60SAPC   O21 4594   2.637   2.921   6.986 -0.1657 -0.3953  0.2337
   60SAPC   C21 4595   2.556   2.978   6.892 -0.5353  0.0853  0.4621
   60SAPC   O22 4596   2.530   3.094   6.887 -0.3920 -0.5146 -0.2752
   60SAPC   C22 4597   2.512   2.870   6.791  0.4957  0.0890 -0.1236
   60SAPC   H2R 4598   2.527   2.769   6.834  0.5468  0.0363 -0.2636
   60SAPC   H2S 4599   2.404   2.878   6.765  0.6399  0.5782 -0.5819
   60SAPC    C3 4600   2.803   3.061   7.101  0.0960  0.6322 -0.5048
   60SAPC    HX 4601   2.880   2.982   7.113 -2.1316 -1.7077 -0.6903
   60SAPC    HY 4602   2.810   3.123   7.193  1.1864  1.4525 -1.1191
   60SAPC   O31 4603   2.819   3.150   6.996  0.7789  0.1142 -0.0397
   60SAPC   C31 4604   2.874   3.112   6.877  0.6296  0.0605  0.4089
   60SAPC   O32 4605   2.939   3.007   6.868 -0.0355  0.2393 -0.2658
   60SAPC   C32 4606   2.839   3.212   6.767 -0.2114  0.3344  0.4973
   60SAPC   H2X 4607   2.824   3.310   6.817  1.1520 -0.8846  3.5237
   60SAPC   H2Y 4608   2.744   3.179   6.717 -0.5824  0.0320  1.3847
   60SAPC   C23 4609   2.590   2.878   6.654 -0.4143 -0.8575  0.8032
   60SAPC   H3R 4610   2.700   2.875   6.669 -0.1873 -3.5182 -0.8283
   60SAPC   H3S 4611   2.568   2.974   6.601 -1.4501 -0.8734  1.1767
   60SAPC   C24 4612   2.559   2.759   6.565  0.1470  0.2849 -0.1791
   60SAPC   H4R 4613   2.450   2.746   6.544 -0.0058  0.8898  0.1924
   60SAPC   H4S 4614   2.591   2.665   6.614  0.9467  0.9304  0.5778
   60SAPC   C25 4615   2.622   2.771   6.430  0.0233  0.1024  0.7107
   60SAPC   H5R 4616   2.725   2.734   6.420 -0.6416 -1.2770 -2.3671
   60SAPC   C26 4617   2.569   2.824   6.318  0.1998 -0.4903  0.6557
   60SAPC   H6R 4618   2.624   2.823   6.223 -0.4145 -0.1283  0.2884
   60SAPC   C27 4619   2.437   2.895   6.302 -0.1398 -0.4561 -0.8338
   60SAPC   H7R 4620   2.413   2.945   6.398  0.7069  0.0875 -0.8982
   60SAPC   H7S 4621   2.358   2.816   6.303  1.8859 -2.6959  2.9423
   60SAPC   C28 4622   2.452   2.993   6.191  0.7025 -0.5609  0.3417
   60SAPC   H8R 4623   2.529   3.069   6.209  0.1219 -0.0821  0.8586
   60SAPC   C29 4624   2.367   3.012   6.085 -0.5746 -0.0737  0.4958
   60SAPC   H9R 4625   2.379   3.092   6.011  1.0166  1.7456  2.5653
   60SAPC  C210 4626   2.236   2.930   6.062  0.1448 -0.7827  0.5186
   60SAPC  H10R 4627   2.236   2.828   6.107 -0.6994 -0.4649  1.2593
   60SAPC  H10S 4628   2.207   2.916   5.955  0.5257  0.9766  0.1566
   60SAPC  C211 4629   2.124   2.997   6.133 -0.0962  1.2681 -0.5783
   60SAPC  H11R 4630   2.123   2.985   6.242  1.3196  2.4301 -0.4059
   60SAPC  C212 4631   2.024   3.063   6.067  0.0151 -0.0254 -0.2021
   60SAPC  H12R 4632   1.952   3.106   6.138  1.0971 -0.5797  1.2952
   60SAPC  C213 4633   1.994   3.081   5.924  0.5742  0.0744  0.1772
   60SAPC  H13R 4634   1.925   3.000   5.895  1.4511 -1.1646  1.4531
   60SAPC  H13S 4635   2.088   3.056   5.870  1.0962  0.3567  0.9367
   60SAPC  C214 4636   1.945   3.218   5.878 -0.3500  0.2106  0.0911
   60SAPC  H14R 4637   2.027   3.291   5.867  1.2755 -1.5448  0.1645
   60SAPC  C215 4638   1.813   3.243   5.854 -0.5630 -0.5109 -0.1210
   60SAPC  H15R 4639   1.787   3.343   5.817 -0.1484 -1.0414 -1.9302
   60SAPC  C216 4640   1.696   3.150   5.868 -0.5320  0.2693 -0.3433
   60SAPC  H16R 4641   1.611   3.210   5.907 -0.9506  0.3829 -1.3835
   60SAPC  H16S 4642   1.720   3.073   5.945 -0.1809 -0.6855 -1.3789
   60SAPC  C217 4643   1.663   3.076   5.735 -0.2668  0.0989 -0.4448
   60SAPC  H17R 4644   1.623   2.976   5.764 -0.3986  0.1850 -0.3286
   60SAPC  H17S 4645   1.759   3.053   5.683 -0.0312 -0.6376  0.2949
   60SAPC  C218 4646   1.549   3.138   5.648 -0.4357  0.2027  0.3594
   60SAPC  H18R 4647   1.571   3.246   5.639 -0.8154  0.1924 -0.8929
   60SAPC  H18S 4648   1.447   3.136   5.692 -0.9690  2.5504 -0.6273
   60SAPC  C219 4649   1.555   3.078   5.507 -0.0233  0.4211  0.4327
   60SAPC  H19R 4650   1.543   2.968   5.522  0.2420  0.2864 -0.2777
   60SAPC  H19S 4651   1.660   3.085   5.473  0.0254  1.2465  0.7515
   60SAPC  C220 4652   1.457   3.138   5.404 -0.0465 -0.3254 -0.6303
   60SAPC  H20R 4653   1.350   3.132   5.433  0.4921 -2.1314  1.2104
   60SAPC  H20S 4654   1.470   3.093   5.303  2.0419 -0.9716 -0.1326
   60SAPC  H20T 4655   1.482   3.247   5.399  0.8588 -0.5335 -0.9269
   60SAPC   C33 4656   2.958   3.234   6.668  0.6978 -0.6972 -0.0026
   60SAPC   H3X 4657   3.020   3.142   6.655  2.2580  0.3421 -0.0705
   60SAPC   H3Y 4658   3.010   3.319   6.716  0.0167 -0.0866 -0.3314
   60SAPC   C34 4659   2.915   3.287   6.531  0.0638 -0.1168  0.1592
   60SAPC   H4X 4660   3.000   3.318   6.465 -0.5273 -0.8333 -0.9751
   60SAPC   H4Y 4661   2.865   3.386   6.538  1.5615  0.8825 -2.0861
   60SAPC   C35 4662   2.827   3.188   6.452  0.3809 -0.4310 -0.3640
   60SAPC   H5X 4663   2.728   3.207   6.498  1.1130 -0.5539  1.3452
   60SAPC   H5Y 4664   2.856   3.085   6.483 -1.1025 -0.8472 -0.2740
   60SAPC   C36 4665   2.832   3.206   6.300  0.0528 -0.1351  0.3690
   60SAPC   H6X 4666   2.770   3.130   6.248 -0.7894  0.8968 -0.1733
   60SAPC   H6Y 4667   2.939   3.189   6.274  0.5720  1.8058  1.0768
   60SAPC   C37 4668   2.793   3.352   6.250 -0.4891  0.2625  0.2043
   60SAPC   H7X 4669   2.871   3.417   6.295 -0.8691  0.2836  0.8413
   60SAPC   H7Y 4670   2.694   3.366   6.298  0.3256  3.6117  1.1926
   60SAPC   C38 4671   2.798   3.362   6.094  0.1205  0.0286  0.4311
   60SAPC   H8X 4672   2.733   3.448   6.068 -1.9865 -0.8883  2.2681
   60SAPC   H8Y 4673   2.755   3.264   6.062 -2.0793 -0.5718  4.4873
   60SAPC   C39 4674   2.936   3.400   6.029  0.9610 -0.6002  0.1413
   60SAPC   H9X 4675   3.019   3.337   6.069  0.0946 -3.0292 -1.6451
   60SAPC   H9Y 4676   2.963   3.495   6.080  2.0700 -1.4212  1.1504
   60SAPC  C310 4677   2.941   3.433   5.877 -0.3463  0.0719 -0.0367
   60SAPC  H10X 4678   3.024   3.506   5.872 -1.0461  0.8783 -0.1743
   60SAPC  H10Y 4679   2.853   3.496   5.850 -1.1105 -1.4588 -1.2805
   60SAPC  C311 4680   2.961   3.313   5.773 -0.0288  0.4111  0.1717
   60SAPC  H11X 4681   2.886   3.232   5.788  1.2655 -0.5713  1.7819
   60SAPC  H11Y 4682   3.057   3.272   5.813 -0.1121  0.0562  0.0087
   60SAPC  C312 4683   2.980   3.351   5.619 -0.5044  0.4995  0.3421
   60SAPC  H12X 4684   3.026   3.451   5.600  1.3537 -0.1764  1.0335
   60SAPC  H12Y 4685   2.888   3.345   5.558 -0.0008  0.7090 -0.4548
   60SAPC  C313 4686   3.072   3.244   5.541 -0.0575 -0.5001  0.8377
   60SAPC  H13X 4687   3.021   3.146   5.542 -1.5353  0.2288  2.2544
   60SAPC  H13Y 4688   3.166   3.238   5.600  0.6829  0.2611 -0.2291
   60SAPC  C314 4689   3.061   3.273   5.384 -0.1555 -0.0341 -0.7935
   60SAPC  H14X 4690   2.952   3.283   5.362 -0.4607 -0.4639  0.4146
   60SAPC  H14Y 4691   3.109   3.200   5.316  0.3397 -0.9246  0.4643
   60SAPC  C315 4692   3.130   3.401   5.346  0.2526  0.9825  0.0037
   60SAPC  H15X 4693   3.222   3.406   5.408  0.8293  0.3269 -0.7898
   60SAPC  H15Y 4694   3.065   3.485   5.380 -2.9271 -1.6202  0.7710
   60SAPC  C316 4695   3.148   3.410   5.196  0.5767 -0.4591 -0.0372
   60SAPC  H16X 4696   3.055   3.387   5.139  0.5387 -0.8222  0.1679
   60SAPC  H16Y 4697   3.233   3.339   5.186 -0.1685 -1.4159  0.1828
   60SAPC  C317 4698   3.192   3.549   5.151 -0.3203 -0.3481  0.2174
   60SAPC  H17X 4699   3.116   3.619   5.192  0.5830  2.0618 -1.9098
   60SAPC  H17Y 4700   3.179   3.552   5.040  0.7881  1.1857  0.1006
   60SAPC  C318 4701   3.337   3.585   5.187  0.0400 -0.8668  0.5797
   60SAPC  H18X 4702   3.348   3.603   5.296  0.1132 -3.5009  1.0659
   60SAPC  H18Y 4703   3.368   3.673   5.127  2.4064 -1.1626  1.3065
   60SAPC  H18Z 4704   3.409   3.506   5.156  0.9640  0.5765 -1.1756
   61SAPC     N 4705   1.455   3.280   7.739 -0.2131  0.6770  0.3411
   61SAPC   C12 4706   1.357   3.209   7.646  0.3430 -0.2023 -1.0563
   61SAPC  H12A 4707   1.269   3.272   7.640 -2.1765 -3.5009 -1.7374
   61SAPC  H12B 4708   1.328   3.110   7.679  2.7296 -1.4418 -2.4301
   61SAPC   C13 4709   1.565   3.186   7.775 -1.1903  0.1761 -0.0672
   61SAPC  H13A 4710   1.535   3.091   7.817  1.4671 -1.0981 -0.7973
   61SAPC  H13B 4711   1.602   3.150   7.680 -2.1390  0.1661 -0.4415
   61SAPC  H13C 4712   1.634   3.236   7.842 -1.6178  0.1283  0.4208
   61SAPC   C14 4713   1.495   3.412   7.686  0.5112  0.0851 -0.8665
   61SAPC  H14A 4714   1.413   3.477   7.659 -1.5962 -1.2542  1.7916
   61SAPC  H14B 4715   1.551   3.474   7.755  0.3427 -0.3540 -0.3222
   61SAPC  H14C 4716   1.552   3.398   7.596 -0.6750 -1.6681 -1.3900
   61SAPC   C15 4717   1.377   3.299   7.865  0.4663 -0.1021 -0.2569
   61SAPC  H15A 4718   1.284   3.352   7.848  0.3459 -0.5575 -1.0898
   61SAPC  H15B 4719   1.360   3.198   7.902 -1.0564 -1.1378 -3.3876
   61SAPC  H15C 4720   1.439   3.355   7.932  3.0611  1.6914 -3.8318
   61SAPC   C11 4721   1.396   3.190   7.499  0.5259 -0.6818 -0.4107
   61SAPC  H11A 4722   1.398   3.292   7.456  0.5033  0.0150  1.1641
   61SAPC  H11B 4723   1.310   3.140   7.450  0.3214  0.4384 -1.2248
   61SAPC     P 4724   1.520   2.965   7.489 -0.5708  0.1415 -0.2660
   61SAPC   O13 4725   1.660   2.918   7.467 -0.0552  0.2088  0.6204
   61SAPC   O14 4726   1.466   2.927   7.619 -0.4276 -0.3597  0.0384
   61SAPC   O12 4727   1.518   3.130   7.475 -0.3831  0.0838 -0.2111
   61SAPC   O11 4728   1.429   2.917   7.381 -0.5908 -0.3194  0.5574
   61SAPC    C1 4729   1.419   2.964   7.244  0.2664 -0.0080  0.8170
   61SAPC    HA 4730   1.374   2.882   7.184  1.6712 -1.3736  1.5503
   61SAPC    HB 4731   1.356   3.054   7.229  2.4104  1.2495 -1.2080
   61SAPC    C2 4732   1.551   3.006   7.171  0.2506 -0.3053 -0.0552
   61SAPC    HS 4733   1.609   3.072   7.238 -0.6090  3.0245 -2.3338
   61SAPC   O21 4734   1.517   3.073   7.052  0.3056  0.6173  0.2543
   61SAPC   C21 4735   1.616   3.141   6.992  0.1748  0.0459 -0.0390
   61SAPC   O22 4736   1.727   3.154   7.040 -0.4708  0.3592  0.2205
   61SAPC   C22 4737   1.561   3.184   6.858 -1.0201  0.5277  0.0346
   61SAPC   H2R 4738   1.461   3.135   6.854  0.2862 -2.3559 -0.1152
   61SAPC   H2S 4739   1.550   3.294   6.853  0.8924  0.7332 -0.0961
   61SAPC    C3 4740   1.641   2.886   7.124  0.1462 -0.0363 -0.2090
   61SAPC    HX 4741   1.677   2.833   7.214  0.3050  2.5666  1.3447
   61SAPC    HY 4742   1.731   2.925   7.072 -0.6457 -0.0360 -1.6415
   61SAPC   O31 4743   1.565   2.786   7.052 -0.0064  0.1892  0.0099
   61SAPC   C31 4744   1.591   2.780   6.927 -0.4981 -0.0687  0.4796
   61SAPC   O32 4745   1.671   2.853   6.864 -0.1775  0.1659 -0.1009
   61SAPC   C32 4746   1.519   2.662   6.865 -0.2856  0.3990  0.3990
   61SAPC   H2X 4747   1.519   2.583   6.942  1.3111  1.1998  1.2712
   61SAPC   H2Y 4748   1.574   2.616   6.780  0.0003  0.7069  0.4130
   61SAPC   C23 4749   1.642   3.143   6.737 -0.8802  0.0444  0.2103
   61SAPC   H3R 4750   1.591   3.156   6.639 -1.1816 -0.2717  0.3210
   61SAPC   H3S 4751   1.666   3.036   6.721 -0.6914 -0.2773  2.3710
   61SAPC   C24 4752   1.773   3.228   6.725 -0.5458 -0.3961  0.2165
   61SAPC   H4R 4753   1.840   3.185   6.647 -2.4633 -0.2707 -1.5818
   61SAPC   H4S 4754   1.823   3.213   6.823  2.7122  3.0243 -0.7076
   61SAPC   C25 4755   1.746   3.374   6.696 -0.1863 -0.2113 -0.2780
   61SAPC   H5R 4756   1.666   3.421   6.756 -1.6545 -2.2802 -0.5058
   61SAPC   C26 4757   1.790   3.443   6.591 -0.3644  0.1234 -0.5260
   61SAPC   H6R 4758   1.766   3.550   6.588 -0.7399  0.0448 -2.9792
   61SAPC   C27 4759   1.894   3.403   6.491 -0.9875  0.7849 -0.4082
   61SAPC   H7R 4760   1.967   3.344   6.550  0.3178  2.1234 -0.6295
   61SAPC   H7S 4761   1.936   3.494   6.445 -1.2349  0.0990 -2.0541
   61SAPC   C28 4762   1.826   3.315   6.384  0.0040 -0.2102  0.2092
   61SAPC   H8R 4763   1.797   3.210   6.403  1.1164 -0.7957 -1.2041
   61SAPC   C29 4764   1.802   3.370   6.264 -0.5667 -0.2944  0.7201
   61SAPC   H9R 4765   1.741   3.311   6.194 -0.7372 -0.7961  1.2776
   61SAPC  C210 4766   1.821   3.510   6.216 -0.0263 -0.2546  0.4931
   61SAPC  H10R 4767   1.864   3.564   6.304  0.4576  0.5559 -0.2243
   61SAPC  H10S 4768   1.719   3.555   6.211  0.3198  0.4092 -1.5991
   61SAPC  C211 4769   1.917   3.535   6.103 -0.2077  0.2942  0.8837
   61SAPC  H11R 4770   2.018   3.493   6.114 -0.6822 -0.9129  0.8136
   61SAPC  C212 4771   1.887   3.602   5.988 -0.7250  0.4515 -0.0271
   61SAPC  H12R 4772   1.967   3.614   5.914 -0.2433 -2.5163 -0.1281
   61SAPC  C213 4773   1.761   3.683   5.963  0.3155 -0.0102  0.4917
   61SAPC  H13R 4774   1.688   3.664   6.045  0.6150 -2.5857  0.2562
   61SAPC  H13S 4775   1.713   3.628   5.880  2.9349 -1.8278  0.0432
   61SAPC  C214 4776   1.775   3.829   5.927  0.3564  0.2934  0.1915
   61SAPC  H14R 4777   1.819   3.887   6.010  2.1387 -0.1881 -0.3730
   61SAPC  C215 4778   1.759   3.884   5.810  0.3976 -0.0411  0.9537
   61SAPC  H15R 4779   1.771   3.993   5.798  0.4812 -0.2581 -1.5062
   61SAPC  C216 4780   1.726   3.805   5.688 -0.0255 -0.1481  0.7882
   61SAPC  H16R 4781   1.672   3.867   5.613 -1.6966 -2.6770 -0.2263
   61SAPC  H16S 4782   1.659   3.718   5.706  0.1327 -0.3628  0.3354
   61SAPC  C217 4783   1.829   3.739   5.600 -0.5951  0.4918 -0.0805
   61SAPC  H17R 4784   1.908   3.690   5.661  0.5878 -0.0304 -1.9443
   61SAPC  H17S 4785   1.868   3.828   5.545 -1.9230  0.2467 -1.4963
   61SAPC  C218 4786   1.768   3.640   5.498 -0.2801  0.5671  0.0079
   61SAPC  H18R 4787   1.674   3.674   5.448  0.0232 -0.3008 -1.1900
   61SAPC  H18S 4788   1.744   3.546   5.551  2.0252  0.9291  1.8452
   61SAPC  C219 4789   1.879   3.638   5.388  1.3577  0.3014  0.1712
   61SAPC  H19R 4790   1.967   3.586   5.432  1.1019  0.8126  1.3094
   61SAPC  H19S 4791   1.914   3.740   5.364 -1.4615  1.7110  1.6034
   61SAPC  C220 4792   1.834   3.566   5.252  0.0219  0.0869  0.3811
   61SAPC  H20R 4793   1.910   3.579   5.172 -0.0087 -2.9819 -0.2790
   61SAPC  H20S 4794   1.739   3.615   5.222 -0.5617 -0.6800  0.9288
   61SAPC  H20T 4795   1.799   3.463   5.275 -0.7518  0.3976  0.6580
   61SAPC   C33 4796   1.368   2.695   6.836 -0.6795  0.0260  0.0805
   61SAPC   H3X 4797   1.329   2.738   6.931 -0.1310  1.1831 -0.1901
   61SAPC   H3Y 4798   1.315   2.601   6.809  1.7273 -1.5263  0.5003
   61SAPC   C34 4799   1.352   2.794   6.722  0.0845 -0.2907 -0.0051
   61SAPC   H4X 4800   1.370   2.899   6.756  0.8808 -0.2986 -0.3739
   61SAPC   H4Y 4801   1.246   2.792   6.690  0.0591  0.3522  0.0270
   61SAPC   C35 4802   1.452   2.771   6.603 -0.7562 -0.2892 -0.6309
   61SAPC   H5X 4803   1.458   2.662   6.581  0.2477 -0.4047  0.1085
   61SAPC   H5Y 4804   1.554   2.810   6.624  0.0594 -1.0658 -2.8734
   61SAPC   C36 4805   1.418   2.844   6.474 -0.6160 -0.3145  0.2170
   61SAPC   H6X 4806   1.388   2.948   6.496  2.0544  0.5234  0.1718
   61SAPC   H6Y 4807   1.329   2.790   6.434 -1.4039  1.7674 -0.9645
   61SAPC   C37 4808   1.534   2.850   6.372 -0.3715  0.4069 -0.2311
   61SAPC   H7X 4809   1.559   2.748   6.336 -2.1317 -0.1247 -0.0718
   61SAPC   H7Y 4810   1.631   2.876   6.418 -0.6820  0.2191  0.5370
   61SAPC   C38 4811   1.521   2.952   6.254 -0.1102  0.1093  0.4071
   61SAPC   H8X 4812   1.612   3.015   6.249 -1.1382  1.5318 -2.0216
   61SAPC   H8Y 4813   1.445   3.026   6.286  0.9010 -0.0791  3.5889
   61SAPC   C39 4814   1.494   2.886   6.125  0.3935  0.0933 -0.1547
   61SAPC   H9X 4815   1.572   2.808   6.110 -0.7793 -0.9215 -1.2308
   61SAPC   H9Y 4816   1.505   2.961   6.043  0.3924  1.1439  0.7932
   61SAPC  C310 4817   1.361   2.821   6.121  0.4768  0.0540  0.3400
   61SAPC  H10X 4818   1.283   2.900   6.124  1.1763  0.7940 -0.5666
   61SAPC  H10Y 4819   1.343   2.765   6.216  1.5950  0.4075  0.7728
   61SAPC  C311 4820   1.335   2.741   5.998  0.4299 -0.4340  0.1169
   61SAPC  H11X 4821   1.227   2.716   5.995  0.6061 -1.1556 -2.0913
   61SAPC  H11Y 4822   1.380   2.639   6.000 -0.8152 -1.0056  0.0716
   61SAPC  C312 4823   1.376   2.804   5.862  0.0153  0.8907  0.3742
   61SAPC  H12X 4824   1.487   2.808   5.865  0.2801 -3.0083  0.0322
   61SAPC  H12Y 4825   1.329   2.905   5.866 -1.3264  0.2611  1.1507
   61SAPC  C313 4826   1.338   2.712   5.746  0.1909  0.2954 -0.4890
   61SAPC  H13X 4827   1.228   2.706   5.732  0.1874  1.2687 -0.9773
   61SAPC  H13Y 4828   1.382   2.611   5.758  1.3109  0.6359 -1.5015
   61SAPC  C314 4829   1.382   2.756   5.608 -0.2291  0.0431  0.1302
   61SAPC  H14X 4830   1.482   2.800   5.626 -0.2954  1.1582 -1.9377
   61SAPC  H14Y 4831   1.317   2.837   5.569  0.4643 -0.3803 -2.0630
   61SAPC  C315 4832   1.394   2.660   5.496 -0.0780  0.1494 -0.1098
   61SAPC  H15X 4833   1.293   2.618   5.477  0.7519 -2.0416  0.0455
   61SAPC  H15Y 4834   1.462   2.576   5.524 -1.3168 -0.6969  0.4800
   61SAPC  C316 4835   1.440   2.718   5.360 -0.6872 -0.2812  0.0375
   61SAPC  H16X 4836   1.540   2.763   5.380 -0.7015 -0.9506  1.7726
   61SAPC  H16Y 4837   1.369   2.793   5.320 -0.6845 -0.5519 -0.4779
   61SAPC  C317 4838   1.450   2.615   5.247  0.2631 -0.0083  1.0590
   61SAPC  H17X 4839   1.346   2.577   5.235 -0.4407  1.7187  1.2874
   61SAPC  H17Y 4840   1.510   2.539   5.300  1.0425  1.0689  1.7622
   61SAPC  C318 4841   1.510   2.668   5.117  0.5552 -0.5171  0.4414
   61SAPC  H18X 4842   1.542   2.589   5.046  1.7685  0.3220  0.0083
   61SAPC  H18Y 4843   1.606   2.720   5.139 -1.1285  3.0087  0.1758
   61SAPC  H18Z 4844   1.441   2.739   5.067 -0.5444 -1.9485 -0.1580
   62SAPC     N 4845   3.006   0.863   7.437  0.4036 -0.3461  0.3444
   62SAPC   C12 4846   2.941   0.810   7.561  0.6848  0.0003  0.7295
   62SAPC  H12A 4847   2.905   0.895   7.616  1.9404  1.5317 -0.6807
   62SAPC  H12B 4848   3.017   0.756   7.616 -0.3841 -0.7246  1.5318
   62SAPC   C13 4849   3.119   0.955   7.467  0.8676 -0.1184  0.4208
   62SAPC  H13A 4850   3.193   0.894   7.518 -1.1411 -2.7548  0.3974
   62SAPC  H13B 4851   3.159   0.993   7.374  1.0087  1.1408  0.9780
   62SAPC  H13C 4852   3.091   1.039   7.528  1.5784  1.5691 -1.4774
   62SAPC   C14 4853   3.067   0.749   7.363 -0.2159 -0.0358  0.2934
   62SAPC  H14A 4854   3.115   0.788   7.274 -1.5614  2.1803  0.4527
   62SAPC  H14B 4855   3.145   0.698   7.417 -0.4309  1.0049  1.6635
   62SAPC  H14C 4856   2.995   0.678   7.328 -0.4867  0.3466  0.0604
   62SAPC   C15 4857   2.907   0.942   7.351 -0.5551  0.1164 -0.0970
   62SAPC  H15A 4858   2.949   0.972   7.256  1.2278 -0.2946  0.5347
   62SAPC  H15B 4859   2.818   0.884   7.335 -0.6417 -0.1443  1.2640
   62SAPC  H15C 4860   2.880   1.035   7.399  0.0764  0.1274  0.2457
   62SAPC   C11 4861   2.827   0.698   7.531 -0.7718  0.3392 -0.1491
   62SAPC  H11A 4862   2.791   0.648   7.623 -0.2998 -0.3296 -0.3234
   62SAPC  H11B 4863   2.868   0.610   7.476 -2.7389 -0.7793  0.0556
   62SAPC     P 4864   2.608   0.831   7.538 -0.1648  0.3556 -0.3005
   62SAPC   O13 4865   2.525   0.732   7.611 -0.1365 -0.3956 -0.2314
   62SAPC   O14 4866   2.665   0.941   7.617  0.0549 -0.6752  0.2404
   62SAPC   O12 4867   2.716   0.747   7.453  0.3046 -0.1252  0.2060
   62SAPC   O11 4868   2.507   0.888   7.429  0.5577  0.5115 -0.3518
   62SAPC    C1 4869   2.466   0.811   7.313 -0.1304 -0.1019  1.1342
   62SAPC    HA 4870   2.511   0.710   7.323 -0.1446 -0.0537  1.7198
   62SAPC    HB 4871   2.355   0.807   7.307 -0.1690 -2.0322  2.2362
   62SAPC    C2 4872   2.530   0.882   7.181  0.1724 -0.1835 -0.1553
   62SAPC    HS 4873   2.637   0.857   7.170  0.4285  0.9309 -0.3643
   62SAPC   O21 4874   2.502   1.026   7.177  0.4257 -0.2366  0.0499
   62SAPC   C21 4875   2.601   1.107   7.139 -0.0065 -0.1109 -0.2410
   62SAPC   O22 4876   2.711   1.075   7.110 -0.5349  0.4433  0.9459
   62SAPC   C22 4877   2.537   1.248   7.146  0.2485 -0.1491  0.1634
   62SAPC   H2R 4878   2.428   1.235   7.128  0.3660 -1.5710  0.3800
   62SAPC   H2S 4879   2.530   1.281   7.252  0.6863  2.1124 -0.4582
   62SAPC    C3 4880   2.462   0.820   7.062  0.0364  0.3185 -0.2824
   62SAPC    HX 4881   2.354   0.827   7.087  0.3037  2.4017  0.4830
   62SAPC    HY 4882   2.498   0.716   7.055  0.9881  0.5804  0.5015
   62SAPC   O31 4883   2.483   0.892   6.938  0.5777  0.1345 -0.6919
   62SAPC   C31 4884   2.587   0.862   6.867 -0.4447  0.8673 -0.6579
   62SAPC   O32 4885   2.681   0.788   6.905 -0.3830 -0.7977 -0.4968
   62SAPC   C32 4886   2.593   0.938   6.736  0.1506  0.1247 -0.3711
   62SAPC   H2X 4887   2.602   1.046   6.757  1.5605  0.0374 -0.4324
   62SAPC   H2Y 4888   2.495   0.922   6.684 -1.6587  1.7687  2.2877
   62SAPC   C23 4889   2.607   1.350   7.053 -0.0941 -0.3379 -0.1244
   62SAPC   H3R 4890   2.717   1.351   7.069 -0.0462 -1.7798 -0.2022
   62SAPC   H3S 4891   2.576   1.455   7.074 -0.1987 -0.7007  1.7193
   62SAPC   C24 4892   2.591   1.338   6.902 -0.2934 -0.2831  0.4304
   62SAPC   H4R 4893   2.633   1.239   6.875 -1.0392 -0.1556 -1.3161
   62SAPC   H4S 4894   2.653   1.418   6.855 -0.9875 -1.2201 -2.2727
   62SAPC   C25 4895   2.453   1.351   6.852  0.7604  0.1997 -1.1739
   62SAPC   H5R 4896   2.390   1.408   6.923 -3.0109 -1.8923 -2.5256
   62SAPC   C26 4897   2.417   1.338   6.730  0.2762  0.1392  0.4118
   62SAPC   H6R 4898   2.316   1.370   6.702  0.5365  0.9741  0.3768
   62SAPC   C27 4899   2.501   1.283   6.619 -0.5305 -0.0942  0.2460
   62SAPC   H7R 4900   2.442   1.225   6.546 -1.1724  0.9939 -0.1311
   62SAPC   H7S 4901   2.583   1.221   6.661 -0.3166  0.9054  1.3678
   62SAPC   C28 4902   2.565   1.401   6.550  0.0913 -0.0304 -0.2258
   62SAPC   H8R 4903   2.645   1.448   6.609 -1.5786  1.8406  0.6444
   62SAPC   C29 4904   2.563   1.434   6.422  0.1152 -0.4403 -0.3548
   62SAPC   H9R 4905   2.611   1.527   6.390  2.3644 -1.1645  0.7171
   62SAPC  C210 4906   2.479   1.371   6.313 -0.2380  0.6446  0.1333
   62SAPC  H10R 4907   2.391   1.432   6.284 -0.6377  0.0186  0.0127
   62SAPC  H10S 4908   2.423   1.282   6.351 -1.2066  0.9614 -0.5178
   62SAPC  C211 4909   2.564   1.335   6.191  0.2001  0.0744 -0.7028
   62SAPC  H11R 4910   2.657   1.280   6.215  0.1168  0.0841 -0.3429
   62SAPC  C212 4911   2.543   1.380   6.064  0.2446 -0.0889 -0.2842
   62SAPC  H12R 4912   2.604   1.343   5.980 -1.3451 -0.0342 -1.5136
   62SAPC  C213 4913   2.415   1.453   6.034  0.0759  1.1695 -0.0731
   62SAPC  H13R 4914   2.424   1.561   6.060  0.8894  0.8926  0.8412
   62SAPC  H13S 4915   2.320   1.409   6.072  1.3902 -0.1804  1.8473
   62SAPC  C214 4916   2.402   1.468   5.882 -0.1290 -0.9380  0.1801
   62SAPC  H14R 4917   2.439   1.563   5.842 -1.1384  0.3684  2.2072
   62SAPC  C215 4918   2.365   1.370   5.790  0.3861  0.3811 -0.2207
   62SAPC  H15R 4919   2.372   1.406   5.686  1.0740  4.0352  0.9633
   62SAPC  C216 4920   2.301   1.236   5.821 -0.2951 -0.6155  0.1802
   62SAPC  H16R 4921   2.308   1.213   5.929  0.0836  2.4859  0.9043
   62SAPC  H16S 4922   2.353   1.154   5.766 -1.0446 -1.2988  0.4636
   62SAPC  C217 4923   2.159   1.256   5.746 -0.4912 -0.3408  0.1153
   62SAPC  H17R 4924   2.156   1.309   5.649 -0.7157 -0.5499  0.0050
   62SAPC  H17S 4925   2.097   1.307   5.824 -2.8347  0.0228 -1.8479
   62SAPC  C218 4926   2.090   1.116   5.743  0.4597  0.3711  0.1545
   62SAPC  H18R 4927   2.093   1.075   5.847 -1.0231 -2.2432 -0.7595
   62SAPC  H18S 4928   2.149   1.055   5.672  1.0519  1.4830 -0.3416
   62SAPC  C219 4929   1.941   1.117   5.693 -0.3089  0.3911 -0.3533
   62SAPC  H19R 4930   1.903   1.016   5.719 -1.5982  1.2344  1.2614
   62SAPC  H19S 4931   1.942   1.136   5.584  2.2822 -1.4941 -0.7526
   62SAPC  C220 4932   1.848   1.219   5.760  0.6471 -0.5454  0.1664
   62SAPC  H20R 4933   1.892   1.321   5.770  0.6211 -0.5768  0.6366
   62SAPC  H20S 4934   1.829   1.195   5.867  0.4641  2.4493  0.8979
   62SAPC  H20T 4935   1.750   1.220   5.706  0.6424  1.7212  0.0905
   62SAPC   C33 4936   2.714   0.899   6.647  0.4596  0.0053 -0.6005
   62SAPC   H3X 4937   2.731   0.791   6.624 -0.5428  0.1392 -2.0958
   62SAPC   H3Y 4938   2.802   0.934   6.705  0.6408 -0.6159 -0.4930
   62SAPC   C34 4939   2.706   0.971   6.514 -0.0070  0.2982  0.3194
   62SAPC   H4X 4940   2.807   1.000   6.479  0.2447  0.6509  1.2993
   62SAPC   H4Y 4941   2.649   1.066   6.529  1.4431  0.7351  4.3791
   62SAPC   C35 4942   2.645   0.886   6.400  0.2957 -0.4346 -0.3297
   62SAPC   H5X 4943   2.543   0.862   6.437 -0.3541 -0.0569 -1.8349
   62SAPC   H5Y 4944   2.715   0.801   6.386  1.2174  0.5675 -2.1142
   62SAPC   C36 4945   2.626   0.953   6.264  0.0220 -0.5699 -0.5233
   62SAPC   H6X 4946   2.716   1.011   6.236  1.2812 -2.1321  0.0775
   62SAPC   H6Y 4947   2.535   1.015   6.277 -1.4647 -3.0097  1.7738
   62SAPC   C37 4948   2.594   0.851   6.153  0.5662  0.2920  0.7493
   62SAPC   H7X 4949   2.502   0.798   6.186  1.5689 -1.4648  0.8434
   62SAPC   H7Y 4950   2.684   0.786   6.147  0.0354 -0.6578  2.3244
   62SAPC   C38 4951   2.562   0.906   6.018 -0.0994 -0.3709  0.2577
   62SAPC   H8X 4952   2.649   0.962   5.976  0.8823 -3.0422 -1.5642
   62SAPC   H8Y 4953   2.469   0.967   6.018  1.5275  2.2825  1.0166
   62SAPC   C39 4954   2.535   0.792   5.921 -0.2853  0.2861  0.2195
   62SAPC   H9X 4955   2.457   0.727   5.967  0.6648 -1.1277 -0.1186
   62SAPC   H9Y 4956   2.624   0.727   5.914  0.2087  1.1340 -2.7758
   62SAPC  C310 4957   2.488   0.826   5.777  0.7041 -0.2600  0.5441
   62SAPC  H10X 4958   2.548   0.912   5.740  1.1858 -0.7391  0.1980
   62SAPC  H10Y 4959   2.384   0.863   5.763 -0.5529 -3.7241 -0.1622
   62SAPC  C311 4960   2.509   0.714   5.673  0.0393 -0.4803 -0.2993
   62SAPC  H11X 4961   2.457   0.624   5.711 -0.2171 -0.0116  0.4953
   62SAPC  H11Y 4962   2.614   0.676   5.673  0.1410 -0.2025 -0.2352
   62SAPC  C312 4963   2.480   0.764   5.533 -0.7158 -0.1984  0.1547
   62SAPC  H12X 4964   2.538   0.857   5.517 -0.0750 -0.6624 -0.2914
   62SAPC  H12Y 4965   2.370   0.778   5.529 -1.1639 -2.8809  0.9643
   62SAPC  C313 4966   2.531   0.661   5.432 -0.6668 -0.7631  0.0438
   62SAPC  H13X 4967   2.475   0.568   5.456 -0.0215 -0.6511  2.2885
   62SAPC  H13Y 4968   2.635   0.635   5.462 -0.4495 -0.0734 -0.1038
   62SAPC  C314 4969   2.539   0.725   5.293 -0.2981  0.4416 -0.4105
   62SAPC  H14X 4970   2.609   0.811   5.291 -0.8138  0.8628 -0.6554
   62SAPC  H14Y 4971   2.437   0.764   5.272 -0.5517 -0.5532 -1.0918
   62SAPC  C315 4972   2.575   0.612   5.196 -0.9982 -0.0455 -0.3584
   62SAPC  H15X 4973   2.546   0.640   5.092  0.6676  1.7704 -0.3994
   62SAPC  H15Y 4974   2.528   0.521   5.237  2.1767 -0.2047  3.5431
   62SAPC  C316 4975   2.721   0.581   5.196 -0.2337  0.2698  0.1788
   62SAPC  H16X 4976   2.754   0.573   5.302  0.3509 -3.0621 -0.1440
   62SAPC  H16Y 4977   2.780   0.660   5.144  0.0644  0.0363  0.1616
   62SAPC  C317 4978   2.751   0.454   5.123  0.4904  0.5499 -0.3333
   62SAPC  H17X 4979   2.703   0.440   5.024 -2.3008 -0.8272  1.0914
   62SAPC  H17Y 4980   2.697   0.370   5.174 -2.9617  2.1115 -1.1154
   62SAPC  C318 4981   2.903   0.421   5.104  0.3086 -1.1217  0.1807
   62SAPC  H18X 4982   2.948   0.503   5.044  1.3385 -0.6262  1.5750
   62SAPC  H18Y 4983   2.931   0.329   5.049  0.2057 -1.5035  0.7543
   62SAPC  H18Z 4984   2.961   0.426   5.199  3.0565 -0.8680 -1.3843
   63SAPC     N 4985   5.045   4.289   7.438  0.2911  1.2368  0.2785
   63SAPC   C12 4986   4.973   4.256   7.304 -0.6400  0.1116 -0.1465
   63SAPC  H12A 4987   4.914   4.345   7.285  1.0835  1.1452 -0.8318
   63SAPC  H12B 4988   4.915   4.167   7.322 -0.8701  0.4903  1.1085
   63SAPC   C13 4989   4.935   4.325   7.539  0.5400  0.0992  0.2241
   63SAPC  H13A 4990   4.877   4.236   7.558 -1.4035  0.6634 -2.4254
   63SAPC  H13B 4991   4.980   4.360   7.630  0.5767  0.2983  0.1301
   63SAPC  H13C 4992   4.872   4.402   7.496  2.3698  0.7425 -1.4629
   63SAPC   C14 4993   5.119   4.181   7.490  0.0737 -0.0705 -0.4671
   63SAPC  H14A 4994   5.210   4.174   7.432  0.8203  0.4799  0.5984
   63SAPC  H14B 4995   5.132   4.204   7.595  0.5039  1.6618 -0.8681
   63SAPC  H14C 4996   5.074   4.083   7.480 -0.5293  0.0587  0.7674
   63SAPC   C15 4997   5.148   4.398   7.419 -0.9180  0.1098 -0.6693
   63SAPC  H15A 4998   5.102   4.475   7.359 -2.1522 -1.1505 -1.4024
   63SAPC  H15B 4999   5.172   4.448   7.511 -2.2175  1.0401 -0.8118
   63SAPC  H15C 5000   5.231   4.356   7.363 -0.6355 -1.3116  0.7222
   63SAPC   C11 5001   5.058   4.223   7.175 -0.3254 -0.4262  0.2657
   63SAPC  H11A 5002   5.117   4.308   7.135 -0.0254 -0.0892  1.3851
   63SAPC  H11B 5003   4.985   4.203   7.094  1.4002 -1.0883 -1.1904
   63SAPC     P 5004   5.094   3.965   7.200 -0.1532 -0.1492 -0.4066
   63SAPC   O13 5005   5.180   3.903   7.300  0.3763  0.1540  0.3063
   63SAPC   O14 5006   4.948   3.969   7.231 -0.5074 -0.4293 -0.2513
   63SAPC   O12 5007   5.149   4.110   7.190 -0.3158 -0.1991  0.4953
   63SAPC   O11 5008   5.125   3.888   7.065 -0.3517  0.0823 -0.5679
   63SAPC    C1 5009   5.257   3.904   7.016 -0.1961 -0.6388  0.3545
   63SAPC    HA 5010   5.289   4.010   7.024 -1.6326  0.0276 -1.7611
   63SAPC    HB 5011   5.323   3.833   7.071 -2.0669 -1.3868  1.7151
   63SAPC    C2 5012   5.272   3.882   6.854  0.2128 -0.7163 -0.0719
   63SAPC    HS 5013   5.360   3.930   6.808 -1.4995 -0.3017 -3.1898
   63SAPC   O21 5014   5.157   3.941   6.790 -0.1724 -0.0044  0.0877
   63SAPC   C21 5015   5.160   4.068   6.780  0.3433 -0.2986  0.2984
   63SAPC   O22 5016   5.244   4.140   6.833  0.1845 -0.0106 -0.1048
   63SAPC   C22 5017   5.034   4.112   6.707  0.5385  0.3210  0.3394
   63SAPC   H2R 5018   4.992   4.026   6.652  0.0651  0.7621 -0.0021
   63SAPC   H2S 5019   4.954   4.154   6.771  0.8698  0.3550  0.7338
   63SAPC    C3 5020   5.279   3.737   6.816 -0.3294  0.6025  0.5217
   63SAPC    HX 5021   5.192   3.677   6.849  0.3339 -1.4682 -1.2942
   63SAPC    HY 5022   5.369   3.698   6.868 -0.4801 -1.6578 -0.7773
   63SAPC   O31 5023   5.302   3.715   6.669  0.3514 -0.5709  0.3311
   63SAPC   C31 5024   5.191   3.700   6.595 -0.1109 -0.4027 -0.0698
   63SAPC   O32 5025   5.077   3.700   6.638 -0.1178 -0.2970 -0.1633
   63SAPC   C32 5026   5.228   3.689   6.445  0.1377 -0.1496  0.0456
   63SAPC   H2X 5027   5.326   3.637   6.442 -0.2084 -0.7950 -0.1541
   63SAPC   H2Y 5028   5.221   3.795   6.414  0.8207 -0.3200 -0.7069
   63SAPC   C23 5029   5.075   4.212   6.597  0.0806  1.2535  0.2404
   63SAPC   H3R 5030   5.120   4.303   6.643 -1.4421  0.7719  2.9506
   63SAPC   H3S 5031   4.979   4.245   6.552 -0.2690 -1.7284 -1.4402
   63SAPC   C24 5032   5.162   4.173   6.475 -0.6328  0.6205  0.3123
   63SAPC   H4R 5033   5.259   4.133   6.510 -0.4857 -0.9898 -1.7818
   63SAPC   H4S 5034   5.186   4.264   6.418 -0.3857  0.3602 -0.0011
   63SAPC   C25 5035   5.112   4.058   6.389  0.2109 -0.3262 -0.8419
   63SAPC   H5R 5036   5.048   3.990   6.448  0.0596  0.8112  0.3577
   63SAPC   C26 5037   5.141   4.030   6.264 -0.4949  0.0384 -0.8138
   63SAPC   H6R 5038   5.100   3.936   6.225  1.3635 -1.0511 -0.2557
   63SAPC   C27 5039   5.246   4.098   6.187 -0.0364  0.0804 -0.2181
   63SAPC   H7R 5040   5.304   4.017   6.137  0.2411 -0.8844  1.5718
   63SAPC   H7S 5041   5.315   4.154   6.254 -0.1230  2.0632 -1.7056
   63SAPC   C28 5042   5.201   4.204   6.088  0.9165 -0.1017 -0.1608
   63SAPC   H8R 5043   5.180   4.303   6.131  0.0207  0.5862 -2.0982
   63SAPC   C29 5044   5.191   4.199   5.947  0.5220  0.2072 -0.8879
   63SAPC   H9R 5045   5.145   4.280   5.888  1.1449  1.1482 -0.0974
   63SAPC  C210 5046   5.237   4.082   5.864  0.5385 -0.1817 -0.1603
   63SAPC  H10R 5047   5.247   3.994   5.932 -2.7140  0.8046  1.8713
   63SAPC  H10S 5048   5.334   4.113   5.821 -0.4240  1.9697 -0.8812
   63SAPC  C211 5049   5.137   4.052   5.755 -0.3053  0.0478 -0.2627
   63SAPC  H11R 5050   5.032   4.054   5.789 -0.5845  0.1792 -1.1115
   63SAPC  C212 5051   5.156   4.036   5.617  0.3487 -0.6110 -0.2779
   63SAPC  H12R 5052   5.070   4.017   5.551  1.7460  0.9905 -2.6852
   63SAPC  C213 5053   5.297   4.056   5.555  0.0008 -0.0240 -0.5010
   63SAPC  H13R 5054   5.352   3.960   5.551  0.2323  0.0744  0.1603
   63SAPC  H13S 5055   5.362   4.127   5.611  1.0009 -0.8895 -0.5280
   63SAPC  C214 5056   5.278   4.105   5.410  0.0280  0.1772 -0.2740
   63SAPC  H14R 5057   5.210   4.034   5.361 -0.4699  0.5783 -0.1803
   63SAPC  C215 5058   5.318   4.220   5.355 -0.2553 -0.1436  0.4496
   63SAPC  H15R 5059   5.306   4.229   5.246  0.1514 -0.0176  0.4103
   63SAPC  C216 5060   5.407   4.329   5.412  0.2151  0.2916 -0.0698
   63SAPC  H16R 5061   5.501   4.345   5.355  0.4420 -2.3107 -0.5235
   63SAPC  H16S 5062   5.432   4.308   5.518  3.6106  0.2837 -0.7567
   63SAPC  C217 5063   5.345   4.464   5.415  0.4148  0.5528 -0.0656
   63SAPC  H17R 5064   5.399   4.523   5.492  0.3534 -1.0100  1.2172
   63SAPC  H17S 5065   5.251   4.450   5.473  0.1615 -1.8949 -0.9702
   63SAPC  C218 5066   5.332   4.532   5.280  0.0567  0.2490  0.0842
   63SAPC  H18R 5067   5.290   4.465   5.202 -1.1009 -3.2310  3.4021
   63SAPC  H18S 5068   5.435   4.543   5.238  0.2582  0.4042  0.6099
   63SAPC  C219 5069   5.254   4.662   5.269 -0.4850  0.2441 -0.0266
   63SAPC  H19R 5070   5.268   4.727   5.357 -0.8034  0.2700  0.0062
   63SAPC  H19S 5071   5.147   4.630   5.266  0.1513 -2.0710 -0.2851
   63SAPC  C220 5072   5.273   4.735   5.135 -0.8813  0.1975 -0.2241
   63SAPC  H20R 5073   5.210   4.827   5.132 -0.4884  0.4742 -0.1926
   63SAPC  H20S 5074   5.228   4.666   5.061 -2.0149  0.2993  0.3560
   63SAPC  H20T 5075   5.380   4.758   5.117 -0.5097 -0.0733  1.4331
   63SAPC   C33 5076   5.130   3.596   6.365  0.4116 -0.2516 -0.2170
   63SAPC   H3X 5077   5.021   3.610   6.384  0.3709  0.1086 -0.7147
   63SAPC   H3Y 5078   5.150   3.493   6.402  1.0472 -0.1307 -0.2094
   63SAPC   C34 5079   5.134   3.616   6.213 -0.3014  0.1332  0.2769
   63SAPC   H4X 5080   5.126   3.726   6.205 -2.8036 -0.0942 -2.2654
   63SAPC   H4Y 5081   5.041   3.581   6.162  1.0277 -1.4145 -1.2383
   63SAPC   C35 5082   5.263   3.572   6.150  0.0366  0.4196  0.3334
   63SAPC   H5X 5083   5.284   3.463   6.152  1.6983  0.6938  0.0709
   63SAPC   H5Y 5084   5.354   3.611   6.200 -0.8260  1.9534  0.7587
   63SAPC   C36 5085   5.276   3.611   6.008  0.4743 -0.1356  0.4597
   63SAPC   H6X 5086   5.280   3.721   5.996  0.3930 -0.1490  0.3113
   63SAPC   H6Y 5087   5.184   3.572   5.959  1.2546 -0.4253 -0.8325
   63SAPC   C37 5088   5.397   3.549   5.927  0.5769 -0.5347 -0.3493
   63SAPC   H7X 5089   5.405   3.441   5.951 -2.1027 -0.8072 -0.3816
   63SAPC   H7Y 5090   5.490   3.597   5.964 -0.3509  0.2197  1.0934
   63SAPC   C38 5091   5.384   3.560   5.774 -0.3708 -0.3390  0.3779
   63SAPC   H8X 5092   5.474   3.511   5.731  0.7034  1.8466 -0.0001
   63SAPC   H8Y 5093   5.388   3.665   5.737 -3.1775  0.4479  2.0035
   63SAPC   C39 5094   5.261   3.491   5.706  0.1217 -0.0182 -0.2060
   63SAPC   H9X 5095   5.173   3.541   5.752  0.8113  1.3267 -0.2726
   63SAPC   H9Y 5096   5.255   3.387   5.744  1.4097  0.2277  0.7335
   63SAPC  C310 5097   5.259   3.499   5.555 -0.2348  0.6457  0.6757
   63SAPC  H10X 5098   5.187   3.423   5.519  0.1644  0.8401 -0.6054
   63SAPC  H10Y 5099   5.361   3.484   5.513 -1.1408 -0.1867 -1.3655
   63SAPC  C311 5100   5.209   3.627   5.496  0.5230 -1.0598  1.1936
   63SAPC  H11X 5101   5.283   3.703   5.527  2.5043 -2.5995  0.4852
   63SAPC  H11Y 5102   5.115   3.654   5.549  0.8248 -0.2719  1.3267
   63SAPC  C312 5103   5.192   3.608   5.346 -0.2039 -0.8139  0.1374
   63SAPC  H12X 5104   5.094   3.558   5.331 -0.7683  0.3204 -0.0517
   63SAPC  H12Y 5105   5.274   3.547   5.301  1.0942  0.4645  0.6979
   63SAPC  C313 5106   5.188   3.752   5.285  0.4315  0.7019 -0.7995
   63SAPC  H13X 5107   5.285   3.805   5.292  0.3273  0.7676  0.2212
   63SAPC  H13Y 5108   5.121   3.810   5.351  0.1315  2.9507 -2.9341
   63SAPC  C314 5109   5.137   3.747   5.143 -0.4910 -0.4864 -0.0552
   63SAPC  H14X 5110   5.035   3.704   5.146 -0.4823 -0.6304 -1.4323
   63SAPC  H14Y 5111   5.200   3.692   5.070  0.3439  0.1782  0.1369
   63SAPC  C315 5112   5.140   3.894   5.084  0.3837 -0.7583  0.2981
   63SAPC  H15X 5113   5.245   3.925   5.099  0.9417 -1.1305 -2.2809
   63SAPC  H15Y 5114   5.070   3.959   5.141  1.2198 -0.1088  0.5912
   63SAPC  C316 5115   5.111   3.890   4.933  0.1170 -0.3543  0.2789
   63SAPC  H16X 5116   5.001   3.877   4.926 -0.0016 -0.3003  1.6745
   63SAPC  H16Y 5117   5.170   3.806   4.891 -0.6358 -0.1549 -1.2289
   63SAPC  C317 5118   5.152   4.017   4.865 -0.0197  0.1180  0.1787
   63SAPC  H17X 5119   5.092   4.089   4.925 -3.7693 -3.1879  0.7865
   63SAPC  H17Y 5120   5.112   4.023   4.762 -0.9299 -1.2088  0.4295
   63SAPC  C318 5121   5.300   4.045   4.853 -0.2963  0.8920  0.3884
   63SAPC  H18X 5122   5.343   4.066   4.953 -0.9712 -0.5637  1.0012
   63SAPC  H18Y 5123   5.314   4.135   4.789  1.5374  1.0791  0.9853
   63SAPC  H18Z 5124   5.348   3.961   4.799 -2.0613  0.6583 -0.8946
   64SAPC     N 5125   5.044   6.113   7.536  0.4045 -0.4252 -0.8177
   64SAPC   C12 5126   4.959   6.014   7.466  0.6176 -0.0204  0.1409
   64SAPC  H12A 5127   5.027   5.945   7.419  1.1805  1.0855 -0.7252
   64SAPC  H12B 5128   4.900   6.065   7.391  0.6444 -0.6616 -0.3262
   64SAPC   C13 5129   5.141   6.044   7.627 -0.0271 -0.5073 -0.4861
   64SAPC  H13A 5130   5.208   5.977   7.575  0.1434  1.1648 -2.5555
   64SAPC  H13B 5131   5.203   6.121   7.671 -2.5336  2.3031 -1.4864
   64SAPC  H13C 5132   5.092   5.987   7.705  1.0991 -0.5929  0.1765
   64SAPC   C14 5133   5.130   6.187   7.439 -0.0961  0.0614 -0.4375
   64SAPC  H14A 5134   5.070   6.255   7.381 -1.4917 -0.5005  0.2928
   64SAPC  H14B 5135   5.190   6.257   7.496 -0.5484  1.4952 -1.6548
   64SAPC  H14C 5136   5.195   6.119   7.387  0.3572 -0.6307  0.9840
   64SAPC   C15 5137   4.964   6.200   7.624  0.1883 -0.7036 -0.1758
   64SAPC  H15A 5138   5.007   6.239   7.715 -0.9725 -3.0263  1.4911
   64SAPC  H15B 5139   4.926   6.286   7.573 -2.9562 -1.4477  0.6749
   64SAPC  H15C 5140   4.875   6.150   7.661 -0.1393  1.3524  2.0599
   64SAPC   C11 5141   4.864   5.928   7.549 -0.0891 -0.7606 -0.2393
   64SAPC  H11A 5142   4.890   5.923   7.657  0.2707  1.8102 -0.1298
   64SAPC  H11B 5143   4.866   5.830   7.498  0.5677 -0.7248 -0.2944
   64SAPC     P 5144   4.610   5.944   7.450  0.0368  0.1643  0.0275
   64SAPC   O13 5145   4.530   5.841   7.532  0.0658 -0.9545  0.2405
   64SAPC   O14 5146   4.546   6.069   7.403  0.0002 -0.2136  0.5000
   64SAPC   O12 5147   4.736   5.990   7.539  0.4026  0.1442  0.3696
   64SAPC   O11 5148   4.673   5.869   7.327  0.2580  0.4779 -0.4142
   64SAPC    C1 5149   4.726   5.938   7.211  0.2366 -0.0933 -0.1134
   64SAPC    HA 5150   4.793   6.025   7.231  3.5493 -1.9225 -2.2380
   64SAPC    HB 5151   4.791   5.866   7.157 -0.8771  0.2000 -1.9297
   64SAPC    C2 5152   4.611   5.979   7.111  0.5729 -0.2070 -0.1177
   64SAPC    HS 5153   4.544   6.057   7.152 -2.0455 -2.0395 -0.6579
   64SAPC   O21 5154   4.533   5.851   7.085  0.7098 -0.3210  0.3044
   64SAPC   C21 5155   4.404   5.885   7.049 -0.0406 -1.3460  0.0283
   64SAPC   O22 5156   4.347   5.992   7.067  0.3678  0.6357 -0.0397
   64SAPC   C22 5157   4.341   5.761   6.989  0.6147 -0.1634  0.3160
   64SAPC   H2R 5158   4.408   5.709   6.918 -0.9635 -0.3720 -1.0999
   64SAPC   H2S 5159   4.312   5.692   7.072  1.2100 -0.7132  0.0712
   64SAPC    C3 5160   4.675   6.038   6.992 -0.2918 -0.2152 -0.1099
   64SAPC    HX 5161   4.740   6.124   7.021  0.9054 -0.6845 -1.2855
   64SAPC    HY 5162   4.591   6.075   6.930  0.5782  0.5662 -0.8670
   64SAPC   O31 5163   4.756   5.950   6.921  0.3297  0.3978  0.1974
   64SAPC   C31 5164   4.693   5.876   6.827  0.3719 -0.0387 -0.6771
   64SAPC   O32 5165   4.578   5.880   6.802  0.1890  0.1594 -0.1141
   64SAPC   C32 5166   4.804   5.796   6.755  0.1136 -1.0530  0.5078
   64SAPC   H2X 5167   4.767   5.691   6.753 -0.8810 -0.7097  0.4423
   64SAPC   H2Y 5168   4.902   5.800   6.808  0.8821  0.6681 -0.9152
   64SAPC   C23 5169   4.212   5.812   6.905 -0.8375  0.2609  0.0986
   64SAPC   H3R 5170   4.146   5.871   6.971  0.2371  3.3206 -1.3769
   64SAPC   H3S 5171   4.165   5.716   6.872  1.1097 -0.7008 -0.0444
   64SAPC   C24 5172   4.242   5.887   6.773  0.6704  0.8019 -0.2204
   64SAPC   H4R 5173   4.282   5.987   6.798 -0.7590  1.3155  0.1508
   64SAPC   H4S 5174   4.138   5.897   6.734 -0.6064 -4.6718  0.9379
   64SAPC   C25 5175   4.317   5.811   6.672  0.3508 -0.5070 -0.0688
   64SAPC   H5R 5176   4.402   5.751   6.707 -0.6044 -0.2275  3.0603
   64SAPC   C26 5177   4.293   5.800   6.539  0.3585  0.0820 -0.1083
   64SAPC   H6R 5178   4.362   5.742   6.477  1.9764  2.0231 -0.2446
   64SAPC   C27 5179   4.186   5.879   6.459  0.8476 -0.5600 -0.0131
   64SAPC   H7R 5180   4.165   5.967   6.523 -0.5305  0.0664 -1.2723
   64SAPC   H7S 5181   4.093   5.819   6.473 -0.4877  1.3111 -0.5553
   64SAPC   C28 5182   4.213   5.895   6.315 -0.2666 -0.1260  0.2314
   64SAPC   H8R 5183   4.316   5.914   6.283 -0.1378 -0.0980  0.6582
   64SAPC   C29 5184   4.126   5.876   6.219  0.5344 -0.0690  0.5831
   64SAPC   H9R 5185   4.159   5.874   6.114 -0.1797  0.6252  0.3388
   64SAPC  C210 5186   3.979   5.870   6.233 -0.3715 -0.0425  0.0397
   64SAPC  H10R 5187   3.950   5.948   6.307 -1.0398 -2.6707  2.7488
   64SAPC  H10S 5188   3.947   5.770   6.269  0.3359 -0.0016  0.8214
   64SAPC  C211 5189   3.905   5.915   6.107  0.6567 -0.7959 -0.5684
   64SAPC  H11R 5190   3.913   6.022   6.080 -0.6376  0.1767  2.4387
   64SAPC  C212 5191   3.863   5.838   6.008  0.5823 -0.9679 -0.3986
   64SAPC  H12R 5192   3.820   5.877   5.915  2.4020 -0.1499 -0.9479
   64SAPC  C213 5193   3.849   5.691   6.007 -0.2088  0.3735  0.0697
   64SAPC  H13R 5194   3.744   5.666   5.981 -0.3082  0.9602 -0.1138
   64SAPC  H13S 5195   3.867   5.648   6.108  0.5887  1.9723  0.6558
   64SAPC  C214 5196   3.958   5.641   5.923 -0.1635  0.1509  1.0560
   64SAPC  H14R 5197   4.064   5.647   5.952  1.5588 -1.4202 -3.8976
   64SAPC  C215 5198   3.933   5.596   5.797 -0.4332 -0.9437  0.2595
   64SAPC  H15R 5199   4.018   5.563   5.735 -0.9282 -1.3816 -0.1882
   64SAPC  C216 5200   3.804   5.588   5.725 -0.7378 -0.9655  0.1743
   64SAPC  H16R 5201   3.742   5.522   5.789 -1.5616  1.5963  2.1898
   64SAPC  H16S 5202   3.823   5.540   5.627 -0.7975  1.1595 -0.9428
   64SAPC  C217 5203   3.727   5.715   5.693  0.0493 -0.2534 -0.2236
   64SAPC  H17R 5204   3.694   5.773   5.782  2.1288 -0.3809  0.6765
   64SAPC  H17S 5205   3.633   5.692   5.638 -1.1079  0.1154  1.5342
   64SAPC  C218 5206   3.802   5.813   5.601 -0.0755 -0.1061  0.2912
   64SAPC  H18R 5207   3.846   5.755   5.518  2.4340  1.2474  0.6013
   64SAPC  H18S 5208   3.884   5.855   5.663 -0.5223 -0.0967  0.8926
   64SAPC  C219 5209   3.708   5.913   5.546 -0.3921  0.3865  0.3421
   64SAPC  H19R 5210   3.637   5.869   5.473  1.5494 -0.5747 -1.0603
   64SAPC  H19S 5211   3.757   5.986   5.477 -1.9973  0.9698 -0.2215
   64SAPC  C220 5212   3.641   6.004   5.651 -0.6068  0.8842  0.5652
   64SAPC  H20R 5213   3.590   6.091   5.606 -0.3181  0.9670  0.3981
   64SAPC  H20S 5214   3.719   6.035   5.723  0.1227 -0.6897  0.4887
   64SAPC  H20T 5215   3.568   5.949   5.715 -2.1813 -1.4536 -2.9235
   64SAPC   C33 5216   4.815   5.856   6.606  0.5449  0.1755  0.6553
   64SAPC   H3X 5217   4.919   5.843   6.571  0.7821 -2.1566  2.0331
   64SAPC   H3Y 5218   4.802   5.967   6.606  0.5208  0.2547 -2.6784
   64SAPC   C34 5219   4.716   5.779   6.517 -0.4618  0.5149  0.9991
   64SAPC   H4X 5220   4.612   5.806   6.545 -0.1472  0.6139  2.1367
   64SAPC   H4Y 5221   4.717   5.669   6.536 -0.9278  0.5388  1.1960
   64SAPC   C35 5222   4.726   5.821   6.371  0.1621 -0.4549  0.0613
   64SAPC   H5X 5223   4.825   5.808   6.323 -0.2434  1.7125 -1.5367
   64SAPC   H5Y 5224   4.701   5.929   6.357  1.4298 -0.3790 -1.9561
   64SAPC   C36 5225   4.623   5.745   6.290  0.4065  0.1304 -0.3904
   64SAPC   H6X 5226   4.530   5.719   6.344  0.5102  0.3231 -0.1119
   64SAPC   H6Y 5227   4.671   5.647   6.269  1.4020  0.6033 -0.3782
   64SAPC   C37 5228   4.586   5.816   6.170 -0.7532 -0.8687  0.0356
   64SAPC   H7X 5229   4.675   5.839   6.108  1.9330  0.4377  4.0006
   64SAPC   H7Y 5230   4.535   5.914   6.177 -0.1095 -0.5574  0.4531
   64SAPC   C38 5231   4.493   5.745   6.066 -0.5394 -0.4339 -0.1469
   64SAPC   H8X 5232   4.388   5.744   6.102 -0.6774  0.6879 -0.4831
   64SAPC   H8Y 5233   4.522   5.638   6.063 -2.4772 -1.0098  0.3539
   64SAPC   C39 5234   4.508   5.806   5.928  0.1236  0.3707 -0.2293
   64SAPC   H9X 5235   4.610   5.792   5.887 -0.5985 -0.4317 -1.8655
   64SAPC   H9Y 5236   4.496   5.916   5.935  1.5629  0.6208 -1.3425
   64SAPC  C310 5237   4.408   5.751   5.827  0.4931 -0.2239 -0.2457
   64SAPC  H10X 5238   4.426   5.803   5.731  0.2219 -1.4004 -0.9590
   64SAPC  H10Y 5239   4.313   5.786   5.872 -0.5853  0.4840 -2.8734
   64SAPC  C311 5240   4.393   5.599   5.805 -0.7373  0.0237 -0.2705
   64SAPC  H11X 5241   4.289   5.573   5.776 -0.4335 -1.2830 -0.2665
   64SAPC  H11Y 5242   4.406   5.546   5.902 -1.2361  0.5172  0.0738
   64SAPC  C312 5243   4.499   5.547   5.705  0.6467  0.4560 -0.1404
   64SAPC  H12X 5244   4.492   5.439   5.680  3.0288  0.3558 -0.6043
   64SAPC  H12Y 5245   4.592   5.576   5.758  0.4145  1.2141 -0.1421
   64SAPC  C313 5246   4.497   5.610   5.569 -0.4780  0.0409  0.1197
   64SAPC  H13X 5247   4.539   5.711   5.585  1.3901 -0.8115  0.8315
   64SAPC  H13Y 5248   4.390   5.623   5.540 -0.2606 -1.6901 -1.6256
   64SAPC  C314 5249   4.574   5.534   5.460 -1.0910 -0.1239 -0.8315
   64SAPC  H14X 5250   4.536   5.431   5.468 -1.7655  0.1533 -0.4325
   64SAPC  H14Y 5251   4.684   5.527   5.479 -1.0564 -1.0501 -1.3050
   64SAPC  C315 5252   4.546   5.584   5.323 -0.4720  0.1219  0.5865
   64SAPC  H15X 5253   4.567   5.691   5.306 -1.5759  0.4790  1.3107
   64SAPC  H15Y 5254   4.439   5.560   5.303  0.0388 -0.4504 -1.7329
   64SAPC  C316 5255   4.615   5.497   5.219  0.1282  0.5525  0.3606
   64SAPC  H16X 5256   4.581   5.537   5.121  0.8868 -2.5366 -1.2911
   64SAPC  H16Y 5257   4.576   5.393   5.224  1.2397  0.1067  0.0978
   64SAPC  C317 5258   4.769   5.488   5.212  0.7623  0.1972  0.1122
   64SAPC  H17X 5259   4.816   5.469   5.311  1.2213 -0.1987 -0.1809
   64SAPC  H17Y 5260   4.810   5.587   5.183  2.2525 -0.7755 -1.3117
   64SAPC  C318 5261   4.814   5.380   5.104 -0.4422  0.1330  0.4862
   64SAPC  H18X 5262   4.769   5.404   5.005  0.7540  0.1234 -0.0863
   64SAPC  H18Y 5263   4.777   5.277   5.121  0.2665 -0.0168  1.1661
   64SAPC  H18Z 5264   4.924   5.365   5.094 -0.6206  0.0260 -2.2037
   65SAPC     N 5265   3.415   4.037   2.288 -0.5639  0.4956 -0.0798
   65SAPC   C12 5266   3.371   3.945   2.404 -0.3148 -0.6520  0.9754
   65SAPC  H12A 5267   3.268   3.917   2.393 -0.3116  0.4166 -4.4053
   65SAPC  H12B 5268   3.381   4.009   2.491  0.2120  0.1519  0.3355
   65SAPC   C13 5269   3.558   4.072   2.289 -0.5176  0.7964  0.1449
   65SAPC  H13A 5270   3.612   3.979   2.286 -3.1766 -0.8264 -1.7542
   65SAPC  H13B 5271   3.587   4.132   2.204  0.2679 -0.3169 -0.3918
   65SAPC  H13C 5272   3.595   4.123   2.377 -0.0164  0.0474  0.3726
   65SAPC   C14 5273   3.384   3.980   2.153  0.5798 -1.0608  0.2334
   65SAPC  H14A 5274   3.436   3.886   2.137 -0.2713 -1.4992 -0.0087
   65SAPC  H14B 5275   3.280   3.953   2.142  0.2930  0.4644 -1.0876
   65SAPC  H14C 5276   3.414   4.048   2.076 -2.4741 -0.1186 -0.2484
   65SAPC   C15 5277   3.325   4.154   2.287  0.1525  0.5371  0.4560
   65SAPC  H15A 5278   3.318   4.206   2.381 -0.9644  0.6058  0.3550
   65SAPC  H15B 5279   3.348   4.207   2.195 -1.5094 -1.1419 -0.9999
   65SAPC  H15C 5280   3.221   4.135   2.265 -0.1599  2.7671 -0.2753
   65SAPC   C11 5281   3.449   3.815   2.432 -0.1521  0.1336  0.6717
   65SAPC  H11A 5282   3.446   3.753   2.340 -0.1151 -0.5222  1.1044
   65SAPC  H11B 5283   3.399   3.756   2.512 -2.0450  2.4660  1.3363
   65SAPC     P 5284   3.622   3.888   2.612  0.1014 -0.0045 -0.2129
   65SAPC   O13 5285   3.637   3.775   2.712 -0.2102 -0.0139 -0.3469
   65SAPC   O14 5286   3.729   3.985   2.598 -0.4373  0.3125  0.3386
   65SAPC   O12 5287   3.582   3.833   2.466  0.3328 -0.0175  0.0687
   65SAPC   O11 5288   3.489   3.963   2.656 -0.2826 -0.4483 -0.4598
   65SAPC    C1 5289   3.411   3.911   2.767 -0.1835  0.5718  0.4632
   65SAPC    HA 5290   3.308   3.938   2.736  0.0900 -1.6628 -2.9315
   65SAPC    HB 5291   3.407   3.800   2.764 -1.5658  0.5747  1.4152
   65SAPC    C2 5292   3.450   3.977   2.904  0.3539 -0.2661  0.3286
   65SAPC    HS 5293   3.545   3.931   2.939  0.1887  1.2787  3.1489
   65SAPC   O21 5294   3.349   3.969   3.001  0.1276 -0.1076  0.1501
   65SAPC   C21 5295   3.385   3.897   3.116 -0.1068  0.2832 -0.1511
   65SAPC   O22 5296   3.491   3.844   3.134  0.3028 -0.2538  0.2516
   65SAPC   C22 5297   3.276   3.890   3.217  0.2222  1.2595 -0.1895
   65SAPC   H2R 5298   3.211   3.980   3.212  0.7101  1.6728  0.6125
   65SAPC   H2S 5299   3.204   3.812   3.186  1.5312  0.6634 -1.8824
   65SAPC    C3 5300   3.490   4.127   2.884  0.3930 -0.5403  1.0916
   65SAPC    HX 5301   3.404   4.163   2.824  1.9746 -1.3831 -1.8941
   65SAPC    HY 5302   3.581   4.123   2.820 -0.4177 -0.9846 -0.0793
   65SAPC   O31 5303   3.514   4.186   3.014 -0.1226  0.0663  0.0564
   65SAPC   C31 5304   3.572   4.306   2.997 -0.2053  0.7198 -0.3335
   65SAPC   O32 5305   3.611   4.346   2.891  0.1041 -0.2469 -0.3814
   65SAPC   C32 5306   3.550   4.382   3.129  1.0115 -0.7608 -0.4757
   65SAPC   H2X 5307   3.440   4.374   3.144  1.0800 -0.1505  0.3737
   65SAPC   H2Y 5308   3.570   4.487   3.098 -3.0330 -0.6932 -3.6629
   65SAPC   C23 5309   3.322   3.867   3.364  0.2700 -0.6058  0.0004
   65SAPC   H3R 5310   3.428   3.835   3.374  0.6821 -0.6949 -3.5250
   65SAPC   H3S 5311   3.252   3.798   3.416  0.5405 -3.3044 -2.9655
   65SAPC   C24 5312   3.337   4.005   3.443 -0.4832 -0.0100  0.5389
   65SAPC   H4R 5313   3.235   4.049   3.441 -0.1414  0.8879  1.6228
   65SAPC   H4S 5314   3.403   4.069   3.380 -0.0951 -1.7049 -0.8335
   65SAPC   C25 5315   3.396   3.995   3.584 -0.3754 -0.6218 -0.1314
   65SAPC   H5R 5316   3.490   3.939   3.582  0.1014  0.1285  0.5666
   65SAPC   C26 5317   3.343   4.051   3.691 -0.2446 -0.6374  0.0059
   65SAPC   H6R 5318   3.383   4.031   3.791  1.4367  1.1010 -0.2572
   65SAPC   C27 5319   3.216   4.139   3.693 -0.1001 -0.4373 -0.1202
   65SAPC   H7R 5320   3.209   4.201   3.601  3.0865 -2.3513 -1.8263
   65SAPC   H7S 5321   3.220   4.207   3.780 -0.5217  0.3251 -0.6865
   65SAPC   C28 5322   3.094   4.045   3.693 -0.4659 -0.1311  0.0848
   65SAPC   H8R 5323   3.089   3.975   3.608 -2.8940  0.7857 -0.6019
   65SAPC   C29 5324   2.998   4.038   3.789  0.3675  0.3248 -0.4828
   65SAPC   H9R 5325   2.920   3.963   3.771  1.5535 -0.6300 -1.8854
   65SAPC  C210 5326   2.974   4.122   3.921  0.4963  1.0479  0.5117
   65SAPC  H10R 5327   2.908   4.207   3.891 -2.5617 -1.3625 -0.1951
   65SAPC  H10S 5328   3.062   4.181   3.951  0.5141  1.0637  0.4303
   65SAPC  C211 5329   2.930   4.035   4.033 -0.3747  0.2960  0.3293
   65SAPC  H11R 5330   2.882   3.938   4.012 -1.8944  1.4102 -1.6836
   65SAPC  C212 5331   2.932   4.081   4.166  0.3347 -0.0935 -0.2510
   65SAPC  H12R 5332   2.904   3.998   4.233  1.5522 -1.5855 -1.4804
   65SAPC  C213 5333   2.988   4.210   4.232  1.1920 -0.3498 -0.4233
   65SAPC  H13R 5334   2.908   4.251   4.297  1.7075 -0.6999  0.4555
   65SAPC  H13S 5335   2.996   4.290   4.156  0.5358 -0.4261 -0.5767
   65SAPC  C214 5336   3.117   4.178   4.299  0.1584  0.9884 -0.1518
   65SAPC  H14R 5337   3.177   4.097   4.254 -1.0166  1.1533 -2.1159
   65SAPC  C215 5338   3.165   4.231   4.417  0.4543 -0.2860  0.9067
   65SAPC  H15R 5339   3.265   4.209   4.459  0.6301  0.8298  1.1088
   65SAPC  C216 5340   3.097   4.342   4.498  1.0110  1.4148 -1.1832
   65SAPC  H16R 5341   3.036   4.412   4.438 -1.2703  0.0691 -0.5651
   65SAPC  H16S 5342   3.176   4.410   4.536  1.0930  1.5224 -1.5441
   65SAPC  C217 5343   2.998   4.294   4.617 -0.4150  0.3615  0.4602
   65SAPC  H17R 5344   2.923   4.225   4.573  2.0323 -1.5041 -1.0951
   65SAPC  H17S 5345   2.945   4.384   4.655 -2.4732 -0.7274  0.3171
   65SAPC  C218 5346   3.075   4.224   4.731  0.1780  0.8344 -0.0433
   65SAPC  H18R 5347   3.165   4.288   4.747  0.5816 -0.0607  1.4816
   65SAPC  H18S 5348   3.111   4.129   4.687 -0.9953  1.0867 -1.6455
   65SAPC  C219 5349   2.991   4.218   4.856 -0.0747  0.3218  0.1555
   65SAPC  H19R 5350   2.930   4.311   4.869  0.4044  0.4320  1.9139
   65SAPC  H19S 5351   3.059   4.219   4.944  0.5096  1.2682 -0.2846
   65SAPC  C220 5352   2.903   4.092   4.869  0.2468 -0.1210 -0.8728
   65SAPC  H20R 5353   2.857   4.088   4.970  3.5560  1.8998  0.9014
   65SAPC  H20S 5354   2.966   4.003   4.851 -0.5524 -0.8080 -0.3503
   65SAPC  H20T 5355   2.830   4.108   4.786 -1.0417 -0.5464  0.1403
   65SAPC   C33 5356   3.626   4.322   3.252  1.0849  0.2160  0.2746
   65SAPC   H3X 5357   3.597   4.216   3.267  0.9753  0.4705  2.1170
   65SAPC   H3Y 5358   3.590   4.373   3.344 -2.4979 -0.6407 -0.5057
   65SAPC   C34 5359   3.780   4.340   3.256 -0.3304 -0.1071  0.4855
   65SAPC   H4X 5360   3.812   4.437   3.214  0.9767 -1.6560 -2.3607
   65SAPC   H4Y 5361   3.824   4.260   3.193 -2.7729 -1.4623  0.3555
   65SAPC   C35 5362   3.841   4.335   3.397 -0.4540 -0.1498 -0.3416
   65SAPC   H5X 5363   3.811   4.419   3.462  1.8240 -0.7175  1.6009
   65SAPC   H5Y 5364   3.952   4.347   3.399 -0.3981 -0.1512 -2.0079
   65SAPC   C36 5365   3.814   4.205   3.472  0.2390  0.1157 -0.1929
   65SAPC   H6X 5366   3.848   4.117   3.414  1.0952  0.7878 -0.7260
   65SAPC   H6Y 5367   3.706   4.190   3.496  0.7784 -1.9064  1.2811
   65SAPC   C37 5368   3.887   4.190   3.602 -0.2231  0.0426  0.0674
   65SAPC   H7X 5369   3.994   4.192   3.575  0.0452 -0.1361  1.0659
   65SAPC   H7Y 5370   3.864   4.094   3.655 -0.0427  0.0481  0.1554
   65SAPC   C38 5371   3.858   4.302   3.702 -0.0390  0.0367  0.0709
   65SAPC   H8X 5372   3.752   4.333   3.701  0.3307  1.3575  0.6795
   65SAPC   H8Y 5373   3.914   4.390   3.666  0.3033 -0.4919 -0.7321
   65SAPC   C39 5374   3.903   4.271   3.845 -0.1389  0.0791  0.3403
   65SAPC   H9X 5375   4.014   4.276   3.847 -0.0812 -1.2773  1.1614
   65SAPC   H9Y 5376   3.872   4.169   3.874 -1.8165  0.6957  0.8480
   65SAPC  C310 5377   3.857   4.384   3.941  0.5017  0.4109  0.8884
   65SAPC  H10X 5378   3.749   4.394   3.918  0.6091 -1.2186 -0.5786
   65SAPC  H10Y 5379   3.914   4.479   3.931  0.3088  0.5007  0.6577
   65SAPC  C311 5380   3.881   4.352   4.091 -0.2292  0.0651  0.0725
   65SAPC  H11X 5381   3.876   4.449   4.144  0.9498 -0.1122  0.5519
   65SAPC  H11Y 5382   3.985   4.312   4.094  0.7329  2.4403  0.5670
   65SAPC  C312 5383   3.775   4.269   4.152 -0.6782  0.3705 -0.5059
   65SAPC  H12X 5384   3.764   4.174   4.095 -2.6644  0.7877 -0.8909
   65SAPC  H12Y 5385   3.680   4.325   4.149 -0.8452  0.0477 -1.5693
   65SAPC  C313 5386   3.805   4.251   4.304  0.3955 -0.0451  0.6835
   65SAPC  H13X 5387   3.715   4.200   4.343  1.1655 -0.4149  2.0408
   65SAPC  H13Y 5388   3.808   4.350   4.353 -0.1045  0.6154 -0.5633
   65SAPC  C314 5389   3.924   4.154   4.339  0.0918 -0.5763  0.3677
   65SAPC  H14X 5390   4.013   4.181   4.278  1.2817  0.9187  2.6200
   65SAPC  H14Y 5391   3.897   4.051   4.309  0.2595 -0.6397  0.4329
   65SAPC  C315 5392   3.975   4.160   4.487 -0.1619  0.2516 -0.3003
   65SAPC  H15X 5393   4.033   4.070   4.515 -0.8469  0.0355  0.4705
   65SAPC  H15Y 5394   3.887   4.159   4.555  0.5517  0.3492  0.6399
   65SAPC  C316 5395   4.048   4.291   4.533 -0.1875 -0.2089  1.0398
   65SAPC  H16X 5396   4.003   4.370   4.470  2.1072 -1.2531 -2.1802
   65SAPC  H16Y 5397   4.155   4.280   4.507  0.4416 -0.0372  3.3529
   65SAPC  C317 5398   4.033   4.322   4.680  0.0860  0.5238 -0.0714
   65SAPC  H17X 5399   3.928   4.343   4.707  0.5590  3.2425 -0.0800
   65SAPC  H17Y 5400   4.096   4.410   4.704  1.5542 -0.5172  0.0422
   65SAPC  C318 5401   4.090   4.212   4.770  0.6197 -0.6929  0.1703
   65SAPC  H18X 5402   4.033   4.117   4.765  0.8751 -0.7854 -3.0988
   65SAPC  H18Y 5403   4.087   4.267   4.866  0.0832  3.2758 -1.9191
   65SAPC  H18Z 5404   4.198   4.192   4.751  0.8883  1.8578 -1.5667
   66SAPC     N 5405   5.225   4.570   2.313 -0.4681  0.0508 -0.0740
   66SAPC   C12 5406   5.124   4.457   2.334  0.4998 -0.6350  0.8614
   66SAPC  H12A 5407   5.173   4.361   2.328  0.1523 -0.8220  0.9617
   66SAPC  H12B 5408   5.052   4.457   2.253  1.1546 -0.6795  0.2672
   66SAPC   C13 5409   5.294   4.544   2.181 -0.0026 -0.3121 -0.3898
   66SAPC  H13A 5410   5.370   4.467   2.189  0.3831  0.2606  3.1899
   66SAPC  H13B 5411   5.224   4.519   2.103 -1.7398  0.1860  0.9376
   66SAPC  H13C 5412   5.353   4.629   2.151 -0.2626  0.4940  1.2575
   66SAPC   C14 5413   5.148   4.692   2.313 -0.3627 -0.2346  0.5388
   66SAPC  H14A 5414   5.205   4.778   2.282  3.0900 -2.4006  0.3569
   66SAPC  H14B 5415   5.072   4.694   2.237 -0.8581  0.3234  1.0340
   66SAPC  H14C 5416   5.107   4.711   2.411 -1.1243 -1.0180  0.3853
   66SAPC   C15 5417   5.328   4.582   2.421 -0.8797  0.7531  0.4956
   66SAPC  H15A 5418   5.392   4.667   2.399  0.6415 -0.5347 -0.2283
   66SAPC  H15B 5419   5.289   4.588   2.521  4.0075 -0.2579  2.7667
   66SAPC  H15C 5420   5.392   4.495   2.421 -1.1792  0.5009 -1.1873
   66SAPC   C11 5421   5.038   4.458   2.463  0.1643 -0.4836 -0.4015
   66SAPC  H11A 5422   4.955   4.384   2.465 -0.7448  0.5128  0.5813
   66SAPC  H11B 5423   4.979   4.550   2.483 -0.5481 -1.2348  1.1628
   66SAPC     P 5424   5.181   4.304   2.615 -0.1221  0.4783  0.0894
   66SAPC   O13 5425   5.096   4.183   2.587  0.1705  0.1898 -0.0238
   66SAPC   O14 5426   5.322   4.289   2.558 -0.1978 -0.3938 -0.7844
   66SAPC   O12 5427   5.117   4.441   2.575  0.6083  0.5998 -0.3266
   66SAPC   O11 5428   5.189   4.318   2.768  0.1377  0.3963  0.0946
   66SAPC    C1 5429   5.292   4.393   2.833 -0.0176 -0.4493 -0.7550
   66SAPC    HA 5430   5.389   4.376   2.783  0.9462 -0.5113  1.0445
   66SAPC    HB 5431   5.273   4.502   2.839 -2.7650 -0.9184  3.1496
   66SAPC    C2 5432   5.289   4.351   2.984 -0.4810 -0.4594  0.0044
   66SAPC    HS 5433   5.183   4.341   3.015 -0.5110 -0.9334 -0.2454
   66SAPC   O21 5434   5.353   4.449   3.070 -0.3309 -0.4652  0.2159
   66SAPC   C21 5435   5.289   4.497   3.176  1.2475 -0.2407 -0.7484
   66SAPC   O22 5436   5.171   4.471   3.207 -0.3837 -0.3083  0.5102
   66SAPC   C22 5437   5.382   4.590   3.259 -0.4813  0.4307  0.6046
   66SAPC   H2R 5438   5.486   4.552   3.250 -0.0704  1.0749  2.2907
   66SAPC   H2S 5439   5.372   4.692   3.216 -2.4854  0.1647  0.3406
   66SAPC    C3 5440   5.355   4.212   3.020  0.1357  0.2652  0.4161
   66SAPC    HX 5441   5.455   4.213   2.971  0.4970 -0.4385  1.1186
   66SAPC    HY 5442   5.296   4.130   2.973  0.6158 -1.3099  2.4304
   66SAPC   O31 5443   5.368   4.212   3.166 -0.1836 -0.3232  0.0262
   66SAPC   C31 5444   5.402   4.101   3.214 -0.5354 -0.2753 -0.0316
   66SAPC   O32 5445   5.406   3.998   3.156 -0.0433 -0.2258 -0.6883
   66SAPC   C32 5446   5.423   4.109   3.363  0.0501  0.4846 -0.5581
   66SAPC   H2X 5447   5.332   4.149   3.411  1.2442  1.0742  1.3038
   66SAPC   H2Y 5448   5.503   4.184   3.381  0.3004 -0.3144  1.9310
   66SAPC   C23 5449   5.337   4.604   3.400 -0.3868 -0.0841 -0.2952
   66SAPC   H3R 5450   5.229   4.627   3.404 -0.3216  0.9615 -2.8901
   66SAPC   H3S 5451   5.382   4.693   3.448 -0.2161 -0.7724  0.8560
   66SAPC   C24 5452   5.382   4.493   3.492 -0.1869  0.4125  0.2067
   66SAPC   H4R 5453   5.492   4.484   3.478 -0.1811  1.0147 -0.2010
   66SAPC   H4S 5454   5.331   4.404   3.449 -2.3357  1.2724  0.8734
   66SAPC   C25 5455   5.340   4.499   3.639 -0.0522  0.1276 -0.3872
   66SAPC   H5R 5456   5.238   4.465   3.658  0.4771 -0.2360  2.2848
   66SAPC   C26 5457   5.415   4.532   3.747 -0.0360  0.5702  0.2996
   66SAPC   H6R 5458   5.372   4.517   3.847  1.4983  0.3028  0.9474
   66SAPC   C27 5459   5.562   4.579   3.751  0.5435 -0.4010  0.1412
   66SAPC   H7R 5460   5.555   4.686   3.779 -0.7828 -0.0287 -1.5379
   66SAPC   H7S 5461   5.610   4.571   3.651  0.6743 -0.8699  0.2395
   66SAPC   C28 5462   5.629   4.506   3.868  0.3651 -0.6251 -0.4743
   66SAPC   H8R 5463   5.669   4.406   3.843  0.3760 -0.5226 -0.8850
   66SAPC   C29 5464   5.654   4.546   3.995  0.0894 -0.0882  0.1672
   66SAPC   H9R 5465   5.728   4.491   4.055  1.9275  0.9145 -1.0782
   66SAPC  C210 5466   5.610   4.673   4.056  0.6940  0.1413 -0.5274
   66SAPC  H10R 5467   5.563   4.746   3.987 -1.3908  0.6435  1.2936
   66SAPC  H10S 5468   5.702   4.720   4.097  0.3760 -0.0066  0.3895
   66SAPC  C211 5469   5.497   4.653   4.163 -0.3979  0.8659  0.4552
   66SAPC  H11R 5470   5.419   4.582   4.133  1.0070  0.3569 -2.3588
   66SAPC  C212 5471   5.502   4.689   4.289 -0.2110 -0.1561  0.0964
   66SAPC  H12R 5472   5.408   4.680   4.346 -0.5874  0.0828 -0.4651
   66SAPC  C213 5473   5.611   4.771   4.355  0.2369 -0.5072 -0.0928
   66SAPC  H13R 5474   5.678   4.814   4.278  1.3155  1.0085  1.6004
   66SAPC  H13S 5475   5.672   4.694   4.408 -1.3405  0.2110  2.9633
   66SAPC  C214 5476   5.573   4.875   4.454 -0.3991  0.3649 -0.7308
   66SAPC  H14R 5477   5.536   4.969   4.411  0.7221  0.7809 -0.8424
   66SAPC  C215 5478   5.612   4.877   4.586 -1.2021 -0.0416  0.3847
   66SAPC  H15R 5479   5.602   4.970   4.643  2.2077  1.3491 -1.0597
   66SAPC  C216 5480   5.682   4.770   4.657 -0.3360 -0.1815  0.1518
   66SAPC  H16R 5481   5.749   4.805   4.738  0.2561 -1.5570  0.2808
   66SAPC  H16S 5482   5.750   4.722   4.583 -3.5030 -0.8953 -2.5600
   66SAPC  C217 5483   5.604   4.653   4.717 -0.4957  1.1468 -0.3755
   66SAPC  H17R 5484   5.550   4.592   4.641 -1.3426  0.8204  0.4685
   66SAPC  H17S 5485   5.528   4.694   4.788 -0.6824  1.9700 -1.0304
   66SAPC  C218 5486   5.691   4.566   4.809  0.3148  0.7108  0.4209
   66SAPC  H18R 5487   5.698   4.618   4.907  0.1269 -1.9393  1.9284
   66SAPC  H18S 5488   5.787   4.552   4.755 -0.5042 -3.1370 -0.2700
   66SAPC  C219 5489   5.631   4.429   4.838  0.0017 -0.5254  0.2546
   66SAPC  H19R 5490   5.707   4.365   4.889  0.7984  0.3321  0.1751
   66SAPC  H19S 5491   5.607   4.372   4.745 -0.2965  0.9982 -0.6452
   66SAPC  C220 5492   5.498   4.434   4.913 -0.4137  1.0762  0.3228
   66SAPC  H20R 5493   5.449   4.335   4.916  2.4571 -0.4428  0.2315
   66SAPC  H20S 5494   5.424   4.500   4.863 -0.0225 -1.2635 -3.6637
   66SAPC  H20T 5495   5.499   4.467   5.020  0.1315  0.8860  0.3790
   66SAPC   C33 5496   5.466   3.972   3.420  0.2218 -0.6040 -0.1569
   66SAPC   H3X 5497   5.562   3.940   3.374  0.1266 -1.9105  0.5043
   66SAPC   H3Y 5498   5.394   3.895   3.385 -0.1454  0.0031 -0.7767
   66SAPC   C34 5499   5.478   3.969   3.570  0.0142 -0.6608  0.0682
   66SAPC   H4X 5500   5.390   4.022   3.613  0.4943  1.5644 -1.5362
   66SAPC   H4Y 5501   5.564   4.028   3.609  0.6194 -1.4627 -0.0334
   66SAPC   C35 5502   5.506   3.830   3.625 -0.5522 -0.5610 -0.4052
   66SAPC   H5X 5503   5.596   3.787   3.576 -1.1360 -1.9357 -0.3356
   66SAPC   H5Y 5504   5.421   3.769   3.589 -0.9541  0.5971 -1.4731
   66SAPC   C36 5505   5.514   3.819   3.784 -0.3660 -0.0458 -0.0499
   66SAPC   H6X 5506   5.497   3.716   3.821  1.0583  0.1147  1.1352
   66SAPC   H6Y 5507   5.428   3.879   3.820  1.0763  1.7867  0.5401
   66SAPC   C37 5508   5.653   3.864   3.836  0.1478  0.6415  0.0373
   66SAPC   H7X 5509   5.676   3.958   3.781  1.1530  0.0664 -0.5553
   66SAPC   H7Y 5510   5.732   3.794   3.800  0.5877  1.1846 -0.0582
   66SAPC   C38 5511   5.658   3.891   3.989 -0.1943 -0.7712 -0.2367
   66SAPC   H8X 5512   5.554   3.920   4.017 -0.4650 -1.3224 -0.6504
   66SAPC   H8Y 5513   5.730   3.973   4.010  1.5630 -1.8321 -1.8558
   66SAPC   C39 5514   5.694   3.765   4.060  0.1172 -0.1353 -0.6860
   66SAPC   H9X 5515   5.804   3.754   4.047  0.7820  0.8908  2.9299
   66SAPC   H9Y 5516   5.640   3.686   4.004  1.2566 -2.0899  0.8565
   66SAPC  C310 5517   5.653   3.764   4.213 -0.0336  0.5449 -0.4556
   66SAPC  H10X 5518   5.545   3.754   4.238 -0.0845  0.8078 -0.5703
   66SAPC  H10Y 5519   5.687   3.868   4.235 -2.6798  1.1584  1.2643
   66SAPC  C311 5520   5.722   3.656   4.293 -0.3882  0.0154  0.0585
   66SAPC  H11X 5521   5.831   3.673   4.278 -0.3776 -1.1019 -1.3326
   66SAPC  H11Y 5522   5.695   3.558   4.248 -2.0980 -0.3497  1.7687
   66SAPC  C312 5523   5.695   3.656   4.442  0.0830 -0.2678  0.6712
   66SAPC  H12X 5524   5.735   3.742   4.499 -2.0713  0.4541  1.1947
   66SAPC  H12Y 5525   5.726   3.564   4.495 -1.3771  0.5650  3.1457
   66SAPC  C313 5526   5.542   3.654   4.485  0.1484  0.3510  0.6991
   66SAPC  H13X 5527   5.502   3.568   4.429 -0.0726  1.2943 -0.6406
   66SAPC  H13Y 5528   5.503   3.754   4.455  0.4350 -0.0818 -1.2995
   66SAPC  C314 5529   5.518   3.615   4.626 -0.2410  0.2246 -0.6535
   66SAPC  H14X 5530   5.577   3.686   4.686 -0.3935  0.6423 -0.9921
   66SAPC  H14Y 5531   5.547   3.509   4.646  0.2778  1.0008  3.6942
   66SAPC  C315 5532   5.378   3.642   4.672  0.3558  0.2173 -0.6650
   66SAPC  H15X 5533   5.358   3.751   4.661 -0.2554 -0.0011 -1.8929
   66SAPC  H15Y 5534   5.365   3.617   4.780  0.2957 -2.5020 -1.2373
   66SAPC  C316 5535   5.277   3.544   4.596  0.7213 -0.3107  0.6351
   66SAPC  H16X 5536   5.305   3.439   4.622 -0.4162 -0.6183  0.6705
   66SAPC  H16Y 5537   5.288   3.552   4.486 -1.1292  0.9346  0.5051
   66SAPC  C317 5538   5.130   3.566   4.635  0.3705 -0.6694 -0.5069
   66SAPC  H17X 5539   5.065   3.501   4.573 -0.4863  0.2064 -0.5466
   66SAPC  H17Y 5540   5.100   3.670   4.610  0.1005 -0.7833 -0.6605
   66SAPC  C318 5541   5.092   3.530   4.784 -0.5719  0.4208  0.0232
   66SAPC  H18X 5542   5.153   3.589   4.855 -3.0794  1.0279  1.7748
   66SAPC  H18Y 5543   5.111   3.424   4.812 -0.2463  0.5973  0.4760
   66SAPC  H18Z 5544   4.989   3.563   4.807  0.0078  2.4674 -0.1277
   67SAPC     N 5545   3.829   5.642   2.998  0.0034 -0.0015  0.4756
   67SAPC   C12 5546   3.783   5.495   3.024  0.5247 -0.0995  0.6794
   67SAPC  H12A 5547   3.692   5.485   3.080  0.0267 -1.5762 -0.3339
   67SAPC  H12B 5548   3.859   5.452   3.089  0.4718  2.8408  2.8762
   67SAPC   C13 5549   3.850   5.707   3.131  0.4140  0.2422  0.0595
   67SAPC  H13A 5550   3.753   5.701   3.178  0.7446  1.6988  0.9688
   67SAPC  H13B 5551   3.929   5.654   3.183  0.7134  0.7199  0.0995
   67SAPC  H13C 5552   3.885   5.809   3.127  0.4569  0.2026 -3.0835
   67SAPC   C14 5553   3.954   5.649   2.919 -0.3017  0.0993 -0.0312
   67SAPC  H14A 5554   3.969   5.745   2.872 -1.3816  0.3738  0.1549
   67SAPC  H14B 5555   4.043   5.616   2.971  1.0145  3.8324  0.3370
   67SAPC  H14C 5556   3.950   5.579   2.837 -1.3195  0.6932 -0.5048
   67SAPC   C15 5557   3.715   5.705   2.927 -0.1075 -0.6061  0.7312
   67SAPC  H15A 5558   3.624   5.701   2.986  0.4736  0.7196  1.7690
   67SAPC  H15B 5559   3.740   5.809   2.912  0.4316 -0.7543  0.5943
   67SAPC  H15C 5560   3.696   5.656   2.833  0.3025 -3.4392  2.0353
   67SAPC   C11 5561   3.751   5.405   2.907  0.1392  0.3382 -0.3156
   67SAPC  H11A 5562   3.678   5.455   2.840  0.9152  2.4226  0.3057
   67SAPC  H11B 5563   3.706   5.313   2.950 -0.8713  0.5417 -0.9041
   67SAPC     P 5564   3.968   5.272   2.885 -0.0777 -0.2633  0.2834
   67SAPC   O13 5565   3.909   5.141   2.882 -0.1481 -0.4802 -0.9735
   67SAPC   O14 5566   4.093   5.278   2.803 -0.3796  0.3185 -0.0210
   67SAPC   O12 5567   3.869   5.383   2.834  0.0927 -0.2130  1.2484
   67SAPC   O11 5568   4.004   5.305   3.033  0.1377 -0.1495  0.1954
   67SAPC    C1 5569   4.135   5.307   3.086  0.0917 -0.2295 -0.2331
   67SAPC    HA 5570   4.207   5.350   3.013  1.9673  1.5513  2.5003
   67SAPC    HB 5571   4.136   5.382   3.167 -0.3091 -1.9612  1.4438
   67SAPC    C2 5572   4.190   5.166   3.131 -0.4185 -0.8597 -0.1663
   67SAPC    HS 5573   4.214   5.110   3.038  1.4671  0.5287 -0.5653
   67SAPC   O21 5574   4.109   5.101   3.226 -0.9702 -0.2677 -0.5460
   67SAPC   C21 5575   4.117   4.966   3.223 -0.1300  0.7615  0.0203
   67SAPC   O22 5576   4.202   4.908   3.158 -0.4447  0.4308 -0.6091
   67SAPC   C22 5577   4.021   4.910   3.328 -0.4653 -0.0851  0.4472
   67SAPC   H2R 5578   4.074   4.924   3.425 -0.0330 -2.8978  0.6920
   67SAPC   H2S 5579   3.926   4.965   3.309 -0.1193 -0.0753 -1.4192
   67SAPC    C3 5580   4.336   5.191   3.188  0.2947  0.2176  0.4264
   67SAPC    HX 5581   4.402   5.252   3.124  0.3503  1.0919  1.2833
   67SAPC    HY 5582   4.386   5.093   3.195  0.4399  0.2696  0.0964
   67SAPC   O31 5583   4.335   5.261   3.308  0.7791 -0.2104  0.2113
   67SAPC   C31 5584   4.320   5.185   3.418 -0.1239  0.5078 -0.1312
   67SAPC   O32 5585   4.302   5.067   3.421  0.0613 -0.4075  0.4430
   67SAPC   C32 5586   4.333   5.280   3.544 -0.6553  0.3154 -0.1604
   67SAPC   H2X 5587   4.241   5.341   3.541 -2.5648 -2.3374  0.5452
   67SAPC   H2Y 5588   4.421   5.344   3.522 -1.8788  1.6378 -1.3918
   67SAPC   C23 5589   3.978   4.759   3.309 -0.2296 -0.0419  0.0718
   67SAPC   H3R 5590   4.070   4.696   3.313 -1.0313 -1.2993 -0.7346
   67SAPC   H3S 5591   3.940   4.738   3.207 -0.3234 -2.6744  0.5929
   67SAPC   C24 5592   3.873   4.712   3.405 -0.7684 -0.3631 -0.5306
   67SAPC   H4R 5593   3.825   4.622   3.360  1.9893 -2.8063  1.0633
   67SAPC   H4S 5594   3.793   4.786   3.426 -0.2531 -0.0341  0.3378
   67SAPC   C25 5595   3.936   4.656   3.534  0.1742  0.2523 -0.5067
   67SAPC   H5R 5596   4.005   4.571   3.527  0.1696 -0.0239  1.7960
   67SAPC   C26 5597   3.923   4.691   3.664 -0.7328 -0.2652  0.2818
   67SAPC   H6R 5598   3.975   4.632   3.742  1.9475  2.2691  0.5949
   67SAPC   C27 5599   3.834   4.794   3.722  0.2778  0.3950 -0.0864
   67SAPC   H7R 5600   3.756   4.735   3.775  0.4908  0.6527  0.5273
   67SAPC   H7S 5601   3.786   4.851   3.640  1.4228 -1.3021 -2.0453
   67SAPC   C28 5602   3.912   4.898   3.787  0.0529  0.1428  0.0030
   67SAPC   H8R 5603   3.966   4.975   3.730  0.6359  2.0278  2.8791
   67SAPC   C29 5604   3.922   4.904   3.920 -0.1285 -0.3126  0.7130
   67SAPC   H9R 5605   3.977   4.991   3.956 -1.5766  0.3697  1.3733
   67SAPC  C210 5606   3.862   4.807   4.015  0.4012 -0.3474 -0.5504
   67SAPC  H10R 5607   3.931   4.721   4.027  0.7964 -0.0040 -0.3304
   67SAPC  H10S 5608   3.764   4.769   3.979  0.1233  0.1714 -0.3577
   67SAPC  C211 5609   3.845   4.873   4.150 -0.0289 -0.1174  0.5242
   67SAPC  H11R 5610   3.886   4.972   4.172 -2.1825  0.7387  0.8024
   67SAPC  C212 5611   3.791   4.816   4.262  0.7837 -0.2750 -0.1527
   67SAPC  H12R 5612   3.776   4.882   4.349 -0.7565  2.9369 -2.6134
   67SAPC  C213 5613   3.737   4.674   4.266  0.0036  0.4481 -0.2608
   67SAPC  H13R 5614   3.813   4.608   4.312 -0.1860 -0.1481 -0.7812
   67SAPC  H13S 5615   3.720   4.623   4.168 -2.0261 -0.6309  0.5900
   67SAPC  C214 5616   3.604   4.655   4.335  0.3202 -0.1307 -0.3424
   67SAPC  H14R 5617   3.519   4.688   4.274 -0.1846 -1.2802 -0.2912
   67SAPC  C215 5618   3.582   4.604   4.457 -0.0808  0.9296 -0.2466
   67SAPC  H15R 5619   3.479   4.584   4.488 -0.9650 -1.9318 -4.0741
   67SAPC  C216 5620   3.685   4.562   4.561  0.1028 -0.1845 -0.5353
   67SAPC  H16R 5621   3.790   4.573   4.525  0.5728  2.3779  1.3180
   67SAPC  H16S 5622   3.675   4.455   4.590  0.0535 -0.1400 -0.3873
   67SAPC  C217 5623   3.685   4.654   4.688  0.1449 -0.4265  0.1342
   67SAPC  H17R 5624   3.602   4.630   4.757  1.2184 -0.6935  1.3843
   67SAPC  H17S 5625   3.672   4.759   4.653 -1.1694 -0.0807  1.5562
   67SAPC  C218 5626   3.812   4.648   4.786  0.7978  0.5542  0.6558
   67SAPC  H18R 5627   3.833   4.746   4.833  0.9867  1.5133 -1.3021
   67SAPC  H18S 5628   3.903   4.624   4.727 -0.7642 -1.2263 -1.1806
   67SAPC  C219 5629   3.798   4.548   4.898  0.2524  0.4613 -0.3796
   67SAPC  H19R 5630   3.893   4.547   4.956  0.4878  0.7016 -0.7588
   67SAPC  H19S 5631   3.778   4.445   4.861 -1.3670  1.0308 -1.1747
   67SAPC  C220 5632   3.687   4.593   4.989  0.0745  0.4520  0.4530
   67SAPC  H20R 5633   3.689   4.697   5.028 -1.6054  0.5007  0.4568
   67SAPC  H20S 5634   3.695   4.532   5.082 -2.5955 -2.0886 -0.7917
   67SAPC  H20T 5635   3.587   4.573   4.944  0.6295 -1.2630 -0.1113
   67SAPC   C33 5636   4.341   5.217   3.685  0.2716 -0.5504  0.3148
   67SAPC   H3X 5637   4.429   5.151   3.688  0.9517  0.2966 -0.4997
   67SAPC   H3Y 5638   4.258   5.145   3.705 -0.5059  0.7854  2.1821
   67SAPC   C34 5639   4.347   5.319   3.794  0.4441 -0.2527  0.4037
   67SAPC   H4X 5640   4.273   5.400   3.777 -0.5413 -1.2489 -0.1733
   67SAPC   H4Y 5641   4.451   5.356   3.803  1.1583 -1.7042 -1.1357
   67SAPC   C35 5642   4.318   5.266   3.934 -0.0696 -1.0379 -0.6423
   67SAPC   H5X 5643   4.378   5.174   3.948  1.5570  0.1522  0.7377
   67SAPC   H5Y 5644   4.213   5.233   3.942  0.1489 -1.7581 -0.7173
   67SAPC   C36 5645   4.342   5.367   4.055  0.1086 -0.1543  0.7829
   67SAPC   H6X 5646   4.292   5.459   4.017  0.9803  1.0653  2.4562
   67SAPC   H6Y 5647   4.448   5.393   4.076 -0.0603  2.9202 -1.3646
   67SAPC   C37 5648   4.285   5.313   4.180 -0.0127 -0.3073 -0.0483
   67SAPC   H7X 5649   4.315   5.206   4.181 -0.1801 -0.3485  1.3431
   67SAPC   H7Y 5650   4.175   5.309   4.189  0.1358 -1.3982  1.9061
   67SAPC   C38 5651   4.341   5.394   4.298 -0.2771  0.7934 -1.2566
   67SAPC   H8X 5652   4.307   5.499   4.296  4.2152  2.5513  0.9385
   67SAPC   H8Y 5653   4.451   5.396   4.288 -0.0846 -2.3013 -0.7315
   67SAPC   C39 5654   4.303   5.334   4.432  0.5585  0.0564  0.3169
   67SAPC   H9X 5655   4.350   5.234   4.419  2.0926  0.7977  0.0040
   67SAPC   H9Y 5656   4.192   5.322   4.443  0.5739 -1.7438 -1.0034
   67SAPC  C310 5657   4.368   5.403   4.552  0.3202 -0.3978  0.9953
   67SAPC  H10X 5658   4.476   5.423   4.536  0.1914 -1.8302 -2.8579
   67SAPC  H10Y 5659   4.355   5.344   4.645  0.7562  0.7277  1.7889
   67SAPC  C311 5660   4.298   5.537   4.588  0.0088  0.1721 -0.2277
   67SAPC  H11X 5661   4.199   5.516   4.633 -1.3518  1.1191 -2.5927
   67SAPC  H11Y 5662   4.266   5.598   4.501 -0.3457  0.7721  0.3190
   67SAPC  C312 5663   4.382   5.614   4.685  0.6141 -0.9554  0.1007
   67SAPC  H12X 5664   4.329   5.710   4.707 -2.1058 -2.1452 -0.8028
   67SAPC  H12Y 5665   4.476   5.645   4.635  0.0269  1.0447  0.1585
   67SAPC  C313 5666   4.414   5.547   4.820  0.4154 -0.2911 -0.3707
   67SAPC  H13X 5667   4.492   5.603   4.876  0.0341 -1.6363  1.6224
   67SAPC  H13Y 5668   4.451   5.444   4.806 -0.3333 -0.3963 -1.6905
   67SAPC  C314 5669   4.297   5.539   4.920 -0.5330  0.8858  0.3031
   67SAPC  H14X 5670   4.336   5.498   5.015  2.3373  3.5681  0.4286
   67SAPC  H14Y 5671   4.225   5.460   4.888  1.7150 -0.6043 -1.3523
   67SAPC  C315 5672   4.228   5.672   4.944  0.8426  0.4540 -0.6350
   67SAPC  H15X 5673   4.159   5.695   4.860  1.5163  0.4126 -1.2171
   67SAPC  H15Y 5674   4.293   5.763   4.944  0.1440  0.9605 -0.1744
   67SAPC  C316 5675   4.134   5.671   5.072 -0.4156  0.1489  0.4898
   67SAPC  H16X 5676   4.189   5.628   5.158 -0.2876  0.4625  0.5649
   67SAPC  H16Y 5677   4.050   5.605   5.041 -1.3174  2.1663 -1.6655
   67SAPC  C317 5678   4.061   5.802   5.103 -0.7285  0.7997 -0.6692
   67SAPC  H17X 5679   4.003   5.812   5.009 -1.4616  0.9569 -0.2130
   67SAPC  H17Y 5680   4.134   5.885   5.113  0.5716 -0.5230  1.7184
   67SAPC  C318 5681   3.969   5.782   5.227  0.1793 -0.4882  0.1949
   67SAPC  H18X 5682   3.890   5.858   5.212  0.2405 -0.8979 -2.7970
   67SAPC  H18Y 5683   4.015   5.808   5.325 -1.5728  0.8757  0.7106
   67SAPC  H18Z 5684   3.922   5.681   5.228  0.6111 -0.7345  2.6301
   68SAPC     N 5685   5.449   2.450   2.822  1.0789 -0.8316 -0.2283
   68SAPC   C12 5686   5.434   2.394   2.960 -0.2719  0.5268  0.5859
   68SAPC  H12A 5687   5.332   2.403   2.993 -0.9183 -1.0482 -0.8375
   68SAPC  H12B 5688   5.504   2.449   3.021  1.2481 -1.6183  0.8887
   68SAPC   C13 5689   5.433   2.601   2.810 -0.1344  0.1888  0.3605
   68SAPC  H13A 5690   5.513   2.648   2.865 -0.5401  0.6267  0.5778
   68SAPC  H13B 5691   5.443   2.631   2.706  1.8525 -1.9740 -0.1778
   68SAPC  H13C 5692   5.342   2.632   2.858 -0.0135 -1.5409  1.8108
   68SAPC   C14 5693   5.580   2.403   2.777  0.8927  0.2602 -0.4802
   68SAPC  H14A 5694   5.586   2.296   2.789  0.4578  0.2610 -0.2208
   68SAPC  H14B 5695   5.584   2.423   2.671 -0.9928  1.8149 -0.3200
   68SAPC  H14C 5696   5.661   2.452   2.829  0.7220 -1.5180  1.6313
   68SAPC   C15 5697   5.350   2.391   2.727 -0.5353  0.1230  0.3455
   68SAPC  H15A 5698   5.378   2.410   2.625  1.1653  1.3418  0.9945
   68SAPC  H15B 5699   5.352   2.284   2.738 -0.5184  0.0222 -0.5511
   68SAPC  H15C 5700   5.253   2.433   2.750  0.0030  0.5437  1.9454
   68SAPC   C11 5701   5.478   2.248   2.986 -0.4384  0.3806 -0.0908
   68SAPC  H11A 5702   5.454   2.237   3.094 -0.0776  1.4551  0.1043
   68SAPC  H11B 5703   5.589   2.247   2.977 -0.2922 -1.8121  1.1993
   68SAPC     P 5704   5.267   2.087   2.947 -0.2290  0.5955 -0.0836
   68SAPC   O13 5705   5.184   2.058   2.819  0.9350 -0.6851 -0.2151
   68SAPC   O14 5706   5.277   1.972   3.045 -0.5596  0.3628  0.5574
   68SAPC   O12 5707   5.417   2.142   2.909 -0.5825  0.0291  0.2233
   68SAPC   O11 5708   5.219   2.220   3.018 -0.0935 -0.1477 -0.2984
   68SAPC    C1 5709   5.103   2.231   3.104  0.0610  0.3251 -0.4139
   68SAPC    HA 5710   5.055   2.326   3.073  0.7304  0.2951 -1.6125
   68SAPC    HB 5711   5.037   2.143   3.086  1.6727 -0.6897 -1.6840
   68SAPC    C2 5712   5.138   2.245   3.249 -0.9607 -0.0117 -0.2130
   68SAPC    HS 5713   5.176   2.150   3.292 -2.0230 -1.5808 -2.4884
   68SAPC   O21 5714   5.012   2.269   3.319  0.0548 -0.2877 -0.3999
   68SAPC   C21 5715   4.942   2.171   3.346 -0.3318  0.4750  0.2238
   68SAPC   O22 5716   4.958   2.051   3.321 -0.2808 -0.2349  0.3096
   68SAPC   C22 5717   4.829   2.225   3.427 -0.0561  0.0760 -0.2872
   68SAPC   H2R 5718   4.872   2.318   3.469 -0.3711  0.1631 -0.1567
   68SAPC   H2S 5719   4.741   2.237   3.360  0.0077  2.4087 -0.0461
   68SAPC    C3 5720   5.237   2.353   3.281  0.3084  0.0967  0.0049
   68SAPC    HX 5721   5.181   2.449   3.272  1.2460  0.5265 -1.9563
   68SAPC    HY 5722   5.317   2.358   3.203  1.6749 -0.9276  1.2932
   68SAPC   O31 5723   5.304   2.327   3.406 -0.4221  0.3113 -0.4296
   68SAPC   C31 5724   5.264   2.401   3.509  0.0754 -0.0781 -0.4505
   68SAPC   O32 5725   5.182   2.492   3.509  0.2443  0.4466 -0.8596
   68SAPC   C32 5726   5.343   2.355   3.632  0.5654 -0.9225  0.2993
   68SAPC   H2X 5727   5.451   2.378   3.622  0.6949 -0.6765  1.9259
   68SAPC   H2Y 5728   5.331   2.245   3.644  1.1798 -0.8281  2.2873
   68SAPC   C23 5729   4.807   2.125   3.545 -0.2076 -0.1769  0.2227
   68SAPC   H3R 5730   4.813   2.017   3.520  1.1121  0.1068 -0.7695
   68SAPC   H3S 5731   4.702   2.139   3.579  0.4553  2.2098  1.5720
   68SAPC   C24 5732   4.898   2.149   3.658  0.2803  0.2902 -0.3698
   68SAPC   H4R 5733   4.880   2.255   3.685  1.7458  0.6037 -0.5421
   68SAPC   H4S 5734   5.000   2.164   3.617  0.8856  0.0592  0.9920
   68SAPC   C25 5735   4.894   2.065   3.783  0.4763  0.1290  1.0005
   68SAPC   H5R 5736   4.965   1.981   3.772  0.3416  0.1069  0.1891
   68SAPC   C26 5737   4.829   2.078   3.898 -0.3245 -0.3827  0.1131
   68SAPC   H6R 5738   4.836   1.988   3.962 -2.9672 -0.8131 -0.0806
   68SAPC   C27 5739   4.720   2.176   3.937  0.0774  0.6796  0.8372
   68SAPC   H7R 5740   4.630   2.127   3.979  1.7755 -0.4114  3.4517
   68SAPC   H7S 5741   4.683   2.227   3.845 -1.1453  0.7949  1.3704
   68SAPC   C28 5742   4.774   2.280   4.032 -0.0790  0.4259 -0.9278
   68SAPC   H8R 5743   4.803   2.374   3.982  1.8964 -0.5405 -1.6997
   68SAPC   C29 5744   4.773   2.272   4.165  0.1239 -0.6750 -0.1945
   68SAPC   H9R 5745   4.825   2.355   4.216  0.7300  0.2289 -2.2142
   68SAPC  C210 5746   4.725   2.166   4.266  0.6197 -0.2414  0.0448
   68SAPC  H10R 5747   4.702   2.065   4.225 -0.1559 -1.7314  3.7047
   68SAPC  H10S 5748   4.635   2.201   4.322 -0.3161 -0.7499 -1.1043
   68SAPC  C211 5749   4.828   2.141   4.370 -0.0487 -0.4333  0.3477
   68SAPC  H11R 5750   4.922   2.094   4.340 -0.1867 -1.1553  1.0034
   68SAPC  C212 5751   4.824   2.167   4.504  0.4089  0.2176 -0.3722
   68SAPC  H12R 5752   4.903   2.125   4.567  0.7050 -0.4993 -1.2091
   68SAPC  C213 5753   4.712   2.244   4.566  0.3316  0.2693 -0.5770
   68SAPC  H13R 5754   4.690   2.325   4.493 -1.2802 -0.3212 -0.7848
   68SAPC  H13S 5755   4.742   2.289   4.663 -0.6291 -0.8617  0.2709
   68SAPC  C214 5756   4.591   2.165   4.605  0.6423  0.2089 -0.7317
   68SAPC  H14R 5757   4.532   2.143   4.515  0.6164 -0.0634 -0.6477
   68SAPC  C215 5758   4.557   2.112   4.726 -0.8847  0.5252  0.6720
   68SAPC  H15R 5759   4.468   2.050   4.742  0.2655 -1.0681  1.1253
   68SAPC  C216 5760   4.639   2.132   4.846  0.2715 -0.2705  0.3201
   68SAPC  H16R 5761   4.743   2.163   4.823  0.8425 -1.1194  1.6351
   68SAPC  H16S 5762   4.642   2.033   4.896  0.1721 -1.2559 -1.5483
   68SAPC  C217 5763   4.584   2.221   4.958 -0.4975 -0.1205 -0.7375
   68SAPC  H17R 5764   4.552   2.319   4.916 -0.2738 -0.6623 -2.2417
   68SAPC  H17S 5765   4.659   2.236   5.039 -1.7996  0.7477  0.3469
   68SAPC  C218 5766   4.453   2.156   5.026 -0.2282  0.4861 -0.1253
   68SAPC  H18R 5767   4.478   2.063   5.081 -0.8065  0.5606  0.2724
   68SAPC  H18S 5768   4.390   2.120   4.941  0.2259 -0.0501 -0.2385
   68SAPC  C219 5769   4.377   2.247   5.118  0.4872 -1.1770  0.0451
   68SAPC  H19R 5770   4.279   2.203   5.145 -1.2793  1.9759 -0.6618
   68SAPC  H19S 5771   4.349   2.341   5.065 -0.4561 -0.4623  1.7463
   68SAPC  C220 5772   4.448   2.278   5.246 -0.3506 -0.1668  0.4304
   68SAPC  H20R 5773   4.452   2.183   5.303 -1.7451 -0.2797  0.3889
   68SAPC  H20S 5774   4.376   2.351   5.291 -0.4073  2.0452 -2.9133
   68SAPC  H20T 5775   4.546   2.325   5.226  0.1877 -1.9187 -1.2837
   68SAPC   C33 5776   5.296   2.408   3.771  0.1821  0.0179  0.0644
   68SAPC   H3X 5777   5.281   2.518   3.770 -0.3855 -0.0452  0.6573
   68SAPC   H3Y 5778   5.376   2.378   3.843  1.0416 -0.8800 -1.2153
   68SAPC   C34 5779   5.163   2.348   3.829  0.3122  0.2970 -0.1069
   68SAPC   H4X 5780   5.161   2.237   3.831  0.2405  0.2788 -0.8523
   68SAPC   H4Y 5781   5.081   2.390   3.766  0.2552 -1.5958 -1.3736
   68SAPC   C35 5782   5.135   2.379   3.981 -0.8767 -0.1971 -0.3952
   68SAPC   H5X 5783   5.052   2.313   4.016 -0.7434 -0.9754 -1.4865
   68SAPC   H5Y 5784   5.094   2.482   3.979  0.7152  0.4549 -0.3085
   68SAPC   C36 5785   5.254   2.385   4.071  0.4719  1.1907 -0.0531
   68SAPC   H6X 5786   5.324   2.471   4.060  2.1151 -0.3074 -2.6540
   68SAPC   H6Y 5787   5.313   2.292   4.053 -0.2630  0.5486  0.7846
   68SAPC   C37 5788   5.217   2.391   4.222  0.7226 -1.0501  0.1019
   68SAPC   H7X 5789   5.121   2.335   4.230  0.5329 -0.6029  1.0583
   68SAPC   H7Y 5790   5.204   2.494   4.261  0.8107 -0.9481 -0.1378
   68SAPC   C38 5791   5.329   2.339   4.320  0.2953 -0.4515 -0.1641
   68SAPC   H8X 5792   5.390   2.427   4.349  0.3844  0.8078 -3.6687
   68SAPC   H8Y 5793   5.384   2.257   4.269  0.1721 -0.3897 -0.3957
   68SAPC   C39 5794   5.260   2.268   4.441 -0.2285  0.0732  0.2876
   68SAPC   H9X 5795   5.187   2.189   4.412 -1.3950  0.8417  1.0324
   68SAPC   H9Y 5796   5.209   2.349   4.498 -0.9982 -0.3037  0.1442
   68SAPC  C310 5797   5.370   2.208   4.529  0.9839  0.4666  0.3468
   68SAPC  H10X 5798   5.422   2.294   4.576  1.8059  0.6899 -0.9359
   68SAPC  H10Y 5799   5.453   2.151   4.484  0.1807 -1.4027  1.1362
   68SAPC  C311 5800   5.322   2.108   4.632  1.2191  0.1512 -0.6428
   68SAPC  H11X 5801   5.406   2.071   4.695 -0.9559  0.1050  2.4743
   68SAPC  H11Y 5802   5.282   2.021   4.577 -1.9111  0.4175  0.9497
   68SAPC  C312 5803   5.217   2.161   4.729 -0.2728  0.1938 -0.6155
   68SAPC  H12X 5804   5.115   2.124   4.703  0.6230 -2.2407 -0.8827
   68SAPC  H12Y 5805   5.218   2.272   4.723  1.4480  0.1396 -2.3787
   68SAPC  C313 5806   5.247   2.125   4.879  0.8659  0.4480 -0.1034
   68SAPC  H13X 5807   5.317   2.196   4.927 -1.3136  2.7497 -0.1062
   68SAPC  H13Y 5808   5.285   2.021   4.873  0.1403  0.2125 -0.8243
   68SAPC  C314 5809   5.120   2.127   4.973  0.0959 -0.7168  0.3168
   68SAPC  H14X 5810   5.059   2.217   4.951 -1.2771 -2.2276 -2.5402
   68SAPC  H14Y 5811   5.144   2.113   5.081 -0.6134 -0.1110  0.5670
   68SAPC  C315 5812   5.019   2.013   4.946 -0.5897  0.4381  0.1967
   68SAPC  H15X 5813   5.032   1.977   4.842 -1.6892 -0.4674  0.3477
   68SAPC  H15Y 5814   4.922   2.062   4.967  0.1735  2.1600 -0.1546
   68SAPC  C316 5815   5.034   1.905   5.051 -0.3871  0.3722 -0.0475
   68SAPC  H16X 5816   5.143   1.885   5.059 -0.1717  1.7785  1.2408
   68SAPC  H16Y 5817   4.990   1.811   5.013  0.0873 -0.2970  1.0118
   68SAPC  C317 5818   4.967   1.929   5.188  0.2184  0.7767  0.2670
   68SAPC  H17X 5819   4.960   2.039   5.200 -1.3840  0.7609 -0.3664
   68SAPC  H17Y 5820   5.026   1.892   5.275 -2.6966  2.3097  3.1182
   68SAPC  C318 5821   4.839   1.851   5.202 -0.1402 -0.2216  0.1769
   68SAPC  H18X 5822   4.857   1.742   5.198 -2.4113 -0.8049  2.6854
   68SAPC  H18Y 5823   4.754   1.871   5.134 -1.1173 -4.0416  0.0620
   68SAPC  H18Z 5824   4.800   1.873   5.304  0.1733  2.2777 -0.1580
   69SAPC     N 5825   4.300   1.204   2.852  0.5873 -0.3511  0.0134
   69SAPC   C12 5826   4.268   1.151   2.994  0.5405  0.1895  0.1660
   69SAPC  H12A 5827   4.276   1.043   2.988 -1.7956  0.0405 -1.6949
   69SAPC  H12B 5828   4.165   1.168   3.023  0.1851 -1.9425  0.3390
   69SAPC   C13 5829   4.217   1.126   2.752 -0.3216 -0.0428  0.3492
   69SAPC  H13A 5830   4.235   1.169   2.654 -0.6167 -0.3813  0.1453
   69SAPC  H13B 5831   4.247   1.023   2.748  0.4792  0.1437  1.3308
   69SAPC  H13C 5832   4.116   1.114   2.789  0.5854 -1.5092  2.4929
   69SAPC   C14 5833   4.279   1.355   2.843 -0.2675  0.4457 -0.2600
   69SAPC  H14A 5834   4.175   1.380   2.854  0.2669  2.8769  0.0006
   69SAPC  H14B 5835   4.333   1.412   2.917  0.3258 -0.4141 -0.0131
   69SAPC  H14C 5836   4.316   1.390   2.747  2.3330  1.0142  0.8656
   69SAPC   C15 5837   4.445   1.179   2.821  0.3521  0.2240 -0.0020
   69SAPC  H15A 5838   4.505   1.236   2.890  1.3596 -0.1858 -0.5156
   69SAPC  H15B 5839   4.454   1.072   2.832  0.1162  0.1740 -0.2894
   69SAPC  H15C 5840   4.470   1.222   2.725 -4.4474  0.2694 -1.4858
   69SAPC   C11 5841   4.370   1.183   3.114 -0.3104 -0.3343  1.1638
   69SAPC  H11A 5842   4.327   1.119   3.194 -1.1155 -0.6468  0.5014
   69SAPC  H11B 5843   4.360   1.290   3.142 -0.3992 -0.9806  3.8374
   69SAPC     P 5844   4.602   1.139   3.210 -0.4164  0.2411  0.2722
   69SAPC   O13 5845   4.692   1.250   3.222  0.1565 -0.4007 -0.8658
   69SAPC   O14 5846   4.518   1.120   3.327 -0.0528  0.4225 -1.0702
   69SAPC   O12 5847   4.514   1.157   3.087  0.1157  0.1169  0.0846
   69SAPC   O11 5848   4.682   1.010   3.184 -0.5566  0.5536  0.3036
   69SAPC    C1 5849   4.602   0.893   3.137 -0.4882  0.3595  0.0441
   69SAPC    HA 5850   4.498   0.897   3.176 -0.9857 -0.9687 -1.0654
   69SAPC    HB 5851   4.609   0.887   3.026  3.1420  1.2842  0.0845
   69SAPC    C2 5852   4.647   0.748   3.192  0.1472 -0.5844  0.8637
   69SAPC    HS 5853   4.565   0.677   3.169  1.4789 -1.5232 -1.2150
   69SAPC   O21 5854   4.683   0.755   3.329  0.1596  0.3496 -0.3775
   69SAPC   C21 5855   4.582   0.778   3.411  0.1068  0.4595 -0.5254
   69SAPC   O22 5856   4.461   0.794   3.380 -0.4484 -0.2729 -0.1484
   69SAPC   C22 5857   4.626   0.759   3.550 -0.3912 -0.3942 -0.3737
   69SAPC   H2R 5858   4.553   0.820   3.608 -0.1561  0.0080 -0.5008
   69SAPC   H2S 5859   4.609   0.651   3.574 -2.3528  0.2425  1.4940
   69SAPC    C3 5860   4.758   0.706   3.097 -0.1608 -0.1240  0.3581
   69SAPC    HX 5861   4.828   0.792   3.091 -0.3994  0.1095  0.8506
   69SAPC    HY 5862   4.707   0.684   3.001  1.7458 -1.4064 -0.4317
   69SAPC   O31 5863   4.824   0.589   3.147 -0.1185  0.0890  0.2103
   69SAPC   C31 5864   4.949   0.569   3.113 -0.0049 -0.0922 -0.2403
   69SAPC   O32 5865   5.013   0.639   3.034 -0.2252  0.0221  0.2845
   69SAPC   C32 5866   4.997   0.454   3.204 -0.1199 -0.8298  0.5769
   69SAPC   H2X 5867   5.013   0.363   3.143  0.0912 -0.9755  0.8475
   69SAPC   H2Y 5868   4.914   0.431   3.274  0.3266 -1.0859  1.0306
   69SAPC   C23 5869   4.769   0.799   3.590  0.0973 -0.1633 -1.3655
   69SAPC   H3R 5870   4.801   0.894   3.542 -0.1219  0.1048 -0.9816
   69SAPC   H3S 5871   4.844   0.724   3.555 -0.4642 -0.9470 -0.9318
   69SAPC   C24 5872   4.788   0.811   3.744  0.7445  0.6864  0.6612
   69SAPC   H4R 5873   4.896   0.794   3.765  0.8811  0.0309 -0.4687
   69SAPC   H4S 5874   4.728   0.731   3.793  0.0934  1.0553  0.4690
   69SAPC   C25 5875   4.746   0.941   3.809 -0.2133 -0.3516  0.0694
   69SAPC   H5R 5876   4.683   1.004   3.746 -1.4908 -2.0521 -0.4257
   69SAPC   C26 5877   4.789   0.976   3.931 -0.2921 -0.5628  0.1198
   69SAPC   H6R 5878   4.747   1.071   3.969 -0.5603 -0.4810 -0.3669
   69SAPC   C27 5879   4.865   0.891   4.035  0.1248 -0.4642  0.4235
   69SAPC   H7R 5880   4.890   0.789   3.999 -1.2141 -0.3993 -0.7866
   69SAPC   H7S 5881   4.802   0.860   4.121  0.7423  0.3763  1.2024
   69SAPC   C28 5882   4.988   0.968   4.081 -0.0218 -0.7171 -0.0452
   69SAPC   H8R 5883   5.020   1.044   4.008  0.1843 -1.5384 -0.8447
   69SAPC   C29 5884   5.051   0.956   4.199 -0.1152  0.1746  0.7611
   69SAPC   H9R 5885   5.136   1.023   4.221  0.4742 -0.5737  0.8155
   69SAPC  C210 5886   5.020   0.859   4.306  0.0325 -0.4769 -0.7461
   69SAPC  H10R 5887   5.104   0.788   4.325 -0.7257 -0.8098  1.6193
   69SAPC  H10S 5888   4.924   0.805   4.292 -0.7281  0.6777 -0.1359
   69SAPC  C211 5889   5.014   0.931   4.440  0.8107  0.1326 -0.2312
   69SAPC  H11R 5890   5.083   1.017   4.439  0.9304  0.0477  0.4655
   69SAPC  C212 5891   4.938   0.912   4.555 -0.0235  0.1775  0.1675
   69SAPC  H12R 5892   4.948   0.987   4.634 -1.2494  0.0550  0.4681
   69SAPC  C213 5893   4.831   0.806   4.574  1.3011 -0.1240  0.2455
   69SAPC  H13R 5894   4.882   0.712   4.604  2.3437  0.6719  1.0475
   69SAPC  H13S 5895   4.786   0.782   4.475 -1.1934 -0.1446  1.3160
   69SAPC  C214 5896   4.727   0.843   4.672  0.1199 -0.1832 -0.2986
   69SAPC  H14R 5897   4.693   0.948   4.669  2.2030  0.5400 -0.0826
   69SAPC  C215 5898   4.665   0.770   4.767 -0.4047 -0.0108  0.1192
   69SAPC  H15R 5899   4.596   0.814   4.840 -0.8753 -1.9954  0.9306
   69SAPC  C216 5900   4.691   0.633   4.803 -0.0760  0.0686 -0.2705
   69SAPC  H16R 5901   4.732   0.570   4.722 -1.4557 -1.1289 -0.0821
   69SAPC  H16S 5902   4.593   0.583   4.820  0.7631 -1.3980  0.3534
   69SAPC  C217 5903   4.784   0.616   4.927  0.8213  0.1179 -0.0862
   69SAPC  H17R 5904   4.757   0.693   5.002 -1.1396 -1.5545  1.0283
   69SAPC  H17S 5905   4.894   0.615   4.909  1.1581 -0.6319  1.7852
   69SAPC  C218 5906   4.753   0.481   4.995  0.1768  0.2463 -0.2012
   69SAPC  H18R 5907   4.757   0.400   4.919 -1.3973 -0.1812  0.1289
   69SAPC  H18S 5908   4.644   0.469   5.018  0.6639 -2.1399  1.2589
   69SAPC  C219 5909   4.839   0.437   5.115 -0.3821 -0.1830  1.1725
   69SAPC  H19R 5910   4.820   0.511   5.196  0.9918  1.3216  0.1918
   69SAPC  H19S 5911   4.942   0.464   5.082 -0.3387 -0.3271  1.1905
   69SAPC  C220 5912   4.828   0.295   5.165  0.3408  0.5259  0.5242
   69SAPC  H20R 5913   4.891   0.273   5.254 -1.5899  3.0935  2.7209
   69SAPC  H20S 5914   4.847   0.221   5.085  0.5119 -0.0721  1.1139
   69SAPC  H20T 5915   4.730   0.274   5.213  0.2595  1.0288  0.5864
   69SAPC   C33 5916   5.121   0.486   3.285 -0.8963 -0.3840 -0.4395
   69SAPC   H3X 5917   5.194   0.540   3.222  0.9365 -0.4889  1.4718
   69SAPC   H3Y 5918   5.175   0.401   3.332 -0.3186  0.8065  1.1523
   69SAPC   C34 5919   5.065   0.571   3.404 -1.0996 -0.2018 -0.5388
   69SAPC   H4X 5920   5.015   0.509   3.481  0.7871 -2.1497 -0.7993
   69SAPC   H4Y 5921   4.999   0.653   3.368  0.0703  1.1186  0.1965
   69SAPC   C35 5922   5.187   0.627   3.479  0.1515 -0.4497  0.6020
   69SAPC   H5X 5923   5.233   0.715   3.427 -0.8837 -0.1613  0.1595
   69SAPC   H5Y 5924   5.264   0.548   3.469 -0.9713 -1.5113  0.1470
   69SAPC   C36 5925   5.162   0.677   3.620  0.3417  0.3568 -0.5754
   69SAPC   H6X 5926   5.128   0.586   3.674 -0.8274  0.7936 -0.5445
   69SAPC   H6Y 5927   5.069   0.738   3.614 -0.2256 -0.2638  1.3946
   69SAPC   C37 5928   5.290   0.737   3.686 -0.1112  0.0286  0.7212
   69SAPC   H7X 5929   5.313   0.834   3.638 -1.0221  0.2188  0.6686
   69SAPC   H7Y 5930   5.381   0.674   3.673 -1.5624 -2.2008  0.7342
   69SAPC   C38 5931   5.266   0.777   3.834  0.1981  0.2367  0.7855
   69SAPC   H8X 5932   5.206   0.697   3.882 -0.2405  0.9729  1.4851
   69SAPC   H8Y 5933   5.219   0.877   3.845 -0.7566 -0.3035  1.7766
   69SAPC   C39 5934   5.402   0.776   3.904  0.0712  0.1252 -0.0529
   69SAPC   H9X 5935   5.477   0.839   3.853  0.2988  1.5854  1.9534
   69SAPC   H9Y 5936   5.430   0.670   3.884 -1.4679 -0.1671 -0.8012
   69SAPC  C310 5937   5.392   0.824   4.042 -1.0710  0.1676  0.3573
   69SAPC  H10X 5938   5.344   0.742   4.100  0.0247 -0.5970  0.1959
   69SAPC  H10Y 5939   5.330   0.916   4.051 -0.5344  0.5957 -0.2169
   69SAPC  C311 5940   5.527   0.840   4.106 -0.6196  0.4617  0.4620
   69SAPC  H11X 5941   5.600   0.893   4.041 -1.3612  1.4089  0.3873
   69SAPC  H11Y 5942   5.572   0.744   4.140  0.5077  1.2700  1.3491
   69SAPC  C312 5943   5.519   0.909   4.245  0.2312  0.2332 -0.2475
   69SAPC  H12X 5944   5.490   1.016   4.238 -2.4472 -0.3548  0.8159
   69SAPC  H12Y 5945   5.618   0.921   4.293  1.0716 -0.0529 -1.8196
   69SAPC  C313 5946   5.422   0.849   4.350 -1.2094  0.7004 -0.2725
   69SAPC  H13X 5947   5.450   0.743   4.367 -1.5799  0.9706  2.5982
   69SAPC  H13Y 5948   5.323   0.842   4.300 -0.9615 -0.2327 -0.6571
   69SAPC  C314 5949   5.432   0.915   4.488 -0.8149 -0.0072  0.7606
   69SAPC  H14X 5950   5.398   1.021   4.483 -1.2112 -0.1701 -0.1665
   69SAPC  H14Y 5951   5.535   0.925   4.529  0.7644 -0.0331 -2.8852
   69SAPC  C315 5952   5.348   0.834   4.590 -0.0548 -0.5522  0.6492
   69SAPC  H15X 5953   5.376   0.727   4.595  1.0359 -0.3767 -0.9629
   69SAPC  H15Y 5954   5.244   0.841   4.551  0.1493 -0.2140  0.1522
   69SAPC  C316 5955   5.344   0.889   4.738 -0.0912  0.2324 -0.4580
   69SAPC  H16X 5956   5.278   0.830   4.805  2.0608 -0.3824  1.2445
   69SAPC  H16Y 5957   5.316   0.996   4.727 -1.7301  0.0511  1.4305
   69SAPC  C317 5958   5.486   0.883   4.799 -0.3530 -0.2914 -0.2020
   69SAPC  H17X 5959   5.474   0.944   4.891 -0.8620 -1.4997  0.5567
   69SAPC  H17Y 5960   5.569   0.916   4.734 -1.3511  1.7185 -0.5208
   69SAPC  C318 5961   5.518   0.739   4.847  0.3950 -0.0476  1.0643
   69SAPC  H18X 5962   5.451   0.715   4.932 -0.0512 -1.1598  0.4216
   69SAPC  H18Y 5963   5.627   0.732   4.865  0.5772 -0.9723 -0.2359
   69SAPC  H18Z 5964   5.495   0.677   4.758  3.2786 -0.7372  0.7193
   70SAPC     N 5965   0.493   4.970   2.778  0.1891  0.3775  0.5652
   70SAPC   C12 5966   0.527   5.079   2.872  0.2831  0.3861 -0.5233
   70SAPC  H12A 5967   0.588   5.147   2.814  0.5167 -0.1083 -0.8679
   70SAPC  H12B 5968   0.589   5.037   2.949  0.3431 -0.1337 -0.8512
   70SAPC   C13 5969   0.394   4.871   2.822  0.8398  0.2761  0.1565
   70SAPC  H13A 5970   0.383   4.806   2.736  0.8522  1.1829 -0.5474
   70SAPC  H13B 5971   0.437   4.810   2.899 -0.6817 -1.5381 -0.3394
   70SAPC  H13C 5972   0.301   4.910   2.862  0.1903  0.5457 -1.4859
   70SAPC   C14 5973   0.443   5.040   2.648  0.0275  0.7420 -0.2979
   70SAPC  H14A 5974   0.506   5.123   2.621  0.6152  0.2482 -0.4681
   70SAPC  H14B 5975   0.450   4.973   2.564  2.2385  0.2549  0.2145
   70SAPC  H14C 5976   0.345   5.085   2.657  0.5465  2.5347 -2.7039
   70SAPC   C15 5977   0.623   4.904   2.733 -0.2466  0.0388 -0.3797
   70SAPC  H15A 5978   0.602   4.833   2.655  0.3127  1.1346 -1.5787
   70SAPC  H15B 5979   0.691   4.978   2.693  0.5878  0.2786  1.3729
   70SAPC  H15C 5980   0.657   4.860   2.825 -0.6567  2.7288  1.1549
   70SAPC   C11 5981   0.414   5.158   2.942  0.4167  0.6822 -0.5785
   70SAPC  H11A 5982   0.455   5.217   3.027 -0.3692  0.4476 -0.0271
   70SAPC  H11B 5983   0.345   5.089   2.995 -1.5048  2.4390 -0.6791
   70SAPC     P 5984   0.351   5.371   2.791  0.0249 -0.3581  0.0385
   70SAPC   O13 5985   0.494   5.393   2.770  0.6151 -0.9524 -0.3823
   70SAPC   O14 5986   0.259   5.381   2.675  0.4562  0.2253 -0.0944
   70SAPC   O12 5987   0.326   5.235   2.870  0.3799 -0.1313  0.2861
   70SAPC   O11 5988   0.301   5.479   2.890  0.3953  0.4749  0.5031
   70SAPC    C1 5989   0.377   5.509   3.009 -0.0387  0.3257 -0.4622
   70SAPC    HA 5990   0.464   5.441   3.022  1.1230  1.3313 -2.4186
   70SAPC    HB 5991   0.427   5.606   2.991 -0.3295  0.1969 -2.1175
   70SAPC    C2 5992   0.286   5.519   3.133 -0.1871  0.3257  0.5609
   70SAPC    HS 5993   0.211   5.599   3.112  2.4721  3.1479  1.1573
   70SAPC   O21 5994   0.364   5.556   3.247 -0.1638 -0.3201  0.3007
   70SAPC   C21 5995   0.407   5.684   3.246 -0.2179  0.4067  0.1075
   70SAPC   O22 5996   0.385   5.764   3.165  0.1022 -0.6580  0.1018
   70SAPC   C22 5997   0.491   5.708   3.375 -0.0229 -0.1721 -0.1225
   70SAPC   H2R 5998   0.512   5.611   3.425  0.8373  0.7261  1.2981
   70SAPC   H2S 5999   0.592   5.746   3.349  0.3840  1.1271  2.9859
   70SAPC    C3 6000   0.220   5.378   3.149  0.1854  0.2663  0.2343
   70SAPC    HX 6001   0.301   5.303   3.136  2.7427  2.9882 -0.5376
   70SAPC    HY 6002   0.149   5.357   3.065  0.4236 -4.0043  0.8807
   70SAPC   O31 6003   0.152   5.353   3.273  0.4142  0.5676  0.2291
   70SAPC   C31 6004   0.051   5.426   3.304  0.1964 -0.7515 -0.5694
   70SAPC   O32 6005  -0.013   5.497   3.230  0.5587 -0.1169  0.2193
   70SAPC   C32 6006   0.025   5.410   3.456  0.1605 -0.7778 -0.4207
   70SAPC   H2X 6007   0.114   5.420   3.521 -2.1437 -4.5716  3.9473
   70SAPC   H2Y 6008  -0.016   5.308   3.476 -0.6336 -0.2730  0.6507
   70SAPC   C23 6009   0.425   5.811   3.464  0.2520  0.0274  0.2886
   70SAPC   H3R 6010   0.409   5.907   3.411  3.2295  0.7861  0.5755
   70SAPC   H3S 6011   0.497   5.832   3.546  0.3011 -1.4314  0.6465
   70SAPC   C24 6012   0.291   5.768   3.523 -0.1781 -0.0796  0.1726
   70SAPC   H4R 6013   0.222   5.747   3.439  2.7009 -1.2817 -2.0997
   70SAPC   H4S 6014   0.242   5.851   3.578 -2.0126 -1.2834  0.4296
   70SAPC   C25 6015   0.302   5.648   3.616 -0.2857 -0.6223 -1.1147
   70SAPC   H5R 6016   0.298   5.551   3.565  2.3960 -0.9189 -0.8860
   70SAPC   C26 6017   0.350   5.655   3.746 -0.4052  0.3081 -0.3861
   70SAPC   H6R 6018   0.370   5.558   3.793  0.1401  0.4404 -0.3353
   70SAPC   C27 6019   0.389   5.769   3.836 -0.0252  0.0830  0.2644
   70SAPC   H7R 6020   0.306   5.782   3.909 -1.0526 -0.3514 -0.8051
   70SAPC   H7S 6021   0.363   5.864   3.785 -0.0576  0.0773  0.2696
   70SAPC   C28 6022   0.534   5.769   3.894  0.2629  0.1785 -0.7519
   70SAPC   H8R 6023   0.615   5.769   3.820  0.1129  0.6966 -0.9179
   70SAPC   C29 6024   0.555   5.764   4.029 -0.2261 -0.5122  0.2827
   70SAPC   H9R 6025   0.662   5.752   4.055  0.0175 -0.6502 -0.7172
   70SAPC  C210 6026   0.458   5.751   4.144  0.0120 -0.3456  0.1906
   70SAPC  H10R 6027   0.495   5.672   4.212 -1.7521 -2.1896 -0.8734
   70SAPC  H10S 6028   0.365   5.699   4.114  0.0746  0.5341 -1.6594
   70SAPC  C211 6029   0.446   5.875   4.226  0.2018  0.0474  0.0931
   70SAPC  H11R 6030   0.408   5.958   4.165 -2.0190  0.7526  2.2753
   70SAPC  C212 6031   0.476   5.900   4.351 -0.0166 -0.1647 -0.8173
   70SAPC  H12R 6032   0.453   6.005   4.377  0.1052 -0.6965  1.6773
   70SAPC  C213 6033   0.529   5.809   4.460 -0.0193 -0.0565 -0.2650
   70SAPC  H13R 6034   0.541   5.703   4.430  0.5173  0.0303 -0.3636
   70SAPC  H13S 6035   0.455   5.800   4.543  0.0557  1.9856  0.0776
   70SAPC  C214 6036   0.660   5.861   4.513 -0.2757 -0.2187 -0.2002
   70SAPC  H14R 6037   0.702   5.952   4.467  1.3114 -1.3815 -1.1454
   70SAPC  C215 6038   0.729   5.811   4.618  0.4125  0.8067 -0.0622
   70SAPC  H15R 6039   0.816   5.864   4.661  1.0703 -1.3863  1.5463
   70SAPC  C216 6040   0.680   5.681   4.689  0.9947 -0.1678  0.2429
   70SAPC  H16R 6041   0.571   5.677   4.670  1.1442  0.9586 -1.0505
   70SAPC  H16S 6042   0.687   5.697   4.798 -2.9254  1.6957  0.3746
   70SAPC  C217 6043   0.729   5.545   4.645 -0.0629 -0.2181 -0.3170
   70SAPC  H17R 6044   0.840   5.548   4.641 -0.0720 -0.1386 -0.5111
   70SAPC  H17S 6045   0.690   5.524   4.543 -1.3492 -2.0987  0.4919
   70SAPC  C218 6046   0.675   5.421   4.723  0.3731 -0.2070 -0.3264
   70SAPC  H18R 6047   0.725   5.334   4.676 -0.1059  1.1352 -3.6002
   70SAPC  H18S 6048   0.567   5.404   4.705  0.1859  0.3347  0.2294
   70SAPC  C219 6049   0.709   5.413   4.876 -0.2038  0.3729  0.8079
   70SAPC  H19R 6050   0.680   5.310   4.904 -2.2633  0.9409  0.9399
   70SAPC  H19S 6051   0.642   5.479   4.935  0.1279 -0.1063  1.7374
   70SAPC  C220 6052   0.848   5.449   4.911 -0.0217 -0.7131  0.4324
   70SAPC  H20R 6053   0.865   5.430   5.019  2.2712  2.9533  0.9037
   70SAPC  H20S 6054   0.853   5.560   4.902 -3.3929 -0.6419 -2.3617
   70SAPC  H20T 6055   0.924   5.412   4.839 -0.1574 -0.9991  0.4337
   70SAPC   C33 6056  -0.078   5.522   3.496  0.1584 -0.5223  0.3768
   70SAPC   H3X 6057  -0.169   5.511   3.434 -0.1122  1.5505  0.3512
   70SAPC   H3Y 6058  -0.045   5.627   3.480 -0.5142 -0.3709 -0.0624
   70SAPC   C34 6059  -0.139   5.509   3.641 -0.2823  0.3659  0.3694
   70SAPC   H4X 6060  -0.187   5.410   3.654 -0.7605  0.4994 -0.3204
   70SAPC   H4Y 6061  -0.212   5.592   3.653  0.4040  0.9638  0.5150
   70SAPC   C35 6062  -0.024   5.524   3.745 -0.0859  0.4810  0.2523
   70SAPC   H5X 6063   0.004   5.630   3.764 -0.1029  0.6527 -0.6381
   70SAPC   H5Y 6064   0.065   5.468   3.709 -1.3592 -0.0272 -2.2569
   70SAPC   C36 6065  -0.049   5.464   3.885 -1.0234 -0.6371  0.0962
   70SAPC   H6X 6066  -0.050   5.355   3.864 -2.7225 -0.9686  1.5741
   70SAPC   H6Y 6067  -0.151   5.497   3.916 -0.7842  1.6396 -1.2554
   70SAPC   C37 6068   0.052   5.499   3.993  0.0929 -1.1118 -0.6898
   70SAPC   H7X 6069   0.153   5.475   3.952  0.4569 -0.9639  0.0895
   70SAPC   H7Y 6070   0.053   5.609   4.004  0.2929 -1.3318  2.7895
   70SAPC   C38 6071   0.020   5.445   4.132 -0.2850  0.1961 -0.5705
   70SAPC   H8X 6072   0.018   5.335   4.121  0.1781  0.3719 -3.1179
   70SAPC   H8Y 6073  -0.082   5.486   4.150 -0.6203 -0.4721 -0.9066
   70SAPC   C39 6074   0.116   5.473   4.256  0.0283  0.3607  0.6967
   70SAPC   H9X 6075   0.141   5.581   4.242  0.1947  0.1978 -0.3205
   70SAPC   H9Y 6076   0.213   5.419   4.256  0.7050  1.4757  2.2107
   70SAPC  C310 6077   0.054   5.451   4.393  0.0750 -0.2642  0.2343
   70SAPC  H10X 6078   0.058   5.341   4.408  2.0130 -0.5234 -1.6232
   70SAPC  H10Y 6079  -0.050   5.488   4.385 -0.3930 -1.7631 -1.4340
   70SAPC  C311 6080   0.140   5.518   4.505  0.3582 -0.0779  0.3461
   70SAPC  H11X 6081   0.134   5.625   4.478  2.1217 -0.0943 -0.2188
   70SAPC  H11Y 6082   0.241   5.476   4.488 -0.1182 -1.2457  0.2508
   70SAPC  C312 6083   0.086   5.508   4.646 -0.3870  0.4867  0.4864
   70SAPC  H12X 6084   0.025   5.416   4.658  0.6440 -0.4726 -1.2119
   70SAPC  H12Y 6085   0.005   5.583   4.655 -0.5261  0.4070 -0.0257
   70SAPC  C313 6086   0.193   5.501   4.752  0.4432  0.4563  0.7779
   70SAPC  H13X 6087   0.241   5.402   4.762 -0.7275  0.0315  2.6873
   70SAPC  H13Y 6088   0.144   5.515   4.851  1.8545  0.0848  1.5543
   70SAPC  C314 6089   0.298   5.619   4.757 -0.1269  0.1394  0.3029
   70SAPC  H14X 6090   0.326   5.659   4.657  1.4495 -2.2993 -0.3155
   70SAPC  H14Y 6091   0.382   5.575   4.815 -1.0118  0.0689  1.5865
   70SAPC  C315 6092   0.249   5.731   4.854 -0.0597 -0.5285  0.3907
   70SAPC  H15X 6093   0.280   5.692   4.954  1.9368 -2.2279 -0.8165
   70SAPC  H15Y 6094   0.137   5.733   4.854 -0.0812 -1.4344  0.3274
   70SAPC  C316 6095   0.313   5.867   4.838  1.1789 -0.2002 -0.4253
   70SAPC  H16X 6096   0.244   5.919   4.768  0.9053 -2.2675 -1.8030
   70SAPC  H16Y 6097   0.414   5.862   4.791  2.2198  0.8761  1.5871
   70SAPC  C317 6098   0.314   5.942   4.967  0.0095 -0.5308  0.5813
   70SAPC  H17X 6099   0.361   5.896   5.057  0.0444  1.0980  1.4319
   70SAPC  H17Y 6100   0.206   5.957   4.987  0.1202 -0.0310  0.8015
   70SAPC  C318 6101   0.381   6.084   4.944 -0.0741  0.7088  1.1410
   70SAPC  H18X 6102   0.488   6.071   4.970 -0.2859 -2.3511  0.8653
   70SAPC  H18Y 6103   0.325   6.164   4.996 -2.0097  1.9069 -2.4795
   70SAPC  H18Z 6104   0.382   6.098   4.834  0.2543  1.7359  1.2705
   71SAPC     N 6105   0.189   4.503   2.201 -0.3678  0.0728  0.0751
   71SAPC   C12 6106   0.203   4.411   2.323  0.9468  0.0920 -0.6782
   71SAPC  H12A 6107   0.188   4.310   2.290 -3.5717 -0.2117  1.5679
   71SAPC  H12B 6108   0.124   4.417   2.396 -0.3567 -3.7736 -1.5496
   71SAPC   C13 6109   0.058   4.480   2.121 -0.9591 -0.0186 -0.1021
   71SAPC  H13A 6110   0.061   4.522   2.022 -0.4839  1.8211  0.6542
   71SAPC  H13B 6111   0.042   4.375   2.103 -2.9305  0.7550 -3.8278
   71SAPC  H13C 6112  -0.029   4.509   2.178  0.0469 -0.4591  1.7406
   71SAPC   C14 6113   0.194   4.652   2.228 -0.6322 -0.5493 -0.5124
   71SAPC  H14A 6114   0.254   4.680   2.313 -1.7110 -1.3114  0.5240
   71SAPC  H14B 6115   0.237   4.705   2.144  0.6808 -2.7062 -1.2736
   71SAPC  H14C 6116   0.095   4.694   2.237 -0.2606  0.4891 -1.0480
   71SAPC   C15 6117   0.305   4.478   2.106 -0.1347 -1.0860 -1.0009
   71SAPC  H15A 6118   0.303   4.383   2.055 -1.3560 -0.7900 -1.5591
   71SAPC  H15B 6119   0.308   4.554   2.029  0.3892 -0.5429 -0.4504
   71SAPC  H15C 6120   0.395   4.480   2.165  0.2145 -2.1154 -1.4780
   71SAPC   C11 6121   0.330   4.420   2.416  0.0777  0.1031  0.1974
   71SAPC  H11A 6122   0.420   4.382   2.363 -0.4375 -2.6403  1.1729
   71SAPC  H11B 6123   0.307   4.352   2.500 -0.0186  1.7613  1.5601
   71SAPC     P 6124   0.487   4.609   2.526  0.0171 -0.4609 -0.6376
   71SAPC   O13 6125   0.601   4.522   2.491  0.5803 -0.2964  0.6125
   71SAPC   O14 6126   0.488   4.749   2.468 -0.4204 -0.5107  0.1513
   71SAPC   O12 6127   0.351   4.552   2.465  0.4482 -0.4127 -0.4317
   71SAPC   O11 6128   0.473   4.605   2.685 -0.1919  0.7905  0.0932
   71SAPC    C1 6129   0.458   4.479   2.754 -0.0355 -0.8034  0.5601
   71SAPC    HA 6130   0.377   4.414   2.714 -1.0263  0.9420 -0.3938
   71SAPC    HB 6131   0.555   4.425   2.755  0.8087  0.4367 -2.7024
   71SAPC    C2 6132   0.416   4.508   2.902  0.3190 -0.2880 -0.4606
   71SAPC    HS 6133   0.403   4.413   2.959 -0.3578  0.2651  0.3274
   71SAPC   O21 6134   0.292   4.582   2.897 -0.1636  0.0127 -0.3140
   71SAPC   C21 6135   0.207   4.573   2.996 -0.1424 -0.8741 -0.1390
   71SAPC   O22 6136   0.219   4.516   3.108  0.2376 -0.4423  0.1549
   71SAPC   C22 6137   0.091   4.665   2.964  0.7996 -0.1212  0.5112
   71SAPC   H2R 6138   0.099   4.766   3.009 -0.9128  0.6909 -0.8664
   71SAPC   H2S 6139   0.086   4.679   2.853 -0.5035  1.4868  0.7235
   71SAPC    C3 6140   0.532   4.588   2.975  0.5196  0.6356  0.0390
   71SAPC    HX 6141   0.553   4.663   2.897 -0.1624 -1.6407 -2.4654
   71SAPC    HY 6142   0.617   4.517   2.980  0.1296  0.1677  0.1539
   71SAPC   O31 6143   0.483   4.639   3.100 -0.3781 -0.4185 -0.1170
   71SAPC   C31 6144   0.523   4.565   3.208  0.2185  0.1973 -1.0217
   71SAPC   O32 6145   0.595   4.469   3.207 -0.4113  0.6025 -0.0340
   71SAPC   C32 6146   0.460   4.632   3.331 -0.0377 -0.2247 -0.1612
   71SAPC   H2X 6147   0.355   4.597   3.321  0.0931 -0.4071 -1.0260
   71SAPC   H2Y 6148   0.455   4.743   3.328 -1.1585 -0.2633 -0.1972
   71SAPC   C23 6149  -0.043   4.619   3.034 -0.5822 -0.2581 -0.0007
   71SAPC   H3R 6150  -0.025   4.635   3.142 -2.2258  0.7887  0.1516
   71SAPC   H3S 6151  -0.058   4.509   3.025 -2.9659  0.1662 -2.3040
   71SAPC   C24 6152  -0.168   4.686   2.982 -0.9691 -1.2001  0.0507
   71SAPC   H4R 6153  -0.163   4.797   2.989  0.1141 -1.3166  1.5292
   71SAPC   H4S 6154  -0.250   4.663   3.054 -1.8874 -0.0738 -0.5958
   71SAPC   C25 6155  -0.198   4.636   2.849  0.0526  0.1456  0.2438
   71SAPC   H5R 6156  -0.110   4.609   2.789  0.0820 -1.9017  1.1266
   71SAPC   C26 6157  -0.322   4.599   2.802  0.0650 -0.2856 -0.0720
   71SAPC   H6R 6158  -0.329   4.574   2.695 -0.4825  2.4390 -0.7633
   71SAPC   C27 6159  -0.452   4.608   2.883 -0.6044 -0.3806 -1.2585
   71SAPC   H7R 6160  -0.528   4.684   2.856 -0.9006 -0.2562 -0.1030
   71SAPC   H7S 6161  -0.431   4.629   2.990 -0.0379 -0.6065 -1.3225
   71SAPC   C28 6162  -0.514   4.469   2.892  0.3393  0.4657  0.6494
   71SAPC   H8R 6163  -0.451   4.385   2.927 -0.7470  0.3041  2.3500
   71SAPC   C29 6164  -0.642   4.447   2.882  0.5610 -0.4556 -0.2704
   71SAPC   H9R 6165  -0.689   4.349   2.897 -0.6675  0.5786  4.0039
   71SAPC  C210 6166  -0.747   4.555   2.853  0.0036  0.6878  0.0433
   71SAPC  H10R 6167  -0.724   4.604   2.756 -0.4703  2.7340  0.8919
   71SAPC  H10S 6168  -0.745   4.642   2.923 -0.8569  0.4001  0.4350
   71SAPC  C211 6169  -0.887   4.504   2.840 -0.2712 -0.0480 -0.1006
   71SAPC  H11R 6170  -0.941   4.514   2.745 -0.0916 -1.1424 -0.3288
   71SAPC  C212 6171  -0.965   4.471   2.946 -0.8329 -0.1348  0.2961
   71SAPC  H12R 6172  -1.070   4.442   2.933 -1.1438  0.9341  0.3507
   71SAPC  C213 6173  -0.921   4.470   3.093  0.2864 -0.7173 -0.0835
   71SAPC  H13R 6174  -0.975   4.549   3.151  0.9757  0.6830 -1.2799
   71SAPC  H13S 6175  -0.814   4.496   3.107 -0.0926  0.6335  0.5265
   71SAPC  C214 6176  -0.946   4.334   3.159 -0.2076 -0.2277  0.2090
   71SAPC  H14R 6177  -1.033   4.278   3.123 -1.5690  1.2030  1.0860
   71SAPC  C215 6178  -0.865   4.281   3.255 -0.1302  0.6282 -0.4904
   71SAPC  H15R 6179  -0.880   4.182   3.299 -0.2986  1.2490  0.9076
   71SAPC  C216 6180  -0.742   4.345   3.319 -0.6392 -0.4015 -0.2787
   71SAPC  H16R 6181  -0.679   4.395   3.241  0.1353  0.3442  0.8002
   71SAPC  H16S 6182  -0.666   4.270   3.351 -0.5416 -0.1605  0.0587
   71SAPC  C217 6183  -0.773   4.426   3.454 -0.0809  0.6660 -0.3672
   71SAPC  H17R 6184  -0.852   4.496   3.418 -0.0380  0.8064 -0.1891
   71SAPC  H17S 6185  -0.683   4.477   3.493  0.4826  0.5723 -1.5021
   71SAPC  C218 6186  -0.822   4.345   3.579  0.9490  0.3839 -0.1520
   71SAPC  H18R 6187  -0.921   4.298   3.560  1.9270 -1.2463 -1.6252
   71SAPC  H18S 6188  -0.841   4.432   3.645 -1.0907  0.0159 -0.1833
   71SAPC  C219 6189  -0.718   4.254   3.642 -0.8675 -0.7373  0.1751
   71SAPC  H19R 6190  -0.620   4.307   3.640 -1.5494  0.5861 -2.2654
   71SAPC  H19S 6191  -0.715   4.156   3.590  1.2930 -0.3639 -0.5452
   71SAPC  C220 6192  -0.737   4.236   3.796  0.1617 -0.4240  0.4356
   71SAPC  H20R 6193  -0.810   4.158   3.825  0.0193 -1.5626 -2.6809
   71SAPC  H20S 6194  -0.770   4.333   3.840  1.4866 -0.7129  2.1488
   71SAPC  H20T 6195  -0.639   4.215   3.844  0.1108  0.8892  1.1877
   71SAPC   C33 6196   0.525   4.580   3.463 -0.1520 -0.2405 -0.0111
   71SAPC   H3X 6197   0.608   4.653   3.473  1.3560 -1.5877 -1.8035
   71SAPC   H3Y 6198   0.557   4.474   3.453 -1.8711 -0.6324 -1.9910
   71SAPC   C34 6199   0.424   4.587   3.583 -0.5474  0.1153  0.4858
   71SAPC   H4X 6200   0.347   4.512   3.555 -0.3368  0.4634 -1.1685
   71SAPC   H4Y 6201   0.366   4.682   3.588  0.6174  0.9115 -0.5046
   71SAPC   C35 6202   0.490   4.569   3.717 -0.7900  0.9316 -0.0411
   71SAPC   H5X 6203   0.553   4.658   3.735  0.8192 -0.4748  1.6577
   71SAPC   H5Y 6204   0.565   4.488   3.705  2.4989  3.6603  0.8480
   71SAPC   C36 6205   0.389   4.548   3.836 -0.3078 -0.2003 -0.1773
   71SAPC   H6X 6206   0.316   4.473   3.801 -0.3115  0.5263 -1.8624
   71SAPC   H6Y 6207   0.335   4.645   3.842 -1.3604 -0.7165 -0.9267
   71SAPC   C37 6208   0.440   4.529   3.977 -0.2629  0.1222 -0.8513
   71SAPC   H7X 6209   0.512   4.611   4.000  0.3615 -0.6021 -0.1697
   71SAPC   H7Y 6210   0.500   4.436   3.984  1.0608  1.0631  0.8846
   71SAPC   C38 6211   0.325   4.551   4.083  0.1015  0.1656  0.7888
   71SAPC   H8X 6212   0.251   4.468   4.076  0.7567 -0.3754  0.0275
   71SAPC   H8Y 6213   0.277   4.648   4.058 -2.4618 -0.5663  2.4008
   71SAPC   C39 6214   0.378   4.570   4.229 -0.0696 -0.2424 -0.0189
   71SAPC   H9X 6215   0.435   4.666   4.233  1.2075 -0.8458 -2.3682
   71SAPC   H9Y 6216   0.444   4.485   4.257 -0.0322  0.5752  2.7206
   71SAPC  C310 6217   0.264   4.563   4.335  0.2198 -0.1152  0.1055
   71SAPC  H10X 6218   0.212   4.467   4.313 -1.6992  0.9349 -0.1963
   71SAPC  H10Y 6219   0.181   4.634   4.316  0.7138  1.0934  2.2246
   71SAPC  C311 6220   0.325   4.578   4.479  0.6574 -0.0904  0.2818
   71SAPC  H11X 6221   0.383   4.672   4.473 -1.9161  1.5789  0.0374
   71SAPC  H11Y 6222   0.397   4.495   4.495  1.3007  0.5403  0.7113
   71SAPC  C312 6223   0.236   4.605   4.602  0.3345  0.2813  0.4422
   71SAPC  H12X 6224   0.180   4.515   4.636 -0.2736  0.1348 -0.8837
   71SAPC  H12Y 6225   0.166   4.691   4.588  0.5259  0.2851 -0.5516
   71SAPC  C313 6226   0.326   4.627   4.730  0.4742  0.1529  0.5956
   71SAPC  H13X 6227   0.366   4.730   4.738 -0.6505  0.7765 -1.2141
   71SAPC  H13Y 6228   0.412   4.556   4.731 -0.0289 -0.4757  2.2210
   71SAPC  C314 6229   0.247   4.610   4.862  0.4943  0.2780 -0.1705
   71SAPC  H14X 6230   0.219   4.502   4.860 -1.0469  0.5839  1.9146
   71SAPC  H14Y 6231   0.152   4.667   4.859 -0.2464 -0.8995  0.1785
   71SAPC  C315 6232   0.330   4.660   4.979 -0.3320  0.1055  0.0335
   71SAPC  H15X 6233   0.368   4.765   4.977  2.1934 -0.7448  0.0262
   71SAPC  H15Y 6234   0.424   4.601   4.980 -1.3955 -1.6450  0.8695
   71SAPC  C316 6235   0.257   4.641   5.115 -0.5585 -0.5274  0.1945
   71SAPC  H16X 6236   0.318   4.700   5.187  2.3618 -0.5607 -2.0914
   71SAPC  H16Y 6237   0.274   4.533   5.133  4.3879 -0.5712 -2.9397
   71SAPC  C317 6238   0.121   4.712   5.119  0.3212  0.1454 -0.2464
   71SAPC  H17X 6239   0.087   4.705   5.224 -0.8450 -1.7655 -0.7027
   71SAPC  H17Y 6240   0.048   4.653   5.059 -1.2259 -0.1872  1.8720
   71SAPC  C318 6241   0.120   4.861   5.080  0.0720  0.2066 -0.2013
   71SAPC  H18X 6242   0.019   4.906   5.091 -0.2676 -0.0835 -1.7873
   71SAPC  H18Y 6243   0.151   4.871   4.973  0.7997  0.2741  0.0137
   71SAPC  H18Z 6244   0.198   4.915   5.137 -1.1959  3.1658 -1.0657
   72SAPC     N 6245   6.446   3.999   2.478 -0.0401  0.3529  0.2263
   72SAPC   C12 6246   6.494   4.059   2.609 -0.0166 -1.0320 -0.0959
   72SAPC  H12A 6247   6.599   4.079   2.593 -0.4652  1.4062 -0.5024
   72SAPC  H12B 6248   6.489   3.994   2.694 -1.1822  1.0200  1.4912
   72SAPC   C13 6249   6.498   3.860   2.472 -0.3441  0.1890  0.2607
   72SAPC  H13A 6250   6.459   3.799   2.553 -1.4514 -0.6393 -0.8600
   72SAPC  H13B 6251   6.465   3.817   2.379  0.4948  0.0776  0.0100
   72SAPC  H13C 6252   6.605   3.864   2.476 -0.2759 -0.7115 -0.4588
   72SAPC   C14 6253   6.294   3.989   2.461  0.3645  0.2100 -0.1778
   72SAPC  H14A 6254   6.257   3.980   2.562  2.3474  1.9827  0.7855
   72SAPC  H14B 6255   6.256   4.079   2.415  0.3474  0.5405  0.4747
   72SAPC  H14C 6256   6.265   3.909   2.395 -3.1564  2.2621 -1.3900
   72SAPC   C15 6257   6.504   4.076   2.365 -0.3433 -0.0017 -0.0564
   72SAPC  H15A 6258   6.611   4.061   2.360 -0.3504 -0.1163  0.1253
   72SAPC  H15B 6259   6.462   4.049   2.269  0.3669 -1.2390 -0.0351
   72SAPC  H15C 6260   6.482   4.182   2.372  2.1963  0.7264 -1.6510
   72SAPC   C11 6261   6.441   4.203   2.649 -0.5562  0.2911  0.0038
   72SAPC  H11A 6262   6.457   4.227   2.756  0.9737  3.8704 -0.8564
   72SAPC  H11B 6263   6.332   4.202   2.629 -0.5893 -0.8855  0.1740
   72SAPC     P 6264   6.657   4.332   2.585 -0.2358  0.0986  0.5535
   72SAPC   O13 6265   6.733   4.225   2.515  0.4581 -0.3335  0.0158
   72SAPC   O14 6266   6.686   4.469   2.535  0.1134 -0.0338 -0.1102
   72SAPC   O12 6267   6.503   4.302   2.564 -0.1397  0.4517  0.2506
   72SAPC   O11 6268   6.669   4.312   2.744 -0.5273 -0.2905  0.9526
   72SAPC    C1 6269   6.797   4.279   2.796  0.3741  0.4464  0.4213
   72SAPC    HA 6270   6.885   4.326   2.746  2.2003 -0.1363  2.8805
   72SAPC    HB 6271   6.811   4.312   2.901 -0.5007 -1.6191  1.2382
   72SAPC    C2 6272   6.842   4.130   2.785 -0.0828  0.2524 -0.8664
   72SAPC    HS 6273   6.809   4.099   2.683  0.2603  0.3334 -1.0056
   72SAPC   O21 6274   6.778   4.060   2.897 -0.6376  0.1062 -0.6164
   72SAPC   C21 6275   6.701   3.963   2.867  0.1524 -0.0973 -0.1922
   72SAPC   O22 6276   6.703   3.900   2.761  0.2325 -0.8471  0.3306
   72SAPC   C22 6277   6.605   3.947   2.982 -0.2473  0.3298  0.7879
   72SAPC   H2R 6278   6.501   3.965   2.946  0.5217  0.4502 -1.5498
   72SAPC   H2S 6279   6.603   3.838   3.005  1.1796  0.0752 -0.1950
   72SAPC    C3 6280   6.995   4.110   2.791 -1.1587 -0.4127 -0.2179
   72SAPC    HX 6281   7.041   4.162   2.705 -2.6021 -0.5484 -1.0863
   72SAPC    HY 6282   7.013   4.000   2.783 -1.8126 -0.3975 -2.5322
   72SAPC   O31 6283   7.053   4.161   2.913  0.3189  0.1091 -0.2124
   72SAPC   C31 6284   7.047   4.076   3.013  0.0831 -1.1657 -0.1149
   72SAPC   O32 6285   7.035   3.953   3.011  0.0279 -0.3795 -0.1774
   72SAPC   C32 6286   7.083   4.155   3.141 -0.6601 -0.5268  0.3171
   72SAPC   H2X 6287   7.094   4.263   3.117 -1.5625 -0.4405  0.2492
   72SAPC   H2Y 6288   7.179   4.111   3.176 -0.9072 -2.6108 -1.4344
   72SAPC   C23 6289   6.637   4.023   3.109  0.5650 -1.0717 -0.2141
   72SAPC   H3R 6290   6.745   4.011   3.133  0.8931  0.7692 -0.5957
   72SAPC   H3S 6291   6.568   3.984   3.187 -0.7418  2.0192  0.3610
   72SAPC   C24 6292   6.599   4.175   3.107 -0.2323  0.1491  0.1558
   72SAPC   H4R 6293   6.664   4.212   3.025  1.7259  0.9525  1.9806
   72SAPC   H4S 6294   6.635   4.234   3.194  0.9525  2.7369 -1.9215
   72SAPC   C25 6295   6.451   4.206   3.080  0.0586 -0.2806  0.0378
   72SAPC   H5R 6296   6.434   4.208   2.971  1.0299  1.0171 -0.1083
   72SAPC   C26 6297   6.352   4.219   3.170 -0.3941 -0.1186 -0.3029
   72SAPC   H6R 6298   6.246   4.220   3.140 -0.5719  0.0717  0.2981
   72SAPC   C27 6299   6.368   4.232   3.319  0.5022 -0.1454  0.7411
   72SAPC   H7R 6300   6.324   4.330   3.348  2.4548  0.8425  0.5323
   72SAPC   H7S 6301   6.476   4.249   3.339  0.4012 -1.2949  2.5511
   72SAPC   C28 6302   6.312   4.117   3.408 -0.5318  0.0094  0.5737
   72SAPC   H8R 6303   6.225   4.067   3.362  0.2003 -0.4398 -0.3540
   72SAPC   C29 6304   6.351   4.075   3.530  0.8876 -0.4116 -0.0125
   72SAPC   H9R 6305   6.294   3.994   3.577 -1.6802  0.4211 -1.4724
   72SAPC  C210 6306   6.465   4.143   3.611 -0.0238 -0.9342 -0.1534
   72SAPC  H10R 6307   6.424   4.241   3.644  0.5352 -1.1682  1.3482
   72SAPC  H10S 6308   6.551   4.166   3.545  0.1250  0.3125  0.4519
   72SAPC  C211 6309   6.514   4.065   3.729  1.0579 -0.3315  0.7402
   72SAPC  H11R 6310   6.510   3.956   3.720  2.2684 -0.3963  0.8453
   72SAPC  C212 6311   6.549   4.122   3.847  0.0390  0.6656  0.4728
   72SAPC  H12R 6312   6.569   4.050   3.927 -1.9489 -0.8546 -0.3440
   72SAPC  C213 6313   6.529   4.268   3.884  0.0136 -0.3288  0.3701
   72SAPC  H13R 6314   6.552   4.336   3.799  0.6246 -0.9818  0.0024
   72SAPC  H13S 6315   6.598   4.299   3.966  0.0566 -1.3514  0.7319
   72SAPC  C214 6316   6.387   4.293   3.926 -0.1861 -0.3308  0.1282
   72SAPC  H14R 6317   6.319   4.290   3.839 -0.0078 -1.0458  0.0022
   72SAPC  C215 6318   6.346   4.325   4.046  0.1477  0.3999 -0.1423
   72SAPC  H15R 6319   6.241   4.357   4.050  0.2731  1.2009 -2.1433
   72SAPC  C216 6320   6.428   4.332   4.172 -0.5871  0.0867  0.0731
   72SAPC  H16R 6321   6.394   4.411   4.242  2.4905  0.5192  1.2441
   72SAPC  H16S 6322   6.530   4.362   4.139 -0.3919 -0.1056  0.4953
   72SAPC  C217 6323   6.442   4.194   4.237 -0.3133  0.4228 -0.1644
   72SAPC  H17R 6324   6.478   4.131   4.153 -0.5224  1.2424 -0.8886
   72SAPC  H17S 6325   6.349   4.157   4.284  1.0257 -1.9220  0.8075
   72SAPC  C218 6326   6.554   4.200   4.353 -0.8291 -0.9774  0.2537
   72SAPC  H18R 6327   6.660   4.212   4.322 -0.3637 -0.0176  2.1166
   72SAPC  H18S 6328   6.536   4.108   4.413 -2.3207 -0.1798  1.0814
   72SAPC  C219 6329   6.533   4.318   4.457 -0.4842 -0.0953  0.3833
   72SAPC  H19R 6330   6.438   4.295   4.509  0.1812  0.6775  2.0104
   72SAPC  H19S 6331   6.520   4.418   4.411 -2.5408 -1.1568 -1.5469
   72SAPC  C220 6332   6.642   4.336   4.560  1.0839  0.1872 -0.1644
   72SAPC  H20R 6333   6.734   4.363   4.503 -1.1749  2.1198 -3.2082
   72SAPC  H20S 6334   6.655   4.252   4.631 -1.7704 -0.2659 -0.0654
   72SAPC  H20T 6335   6.619   4.420   4.630  1.0979 -0.3880  0.5373
   72SAPC   C33 6336   6.980   4.140   3.245  0.3019  1.0005 -0.0755
   72SAPC   H3X 6337   7.011   4.073   3.328  1.7607  0.1370 -1.2569
   72SAPC   H3Y 6338   6.885   4.096   3.206 -0.0116  1.6326 -0.0482
   72SAPC   C34 6339   6.953   4.272   3.326  0.7224  0.0006  0.5798
   72SAPC   H4X 6340   6.893   4.345   3.267 -0.0090 -0.0379  1.2585
   72SAPC   H4Y 6341   7.046   4.319   3.364 -0.8646  3.1333  0.9273
   72SAPC   C35 6342   6.873   4.255   3.458 -0.3229  0.6641  0.1910
   72SAPC   H5X 6343   6.771   4.214   3.440 -0.5892  0.7343  1.4085
   72SAPC   H5Y 6344   6.854   4.355   3.503 -0.4350  0.7785 -0.1149
   72SAPC   C36 6345   6.953   4.186   3.565  0.5514  0.0083 -0.1049
   72SAPC   H6X 6346   7.042   4.251   3.571 -0.4703  1.3498  2.3496
   72SAPC   H6Y 6347   6.987   4.087   3.528 -0.5638  0.1378 -1.5638
   72SAPC   C37 6348   6.873   4.178   3.699  0.9486  0.3897 -0.5000
   72SAPC   H7X 6349   6.796   4.101   3.677 -0.5878  1.4061  1.0366
   72SAPC   H7Y 6350   6.811   4.269   3.718 -1.9732 -1.2703 -1.3943
   72SAPC   C38 6351   6.971   4.161   3.822 -0.0786 -0.1064 -0.1435
   72SAPC   H8X 6352   7.039   4.247   3.837  0.5601 -1.0040  2.7669
   72SAPC   H8Y 6353   7.037   4.072   3.810  1.2820  0.6304  1.4447
   72SAPC   C39 6354   6.905   4.139   3.958  0.1223 -0.1064  0.4050
   72SAPC   H9X 6355   6.862   4.037   3.947 -1.0278  0.2610  1.3200
   72SAPC   H9Y 6356   6.830   4.221   3.963 -0.4727 -0.4290 -1.9607
   72SAPC  C310 6357   7.004   4.149   4.071 -0.3329  0.0036  0.3281
   72SAPC  H10X 6358   7.046   4.252   4.069  0.8821 -0.4460 -2.5890
   72SAPC  H10Y 6359   7.087   4.075   4.066  0.2312  0.6181  0.5505
   72SAPC  C311 6360   6.926   4.125   4.198  0.1743  0.1634  0.5022
   72SAPC  H11X 6361   6.872   4.029   4.183  1.2547 -0.8712  2.7670
   72SAPC  H11Y 6362   6.846   4.199   4.217 -1.8868 -2.2598  1.9402
   72SAPC  C312 6363   7.010   4.106   4.325  0.1162  0.1450  0.0580
   72SAPC  H12X 6364   7.060   4.204   4.339 -1.1558  0.4519  3.2812
   72SAPC  H12Y 6365   7.090   4.030   4.317 -0.4467 -0.7258  2.0023
   72SAPC  C313 6366   6.929   4.086   4.454 -0.4954  0.1835  0.2727
   72SAPC  H13X 6367   6.834   4.029   4.444 -1.0360  1.0838  0.1345
   72SAPC  H13Y 6368   6.902   4.186   4.496  0.9920  0.6815  0.1088
   72SAPC  C314 6369   7.019   4.016   4.560 -0.1828 -0.5594  0.2219
   72SAPC  H14X 6370   7.119   4.062   4.577 -0.2613 -0.6649  1.0244
   72SAPC  H14Y 6371   7.023   3.911   4.526 -1.7714 -1.3303  2.1818
   72SAPC  C315 6372   6.933   4.008   4.695 -0.5797  0.0543  0.0632
   72SAPC  H15X 6373   6.982   3.925   4.751 -2.4084 -2.2532 -1.5699
   72SAPC  H15Y 6374   6.830   3.971   4.678 -0.1983 -0.9897 -0.0585
   72SAPC  C316 6375   6.947   4.139   4.769  0.6260  0.8430  0.2891
   72SAPC  H16X 6376   6.875   4.207   4.719 -1.1848 -0.2229  1.3372
   72SAPC  H16Y 6377   7.044   4.189   4.747  0.0773  1.8699  0.1498
   72SAPC  C317 6378   6.908   4.130   4.919 -0.3708  0.3029 -0.5532
   72SAPC  H17X 6379   6.977   4.055   4.963  0.4237  0.4424 -1.5212
   72SAPC  H17Y 6380   6.808   4.085   4.934 -0.1085 -0.2801 -0.5463
   72SAPC  C318 6381   6.911   4.263   5.000  0.6435 -0.4591 -0.2352
   72SAPC  H18X 6382   7.013   4.307   4.988 -0.1399  2.0062  1.5119
   72SAPC  H18Y 6383   6.903   4.253   5.110 -1.4430  3.0858  0.0778
   72SAPC  H18Z 6384   6.837   4.339   4.968 -0.1493 -1.0268  0.2295
   73SLPC     N 6385   6.570   1.977   8.319  0.3761  0.5178 -0.7899
   73SLPC   C13 6386   6.493   2.065   8.410 -0.1031  0.6319  0.2432
   73SLPC  H13A 6387   6.549   2.152   8.442 -0.0088  0.0220  1.8158
   73SLPC  H13B 6388   6.413   2.119   8.360  0.0862  0.1629 -0.5833
   73SLPC  H13C 6389   6.444   2.014   8.491  0.9311  0.2831  0.6606
   73SLPC   C14 6390   6.476   1.870   8.278 -0.1487 -0.5573 -0.2226
   73SLPC  H14A 6391   6.390   1.903   8.223  0.6730 -0.0392 -1.2367
   73SLPC  H14B 6392   6.527   1.808   8.206  1.0452  3.2046 -2.8862
   73SLPC  H14C 6393   6.444   1.806   8.360 -3.1552  2.7098  1.4096
   73SLPC   C15 6394   6.685   1.909   8.383 -0.7184 -0.3073 -0.2363
   73SLPC  H15A 6395   6.716   1.825   8.322  1.5824  0.0260  0.3985
   73SLPC  H15B 6396   6.776   1.966   8.384  0.4837 -2.0983 -1.0331
   73SLPC  H15C 6397   6.659   1.877   8.483  2.0537  0.6747  0.8918
   73SLPC   C12 6398   6.620   2.059   8.206 -0.2115 -0.2002  0.3723
   73SLPC  H12A 6399   6.705   2.120   8.230 -0.4414  0.1382  0.3355
   73SLPC  H12B 6400   6.549   2.118   8.150 -0.1876  0.5007  1.0751
   73SLPC   C11 6401   6.671   1.980   8.085  0.3333  0.2089 -0.6763
   73SLPC  H11A 6402   6.750   1.906   8.113 -1.4301 -2.1285 -1.4789
   73SLPC  H11B 6403   6.722   2.057   8.023  2.5652  1.7961  2.8110
   73SLPC     P 6404   6.467   1.991   7.925 -0.3443 -0.3259 -0.1052
   73SLPC   O13 6405   6.401   2.094   8.003  0.1599  0.1611 -0.3132
   73SLPC   O14 6406   6.544   2.036   7.807 -0.0777  0.2217  0.2851
   73SLPC   O12 6407   6.568   1.911   8.013 -0.5339  0.0264  0.1956
   73SLPC   O11 6408   6.368   1.877   7.884  0.1874  0.2623 -0.1440
   73SLPC    C1 6409   6.407   1.773   7.796 -0.7860 -0.0717 -0.1298
   73SLPC    HA 6410   6.516   1.754   7.793 -0.9542 -1.2525  0.6184
   73SLPC    HB 6411   6.352   1.678   7.817 -1.7552  0.4005 -0.4481
   73SLPC    C2 6412   6.359   1.801   7.651  0.5169 -0.2721  0.0304
   73SLPC    HS 6413   6.374   1.909   7.630 -1.5115 -0.3997 -2.7069
   73SLPC   O21 6414   6.218   1.765   7.644  0.2218  0.2638 -0.0536
   73SLPC   C21 6415   6.149   1.852   7.570 -0.0404  0.1312 -0.0609
   73SLPC   O22 6416   6.184   1.966   7.549  0.1908 -0.6607 -0.5819
   73SLPC   C22 6417   6.011   1.792   7.527 -0.0699  0.2611  0.1457
   73SLPC   H2R 6418   5.978   1.724   7.609  0.0376  1.8074  1.5292
   73SLPC   H2S 6419   5.949   1.883   7.512  0.9594  1.0874  0.7521
   73SLPC    C3 6420   6.431   1.723   7.548 -0.3844  0.0190 -0.7034
   73SLPC    HX 6421   6.395   1.618   7.554 -2.6320  0.7904  1.3331
   73SLPC    HY 6422   6.539   1.732   7.571 -0.6116 -2.0704  1.6051
   73SLPC   O31 6423   6.400   1.765   7.412 -0.1427 -0.5148 -0.7860
   73SLPC   C31 6424   6.492   1.839   7.358  0.6403 -0.4759  0.1270
   73SLPC   O32 6425   6.591   1.890   7.408 -0.2188  0.1713  0.4313
   73SLPC   C32 6426   6.452   1.863   7.218 -0.1123 -0.3204  0.1076
   73SLPC   H2X 6427   6.429   1.971   7.216  1.3884  0.1074  2.1336
   73SLPC   H2Y 6428   6.364   1.803   7.185 -0.7487  1.6712 -2.0680
   73SLPC   C23 6429   6.028   1.712   7.398  0.9418 -0.0458 -0.1770
   73SLPC   H3R 6430   5.935   1.651   7.392  0.9620 -0.2536  1.2575
   73SLPC   H3S 6431   6.113   1.641   7.396  1.2216  0.2602 -3.4083
   73SLPC   C24 6432   6.047   1.807   7.276 -0.2221  0.2506 -0.2685
   73SLPC   H4R 6433   6.145   1.854   7.301  0.4861 -1.1680 -0.3202
   73SLPC   H4S 6434   5.961   1.878   7.270 -0.0647  0.5225  0.5959
   73SLPC   C25 6435   6.059   1.717   7.154 -0.2402  0.5927  0.1409
   73SLPC   H5R 6436   5.976   1.647   7.129 -0.6681  1.8839 -2.3878
   73SLPC   H5S 6437   6.143   1.650   7.185 -1.8152 -0.5518  2.1519
   73SLPC   C26 6438   6.090   1.797   7.021  0.7300  0.2643 -0.1741
   73SLPC   H6R 6439   6.189   1.846   7.034 -0.1508  1.9143  0.6346
   73SLPC   H6S 6440   6.019   1.882   7.011 -0.1540 -0.2868  1.0902
   73SLPC   C27 6441   6.088   1.723   6.887 -0.1780  0.0096  0.2756
   73SLPC   H7R 6442   5.997   1.660   6.884 -0.6676  0.6943 -2.6119
   73SLPC   H7S 6443   6.178   1.660   6.871 -1.4148 -1.4897 -1.1153
   73SLPC   C28 6444   6.082   1.822   6.764  0.3802 -0.1747  0.4229
   73SLPC   H8R 6445   6.187   1.858   6.760  1.0608 -1.9638  0.8915
   73SLPC   H8S 6446   6.014   1.901   6.801 -0.0581 -0.1460 -0.4403
   73SLPC   C29 6447   6.018   1.771   6.636 -0.3245 -0.1888 -0.3835
   73SLPC   H9R 6448   5.908   1.778   6.635 -0.3378 -0.2569 -1.4225
   73SLPC  C210 6449   6.088   1.714   6.536 -0.3572 -0.2650  0.6052
   73SLPC  H10R 6450   6.042   1.695   6.438  3.2925 -1.3228 -1.1008
   73SLPC  C211 6451   6.243   1.711   6.514 -1.3780 -0.4628 -0.2996
   73SLPC  H11R 6452   6.279   1.669   6.611  0.0885 -0.7195 -0.9333
   73SLPC  H11S 6453   6.283   1.814   6.509 -0.8349 -0.7202 -1.8552
   73SLPC  C212 6454   6.292   1.623   6.398  0.6179 -0.4288 -0.7991
   73SLPC  H12R 6455   6.338   1.530   6.434 -1.2676 -0.4216  2.0073
   73SLPC  C213 6456   6.293   1.650   6.269  0.1091 -0.3915 -0.8334
   73SLPC  H13R 6457   6.325   1.569   6.201  1.7311 -0.6909  0.2404
   73SLPC  C214 6458   6.247   1.779   6.203  0.0135  0.2680 -0.8269
   73SLPC  H14R 6459   6.336   1.827   6.156  0.4588 -0.1431 -0.4063
   73SLPC  H14S 6460   6.188   1.847   6.268 -1.0928 -0.6391 -0.8544
   73SLPC  C215 6461   6.142   1.759   6.092 -0.0554  0.8322 -0.0933
   73SLPC  H15R 6462   6.140   1.862   6.051 -3.2689  1.5267  1.5205
   73SLPC  H15S 6463   6.041   1.732   6.131  0.1145 -1.3158 -0.9777
   73SLPC  C216 6464   6.179   1.674   5.969  0.5882  0.2654 -0.1471
   73SLPC  H16R 6465   6.205   1.574   6.011 -0.3860 -0.1446 -0.4906
   73SLPC  H16S 6466   6.272   1.708   5.917  1.6937  0.5434  1.9321
   73SLPC  C217 6467   6.063   1.662   5.873  0.1802  0.4706  0.8577
   73SLPC  H17R 6468   5.981   1.607   5.923 -0.1873 -0.7150 -0.9705
   73SLPC  H17S 6469   6.089   1.597   5.787 -2.0783  0.0153  0.4619
   73SLPC  C218 6470   6.019   1.794   5.814  0.0136  0.5442  0.2160
   73SLPC  H18R 6471   5.911   1.788   5.788 -0.2693 -4.0123  1.5771
   73SLPC  H18S 6472   6.066   1.805   5.714  2.9735 -0.6120  1.3673
   73SLPC  H18T 6473   6.035   1.887   5.871  0.2545  1.4094 -1.2188
   73SLPC   C33 6474   6.568   1.848   7.117 -0.4065 -0.1446  0.3963
   73SLPC   H3X 6475   6.607   1.745   7.127  1.2197  0.5564  1.8916
   73SLPC   H3Y 6476   6.639   1.932   7.133 -0.6025  0.9054 -3.3323
   73SLPC   C34 6477   6.506   1.862   6.973 -0.1201  0.3575  0.6472
   73SLPC   H4X 6478   6.455   1.960   6.967 -0.4655  0.0683 -2.7960
   73SLPC   H4Y 6479   6.426   1.787   6.957 -0.5382  1.0296 -0.5101
   73SLPC   C35 6480   6.612   1.848   6.866  0.4619 -0.3408 -0.7693
   73SLPC   H5X 6481   6.691   1.784   6.911 -1.9355 -2.8444  0.1718
   73SLPC   H5Y 6482   6.656   1.947   6.840 -0.7844  0.4133 -0.1086
   73SLPC   C36 6483   6.557   1.787   6.738  0.3815  0.2439  0.3996
   73SLPC   H6X 6484   6.461   1.838   6.715  0.2664 -0.3654 -0.5346
   73SLPC   H6Y 6485   6.538   1.679   6.752  1.4177  0.1292  0.9866
   73SLPC   C37 6486   6.659   1.796   6.619 -0.9888 -0.1088  0.0125
   73SLPC   H7X 6487   6.755   1.750   6.652 -2.2663 -1.5500  1.9678
   73SLPC   H7Y 6488   6.666   1.904   6.592  2.0110 -0.5180 -1.2527
   73SLPC   C38 6489   6.610   1.724   6.492 -0.0829 -0.1134  0.6785
   73SLPC   H8X 6490   6.515   1.769   6.457 -0.7974 -1.9129  0.1663
   73SLPC   H8Y 6491   6.584   1.617   6.511  1.3257 -0.7197 -0.5552
   73SLPC   C39 6492   6.720   1.730   6.389  0.1183 -0.8701  0.2447
   73SLPC   H9X 6493   6.797   1.651   6.404  1.2126 -0.2178 -1.5311
   73SLPC   H9Y 6494   6.759   1.834   6.393 -0.6747 -0.4742 -1.4310
   73SLPC  C310 6495   6.664   1.711   6.242 -0.1783  0.3175 -0.2478
   73SLPC  H10X 6496   6.586   1.787   6.217 -0.4126  0.1792  0.0538
   73SLPC  H10Y 6497   6.609   1.615   6.251  0.1862  0.1446  0.1348
   73SLPC  C311 6498   6.771   1.725   6.136 -0.0706 -0.0590 -0.4319
   73SLPC  H11X 6499   6.853   1.654   6.162  0.0624  1.1905  2.9712
   73SLPC  H11Y 6500   6.815   1.825   6.153 -0.5559 -0.2775  2.6167
   73SLPC  C312 6501   6.737   1.693   5.994  0.1143  0.6852 -0.5348
   73SLPC  H12X 6502   6.627   1.677   5.981 -0.4794  4.4002 -1.4177
   73SLPC  H12Y 6503   6.784   1.596   5.970  0.8866  0.9975 -0.3002
   73SLPC  C313 6504   6.787   1.792   5.890  1.3758 -0.4504  0.3320
   73SLPC  H13X 6505   6.897   1.805   5.887  1.2573  0.4308 -1.0889
   73SLPC  H13Y 6506   6.738   1.891   5.904  0.5026 -0.8138 -0.0745
   73SLPC  C314 6507   6.734   1.762   5.748  0.3674 -0.1248  0.2477
   73SLPC  H14X 6508   6.638   1.816   5.730  0.2755 -0.3914 -0.0690
   73SLPC  H14Y 6509   6.700   1.659   5.722  1.1271 -0.2690 -0.1809
   73SLPC  C315 6510   6.828   1.794   5.633 -0.4626  0.3350  0.1997
   73SLPC  H15X 6511   6.904   1.714   5.646  0.0155  0.3024 -2.3232
   73SLPC  H15Y 6512   6.882   1.891   5.637  0.2403 -0.0235 -0.3995
   73SLPC  C316 6513   6.759   1.785   5.496 -0.2487 -0.3739 -0.0223
   73SLPC  H16X 6514   6.736   1.677   5.482  0.3359 -0.6854  1.2006
   73SLPC  H16Y 6515   6.837   1.821   5.425 -0.0891 -0.6329  0.0172
   73SLPC  C317 6516   6.646   1.885   5.491  0.5258  0.4354  1.0409
   73SLPC  H17X 6517   6.674   1.968   5.560  1.2211 -0.0038  1.2922
   73SLPC  H17Y 6518   6.550   1.850   5.537  0.6617 -0.4482  0.6698
   73SLPC  C318 6519   6.639   1.963   5.357  0.0257  0.0620  0.2312
   73SLPC  H18X 6520   6.579   1.899   5.288 -1.6925 -1.3574  2.8519
   73SLPC  H18Y 6521   6.744   1.971   5.322  0.2826 -1.4263  0.5963
   73SLPC  H18Z 6522   6.575   2.053   5.359 -0.2420  0.0519 -3.1212
   74SLPC     N 6523   3.236   1.666   7.679 -0.4622  0.2862  0.1098
   74SLPC   C13 6524   3.310   1.776   7.750 -0.6293 -0.4315  0.2796
   74SLPC  H13A 6525   3.301   1.771   7.858  1.9347  0.3103  0.5945
   74SLPC  H13B 6526   3.414   1.772   7.721 -0.9627  0.8652 -1.2027
   74SLPC  H13C 6527   3.276   1.873   7.718  1.1655  0.9121  2.1658
   74SLPC   C14 6528   3.096   1.676   7.712  0.2205 -0.0991 -0.2854
   74SLPC  H14A 6529   3.075   1.652   7.815  0.0328  2.6221  0.3919
   74SLPC  H14B 6530   3.068   1.779   7.697  2.4562  0.5859 -0.1504
   74SLPC  H14C 6531   3.035   1.621   7.642  1.4699 -0.4207 -1.1560
   74SLPC   C15 6532   3.290   1.537   7.720 -0.6398  0.5999 -0.0736
   74SLPC  H15A 6533   3.394   1.527   7.691 -0.4958  1.2100  0.2356
   74SLPC  H15B 6534   3.280   1.530   7.827 -0.1933  0.1554 -0.0522
   74SLPC  H15C 6535   3.241   1.449   7.680 -2.5966  2.9469 -3.2704
   74SLPC   C12 6536   3.253   1.686   7.531 -0.7282  0.0355 -0.5457
   74SLPC  H12A 6537   3.211   1.782   7.505  0.8701  0.7779 -0.5074
   74SLPC  H12B 6538   3.198   1.612   7.475 -0.7918 -0.6401  0.3785
   74SLPC   C11 6539   3.401   1.695   7.480  0.1392  0.3483 -0.1985
   74SLPC  H11A 6540   3.455   1.774   7.536  0.1215 -0.7715  1.4705
   74SLPC  H11B 6541   3.395   1.736   7.377  2.1134  0.2742 -0.3777
   74SLPC     P 6542   3.451   1.470   7.350  0.2330 -0.3494 -0.4191
   74SLPC   O13 6543   3.554   1.362   7.349  0.4062 -0.0412 -0.3807
   74SLPC   O14 6544   3.311   1.419   7.347 -0.1026 -0.1172  0.1459
   74SLPC   O12 6545   3.478   1.571   7.479  0.2534  0.1674  0.4109
   74SLPC   O11 6546   3.482   1.560   7.228 -0.2501 -0.3019  0.2934
   74SLPC    C1 6547   3.603   1.634   7.212 -0.3101 -0.0261 -0.0600
   74SLPC    HA 6548   3.654   1.658   7.308  1.5463 -0.7199 -0.8310
   74SLPC    HB 6549   3.675   1.571   7.156 -0.4114  1.0290 -1.4324
   74SLPC    C2 6550   3.575   1.764   7.132 -0.2493 -0.1572  0.3593
   74SLPC    HS 6551   3.474   1.800   7.163 -0.1916  0.5081 -0.2236
   74SLPC   O21 6552   3.581   1.738   6.991 -0.0700 -0.5975  0.1212
   74SLPC   C21 6553   3.466   1.712   6.938 -0.3748  0.1471 -0.0961
   74SLPC   O22 6554   3.358   1.724   6.986 -0.6484 -0.3195  0.0759
   74SLPC   C22 6555   3.501   1.677   6.797 -0.1045  0.8629 -0.3292
   74SLPC   H2R 6556   3.589   1.728   6.752 -0.5663  2.1996  0.2248
   74SLPC   H2S 6557   3.525   1.569   6.800 -1.0631  0.6463  0.0134
   74SLPC    C3 6558   3.676   1.883   7.166  0.5680 -0.4355  0.1655
   74SLPC    HX 6559   3.781   1.849   7.157  1.4590  1.9038  1.0712
   74SLPC    HY 6560   3.652   1.913   7.270 -3.1164  0.1312 -0.6803
   74SLPC   O31 6561   3.640   1.997   7.082 -0.4271 -0.1016 -0.4378
   74SLPC   C31 6562   3.736   2.082   7.071 -0.4906 -1.1737  1.2141
   74SLPC   O32 6563   3.846   2.077   7.123  0.6490  0.4984 -0.3609
   74SLPC   C32 6564   3.696   2.203   6.988 -0.1570  0.2039 -0.0417
   74SLPC   H2X 6565   3.780   2.275   6.995  0.6732 -0.7575  0.1566
   74SLPC   H2Y 6566   3.604   2.247   7.031  0.5587  1.0942  0.6005
   74SLPC   C23 6567   3.384   1.697   6.694  0.0046 -0.0597 -0.3777
   74SLPC   H3R 6568   3.343   1.796   6.726  1.0999  0.3986 -0.3402
   74SLPC   H3S 6569   3.314   1.613   6.708  0.9537 -0.8083  0.0479
   74SLPC   C24 6570   3.426   1.722   6.554  0.1850  0.2077  0.5083
   74SLPC   H4R 6571   3.466   1.622   6.525  0.3870  0.8820 -1.7736
   74SLPC   H4S 6572   3.508   1.797   6.552  1.2176 -0.8653  1.4027
   74SLPC   C25 6573   3.316   1.751   6.456 -0.0181 -0.3862  1.1785
   74SLPC   H5R 6574   3.240   1.823   6.494 -1.5067 -0.6832 -1.0155
   74SLPC   H5S 6575   3.260   1.655   6.454 -2.6759  1.0268 -0.7218
   74SLPC   C26 6576   3.371   1.786   6.317  0.2068  0.2453  0.8061
   74SLPC   H6R 6577   3.405   1.689   6.276 -1.9740 -0.3679  0.3305
   74SLPC   H6S 6578   3.457   1.857   6.324  0.5231  0.2258 -1.8715
   74SLPC   C27 6579   3.265   1.832   6.213  0.0601  0.2299 -0.2358
   74SLPC   H7R 6580   3.227   1.934   6.234 -1.0819  0.0944 -1.5081
   74SLPC   H7S 6581   3.174   1.769   6.228  0.9762 -1.3388 -1.0167
   74SLPC   C28 6582   3.310   1.827   6.068  0.3976 -0.3154 -0.6907
   74SLPC   H8R 6583   3.228   1.870   6.007  0.2013  2.1070  1.1461
   74SLPC   H8S 6584   3.313   1.723   6.030 -3.0567 -0.6942 -0.2067
   74SLPC   C29 6585   3.446   1.898   6.038  1.2189 -0.1292 -0.0359
   74SLPC   H9R 6586   3.479   1.967   6.117 -0.8006 -1.7392  2.3842
   74SLPC  C210 6587   3.528   1.865   5.939  0.6997  0.4048  0.2318
   74SLPC  H10R 6588   3.622   1.921   5.925  1.2076 -0.0323  1.7693
   74SLPC  C211 6589   3.491   1.763   5.830  0.3260  0.3989 -0.3726
   74SLPC  H11R 6590   3.426   1.682   5.869  1.6144 -0.6123 -0.2534
   74SLPC  H11S 6591   3.584   1.714   5.794 -0.4269 -0.2063 -1.5737
   74SLPC  C212 6592   3.421   1.829   5.711 -0.4145 -0.6567  0.6647
   74SLPC  H12R 6593   3.345   1.908   5.721 -1.4416 -1.5190 -0.1105
   74SLPC  C213 6594   3.458   1.816   5.582 -0.6140  0.5264  0.2851
   74SLPC  H13R 6595   3.395   1.870   5.510 -0.4617  0.9069  0.4375
   74SLPC  C214 6596   3.576   1.740   5.537 -0.9389  0.4256 -0.1109
   74SLPC  H14R 6597   3.553   1.633   5.557  0.6746 -0.1033 -0.9076
   74SLPC  H14S 6598   3.666   1.774   5.593 -0.0201  0.9879 -1.8496
   74SLPC  C215 6599   3.601   1.737   5.387 -0.1263 -0.0618  0.3384
   74SLPC  H15R 6600   3.627   1.836   5.344  0.2070  0.1818  1.0674
   74SLPC  H15S 6601   3.504   1.711   5.341  0.9872 -0.2704 -2.0157
   74SLPC  C216 6602   3.719   1.647   5.350  0.7690  0.9059 -0.3294
   74SLPC  H16R 6603   3.727   1.570   5.429 -1.6572  0.1511 -0.7386
   74SLPC  H16S 6604   3.802   1.720   5.354  0.6000  1.1366 -0.8362
   74SLPC  C217 6605   3.716   1.567   5.217 -0.3424 -0.3967 -0.0396
   74SLPC  H17R 6606   3.637   1.492   5.242  0.1348 -0.3758  1.5936
   74SLPC  H17S 6607   3.818   1.524   5.208 -0.6949 -1.6553  1.4735
   74SLPC  C218 6608   3.684   1.651   5.092 -1.1391  0.1875  0.2465
   74SLPC  H18R 6609   3.779   1.702   5.065  0.7779 -3.9354 -1.5388
   74SLPC  H18S 6610   3.603   1.727   5.106 -1.3025  1.0252 -3.8559
   74SLPC  H18T 6611   3.654   1.591   5.004 -0.7250  1.5779 -0.8913
   74SLPC   C33 6612   3.682   2.171   6.840 -0.0390 -0.1296 -0.1340
   74SLPC   H3X 6613   3.606   2.091   6.824  0.1036 -0.0501 -1.3366
   74SLPC   H3Y 6614   3.777   2.140   6.792 -1.9610 -1.1672 -3.6026
   74SLPC   C34 6615   3.649   2.297   6.755 -0.0860  0.2408 -0.0791
   74SLPC   H4X 6616   3.736   2.366   6.756 -0.6697  1.0535 -2.0117
   74SLPC   H4Y 6617   3.569   2.344   6.817  1.1780  1.8182  0.4316
   74SLPC   C35 6618   3.602   2.268   6.612 -0.4812 -0.0641 -0.6783
   74SLPC   H5X 6619   3.524   2.189   6.617  0.6760 -1.1842  0.8265
   74SLPC   H5Y 6620   3.679   2.213   6.554 -1.3272 -1.2468 -0.7118
   74SLPC   C36 6621   3.563   2.394   6.532 -0.2520 -0.0715  0.7595
   74SLPC   H6X 6622   3.641   2.473   6.538  0.0287 -0.2412 -0.4333
   74SLPC   H6Y 6623   3.471   2.431   6.582 -0.3475  0.6798  0.0542
   74SLPC   C37 6624   3.538   2.340   6.399  0.0981  0.6539 -0.2171
   74SLPC   H7X 6625   3.458   2.393   6.344 -1.4306 -0.1394  1.1523
   74SLPC   H7Y 6626   3.482   2.244   6.392 -0.4657  0.9485  0.1529
   74SLPC   C38 6627   3.667   2.327   6.312  0.0199  0.3006 -0.0654
   74SLPC   H8X 6628   3.728   2.249   6.361 -0.9445 -1.0439 -0.9411
   74SLPC   H8Y 6629   3.714   2.428   6.305  1.3805 -0.2428  0.8945
   74SLPC   C39 6630   3.631   2.283   6.166  0.4327  1.1817 -0.5026
   74SLPC   H9X 6631   3.616   2.382   6.118 -0.8101  1.8195  1.0741
   74SLPC   H9Y 6632   3.536   2.225   6.167  1.8220 -1.2328  0.0854
   74SLPC  C310 6633   3.732   2.191   6.103 -0.1851 -0.3422 -0.7912
   74SLPC  H10X 6634   3.717   2.087   6.140 -0.5695  0.5917  1.9864
   74SLPC  H10Y 6635   3.837   2.218   6.125  0.0831 -1.7527 -0.2200
   74SLPC  C311 6636   3.735   2.192   5.951  0.2682 -0.2514  0.4525
   74SLPC  H11X 6637   3.730   2.300   5.926 -0.0328 -0.3467  0.0842
   74SLPC  H11Y 6638   3.638   2.143   5.927  1.0306 -1.4034 -0.3657
   74SLPC  C312 6639   3.842   2.106   5.878 -0.5600  0.5545 -0.3962
   74SLPC  H12X 6640   3.845   2.012   5.936  1.5810  0.4338 -0.6315
   74SLPC  H12Y 6641   3.946   2.139   5.898 -0.2442 -1.2062  1.1114
   74SLPC  C313 6642   3.814   2.083   5.732 -0.4609  0.6678  0.5760
   74SLPC  H13X 6643   3.820   2.182   5.681 -0.6645  0.6331  0.4793
   74SLPC  H13Y 6644   3.709   2.047   5.722  0.0397 -0.7574  0.2815
   74SLPC  C314 6645   3.910   1.981   5.663 -0.2041 -0.5428 -0.3272
   74SLPC  H14X 6646   3.907   1.878   5.705  1.2409 -1.0591 -1.3982
   74SLPC  H14Y 6647   4.009   2.022   5.693 -0.9637  0.1272  1.4379
   74SLPC  C315 6648   3.891   1.990   5.507  0.3267  0.3877  0.1214
   74SLPC  H15X 6649   3.788   1.960   5.479  0.1910  1.3124 -0.3955
   74SLPC  H15Y 6650   3.948   1.898   5.482 -1.0841 -0.2136 -1.0013
   74SLPC  C316 6651   3.929   2.121   5.438 -0.2008  0.1423 -1.2023
   74SLPC  H16X 6652   4.040   2.124   5.445 -0.1976  0.3529 -1.3446
   74SLPC  H16Y 6653   3.889   2.213   5.487  2.2345  0.6937 -0.1053
   74SLPC  C317 6654   3.881   2.127   5.297 -0.5711 -0.1610 -0.1519
   74SLPC  H17X 6655   3.770   2.137   5.289 -0.4281  0.4211 -1.7830
   74SLPC  H17Y 6656   3.912   2.040   5.235  0.0968 -0.1161  0.1121
   74SLPC  C318 6657   3.933   2.255   5.220  0.5070  0.3393 -0.0127
   74SLPC  H18X 6658   4.036   2.267   5.261  0.4341  0.6713  0.0791
   74SLPC  H18Y 6659   3.868   2.342   5.243 -0.4579 -0.4955  0.5402
   74SLPC  H18Z 6660   3.912   2.238   5.112 -0.4256  0.3011  0.1675
   75SLPC     N 6661   6.423   0.983   7.867 -0.0283 -0.7719 -1.0133
   75SLPC   C13 6662   6.533   1.090   7.871 -0.9988  0.7440  0.2448
   75SLPC  H13A 6663   6.616   1.063   7.934  0.3590  0.4898 -1.5799
   75SLPC  H13B 6664   6.565   1.105   7.769 -3.2032 -2.4059 -1.0922
   75SLPC  H13C 6665   6.498   1.185   7.911 -1.5088  0.6973 -0.0818
   75SLPC   C14 6666   6.326   1.021   7.769  0.5168  0.0262 -0.2558
   75SLPC  H14A 6667   6.271   0.932   7.745  3.6765 -1.9039 -0.9669
   75SLPC  H14B 6668   6.269   1.106   7.802  0.4036  0.2476 -0.9965
   75SLPC  H14C 6669   6.376   1.062   7.682 -1.1691  0.9726 -0.8083
   75SLPC   C15 6670   6.374   0.966   8.008 -0.3447  0.1643  0.0324
   75SLPC  H15A 6671   6.282   0.910   8.010 -1.4506  1.8933  0.1791
   75SLPC  H15B 6672   6.443   0.925   8.079  0.2401 -1.6358 -1.5049
   75SLPC  H15C 6673   6.347   1.064   8.045  0.1318  0.3181 -0.0304
   75SLPC   C12 6674   6.491   0.854   7.823  0.1684 -0.5142 -0.0872
   75SLPC  H12A 6675   6.437   0.768   7.858 -0.3917  0.4936  1.6098
   75SLPC  H12B 6676   6.592   0.860   7.861 -0.1591 -2.0825  1.1315
   75SLPC   C11 6677   6.521   0.823   7.671  0.1820 -0.3574 -0.4911
   75SLPC  H11A 6678   6.429   0.801   7.613  0.3587 -1.2461 -0.4436
   75SLPC  H11B 6679   6.577   0.727   7.669  0.4463 -0.1989 -1.1498
   75SLPC     P 6680   6.750   0.929   7.605  0.3321 -0.5059 -0.1652
   75SLPC   O13 6681   6.799   1.008   7.719 -0.6414 -0.3447  0.7376
   75SLPC   O14 6682   6.798   0.794   7.581  0.4180  0.4855  0.5238
   75SLPC   O12 6683   6.589   0.930   7.605  0.7556 -0.3449  0.4958
   75SLPC   O11 6684   6.785   1.007   7.470  0.1967 -0.3466 -0.4024
   75SLPC    C1 6685   6.683   1.059   7.376 -0.1446 -0.0787  0.3690
   75SLPC    HA 6686   6.744   1.056   7.283  0.4477 -1.2401  0.7760
   75SLPC    HB 6687   6.597   0.992   7.354  0.1830 -0.2893 -0.3128
   75SLPC    C2 6688   6.634   1.209   7.404 -0.2037 -0.2431 -0.7790
   75SLPC    HS 6689   6.586   1.203   7.504 -2.5738  0.6532 -1.7753
   75SLPC   O21 6690   6.545   1.248   7.305  0.2685  0.5761  0.0760
   75SLPC   C21 6691   6.468   1.349   7.344  0.7875 -0.5790 -1.0391
   75SLPC   O22 6692   6.479   1.408   7.450  0.2516  0.2919 -0.4822
   75SLPC   C22 6693   6.363   1.390   7.234  0.2512  0.1197  0.2353
   75SLPC   H2R 6694   6.303   1.476   7.269 -0.4094  0.6248 -1.9504
   75SLPC   H2S 6695   6.412   1.423   7.139 -4.1866 -0.6657 -2.6165
   75SLPC    C3 6696   6.751   1.307   7.411 -0.2785  0.2472  0.5356
   75SLPC    HX 6697   6.815   1.268   7.493 -0.9893  1.2305  1.5948
   75SLPC    HY 6698   6.725   1.412   7.437  1.9686  1.0474 -0.1677
   75SLPC   O31 6699   6.827   1.311   7.287  0.0040  0.0282  0.0133
   75SLPC   C31 6700   6.810   1.402   7.203  0.2618  0.0083  0.5301
   75SLPC   O32 6701   6.726   1.493   7.211  0.0589  0.1427 -0.3079
   75SLPC   C32 6702   6.919   1.384   7.097 -0.0031 -0.6849 -0.5720
   75SLPC   H2X 6703   6.982   1.295   7.116  0.1597 -0.5239 -0.3446
   75SLPC   H2Y 6704   6.976   1.479   7.106 -0.5118 -0.4855  0.9345
   75SLPC   C23 6705   6.274   1.268   7.197  0.2259 -0.0419  0.6388
   75SLPC   H3R 6706   6.240   1.207   7.283  1.1193  0.4686  1.3668
   75SLPC   H3S 6707   6.336   1.189   7.150  0.2358 -0.4977  1.3916
   75SLPC   C24 6708   6.164   1.300   7.103  0.7757  0.6214 -0.0172
   75SLPC   H4R 6709   6.083   1.347   7.164  0.3199 -1.8330  1.4160
   75SLPC   H4S 6710   6.113   1.213   7.057  1.3209  0.5590 -0.5080
   75SLPC   C25 6711   6.207   1.379   6.974  0.3228 -0.2362 -0.7079
   75SLPC   H5R 6712   6.256   1.478   6.982 -0.3037  0.7465 -5.6742
   75SLPC   H5S 6713   6.117   1.407   6.915 -0.5411  2.8867  1.8398
   75SLPC   C26 6714   6.298   1.299   6.882  0.6496 -1.1299  1.2587
   75SLPC   H6R 6715   6.268   1.192   6.875 -2.7687 -0.2067 -0.4384
   75SLPC   H6S 6716   6.402   1.308   6.918  0.1281  1.7255  2.2909
   75SLPC   C27 6717   6.286   1.352   6.731  0.2290 -0.2628  0.0055
   75SLPC   H7R 6718   6.349   1.440   6.705 -1.2701  1.0569  0.6741
   75SLPC   H7S 6719   6.184   1.397   6.722  0.0561 -0.2458  1.8077
   75SLPC   C28 6720   6.305   1.246   6.621 -0.2524  0.2038  0.0187
   75SLPC   H8R 6721   6.261   1.283   6.525  3.3671 -1.2365 -2.4384
   75SLPC   H8S 6722   6.262   1.149   6.653  1.4965 -1.3434 -2.0382
   75SLPC   C29 6723   6.450   1.214   6.606 -0.1805 -0.1673  0.1557
   75SLPC   H9R 6724   6.494   1.189   6.704  0.1149  0.1167  0.0984
   75SLPC  C210 6725   6.519   1.209   6.495  0.1860  0.3227  0.5846
   75SLPC  H10R 6726   6.626   1.193   6.516  0.6203  1.2363 -0.8146
   75SLPC  C211 6727   6.472   1.223   6.349 -0.2964 -0.5646  0.0556
   75SLPC  H11R 6728   6.367   1.256   6.332 -0.6697 -1.7277  0.0385
   75SLPC  H11S 6729   6.463   1.127   6.294 -2.8956  0.5369 -1.6484
   75SLPC  C212 6730   6.572   1.314   6.274 -1.1164  0.5990  0.1003
   75SLPC  H12R 6731   6.640   1.370   6.338 -2.7091  3.5579 -0.6083
   75SLPC  C213 6732   6.553   1.357   6.147 -0.4754 -0.4186  0.0714
   75SLPC  H13R 6733   6.631   1.425   6.112  3.8088 -4.4764  0.7698
   75SLPC  C214 6734   6.448   1.310   6.048  0.1181  0.1181 -0.5438
   75SLPC  H14R 6735   6.372   1.390   6.029 -0.3976 -0.5638 -1.4830
   75SLPC  H14S 6736   6.395   1.223   6.092  2.1413 -1.4649 -1.0702
   75SLPC  C215 6737   6.499   1.267   5.909  0.1152 -0.3650  0.2628
   75SLPC  H15R 6738   6.406   1.222   5.868 -1.1908  1.6844  0.8501
   75SLPC  H15S 6739   6.585   1.196   5.918  0.4730  0.0269 -0.0647
   75SLPC  C216 6740   6.537   1.378   5.817  0.2155  0.1962  0.2302
   75SLPC  H16R 6741   6.641   1.406   5.841 -0.0395  0.3762  1.1476
   75SLPC  H16S 6742   6.478   1.471   5.830  0.3137  0.2878  0.0169
   75SLPC  C217 6743   6.517   1.330   5.664 -0.1178 -0.0552 -0.2157
   75SLPC  H17R 6744   6.535   1.415   5.595 -0.6839  1.3087  1.2370
   75SLPC  H17S 6745   6.407   1.320   5.657 -0.0847  0.0290 -0.8627
   75SLPC  C218 6746   6.602   1.212   5.618 -0.1328 -0.2449  0.1773
   75SLPC  H18R 6747   6.710   1.238   5.619 -0.1514 -0.0992  2.1687
   75SLPC  H18S 6748   6.589   1.175   5.514 -2.3017 -0.4308  0.4534
   75SLPC  H18T 6749   6.594   1.134   5.696  0.6935  0.8058  1.3624
   75SLPC   C33 6750   6.852   1.386   6.956 -0.3322 -0.6928 -0.3689
   75SLPC   H3X 6751   6.823   1.493   6.951  0.8570 -0.3935 -1.4184
   75SLPC   H3Y 6752   6.768   1.315   6.944 -1.2279  0.2154  0.3210
   75SLPC   C34 6753   6.966   1.363   6.852  0.0866 -0.2024  0.4272
   75SLPC   H4X 6754   7.011   1.263   6.868 -0.7419 -1.0267 -1.9472
   75SLPC   H4Y 6755   7.049   1.438   6.859 -0.0281 -0.0069 -0.2763
   75SLPC   C35 6756   6.905   1.364   6.714  0.2727  0.1191 -0.6563
   75SLPC   H5X 6757   6.843   1.454   6.690 -0.1578  0.2954  0.9632
   75SLPC   H5Y 6758   6.836   1.277   6.714  0.2128  0.1611 -0.0626
   75SLPC   C36 6759   7.006   1.339   6.600 -0.5425 -0.4007  0.0845
   75SLPC   H6X 6760   7.065   1.245   6.613  1.0320  0.5362 -0.0101
   75SLPC   H6Y 6761   7.093   1.408   6.595  0.0219 -1.2091 -2.3390
   75SLPC   C37 6762   6.936   1.348   6.459  0.3988  0.1410  0.4890
   75SLPC   H7X 6763   6.891   1.449   6.445 -1.1988 -0.6454 -0.3826
   75SLPC   H7Y 6764   6.849   1.279   6.458  1.5703 -1.4919  2.5518
   75SLPC   C38 6765   7.035   1.321   6.343 -0.2248  0.3521 -0.4394
   75SLPC   H8X 6766   7.083   1.221   6.350  0.7269  0.7914 -0.4384
   75SLPC   H8Y 6767   7.110   1.402   6.358 -1.7952  1.4589  2.0491
   75SLPC   C39 6768   6.965   1.362   6.213 -0.2681  0.1346  0.0943
   75SLPC   H9X 6769   6.952   1.472   6.216 -0.6196  0.1043 -0.3020
   75SLPC   H9Y 6770   6.862   1.324   6.198  0.0961 -0.8354 -0.0616
   75SLPC  C310 6771   7.041   1.337   6.081  0.1927  0.6106  0.5109
   75SLPC  H10X 6772   7.061   1.228   6.070 -1.9670  0.0333  1.7185
   75SLPC  H10Y 6773   7.143   1.382   6.085  1.0441 -1.0304 -0.8751
   75SLPC  C311 6774   6.968   1.403   5.963 -0.6590  1.1450 -0.0485
   75SLPC  H11X 6775   6.986   1.512   5.971 -0.4877  1.1143 -0.0204
   75SLPC  H11Y 6776   6.862   1.369   5.957  0.2217 -1.7733 -0.3760
   75SLPC  C312 6777   7.038   1.364   5.832  0.1834 -0.1227  0.3676
   75SLPC  H12X 6778   7.025   1.254   5.829  0.3572 -0.1500  0.5231
   75SLPC  H12Y 6779   7.147   1.386   5.836 -0.3228  3.8390 -2.2531
   75SLPC  C313 6780   6.983   1.428   5.705 -0.0679  0.2511 -0.0514
   75SLPC  H13X 6781   7.023   1.529   5.681 -1.7620  1.1555  0.7882
   75SLPC  H13Y 6782   6.875   1.440   5.727 -0.0596 -0.4075  0.3650
   75SLPC  C314 6783   6.993   1.335   5.584  0.1654 -0.0083  0.4013
   75SLPC  H14X 6784   6.965   1.236   5.624  1.4443  0.4649  2.6897
   75SLPC  H14Y 6785   7.100   1.326   5.555 -0.1652 -0.8910 -0.5833
   75SLPC  C315 6786   6.910   1.371   5.458 -0.5483 -0.5193 -0.2339
   75SLPC  H15X 6787   6.811   1.388   5.506 -0.7260 -0.8917 -0.4661
   75SLPC  H15Y 6788   6.892   1.293   5.381  1.6022 -1.1149 -0.2073
   75SLPC  C316 6789   6.952   1.507   5.386 -0.1584  0.4355  0.1095
   75SLPC  H16X 6790   6.949   1.587   5.463 -1.8308  0.8681 -0.3649
   75SLPC  H16Y 6791   6.869   1.529   5.316  0.6578  2.6884 -0.2502
   75SLPC  C317 6792   7.071   1.489   5.301 -1.0171 -0.4689 -0.6157
   75SLPC  H17X 6793   7.066   1.391   5.248  2.1780 -0.6957 -0.6617
   75SLPC  H17Y 6794   7.161   1.483   5.365  1.7615 -1.3651 -4.2623
   75SLPC  C318 6795   7.087   1.597   5.191 -0.0558  0.0166 -0.2621
   75SLPC  H18X 6796   7.177   1.566   5.133  0.3453  2.2616 -0.9575
   75SLPC  H18Y 6797   7.106   1.696   5.237 -0.2483 -1.1156  2.4546
   75SLPC  H18Z 6798   6.997   1.616   5.129  0.8724 -1.0897 -2.0378
   76SLPC     N 6799   1.743   1.430   7.594 -0.0201  0.3104 -0.1342
   76SLPC   C13 6800   1.641   1.317   7.614  0.1529 -0.5403 -0.2636
   76SLPC  H13A 6801   1.579   1.331   7.701 -0.7798 -0.9102 -0.8577
   76SLPC  H13B 6802   1.581   1.316   7.524 -1.2722 -1.0143  0.6571
   76SLPC  H13C 6803   1.688   1.220   7.622  0.8554 -0.3871 -2.0763
   76SLPC   C14 6804   1.821   1.369   7.487  0.2644 -0.4562 -0.2522
   76SLPC  H14A 6805   1.764   1.343   7.398  0.5876 -2.1002 -0.0121
   76SLPC  H14B 6806   1.898   1.440   7.462  0.9256 -0.8095  0.7290
   76SLPC  H14C 6807   1.872   1.285   7.531  1.6677 -0.0838 -1.1260
   76SLPC   C15 6808   1.828   1.461   7.708 -0.0387 -0.5779 -0.8241
   76SLPC  H15A 6809   1.878   1.556   7.694  3.4297 -1.9662  1.0550
   76SLPC  H15B 6810   1.769   1.480   7.796 -2.5779 -2.2035 -2.0553
   76SLPC  H15C 6811   1.899   1.385   7.736 -1.1714 -1.6374 -0.7515
   76SLPC   C12 6812   1.666   1.550   7.543  0.3536  0.3905  0.4657
   76SLPC  H12A 6813   1.616   1.589   7.631 -0.4520 -0.2219  0.2861
   76SLPC  H12B 6814   1.591   1.524   7.470  1.6035 -0.3620 -0.5973
   76SLPC   C11 6815   1.747   1.671   7.480  0.3579  0.0839  0.1605
   76SLPC  H11A 6816   1.657   1.734   7.459 -0.6837 -0.5469  2.4086
   76SLPC  H11B 6817   1.794   1.639   7.385 -0.6944  0.5001 -0.5177
   76SLPC     P 6818   1.786   1.867   7.632 -0.0018  0.0163 -0.1949
   76SLPC   O13 6819   1.659   1.843   7.701 -0.2590 -0.4789 -0.0505
   76SLPC   O14 6820   1.894   1.934   7.706  0.1469  0.4782  0.1047
   76SLPC   O12 6821   1.841   1.728   7.576 -0.4377  0.1437 -0.1024
   76SLPC   O11 6822   1.756   1.945   7.506 -0.4895 -0.1762 -0.1366
   76SLPC    C1 6823   1.847   1.972   7.403 -0.1377 -0.1872 -0.1142
   76SLPC    HA 6824   1.941   1.914   7.400  1.0415  1.6370  0.2788
   76SLPC    HB 6825   1.800   1.960   7.303  3.0150  1.8990 -1.9980
   76SLPC    C2 6826   1.874   2.121   7.401  0.1409 -0.6689 -0.2425
   76SLPC    HS 6827   1.892   2.148   7.507 -1.2759 -0.4231 -0.0414
   76SLPC   O21 6828   1.754   2.192   7.358 -0.3720 -0.0977  0.4248
   76SLPC   C21 6829   1.764   2.320   7.370 -0.1538 -0.2477  0.4318
   76SLPC   O22 6830   1.848   2.374   7.442 -0.6864  0.4989 -0.3445
   76SLPC   C22 6831   1.654   2.394   7.295  0.5347 -0.9376  0.2610
   76SLPC   H2R 6832   1.563   2.330   7.298  1.3422 -2.0958  0.7630
   76SLPC   H2S 6833   1.632   2.492   7.344  0.3046 -0.1118 -1.4492
   76SLPC    C3 6834   2.004   2.161   7.326  0.3363  0.4914  0.7084
   76SLPC    HX 6835   2.086   2.130   7.394  0.4005  0.9526  0.8503
   76SLPC    HY 6836   2.007   2.272   7.314  0.4163  0.5496  1.2303
   76SLPC   O31 6837   2.020   2.093   7.198 -0.6379 -0.4265  0.3046
   76SLPC   C31 6838   2.143   2.123   7.148 -0.1386  0.0905 -0.3983
   76SLPC   O32 6839   2.226   2.200   7.195  0.1259 -0.4787 -0.4722
   76SLPC   C32 6840   2.151   2.045   7.015 -0.1148  0.2758  0.4923
   76SLPC   H2X 6841   2.090   2.099   6.939  0.0292 -1.1836 -0.6976
   76SLPC   H2Y 6842   2.126   1.938   7.030  0.2078  0.0446 -0.5608
   76SLPC   C23 6843   1.704   2.426   7.151  0.4747  0.1267 -0.0992
   76SLPC   H3R 6844   1.809   2.460   7.164  1.0818 -1.7925  0.3419
   76SLPC   H3S 6845   1.663   2.517   7.102  1.5871 -0.2295 -1.7885
   76SLPC   C24 6846   1.705   2.309   7.050  0.7604 -0.6351  0.3470
   76SLPC   H4R 6847   1.604   2.300   7.003  0.5618  0.7349  0.4531
   76SLPC   H4S 6848   1.718   2.216   7.108  0.4641 -0.7927  0.1640
   76SLPC   C25 6849   1.818   2.317   6.944  1.0315  0.0214  0.1990
   76SLPC   H5R 6850   1.920   2.328   6.986  0.5446  1.5381  1.0573
   76SLPC   H5S 6851   1.798   2.411   6.888 -1.2561 -0.2595  0.4414
   76SLPC   C26 6852   1.799   2.196   6.854 -0.3882 -0.1246 -0.1314
   76SLPC   H6R 6853   1.693   2.195   6.820 -0.0345  0.1145 -1.2484
   76SLPC   H6S 6854   1.806   2.096   6.902 -0.1870 -0.2194 -0.3589
   76SLPC   C27 6855   1.895   2.209   6.731 -0.1091 -0.1346  0.9331
   76SLPC   H7R 6856   1.992   2.241   6.775  0.0860 -0.0657  0.4606
   76SLPC   H7S 6857   1.859   2.289   6.664 -1.1242 -0.5048  1.0152
   76SLPC   C28 6858   1.916   2.078   6.652  0.2973  0.1685 -0.2932
   76SLPC   H8R 6859   1.953   1.995   6.715  0.4300  1.3907  1.2831
   76SLPC   H8S 6860   1.985   2.099   6.567 -0.9551 -1.1029 -1.7067
   76SLPC   C29 6861   1.797   2.020   6.585  0.5336 -1.0453  0.1675
   76SLPC   H9R 6862   1.708   2.010   6.649 -0.3563 -0.0836 -0.8685
   76SLPC  C210 6863   1.773   1.995   6.457  0.0304 -0.2320  0.3355
   76SLPC  H10R 6864   1.673   1.956   6.434  0.3158 -1.0085  0.3622
   76SLPC  C211 6865   1.865   2.020   6.342 -0.0068  0.1319  0.7690
   76SLPC  H11R 6866   1.967   1.986   6.369  1.0520 -0.3172 -3.1607
   76SLPC  H11S 6867   1.883   2.128   6.326  0.3613  0.4363  2.8762
   76SLPC  C212 6868   1.834   1.946   6.219  0.6365 -0.4089  0.3020
   76SLPC  H12R 6869   1.833   1.838   6.238  0.4593 -0.3649  0.5464
   76SLPC  C213 6870   1.814   1.990   6.093 -0.5222  0.6792 -0.6991
   76SLPC  H13R 6871   1.791   1.907   6.025 -0.0629 -0.6671  0.7224
   76SLPC  C214 6872   1.820   2.125   6.032 -0.0795 -0.1011 -0.3969
   76SLPC  H14R 6873   1.845   2.204   6.106  1.2528 -1.1073  0.2757
   76SLPC  H14S 6874   1.713   2.147   6.012 -0.6510 -0.8860  1.6078
   76SLPC  C215 6875   1.900   2.118   5.903  0.0120 -0.4247  1.1891
   76SLPC  H15R 6876   1.870   2.027   5.847  1.1083 -0.0906  0.0036
   76SLPC  H15S 6877   2.009   2.103   5.921 -0.0758 -4.4953 -0.5553
   76SLPC  C216 6878   1.864   2.233   5.804 -0.4687 -0.2280  0.4268
   76SLPC  H16R 6879   1.879   2.330   5.857 -0.2368 -0.6819  1.2077
   76SLPC  H16S 6880   1.761   2.218   5.766 -0.0437  0.8050 -1.2317
   76SLPC  C217 6881   1.958   2.233   5.678  0.4864  0.4089 -0.1647
   76SLPC  H17R 6882   1.904   2.293   5.601  1.5845  1.1967 -0.3431
   76SLPC  H17S 6883   1.961   2.130   5.636 -1.5375 -0.4822  1.6910
   76SLPC  C218 6884   2.095   2.307   5.705 -0.3665  0.3938  0.2499
   76SLPC  H18R 6885   2.124   2.286   5.811 -0.6599  0.9051  0.4346
   76SLPC  H18S 6886   2.080   2.415   5.683  0.4807  0.4507 -0.1021
   76SLPC  H18T 6887   2.165   2.259   5.633  0.1743  1.3660  0.1043
   76SLPC   C33 6888   2.291   2.040   6.955 -0.5576  0.4033  0.4824
   76SLPC   H3X 6889   2.362   1.978   7.014 -0.1919  0.4535  0.0985
   76SLPC   H3Y 6890   2.330   2.144   6.945 -2.0468  0.9614  0.2566
   76SLPC   C34 6891   2.294   1.968   6.821 -0.3058  0.3828  0.5168
   76SLPC   H4X 6892   2.220   2.006   6.747 -0.5543 -2.0144 -0.5665
   76SLPC   H4Y 6893   2.259   1.865   6.843  1.5872 -0.0986  1.4438
   76SLPC   C35 6894   2.425   1.953   6.742 -0.5783 -0.7290 -0.4310
   76SLPC   H5X 6895   2.504   1.952   6.820 -0.3735  1.1597 -0.5606
   76SLPC   H5Y 6896   2.438   2.050   6.690  0.8732  0.6507  2.2490
   76SLPC   C36 6897   2.416   1.829   6.653  0.0330 -0.0464 -0.2208
   76SLPC   H6X 6898   2.381   1.737   6.704  0.6294 -1.4814 -2.2824
   76SLPC   H6Y 6899   2.517   1.799   6.618  0.4084  0.1627  0.6442
   76SLPC   C37 6900   2.328   1.849   6.527  0.1735 -0.2143 -0.1678
   76SLPC   H7X 6901   2.366   1.929   6.459 -1.1125 -1.4863 -2.5277
   76SLPC   H7Y 6902   2.224   1.877   6.556 -0.6829 -1.2046 -2.1121
   76SLPC   C38 6903   2.345   1.729   6.442 -0.5355  0.2393 -0.8037
   76SLPC   H8X 6904   2.306   1.640   6.496 -0.6095  0.2003 -0.9198
   76SLPC   H8Y 6905   2.450   1.709   6.410 -0.1170 -0.3729  0.8650
   76SLPC   C39 6906   2.272   1.750   6.311  0.1853 -0.2698 -0.1701
   76SLPC   H9X 6907   2.178   1.809   6.312  0.3219 -0.0476  0.4606
   76SLPC   H9Y 6908   2.254   1.651   6.265  0.7028 -1.8717  2.7648
   76SLPC  C310 6909   2.363   1.819   6.214 -0.4595  0.0091 -0.1415
   76SLPC  H10X 6910   2.459   1.764   6.214  1.2733  2.7870 -1.0995
   76SLPC  H10Y 6911   2.372   1.919   6.263  0.4476  0.5069 -1.2648
   76SLPC  C311 6912   2.312   1.828   6.067 -0.0006 -0.6817 -0.2015
   76SLPC  H11X 6913   2.213   1.877   6.070  1.1537  1.9427 -1.7106
   76SLPC  H11Y 6914   2.295   1.724   6.029  1.9723 -0.4589 -1.8854
   76SLPC  C312 6915   2.406   1.903   5.969  0.1507 -0.0338  0.4936
   76SLPC  H12X 6916   2.493   1.836   5.956  1.5645  2.1517 -2.5917
   76SLPC  H12Y 6917   2.439   2.002   6.008  1.2790 -0.2131  0.0221
   76SLPC  C313 6918   2.348   1.913   5.831 -0.0574 -0.1725  0.3832
   76SLPC  H13X 6919   2.238   1.922   5.827 -0.6046 -3.6255  2.5223
   76SLPC  H13Y 6920   2.364   1.816   5.779 -0.9545  1.0532 -2.3561
   76SLPC  C314 6921   2.430   2.014   5.738 -0.2798  0.0751 -0.8928
   76SLPC  H14X 6922   2.537   1.985   5.728 -0.3127  0.7582 -4.0351
   76SLPC  H14Y 6923   2.427   2.116   5.782  3.1259  1.5280 -3.5770
   76SLPC  C315 6924   2.364   2.022   5.601  0.1199 -0.9314  0.7246
   76SLPC  H15X 6925   2.257   2.046   5.612  0.5133  1.0194  0.6180
   76SLPC  H15Y 6926   2.384   1.925   5.551 -0.5245 -0.7917  0.1867
   76SLPC  C316 6927   2.409   2.137   5.514  0.1918 -0.5120  0.1255
   76SLPC  H16X 6928   2.399   2.235   5.566 -0.9692 -0.2659 -0.5097
   76SLPC  H16Y 6929   2.354   2.118   5.419  1.2161 -1.2277 -0.3444
   76SLPC  C317 6930   2.552   2.118   5.457 -0.5594 -0.2543  0.0808
   76SLPC  H17X 6931   2.566   2.031   5.390  0.1024  1.3142 -1.9482
   76SLPC  H17Y 6932   2.628   2.116   5.538 -0.8884  0.9606  0.4412
   76SLPC  C318 6933   2.594   2.240   5.370  0.2933  0.5430 -0.0794
   76SLPC  H18X 6934   2.584   2.339   5.418  0.0299 -0.4794  2.0866
   76SLPC  H18Y 6935   2.540   2.240   5.273 -0.9273  2.1293  0.5535
   76SLPC  H18Z 6936   2.702   2.227   5.347  0.5986  2.3717  0.2089
   77SLPC     N 6937   2.374   1.056   7.849 -0.1390 -0.2397  0.4653
   77SLPC   C13 6938   2.247   1.118   7.913 -0.6838 -0.3550  0.0695
   77SLPC  H13A 6939   2.269   1.219   7.944  0.8615 -0.3721 -0.8376
   77SLPC  H13B 6940   2.171   1.118   7.836 -0.6035 -0.9994 -0.0108
   77SLPC  H13C 6941   2.203   1.060   7.992 -1.1063 -0.4846 -0.2539
   77SLPC   C14 6942   2.338   0.915   7.807  0.4899 -0.8754 -0.6269
   77SLPC  H14A 6943   2.423   0.864   7.763  1.2014  1.0215 -1.5760
   77SLPC  H14B 6944   2.300   0.863   7.894 -0.9173  0.2922 -0.5107
   77SLPC  H14C 6945   2.266   0.916   7.727  0.8798  1.7303 -1.0378
   77SLPC   C15 6946   2.481   1.045   7.956 -0.7652 -0.3301  0.3880
   77SLPC  H15A 6947   2.502   1.138   8.006 -2.1000 -0.1103  0.5922
   77SLPC  H15B 6948   2.442   0.971   8.025 -0.9006 -0.9881 -0.3836
   77SLPC  H15C 6949   2.568   1.000   7.911 -0.5623 -0.5750  1.0204
   77SLPC   C12 6950   2.418   1.140   7.726  0.0823 -0.5163  0.1107
   77SLPC  H12A 6951   2.341   1.140   7.651 -1.4785  0.1371  1.6352
   77SLPC  H12B 6952   2.500   1.085   7.682 -0.0681 -0.3338 -0.3990
   77SLPC   C11 6953   2.452   1.292   7.744  0.0333 -0.7646  0.0530
   77SLPC  H11A 6954   2.490   1.343   7.653  1.1694 -1.6684 -0.0100
   77SLPC  H11B 6955   2.538   1.299   7.814  0.1300  1.1300 -0.2093
   77SLPC     P 6956   2.222   1.426   7.715 -0.0181 -0.0707 -0.3061
   77SLPC   O13 6957   2.092   1.383   7.779  0.1152 -0.5459  0.5236
   77SLPC   O14 6958   2.235   1.572   7.695 -0.8480 -0.2239  0.3741
   77SLPC   O12 6959   2.341   1.358   7.805  0.0436 -0.4298  0.5166
   77SLPC   O11 6960   2.240   1.342   7.580  0.3276  0.3064  0.1538
   77SLPC    C1 6961   2.290   1.410   7.456 -0.8492 -0.0882  0.1878
   77SLPC    HA 6962   2.303   1.520   7.465  1.3003 -0.1877 -0.9134
   77SLPC    HB 6963   2.391   1.368   7.436 -2.6848 -3.7839 -2.7199
   77SLPC    C2 6964   2.191   1.390   7.335 -1.0416 -0.5241 -0.8984
   77SLPC    HS 6965   2.092   1.422   7.375 -0.5620  0.4710 -0.4568
   77SLPC   O21 6966   2.195   1.253   7.290 -0.5391 -0.0250 -0.7509
   77SLPC   C21 6967   2.085   1.209   7.239  0.0914  0.6682  0.2817
   77SLPC   O22 6968   1.976   1.261   7.237 -0.2391  0.2499 -0.5013
   77SLPC   C22 6969   2.113   1.059   7.201  0.4851 -0.0170  0.4936
   77SLPC   H2R 6970   2.220   1.055   7.170  0.2956  0.4821 -0.2499
   77SLPC   H2S 6971   2.105   0.991   7.289 -2.2438  1.5706  1.5831
   77SLPC    C3 6972   2.218   1.478   7.212 -0.5135 -0.5564 -0.1746
   77SLPC    HX 6973   2.260   1.410   7.136  1.1815 -0.1617  0.3570
   77SLPC    HY 6974   2.290   1.558   7.241 -0.4465 -0.7570  0.2202
   77SLPC   O31 6975   2.094   1.544   7.161 -0.2040  0.4650  0.1065
   77SLPC   C31 6976   2.113   1.629   7.064  0.7019 -0.5497 -0.6609
   77SLPC   O32 6977   2.222   1.662   7.019  0.1470  0.2956 -0.0965
   77SLPC   C32 6978   1.981   1.664   7.006  0.2251  0.3996  0.6279
   77SLPC   H2X 6979   1.992   1.746   6.932  1.1694 -0.6050 -0.3808
   77SLPC   H2Y 6980   1.905   1.687   7.084  0.3119  0.1849  0.7773
   77SLPC   C23 6981   2.021   1.014   7.079  0.0553 -0.4253 -0.4072
   77SLPC   H3R 6982   1.914   1.024   7.106  0.3096  0.9767  0.1308
   77SLPC   H3S 6983   2.042   0.907   7.059  0.9882 -0.4286  0.5477
   77SLPC   C24 6984   2.055   1.089   6.956 -0.7733  0.0412 -0.7069
   77SLPC   H4R 6985   2.162   1.078   6.928 -0.3750 -1.1481  1.0803
   77SLPC   H4S 6986   2.026   1.196   6.965 -2.3974 -0.2375 -2.2274
   77SLPC   C25 6987   1.980   1.041   6.833  0.2343 -0.3453 -0.2746
   77SLPC   H5R 6988   1.871   1.047   6.855 -0.2148 -1.7051 -1.8746
   77SLPC   H5S 6989   1.982   0.932   6.811 -1.7561 -0.5185  0.2656
   77SLPC   C26 6990   2.021   1.111   6.699 -0.3065 -0.7059 -0.4455
   77SLPC   H6R 6991   2.049   1.217   6.715  2.5758 -1.3807 -0.4304
   77SLPC   H6S 6992   1.933   1.100   6.633 -0.3503 -0.3954 -0.4384
   77SLPC   C27 6993   2.147   1.050   6.633 -0.9286  0.3773 -0.1565
   77SLPC   H7R 6994   2.123   0.943   6.614  0.8909  0.2335 -2.0562
   77SLPC   H7S 6995   2.241   1.062   6.691  0.1336 -0.3721 -1.6527
   77SLPC   C28 6996   2.164   1.125   6.495  0.0635  0.4367  0.0148
   77SLPC   H8R 6997   2.217   1.220   6.516  0.4919  0.7999 -2.4686
   77SLPC   H8S 6998   2.063   1.151   6.457  0.0978  0.5339 -0.0078
   77SLPC   C29 6999   2.237   1.045   6.392  0.2013  0.3357  0.8864
   77SLPC   H9R 7000   2.333   1.000   6.420  0.3043  1.7499  3.0141
   77SLPC  C210 7001   2.214   1.028   6.255 -0.2888 -0.3982 -0.2858
   77SLPC  H10R 7002   2.283   0.982   6.183 -0.2345 -1.3647  0.3587
   77SLPC  C211 7003   2.088   1.082   6.191  0.4777  0.5544  0.1112
   77SLPC  H11R 7004   2.106   1.100   6.083 -0.5169  1.4041  0.0709
   77SLPC  H11S 7005   2.064   1.181   6.236 -0.8775 -0.4309  1.6500
   77SLPC  C212 7006   1.972   0.984   6.203  0.2215 -0.8099 -0.5388
   77SLPC  H12R 7007   1.911   1.019   6.287 -0.3947 -0.1554 -1.2415
   77SLPC  C213 7008   1.933   0.882   6.140  0.5153  0.5382  0.4886
   77SLPC  H13R 7009   1.839   0.830   6.165  0.3062 -1.0139 -2.9023
   77SLPC  C214 7010   2.008   0.829   6.020 -0.2321 -0.2890  0.0861
   77SLPC  H14R 7011   2.083   0.903   5.986  0.2783  1.1130  3.7817
   77SLPC  H14S 7012   1.939   0.812   5.935 -2.4194 -1.0676  1.9176
   77SLPC  C215 7013   2.073   0.703   6.056 -0.2154  0.7547  0.1632
   77SLPC  H15R 7014   2.001   0.637   6.108  1.6388 -3.1761 -1.8520
   77SLPC  H15S 7015   2.158   0.715   6.127  0.1348  1.1428 -0.3096
   77SLPC  C216 7016   2.116   0.619   5.931 -0.1649  0.1274 -0.1623
   77SLPC  H16R 7017   2.206   0.671   5.892  1.0917 -0.7190  1.4732
   77SLPC  H16S 7018   2.030   0.619   5.860 -0.3884  0.1185  0.1101
   77SLPC  C217 7019   2.144   0.468   5.949 -0.1881  0.1629  0.2888
   77SLPC  H17R 7020   2.045   0.420   5.962 -1.6982  1.4163 -4.4729
   77SLPC  H17S 7021   2.211   0.448   6.036  0.6463  0.6020 -0.2407
   77SLPC  C218 7022   2.195   0.403   5.814 -0.6687 -0.2797  0.4092
   77SLPC  H18R 7023   2.179   0.293   5.820  2.7454 -0.8461  0.8054
   77SLPC  H18S 7024   2.301   0.427   5.795 -1.1327 -0.6210 -3.2985
   77SLPC  H18T 7025   2.130   0.443   5.733  1.2940  0.8302 -0.6914
   77SLPC   C33 7026   1.927   1.534   6.939  0.6754  0.0570 -0.4465
   77SLPC   H3X 7027   1.825   1.565   6.908  0.7354  0.5931 -0.1219
   77SLPC   H3Y 7028   1.910   1.452   7.012 -1.6331  0.9224  0.0793
   77SLPC   C34 7029   2.008   1.479   6.821 -0.0165  0.9847 -0.1867
   77SLPC   H4X 7030   1.964   1.379   6.805  1.0414  0.3041  0.9363
   77SLPC   H4Y 7031   2.117   1.455   6.828 -1.1305 -5.2327  2.0409
   77SLPC   C35 7032   1.990   1.570   6.700 -0.1749 -0.1749  0.3524
   77SLPC   H5X 7033   2.050   1.662   6.717  2.3294 -1.6441 -0.0634
   77SLPC   H5Y 7034   1.881   1.591   6.694 -0.1969 -0.5231 -0.6303
   77SLPC   C36 7035   2.018   1.498   6.571  0.2219  0.1126 -0.0494
   77SLPC   H6X 7036   1.967   1.400   6.570 -0.9653  0.7151  0.0891
   77SLPC   H6Y 7037   2.126   1.473   6.574  0.4777  1.2381  2.1682
   77SLPC   C37 7038   1.981   1.580   6.444 -0.6695  0.1677 -1.2437
   77SLPC   H7X 7039   2.035   1.677   6.441 -0.0593  0.0217  1.6661
   77SLPC   H7Y 7040   1.873   1.606   6.441 -0.7347  0.3562  1.1182
   77SLPC   C38 7041   2.000   1.507   6.314  0.8177  0.7034 -0.0652
   77SLPC   H8X 7042   1.942   1.412   6.316  1.1143  0.4943  2.7247
   77SLPC   H8Y 7043   2.106   1.472   6.302 -0.5404 -4.1636 -0.1852
   77SLPC   C39 7044   1.957   1.585   6.185  0.3706  0.4517  0.1254
   77SLPC   H9X 7045   2.011   1.681   6.207  2.3306 -0.8536  1.3784
   77SLPC   H9Y 7046   1.848   1.599   6.194  0.2053 -1.3649  1.5903
   77SLPC  C310 7047   1.999   1.527   6.056  0.1525  0.2198 -0.0611
   77SLPC  H10X 7048   1.966   1.421   6.050  0.3924  0.1033  0.5381
   77SLPC  H10Y 7049   2.109   1.520   6.041  0.3506  3.6235 -1.1850
   77SLPC  C311 7050   1.939   1.608   5.935 -0.1674 -0.4774 -0.1207
   77SLPC  H11X 7051   1.901   1.707   5.968 -1.5330 -0.3998 -1.8074
   77SLPC  H11Y 7052   1.848   1.559   5.896 -0.5297  0.6851 -0.7810
   77SLPC  C312 7053   2.029   1.626   5.816 -0.8018 -0.1849  0.0115
   77SLPC  H12X 7054   2.045   1.526   5.771 -0.4497  0.3858 -1.1730
   77SLPC  H12Y 7055   2.126   1.674   5.844 -2.0696  2.7850 -0.3033
   77SLPC  C313 7056   1.969   1.716   5.710  0.2196 -0.2459  0.0930
   77SLPC  H13X 7057   1.951   1.811   5.764  1.5671  0.9481 -1.4475
   77SLPC  H13Y 7058   1.871   1.671   5.686  0.8028 -1.1979 -0.5785
   77SLPC  C314 7059   2.063   1.725   5.592 -0.1769  0.5439 -0.0199
   77SLPC  H14X 7060   2.087   1.631   5.538  0.0553  0.0594  0.9056
   77SLPC  H14Y 7061   2.164   1.749   5.632  0.3956 -1.3816 -0.1937
   77SLPC  C315 7062   2.016   1.834   5.492 -0.5860  0.2652 -0.2722
   77SLPC  H15X 7063   1.981   1.914   5.560 -0.1752  0.3447 -0.1484
   77SLPC  H15Y 7064   1.938   1.795   5.423 -1.6455  0.3804  0.8411
   77SLPC  C316 7065   2.125   1.882   5.390  0.5616 -0.5164 -1.1232
   77SLPC  H16X 7066   2.148   1.798   5.322  0.6064 -1.3501 -0.0932
   77SLPC  H16Y 7067   2.214   1.907   5.451 -0.5721 -1.6950  1.1034
   77SLPC  C317 7068   2.069   2.005   5.320  0.3624  0.1211  0.4161
   77SLPC  H17X 7069   2.150   2.064   5.271  0.9807 -0.4505  0.7291
   77SLPC  H17Y 7070   2.024   2.072   5.397 -1.1314 -0.8533  0.4208
   77SLPC  C318 7071   1.961   1.973   5.219  0.6539  0.2373 -0.2818
   77SLPC  H18X 7072   1.968   2.040   5.131 -0.1443  1.2143  0.3716
   77SLPC  H18Y 7073   1.861   1.978   5.267  0.2378  1.8317 -1.2603
   77SLPC  H18Z 7074   1.952   1.867   5.185 -2.3351  1.0380 -2.3884
   78SLPC     N 7075   4.916   5.093   7.595 -0.1409  0.0977  0.4821
   78SLPC   C13 7076   4.790   5.012   7.583 -0.1892  0.0129 -0.4964
   78SLPC  H13A 7077   4.788   4.973   7.483  0.1940  1.4425 -1.0815
   78SLPC  H13B 7078   4.775   4.945   7.666 -1.4166 -1.2082 -1.6657
   78SLPC  H13C 7079   4.705   5.073   7.607 -0.7264 -0.6322 -0.7329
   78SLPC   C14 7080   5.032   5.006   7.558 -0.1019  0.1316 -0.2744
   78SLPC  H14A 7081   5.127   5.053   7.579 -0.0065 -1.0883  2.3203
   78SLPC  H14B 7082   5.021   4.904   7.591 -1.1006 -0.3765 -2.0448
   78SLPC  H14C 7083   5.033   4.991   7.451 -0.8183  0.5387 -0.3404
   78SLPC   C15 7084   4.924   5.127   7.741 -0.0243  0.4774 -0.1862
   78SLPC  H15A 7085   4.895   5.036   7.791  0.8198  1.0664  1.4242
   78SLPC  H15B 7086   5.025   5.151   7.769 -0.3799  0.3224  1.3096
   78SLPC  H15C 7087   4.856   5.207   7.766 -1.8816 -1.2161  0.5192
   78SLPC   C12 7088   4.913   5.216   7.504 -0.3614  0.9614 -0.2996
   78SLPC  H12A 7089   4.832   5.279   7.538 -0.2216 -0.0128  2.0453
   78SLPC  H12B 7090   4.891   5.179   7.405 -0.8459 -3.0915  1.1553
   78SLPC   C11 7091   5.037   5.306   7.491 -0.2012 -0.6215  0.3424
   78SLPC  H11A 7092   5.079   5.316   7.593 -0.4746  0.7423  0.3376
   78SLPC  H11B 7093   5.007   5.408   7.457 -1.1171  0.3363  3.6088
   78SLPC     P 7094   5.113   5.238   7.248 -0.6424  0.0764 -0.4886
   78SLPC   O13 7095   5.192   5.130   7.192 -0.3238  0.3745  0.1264
   78SLPC   O14 7096   4.969   5.235   7.218  0.1523 -0.3865  0.3585
   78SLPC   O12 7097   5.135   5.242   7.409  0.2375 -0.5285  0.1690
   78SLPC   O11 7098   5.174   5.372   7.191  0.3510 -0.5924 -0.1066
   78SLPC    C1 7099   5.275   5.448   7.268 -0.7686  0.1360  0.0430
   78SLPC    HA 7100   5.225   5.534   7.318  0.5895  0.9867 -0.0177
   78SLPC    HB 7101   5.316   5.381   7.346 -0.9844 -4.1956 -3.1573
   78SLPC    C2 7102   5.397   5.495   7.177 -0.2099 -0.4534  0.6731
   78SLPC    HS 7103   5.479   5.539   7.237  1.1076  1.5093 -2.3250
   78SLPC   O21 7104   5.353   5.602   7.089 -0.7334  0.4796 -0.0053
   78SLPC   C21 7105   5.446   5.692   7.046 -1.3209 -0.2913 -0.2381
   78SLPC   O22 7106   5.570   5.678   7.068 -0.0805  0.4541  0.1671
   78SLPC   C22 7107   5.379   5.814   6.985 -0.6356  0.0681 -0.2469
   78SLPC   H2R 7108   5.269   5.806   6.992 -0.6319  0.5899  0.6340
   78SLPC   H2S 7109   5.409   5.892   7.059  0.4715 -0.5605 -0.0038
   78SLPC    C3 7110   5.448   5.377   7.084 -0.3368 -0.5819  0.3778
   78SLPC    HX 7111   5.357   5.339   7.033  0.4853 -0.1965 -1.4329
   78SLPC    HY 7112   5.486   5.303   7.158  1.3691  2.0176  2.2736
   78SLPC   O31 7113   5.562   5.410   7.001 -0.8783 -0.1212 -0.2611
   78SLPC   C31 7114   5.555   5.388   6.873 -0.2251 -0.1334 -0.0590
   78SLPC   O32 7115   5.449   5.356   6.818 -0.3424 -0.1699 -0.2283
   78SLPC   C32 7116   5.693   5.413   6.810 -0.7658  0.6994 -1.0935
   78SLPC   H2X 7117   5.719   5.310   6.778 -0.1994  0.4056  0.2506
   78SLPC   H2Y 7118   5.756   5.453   6.892  0.0589 -0.5872 -1.0669
   78SLPC   C23 7119   5.441   5.839   6.845  0.0978 -0.5071  0.1439
   78SLPC   H3R 7120   5.552   5.833   6.848  0.0702 -1.7214 -0.5413
   78SLPC   H3S 7121   5.426   5.945   6.813 -2.8782 -0.8724  0.0240
   78SLPC   C24 7122   5.378   5.757   6.734  0.3378 -0.8223  0.4810
   78SLPC   H4R 7123   5.273   5.794   6.737  0.8653  1.0823 -1.4329
   78SLPC   H4S 7124   5.391   5.652   6.767 -0.8034 -0.7922  1.0856
   78SLPC   C25 7125   5.452   5.778   6.605 -0.1421 -0.7292  1.0459
   78SLPC   H5R 7126   5.445   5.676   6.562 -2.5468 -0.0828 -0.2594
   78SLPC   H5S 7127   5.554   5.814   6.630 -0.4553  0.2926  0.9108
   78SLPC   C26 7128   5.394   5.898   6.519  0.0138 -0.1961  0.0138
   78SLPC   H6R 7129   5.371   5.981   6.589 -1.4350  1.0861 -1.8962
   78SLPC   H6S 7130   5.297   5.873   6.471  0.3410  0.7956 -1.2028
   78SLPC   C27 7131   5.495   5.949   6.422  0.2806 -0.3233  0.2149
   78SLPC   H7R 7132   5.578   5.999   6.476  1.2595 -1.1562 -0.4857
   78SLPC   H7S 7133   5.450   6.027   6.358  0.8873 -1.6755 -1.9608
   78SLPC   C28 7134   5.552   5.848   6.328  0.4224  0.0055  0.5138
   78SLPC   H8R 7135   5.469   5.789   6.284  0.4017  0.6036 -0.2722
   78SLPC   H8S 7136   5.626   5.777   6.372  1.8092  0.4997 -0.9207
   78SLPC   C29 7137   5.622   5.914   6.208  0.4740 -0.4187 -0.3826
   78SLPC   H9R 7138   5.703   5.975   6.250  0.6865 -1.6369  1.0284
   78SLPC  C210 7139   5.597   5.927   6.075  0.5125  0.2896  0.4558
   78SLPC  H10R 7140   5.670   5.989   6.021  2.0156 -0.3572  1.6662
   78SLPC  C211 7141   5.485   5.860   5.998  0.3321  0.1537 -0.7843
   78SLPC  H11R 7142   5.397   5.840   6.064 -0.7426  0.5968 -2.0396
   78SLPC  H11S 7143   5.517   5.759   5.966 -0.6992 -0.2912 -0.4521
   78SLPC  C212 7144   5.427   5.949   5.895 -0.5949 -0.5656  0.1323
   78SLPC  H12R 7145   5.370   6.037   5.925 -2.1077 -1.2082 -0.7518
   78SLPC  C213 7146   5.438   5.937   5.760 -0.0431  0.8567  0.1234
   78SLPC  H13R 7147   5.367   5.996   5.701 -1.3650 -1.1505 -0.4083
   78SLPC  C214 7148   5.518   5.836   5.682 -0.9399  0.1676  0.1260
   78SLPC  H14R 7149   5.450   5.776   5.618  0.6694  0.9579 -2.4675
   78SLPC  H14S 7150   5.568   5.758   5.743 -3.1949 -0.5917  1.1103
   78SLPC  C215 7151   5.615   5.911   5.591  0.1706  0.0688  0.7158
   78SLPC  H15R 7152   5.682   5.979   5.647  1.8953  0.7839 -2.0376
   78SLPC  H15S 7153   5.551   5.965   5.518  1.2943  0.2128 -0.1767
   78SLPC  C216 7154   5.720   5.816   5.521  0.7915 -0.7149  0.1161
   78SLPC  H16R 7155   5.672   5.718   5.497  0.5492 -0.8058  0.9425
   78SLPC  H16S 7156   5.816   5.816   5.577 -0.1127  0.7668  1.7392
   78SLPC  C217 7157   5.753   5.870   5.377  0.5476 -0.3598 -0.2269
   78SLPC  H17R 7158   5.791   5.974   5.393  2.0932 -0.7889 -0.8636
   78SLPC  H17S 7159   5.664   5.870   5.310  0.1759  0.0108  0.2603
   78SLPC  C218 7160   5.862   5.793   5.307 -0.8373  0.6104 -0.0515
   78SLPC  H18R 7161   5.870   5.831   5.203 -2.3232  1.4845  0.1202
   78SLPC  H18S 7162   5.834   5.686   5.303 -0.5435  0.5123  0.4373
   78SLPC  H18T 7163   5.959   5.808   5.358 -0.3091  0.1277 -0.9011
   78SLPC   C33 7164   5.700   5.496   6.676  0.4641  0.5769  0.0681
   78SLPC   H3X 7165   5.804   5.532   6.662  0.8146 -1.1644 -2.4650
   78SLPC   H3Y 7166   5.629   5.581   6.682  0.9969  0.9437  1.9697
   78SLPC   C34 7167   5.663   5.416   6.555 -0.4780 -0.7034 -0.1790
   78SLPC   H4X 7168   5.564   5.367   6.573  0.0373 -1.6016  0.2795
   78SLPC   H4Y 7169   5.743   5.341   6.544  2.4481  2.0082  1.1384
   78SLPC   C35 7170   5.645   5.497   6.423 -0.2629 -0.2508 -0.0339
   78SLPC   H5X 7171   5.738   5.556   6.411 -0.7827  0.1915 -2.2546
   78SLPC   H5Y 7172   5.556   5.562   6.436  0.3543  0.7031 -0.4831
   78SLPC   C36 7173   5.625   5.413   6.298  0.9811 -0.0306  0.7173
   78SLPC   H6X 7174   5.538   5.347   6.320  0.6684  0.6012  1.4424
   78SLPC   H6Y 7175   5.704   5.338   6.280 -1.2755 -1.9597 -2.0042
   78SLPC   C37 7176   5.604   5.503   6.175  0.0355  0.3001  0.6596
   78SLPC   H7X 7177   5.703   5.551   6.159 -0.2980  0.3966 -1.4769
   78SLPC   H7Y 7178   5.524   5.579   6.189 -0.1198 -0.0109  1.4742
   78SLPC   C38 7179   5.570   5.423   6.049  0.2060 -0.1111 -0.1047
   78SLPC   H8X 7180   5.469   5.452   6.012 -0.7716 -1.7690  1.1537
   78SLPC   H8Y 7181   5.571   5.313   6.068  2.8114 -0.3985 -1.3876
   78SLPC   C39 7182   5.664   5.454   5.933 -0.5280 -0.0748  0.4192
   78SLPC   H9X 7183   5.764   5.435   5.977 -0.0227  1.0066 -0.2035
   78SLPC   H9Y 7184   5.657   5.562   5.907 -1.3868 -0.0193  0.8647
   78SLPC  C310 7185   5.632   5.384   5.803  0.3889 -0.1107  0.1002
   78SLPC  H10X 7186   5.538   5.421   5.758  0.5790  3.0396  2.0310
   78SLPC  H10Y 7187   5.631   5.275   5.824  4.2004 -0.1052  1.0973
   78SLPC  C311 7188   5.749   5.400   5.703  0.0054  0.6250 -0.4011
   78SLPC  H11X 7189   5.836   5.332   5.708 -0.1796  0.3966 -0.2462
   78SLPC  H11Y 7190   5.785   5.503   5.721 -0.9302  0.8598  0.2292
   78SLPC  C312 7191   5.705   5.418   5.562  0.0991  0.3193  0.0509
   78SLPC  H12X 7192   5.805   5.432   5.513  0.9731  0.0166  1.6925
   78SLPC  H12Y 7193   5.639   5.507   5.558  0.1040  0.5177  2.7237
   78SLPC  C313 7194   5.634   5.293   5.508 -0.0772 -0.0934  0.1885
   78SLPC  H13X 7195   5.538   5.272   5.561  1.0294 -2.0551  1.5290
   78SLPC  H13Y 7196   5.697   5.205   5.533  0.2793  0.4706  1.3532
   78SLPC  C314 7197   5.604   5.303   5.353 -0.1065  0.7898 -0.2167
   78SLPC  H14X 7198   5.555   5.207   5.328  0.1146  0.2750  1.2565
   78SLPC  H14Y 7199   5.705   5.307   5.307  0.5029 -1.8097  0.7121
   78SLPC  C315 7200   5.527   5.419   5.291 -0.1351  0.3766 -0.2853
   78SLPC  H15X 7201   5.586   5.510   5.313 -2.4370  1.4460  2.0395
   78SLPC  H15Y 7202   5.427   5.429   5.339 -0.7080 -0.0647 -1.3653
   78SLPC  C316 7203   5.516   5.412   5.144  0.0032 -0.1003 -0.1857
   78SLPC  H16X 7204   5.431   5.478   5.116  0.1521  0.5058  0.7439
   78SLPC  H16Y 7205   5.497   5.307   5.112 -0.2617 -0.2579  0.4689
   78SLPC  C317 7206   5.646   5.443   5.076 -0.2933  0.1879  0.3271
   78SLPC  H17X 7207   5.642   5.390   4.978 -1.0033  1.3813 -0.3130
   78SLPC  H17Y 7208   5.738   5.406   5.125  2.0490  0.2861 -3.5774
   78SLPC  C318 7209   5.653   5.594   5.043  0.1648 -0.6847  0.3657
   78SLPC  H18X 7210   5.745   5.613   4.983 -0.7690 -0.0400 -0.9153
   78SLPC  H18Y 7211   5.655   5.648   5.139  1.8271 -1.4722  0.8094
   78SLPC  H18Z 7212   5.568   5.636   4.985  0.6614  1.0809  0.8808
   79SLPC     N 7213   2.335   3.303   7.466 -0.1175  0.4304  0.4026
   79SLPC   C13 7214   2.437   3.279   7.570 -1.2432  0.0354 -0.6071
   79SLPC  H13A 7215   2.416   3.331   7.662  1.4404 -1.2085  0.8290
   79SLPC  H13B 7216   2.425   3.177   7.602 -1.7437  0.0515 -0.7390
   79SLPC  H13C 7217   2.541   3.298   7.545 -1.3590  2.0428  0.2384
   79SLPC   C14 7218   2.325   3.443   7.413 -0.4106  0.7032 -0.3965
   79SLPC  H14A 7219   2.243   3.450   7.343 -1.8826 -1.4599  0.9741
   79SLPC  H14B 7220   2.307   3.516   7.491  1.6202  0.5722  0.2329
   79SLPC  H14C 7221   2.412   3.467   7.355 -1.2047 -1.1020 -2.5002
   79SLPC   C15 7222   2.199   3.260   7.516 -0.0868 -0.0095 -0.2221
   79SLPC  H15A 7223   2.198   3.157   7.548  0.0670 -0.4381 -1.5060
   79SLPC  H15B 7224   2.171   3.324   7.598 -0.3116 -1.5199  0.9253
   79SLPC  H15C 7225   2.128   3.252   7.434 -0.0434 -3.4816 -0.0870
   79SLPC   C12 7226   2.364   3.212   7.349  0.2580 -0.1449  0.0557
   79SLPC  H12A 7227   2.383   3.118   7.398 -1.5869 -0.4054  0.3186
   79SLPC  H12B 7228   2.456   3.242   7.300  0.0579  1.1555  0.4552
   79SLPC   C11 7229   2.252   3.176   7.248  0.4192  0.3785  0.4658
   79SLPC  H11A 7230   2.300   3.146   7.153 -1.5511  0.3988 -0.6016
   79SLPC  H11B 7231   2.198   3.272   7.227  2.0094  1.6765  2.0218
   79SLPC     P 7232   2.192   2.923   7.335  0.3779  0.0703  0.3524
   79SLPC   O13 7233   2.329   2.911   7.372  0.0013  0.2018  0.3618
   79SLPC   O14 7234   2.084   2.876   7.430  0.1072 -0.1420  0.1211
   79SLPC   O12 7235   2.154   3.075   7.299 -0.4854  0.2778 -0.1067
   79SLPC   O11 7236   2.156   2.864   7.189 -0.3443  0.5893  0.2786
   79SLPC    C1 7237   2.032   2.827   7.148  0.2116  0.0418 -0.3902
   79SLPC    HA 7238   2.006   2.723   7.177 -0.1351 -0.0824 -1.1392
   79SLPC    HB 7239   1.951   2.893   7.188  0.6551  0.4590 -0.1655
   79SLPC    C2 7240   2.021   2.826   6.994  0.5831  0.7707  0.4066
   79SLPC    HS 7241   1.921   2.793   6.958  0.1144  2.0771  0.4424
   79SLPC   O21 7242   2.129   2.750   6.944  0.2301  0.2709 -0.1695
   79SLPC   C21 7243   2.116   2.619   6.947 -0.8949 -0.3400 -0.0438
   79SLPC   O22 7244   2.011   2.559   6.962 -0.7147 -0.1053 -0.3607
   79SLPC   C22 7245   2.255   2.559   6.917 -0.2818 -0.6193 -0.2138
   79SLPC   H2R 7246   2.313   2.623   6.846  1.6317  1.0343  2.6428
   79SLPC   H2S 7247   2.299   2.558   7.019 -0.0697  0.4246 -0.2847
   79SLPC    C3 7248   2.032   2.966   6.927 -0.0681  0.4829  0.3749
   79SLPC    HX 7249   2.126   3.008   6.969  0.1964 -0.9614  1.3122
   79SLPC    HY 7250   1.944   3.026   6.958 -0.4921 -0.4474  1.0211
   79SLPC   O31 7251   2.054   2.948   6.782 -0.0782  0.0200 -0.1607
   79SLPC   C31 7252   2.110   3.044   6.709 -0.6825 -0.0864 -0.0566
   79SLPC   O32 7253   2.138   3.156   6.759  0.2000  0.0352  0.1832
   79SLPC   C32 7254   2.126   3.008   6.557  0.0064  0.3450 -0.8086
   79SLPC   H2X 7255   2.236   3.003   6.540  0.0490  0.9547 -0.7355
   79SLPC   H2Y 7256   2.064   3.085   6.508 -2.8159 -0.7258  0.8412
   79SLPC   C23 7257   2.256   2.421   6.856  0.3481 -0.2281 -0.5187
   79SLPC   H3R 7258   2.187   2.348   6.905  1.4166 -1.3135 -0.5969
   79SLPC   H3S 7259   2.359   2.384   6.874  0.7753  1.3107  0.3243
   79SLPC   C24 7260   2.223   2.417   6.705 -0.3964  0.1055 -0.8954
   79SLPC   H4R 7261   2.287   2.499   6.664  1.6939 -0.3104  1.2705
   79SLPC   H4S 7262   2.118   2.448   6.688  0.1087  3.4950  1.1823
   79SLPC   C25 7263   2.251   2.285   6.624 -0.4280  0.7909  0.0968
   79SLPC   H5R 7264   2.192   2.192   6.638  1.2865 -0.6678 -1.7557
   79SLPC   H5S 7265   2.349   2.242   6.657 -1.6299 -2.7552 -0.5295
   79SLPC   C26 7266   2.262   2.304   6.475  0.1318  0.3397 -0.8688
   79SLPC   H6R 7267   2.307   2.212   6.431 -1.6964 -0.2482 -1.5786
   79SLPC   H6S 7268   2.330   2.391   6.457 -0.2615  0.9523  0.4919
   79SLPC   C27 7269   2.128   2.331   6.409 -0.6961  0.6105 -0.1841
   79SLPC   H7R 7270   2.071   2.412   6.458 -1.3452 -1.5194  2.8939
   79SLPC   H7S 7271   2.056   2.247   6.422  1.9415 -1.4986  2.0834
   79SLPC   C28 7272   2.135   2.365   6.261 -1.0481  0.6345  0.5884
   79SLPC   H8R 7273   2.197   2.457   6.267  0.2143 -0.1354 -0.2085
   79SLPC   H8S 7274   2.035   2.393   6.223 -1.5298 -0.8432  0.6932
   79SLPC   C29 7275   2.205   2.276   6.162 -0.7823  0.1828 -0.8230
   79SLPC   H9R 7276   2.211   2.171   6.196  1.2477  0.4211 -0.3112
   79SLPC  C210 7277   2.274   2.319   6.055  0.0329  0.6983 -0.3761
   79SLPC  H10R 7278   2.327   2.243   5.996  0.7325  1.7759 -1.1708
   79SLPC  C211 7279   2.286   2.452   5.988 -0.3023 -0.3442 -0.1214
   79SLPC  H11R 7280   2.227   2.532   6.040  1.8432  1.5713 -0.4842
   79SLPC  H11S 7281   2.242   2.451   5.886  2.1434  0.0265 -1.2364
   79SLPC  C212 7282   2.424   2.505   5.978 -0.1702 -0.3571  1.0034
   79SLPC  H12R 7283   2.480   2.518   6.072  1.3105 -0.2850  0.1427
   79SLPC  C213 7284   2.485   2.542   5.860 -0.9783  0.8367 -0.6188
   79SLPC  H13R 7285   2.590   2.576   5.871  0.4074 -2.5954 -1.8011
   79SLPC  C214 7286   2.440   2.516   5.720 -0.0435 -0.0444  0.3116
   79SLPC  H14R 7287   2.336   2.475   5.712 -1.1715  2.1952  2.2389
   79SLPC  H14S 7288   2.507   2.439   5.677 -0.0052 -0.3826  0.9579
   79SLPC  C215 7289   2.438   2.647   5.631  0.1208  0.2636  0.3966
   79SLPC  H15R 7290   2.545   2.674   5.619  0.5087 -1.8315 -1.7023
   79SLPC  H15S 7291   2.382   2.722   5.691 -1.8367 -0.8493  0.0495
   79SLPC  C216 7292   2.386   2.620   5.495 -0.1221 -0.0253  0.8744
   79SLPC  H16R 7293   2.284   2.577   5.488  0.6628 -2.1523  1.4838
   79SLPC  H16S 7294   2.446   2.543   5.442 -0.6360 -0.2821  0.6525
   79SLPC  C217 7295   2.397   2.751   5.415 -0.0378 -0.2535 -0.7991
   79SLPC  H17R 7296   2.502   2.788   5.415 -0.2588  0.4121  0.4178
   79SLPC  H17S 7297   2.334   2.825   5.469 -0.4942 -1.9092  1.0649
   79SLPC  C218 7298   2.350   2.752   5.271 -0.1192  0.6602  0.1334
   79SLPC  H18R 7299   2.397   2.667   5.218 -2.0227 -0.3790  0.0144
   79SLPC  H18S 7300   2.373   2.842   5.210  2.1586  1.0750  1.5102
   79SLPC  H18T 7301   2.239   2.752   5.265 -0.0728  2.4953 -1.8097
   79SLPC   C33 7302   2.077   2.865   6.520  0.2164 -0.1436 -0.5659
   79SLPC   H3X 7303   2.127   2.796   6.592  1.0878  1.1022  0.0690
   79SLPC   H3Y 7304   2.126   2.858   6.421  1.3869  1.8746 -0.1874
   79SLPC   C34 7305   1.926   2.846   6.502  0.6214 -0.5579 -0.3252
   79SLPC   H4X 7306   1.900   2.921   6.424 -1.9833 -0.1036  0.8720
   79SLPC   H4Y 7307   1.874   2.887   6.591  0.5581  1.1944 -1.1355
   79SLPC   C35 7308   1.876   2.702   6.460 -0.4233 -0.8535  0.2522
   79SLPC   H5X 7309   1.765   2.703   6.461 -0.4519  1.1917  0.2868
   79SLPC   H5Y 7310   1.919   2.637   6.539  2.3037 -1.3376 -1.5252
   79SLPC   C36 7311   1.932   2.661   6.321 -0.0446 -0.4789 -0.1104
   79SLPC   H6X 7312   1.935   2.550   6.320 -2.0251 -0.5737  0.5381
   79SLPC   H6Y 7313   2.038   2.694   6.316  0.9207 -3.2989 -0.5012
   79SLPC   C37 7314   1.849   2.709   6.198 -0.3701  0.2428  0.0844
   79SLPC   H7X 7315   1.847   2.820   6.193  0.7001  0.2273 -2.2298
   79SLPC   H7Y 7316   1.745   2.676   6.217  0.1223 -1.0396  0.7050
   79SLPC   C38 7317   1.905   2.655   6.065 -0.4320 -0.3988 -0.4052
   79SLPC   H8X 7318   1.909   2.544   6.062  3.0710 -0.4419  1.6125
   79SLPC   H8Y 7319   2.005   2.696   6.043  0.1482 -2.2997 -1.6060
   79SLPC   C39 7320   1.818   2.703   5.944 -0.3013  0.0133  0.1468
   79SLPC   H9X 7321   1.817   2.814   5.948  0.2216  0.0041  0.6931
   79SLPC   H9Y 7322   1.715   2.665   5.957 -0.2706 -0.4958 -1.0126
   79SLPC  C310 7323   1.878   2.644   5.817  0.0986  0.4086  0.0347
   79SLPC  H10X 7324   1.799   2.612   5.745  0.1086 -0.3338  0.3502
   79SLPC  H10Y 7325   1.925   2.547   5.843  0.5965  0.8614  0.8756
   79SLPC  C311 7326   1.971   2.746   5.764 -0.7773 -0.5757  0.4914
   79SLPC  H11X 7327   2.043   2.778   5.842  1.8079 -1.0822 -1.5429
   79SLPC  H11Y 7328   1.936   2.844   5.726  2.2528  0.2435 -0.4446
   79SLPC  C312 7329   2.062   2.699   5.648 -0.0089  0.1952  0.0492
   79SLPC  H12X 7330   2.126   2.614   5.677 -1.0768 -0.7427 -0.2927
   79SLPC  H12Y 7331   2.129   2.783   5.617 -2.2355  1.9929 -0.1929
   79SLPC  C313 7332   1.994   2.656   5.516 -0.1020 -0.2814  0.0460
   79SLPC  H13X 7333   1.918   2.577   5.538  0.2771 -0.5963  0.2358
   79SLPC  H13Y 7334   2.070   2.603   5.454  1.1667  1.0019  0.4446
   79SLPC  C314 7335   1.936   2.772   5.426  0.4654  0.5405 -0.6480
   79SLPC  H14X 7336   1.840   2.797   5.477  1.4340  2.1232  0.4899
   79SLPC  H14Y 7337   1.910   2.743   5.322  0.6486  2.6651 -1.3463
   79SLPC  C315 7338   2.015   2.906   5.419 -0.1622  0.3214 -0.5637
   79SLPC  H15X 7339   2.123   2.881   5.423 -0.3444 -0.3185  0.8560
   79SLPC  H15Y 7340   1.990   2.954   5.516 -0.3820 -0.2806 -0.3189
   79SLPC  C316 7341   1.966   2.980   5.294 -0.2130  0.0444 -0.0996
   79SLPC  H16X 7342   1.857   2.997   5.300 -0.0920  0.4700  1.7499
   79SLPC  H16Y 7343   2.004   2.918   5.210  2.4087 -0.3126  1.2252
   79SLPC  C317 7344   2.024   3.126   5.276 -0.6828 -0.2137 -0.3269
   79SLPC  H17X 7345   1.973   3.183   5.195 -1.7591  0.7157  0.9569
   79SLPC  H17Y 7346   2.131   3.115   5.245 -0.4596 -1.3765  0.7700
   79SLPC  C318 7347   2.027   3.215   5.399  0.4780 -0.7050 -0.1899
   79SLPC  H18X 7348   1.920   3.234   5.423  0.0957 -1.6683 -1.1095
   79SLPC  H18Y 7349   2.089   3.307   5.388 -0.3136  0.1093  1.7124
   79SLPC  H18Z 7350   2.073   3.175   5.492  0.9746 -0.4045 -0.3015
   80SLPC     N 7351   1.589   6.023   7.380  0.0048  0.5329  0.0619
   80SLPC   C13 7352   1.710   6.009   7.467 -0.3552  0.1665 -0.0843
   80SLPC  H13A 7353   1.786   5.953   7.413 -1.2610 -0.5420 -0.6608
   80SLPC  H13B 7354   1.757   6.104   7.487  0.9576 -0.5644  0.4807
   80SLPC  H13C 7355   1.694   5.959   7.561  1.8757 -1.9093 -0.6701
   80SLPC   C14 7356   1.619   6.081   7.241 -0.6043 -0.6883  0.4257
   80SLPC  H14A 7357   1.689   6.011   7.197 -2.7468 -1.9323 -1.1946
   80SLPC  H14B 7358   1.533   6.074   7.177  0.5604 -0.2599 -1.2458
   80SLPC  H14C 7359   1.653   6.183   7.246 -0.2834 -0.7847  0.2550
   80SLPC   C15 7360   1.500   6.122   7.457 -0.2338  0.5745  0.3891
   80SLPC  H15A 7361   1.558   6.211   7.474  0.7446 -0.4318  2.6501
   80SLPC  H15B 7362   1.413   6.141   7.396  1.4162 -1.1023 -2.7396
   80SLPC  H15C 7363   1.464   6.098   7.556  0.4439 -0.2429  0.4440
   80SLPC   C12 7364   1.512   5.898   7.365 -0.4256  0.4466  0.3385
   80SLPC  H12A 7365   1.432   5.906   7.293  0.7987 -1.1686 -1.2944
   80SLPC  H12B 7366   1.478   5.875   7.465 -1.9435  1.1565  0.0136
   80SLPC   C11 7367   1.588   5.764   7.326 -0.3066 -0.2954 -0.4075
   80SLPC  H11A 7368   1.512   5.693   7.288  1.1092 -0.3788 -3.4325
   80SLPC  H11B 7369   1.643   5.713   7.408  0.5180  0.3283 -0.5505
   80SLPC     P 7370   1.771   5.655   7.163 -0.2161  0.6081  0.0133
   80SLPC   O13 7371   1.851   5.711   7.055 -0.4289  0.1685  0.4820
   80SLPC   O14 7372   1.834   5.588   7.277 -0.2509 -0.6190  0.0699
   80SLPC   O12 7373   1.691   5.782   7.222  0.3632 -0.5736 -0.2680
   80SLPC   O11 7374   1.656   5.560   7.100 -0.2429  0.6364  0.4368
   80SLPC    C1 7375   1.553   5.606   7.014  0.0276 -0.1052  0.2715
   80SLPC    HA 7376   1.453   5.577   7.054  0.5183  0.3012  1.8701
   80SLPC    HB 7377   1.549   5.717   7.006  1.3416 -0.1817 -2.9337
   80SLPC    C2 7378   1.570   5.555   6.866  0.0911  0.5605 -0.7094
   80SLPC    HS 7379   1.624   5.639   6.817 -0.2138  0.8098 -0.6155
   80SLPC   O21 7380   1.438   5.522   6.819  0.1587  0.0462  0.4774
   80SLPC   C21 7381   1.419   5.534   6.688 -0.0071 -0.0240 -0.2884
   80SLPC   O22 7382   1.501   5.582   6.612  0.1742 -0.2001  0.5126
   80SLPC   C22 7383   1.284   5.468   6.655 -0.0509 -1.0021  0.1685
   80SLPC   H2R 7384   1.290   5.369   6.705 -0.7425  0.1746  2.7611
   80SLPC   H2S 7385   1.209   5.540   6.694  1.0354 -0.9391  2.3226
   80SLPC    C3 7386   1.655   5.427   6.859  0.1419 -0.1881 -0.3011
   80SLPC    HX 7387   1.608   5.355   6.929  2.1759  0.4225  1.8403
   80SLPC    HY 7388   1.754   5.447   6.907  0.2134  2.3721 -1.3568
   80SLPC   O31 7389   1.660   5.369   6.733 -0.2863 -0.3218  0.3865
   80SLPC   C31 7390   1.758   5.424   6.658 -0.2548  0.4174 -0.4807
   80SLPC   O32 7391   1.845   5.504   6.697 -0.0917  0.2985 -0.1037
   80SLPC   C32 7392   1.757   5.371   6.515  0.1371 -0.1599 -0.4222
   80SLPC   H2X 7393   1.651   5.388   6.484  0.0028 -1.0298 -0.4514
   80SLPC   H2Y 7394   1.779   5.263   6.517 -0.1291 -0.2700  3.3867
   80SLPC   C23 7395   1.272   5.456   6.502 -0.0193 -0.6106 -0.1766
   80SLPC   H3R 7396   1.369   5.456   6.448 -0.3613  1.4582 -0.8886
   80SLPC   H3S 7397   1.215   5.542   6.460 -0.0850  1.0345  3.0007
   80SLPC   C24 7398   1.200   5.328   6.461  0.9293 -0.3253 -0.2716
   80SLPC   H4R 7399   1.095   5.342   6.494  1.0988  3.1977 -0.8751
   80SLPC   H4S 7400   1.238   5.244   6.523  0.4915 -0.2420  0.1134
   80SLPC   C25 7401   1.195   5.315   6.308  0.0483  0.0737 -0.2022
   80SLPC   H5R 7402   1.193   5.421   6.274 -0.8299  1.0103  2.5583
   80SLPC   H5S 7403   1.096   5.271   6.284 -0.4942  0.2307  1.5950
   80SLPC   C26 7404   1.314   5.237   6.249  0.5434  0.1882  0.1425
   80SLPC   H6R 7405   1.337   5.155   6.320  0.1800  1.0792  1.3076
   80SLPC   H6S 7406   1.399   5.307   6.240  0.5063  0.1047 -1.0812
   80SLPC   C27 7407   1.291   5.169   6.111 -0.9051 -0.5002 -0.5279
   80SLPC   H7R 7408   1.253   5.238   6.032 -0.2344 -0.5116 -0.8711
   80SLPC   H7S 7409   1.210   5.097   6.131 -2.1889  1.0589  0.0925
   80SLPC   C28 7410   1.422   5.101   6.041  0.7681  0.6221 -0.1790
   80SLPC   H8R 7411   1.471   5.037   6.118 -1.4346  0.8103  1.5009
   80SLPC   H8S 7412   1.494   5.179   6.011  0.3425  1.3585  0.6673
   80SLPC   C29 7413   1.400   5.010   5.917  0.0168  0.1903 -0.4103
   80SLPC   H9R 7414   1.392   4.903   5.941 -2.1376  0.8528  2.3594
   80SLPC  C210 7415   1.375   5.052   5.788  1.0031  0.7951  0.5608
   80SLPC  H10R 7416   1.385   4.977   5.708  1.2574 -0.2113  1.5163
   80SLPC  C211 7417   1.353   5.196   5.754 -0.2698 -0.4228  0.0424
   80SLPC  H11R 7418   1.443   5.248   5.794 -0.2490 -0.0304 -0.5017
   80SLPC  H11S 7419   1.267   5.236   5.811 -1.1508 -1.5893 -0.4261
   80SLPC  C212 7420   1.332   5.228   5.607  0.0749  0.2761  0.2897
   80SLPC  H12R 7421   1.377   5.151   5.543 -0.4127 -0.1029  0.4004
   80SLPC  C213 7422   1.270   5.329   5.544  0.7960  0.3725  0.5679
   80SLPC  H13R 7423   1.264   5.322   5.434 -0.8764  0.4316  0.6285
   80SLPC  C214 7424   1.200   5.452   5.597  0.6076  0.2597  0.4968
   80SLPC  H14R 7425   1.159   5.440   5.700 -0.4480 -0.7216 -0.0075
   80SLPC  H14S 7426   1.105   5.453   5.540 -0.0626 -0.7082  1.5411
   80SLPC  C215 7427   1.279   5.585   5.588  1.0148  0.2986  0.1187
   80SLPC  H15R 7428   1.379   5.582   5.636  0.4410 -0.0312  1.3315
   80SLPC  H15S 7429   1.219   5.659   5.645  1.2065  0.3487  0.2563
   80SLPC  C216 7430   1.294   5.636   5.442 -0.6912  0.5378  0.0235
   80SLPC  H16R 7431   1.197   5.625   5.389 -1.7445 -0.3917  2.0367
   80SLPC  H16S 7432   1.386   5.585   5.407  1.7816  2.6342  2.9174
   80SLPC  C217 7433   1.347   5.782   5.432 -0.4193  0.4848  0.1055
   80SLPC  H17R 7434   1.365   5.793   5.541  0.1741 -0.5366  0.1214
   80SLPC  H17S 7435   1.265   5.847   5.393  0.6546  3.2841  2.2306
   80SLPC  C218 7436   1.469   5.794   5.346 -0.3291 -0.3127 -0.6184
   80SLPC  H18R 7437   1.440   5.772   5.241  1.7800  1.2732 -1.5990
   80SLPC  H18S 7438   1.552   5.722   5.364 -1.4553 -2.1190 -2.2803
   80SLPC  H18T 7439   1.503   5.900   5.351 -0.2141 -0.3491 -0.6180
   80SLPC   C33 7440   1.854   5.449   6.420  0.1584  0.3973 -0.5775
   80SLPC   H3X 7441   1.955   5.405   6.431 -0.7250 -1.7746 -0.7934
   80SLPC   H3Y 7442   1.856   5.558   6.443 -1.0709 -0.2268  3.0464
   80SLPC   C34 7443   1.828   5.427   6.267 -0.0245 -0.1851 -0.4100
   80SLPC   H4X 7444   1.916   5.467   6.214  0.3556  1.1226  1.1464
   80SLPC   H4Y 7445   1.747   5.501   6.253 -0.2022  0.3261  2.5680
   80SLPC   C35 7446   1.786   5.280   6.230 -0.0777  0.0661 -0.0079
   80SLPC   H5X 7447   1.697   5.244   6.285  0.7945 -0.3549  1.1679
   80SLPC   H5Y 7448   1.869   5.208   6.246 -1.7168 -1.7794  0.4607
   80SLPC   C36 7449   1.767   5.271   6.080  0.8067  0.2480 -0.2886
   80SLPC   H6X 7450   1.705   5.358   6.050  2.0824  0.7400 -1.5711
   80SLPC   H6Y 7451   1.697   5.188   6.061 -1.3608  1.6622  1.0139
   80SLPC   C37 7452   1.894   5.255   6.001 -0.1867 -0.0515  0.0137
   80SLPC   H7X 7453   1.935   5.154   6.021  1.8738  0.6241 -0.5008
   80SLPC   H7Y 7454   1.967   5.332   6.036  0.6710 -0.6729 -0.3680
   80SLPC   C38 7455   1.858   5.271   5.854  0.2707  0.3355 -0.2007
   80SLPC   H8X 7456   1.811   5.371   5.848 -0.6391  0.0227  1.2908
   80SLPC   H8Y 7457   1.779   5.199   5.822 -0.4085  0.9498  0.0755
   80SLPC   C39 7458   1.968   5.253   5.747 -0.3485 -0.8010  0.6930
   80SLPC   H9X 7459   1.990   5.145   5.748  2.3733 -0.3184  0.6609
   80SLPC   H9Y 7460   2.065   5.292   5.783  0.9009 -2.2282 -0.9823
   80SLPC  C310 7461   1.922   5.293   5.604 -0.5482 -0.7138 -0.5396
   80SLPC  H10X 7462   1.913   5.404   5.607 -1.9141 -0.8109 -0.1726
   80SLPC  H10Y 7463   1.822   5.254   5.573 -2.0104  2.3721 -0.0664
   80SLPC  C311 7464   2.029   5.261   5.501  0.7643  0.3828 -0.0883
   80SLPC  H11X 7465   2.039   5.150   5.501  0.0064  0.2512  2.2692
   80SLPC  H11Y 7466   2.129   5.303   5.526  0.8466 -0.2126  0.6320
   80SLPC  C312 7467   2.004   5.318   5.360  0.1884 -0.1756 -0.0184
   80SLPC  H12X 7468   1.993   5.428   5.372  1.0124 -0.2362  1.6188
   80SLPC  H12Y 7469   1.909   5.278   5.317 -0.0437  0.2973  0.0527
   80SLPC  C313 7470   2.102   5.274   5.255  0.4478  0.0014 -0.2216
   80SLPC  H13X 7471   2.199   5.321   5.280  0.4410 -0.2366  0.2690
   80SLPC  H13Y 7472   2.067   5.311   5.156  1.0505  0.3861 -0.2905
   80SLPC  C314 7473   2.129   5.124   5.241 -0.1990  0.6518 -0.1323
   80SLPC  H14X 7474   2.032   5.084   5.202 -1.2094  0.5444  2.3178
   80SLPC  H14Y 7475   2.144   5.069   5.337 -1.6009  1.3669  0.5225
   80SLPC  C315 7476   2.244   5.083   5.156 -0.5873  0.2189  0.0982
   80SLPC  H15X 7477   2.258   4.973   5.158  2.4370  0.4104 -2.2780
   80SLPC  H15Y 7478   2.347   5.114   5.185  1.1879 -0.8051 -4.2649
   80SLPC  C316 7479   2.235   5.122   5.011 -0.1017 -0.4024 -0.1285
   80SLPC  H16X 7480   2.251   5.231   4.998  1.3625 -0.6506 -0.5801
   80SLPC  H16Y 7481   2.133   5.100   4.972 -0.3962 -1.9889  1.3903
   80SLPC  C317 7482   2.346   5.056   4.933  0.1432  0.5838  0.7740
   80SLPC  H17X 7483   2.318   4.949   4.946  2.2347 -0.1174 -0.0721
   80SLPC  H17Y 7484   2.450   5.058   4.971 -0.7467  0.3028  3.4421
   80SLPC  C318 7485   2.350   5.093   4.783  0.4369 -0.1171 -0.1258
   80SLPC  H18X 7486   2.338   5.202   4.769 -3.6752 -0.5102 -0.8976
   80SLPC  H18Y 7487   2.266   5.040   4.732 -0.6475  0.1606  1.3033
   80SLPC  H18Z 7488   2.442   5.055   4.733  0.8641 -2.2039  2.0515
   81SLPC     N 7489   6.093   6.256   2.724  0.0531  0.7076 -0.1174
   81SLPC   C13 7490   6.013   6.382   2.704 -0.0454  0.0116 -0.6282
   81SLPC  H13A 7491   5.912   6.345   2.695 -0.4563  0.5111  1.3945
   81SLPC  H13B 7492   6.002   6.442   2.793 -0.6326  1.0588 -1.3868
   81SLPC  H13C 7493   6.052   6.436   2.619 -1.0385 -0.6255 -1.5103
   81SLPC   C14 7494   6.057   6.179   2.845 -0.1797 -0.2578  0.0722
   81SLPC  H14A 7495   6.102   6.209   2.938 -0.1270 -0.6267  0.1655
   81SLPC  H14B 7496   5.950   6.181   2.864  0.1553 -0.1228  2.1182
   81SLPC  H14C 7497   6.082   6.075   2.830 -0.0348 -0.1078 -0.7557
   81SLPC   C15 7498   6.236   6.295   2.730 -0.1324  0.2976 -0.5426
   81SLPC  H15A 7499   6.287   6.199   2.727  0.6174  0.7045 -1.2156
   81SLPC  H15B 7500   6.275   6.351   2.646  0.6781 -0.7802 -0.9212
   81SLPC  H15C 7501   6.252   6.347   2.823  1.1063 -2.4314  0.8886
   81SLPC   C12 7502   6.067   6.158   2.607  0.4111 -0.2584  0.4618
   81SLPC  H12A 7503   6.090   6.203   2.511  0.4732 -1.9588 -0.3708
   81SLPC  H12B 7504   5.961   6.133   2.601  0.3443  0.2490 -1.1437
   81SLPC   C11 7505   6.148   6.021   2.611 -0.2440  0.1318 -0.0990
   81SLPC  H11A 7506   6.254   6.054   2.618 -0.4517  0.5704  1.2330
   81SLPC  H11B 7507   6.122   5.972   2.515 -0.2874 -0.0142 -0.0140
   81SLPC     P 7508   5.988   5.842   2.709  0.1316  0.3329  0.2239
   81SLPC   O13 7509   5.879   5.922   2.651  0.1145 -0.1511  0.0008
   81SLPC   O14 7510   6.015   5.716   2.637  0.0419  0.0280  0.0305
   81SLPC   O12 7511   6.123   5.928   2.722 -0.1597  0.7130 -0.0263
   81SLPC   O11 7512   5.944   5.815   2.858  0.1606  0.8067  0.0169
   81SLPC    C1 7513   6.035   5.809   2.966 -0.2835  0.3837 -0.3138
   81SLPC    HA 7514   6.140   5.828   2.934  0.0747 -0.2360  0.4446
   81SLPC    HB 7515   6.013   5.892   3.035 -1.1884  0.3132 -0.5093
   81SLPC    C2 7516   6.028   5.677   3.046 -0.3415 -0.3456  0.0531
   81SLPC    HS 7517   6.086   5.607   2.982  0.9789  0.9610 -0.2285
   81SLPC   O21 7518   5.893   5.641   3.070  0.0808 -0.0443 -0.6331
   81SLPC   C21 7519   5.870   5.513   3.067 -0.1959  0.4282  0.2638
   81SLPC   O22 7520   5.946   5.430   3.020 -0.0732  0.0154  0.2440
   81SLPC   C22 7521   5.726   5.492   3.110  0.3271 -0.5436 -1.0320
   81SLPC   H2R 7522   5.660   5.538   3.033  1.4117  0.8602 -1.1710
   81SLPC   H2S 7523   5.687   5.389   3.122 -3.2681  0.8609  0.6999
   81SLPC    C3 7524   6.103   5.682   3.187 -0.4357 -0.2540 -0.4517
   81SLPC    HX 7525   6.083   5.779   3.238 -0.2305  1.2803 -3.0780
   81SLPC    HY 7526   6.210   5.695   3.159 -0.5648  2.4032  0.0309
   81SLPC   O31 7527   6.062   5.570   3.272  0.6367 -0.6291  0.4284
   81SLPC   C31 7528   6.162   5.480   3.290  0.9761  0.1755 -0.0184
   81SLPC   O32 7529   6.277   5.496   3.251  0.1973  0.2632 -0.1204
   81SLPC   C32 7530   6.120   5.350   3.363 -0.4472 -0.1683 -0.1890
   81SLPC   H2X 7531   6.185   5.272   3.317  2.4215  3.0571 -2.0198
   81SLPC   H2Y 7532   6.013   5.332   3.341 -0.6044 -0.6050  0.8741
   81SLPC   C23 7533   5.691   5.562   3.245 -0.5523  0.2513  0.0181
   81SLPC   H3R 7534   5.579   5.559   3.248 -0.5217 -0.4418  1.1984
   81SLPC   H3S 7535   5.726   5.667   3.256  0.2042  0.1891 -1.5090
   81SLPC   C24 7536   5.734   5.489   3.374  0.2573 -0.2657 -0.6831
   81SLPC   H4R 7537   5.844   5.475   3.372  0.3215 -0.4486  1.7634
   81SLPC   H4S 7538   5.682   5.390   3.366  3.5530 -2.2455  0.4614
   81SLPC   C25 7539   5.692   5.565   3.497  0.2175  0.1447 -0.1882
   81SLPC   H5R 7540   5.581   5.569   3.504  0.2824  0.0212  1.2387
   81SLPC   H5S 7541   5.716   5.674   3.493  0.5227  0.0891  0.0954
   81SLPC   C26 7542   5.740   5.488   3.623  0.5709 -0.4627  0.0352
   81SLPC   H6R 7543   5.850   5.503   3.633  0.3209  1.8568 -0.1445
   81SLPC   H6S 7544   5.709   5.382   3.618 -1.9968  0.1976  0.4197
   81SLPC   C27 7545   5.670   5.537   3.743 -0.0279  0.3975 -0.8254
   81SLPC   H7R 7546   5.560   5.538   3.725  0.0565  0.2357 -1.3736
   81SLPC   H7S 7547   5.683   5.647   3.754 -0.2424  0.5231 -1.6935
   81SLPC   C28 7548   5.715   5.454   3.874 -0.6031 -0.2014  0.3998
   81SLPC   H8R 7549   5.825   5.460   3.880 -0.6057  1.7294 -0.8460
   81SLPC   H8S 7550   5.681   5.354   3.839  0.5163  0.2602 -2.2153
   81SLPC   C29 7551   5.629   5.485   3.992  0.4022  0.2837  0.2085
   81SLPC   H9R 7552   5.525   5.449   3.986 -0.3329  2.0163  1.5388
   81SLPC  C210 7553   5.665   5.524   4.119 -0.0026 -0.5598 -0.1803
   81SLPC  H10R 7554   5.592   5.548   4.198 -0.2232 -1.6801 -0.0385
   81SLPC  C211 7555   5.812   5.557   4.155  0.6139  0.7355 -0.2366
   81SLPC  H11R 7556   5.867   5.587   4.063  2.1448 -0.4195  0.2671
   81SLPC  H11S 7557   5.857   5.461   4.186 -2.0557 -0.7116 -0.5550
   81SLPC  C212 7558   5.824   5.663   4.256  0.5913 -0.4072  0.1015
   81SLPC  H12R 7559   5.796   5.760   4.212  0.7813 -1.0893 -1.6257
   81SLPC  C213 7560   5.859   5.655   4.381  0.5089  0.2004 -0.4130
   81SLPC  H13R 7561   5.869   5.743   4.446  1.7941  0.0240 -0.3454
   81SLPC  C214 7562   5.889   5.524   4.453  0.0191  0.2050 -0.3507
   81SLPC  H14R 7563   5.996   5.532   4.484  0.5487  0.2516 -2.0840
   81SLPC  H14S 7564   5.882   5.435   4.387  0.0335  0.0093 -0.0915
   81SLPC  C215 7565   5.791   5.506   4.572 -0.3521  0.1035  0.1495
   81SLPC  H15R 7566   5.785   5.590   4.645 -2.7796 -0.6466  0.8998
   81SLPC  H15S 7567   5.832   5.422   4.631  3.3876  1.5203 -0.1251
   81SLPC  C216 7568   5.647   5.488   4.523 -0.3742  0.0854 -0.3527
   81SLPC  H16R 7569   5.660   5.412   4.443  0.6292  2.1391 -2.2562
   81SLPC  H16S 7570   5.613   5.588   4.489  0.7809  0.3068 -0.9097
   81SLPC  C217 7571   5.553   5.420   4.637 -0.1078 -0.2916  0.9184
   81SLPC  H17R 7572   5.451   5.446   4.603  0.8693 -0.8850 -2.9984
   81SLPC  H17S 7573   5.584   5.470   4.732  2.0946  0.3026 -0.0403
   81SLPC  C218 7574   5.557   5.264   4.638 -0.8147 -0.1978 -0.5161
   81SLPC  H18R 7575   5.528   5.227   4.538  1.2172  1.5595 -1.8338
   81SLPC  H18S 7576   5.487   5.227   4.717 -0.1455  1.5212  0.9509
   81SLPC  H18T 7577   5.653   5.224   4.680 -0.7019  0.7728  0.1821
   81SLPC   C33 7578   6.153   5.373   3.512  0.3679  0.4270 -0.4116
   81SLPC   H3X 7579   6.127   5.465   3.568  1.4037 -0.5581  1.7928
   81SLPC   H3Y 7580   6.262   5.368   3.528  0.3032 -0.4597 -0.2223
   81SLPC   C34 7581   6.090   5.254   3.592 -0.2274 -0.5307  0.1446
   81SLPC   H4X 7582   6.106   5.158   3.539  0.6755 -1.6740  2.3523
   81SLPC   H4Y 7583   5.981   5.274   3.594 -0.3783 -1.0919 -1.2984
   81SLPC   C35 7584   6.143   5.234   3.728  0.7793 -0.1853 -0.8573
   81SLPC   H5X 7585   6.254   5.231   3.738  0.6065 -1.0256  1.2985
   81SLPC   H5Y 7586   6.100   5.138   3.765  0.5720 -0.0289 -0.6937
   81SLPC   C36 7587   6.106   5.341   3.835  0.5358  0.0266  0.6497
   81SLPC   H6X 7588   5.999   5.370   3.826  1.1158  2.2655  0.2067
   81SLPC   H6Y 7589   6.159   5.437   3.812  2.1632 -0.8468  0.5736
   81SLPC   C37 7590   6.143   5.308   3.979 -0.8282  0.3954 -0.3116
   81SLPC   H7X 7591   6.096   5.210   4.003 -0.3340  0.0960 -0.5573
   81SLPC   H7Y 7592   6.101   5.396   4.031 -1.3357  0.6695 -1.1746
   81SLPC   C38 7593   6.299   5.290   4.004  0.2465 -0.1436  0.3741
   81SLPC   H8X 7594   6.351   5.384   3.975  0.5083 -0.7784 -1.3705
   81SLPC   H8Y 7595   6.336   5.220   3.926  2.1204 -1.0593  2.0097
   81SLPC   C39 7596   6.331   5.236   4.139  0.4695 -0.1783 -0.6108
   81SLPC   H9X 7597   6.435   5.197   4.134 -0.1477 -2.5246  2.0676
   81SLPC   H9Y 7598   6.276   5.145   4.171  0.3319  0.5075  1.2590
   81SLPC  C310 7599   6.312   5.347   4.243 -0.1568  0.0682  1.2314
   81SLPC  H10X 7600   6.202   5.363   4.243 -0.4246 -1.1496 -1.9504
   81SLPC  H10Y 7601   6.366   5.432   4.197  0.6584 -1.5760 -1.0140
   81SLPC  C311 7602   6.369   5.296   4.376 -0.2761  0.1424  0.5888
   81SLPC  H11X 7603   6.479   5.307   4.370  0.0900 -3.3551 -2.9679
   81SLPC  H11Y 7604   6.343   5.188   4.380 -0.2921  0.1256  0.0218
   81SLPC  C312 7605   6.311   5.361   4.504 -0.0381  0.4023  1.0306
   81SLPC  H12X 7606   6.202   5.347   4.517 -0.2533  1.8875  0.9568
   81SLPC  H12Y 7607   6.320   5.471   4.491  0.6613  0.2156 -0.1154
   81SLPC  C313 7608   6.398   5.320   4.622 -0.1378 -0.1759 -0.2363
   81SLPC  H13X 7609   6.485   5.388   4.634  1.7712 -2.4124 -0.5853
   81SLPC  H13Y 7610   6.453   5.228   4.589 -1.2645 -1.3955  1.1415
   81SLPC  C314 7611   6.335   5.302   4.759  0.4549 -0.0061  0.0573
   81SLPC  H14X 7612   6.402   5.245   4.826 -0.2246 -1.7469 -0.6864
   81SLPC  H14Y 7613   6.244   5.240   4.743  0.7256 -0.6970  1.1077
   81SLPC  C315 7614   6.288   5.436   4.827  0.6221  0.2973  0.0446
   81SLPC  H15X 7615   6.347   5.520   4.782 -0.6637  1.0522 -0.2731
   81SLPC  H15Y 7616   6.297   5.439   4.938 -2.7903 -0.0471  0.4311
   81SLPC  C316 7617   6.141   5.454   4.793 -0.3982  0.0681 -0.0798
   81SLPC  H16X 7618   6.085   5.375   4.847  3.0005 -1.7829  1.0823
   81SLPC  H16Y 7619   6.127   5.452   4.683 -3.0221  2.1298  0.1373
   81SLPC  C317 7620   6.080   5.591   4.840 -0.2671 -0.6305  0.7783
   81SLPC  H17X 7621   5.979   5.591   4.792  0.6139  1.4343 -1.2895
   81SLPC  H17Y 7622   6.116   5.685   4.792  0.2798 -0.1794  2.0362
   81SLPC  C318 7623   6.063   5.606   4.986  0.0872  0.1409  0.1539
   81SLPC  H18X 7624   6.156   5.598   5.047 -2.0161  1.2799  3.8178
   81SLPC  H18Y 7625   5.991   5.529   5.019 -0.4672  0.5174 -0.1555
   81SLPC  H18Z 7626   6.007   5.700   5.008 -2.1000 -0.9578 -0.4794
   82SLPC     N 7627   3.861   3.685   2.256  0.1547  0.2639  0.3085
   82SLPC   C13 7628   3.943   3.554   2.245 -0.9466 -0.4719  0.4582
   82SLPC  H13A 7629   4.030   3.564   2.309 -0.4533  1.1406 -0.4031
   82SLPC  H13B 7630   3.890   3.467   2.280 -0.5133 -1.3332 -0.9649
   82SLPC  H13C 7631   3.970   3.535   2.142  0.6757 -0.1188  0.7882
   82SLPC   C14 7632   3.727   3.662   2.206  0.3386  0.1727 -0.1109
   82SLPC  H14A 7633   3.722   3.666   2.098  1.2005 -0.7391 -0.2007
   82SLPC  H14B 7634   3.693   3.563   2.231  1.7925 -0.2678  0.2541
   82SLPC  H14C 7635   3.659   3.740   2.237  0.8585  1.6780 -2.4737
   82SLPC   C15 7636   3.935   3.783   2.171  0.5363 -0.2781 -0.7085
   82SLPC  H15A 7637   3.977   3.729   2.088 -0.5337 -3.3252  0.6041
   82SLPC  H15B 7638   3.886   3.878   2.155 -1.6549 -1.4762 -1.5902
   82SLPC  H15C 7639   4.022   3.821   2.223  0.2350 -0.0557 -0.3578
   82SLPC   C12 7640   3.851   3.717   2.409  0.1495 -0.8285 -0.0231
   82SLPC  H12A 7641   3.763   3.673   2.454  1.0976 -0.6792  2.0458
   82SLPC  H12B 7642   3.824   3.821   2.407  2.2711 -0.1836 -3.0512
   82SLPC   C11 7643   3.979   3.712   2.493  0.8180  0.2323  0.3867
   82SLPC  H11A 7644   4.012   3.606   2.495  0.3494  0.0368 -1.1603
   82SLPC  H11B 7645   3.964   3.748   2.597  2.3134  1.0826  0.3342
   82SLPC     P 7646   4.235   3.781   2.447  0.0278  0.1032  0.1215
   82SLPC   O13 7647   4.270   3.640   2.419  0.4640  0.3360 -0.6227
   82SLPC   O14 7648   4.295   3.878   2.353  0.4797 -0.3521 -0.6196
   82SLPC   O12 7649   4.079   3.794   2.428  0.0874 -0.8839  0.1385
   82SLPC   O11 7650   4.265   3.813   2.595  0.0655  0.2809  0.3495
   82SLPC    C1 7651   4.204   3.926   2.668 -0.9154  0.8994 -0.7990
   82SLPC    HA 7652   4.266   4.018   2.661  1.2258 -0.3550  0.5538
   82SLPC    HB 7653   4.103   3.947   2.626 -0.3289  0.7570 -2.3695
   82SLPC    C2 7654   4.192   3.896   2.821 -0.0744 -0.1957 -0.1271
   82SLPC    HS 7655   4.144   3.986   2.864  0.9833  0.6258 -0.6000
   82SLPC   O21 7656   4.320   3.868   2.878  0.4969 -0.7952 -0.5477
   82SLPC   C21 7657   4.346   3.931   2.998  0.1808  0.2981  0.3305
   82SLPC   O22 7658   4.275   4.015   3.047 -0.0013  0.3258 -0.3525
   82SLPC   C22 7659   4.469   3.861   3.064  0.2143 -0.5974  0.0741
   82SLPC   H2R 7660   4.457   3.752   3.049 -1.7500 -0.4424  0.2688
   82SLPC   H2S 7661   4.558   3.895   3.006  0.2474 -1.3697 -0.3385
   82SLPC    C3 7662   4.098   3.783   2.858  0.1090  1.1298  0.5193
   82SLPC    HX 7663   4.130   3.687   2.813 -2.1882  1.6578 -2.6005
   82SLPC    HY 7664   4.005   3.806   2.801  0.2840 -0.6642 -0.5484
   82SLPC   O31 7665   4.066   3.769   2.997  0.6068  0.5710 -0.0778
   82SLPC   C31 7666   4.127   3.665   3.062 -0.6597 -0.1549 -0.3212
   82SLPC   O32 7667   4.222   3.600   3.022  0.4980 -0.0419  0.1740
   82SLPC   C32 7668   4.083   3.656   3.205  0.8806 -0.1940  0.4021
   82SLPC   H2X 7669   4.130   3.564   3.245 -1.9372 -2.3643 -0.8657
   82SLPC   H2Y 7670   3.972   3.647   3.209  0.8171  0.1343 -0.4123
   82SLPC   C23 7671   4.489   3.898   3.211 -0.7340 -0.7688 -0.0723
   82SLPC   H3R 7672   4.527   3.824   3.284  2.6474 -0.5309 -1.4089
   82SLPC   H3S 7673   4.395   3.935   3.257  1.1805  0.0838  3.4992
   82SLPC   C24 7674   4.595   4.010   3.239  0.0163  0.3444  0.4427
   82SLPC   H4R 7675   4.583   4.092   3.165  2.2528 -0.2148 -0.6458
   82SLPC   H4S 7676   4.697   3.969   3.223  0.0599 -0.3745  2.2512
   82SLPC   C25 7677   4.583   4.075   3.378 -0.1108  0.3497 -0.0637
   82SLPC   H5R 7678   4.475   4.102   3.379 -1.1537 -3.2749  1.2669
   82SLPC   H5S 7679   4.646   4.165   3.396 -2.2871  1.4222  3.4224
   82SLPC   C26 7680   4.619   3.977   3.494  0.2050 -0.4200  1.0415
   82SLPC   H6R 7681   4.714   3.923   3.473 -0.3035 -0.5799 -1.0981
   82SLPC   H6S 7682   4.544   3.896   3.503  0.7568 -1.2081 -0.8973
   82SLPC   C27 7683   4.629   4.059   3.623 -0.0136  0.3392  0.2865
   82SLPC   H7R 7684   4.528   4.104   3.631 -0.6286 -0.3512 -2.4390
   82SLPC   H7S 7685   4.704   4.141   3.619 -0.6663  0.9620  0.5940
   82SLPC   C28 7686   4.671   3.964   3.733  0.7658 -0.1026  0.7367
   82SLPC   H8R 7687   4.764   3.913   3.699 -0.3607 -1.5399 -0.3051
   82SLPC   H8S 7688   4.593   3.885   3.737 -1.6873  2.1860  0.5334
   82SLPC   C29 7689   4.700   4.036   3.857 -0.5588  0.7359 -0.1081
   82SLPC   H9R 7690   4.701   4.144   3.840 -1.0684  0.9597  1.1861
   82SLPC  C210 7691   4.682   4.007   3.983 -0.6146 -0.4092  0.0692
   82SLPC  H10R 7692   4.726   4.079   4.053 -2.1851  1.5781 -0.8963
   82SLPC  C211 7693   4.633   3.877   4.037  0.5864  0.9308  0.4455
   82SLPC  H11R 7694   4.556   3.840   3.966 -0.5275  1.8425  1.1449
   82SLPC  H11S 7695   4.576   3.908   4.127 -0.8889 -3.3687  1.1822
   82SLPC  C212 7696   4.752   3.781   4.059 -0.1093  0.0298 -0.4097
   82SLPC  H12R 7697   4.821   3.758   3.976 -0.3864 -1.6161 -0.2108
   82SLPC  C213 7698   4.773   3.718   4.175 -0.3896 -0.1172  0.2004
   82SLPC  H13R 7699   4.864   3.656   4.174 -0.2538  0.0845 -0.3480
   82SLPC  C214 7700   4.693   3.720   4.305 -0.0331 -0.0957  0.0031
   82SLPC  H14R 7701   4.723   3.636   4.370  2.1932  0.8471  0.2843
   82SLPC  H14S 7702   4.585   3.714   4.278  0.1962  0.0480 -0.9924
   82SLPC  C215 7703   4.698   3.846   4.399  0.1601  0.7968 -0.1442
   82SLPC  H15R 7704   4.593   3.849   4.436 -0.2155 -0.5491 -1.0509
   82SLPC  H15S 7705   4.694   3.943   4.344 -0.9410  1.4083  0.9573
   82SLPC  C216 7706   4.824   3.847   4.485  0.4455 -0.0098  0.1874
   82SLPC  H16R 7707   4.903   3.839   4.407 -0.6416  1.7587 -1.1638
   82SLPC  H16S 7708   4.833   3.759   4.552 -1.0056 -0.3370 -0.0194
   82SLPC  C217 7709   4.839   3.980   4.562 -0.4848  0.6052  0.5950
   82SLPC  H17R 7710   4.925   3.968   4.632  0.9420  0.7925 -1.0483
   82SLPC  H17S 7711   4.751   4.016   4.618 -0.4570  0.2646  0.8617
   82SLPC  C218 7712   4.884   4.098   4.469  0.5186  0.4554 -0.3234
   82SLPC  H18R 7713   4.969   4.057   4.411  1.7241  2.2434  0.0870
   82SLPC  H18S 7714   4.893   4.194   4.524 -0.2152  0.3988 -0.0844
   82SLPC  H18T 7715   4.805   4.128   4.397  0.2600  0.2702 -0.1228
   82SLPC   C33 7716   4.120   3.777   3.284 -0.8251 -0.1174 -0.3675
   82SLPC   H3X 7717   4.054   3.863   3.264  0.1590  0.7369 -0.0152
   82SLPC   H3Y 7718   4.228   3.797   3.266 -0.5651 -0.4033  0.7617
   82SLPC   C34 7719   4.116   3.755   3.440  1.0532  0.7357  0.8109
   82SLPC   H4X 7720   4.189   3.674   3.462  0.9832  0.1097 -1.0971
   82SLPC   H4Y 7721   4.019   3.718   3.480  0.0472 -0.3095 -2.2758
   82SLPC   C35 7722   4.154   3.883   3.517  0.5559  1.1469 -0.3221
   82SLPC   H5X 7723   4.062   3.944   3.526  0.0015  0.2561  0.1050
   82SLPC   H5Y 7724   4.241   3.934   3.469  1.6750  0.1548  0.5801
   82SLPC   C36 7725   4.205   3.854   3.662 -0.2643  0.4816  0.8780
   82SLPC   H6X 7726   4.301   3.799   3.664 -0.9170 -0.8272 -0.9624
   82SLPC   H6Y 7727   4.128   3.790   3.709 -2.1005  2.3539  0.5674
   82SLPC   C37 7728   4.223   3.980   3.751  0.3919 -0.0963  0.9064
   82SLPC   H7X 7729   4.126   4.035   3.747  0.2389 -0.4051  0.3274
   82SLPC   H7Y 7730   4.302   4.048   3.712  1.8050 -1.6759  0.9036
   82SLPC   C38 7731   4.255   3.945   3.892 -0.0210  0.5033 -0.0634
   82SLPC   H8X 7732   4.354   3.894   3.895 -0.2732  0.0525  1.6539
   82SLPC   H8Y 7733   4.173   3.882   3.933  0.7715  0.1764  1.0910
   82SLPC   C39 7734   4.251   4.074   3.981  1.0917  0.1406  0.2318
   82SLPC   H9X 7735   4.175   4.149   3.951  1.1994 -0.1450 -0.7915
   82SLPC   H9Y 7736   4.351   4.121   3.968  0.7872  1.1829  1.5298
   82SLPC  C310 7737   4.240   4.034   4.131 -0.0578 -0.2058  0.2443
   82SLPC  H10X 7738   4.282   3.933   4.149  2.2313  0.2143 -2.1738
   82SLPC  H10Y 7739   4.131   4.021   4.149  0.1170 -0.4617  1.1435
   82SLPC  C311 7740   4.288   4.132   4.244 -0.4258  0.1699 -0.1804
   82SLPC  H11X 7741   4.241   4.103   4.340  0.9104 -2.8420 -0.2987
   82SLPC  H11Y 7742   4.236   4.227   4.222 -0.0236  0.6942  1.0207
   82SLPC  C312 7743   4.440   4.140   4.237  0.6892 -0.2994 -0.1997
   82SLPC  H12X 7744   4.478   4.138   4.133  0.1570 -0.2481 -0.3984
   82SLPC  H12Y 7745   4.487   4.051   4.285 -0.1966 -1.6353 -1.6822
   82SLPC  C313 7746   4.503   4.267   4.295  0.3663  0.0841 -0.4165
   82SLPC  H13X 7747   4.464   4.355   4.239 -2.7123 -1.7178 -1.3154
   82SLPC  H13Y 7748   4.613   4.272   4.280  0.3842  0.4218 -0.1804
   82SLPC  C314 7749   4.483   4.282   4.450  0.2393  0.2992  0.0055
   82SLPC  H14X 7750   4.524   4.190   4.497  0.3253  0.2821 -0.1026
   82SLPC  H14Y 7751   4.374   4.285   4.468  0.3036 -1.9453  1.1221
   82SLPC  C315 7752   4.555   4.397   4.514 -0.2181 -0.6137 -0.4271
   82SLPC  H15X 7753   4.518   4.481   4.451  2.1404  1.4097  0.7325
   82SLPC  H15Y 7754   4.665   4.382   4.512 -0.1414 -0.6546  1.7754
   82SLPC  C316 7755   4.519   4.421   4.661  0.5191 -0.3604 -0.5632
   82SLPC  H16X 7756   4.575   4.354   4.730  1.3696  1.1618  0.2769
   82SLPC  H16Y 7757   4.416   4.412   4.700  1.2058  1.1268  1.7813
   82SLPC  C317 7758   4.556   4.561   4.708 -0.4060  0.3136  0.9134
   82SLPC  H17X 7759   4.503   4.634   4.644 -0.0563  0.8929  1.2801
   82SLPC  H17Y 7760   4.666   4.576   4.694 -0.3613 -1.5490 -1.5335
   82SLPC  C318 7761   4.526   4.590   4.853 -0.3687 -0.3583 -0.3493
   82SLPC  H18X 7762   4.572   4.522   4.928  0.8829 -0.6585 -1.3632
   82SLPC  H18Y 7763   4.415   4.593   4.856 -0.3853 -0.2281 -0.9486
   82SLPC  H18Z 7764   4.563   4.692   4.876  1.1150 -0.5733 -1.6399
   83SLPC     N 7765   0.037   5.645   2.642  0.3950  0.0707  0.1839
   83SLPC   C13 7766   0.107   5.591   2.529  0.4818  0.9196 -0.1723
   83SLPC  H13A 7767   0.032   5.583   2.451 -0.1196  1.1272  0.3809
   83SLPC  H13B 7768   0.188   5.654   2.495  0.3204  0.6778 -1.0257
   83SLPC  H13C 7769   0.148   5.493   2.552 -1.7249 -0.4187 -1.5422
   83SLPC   C14 7770  -0.062   5.548   2.699  0.0132 -0.4377 -0.3117
   83SLPC  H14A 7771  -0.135   5.510   2.629 -1.7639  0.7739  0.7974
   83SLPC  H14B 7772  -0.012   5.469   2.754 -1.7810 -2.5573 -1.5351
   83SLPC  H14C 7773  -0.119   5.606   2.770  0.0539  0.9678 -1.3951
   83SLPC   C15 7774  -0.036   5.769   2.601 -0.3427 -0.0147  0.4841
   83SLPC  H15A 7775  -0.109   5.746   2.525  0.1768  0.7113 -0.2459
   83SLPC  H15B 7776  -0.084   5.812   2.688 -1.1145  1.5377 -0.6469
   83SLPC  H15C 7777   0.038   5.832   2.554 -2.1003 -0.0265 -2.5430
   83SLPC   C12 7778   0.142   5.693   2.743  0.2956 -0.5099 -1.2142
   83SLPC  H12A 7779   0.206   5.764   2.693  1.4104  0.0139  0.8353
   83SLPC  H12B 7780   0.205   5.610   2.771  0.4026 -0.8911 -2.5318
   83SLPC   C11 7781   0.092   5.754   2.879  0.0906  0.8748 -0.6865
   83SLPC  H11A 7782   0.177   5.771   2.948 -0.5284 -0.3393  0.4153
   83SLPC  H11B 7783   0.039   5.677   2.938 -3.3023  2.7555 -1.0271
   83SLPC     P 7784   0.042   6.007   2.916  0.2795  0.1187 -0.2827
   83SLPC   O13 7785   0.191   6.026   2.884  0.1766 -0.4255  0.5383
   83SLPC   O14 7786  -0.066   6.095   2.864 -0.6690  0.8672 -0.5016
   83SLPC   O12 7787   0.002   5.865   2.871  0.0096 -0.3526  0.3050
   83SLPC   O11 7788   0.026   5.997   3.073  0.2315  0.6945  0.8761
   83SLPC    C1 7789  -0.063   5.904   3.132  0.9981  0.1790  0.3362
   83SLPC    HA 7790  -0.132   5.857   3.059  0.1548  0.5055  0.9064
   83SLPC    HB 7791  -0.006   5.817   3.171  0.9971  0.3325  0.6866
   83SLPC    C2 7792  -0.140   5.960   3.254 -0.0451 -0.7173  0.0149
   83SLPC    HS 7793  -0.223   6.027   3.222 -0.3585 -0.7282  0.7830
   83SLPC   O21 7794  -0.054   6.042   3.336  0.0580  0.5369 -0.3028
   83SLPC   C21 7795  -0.107   6.124   3.425 -0.6669 -0.2633 -0.0510
   83SLPC   O22 7796  -0.221   6.159   3.435 -0.2743  0.0757 -1.0442
   83SLPC   C22 7797   0.004   6.166   3.518  0.3127  0.6583  0.8466
   83SLPC   H2R 7798   0.093   6.106   3.490  1.3636  2.4471  0.2286
   83SLPC   H2S 7799   0.025   6.274   3.499  0.6898  0.4609  0.0893
   83SLPC    C3 7800  -0.175   5.841   3.360 -1.0697 -0.2507  1.0461
   83SLPC    HX 7801  -0.075   5.820   3.405 -1.1238 -1.7052  0.5229
   83SLPC    HY 7802  -0.211   5.756   3.298  2.0720 -1.1232  0.2288
   83SLPC   O31 7803  -0.254   5.880   3.464  0.1788  0.6445 -0.0739
   83SLPC   C31 7804  -0.382   5.903   3.424 -0.0436 -0.1179  0.1322
   83SLPC   O32 7805  -0.415   5.908   3.308  0.1371  0.6714 -0.0736
   83SLPC   C32 7806  -0.482   5.909   3.542 -0.0838  0.3502  0.2787
   83SLPC   H2X 7807  -0.580   5.956   3.519 -0.1809  1.2782  2.3804
   83SLPC   H2Y 7808  -0.427   5.968   3.618  0.1844  2.2422 -1.2971
   83SLPC   C23 7809  -0.020   6.147   3.671 -0.4955  0.3357 -0.2113
   83SLPC   H3R 7810  -0.107   6.203   3.711  0.7115  1.7538  0.5497
   83SLPC   H3S 7811   0.062   6.186   3.735 -1.2082  1.5811 -0.0280
   83SLPC   C24 7812  -0.017   6.001   3.721 -0.1472  0.0255 -0.0311
   83SLPC   H4R 7813   0.087   5.970   3.698 -0.4477 -1.5449  0.5504
   83SLPC   H4S 7814  -0.097   5.948   3.664 -0.5025  0.3592  0.1569
   83SLPC   C25 7815  -0.051   5.989   3.866 -0.3084  0.0393 -0.1942
   83SLPC   H5R 7816  -0.159   6.011   3.875 -0.2454  1.4445 -2.2030
   83SLPC   H5S 7817   0.004   6.064   3.926  0.8528 -1.2595  0.4392
   83SLPC   C26 7818  -0.036   5.847   3.919 -0.6731 -0.0772 -0.4002
   83SLPC   H6R 7819   0.063   5.807   3.888 -0.3592 -0.2321  0.7659
   83SLPC   H6S 7820  -0.114   5.776   3.883  1.0397 -1.3484 -1.7726
   83SLPC   C27 7821  -0.037   5.864   4.077 -0.0130  0.5605 -0.2441
   83SLPC   H7R 7822  -0.056   5.761   4.114 -1.3351  0.7267 -0.3917
   83SLPC   H7S 7823  -0.110   5.934   4.124  1.9354  2.8965 -0.5336
   83SLPC   C28 7824   0.108   5.909   4.129  0.2431 -0.5439 -0.0376
   83SLPC   H8R 7825   0.121   6.009   4.083  0.1431 -1.1457 -1.4534
   83SLPC   H8S 7826   0.191   5.846   4.088  0.7791 -0.1666  0.4612
   83SLPC   C29 7827   0.119   5.905   4.279  0.5400  0.0352  0.2661
   83SLPC   H9R 7828   0.117   5.804   4.323  1.4375  0.1724  0.6344
   83SLPC  C210 7829   0.112   6.021   4.351  0.9762 -0.2781  0.7557
   83SLPC  H10R 7830   0.108   6.006   4.460  1.1177  0.0487  0.8065
   83SLPC  C211 7831   0.082   6.166   4.299  0.3019 -0.2123 -0.4613
   83SLPC  H11R 7832   0.016   6.219   4.371 -0.0009  0.1057 -0.9721
   83SLPC  H11S 7833   0.013   6.163   4.212 -1.1578 -1.1343  0.6528
   83SLPC  C212 7834   0.191   6.268   4.275  0.4791  0.3350 -0.0630
   83SLPC  H12R 7835   0.293   6.230   4.292 -1.0360 -3.4746  1.6024
   83SLPC  C213 7836   0.161   6.395   4.239  0.0563 -0.2176 -0.1861
   83SLPC  H13R 7837   0.241   6.469   4.225  0.8487 -1.1375 -0.6986
   83SLPC  C214 7838   0.019   6.455   4.225 -0.1074  0.2327 -0.3767
   83SLPC  H14R 7839  -0.002   6.522   4.311 -1.0960 -0.0425 -0.3928
   83SLPC  H14S 7840  -0.055   6.372   4.226 -0.2458  0.3577 -0.2818
   83SLPC  C215 7841   0.004   6.544   4.103  0.5337  0.0190 -0.3550
   83SLPC  H15R 7842   0.070   6.633   4.104 -0.2111  0.6764 -2.7816
   83SLPC  H15S 7843  -0.099   6.580   4.124  0.2486 -2.0731  2.5122
   83SLPC  C216 7844   0.001   6.464   3.969 -0.1977 -0.0004 -0.3588
   83SLPC  H16R 7845  -0.079   6.389   3.987  1.8772 -1.6085  3.5330
   83SLPC  H16S 7846   0.103   6.421   3.956  0.3748  0.4836  2.0145
   83SLPC  C217 7847  -0.045   6.549   3.845 -0.2568  1.1620  0.5821
   83SLPC  H17R 7848   0.024   6.634   3.822  0.7153 -0.3126 -2.5114
   83SLPC  H17S 7849  -0.150   6.583   3.857 -1.4434 -2.0223  0.0872
   83SLPC  C218 7850  -0.038   6.462   3.716  0.2060  0.0127 -0.3947
   83SLPC  H18R 7851  -0.061   6.514   3.621 -1.2100  0.9038  0.3870
   83SLPC  H18S 7852  -0.121   6.389   3.732  1.1319 -1.4377 -1.8325
   83SLPC  H18T 7853   0.055   6.404   3.700 -1.3735 -2.5636 -0.9462
   83SLPC   C33 7854  -0.522   5.769   3.599  0.8036 -0.2190  0.2679
   83SLPC   H3X 7855  -0.428   5.711   3.607 -0.4712 -2.5491 -0.6922
   83SLPC   H3Y 7856  -0.590   5.715   3.530  1.1633  0.0933 -0.3405
   83SLPC   C34 7857  -0.573   5.779   3.742  0.0881 -0.8275  0.0528
   83SLPC   H4X 7858  -0.638   5.691   3.760 -1.0331  0.1903  1.1765
   83SLPC   H4Y 7859  -0.623   5.878   3.745  1.7804  0.0361  0.7726
   83SLPC   C35 7860  -0.471   5.776   3.851  0.6913 -0.4470 -0.5049
   83SLPC   H5X 7861  -0.442   5.882   3.869  0.0046 -0.5618  1.5639
   83SLPC   H5Y 7862  -0.387   5.709   3.823  1.0757 -0.4216  0.5400
   83SLPC   C36 7863  -0.530   5.729   3.982 -0.2172 -0.0552 -0.3606
   83SLPC   H6X 7864  -0.565   5.623   3.982 -0.5058 -0.0402  2.5314
   83SLPC   H6Y 7865  -0.614   5.796   4.010  1.9417  2.4735  0.5064
   83SLPC   C37 7866  -0.421   5.731   4.089 -0.1374  0.5433  1.0263
   83SLPC   H7X 7867  -0.338   5.802   4.065 -0.4169  0.2314 -1.1351
   83SLPC   H7Y 7868  -0.371   5.633   4.072 -0.2636  0.8417 -1.4356
   83SLPC   C38 7869  -0.470   5.742   4.236 -0.5164 -0.2277  0.4698
   83SLPC   H8X 7870  -0.540   5.665   4.276 -0.0836 -0.1492  1.3960
   83SLPC   H8Y 7871  -0.521   5.841   4.242 -0.3684 -0.2296  2.3185
   83SLPC   C39 7872  -0.345   5.752   4.326  0.5310  1.2480  0.2178
   83SLPC   H9X 7873  -0.277   5.828   4.283 -1.4997  1.9662 -1.8831
   83SLPC   H9Y 7874  -0.293   5.654   4.334  1.2557  1.5348 -0.8200
   83SLPC  C310 7875  -0.386   5.789   4.470  0.4559  0.1571  0.4523
   83SLPC  H10X 7876  -0.442   5.704   4.516  1.1129 -0.1556  0.6991
   83SLPC  H10Y 7877  -0.447   5.881   4.466 -1.8814 -1.3640 -0.7237
   83SLPC  C311 7878  -0.264   5.827   4.551  0.0485 -0.3846 -0.5736
   83SLPC  H11X 7879  -0.217   5.920   4.511  0.4826  0.1309  1.0483
   83SLPC  H11Y 7880  -0.183   5.751   4.552  0.3893 -0.0292  0.1830
   83SLPC  C312 7881  -0.295   5.834   4.703 -0.0720  0.4181  0.2777
   83SLPC  H12X 7882  -0.348   5.741   4.731  0.4000 -0.4421 -1.5329
   83SLPC  H12Y 7883  -0.377   5.909   4.704  0.6261  1.2390 -1.0906
   83SLPC  C313 7884  -0.177   5.889   4.788  0.3711  0.6694  0.3364
   83SLPC  H13X 7885  -0.080   5.836   4.775 -0.9388 -2.0461  0.9127
   83SLPC  H13Y 7886  -0.222   5.873   4.888 -2.4454  3.1140 -0.4038
   83SLPC  C314 7887  -0.159   6.042   4.770  0.0538 -0.1134  0.3948
   83SLPC  H14X 7888  -0.252   6.102   4.782  0.1791 -0.1086  1.4543
   83SLPC  H14Y 7889  -0.128   6.055   4.664 -1.1131 -1.0687 -0.0856
   83SLPC  C315 7890  -0.053   6.114   4.849 -0.0753  0.8190 -0.4037
   83SLPC  H15X 7891   0.042   6.056   4.853 -1.2360 -1.0775  2.5190
   83SLPC  H15Y 7892  -0.087   6.133   4.953 -0.8554  2.3061 -0.9057
   83SLPC  C316 7893  -0.030   6.259   4.798 -0.3044 -0.1017 -0.8130
   83SLPC  H16X 7894   0.045   6.304   4.867 -0.6333 -0.3780 -0.2690
   83SLPC  H16Y 7895  -0.127   6.311   4.816 -1.1584 -1.8984  0.0977
   83SLPC  C317 7896   0.022   6.278   4.657 -0.8513  0.0012 -0.3651
   83SLPC  H17X 7897  -0.052   6.255   4.577  1.6547 -0.6169 -2.6507
   83SLPC  H17Y 7898   0.106   6.210   4.631 -1.4106 -1.1874  0.8238
   83SLPC  C318 7899   0.070   6.419   4.611 -0.1236  0.2360 -0.5031
   83SLPC  H18X 7900  -0.012   6.494   4.604  0.3950  1.0381  1.3298
   83SLPC  H18Y 7901   0.125   6.419   4.514  0.5430  1.6384 -0.1584
   83SLPC  H18Z 7902   0.157   6.454   4.670 -0.7417 -1.4074  1.4674
   84SLPC     N 7903   2.883   2.849   2.233 -0.1583  0.3221  0.1755
   84SLPC   C13 7904   2.946   2.721   2.194 -0.3339 -0.7450 -0.2943
   84SLPC  H13A 7905   3.042   2.743   2.149  0.2946 -1.8198  0.4759
   84SLPC  H13B 7906   2.980   2.669   2.282  0.9758  1.7820  0.8192
   84SLPC  H13C 7907   2.889   2.659   2.127 -2.2158 -0.4408  0.9502
   84SLPC   C14 7908   2.779   2.824   2.331  0.2129 -0.3206 -0.8653
   84SLPC  H14A 7909   2.708   2.752   2.293  0.4246 -1.2849  0.5041
   84SLPC  H14B 7910   2.826   2.776   2.415 -1.8781  0.0361  0.5730
   84SLPC  H14C 7911   2.741   2.920   2.364  3.3538  0.2809  1.4078
   84SLPC   C15 7912   2.832   2.911   2.111 -0.1450 -0.0023 -0.3530
   84SLPC  H15A 7913   2.746   2.861   2.068 -0.1323 -0.6166  0.3169
   84SLPC  H15B 7914   2.807   3.013   2.139  2.8311  0.5524  0.6748
   84SLPC  H15C 7915   2.901   2.915   2.029 -0.9209  1.8505 -0.9728
   84SLPC   C12 7916   2.991   2.948   2.288  0.3029  0.3573  0.4648
   84SLPC  H12A 7917   3.012   2.925   2.391  1.2131 -1.7694 -0.1393
   84SLPC  H12B 7918   2.953   3.050   2.293  0.4918  0.6625 -2.4843
   84SLPC   C11 7919   3.128   2.970   2.212  1.1418  0.4162 -0.3282
   84SLPC  H11A 7920   3.103   3.000   2.108  1.7674  1.3085 -0.2272
   84SLPC  H11B 7921   3.184   2.874   2.208 -1.4069 -1.2134  0.2836
   84SLPC     P 7922   3.278   3.046   2.404 -0.0895 -0.0117  0.1719
   84SLPC   O13 7923   3.353   2.924   2.394 -0.1749 -0.1135  0.5923
   84SLPC   O14 7924   3.349   3.169   2.442  0.5500  0.0460  0.1984
   84SLPC   O12 7925   3.198   3.071   2.273 -0.6169 -0.3709  0.0371
   84SLPC   O11 7926   3.167   3.016   2.513  0.3648  0.0362  0.7169
   84SLPC    C1 7927   3.103   3.126   2.575 -0.0248  0.5178 -0.3384
   84SLPC    HA 7928   3.155   3.224   2.570 -0.7566  1.0832  2.0235
   84SLPC    HB 7929   3.002   3.132   2.529 -0.3928  0.2641  0.4182
   84SLPC    C2 7930   3.091   3.092   2.729 -0.0383  0.5749  0.5387
   84SLPC    HS 7931   3.017   3.162   2.772  0.7887  1.4346  0.6009
   84SLPC   O21 7932   3.220   3.115   2.790 -0.1827  0.1826 -0.0267
   84SLPC   C21 7933   3.234   3.241   2.822 -0.5949  0.4309  0.1275
   84SLPC   O22 7934   3.158   3.334   2.799 -0.0291 -0.4156 -0.1339
   84SLPC   C22 7935   3.362   3.260   2.894 -0.5262 -0.1874 -0.5813
   84SLPC   H2R 7936   3.389   3.186   2.972  3.6538  1.1543 -0.5064
   84SLPC   H2S 7937   3.440   3.240   2.818  0.0732  0.2678 -0.0971
   84SLPC    C3 7938   3.044   2.948   2.770 -0.9910 -0.8380 -0.3929
   84SLPC    HX 7939   3.129   2.884   2.738  0.3655  0.4672  0.4622
   84SLPC    HY 7940   2.952   2.919   2.716 -1.9965  0.9478  0.2679
   84SLPC   O31 7941   3.035   2.946   2.911 -0.6282 -0.0362  0.4829
   84SLPC   C31 7942   3.071   2.837   2.979  0.6646  0.3273 -0.3389
   84SLPC   O32 7943   3.103   2.729   2.935  0.1087 -0.0847 -0.1185
   84SLPC   C32 7944   3.068   2.876   3.125 -0.2036  0.8269  0.2416
   84SLPC   H2X 7945   3.060   2.779   3.179  0.8569  0.8434  0.4372
   84SLPC   H2Y 7946   2.971   2.928   3.137 -0.1518  0.8305  0.6427
   84SLPC   C23 7947   3.358   3.396   2.965  0.5334 -0.0050 -0.5607
   84SLPC   H3R 7948   3.273   3.393   3.037  0.9581 -0.5683 -0.0687
   84SLPC   H3S 7949   3.333   3.484   2.903 -0.3377  0.0507 -0.1488
   84SLPC   C24 7950   3.485   3.428   3.042 -0.0464 -0.3611 -1.4605
   84SLPC   H4R 7951   3.492   3.539   3.045 -2.3709 -0.1699 -0.8212
   84SLPC   H4S 7952   3.578   3.388   2.997  1.3625  0.0764  0.8740
   84SLPC   C25 7953   3.480   3.364   3.186  0.1063  0.7142 -0.0367
   84SLPC   H5R 7954   3.483   3.253   3.186 -2.7311  0.5553 -0.1321
   84SLPC   H5S 7955   3.383   3.391   3.234  0.2455  0.6111  0.3039
   84SLPC   C26 7956   3.593   3.412   3.284  0.9543  0.5215 -0.3011
   84SLPC   H6R 7957   3.694   3.396   3.240  1.0871  1.5181 -0.3724
   84SLPC   H6S 7958   3.590   3.342   3.370 -0.5154  0.0104 -0.7362
   84SLPC   C27 7959   3.588   3.559   3.335 -0.1428  0.2428  0.4259
   84SLPC   H7R 7960   3.498   3.564   3.399  0.8785 -0.0813  1.9359
   84SLPC   H7S 7961   3.574   3.631   3.251 -0.3120 -0.3271 -0.0348
   84SLPC   C28 7962   3.713   3.602   3.417 -0.2126 -0.4571 -0.2693
   84SLPC   H8R 7963   3.800   3.563   3.361 -0.0445  0.9791 -1.0486
   84SLPC   H8S 7964   3.724   3.548   3.513  3.9365 -0.6944 -0.7057
   84SLPC   C29 7965   3.731   3.749   3.438 -0.3397 -0.1414 -0.0925
   84SLPC   H9R 7966   3.739   3.811   3.348  1.3005  0.5940  0.5166
   84SLPC  C210 7967   3.737   3.802   3.561  0.1673 -0.4787 -0.8833
   84SLPC  H10R 7968   3.729   3.912   3.564  1.2638 -0.4099  0.4929
   84SLPC  C211 7969   3.716   3.744   3.701 -0.1813  0.0814 -0.5716
   84SLPC  H11R 7970   3.716   3.633   3.699  0.4777  0.0779 -0.6747
   84SLPC  H11S 7971   3.615   3.761   3.743  1.1970  0.6634  2.8865
   84SLPC  C212 7972   3.817   3.800   3.795  0.1518  0.4341  0.7365
   84SLPC  H12R 7973   3.905   3.837   3.740  1.1590 -3.8809 -0.9129
   84SLPC  C213 7974   3.824   3.793   3.931  0.5459 -0.0856  0.3868
   84SLPC  H13R 7975   3.908   3.847   3.977 -0.5026  2.8559 -0.9547
   84SLPC  C214 7976   3.719   3.745   4.031 -0.1907  0.3751 -0.4547
   84SLPC  H14R 7977   3.755   3.654   4.083  1.4972  1.5751  0.5518
   84SLPC  H14S 7978   3.627   3.715   3.976 -0.6157 -1.3195  1.0786
   84SLPC  C215 7979   3.673   3.844   4.139  0.4913  1.0653 -0.7477
   84SLPC  H15R 7980   3.755   3.895   4.192  1.3759 -1.6340  0.6483
   84SLPC  H15S 7981   3.608   3.788   4.210  1.4549 -1.4779 -1.7782
   84SLPC  C216 7982   3.567   3.931   4.069  0.3901 -0.4550 -0.1873
   84SLPC  H16R 7983   3.486   3.867   4.029  2.3317 -1.4171 -2.8648
   84SLPC  H16S 7984   3.616   3.986   3.986  1.0789 -0.7751 -0.0020
   84SLPC  C217 7985   3.503   4.032   4.173  0.1364  0.3904 -0.1992
   84SLPC  H17R 7986   3.589   4.073   4.230  0.9405 -0.6412 -0.6231
   84SLPC  H17S 7987   3.444   3.971   4.246  1.8513 -0.5001  0.5166
   84SLPC  C218 7988   3.434   4.148   4.114  0.1745 -0.6002 -0.0755
   84SLPC  H18R 7989   3.495   4.198   4.035 -0.7100  1.0445  0.2442
   84SLPC  H18S 7990   3.385   4.220   4.183  0.7462  1.0047 -1.2657
   84SLPC  H18T 7991   3.343   4.118   4.059 -1.1951  2.6996  0.1580
   84SLPC   C33 7992   3.184   2.965   3.172 -0.3764  0.5229 -0.6541
   84SLPC   H3X 7993   3.172   3.070   3.137  1.0478  0.0199 -2.7776
   84SLPC   H3Y 7994   3.289   2.937   3.153 -0.1784  0.1013  0.8719
   84SLPC   C34 7995   3.184   2.969   3.331 -0.0920 -0.0061 -0.5325
   84SLPC   H4X 7996   3.201   2.864   3.361 -1.0362 -0.9498 -2.9949
   84SLPC   H4Y 7997   3.086   3.002   3.370 -0.0027  2.4754 -2.1660
   84SLPC   C35 7998   3.298   3.057   3.393  0.1874 -0.4125 -0.6942
   84SLPC   H5X 7999   3.278   3.159   3.356 -0.7910  0.5247  2.1762
   84SLPC   H5Y 8000   3.395   3.016   3.357 -0.4071 -2.8591  0.2462
   84SLPC   C36 8001   3.302   3.065   3.550  1.0291  0.2922  0.1763
   84SLPC   H6X 8002   3.302   2.959   3.583  0.6963 -0.1204 -1.1109
   84SLPC   H6Y 8003   3.206   3.110   3.583  0.8702 -0.9310  1.4599
   84SLPC   C37 8004   3.423   3.137   3.595  0.5702 -0.6738  0.6023
   84SLPC   H7X 8005   3.432   3.233   3.540 -2.2652 -1.0442 -0.7121
   84SLPC   H7Y 8006   3.508   3.070   3.568  0.5253  0.3575 -2.5901
   84SLPC   C38 8007   3.412   3.161   3.750  0.7433  0.2156 -0.4792
   84SLPC   H8X 8008   3.407   3.059   3.794 -1.3386 -0.3685 -1.9274
   84SLPC   H8Y 8009   3.320   3.217   3.777 -0.1964 -1.4399 -0.1080
   84SLPC   C39 8010   3.537   3.229   3.812  0.7911  0.1049 -0.3208
   84SLPC   H9X 8011   3.577   3.302   3.738 -1.1743 -0.9071 -2.5349
   84SLPC   H9Y 8012   3.616   3.158   3.846  2.5272  1.3886 -1.4718
   84SLPC  C310 8013   3.498   3.312   3.941 -0.3620  0.4434  0.2905
   84SLPC  H10X 8014   3.417   3.382   3.909 -0.9047 -0.4779 -0.4037
   84SLPC  H10Y 8015   3.586   3.378   3.958  0.5768 -0.6435 -0.2412
   84SLPC  C311 8016   3.465   3.227   4.069  0.4150  0.0423 -0.0575
   84SLPC  H11X 8017   3.551   3.170   4.110  0.4309 -0.8736 -1.3156
   84SLPC  H11Y 8018   3.386   3.159   4.032  1.4954  0.2541 -3.0366
   84SLPC  C312 8019   3.404   3.311   4.184  0.8504  0.1607 -0.8578
   84SLPC  H12X 8020   3.300   3.321   4.147  0.5318 -1.2453 -0.4242
   84SLPC  H12Y 8021   3.474   3.396   4.200  1.4547 -0.3087 -0.9632
   84SLPC  C313 8022   3.388   3.230   4.313  1.3208  0.0312 -0.5987
   84SLPC  H13X 8023   3.482   3.187   4.355  0.8965  0.4865  0.8784
   84SLPC  H13Y 8024   3.329   3.137   4.302 -0.2355  0.7277  1.2827
   84SLPC  C314 8025   3.316   3.312   4.423 -0.6700 -1.2903 -0.5743
   84SLPC  H14X 8026   3.240   3.382   4.381  0.1418  0.3701  0.5890
   84SLPC  H14Y 8027   3.399   3.378   4.458 -0.9741  0.0831 -2.2781
   84SLPC  C315 8028   3.260   3.225   4.536 -0.5135 -1.1250 -0.4835
   84SLPC  H15X 8029   3.340   3.186   4.601  0.1356  1.0468  0.1015
   84SLPC  H15Y 8030   3.201   3.145   4.487 -3.7207  0.9517 -0.3530
   84SLPC  C316 8031   3.177   3.314   4.636 -0.0978 -0.7168 -0.4713
   84SLPC  H16X 8032   3.097   3.368   4.582  0.4574  1.9549  1.2171
   84SLPC  H16Y 8033   3.237   3.396   4.681 -0.0060  0.1219 -2.0571
   84SLPC  C317 8034   3.133   3.224   4.760  0.0657  0.1974  0.5529
   84SLPC  H17X 8035   3.219   3.218   4.831 -0.7718 -0.6867  1.5352
   84SLPC  H17Y 8036   3.077   3.137   4.721 -1.0561  1.1122  0.0892
   84SLPC  C318 8037   3.020   3.305   4.831  0.3071 -0.3104 -0.0744
   84SLPC  H18X 8038   2.992   3.252   4.924 -1.9352  0.6020 -0.1607
   84SLPC  H18Y 8039   2.930   3.322   4.769  0.5350  0.4680 -0.2085
   84SLPC  H18Z 8040   3.054   3.409   4.853  1.0163 -0.8957  1.8731
   85SLPC     N 8041   1.556   0.703   3.343  0.0357 -0.8142  0.0190
   85SLPC   C13 8042   1.538   0.828   3.257 -0.1234  0.2234  0.2671
   85SLPC  H13A 8043   1.540   0.925   3.304  0.8862  0.7784 -0.8244
   85SLPC  H13B 8044   1.606   0.824   3.172  1.1898  2.5027  1.1223
   85SLPC  H13C 8045   1.442   0.807   3.213  0.6600 -0.3663 -1.2630
   85SLPC   C14 8046   1.460   0.716   3.453 -0.1828  0.4271  0.6854
   85SLPC  H14A 8047   1.361   0.708   3.408  0.0634  0.4894  0.1189
   85SLPC  H14B 8048   1.461   0.638   3.527 -0.2068  0.1830  0.4289
   85SLPC  H14C 8049   1.459   0.811   3.505 -0.7238  0.6582  0.2718
   85SLPC   C15 8050   1.701   0.692   3.399 -0.7450 -0.1746 -0.9333
   85SLPC  H15A 8051   1.730   0.762   3.476 -1.7437 -1.2358  0.4703
   85SLPC  H15B 8052   1.713   0.597   3.449  1.3729  0.3931 -0.2705
   85SLPC  H15C 8053   1.774   0.700   3.320  1.3178 -0.9818  0.7853
   85SLPC   C12 8054   1.512   0.584   3.260 -0.5609  0.6787  0.0957
   85SLPC  H12A 8055   1.408   0.587   3.229 -0.4497 -0.7033 -0.4927
   85SLPC  H12B 8056   1.523   0.496   3.322 -0.7327 -0.1134 -0.9627
   85SLPC   C11 8057   1.601   0.546   3.140 -1.0210 -0.1974  0.2964
   85SLPC  H11A 8058   1.532   0.479   3.084 -1.4890  0.1973  0.3896
   85SLPC  H11B 8059   1.682   0.478   3.175 -0.5716  0.3470  0.3244
   85SLPC     P 8060   1.792   0.695   3.024 -0.0391  0.3492 -0.4284
   85SLPC   O13 8061   1.844   0.608   2.921 -0.9905  0.0341  0.5669
   85SLPC   O14 8062   1.805   0.843   2.993 -0.0165  0.8323 -0.2856
   85SLPC   O12 8063   1.644   0.656   3.061  0.6559 -0.0332  0.9085
   85SLPC   O11 8064   1.881   0.660   3.150  0.2148 -0.6883 -0.7130
   85SLPC    C1 8065   2.020   0.692   3.160 -0.7302 -0.1741  0.7036
   85SLPC    HA 8066   2.068   0.596   3.132  1.1328  0.5917  1.1057
   85SLPC    HB 8067   2.045   0.770   3.085 -0.3529 -1.3880 -0.4757
   85SLPC    C2 8068   2.055   0.726   3.307 -0.9415  0.0500  0.4706
   85SLPC    HS 8069   2.165   0.731   3.326 -0.9064  0.3491  0.1784
   85SLPC   O21 8070   2.000   0.633   3.407 -0.7173  0.0879 -0.2044
   85SLPC   C21 8071   2.070   0.526   3.427  0.1469 -0.1813  0.6324
   85SLPC   O22 8072   2.163   0.483   3.362  0.2687 -0.0484  0.1858
   85SLPC   C22 8073   2.015   0.454   3.549  0.5535 -0.0026 -0.3104
   85SLPC   H2R 8074   1.906   0.437   3.532  0.5034  1.5469 -1.7674
   85SLPC   H2S 8075   2.060   0.353   3.564 -0.3507 -0.5619 -1.2111
   85SLPC    C3 8076   2.011   0.868   3.340 -0.4630 -0.0812 -0.8877
   85SLPC    HX 8077   1.901   0.881   3.350 -0.1754  1.8342  0.2616
   85SLPC    HY 8078   2.040   0.927   3.250  0.5763  0.4484 -0.2296
   85SLPC   O31 8079   2.083   0.912   3.461 -0.1534 -0.4292  1.2968
   85SLPC   C31 8080   2.010   0.943   3.565  0.0291 -0.0281 -0.2201
   85SLPC   O32 8081   1.889   0.921   3.583 -0.9421  0.4060  0.5987
   85SLPC   C32 8082   2.100   1.007   3.666  0.8936 -0.1739 -0.1468
   85SLPC   H2X 8083   2.132   1.106   3.627 -0.8027  0.5508  0.2170
   85SLPC   H2Y 8084   2.189   0.942   3.684 -0.2465 -1.0994  2.6414
   85SLPC   C23 8085   2.028   0.534   3.678 -0.3862 -0.0256 -0.6356
   85SLPC   H3R 8086   1.973   0.629   3.665 -0.6957  0.0028  0.7311
   85SLPC   H3S 8087   2.136   0.557   3.693 -0.2072 -1.5942  0.8323
   85SLPC   C24 8088   1.967   0.469   3.800 -0.3116  0.0474  0.6441
   85SLPC   H4R 8089   2.017   0.380   3.843 -0.7884 -0.0328  1.0402
   85SLPC   H4S 8090   1.870   0.421   3.776  0.1800 -0.6708  0.0645
   85SLPC   C25 8091   1.938   0.578   3.906 -0.5096 -0.4726 -0.8304
   85SLPC   H5R 8092   1.888   0.661   3.851 -0.2020 -0.2290 -0.7467
   85SLPC   H5S 8093   1.866   0.532   3.977  0.4313 -0.7728 -0.0586
   85SLPC   C26 8094   2.067   0.634   3.970 -0.1466 -0.3428  0.5428
   85SLPC   H6R 8095   2.047   0.729   4.024  2.7952  1.6894 -1.6169
   85SLPC   H6S 8096   2.145   0.661   3.896  0.2482  0.7100  1.3116
   85SLPC   C27 8097   2.125   0.529   4.068 -0.8291 -0.2710  0.3127
   85SLPC   H7R 8098   2.228   0.554   4.099 -0.3280 -2.4238  0.5300
   85SLPC   H7S 8099   2.131   0.431   4.015 -1.6765  0.5388 -1.3916
   85SLPC   C28 8100   2.042   0.515   4.198 -0.5332  0.5850  0.3400
   85SLPC   H8R 8101   1.940   0.473   4.186  0.5737 -1.9975 -0.5398
   85SLPC   H8S 8102   2.041   0.620   4.234 -0.2947  1.3865 -1.8579
   85SLPC   C29 8103   2.126   0.436   4.300  0.1330 -1.2550  0.4183
   85SLPC   H9R 8104   2.190   0.360   4.253  2.9933  0.2561  1.6235
   85SLPC  C210 8105   2.140   0.456   4.432 -0.6316  0.1465 -0.0267
   85SLPC  H10R 8106   2.206   0.385   4.484 -0.5449  1.2563  1.4050
   85SLPC  C211 8107   2.066   0.548   4.523 -0.0203  0.0660  0.1759
   85SLPC  H11R 8108   1.979   0.584   4.465  0.2285 -2.9189 -2.3001
   85SLPC  H11S 8109   2.128   0.635   4.555  1.0087 -0.2708 -0.8223
   85SLPC  C212 8110   2.008   0.471   4.646  0.6928 -0.0497 -0.5908
   85SLPC  H12R 8111   1.925   0.405   4.619  0.9393 -0.4140 -0.4559
   85SLPC  C213 8112   2.038   0.474   4.775 -0.3807  0.4718  0.0136
   85SLPC  H13R 8113   1.981   0.406   4.840 -0.1696  1.4895  1.3112
   85SLPC  C214 8114   2.147   0.565   4.832  0.5260  0.4790  0.2133
   85SLPC  H14R 8115   2.178   0.641   4.756 -0.5001  2.1421  1.3846
   85SLPC  H14S 8116   2.236   0.501   4.851  0.7611  0.6146 -0.4023
   85SLPC  C215 8117   2.106   0.644   4.963 -0.6023  0.2404  0.7027
   85SLPC  H15R 8118   1.999   0.671   4.952 -1.3359 -2.6229 -0.1080
   85SLPC  H15S 8119   2.168   0.736   4.963 -0.2761  0.0335 -0.1556
   85SLPC  C216 8120   2.109   0.555   5.096  0.3418  0.0000  0.3680
   85SLPC  H16R 8121   2.210   0.511   5.112  0.0314 -1.3263 -1.0703
   85SLPC  H16S 8122   2.039   0.470   5.086  1.5546 -0.9798 -0.0380
   85SLPC  C217 8123   2.061   0.650   5.213 -0.1178 -0.3597 -1.4645
   85SLPC  H17R 8124   1.963   0.630   5.261  0.7845 -3.5287 -0.6855
   85SLPC  H17S 8125   2.065   0.753   5.172  0.2247 -0.2344 -1.1261
   85SLPC  C218 8126   2.167   0.653   5.323  0.4247  0.7988  0.0550
   85SLPC  H18R 8127   2.170   0.747   5.382  0.3642  0.5160  0.5155
   85SLPC  H18S 8128   2.263   0.623   5.276  0.4723 -0.3566  0.8384
   85SLPC  H18T 8129   2.138   0.574   5.396  2.9521 -0.6341 -0.3803
   85SLPC   C33 8130   2.041   1.027   3.808  0.5729 -0.9516 -0.0275
   85SLPC   H3X 8131   2.009   0.925   3.838 -1.6163 -0.1736  0.5010
   85SLPC   H3Y 8132   1.945   1.079   3.830  1.2012  0.0872  0.3582
   85SLPC   C34 8133   2.152   1.081   3.907 -0.1952 -0.1920 -0.1385
   85SLPC   H4X 8134   2.235   1.007   3.899 -0.3206 -0.3383 -0.0996
   85SLPC   H4Y 8135   2.105   1.061   4.006  1.5980 -1.7435  0.4707
   85SLPC   C35 8136   2.196   1.230   3.894 -0.7231 -0.1253  0.0234
   85SLPC   H5X 8137   2.111   1.301   3.892  0.2879  1.1053 -0.6860
   85SLPC   H5Y 8138   2.229   1.226   3.788  1.6041 -1.2001  0.7113
   85SLPC   C36 8139   2.303   1.269   4.001 -0.3986  0.0846  0.5849
   85SLPC   H6X 8140   2.346   1.366   3.968 -1.1317 -0.2893 -1.6604
   85SLPC   H6Y 8141   2.387   1.197   4.002  0.8667  1.4231 -1.6631
   85SLPC   C37 8142   2.249   1.277   4.144  0.7416 -0.2733 -1.0663
   85SLPC   H7X 8143   2.227   1.173   4.174 -1.3312  0.5094  0.3649
   85SLPC   H7Y 8144   2.152   1.333   4.141  1.0324  0.4154  0.8262
   85SLPC   C38 8145   2.332   1.352   4.253 -0.2108 -0.1262 -0.1458
   85SLPC   H8X 8146   2.312   1.461   4.240  3.1617  0.6188  0.1117
   85SLPC   H8Y 8147   2.442   1.338   4.253 -0.3513 -1.4360  1.0261
   85SLPC   C39 8148   2.288   1.327   4.399 -0.7759  0.1094  0.0143
   85SLPC   H9X 8149   2.319   1.223   4.423 -1.6508 -0.2590 -0.3853
   85SLPC   H9Y 8150   2.177   1.327   4.410 -1.0337 -0.8721 -1.9984
   85SLPC  C310 8151   2.350   1.415   4.501 -0.1068  0.3828 -0.0904
   85SLPC  H10X 8152   2.326   1.522   4.482 -1.3542  0.0131 -0.6736
   85SLPC  H10Y 8153   2.461   1.416   4.492  0.0917  1.3054  1.7505
   85SLPC  C311 8154   2.299   1.383   4.643 -0.1387 -0.1783 -0.2853
   85SLPC  H11X 8155   2.335   1.281   4.667 -2.1465 -1.1056 -0.9644
   85SLPC  H11Y 8156   2.188   1.387   4.640 -0.1691 -0.8215 -0.1479
   85SLPC  C312 8157   2.352   1.481   4.749  0.0921  0.8283 -0.0544
   85SLPC  H12X 8158   2.316   1.585   4.737 -0.2375  0.5662 -1.5308
   85SLPC  H12Y 8159   2.462   1.479   4.732 -0.1964  1.8151 -2.5983
   85SLPC  C313 8160   2.317   1.440   4.893  0.9989  0.1476 -0.7588
   85SLPC  H13X 8161   2.391   1.488   4.961 -1.8459  2.4509  0.9211
   85SLPC  H13Y 8162   2.319   1.330   4.908  0.1457 -0.0159 -1.7314
   85SLPC  C314 8163   2.177   1.472   4.953  0.4566 -0.0329 -0.1976
   85SLPC  H14X 8164   2.098   1.413   4.901 -0.2140 -0.8272  1.6196
   85SLPC  H14Y 8165   2.160   1.579   4.928  1.7235  0.3028  0.2783
   85SLPC  C315 8166   2.161   1.450   5.106 -0.7954 -0.4688  0.3372
   85SLPC  H15X 8167   2.213   1.536   5.152 -0.8774 -0.5836  0.6472
   85SLPC  H15Y 8168   2.218   1.357   5.129 -0.4683 -0.6294 -1.0670
   85SLPC  C316 8169   2.024   1.444   5.163  0.3798 -0.2203 -0.9200
   85SLPC  H16X 8170   1.978   1.362   5.103  1.2407 -1.2358 -0.2390
   85SLPC  H16Y 8171   1.979   1.545   5.158  2.9797  1.0906  0.4412
   85SLPC  C317 8172   2.016   1.425   5.317  0.3498  0.6664  0.9725
   85SLPC  H17X 8173   2.097   1.473   5.375  2.1930 -0.3329 -0.6564
   85SLPC  H17Y 8174   2.042   1.319   5.341 -0.0121  0.3501  0.0306
   85SLPC  C318 8175   1.878   1.461   5.381 -0.0863  0.5477  0.1447
   85SLPC  H18X 8176   1.843   1.562   5.353 -1.0645  0.4788  1.0582
   85SLPC  H18Y 8177   1.874   1.453   5.491  0.4371 -0.9630  0.0849
   85SLPC  H18Z 8178   1.808   1.390   5.331 -1.3414  0.3305  2.1269
   86SLPC     N 8179   0.754   3.759   2.531 -0.6135  0.2623 -0.3804
   86SLPC   C13 8180   0.761   3.901   2.485 -0.2028  0.1345  0.1259
   86SLPC  H13A 8181   0.837   3.908   2.408 -1.1566  1.4126 -0.7435
   86SLPC  H13B 8182   0.668   3.936   2.443 -0.9064 -0.8617  0.8112
   86SLPC  H13C 8183   0.785   3.972   2.563 -2.1777  2.8476 -1.5698
   86SLPC   C14 8184   0.752   3.674   2.414  0.5900  0.1639  0.4140
   86SLPC  H14A 8185   0.657   3.684   2.364  1.6906 -2.4022 -2.5303
   86SLPC  H14B 8186   0.826   3.705   2.342  1.8911 -0.1588  1.5717
   86SLPC  H14C 8187   0.768   3.568   2.431  1.5065  0.0241 -1.1354
   86SLPC   C15 8188   0.636   3.725   2.610 -0.2758 -0.2072 -0.3864
   86SLPC  H15A 8189   0.623   3.618   2.619 -1.2695 -0.0374  0.4096
   86SLPC  H15B 8190   0.635   3.779   2.704 -2.7641  0.1908 -0.5923
   86SLPC  H15C 8191   0.546   3.765   2.566 -0.9679 -0.9051  0.3543
   86SLPC   C12 8192   0.881   3.731   2.607  0.1040 -0.0477 -0.1239
   86SLPC  H12A 8193   0.966   3.756   2.546  0.9666 -0.8129  0.7428
   86SLPC  H12B 8194   0.886   3.623   2.614 -1.2064 -0.5650 -4.2174
   86SLPC   C11 8195   0.893   3.809   2.740 -0.5698 -0.6516 -0.5178
   86SLPC  H11A 8196   0.980   3.766   2.795 -1.3558 -0.9750  0.5013
   86SLPC  H11B 8197   0.812   3.799   2.815  0.7594  2.5055  1.5822
   86SLPC     P 8198   1.048   4.008   2.685  0.3450 -0.0596 -0.5719
   86SLPC   O13 8199   1.129   3.913   2.598 -0.4307  0.4030  0.1963
   86SLPC   O14 8200   1.035   4.146   2.636  0.6574  0.4266 -0.0258
   86SLPC   O12 8201   0.908   3.952   2.719  0.0314 -0.4691 -0.0389
   86SLPC   O11 8202   1.121   4.025   2.827 -0.1475  0.0988 -0.1097
   86SLPC    C1 8203   1.057   4.094   2.935 -0.1848  0.6878  0.6330
   86SLPC    HA 8204   1.112   4.189   2.955 -1.0831  1.7657 -1.5737
   86SLPC    HB 8205   0.952   4.130   2.920  0.3959  3.7742  2.8975
   86SLPC    C2 8206   1.070   4.010   3.065  0.3447  1.1442  0.8324
   86SLPC    HS 8207   1.006   3.922   3.044  3.3795 -1.4569  1.7213
   86SLPC   O21 8208   1.011   4.078   3.177  0.3501  0.0532  0.0012
   86SLPC   C21 8209   0.984   4.019   3.287 -0.6253  0.4519  0.0228
   86SLPC   O22 8210   0.979   3.900   3.308  0.4666 -0.2136 -0.4572
   86SLPC   C22 8211   0.947   4.132   3.382 -0.4989  0.1211 -0.5201
   86SLPC   H2R 8212   1.047   4.155   3.425  0.5369 -2.6717 -1.2424
   86SLPC   H2S 8213   0.894   4.216   3.330  0.0565  1.7059  1.3623
   86SLPC    C3 8214   1.212   3.947   3.088 -0.6222 -0.0816 -0.0986
   86SLPC    HX 8215   1.259   4.047   3.086 -0.4808 -0.1533 -0.4378
   86SLPC    HY 8216   1.227   3.884   2.998  1.0292 -2.3987  1.6819
   86SLPC   O31 8217   1.246   3.884   3.213 -0.3340  0.1358  0.1023
   86SLPC   C31 8218   1.372   3.853   3.227 -0.8538 -0.4410  0.1920
   86SLPC   O32 8219   1.462   3.868   3.145  0.4403  0.4018  0.6095
   86SLPC   C32 8220   1.410   3.799   3.371  0.8093 -0.3817  0.1426
   86SLPC   H2X 8221   1.376   3.693   3.370 -3.1207  0.6927  0.4876
   86SLPC   H2Y 8222   1.347   3.859   3.440 -0.1201 -0.3922 -0.6796
   86SLPC   C23 8223   0.853   4.085   3.496 -0.3570 -0.2453  0.5470
   86SLPC   H3R 8224   0.914   4.007   3.546  0.6081 -0.7365 -1.2999
   86SLPC   H3S 8225   0.757   4.057   3.448 -0.1170  0.8051 -0.6008
   86SLPC   C24 8226   0.831   4.189   3.597 -0.1752  0.3850  0.3246
   86SLPC   H4R 8227   0.758   4.257   3.550 -1.3136  0.1551  1.7081
   86SLPC   H4S 8228   0.927   4.240   3.624  0.2647  0.0460 -0.5662
   86SLPC   C25 8229   0.775   4.139   3.736 -0.8972 -0.3322  0.2029
   86SLPC   H5R 8230   0.830   4.046   3.762  0.7406  0.4282 -0.4162
   86SLPC   H5S 8231   0.671   4.106   3.719 -2.1511  2.0003  2.5651
   86SLPC   C26 8232   0.788   4.241   3.848 -0.7364  0.1427 -0.0927
   86SLPC   H6R 8233   0.749   4.334   3.800 -1.2778  0.3107  0.6563
   86SLPC   H6S 8234   0.895   4.262   3.866 -1.1570  0.7420  2.0313
   86SLPC   C27 8235   0.733   4.190   3.979 -0.6314 -0.1586  0.0270
   86SLPC   H7R 8236   0.804   4.106   3.997  1.2008  1.0197 -1.3422
   86SLPC   H7S 8237   0.627   4.159   3.971 -0.6823  0.1808 -0.6841
   86SLPC   C28 8238   0.765   4.290   4.097 -0.8549  0.6334 -0.2164
   86SLPC   H8R 8239   0.753   4.397   4.069  3.3478  1.0500 -1.0437
   86SLPC   H8S 8240   0.875   4.280   4.112 -0.8893 -1.3181 -0.9385
   86SLPC   C29 8241   0.700   4.248   4.231 -0.1053  0.6347  0.3641
   86SLPC   H9R 8242   0.630   4.163   4.223  2.8820 -1.8458 -1.8882
   86SLPC  C210 8243   0.712   4.316   4.346  0.0199  0.7646  0.1388
   86SLPC  H10R 8244   0.669   4.280   4.441  1.2967 -0.8363  0.1579
   86SLPC  C211 8245   0.797   4.434   4.378 -1.4402 -0.8223 -0.2521
   86SLPC  H11R 8246   0.891   4.436   4.319 -1.2717 -0.0322  0.0367
   86SLPC  H11S 8247   0.821   4.432   4.486 -0.2801 -1.1971 -0.5000
   86SLPC  C212 8248   0.733   4.561   4.330  0.3902 -0.2435  0.2727
   86SLPC  H12R 8249   0.729   4.571   4.221  1.3891  1.5880  0.3743
   86SLPC  C213 8250   0.682   4.650   4.419  0.1054  0.2732 -0.0235
   86SLPC  H13R 8251   0.633   4.742   4.384  0.0989  0.8216  1.3651
   86SLPC  C214 8252   0.661   4.628   4.572 -0.2237  0.3913  0.3881
   86SLPC  H14R 8253   0.698   4.535   4.621 -0.0581 -0.3810 -1.1274
   86SLPC  H14S 8254   0.556   4.620   4.607  0.3610  1.8450  2.7035
   86SLPC  C215 8255   0.723   4.741   4.644 -0.1304 -0.7516 -0.7191
   86SLPC  H15R 8256   0.663   4.827   4.608  0.9054  0.1529 -0.3089
   86SLPC  H15S 8257   0.826   4.762   4.609 -0.1299 -2.8157 -2.1430
   86SLPC  C216 8258   0.694   4.721   4.795  0.7129  0.2470  0.1271
   86SLPC  H16R 8259   0.606   4.654   4.808 -0.6926  0.9587 -3.9972
   86SLPC  H16S 8260   0.677   4.820   4.842 -1.0100  0.7920 -1.4861
   86SLPC  C217 8261   0.813   4.654   4.862 -0.1000  0.4142  0.3401
   86SLPC  H17R 8262   0.912   4.695   4.831 -0.6841  1.5122 -0.1276
   86SLPC  H17S 8263   0.803   4.550   4.824  0.6475  0.1055  0.9671
   86SLPC  C218 8264   0.800   4.627   5.016  0.3998 -0.3093 -0.2651
   86SLPC  H18R 8265   0.859   4.539   5.050 -0.8455 -1.1189 -0.1304
   86SLPC  H18S 8266   0.694   4.604   5.038  1.0164 -0.6901  2.9229
   86SLPC  H18T 8267   0.827   4.719   5.074 -0.4269 -0.2310  0.0004
   86SLPC   C33 8268   1.557   3.815   3.411 -0.5410  0.6211 -0.1490
   86SLPC   H3X 8269   1.581   3.923   3.420 -0.3341  0.5500  0.1429
   86SLPC   H3Y 8270   1.615   3.767   3.329  1.2742 -0.4847  1.6888
   86SLPC   C34 8271   1.587   3.737   3.540 -0.0837  0.7777 -0.8583
   86SLPC   H4X 8272   1.696   3.713   3.544 -0.2599  0.0072 -0.6376
   86SLPC   H4Y 8273   1.532   3.641   3.546  1.3012 -0.1065 -1.6958
   86SLPC   C35 8274   1.573   3.825   3.662 -0.2503 -0.6370  0.6877
   86SLPC   H5X 8275   1.463   3.841   3.675  0.1427  2.3197  1.1024
   86SLPC   H5Y 8276   1.621   3.921   3.632 -0.7889 -0.7968 -0.7839
   86SLPC   C36 8277   1.640   3.760   3.788  0.1020  0.2343  0.2255
   86SLPC   H6X 8278   1.750   3.753   3.780  0.0817 -0.4248  0.4868
   86SLPC   H6Y 8279   1.595   3.659   3.792 -0.5884  0.5058 -0.4271
   86SLPC   C37 8280   1.607   3.848   3.911  0.0719  0.5644  0.2267
   86SLPC   H7X 8281   1.509   3.900   3.907 -0.4735 -0.4989 -2.6474
   86SLPC   H7Y 8282   1.689   3.923   3.906  0.4257  0.0939 -2.1202
   86SLPC   C38 8283   1.610   3.761   4.037  0.4856 -0.3688  0.9700
   86SLPC   H8X 8284   1.698   3.696   4.015  0.6292  0.4410 -1.0700
   86SLPC   H8Y 8285   1.510   3.712   4.035 -0.6928  1.8520 -2.2584
   86SLPC   C39 8286   1.634   3.830   4.167  0.2424  0.5301 -0.4158
   86SLPC   H9X 8287   1.534   3.860   4.205  0.4594  0.1167  0.4887
   86SLPC   H9Y 8288   1.690   3.920   4.135  3.4403 -1.1566  0.0609
   86SLPC  C310 8289   1.718   3.756   4.277 -0.2876 -0.6621 -0.3208
   86SLPC  H10X 8290   1.822   3.743   4.240 -0.2247 -2.3261  0.3238
   86SLPC  H10Y 8291   1.673   3.658   4.304 -3.7863  0.3100 -2.0950
   86SLPC  C311 8292   1.748   3.835   4.407 -0.5160  1.1126 -0.2495
   86SLPC  H11X 8293   1.783   3.939   4.392  0.2382  0.9879  0.5313
   86SLPC  H11Y 8294   1.835   3.784   4.455 -1.9207 -0.1073  1.0946
   86SLPC  C312 8295   1.620   3.825   4.499 -0.5073 -0.1197 -0.2093
   86SLPC  H12X 8296   1.583   3.720   4.501 -1.3811  0.1814  0.0023
   86SLPC  H12Y 8297   1.546   3.893   4.452  0.3692  2.2162  1.5870
   86SLPC  C313 8298   1.647   3.880   4.637 -0.4953 -0.4964  0.0499
   86SLPC  H13X 8299   1.684   3.985   4.635 -1.9585  0.1399  2.4502
   86SLPC  H13Y 8300   1.731   3.822   4.682 -0.6804 -1.7900 -1.1950
   86SLPC  C314 8301   1.526   3.861   4.730 -1.6393 -0.6641  0.3037
   86SLPC  H14X 8302   1.536   3.758   4.770  2.5847 -1.6110 -2.5919
   86SLPC  H14Y 8303   1.434   3.864   4.668 -0.1289 -2.3483 -2.1751
   86SLPC  C315 8304   1.518   3.964   4.848 -0.4151 -0.0762  0.1098
   86SLPC  H15X 8305   1.534   4.068   4.812  2.3012 -0.7648 -0.8965
   86SLPC  H15Y 8306   1.604   3.935   4.912  0.7675  1.3842 -0.7535
   86SLPC  C316 8307   1.377   3.965   4.915  0.1629  0.1035  0.5137
   86SLPC  H16X 8308   1.304   3.970   4.832  0.5655 -2.3452 -0.0773
   86SLPC  H16Y 8309   1.375   4.050   4.986 -0.2498  0.9730 -0.5157
   86SLPC  C317 8310   1.355   3.837   4.992  0.3355  1.2069  0.2810
   86SLPC  H17X 8311   1.422   3.841   5.081  2.2584  0.1169 -1.0529
   86SLPC  H17Y 8312   1.393   3.750   4.934  1.3683  2.1312 -0.4680
   86SLPC  C318 8313   1.211   3.813   5.033 -1.0810  0.1717  0.0031
   86SLPC  H18X 8314   1.197   3.728   5.103 -1.5671 -0.0687 -0.3786
   86SLPC  H18Y 8315   1.152   3.790   4.941  2.2926 -0.1659 -2.2492
   86SLPC  H18Z 8316   1.177   3.902   5.090 -0.0969 -0.4679  1.6680
   87SLPC     N 8317   1.320   3.242   2.267 -0.6034  0.1808 -0.4591
   87SLPC   C13 8318   1.259   3.377   2.245  0.6349 -0.4338  0.2766
   87SLPC  H13A 8319   1.302   3.436   2.165 -0.4061 -1.4090 -1.0520
   87SLPC  H13B 8320   1.155   3.375   2.217  0.7294 -2.0000 -0.0466
   87SLPC  H13C 8321   1.269   3.434   2.336  0.4389 -0.7860  0.5192
   87SLPC   C14 8322   1.466   3.248   2.332  0.1345 -0.7299 -0.1450
   87SLPC  H14A 8323   1.533   3.293   2.259 -1.0810 -0.1291 -0.9354
   87SLPC  H14B 8324   1.470   3.311   2.419  1.9401  0.3310 -0.9361
   87SLPC  H14C 8325   1.499   3.154   2.371 -1.7966 -0.4589  2.3522
   87SLPC   C15 8326   1.323   3.184   2.136  0.3967  0.5844  0.0177
   87SLPC  H15A 8327   1.398   3.229   2.073 -1.3968  0.8739 -2.0467
   87SLPC  H15B 8328   1.339   3.077   2.138  0.3944  0.5856  1.6495
   87SLPC  H15C 8329   1.226   3.191   2.088  0.3066 -0.8438 -0.0419
   87SLPC   C12 8330   1.231   3.163   2.359  1.2887 -0.1845 -0.1073
   87SLPC  H12A 8331   1.265   3.060   2.357 -0.6804 -0.8808 -0.7734
   87SLPC  H12B 8332   1.130   3.152   2.323  1.3406  2.3814 -1.2620
   87SLPC   C11 8333   1.220   3.195   2.502 -0.1345 -0.2985  0.2956
   87SLPC  H11A 8334   1.311   3.160   2.553 -1.0598 -0.9356  1.5663
   87SLPC  H11B 8335   1.141   3.135   2.553 -0.9811 -1.2844 -2.0286
   87SLPC     P 8336   1.058   3.389   2.565 -0.3731 -0.0473 -0.1843
   87SLPC   O13 8337   1.059   3.535   2.541  0.1415  0.2231  0.5137
   87SLPC   O14 8338   0.949   3.305   2.513  0.3526 -0.4700  0.9352
   87SLPC   O12 8339   1.203   3.337   2.525  0.3891  1.3578  0.4810
   87SLPC   O11 8340   1.062   3.379   2.726  0.1267  0.3452  0.0073
   87SLPC    C1 8341   1.183   3.387   2.797 -0.4938 -0.1859  0.3408
   87SLPC    HA 8342   1.235   3.289   2.784  0.7648  0.1656  2.3222
   87SLPC    HB 8343   1.254   3.469   2.772 -1.1895  0.0476 -0.9314
   87SLPC    C2 8344   1.142   3.407   2.946  0.2122  0.1450  0.3035
   87SLPC    HS 8345   1.222   3.364   3.010  1.3523  0.5097 -0.8541
   87SLPC   O21 8346   1.015   3.349   2.988  0.3998 -0.3270 -0.4215
   87SLPC   C21 8347   1.010   3.214   2.975  0.5125  0.7461 -0.1359
   87SLPC   O22 8348   1.104   3.139   2.955  0.3132 -0.4492 -0.3458
   87SLPC   C22 8349   0.862   3.165   2.982 -0.6179 -0.0527  0.7655
   87SLPC   H2R 8350   0.803   3.254   2.952  2.0378  0.9959 -1.8013
   87SLPC   H2S 8351   0.845   3.090   2.901 -0.7316  1.0208 -0.2330
   87SLPC    C3 8352   1.134   3.554   2.976  0.3016 -0.2154 -0.4766
   87SLPC    HX 8353   1.050   3.595   2.916  0.3218 -0.2031 -0.4967
   87SLPC    HY 8354   1.228   3.594   2.932  1.0207 -1.5761 -0.2261
   87SLPC   O31 8355   1.135   3.590   3.120 -0.2513  0.7166  0.3409
   87SLPC   C31 8356   1.019   3.589   3.180 -0.5921 -0.7062 -0.8191
   87SLPC   O32 8357   0.913   3.603   3.120  0.6882 -0.0217 -0.0273
   87SLPC   C32 8358   1.048   3.559   3.328 -0.2592  0.4097  0.4596
   87SLPC   H2X 8359   1.119   3.638   3.359  2.2246 -1.3056 -0.5539
   87SLPC   H2Y 8360   1.103   3.463   3.329  2.9073  2.0760 -0.8489
   87SLPC   C23 8361   0.824   3.114   3.118  0.6032 -0.4413 -0.8268
   87SLPC   H3R 8362   0.891   3.034   3.159 -0.6742 -0.9109  0.4525
   87SLPC   H3S 8363   0.721   3.073   3.112  0.6018 -0.4537 -0.7233
   87SLPC   C24 8364   0.828   3.211   3.237 -0.2066  0.4384  0.0681
   87SLPC   H4R 8365   0.777   3.308   3.221  1.8545  1.9302  1.9393
   87SLPC   H4S 8366   0.935   3.233   3.259 -0.2891  2.1339 -0.9995
   87SLPC   C25 8367   0.797   3.132   3.377 -0.4471  0.0075  0.8537
   87SLPC   H5R 8368   0.857   3.039   3.376  1.5969  1.2720 -0.7680
   87SLPC   H5S 8369   0.688   3.110   3.365 -0.3293  0.7672 -2.5108
   87SLPC   C26 8370   0.813   3.212   3.503 -0.1253 -0.4406 -0.6613
   87SLPC   H6R 8371   0.763   3.305   3.470  0.0426 -0.7499 -1.8412
   87SLPC   H6S 8372   0.915   3.237   3.540 -0.9807 -0.3948  1.8695
   87SLPC   C27 8373   0.734   3.162   3.628  0.2894 -0.1823  0.0086
   87SLPC   H7R 8374   0.769   3.065   3.671  0.2827  0.2822  1.1152
   87SLPC   H7S 8375   0.629   3.134   3.605  0.8329 -2.1779 -0.1906
   87SLPC   C28 8376   0.730   3.276   3.732 -0.0715  0.1797 -0.2383
   87SLPC   H8R 8377   0.673   3.367   3.702  0.9132  0.5774 -0.9605
   87SLPC   H8S 8378   0.827   3.326   3.751 -0.2747  0.1694  0.9198
   87SLPC   C29 8379   0.656   3.227   3.861 -0.7750  0.1394  0.3233
   87SLPC   H9R 8380   0.555   3.184   3.849 -0.7500 -0.4281  1.9610
   87SLPC  C210 8381   0.697   3.212   3.992  0.4441  0.1771  0.4662
   87SLPC  H10R 8382   0.624   3.184   4.069  1.1024 -0.5433  0.8476
   87SLPC  C211 8383   0.832   3.236   4.047 -0.5280 -0.5814 -0.0678
   87SLPC  H11R 8384   0.818   3.315   4.124  1.5923  1.3178 -1.4679
   87SLPC  H11S 8385   0.898   3.281   3.969 -0.1173 -2.9617 -1.2033
   87SLPC  C212 8386   0.910   3.121   4.105  0.3398  0.0867 -0.0869
   87SLPC  H12R 8387   0.898   3.108   4.214 -0.0341 -3.6323 -0.4779
   87SLPC  C213 8388   0.988   3.032   4.039  0.3316  0.1613  0.4098
   87SLPC  H13R 8389   1.041   2.959   4.102  3.8056  2.8306  0.8291
   87SLPC  C214 8390   1.010   3.039   3.885 -0.0236 -0.1298 -0.5529
   87SLPC  H14R 8391   1.085   3.119   3.866  1.4682 -1.1720  0.7051
   87SLPC  H14S 8392   0.917   3.080   3.841  0.4007 -0.8119 -2.1268
   87SLPC  C215 8393   1.029   2.905   3.811  0.1679 -0.2970  0.6973
   87SLPC  H15R 8394   0.950   2.828   3.820 -0.2349  0.1387  0.9305
   87SLPC  H15S 8395   1.116   2.849   3.852 -0.4091 -0.7159  1.3574
   87SLPC  C216 8396   1.059   2.932   3.664 -0.1918 -0.5262 -0.0843
   87SLPC  H16R 8397   1.156   2.984   3.656  0.7207 -2.0995  0.3198
   87SLPC  H16S 8398   0.990   3.011   3.628 -2.3195 -2.2828 -0.1251
   87SLPC  C217 8399   1.054   2.809   3.567  0.3334 -0.0820 -0.2019
   87SLPC  H17R 8400   0.986   2.833   3.482  0.5023  1.9188  0.1851
   87SLPC  H17S 8401   1.020   2.721   3.625  0.8297 -0.2452 -0.1553
   87SLPC  C218 8402   1.189   2.760   3.516 -0.0770 -0.6478 -0.0658
   87SLPC  H18R 8403   1.247   2.714   3.598 -1.3928 -0.5355  0.9679
   87SLPC  H18S 8404   1.245   2.847   3.477 -2.0494  0.8219  0.2206
   87SLPC  H18T 8405   1.181   2.688   3.432 -0.3487 -0.3700 -0.2814
   87SLPC   C33 8406   0.928   3.567   3.418 -0.0434  0.3725 -0.7108
   87SLPC   H3X 8407   0.851   3.501   3.373 -0.2238  0.4907 -0.5746
   87SLPC   H3Y 8408   0.881   3.664   3.390  2.3158  1.3809 -1.4209
   87SLPC   C34 8409   0.950   3.539   3.567  0.8190  0.5809  0.0128
   87SLPC   H4X 8410   0.992   3.440   3.597  0.0995 -0.0629 -1.0518
   87SLPC   H4Y 8411   0.851   3.557   3.614 -1.8171 -2.3973 -3.7238
   87SLPC   C35 8412   1.047   3.644   3.625  0.4854 -0.6314 -0.1595
   87SLPC   H5X 8413   1.003   3.742   3.596  1.0904 -0.0944  0.6934
   87SLPC   H5Y 8414   1.148   3.641   3.578 -0.3349 -1.5837 -1.9602
   87SLPC   C36 8415   1.040   3.643   3.777  0.3735 -0.1429 -0.6012
   87SLPC   H6X 8416   1.105   3.562   3.815 -0.9583 -0.1769  1.7969
   87SLPC   H6Y 8417   0.941   3.607   3.812  1.5414 -0.5263  2.6595
   87SLPC   C37 8418   1.073   3.779   3.844  0.5882 -0.2867  0.1163
   87SLPC   H7X 8419   0.982   3.842   3.853  1.0120  0.0149  3.6061
   87SLPC   H7Y 8420   1.149   3.837   3.787 -0.1772 -0.4848 -1.1496
   87SLPC   C38 8421   1.131   3.769   3.984  0.0502 -0.2014 -0.4551
   87SLPC   H8X 8422   1.221   3.704   3.982 -1.5112 -2.5080  0.1812
   87SLPC   H8Y 8423   1.052   3.717   4.042 -0.2629  0.3192 -0.4118
   87SLPC   C39 8424   1.147   3.905   4.057  0.2370 -0.2151  0.1524
   87SLPC   H9X 8425   1.055   3.962   4.036  0.0337 -1.0920 -1.4618
   87SLPC   H9Y 8426   1.240   3.958   4.027 -1.0277  0.9278 -1.9274
   87SLPC  C310 8427   1.156   3.890   4.210  0.1702  0.2130 -0.1204
   87SLPC  H10X 8428   1.246   3.834   4.244  0.2040 -1.3106 -2.5232
   87SLPC  H10Y 8429   1.062   3.834   4.231 -0.4975  1.1760 -0.4778
   87SLPC  C311 8430   1.140   4.024   4.282 -0.4200  0.7968  0.2048
   87SLPC  H11X 8431   1.059   4.085   4.239 -0.7883 -0.9619 -1.7720
   87SLPC  H11Y 8432   1.235   4.075   4.254  0.0756 -1.8971 -3.8766
   87SLPC  C312 8433   1.123   4.010   4.426  0.6278  0.3018 -0.1644
   87SLPC  H12X 8434   1.169   3.918   4.469  0.5496  1.0453  1.5967
   87SLPC  H12Y 8435   1.016   4.000   4.452  0.9612 -3.1911  0.3274
   87SLPC  C313 8436   1.186   4.125   4.510  0.3467 -0.0011  0.5126
   87SLPC  H13X 8437   1.144   4.222   4.477 -1.4119 -0.8337  0.1781
   87SLPC  H13Y 8438   1.293   4.119   4.477 -0.6484  0.3339 -3.2749
   87SLPC  C314 8439   1.155   4.110   4.659  0.4693  0.0427 -0.2085
   87SLPC  H14X 8440   1.233   4.170   4.710  1.4624  0.8600 -2.5562
   87SLPC  H14Y 8441   1.161   4.001   4.679 -1.6350  0.0691  0.8390
   87SLPC  C315 8442   1.014   4.146   4.710 -0.4700  0.6177  0.0183
   87SLPC  H15X 8443   0.927   4.107   4.653  0.7370 -1.5388 -0.4775
   87SLPC  H15Y 8444   1.005   4.257   4.708 -1.3047  0.5574  0.0004
   87SLPC  C316 8445   0.997   4.114   4.860 -0.3139 -0.1028  0.2060
   87SLPC  H16X 8446   1.082   4.154   4.919 -1.9643  0.0032  2.6377
   87SLPC  H16Y 8447   0.983   4.004   4.867 -2.8684  0.1124 -0.5832
   87SLPC  C317 8448   0.870   4.163   4.921  0.1346  0.1180 -0.0697
   87SLPC  H17X 8449   0.790   4.117   4.859 -1.4781  0.4119  1.7069
   87SLPC  H17Y 8450   0.857   4.273   4.917  1.7362  0.7350  4.8411
   87SLPC  C318 8451   0.845   4.137   5.072  0.5068  0.1182  0.1471
   87SLPC  H18X 8452   0.920   4.190   5.134  1.0809 -0.1570 -0.3013
   87SLPC  H18Y 8453   0.835   4.028   5.089 -0.0957 -0.0942 -1.3844
   87SLPC  H18Z 8454   0.743   4.172   5.099  0.1193  2.0585 -3.1976
   88SLPC     N 8455   2.062   2.730   2.646 -0.8361  0.4652 -0.2166
   88SLPC   C13 8456   2.021   2.676   2.514  0.1145  0.4661  0.2257
   88SLPC  H13A 8457   2.099   2.636   2.451 -0.6091  1.0834 -1.0937
   88SLPC  H13B 8458   1.947   2.599   2.523  1.4952 -1.4156 -2.8208
   88SLPC  H13C 8459   1.979   2.758   2.458  0.7067  0.9223  0.4335
   88SLPC   C14 8460   2.178   2.823   2.625 -0.4278 -0.9205  0.3688
   88SLPC  H14A 8461   2.251   2.775   2.561  1.8038  0.8338  1.4371
   88SLPC  H14B 8462   2.152   2.910   2.567  2.0772 -0.1484  0.2775
   88SLPC  H14C 8463   2.211   2.853   2.723 -0.3088 -0.5747  0.2256
   88SLPC   C15 8464   2.094   2.617   2.741  0.0066  0.0731  0.3094
   88SLPC  H15A 8465   2.000   2.565   2.752 -0.0453 -0.2298 -1.3016
   88SLPC  H15B 8466   2.164   2.548   2.695  1.0927 -0.2678  2.3385
   88SLPC  H15C 8467   2.150   2.651   2.828  0.7807  2.2334 -0.9489
   88SLPC   C12 8468   1.950   2.814   2.713 -0.6986 -0.3329 -0.1662
   88SLPC  H12A 8469   1.995   2.857   2.801  2.2099 -2.1732 -0.6195
   88SLPC  H12B 8470   1.869   2.750   2.745 -0.4202  0.1202  1.5521
   88SLPC   C11 8471   1.893   2.935   2.631  0.0239 -0.2595  0.3147
   88SLPC  H11A 8472   1.811   2.975   2.694 -0.0850  2.1131 -1.2209
   88SLPC  H11B 8473   1.850   2.897   2.536 -1.0957  0.4764  0.5130
   88SLPC     P 8474   2.027   3.141   2.701 -0.1637  0.5348 -0.4829
   88SLPC   O13 8475   2.140   3.216   2.655 -0.5180  0.8119  0.1090
   88SLPC   O14 8476   1.910   3.227   2.727  0.2691  0.4408 -0.2231
   88SLPC   O12 8477   1.986   3.037   2.599  0.1507  0.0071 -0.6734
   88SLPC   O11 8478   2.068   3.057   2.829  0.1092  0.5866  0.0502
   88SLPC    C1 8479   1.969   3.034   2.938 -1.2246  0.0508 -0.3916
   88SLPC    HA 8480   1.876   2.991   2.895  1.3593 -2.7371 -3.7415
   88SLPC    HB 8481   2.009   2.958   3.009 -2.0208  0.7625  0.8635
   88SLPC    C2 8482   1.941   3.150   3.034  0.1049  0.0856 -0.1368
   88SLPC    HS 8483   1.900   3.235   2.975  0.2399 -0.1431 -0.5592
   88SLPC   O21 8484   2.071   3.186   3.081 -0.2222  0.1831  0.2758
   88SLPC   C21 8485   2.093   3.309   3.109  0.0842  0.7325  0.1149
   88SLPC   O22 8486   2.018   3.401   3.114  0.7031  0.1737 -0.0393
   88SLPC   C22 8487   2.242   3.320   3.160 -0.2894  0.1867 -0.3242
   88SLPC   H2R 8488   2.251   3.226   3.219 -1.4973  0.4652  0.3383
   88SLPC   H2S 8489   2.315   3.316   3.077 -0.6756  0.0549 -0.6634
   88SLPC    C3 8490   1.849   3.114   3.155 -0.0292  0.0673  0.3286
   88SLPC    HX 8491   1.888   3.014   3.181 -1.2721 -0.8916 -1.2977
   88SLPC    HY 8492   1.742   3.103   3.125 -0.3413  2.1060  0.5213
   88SLPC   O31 8493   1.861   3.201   3.264  0.6571 -0.0673  0.2291
   88SLPC   C31 8494   1.784   3.308   3.257  0.4782 -0.3492 -0.6122
   88SLPC   O32 8495   1.688   3.329   3.187  0.2037  0.1240  1.2938
   88SLPC   C32 8496   1.810   3.387   3.391 -0.8842  0.0498 -0.1047
   88SLPC   H2X 8497   1.741   3.474   3.399 -0.7869 -0.0570  3.2364
   88SLPC   H2Y 8498   1.914   3.423   3.381 -0.2387 -1.7753 -0.2718
   88SLPC   C23 8499   2.252   3.445   3.252  0.4493  0.1216  0.0729
   88SLPC   H3R 8500   2.178   3.440   3.335 -0.1621 -0.2028 -0.4819
   88SLPC   H3S 8501   2.229   3.539   3.197 -1.7796 -0.1898  0.3883
   88SLPC   C24 8502   2.403   3.450   3.299 -0.0327 -0.5722  0.0780
   88SLPC   H4R 8503   2.467   3.420   3.213 -0.2431 -0.5766 -0.0753
   88SLPC   H4S 8504   2.423   3.373   3.378  3.0156 -0.0717 -0.0612
   88SLPC   C25 8505   2.443   3.588   3.354 -0.5042  0.6464  0.3250
   88SLPC   H5R 8506   2.386   3.631   3.439  1.6742  3.0527  0.6772
   88SLPC   H5S 8507   2.429   3.657   3.268 -0.6433  0.2672  0.0424
   88SLPC   C26 8508   2.591   3.593   3.388 -0.3982 -0.0498 -0.1734
   88SLPC   H6R 8509   2.636   3.598   3.286 -2.9856 -1.7930 -1.5241
   88SLPC   H6S 8510   2.633   3.497   3.424  0.6931 -0.0284 -1.2915
   88SLPC   C27 8511   2.634   3.714   3.474  0.0206 -0.5122  1.0018
   88SLPC   H7R 8512   2.608   3.809   3.423 -1.3660 -0.9529  0.8496
   88SLPC   H7S 8513   2.744   3.706   3.487  0.4253  0.5649 -1.1730
   88SLPC   C28 8514   2.582   3.717   3.613  0.5763  0.1179 -0.1179
   88SLPC   H8R 8515   2.593   3.613   3.649 -1.9151 -0.7696 -1.6600
   88SLPC   H8S 8516   2.475   3.747   3.613  0.7545  0.8042  0.5411
   88SLPC   C29 8517   2.643   3.821   3.703 -0.5050 -0.9885 -0.1352
   88SLPC   H9R 8518   2.657   3.924   3.667 -0.4590 -0.9599 -0.0360
   88SLPC  C210 8519   2.678   3.798   3.829  0.5049  0.7037 -0.1638
   88SLPC  H10R 8520   2.714   3.877   3.897  2.4993  0.5663 -0.9812
   88SLPC  C211 8521   2.671   3.657   3.888 -0.2855 -0.0471  0.1389
   88SLPC  H11R 8522   2.705   3.568   3.832 -1.1563 -0.1344 -0.2637
   88SLPC  H11S 8523   2.562   3.635   3.898 -0.4046  1.3318  2.9190
   88SLPC  C212 8524   2.746   3.640   4.020  0.1182  0.8353  1.3913
   88SLPC  H12R 8525   2.849   3.603   4.006  0.1237 -0.0299  3.3958
   88SLPC  C213 8526   2.690   3.647   4.143  1.2205  0.1025  0.4114
   88SLPC  H13R 8527   2.745   3.627   4.236  0.4290 -1.1658  0.6198
   88SLPC  C214 8528   2.553   3.704   4.158 -0.2778  0.1457  0.3902
   88SLPC  H14R 8529   2.467   3.636   4.146 -0.4057  0.3607  0.0812
   88SLPC  H14S 8530   2.538   3.791   4.090  1.9426 -0.2145 -0.6705
   88SLPC  C215 8531   2.535   3.774   4.296  0.1983  0.7462 -0.8367
   88SLPC  H15R 8532   2.552   3.702   4.378 -1.9536  0.8534 -0.2433
   88SLPC  H15S 8533   2.428   3.798   4.313  0.6896  2.4757  0.1346
   88SLPC  C216 8534   2.612   3.903   4.327 -0.2462  0.2028  0.0386
   88SLPC  H16R 8535   2.584   3.990   4.264 -2.5262 -0.3850  0.1498
   88SLPC  H16S 8536   2.720   3.877   4.318 -0.4007 -0.3336 -0.3426
   88SLPC  C217 8537   2.582   3.939   4.471  0.2900  0.3379 -0.3610
   88SLPC  H17R 8538   2.626   3.867   4.543 -1.4987  0.4205  0.8784
   88SLPC  H17S 8539   2.472   3.933   4.483  0.5756  0.3584  3.0448
   88SLPC  C218 8540   2.637   4.085   4.496  0.4922  0.0971 -0.4541
   88SLPC  H18R 8541   2.626   4.095   4.606 -0.2245 -2.0061 -0.2882
   88SLPC  H18S 8542   2.570   4.146   4.432 -1.0431 -2.1743 -1.1592
   88SLPC  H18T 8543   2.744   4.089   4.463 -0.1874  2.6477 -2.6773
   88SLPC   C33 8544   1.783   3.309   3.524  0.4099  0.3813  0.0081
   88SLPC   H3X 8545   1.860   3.229   3.532 -1.9542 -1.8735  2.8244
   88SLPC   H3Y 8546   1.681   3.264   3.523  0.0022  1.2828 -0.9192
   88SLPC   C34 8547   1.810   3.401   3.645  0.0238 -0.3026 -0.1721
   88SLPC   H4X 8548   1.747   3.492   3.654 -0.0500 -0.2498 -1.1513
   88SLPC   H4Y 8549   1.914   3.434   3.628  0.2649  0.1391  1.9450
   88SLPC   C35 8550   1.792   3.323   3.776 -0.1227  0.1672 -0.2248
   88SLPC   H5X 8551   1.844   3.226   3.763  0.3698  0.2080  1.2822
   88SLPC   H5Y 8552   1.688   3.303   3.811  0.5717 -1.4288  1.0568
   88SLPC   C36 8553   1.852   3.401   3.892  0.0740  0.4930 -0.5763
   88SLPC   H6X 8554   1.799   3.499   3.899  0.5787  0.8358 -1.4328
   88SLPC   H6Y 8555   1.955   3.431   3.865 -0.0658  0.7186 -0.8600
   88SLPC   C37 8556   1.860   3.340   4.030  0.9251  0.0985 -0.4116
   88SLPC   H7X 8557   1.913   3.405   4.102 -1.5983  0.6993  1.0337
   88SLPC   H7Y 8558   1.917   3.244   4.023 -2.1081 -1.7907 -1.2456
   88SLPC   C38 8559   1.717   3.315   4.091  0.0499 -0.0866  0.1503
   88SLPC   H8X 8560   1.664   3.242   4.027  1.1184 -0.5881 -0.1929
   88SLPC   H8Y 8561   1.644   3.398   4.086 -1.4134 -1.3928 -2.4729
   88SLPC   C39 8562   1.718   3.255   4.234 -0.2549 -1.0160 -0.5864
   88SLPC   H9X 8563   1.769   3.157   4.220 -1.0944 -1.3762 -1.2195
   88SLPC   H9Y 8564   1.615   3.240   4.272 -0.7105  2.0191 -0.3776
   88SLPC  C310 8565   1.752   3.358   4.351  0.0183 -0.1141  0.1816
   88SLPC  H10X 8566   1.685   3.446   4.339 -0.8434 -0.8305 -0.4763
   88SLPC  H10Y 8567   1.851   3.394   4.319  0.5429 -2.3813 -0.9408
   88SLPC  C311 8568   1.744   3.313   4.496 -0.9411  0.1497 -0.3297
   88SLPC  H11X 8569   1.798   3.217   4.507  0.9531  1.1836 -0.2754
   88SLPC  H11Y 8570   1.635   3.313   4.521 -0.9627  1.1504 -0.3919
   88SLPC  C312 8571   1.823   3.396   4.594 -0.1890  0.1483  0.6503
   88SLPC  H12X 8572   1.792   3.503   4.584  1.1022  0.6029  1.3273
   88SLPC  H12Y 8573   1.933   3.394   4.578 -0.4711 -0.5215 -1.6180
   88SLPC  C313 8574   1.813   3.343   4.744  0.3656  0.4365  0.5633
   88SLPC  H13X 8575   1.874   3.401   4.817  1.8002 -2.2765  1.6926
   88SLPC  H13Y 8576   1.856   3.241   4.740  0.4759  0.5102 -0.2874
   88SLPC  C314 8577   1.669   3.321   4.806 -0.5956  0.3951 -0.1844
   88SLPC  H14X 8578   1.681   3.269   4.903  0.1622  3.9854  1.8302
   88SLPC  H14Y 8579   1.611   3.253   4.740 -0.1389 -1.4412  1.2284
   88SLPC  C315 8580   1.595   3.451   4.820  0.1337 -0.2611  0.0267
   88SLPC  H15X 8581   1.586   3.491   4.717  1.6449  2.7998  0.9616
   88SLPC  H15Y 8582   1.662   3.531   4.858  1.7940 -1.0240 -1.1406
   88SLPC  C316 8583   1.460   3.427   4.905 -0.0776 -0.3469  0.5872
   88SLPC  H16X 8584   1.401   3.340   4.869  0.0299  0.7001 -2.3522
   88SLPC  H16Y 8585   1.395   3.516   4.893 -0.9733 -1.0832 -0.1707
   88SLPC  C317 8586   1.495   3.425   5.060  0.3243 -0.5189  0.1663
   88SLPC  H17X 8587   1.544   3.513   5.107  0.8906 -0.8715  0.2449
   88SLPC  H17Y 8588   1.571   3.345   5.071 -2.2220 -2.8694  1.8354
   88SLPC  C318 8589   1.376   3.372   5.138  0.1339 -0.8786  0.1376
   88SLPC  H18X 8590   1.395   3.346   5.244 -0.2098  0.2418  0.4917
   88SLPC  H18Y 8591   1.333   3.284   5.087  0.1036 -0.1132 -1.2051
   88SLPC  H18Z 8592   1.300   3.453   5.143  0.2752 -0.8030  2.9675
   89SAPE     N 8593   4.574   1.011   7.652 -0.1183  0.2158  0.2165
   89SAPE   HN1 8594   4.655   0.953   7.682  0.6939 -0.3807 -2.8292
   89SAPE   HN2 8595   4.529   1.052   7.736  1.7066 -0.0689  1.3942
   89SAPE   HN3 8596   4.497   0.968   7.596 -0.0394  1.4778 -0.9091
   89SAPE   C12 8597   4.623   1.121   7.574 -0.6493 -0.8244 -0.2814
   89SAPE  H12A 8598   4.713   1.084   7.519 -1.1396 -1.5502 -0.6162
   89SAPE  H12B 8599   4.662   1.186   7.655 -1.8992 -0.8020  0.3170
   89SAPE   C11 8600   4.525   1.203   7.489 -0.1360  0.6732  0.1487
   89SAPE  H11A 8601   4.481   1.120   7.429  0.8285 -0.6023  1.1263
   89SAPE  H11B 8602   4.583   1.272   7.424  1.2290 -0.4263  0.1509
   89SAPE     P 8603   4.455   1.405   7.619 -0.1245  0.2159 -0.4220
   89SAPE   O13 8604   4.351   1.456   7.711 -0.4224 -0.0063  0.3612
   89SAPE   O14 8605   4.599   1.413   7.657 -0.0926 -0.0384 -0.3745
   89SAPE   O12 8606   4.419   1.265   7.567  0.1065 -0.3522 -0.2456
   89SAPE   O11 8607   4.444   1.495   7.485  0.2656 -0.3850 -0.3805
   89SAPE    C1 8608   4.322   1.498   7.403  0.3110 -0.7798  0.1764
   89SAPE    HA 8609   4.262   1.404   7.408 -1.9634  0.6484  1.1377
   89SAPE    HB 8610   4.262   1.583   7.440  0.7551 -0.7389  0.8087
   89SAPE    C2 8611   4.360   1.521   7.249  0.8099 -0.0261 -0.4467
   89SAPE    HS 8612   4.281   1.590   7.211 -0.6816 -1.8031 -0.7428
   89SAPE   O21 8613   4.376   1.406   7.166  0.7865  0.3504  0.3295
   89SAPE   C21 8614   4.267   1.336   7.150  0.1532  0.2384 -0.3227
   89SAPE   O22 8615   4.154   1.361   7.183 -0.3405  0.4361 -0.4821
   89SAPE   C22 8616   4.300   1.207   7.071 -0.3802  0.3204  0.0147
   89SAPE   H2R 8617   4.408   1.194   7.046 -0.9154 -2.8329 -1.1760
   89SAPE   H2S 8618   4.269   1.126   7.141  0.4210 -0.4514 -0.4861
   89SAPE    C3 8619   4.489   1.610   7.234  0.1193 -1.1889  0.2463
   89SAPE    HX 8620   4.568   1.547   7.280  0.6896  0.1172  1.1118
   89SAPE    HY 8621   4.478   1.694   7.307  1.1228  1.8065 -2.8096
   89SAPE   O31 8622   4.512   1.666   7.104 -0.5032  0.3084  0.4067
   89SAPE   C31 8623   4.633   1.718   7.093  0.2771  0.1968  0.7154
   89SAPE   O32 8624   4.716   1.734   7.182  0.1239 -0.6878 -1.1255
   89SAPE   C32 8625   4.659   1.743   6.944  1.1190 -0.3506 -0.5881
   89SAPE   H2X 8626   4.570   1.803   6.915  1.0881  0.2122  0.6412
   89SAPE   H2Y 8627   4.655   1.645   6.892 -1.1054 -1.3824  1.3678
   89SAPE   C23 8628   4.220   1.205   6.938  0.1279  0.1968 -0.1895
   89SAPE   H3R 8629   4.110   1.223   6.940  0.2815  1.3295 -1.1582
   89SAPE   H3S 8630   4.230   1.104   6.893 -1.5101 -0.6703  1.2619
   89SAPE   C24 8631   4.276   1.298   6.834  0.5238 -0.0640  0.0371
   89SAPE   H4R 8632   4.385   1.278   6.828 -0.0245 -3.1865 -1.5417
   89SAPE   H4S 8633   4.268   1.402   6.873 -1.9671 -0.4859  0.8215
   89SAPE   C25 8634   4.213   1.303   6.695 -0.5017  0.7989 -1.1553
   89SAPE   H5R 8635   4.103   1.305   6.703 -0.3765 -0.0891  1.5971
   89SAPE   C26 8636   4.271   1.342   6.576 -0.0173  0.1334 -0.4403
   89SAPE   H6R 8637   4.216   1.319   6.484  1.1901  0.5013 -1.2902
   89SAPE   C27 8638   4.412   1.398   6.558  0.0847 -0.5859  0.1158
   89SAPE   H7R 8639   4.477   1.312   6.531  0.9132 -0.3656  1.3248
   89SAPE   H7S 8640   4.449   1.442   6.653 -2.3454  0.8914  0.4600
   89SAPE   C28 8641   4.410   1.497   6.451 -1.2522  0.6231 -0.4500
   89SAPE   H8R 8642   4.414   1.600   6.488 -2.2165  0.2695  0.7085
   89SAPE   C29 8643   4.400   1.466   6.320  0.5518  0.8898 -0.8267
   89SAPE   H9R 8644   4.402   1.551   6.250  1.8089  2.2545  0.7852
   89SAPE  C210 8645   4.404   1.330   6.249 -0.3615  0.1942  0.1768
   89SAPE  H10R 8646   4.425   1.250   6.323 -1.4799  1.1375  1.5803
   89SAPE  H10S 8647   4.492   1.314   6.183 -1.4601 -0.6997 -1.1197
   89SAPE  C211 8648   4.272   1.311   6.176  0.3471 -0.9956  0.6399
   89SAPE  H11R 8649   4.196   1.275   6.247  1.6293 -0.0594  2.5545
   89SAPE  C212 8650   4.254   1.328   6.044 -0.2341  0.4958 -0.1321
   89SAPE  H12R 8651   4.170   1.275   5.995 -0.2747  0.7464 -0.3369
   89SAPE  C213 8652   4.355   1.391   5.953 -1.0243  0.6010 -0.2035
   89SAPE  H13R 8653   4.426   1.459   6.005  0.8226  0.0097 -1.8101
   89SAPE  H13S 8654   4.295   1.454   5.884  1.1052  1.2148 -1.6029
   89SAPE  C214 8655   4.439   1.290   5.875 -0.0723  0.0708 -0.1982
   89SAPE  H14R 8656   4.465   1.205   5.939  2.4856 -0.4061 -1.7308
   89SAPE  C215 8657   4.444   1.280   5.743 -0.4497  0.0858  0.5081
   89SAPE  H15R 8658   4.523   1.211   5.709 -0.5389  0.2395 -0.0237
   89SAPE  C216 8659   4.392   1.371   5.635  0.7756  0.0443  0.2550
   89SAPE  H16R 8660   4.296   1.411   5.674 -0.0621 -1.1475 -0.5243
   89SAPE  H16S 8661   4.370   1.307   5.547 -0.5231  0.0230  0.5736
   89SAPE  C217 8662   4.493   1.479   5.599  0.0991  0.6479  0.1516
   89SAPE  H17R 8663   4.515   1.543   5.687 -1.1307  1.9231 -0.4301
   89SAPE  H17S 8664   4.450   1.544   5.520  0.7370  0.8316 -0.0448
   89SAPE  C218 8665   4.625   1.414   5.551  0.0469  0.2014  0.0783
   89SAPE  H18R 8666   4.681   1.362   5.631  1.5081  0.0511 -1.0100
   89SAPE  H18S 8667   4.694   1.494   5.516 -1.3651  1.2178 -0.4971
   89SAPE  C219 8668   4.615   1.316   5.432  0.7158 -0.2026  0.8183
   89SAPE  H19R 8669   4.568   1.219   5.457  2.2835 -0.6664  2.1580
   89SAPE  H19S 8670   4.719   1.286   5.405  0.2578 -1.2953  0.2359
   89SAPE  C220 8671   4.554   1.382   5.315 -0.1434 -0.2349 -0.1828
   89SAPE  H20R 8672   4.609   1.473   5.283 -1.2741 -0.1540 -2.0988
   89SAPE  H20S 8673   4.447   1.403   5.332 -0.4212 -0.7505 -1.1620
   89SAPE  H20T 8674   4.554   1.304   5.235  0.8036 -0.9364  0.4774
   89SAPE   C33 8675   4.802   1.802   6.911  0.3962  0.2102 -0.0067
   89SAPE   H3X 8676   4.880   1.727   6.934 -1.3086 -2.2245 -1.6701
   89SAPE   H3Y 8677   4.821   1.887   6.980 -0.1999 -0.6778  1.2689
   89SAPE   C34 8678   4.813   1.861   6.765  0.2128 -0.3306  0.1349
   89SAPE   H4X 8679   4.904   1.924   6.753 -0.4032  0.3353 -1.3969
   89SAPE   H4Y 8680   4.738   1.944   6.765  2.2637  1.6290  0.1240
   89SAPE   C35 8681   4.792   1.769   6.647 -0.2217  0.3194  0.5174
   89SAPE   H5X 8682   4.701   1.707   6.662  0.7379 -0.5857  3.1860
   89SAPE   H5Y 8683   4.884   1.706   6.639 -0.4813 -0.2271  1.5567
   89SAPE   C36 8684   4.769   1.842   6.516 -0.7994  0.3118 -0.1530
   89SAPE   H6X 8685   4.855   1.911   6.503 -1.8820  1.5265 -1.0388
   89SAPE   H6Y 8686   4.674   1.900   6.519 -1.3585 -0.5050 -1.3659
   89SAPE   C37 8687   4.749   1.754   6.400  0.0633 -0.2609 -0.0605
   89SAPE   H7X 8688   4.656   1.693   6.414 -0.8962  0.7544 -1.6344
   89SAPE   H7Y 8689   4.837   1.686   6.400  0.6436  0.4822  0.0650
   89SAPE   C38 8690   4.732   1.821   6.263  0.4256  0.1504 -0.0316
   89SAPE   H8X 8691   4.825   1.869   6.227  0.3243 -0.2344 -0.8319
   89SAPE   H8Y 8692   4.661   1.906   6.271  2.2836  1.7306  0.2440
   89SAPE   C39 8693   4.687   1.720   6.158  0.0915  0.1961  0.5891
   89SAPE   H9X 8694   4.582   1.682   6.161 -0.6373  2.0812  0.5032
   89SAPE   H9Y 8695   4.747   1.627   6.170 -1.7587 -0.8724  2.4913
   89SAPE  C310 8696   4.702   1.783   6.017  0.1607  0.4185  0.4782
   89SAPE  H10X 8697   4.803   1.829   6.017 -0.3129  1.6055 -1.7831
   89SAPE  H10Y 8698   4.636   1.873   6.015  1.2167  1.2135  0.2802
   89SAPE  C311 8699   4.688   1.688   5.901  0.1331  0.3981  0.1372
   89SAPE  H11X 8700   4.594   1.630   5.915 -0.8262  2.3317  2.5032
   89SAPE  H11Y 8701   4.769   1.614   5.915 -0.3850  0.2545  2.8120
   89SAPE  C312 8702   4.693   1.768   5.772  0.5379 -0.9879  0.3221
   89SAPE  H12X 8703   4.682   1.701   5.685 -1.8326 -1.7462  1.1208
   89SAPE  H12Y 8704   4.790   1.822   5.776  0.5070 -0.9306  0.2939
   89SAPE  C313 8705   4.586   1.880   5.762 -0.4516  0.1561 -0.0586
   89SAPE  H13X 8706   4.597   1.954   5.844 -0.6127  0.0452  0.0625
   89SAPE  H13Y 8707   4.486   1.833   5.774 -0.5403  0.2909 -0.2519
   89SAPE  C314 8708   4.587   1.975   5.631  0.4657 -0.4507 -0.1730
   89SAPE  H14X 8709   4.515   2.059   5.635  0.9992  0.1767 -2.4376
   89SAPE  H14Y 8710   4.568   1.908   5.544 -2.1052 -1.5968  1.1593
   89SAPE  C315 8711   4.725   2.040   5.605 -0.7727 -0.7196  0.1796
   89SAPE  H15X 8712   4.804   1.962   5.599  0.4492  0.5331 -0.4755
   89SAPE  H15Y 8713   4.744   2.090   5.701 -0.2824 -2.9141  1.2937
   89SAPE  C316 8714   4.721   2.131   5.482  0.1811  0.1274  0.0171
   89SAPE  H16X 8715   4.655   2.220   5.492  1.3978  1.1378 -0.6665
   89SAPE  H16Y 8716   4.695   2.078   5.388  0.7326 -0.0690 -0.0286
   89SAPE  C317 8717   4.855   2.191   5.447 -0.1467  0.3709  0.2366
   89SAPE  H17X 8718   4.935   2.120   5.417 -0.0659  0.7548 -0.4665
   89SAPE  H17Y 8719   4.902   2.231   5.540  1.7949  0.3986 -0.7081
   89SAPE  C318 8720   4.854   2.298   5.342 -0.6139 -0.3472 -0.9967
   89SAPE  H18X 8721   4.955   2.338   5.317 -0.9702  0.4850 -1.1226
   89SAPE  H18Y 8722   4.808   2.394   5.374  0.7244 -0.1336  0.3912
   89SAPE  H18Z 8723   4.816   2.259   5.245 -0.5420  1.4645 -1.7980
   90SAPE     N 8724   2.527   0.126   7.827 -0.0186 -0.7973  0.4678
   90SAPE   HN1 8725   2.520   0.201   7.755 -1.7861 -1.6474 -0.3009
   90SAPE   HN2 8726   2.530   0.178   7.917 -0.0396  2.4016 -1.2488
   90SAPE   HN3 8727   2.623   0.086   7.827  1.0500  1.5634  0.7438
   90SAPE   C12 8728   2.414   0.027   7.812 -0.0554 -0.2914  0.2709
   90SAPE  H12A 8729   2.411  -0.048   7.893  2.7032 -0.8034 -0.0103
   90SAPE  H12B 8730   2.430  -0.024   7.715 -1.3456  1.0416 -0.6918
   90SAPE   C11 8731   2.281   0.108   7.797  0.8902 -0.0968 -0.9015
   90SAPE  H11A 8732   2.249   0.151   7.895 -1.0938 -0.3820 -1.3849
   90SAPE  H11B 8733   2.199   0.038   7.773  0.9973 -0.2488 -0.8201
   90SAPE     P 8734   2.161   0.279   7.655 -0.6373  0.2751 -0.1707
   90SAPE   O13 8735   2.068   0.273   7.776 -0.2089 -0.0757  0.1939
   90SAPE   O14 8736   2.182   0.402   7.581 -0.0178  0.1392  0.3884
   90SAPE   O12 8737   2.301   0.207   7.694 -0.2749  0.0294 -0.2471
   90SAPE   O11 8738   2.103   0.181   7.546  0.4296 -0.0223 -0.6019
   90SAPE    C1 8739   2.183   0.070   7.505  0.2602  0.0581  0.6333
   90SAPE    HA 8740   2.290   0.096   7.498  0.0255  0.8408 -0.4122
   90SAPE    HB 8741   2.176  -0.016   7.574  1.3823 -1.1228 -0.6775
   90SAPE    C2 8742   2.143   0.016   7.365 -0.0483 -0.5445  0.5484
   90SAPE    HS 8743   2.193  -0.082   7.348 -2.2437 -1.5638 -0.5160
   90SAPE   O21 8744   2.186   0.110   7.258  0.3103 -0.3139  0.8604
   90SAPE   C21 8745   2.315   0.123   7.234  0.4930  0.2788 -0.0842
   90SAPE   O22 8746   2.401   0.036   7.256 -0.3009 -0.1463 -0.5467
   90SAPE   C22 8747   2.359   0.252   7.169  0.5667  0.4708 -0.4460
   90SAPE   H2R 8748   2.331   0.337   7.235 -0.0723 -0.1847  0.1367
   90SAPE   H2S 8749   2.469   0.262   7.154  0.8898  2.7703  2.4618
   90SAPE    C3 8750   1.987   0.004   7.364 -0.2635  0.2159  0.0693
   90SAPE    HX 8751   1.947   0.108   7.372  0.9095  0.6878 -0.0992
   90SAPE    HY 8752   1.949  -0.052   7.452 -2.5814  0.1614 -0.8757
   90SAPE   O31 8753   1.936  -0.059   7.245 -0.1709  0.4971  0.3372
   90SAPE   C31 8754   1.932   0.025   7.137 -0.2344 -0.2899  0.5775
   90SAPE   O32 8755   1.903   0.143   7.145 -0.4067 -0.0525  0.3564
   90SAPE   C32 8756   1.933  -0.052   7.007 -0.3845 -0.3799 -0.7683
   90SAPE   H2X 8757   1.862  -0.138   7.006  0.2325 -0.9013 -0.2311
   90SAPE   H2Y 8758   2.036  -0.095   7.008  0.4954  1.6485 -0.0653
   90SAPE   C23 8759   2.293   0.261   7.022 -0.2526 -0.1208  0.6244
   90SAPE   H3R 8760   2.186   0.232   7.019 -0.8473  2.0210 -0.1436
   90SAPE   H3S 8761   2.349   0.195   6.951 -2.1204  1.2807 -2.3287
   90SAPE   C24 8762   2.298   0.406   6.974 -0.3631  0.7563  0.1406
   90SAPE   H4R 8763   2.405   0.432   6.981 -0.4370  0.6805  2.8966
   90SAPE   H4S 8764   2.254   0.474   7.051  2.2396  2.0367  0.5982
   90SAPE   C25 8765   2.243   0.427   6.834  0.0650 -0.1424 -0.6584
   90SAPE   H5R 8766   2.145   0.379   6.819 -0.0889 -0.6297  1.5100
   90SAPE   C26 8767   2.292   0.491   6.729 -0.0163  0.3611 -0.3145
   90SAPE   H6R 8768   2.219   0.506   6.648 -0.4656  0.9447  0.1872
   90SAPE   C27 8769   2.434   0.543   6.718 -0.7393 -0.5251 -0.6342
   90SAPE   H7R 8770   2.487   0.515   6.811 -0.3627  2.0171  0.0060
   90SAPE   H7S 8771   2.442   0.654   6.712 -0.3143 -0.5404 -0.3750
   90SAPE   C28 8772   2.502   0.474   6.598 -1.1450 -1.0752  0.1789
   90SAPE   H8R 8773   2.572   0.393   6.623  1.0101  0.6479  0.0974
   90SAPE   C29 8774   2.485   0.496   6.465 -0.0463 -0.3267 -0.0972
   90SAPE   H9R 8775   2.543   0.432   6.396 -0.5736 -1.8500  0.8231
   90SAPE  C210 8776   2.389   0.593   6.398 -0.0388  0.3640  0.2955
   90SAPE  H10R 8777   2.435   0.619   6.300 -1.2460  0.3046 -0.3130
   90SAPE  H10S 8778   2.379   0.682   6.464 -1.1982  0.8504 -0.4801
   90SAPE  C211 8779   2.257   0.534   6.367  0.2201  0.5141 -0.7688
   90SAPE  H11R 8780   2.259   0.433   6.323  0.6073  0.5135 -0.7578
   90SAPE  C212 8781   2.135   0.578   6.405 -0.8425  0.0867 -0.2966
   90SAPE  H12R 8782   2.048   0.519   6.372 -1.1182 -0.8794  2.0063
   90SAPE  C213 8783   2.105   0.700   6.488 -0.8875 -0.3687  0.9037
   90SAPE  H13R 8784   2.067   0.763   6.405 -2.2244 -1.3321  0.7560
   90SAPE  H13S 8785   2.198   0.750   6.525 -1.4410  1.0302  0.4755
   90SAPE  C214 8786   1.998   0.691   6.593  0.4434  0.5302 -0.0766
   90SAPE  H14R 8787   2.039   0.701   6.694  0.1250  0.1223  0.0936
   90SAPE  C215 8788   1.861   0.692   6.586 -0.2254 -0.5427  0.5107
   90SAPE  H15R 8789   1.795   0.695   6.674 -1.4600 -0.8659 -0.3727
   90SAPE  C216 8790   1.787   0.679   6.453 -0.7855  0.1831  0.0535
   90SAPE  H16R 8791   1.850   0.622   6.383 -2.3382  1.3266 -2.4286
   90SAPE  H16S 8792   1.778   0.782   6.412  0.1450  0.6461  0.9779
   90SAPE  C217 8793   1.642   0.626   6.458  0.0173 -0.2289  0.0256
   90SAPE  H17R 8794   1.583   0.690   6.527 -0.4422 -0.6765  0.0548
   90SAPE  H17S 8795   1.652   0.521   6.493 -3.1653 -1.0371 -1.1579
   90SAPE  C218 8796   1.573   0.613   6.318 -0.8831 -0.0747  0.1604
   90SAPE  H18R 8797   1.572   0.717   6.279  0.8951 -0.1224 -0.0961
   90SAPE  H18S 8798   1.476   0.563   6.339 -0.4005 -1.1798 -0.1637
   90SAPE  C219 8799   1.659   0.537   6.212 -0.5685 -1.0521 -0.0495
   90SAPE  H19R 8800   1.676   0.434   6.249  2.0917 -0.6719 -0.0186
   90SAPE  H19S 8801   1.751   0.598   6.195  0.0014 -1.7754  0.4077
   90SAPE  C220 8802   1.595   0.518   6.078  0.4136 -0.1419  0.1393
   90SAPE  H20R 8803   1.558   0.613   6.034 -2.2433  0.1293  2.6319
   90SAPE  H20S 8804   1.510   0.446   6.081 -1.5727  1.8764 -2.3743
   90SAPE  H20T 8805   1.662   0.483   5.997 -0.9159  2.8397 -2.4512
   90SAPE   C33 8806   1.923   0.047   6.895 -0.4695  0.0469 -0.5023
   90SAPE   H3X 8807   2.002   0.124   6.904 -0.5829  0.1499 -0.3660
   90SAPE   H3Y 8808   1.822   0.095   6.895 -1.3363 -1.6519 -1.7247
   90SAPE   C34 8809   1.951  -0.011   6.756  0.6812 -0.4593  0.0447
   90SAPE   H4X 8810   1.867  -0.081   6.734  0.7118 -0.7340  0.7791
   90SAPE   H4Y 8811   2.048  -0.065   6.757  1.3976  0.6513 -2.3212
   90SAPE   C35 8812   1.960   0.112   6.659  0.2844  0.5345  0.2460
   90SAPE   H5X 8813   2.031   0.188   6.698  0.0548  1.3887 -0.9288
   90SAPE   H5Y 8814   1.871   0.180   6.661  0.6976  1.0689  0.7388
   90SAPE   C36 8815   1.988   0.073   6.512 -0.5820  0.0635 -0.1398
   90SAPE   H6X 8816   1.896   0.028   6.469 -1.0860 -1.0678  1.9805
   90SAPE   H6Y 8817   2.074   0.003   6.506 -0.0458  0.7773 -0.9798
   90SAPE   C37 8818   2.018   0.189   6.425  0.6024 -0.2068  0.5540
   90SAPE   H7X 8819   2.110   0.243   6.455  1.0105 -0.1273 -0.7651
   90SAPE   H7Y 8820   1.941   0.269   6.418 -0.5928 -1.2029  1.7266
   90SAPE   C38 8821   2.052   0.145   6.288  0.0729  0.7316  0.0762
   90SAPE   H8X 8822   2.123   0.060   6.296 -0.5709 -0.1595 -2.5395
   90SAPE   H8Y 8823   2.111   0.215   6.226  1.1723  0.2834  0.5991
   90SAPE   C39 8824   1.922   0.127   6.208 -0.2226  0.3058  0.9277
   90SAPE   H9X 8825   1.857   0.217   6.214 -1.5654 -0.4424 -1.2332
   90SAPE   H9Y 8826   1.858   0.055   6.264 -1.9032  1.3652  0.4647
   90SAPE  C310 8827   1.945   0.098   6.054 -0.2195 -0.3551 -0.1829
   90SAPE  H10X 8828   1.998  -0.000   6.048  0.3564 -0.0116 -0.9850
   90SAPE  H10Y 8829   2.011   0.181   6.019  2.5294 -1.4069  2.1075
   90SAPE  C311 8830   1.812   0.099   5.979  0.4101  0.7814  0.7406
   90SAPE  H11X 8831   1.768   0.200   5.994  0.6150  0.7552  1.5236
   90SAPE  H11Y 8832   1.751   0.027   6.036  0.9045  1.3862  2.0716
   90SAPE  C312 8833   1.830   0.060   5.827  0.9468 -0.2664 -0.3479
   90SAPE  H12X 8834   1.726   0.060   5.786  1.0417 -3.2412 -0.8071
   90SAPE  H12Y 8835   1.858  -0.047   5.827  2.0451 -0.0266  1.8709
   90SAPE  C313 8836   1.926   0.136   5.740  0.2395  0.4763 -0.5587
   90SAPE  H13X 8837   2.025   0.091   5.757 -0.4981 -0.2372  2.2772
   90SAPE  H13Y 8838   1.932   0.242   5.772  1.4151  0.4076 -0.5331
   90SAPE  C314 8839   1.912   0.110   5.590  0.7478 -0.2206 -0.1824
   90SAPE  H14X 8840   1.905  -0.000   5.584  0.4430 -0.2265  0.2493
   90SAPE  H14Y 8841   2.011   0.133   5.544  0.8775  0.9121  0.6177
   90SAPE  C315 8842   1.796   0.172   5.504  0.3997 -0.1584  0.2043
   90SAPE  H15X 8843   1.690   0.140   5.519  0.4012 -1.6261 -2.2368
   90SAPE  H15Y 8844   1.815   0.152   5.396  1.8689  0.6226  0.3056
   90SAPE  C316 8845   1.813   0.324   5.511 -0.3168  0.0913  0.5965
   90SAPE  H16X 8846   1.912   0.350   5.468 -0.3687 -0.2838  0.2412
   90SAPE  H16Y 8847   1.794   0.355   5.616 -1.5389 -1.0780  0.7586
   90SAPE  C317 8848   1.717   0.404   5.423 -0.0491  0.2702  0.5141
   90SAPE  H17X 8849   1.614   0.373   5.451  0.0752 -0.0272  0.6476
   90SAPE  H17Y 8850   1.730   0.371   5.318  0.1585 -3.9353  1.6719
   90SAPE  C318 8851   1.716   0.555   5.445  0.2990 -0.4464 -0.2475
   90SAPE  H18X 8852   1.821   0.590   5.435  0.4660 -1.3908 -2.9390
   90SAPE  H18Y 8853   1.672   0.591   5.540 -1.9621 -0.0851 -1.3607
   90SAPE  H18Z 8854   1.658   0.603   5.363  2.6118 -1.2261 -2.4963
   91SAPE     N 8855   4.506   2.680   7.374 -0.0666 -0.0533 -0.1662
   91SAPE   HN1 8856   4.523   2.613   7.450  0.9733 -0.7693 -1.0061
   91SAPE   HN2 8857   4.404   2.665   7.357  0.0316  0.9242 -1.9784
   91SAPE   HN3 8858   4.566   2.656   7.293  0.6442 -3.1673  1.1805
   91SAPE   C12 8859   4.540   2.815   7.423  1.1395  0.6014 -0.2531
   91SAPE  H12A 8860   4.633   2.811   7.484 -0.2960 -0.9732  1.9906
   91SAPE  H12B 8861   4.459   2.842   7.494  1.2027 -1.4260  0.6851
   91SAPE   C11 8862   4.568   2.903   7.301 -0.1548  1.1071 -0.4944
   91SAPE  H11A 8863   4.581   3.010   7.327  0.3031  0.5792  1.6839
   91SAPE  H11B 8864   4.476   2.904   7.240 -0.1298  0.5039 -0.5510
   91SAPE     P 8865   4.818   2.853   7.270 -0.3429  0.2498 -0.2267
   91SAPE   O13 8866   4.833   2.923   7.403  0.2120  0.3416  0.6222
   91SAPE   O14 8867   4.874   2.718   7.260 -0.1805  0.5520 -0.4806
   91SAPE   O12 8868   4.670   2.847   7.224  0.0371 -0.3519  0.1265
   91SAPE   O11 8869   4.875   2.947   7.159  0.6681 -0.2263  0.4672
   91SAPE    C1 8870   4.815   3.011   7.051 -0.1323 -0.2278 -0.1952
   91SAPE    HA 8871   4.716   3.054   7.078  1.0935  2.4678  0.2670
   91SAPE    HB 8872   4.876   3.096   7.015  1.0992 -2.5379 -4.2327
   91SAPE    C2 8873   4.816   2.914   6.936  0.0112 -0.1951  0.5313
   91SAPE    HS 8874   4.776   2.969   6.848  2.2409  0.8233  0.0748
   91SAPE   O21 8875   4.740   2.794   6.963  0.0144  0.9385 -0.4988
   91SAPE   C21 8876   4.611   2.808   6.945  0.3993 -0.1116 -0.1169
   91SAPE   O22 8877   4.559   2.918   6.914 -0.1078  0.0548  0.4080
   91SAPE   C22 8878   4.527   2.689   6.981  0.4198  0.1638 -0.2419
   91SAPE   H2R 8879   4.571   2.602   6.927  0.2399  0.7814 -1.3969
   91SAPE   H2S 8880   4.543   2.680   7.091  1.8757 -0.1703 -0.4561
   91SAPE    C3 8881   4.961   2.888   6.907  0.0254 -0.2765  0.0576
   91SAPE    HX 8882   5.009   2.840   6.995  2.9519  1.3657 -0.5195
   91SAPE    HY 8883   5.015   2.984   6.894 -0.1601 -0.2931 -0.9615
   91SAPE   O31 8884   4.972   2.820   6.780 -0.2444  0.6476 -0.7352
   91SAPE   C31 8885   5.098   2.784   6.749  0.0175 -0.0699  0.1094
   91SAPE   O32 8886   5.201   2.825   6.799  0.5910  0.3906  0.5138
   91SAPE   C32 8887   5.105   2.675   6.639  0.3468  0.7255 -0.2659
   91SAPE   H2X 8888   5.094   2.582   6.698  0.4224  2.4453  2.6310
   91SAPE   H2Y 8889   5.208   2.676   6.597  0.9498  1.2647  1.1838
   91SAPE   C23 8890   4.372   2.697   6.958 -0.3289 -0.1059 -0.8006
   91SAPE   H3R 8891   4.343   2.781   7.024  0.2331  0.1753 -0.8973
   91SAPE   H3S 8892   4.329   2.605   7.001  2.2096 -0.5236  1.1270
   91SAPE   C24 8893   4.337   2.718   6.808 -0.1842  0.0239  0.5232
   91SAPE   H4R 8894   4.383   2.809   6.765  0.5441 -1.4451 -2.0244
   91SAPE   H4S 8895   4.229   2.745   6.803 -0.6705 -1.9802 -1.5169
   91SAPE   C25 8896   4.354   2.589   6.738  0.2788 -0.0764  0.2944
   91SAPE   H5R 8897   4.317   2.494   6.781 -1.1175  0.2657 -0.0932
   91SAPE   C26 8898   4.405   2.580   6.615 -0.6530  0.2767  0.0985
   91SAPE   H6R 8899   4.420   2.488   6.557  2.4437  0.4687  0.4481
   91SAPE   C27 8900   4.429   2.707   6.530 -0.1521 -1.0964  0.6310
   91SAPE   H7R 8901   4.431   2.802   6.587  2.0016 -0.6243 -0.1288
   91SAPE   H7S 8902   4.346   2.719   6.457  0.4989  1.3770  0.2102
   91SAPE   C28 8903   4.562   2.703   6.455 -1.3931 -0.8424 -0.4569
   91SAPE   H8R 8904   4.640   2.753   6.515 -1.2106 -2.5281  0.7878
   91SAPE   C29 8905   4.594   2.626   6.352 -0.0391 -1.0414  0.0037
   91SAPE   H9R 8906   4.700   2.611   6.325 -0.2166  2.5575 -3.6330
   91SAPE  C210 8907   4.498   2.535   6.277 -0.1795 -0.3908 -0.6788
   91SAPE  H10R 8908   4.398   2.580   6.292  0.4710  1.4704 -1.5886
   91SAPE  H10S 8909   4.494   2.438   6.331  1.2460 -0.6613 -1.0231
   91SAPE  C211 8910   4.538   2.519   6.127  0.3053  0.6407 -0.9140
   91SAPE  H11R 8911   4.591   2.423   6.112 -0.4969  0.0589 -0.1394
   91SAPE  C212 8912   4.510   2.608   6.026  0.7185  1.0637  0.2629
   91SAPE  H12R 8913   4.548   2.582   5.926 -1.8921 -1.2799 -0.2429
   91SAPE  C213 8914   4.435   2.737   6.047 -0.3794  0.1976 -0.2733
   91SAPE  H13R 8915   4.503   2.824   6.038  0.7119 -0.3495  2.0014
   91SAPE  H13S 8916   4.389   2.732   6.148 -1.9163 -3.8400 -1.0085
   91SAPE  C214 8917   4.319   2.748   5.947  0.2121  0.5468  0.4711
   91SAPE  H14R 8918   4.221   2.729   5.992 -0.1378 -0.9797 -0.8389
   91SAPE  C215 8919   4.319   2.784   5.821  0.3139 -0.1627 -0.0506
   91SAPE  H15R 8920   4.225   2.778   5.765 -0.1923 -0.4988  0.8214
   91SAPE  C216 8921   4.431   2.824   5.735  0.1168 -0.0391  0.2437
   91SAPE  H16R 8922   4.489   2.734   5.704  0.3835  0.9863 -2.5965
   91SAPE  H16S 8923   4.496   2.886   5.800  0.1851 -0.5760  0.6970
   91SAPE  C217 8924   4.402   2.918   5.617 -0.5621  0.6081 -0.0529
   91SAPE  H17R 8925   4.500   2.964   5.592  0.3462 -1.4583 -0.5047
   91SAPE  H17S 8926   4.343   3.002   5.660  0.6374  1.7445 -0.5622
   91SAPE  C218 8927   4.339   2.836   5.503 -0.7581 -0.5794 -0.4268
   91SAPE  H18R 8928   4.234   2.816   5.532 -0.3580 -1.4849  0.4705
   91SAPE  H18S 8929   4.389   2.736   5.496 -0.8442 -0.5620 -1.2928
   91SAPE  C219 8930   4.346   2.900   5.368 -0.5272  0.3071  0.2191
   91SAPE  H19R 8931   4.452   2.921   5.342 -0.6304  0.4648 -0.0802
   91SAPE  H19S 8932   4.286   2.993   5.365  0.1202  0.7766  1.3033
   91SAPE  C220 8933   4.295   2.809   5.261  0.0875  0.5638 -0.4166
   91SAPE  H20R 8934   4.302   2.868   5.167  0.9465 -0.8153 -1.2502
   91SAPE  H20S 8935   4.192   2.771   5.280  0.8153 -1.2628  0.0451
   91SAPE  H20T 8936   4.360   2.721   5.242 -1.0503 -0.7141  1.2618
   91SAPE   C33 8937   5.000   2.711   6.534  0.3760 -0.4366  0.3258
   91SAPE   H3X 8938   5.024   2.815   6.506 -0.4500 -0.4253 -0.3861
   91SAPE   H3Y 8939   4.894   2.706   6.567  0.0799  0.4534 -0.4481
   91SAPE   C34 8940   5.028   2.632   6.411 -0.3317  1.0100 -0.1382
   91SAPE   H4X 8941   4.932   2.624   6.357 -1.8218 -1.6044  2.6280
   91SAPE   H4Y 8942   5.050   2.525   6.429 -0.3013  1.0352 -0.0220
   91SAPE   C35 8943   5.137   2.697   6.321  0.0889 -0.2594  0.6908
   91SAPE   H5X 8944   5.241   2.681   6.359  1.0204  0.1941 -1.5224
   91SAPE   H5Y 8945   5.124   2.807   6.327  2.5628  0.1917 -0.8733
   91SAPE   C36 8946   5.130   2.671   6.168 -0.3376  0.1780  0.5400
   91SAPE   H6X 8947   5.149   2.563   6.153  1.7057  0.5702  0.0537
   91SAPE   H6Y 8948   5.212   2.718   6.111 -0.1284  0.2404  0.8902
   91SAPE   C37 8949   4.992   2.705   6.109  0.1215  1.1465 -0.5407
   91SAPE   H7X 8950   4.980   2.814   6.124 -0.3408  1.4788 -2.9939
   91SAPE   H7Y 8951   4.908   2.644   6.149  0.7849 -0.1813 -1.0935
   91SAPE   C38 8952   4.989   2.679   5.954 -0.2220  0.6064  0.0708
   91SAPE   H8X 8953   5.022   2.573   5.953 -0.6639  0.4594  0.7946
   91SAPE   H8Y 8954   5.057   2.751   5.902 -0.6900  0.2114 -1.1385
   91SAPE   C39 8955   4.853   2.688   5.880 -0.0569 -0.0103  0.7351
   91SAPE   H9X 8956   4.807   2.787   5.900  0.2739 -0.0933  2.0544
   91SAPE   H9Y 8957   4.792   2.605   5.922  2.1116 -2.2888 -0.3557
   91SAPE  C310 8958   4.874   2.655   5.732 -0.0149  0.2558  0.0928
   91SAPE  H10X 8959   4.915   2.552   5.727 -0.0088  0.3195 -2.3313
   91SAPE  H10Y 8960   4.951   2.724   5.689 -0.1782 -0.4700 -1.4061
   91SAPE  C311 8961   4.748   2.667   5.647 -0.0804 -0.0694 -0.2658
   91SAPE  H11X 8962   4.708   2.770   5.658  1.3343  0.8011 -2.4367
   91SAPE  H11Y 8963   4.681   2.583   5.673  2.4389 -1.4637  2.3963
   91SAPE  C312 8964   4.794   2.649   5.498  0.0003  0.6136 -0.0425
   91SAPE  H12X 8965   4.705   2.631   5.435 -0.3462  0.4541  0.4866
   91SAPE  H12Y 8966   4.858   2.559   5.495  1.8799  1.9192 -1.3806
   91SAPE  C313 8967   4.878   2.764   5.441 -0.2862 -0.3799  0.0821
   91SAPE  H13X 8968   4.969   2.785   5.502 -0.8357  0.2791  0.6927
   91SAPE  H13Y 8969   4.824   2.860   5.457 -1.1535 -1.1983  2.4799
   91SAPE  C314 8970   4.908   2.747   5.287  0.0731  0.0861 -0.2339
   91SAPE  H14X 8971   4.815   2.758   5.228  0.7755 -0.3297 -1.4660
   91SAPE  H14Y 8972   4.961   2.652   5.261  0.6487 -0.4293  2.4955
   91SAPE  C315 8973   4.994   2.863   5.232 -0.1057  0.2140  0.0277
   91SAPE  H15X 8974   4.941   2.958   5.250 -0.6484  0.2250 -1.4753
   91SAPE  H15Y 8975   5.012   2.848   5.123 -0.8709  1.2711 -0.2499
   91SAPE  C316 8976   5.131   2.877   5.300 -0.4237 -0.0460 -0.5456
   91SAPE  H16X 8977   5.183   2.779   5.294  0.1525  0.2254 -0.1522
   91SAPE  H16Y 8978   5.119   2.910   5.405  0.5614  0.2235 -0.5003
   91SAPE  C317 8979   5.227   2.980   5.238  0.9385 -0.4163  0.7578
   91SAPE  H17X 8980   5.216   2.963   5.129 -2.0154  1.3315  0.6978
   91SAPE  H17Y 8981   5.334   2.965   5.263  0.7714 -2.8298  0.3117
   91SAPE  C318 8982   5.189   3.130   5.276  0.9426 -0.6572  0.1468
   91SAPE  H18X 8983   5.270   3.199   5.245 -0.7473  2.1623  1.5052
   91SAPE  H18Y 8984   5.202   3.143   5.386 -0.1316  3.9254 -0.0483
   91SAPE  H18Z 8985   5.100   3.173   5.226  0.7530  3.4331  3.3952
   92SAPE     N 8986   5.537   3.080   7.656  0.2814  0.3529 -0.4107
   92SAPE   HN1 8987   5.548   3.125   7.564 -0.2493 -1.5731 -1.4778
   92SAPE   HN2 8988   5.434   3.063   7.650  0.1877  1.1842 -1.3117
   92SAPE   HN3 8989   5.559   3.148   7.731  0.9528 -1.9855  1.6580
   92SAPE   C12 8990   5.621   2.953   7.661  0.8710  0.0427  0.1799
   92SAPE  H12A 8991   5.615   2.914   7.765  1.2892  1.1099  0.6106
   92SAPE  H12B 8992   5.729   2.965   7.635  0.9754 -4.2493 -2.4190
   92SAPE   C11 8993   5.553   2.853   7.557  0.1753 -0.3104 -0.0492
   92SAPE  H11A 8994   5.620   2.764   7.550 -3.0254 -3.0079  0.8742
   92SAPE  H11B 8995   5.547   2.895   7.454 -0.5280 -1.1457 -0.3600
   92SAPE     P 8996   5.290   2.856   7.559 -0.1657  0.0757 -0.0183
   92SAPE   O13 8997   5.181   2.775   7.624  0.6898  0.1284 -0.3010
   92SAPE   O14 8998   5.276   3.000   7.571  0.1305  0.1704 -0.5546
   92SAPE   O12 8999   5.428   2.803   7.610 -0.1370 -0.7321  0.1015
   92SAPE   O11 9000   5.281   2.832   7.406 -0.0347  0.4190 -0.1183
   92SAPE    C1 9001   5.237   2.706   7.360  0.1104  0.6381  0.3017
   92SAPE    HA 9002   5.135   2.686   7.398  0.7208  0.1616  1.7803
   92SAPE    HB 9003   5.227   2.706   7.249  0.0927  0.0749  0.2968
   92SAPE    C2 9004   5.334   2.588   7.403  0.0747 -0.5817  0.3410
   92SAPE    HS 9005   5.347   2.579   7.513  1.0146  0.6777  0.3620
   92SAPE   O21 9006   5.461   2.616   7.344 -0.2430 -0.1968 -0.0273
   92SAPE   C21 9007   5.566   2.549   7.376 -0.2230 -0.4312 -0.3188
   92SAPE   O22 9008   5.576   2.458   7.458  0.0045  0.7096  0.1518
   92SAPE   C22 9009   5.680   2.613   7.300 -0.0047  0.1587  0.2446
   92SAPE   H2R 9010   5.652   2.718   7.279 -0.3061  0.0103 -0.1098
   92SAPE   H2S 9011   5.759   2.629   7.376 -1.3428  0.1034  1.6962
   92SAPE    C3 9012   5.280   2.451   7.350 -0.1658  0.3878 -0.3904
   92SAPE    HX 9013   5.175   2.441   7.385  0.3974 -3.4781  0.6180
   92SAPE    HY 9014   5.339   2.372   7.402  0.3163  1.0811  0.1432
   92SAPE   O31 9015   5.279   2.456   7.202  0.4572  0.0138 -0.1671
   92SAPE   C31 9016   5.303   2.336   7.156  0.0855  0.1455  0.1596
   92SAPE   O32 9017   5.322   2.234   7.217  0.0605  0.2251  0.3946
   92SAPE   C32 9018   5.305   2.342   6.998 -0.4261  0.1765 -0.2410
   92SAPE   H2X 9019   5.408   2.313   6.968 -0.1013 -0.3824  1.3098
   92SAPE   H2Y 9020   5.288   2.449   6.976  3.1634  0.5805 -1.7508
   92SAPE   C23 9021   5.741   2.536   7.174 -0.4271  0.4985 -0.5867
   92SAPE   H3R 9022   5.782   2.437   7.201  0.5424  0.8567 -0.7197
   92SAPE   H3S 9023   5.830   2.588   7.133 -0.3128  0.5006 -0.3364
   92SAPE   C24 9024   5.641   2.548   7.063  0.1546 -0.4723  0.4443
   92SAPE   H4R 9025   5.614   2.654   7.043  4.2570  0.6023 -0.3826
   92SAPE   H4S 9026   5.545   2.496   7.082 -0.9275  1.0064 -0.7115
   92SAPE   C25 9027   5.699   2.497   6.929  0.0832 -0.1903  0.0824
   92SAPE   H5R 9028   5.791   2.439   6.941  0.2096 -0.9912 -3.5523
   92SAPE   C26 9029   5.673   2.532   6.799 -0.2556 -0.0667 -0.4642
   92SAPE   H6R 9030   5.726   2.488   6.713  1.7294  2.1238 -0.4761
   92SAPE   C27 9031   5.576   2.638   6.747  0.1202  0.2339  0.4500
   92SAPE   H7R 9032   5.632   2.711   6.685 -1.0956  0.0987 -0.8373
   92SAPE   H7S 9033   5.530   2.695   6.831 -1.1098 -0.7118  0.4493
   92SAPE   C28 9034   5.474   2.563   6.664  0.2859 -0.3422 -0.1906
   92SAPE   H8R 9035   5.399   2.520   6.731  0.0195  1.5574  0.8090
   92SAPE   C29 9036   5.470   2.520   6.533  0.3438  0.4918  0.5022
   92SAPE   H9R 9037   5.380   2.474   6.489 -0.3501  1.7389  0.5681
   92SAPE  C210 9038   5.570   2.549   6.420  0.5350 -0.6293  0.0921
   92SAPE  H10R 9039   5.616   2.461   6.371 -0.1926 -0.9541 -0.0073
   92SAPE  H10S 9040   5.658   2.603   6.462  0.6625  0.1873 -1.1650
   92SAPE  C211 9041   5.501   2.649   6.327  0.2040  0.6772 -0.1229
   92SAPE  H11R 9042   5.471   2.746   6.371  2.0895  0.3222  2.1584
   92SAPE  C212 9043   5.478   2.635   6.198  0.0924 -0.8378 -0.0168
   92SAPE  H12R 9044   5.424   2.716   6.147 -0.1684 -1.1704 -0.2715
   92SAPE  C213 9045   5.518   2.515   6.111 -0.0254 -0.5635 -0.6985
   92SAPE  H13R 9046   5.424   2.462   6.083  0.3157 -1.6975  0.2299
   92SAPE  H13S 9047   5.587   2.444   6.162  2.1976 -0.3105 -3.1407
   92SAPE  C214 9048   5.611   2.576   6.006  0.3868 -0.6409 -0.6778
   92SAPE  H14R 9049   5.694   2.636   6.047 -1.0966 -0.1013  1.7590
   92SAPE  C215 9050   5.606   2.545   5.876 -0.0001 -0.7645  0.2398
   92SAPE  H15R 9051   5.682   2.581   5.806 -0.1008 -0.3479  0.3434
   92SAPE  C216 9052   5.500   2.457   5.811 -1.3815  0.6772 -0.3732
   92SAPE  H16R 9053   5.472   2.377   5.882 -0.9922  1.3558  0.5650
   92SAPE  H16S 9054   5.542   2.404   5.722 -0.9981  0.0817  0.1505
   92SAPE  C217 9055   5.385   2.533   5.763 -0.3988  1.1627 -0.2352
   92SAPE  H17R 9056   5.412   2.630   5.717 -0.2006  1.4378  0.4539
   92SAPE  H17S 9057   5.328   2.570   5.851  0.2342  1.2114  0.1616
   92SAPE  C218 9058   5.305   2.454   5.654  1.4375 -0.3072  1.0384
   92SAPE  H18R 9059   5.206   2.503   5.639  0.5369 -1.7411  2.0285
   92SAPE  H18S 9060   5.271   2.351   5.680 -2.1918  0.3559 -0.5018
   92SAPE  C219 9061   5.369   2.460   5.512 -0.2786 -0.3255  0.7767
   92SAPE  H19R 9062   5.459   2.395   5.508  0.1693  0.2651  0.9702
   92SAPE  H19S 9063   5.408   2.562   5.490 -1.0793  0.0601  1.1229
   92SAPE  C220 9064   5.285   2.420   5.395 -0.0160 -0.4239  0.8003
   92SAPE  H20R 9065   5.248   2.315   5.400  0.5523 -0.7382 -0.8928
   92SAPE  H20S 9066   5.343   2.421   5.300  1.7555 -0.2641  1.8480
   92SAPE  H20T 9067   5.200   2.490   5.381  0.2366 -0.0809  0.9742
   92SAPE   C33 9068   5.194   2.254   6.933  0.0512  0.0252  0.4711
   92SAPE   H3X 9069   5.092   2.281   6.968 -0.6452 -0.4350 -1.0803
   92SAPE   H3Y 9070   5.197   2.148   6.968 -0.7447  0.8897  3.4854
   92SAPE   C34 9071   5.202   2.256   6.782 -0.1719  0.2802 -0.2287
   92SAPE   H4X 9072   5.307   2.261   6.744 -0.4278  2.5351 -0.7900
   92SAPE   H4Y 9073   5.144   2.341   6.741 -3.5642 -1.8642 -0.2860
   92SAPE   C35 9074   5.132   2.133   6.726 -0.8577 -0.2010 -0.4943
   92SAPE   H5X 9075   5.032   2.117   6.771 -0.5671 -1.6538 -0.2984
   92SAPE   H5Y 9076   5.197   2.046   6.753  2.6133  1.9812 -1.1528
   92SAPE   C36 9077   5.107   2.133   6.572 -0.1156  0.3938 -0.0599
   92SAPE   H6X 9078   5.042   2.220   6.551 -1.7925 -0.5012  1.1428
   92SAPE   H6Y 9079   5.048   2.042   6.544  0.0894  0.4305 -0.6202
   92SAPE   C37 9080   5.233   2.142   6.481 -0.2086  0.0049 -0.6398
   92SAPE   H7X 9081   5.302   2.061   6.513  0.4585  0.1402 -1.6932
   92SAPE   H7Y 9082   5.288   2.235   6.507  0.4287 -0.4367 -0.3556
   92SAPE   C38 9083   5.211   2.121   6.331  0.2360  0.6545  0.4463
   92SAPE   H8X 9084   5.143   2.199   6.291  0.1722 -0.2867 -1.3969
   92SAPE   H8Y 9085   5.149   2.029   6.331 -0.2590  0.9891  0.4287
   92SAPE   C39 9086   5.347   2.118   6.259 -0.8755  0.2075 -0.1994
   92SAPE   H9X 9087   5.415   2.041   6.301 -0.8035  0.3007 -0.1469
   92SAPE   H9Y 9088   5.399   2.215   6.270  0.4252 -0.6061  1.1413
   92SAPE  C310 9089   5.336   2.088   6.108 -0.1093 -0.0710 -0.2629
   92SAPE  H10X 9090   5.268   2.158   6.055  1.0349  0.3990 -1.1439
   92SAPE  H10Y 9091   5.303   1.983   6.097 -0.1041  0.0267 -1.3797
   92SAPE  C311 9092   5.476   2.086   6.044 -0.3288 -0.4534 -0.3882
   92SAPE  H11X 9093   5.540   2.026   6.111 -1.1764 -0.1585  0.7036
   92SAPE  H11Y 9094   5.507   2.193   6.048  1.1106 -0.8849  0.8544
   92SAPE  C312 9095   5.497   2.037   5.902 -0.2303  0.3553 -0.1643
   92SAPE  H12X 9096   5.429   2.088   5.831  1.6072  0.9949 -1.5520
   92SAPE  H12Y 9097   5.480   1.928   5.887 -2.7005  0.7931 -1.0406
   92SAPE  C313 9098   5.638   2.068   5.835  0.4244 -0.0506  0.6669
   92SAPE  H13X 9099   5.711   2.040   5.914 -0.3686 -0.9856  1.0883
   92SAPE  H13Y 9100   5.633   2.177   5.813  3.1174  0.2287  1.1416
   92SAPE  C314 9101   5.654   2.001   5.697  0.4000  0.0266  0.0687
   92SAPE  H14X 9102   5.578   2.018   5.618 -0.5067  2.2126  1.3147
   92SAPE  H14Y 9103   5.657   1.894   5.725 -0.0898  0.3697  1.4940
   92SAPE  C315 9104   5.788   2.020   5.628  0.3688 -0.3423 -0.5023
   92SAPE  H15X 9105   5.784   1.957   5.536 -1.7267 -1.3360  0.2146
   92SAPE  H15Y 9106   5.865   1.976   5.695 -0.4221 -1.1399 -0.1010
   92SAPE  C316 9107   5.814   2.171   5.604  0.5098  0.5573 -0.3469
   92SAPE  H16X 9108   5.814   2.219   5.705  2.8145  0.5242 -0.2892
   92SAPE  H16Y 9109   5.733   2.218   5.545 -0.7396 -0.6911  0.3164
   92SAPE  C317 9110   5.942   2.190   5.526 -0.1673  0.9309 -0.8504
   92SAPE  H17X 9111   6.019   2.123   5.569 -0.7712  1.2266  0.7602
   92SAPE  H17Y 9112   5.969   2.296   5.545  0.9139  0.6694 -0.8703
   92SAPE  C318 9113   5.924   2.155   5.380  0.8938  0.0384  0.5187
   92SAPE  H18X 9114   6.014   2.110   5.333 -0.5076 -3.0817  0.5271
   92SAPE  H18Y 9115   5.891   2.244   5.323  1.5705 -1.9898 -3.4086
   92SAPE  H18Z 9116   5.842   2.080   5.371  0.2316  0.8681 -0.5258
   93SAPE     N 9117   0.389   0.743   7.668 -0.2206  0.6633 -0.0506
   93SAPE   HN1 9118   0.404   0.651   7.714 -1.4149  0.9935  1.0551
   93SAPE   HN2 9119   0.299   0.785   7.700  1.1648  2.1561  2.1352
   93SAPE   HN3 9120   0.385   0.731   7.564  0.5006 -0.2933  0.0201
   93SAPE   C12 9121   0.506   0.834   7.685  0.6351 -0.9477  0.0986
   93SAPE  H12A 9122   0.507   0.859   7.793  2.7022 -1.6055  0.2774
   93SAPE  H12B 9123   0.481   0.933   7.639 -0.4094  0.5943  3.6735
   93SAPE   C11 9124   0.643   0.761   7.652  1.0450 -0.4220 -0.0755
   93SAPE  H11A 9125   0.722   0.829   7.690  0.7817  1.0148 -1.9363
   93SAPE  H11B 9126   0.667   0.768   7.544  2.3978  0.2980  0.2509
   93SAPE     P 9127   0.779   0.554   7.663  0.2907 -0.5158 -0.3069
   93SAPE   O13 9128   0.898   0.636   7.704  0.0192  0.5444 -0.9584
   93SAPE   O14 9129   0.785   0.412   7.695  0.1069 -0.0877 -0.0450
   93SAPE   O12 9130   0.652   0.628   7.715  0.3723 -0.2914 -0.0903
   93SAPE   O11 9131   0.777   0.570   7.508  0.0285 -0.2403 -0.1328
   93SAPE    C1 9132   0.666   0.516   7.431 -0.1187  0.0699 -0.4389
   93SAPE    HA 9133   0.659   0.407   7.451 -0.5428  0.0300 -0.7688
   93SAPE    HB 9134   0.575   0.567   7.469  1.7117  1.5989  2.1632
   93SAPE    C2 9135   0.685   0.512   7.281 -0.1651 -0.4850 -0.2414
   93SAPE    HS 9136   0.606   0.457   7.226  1.0525 -2.8509  0.2209
   93SAPE   O21 9137   0.817   0.458   7.250 -0.1606  0.3135  0.4782
   93SAPE   C21 9138   0.815   0.328   7.227  0.2483 -0.4374 -0.1815
   93SAPE   O22 9139   0.720   0.254   7.255  0.3580  0.0325 -0.1493
   93SAPE   C22 9140   0.952   0.286   7.162  0.4896 -0.3542 -0.2135
   93SAPE   H2R 9141   0.991   0.379   7.114 -1.2919  0.3279 -0.4003
   93SAPE   H2S 9142   1.018   0.256   7.246 -0.8419 -0.0484  0.9727
   93SAPE    C3 9143   0.680   0.644   7.211  0.1341 -0.0933  0.8285
   93SAPE    HX 9144   0.780   0.690   7.216 -0.3012  0.7395  2.7204
   93SAPE    HY 9145   0.612   0.719   7.258 -0.1686 -1.0694  2.0137
   93SAPE   O31 9146   0.627   0.632   7.073 -0.5941 -0.2336 -0.8836
   93SAPE   C31 9147   0.709   0.600   6.975  0.3714 -0.5141 -0.0064
   93SAPE   O32 9148   0.830   0.603   6.985  0.1705  0.4036  0.0967
   93SAPE   C32 9149   0.628   0.608   6.846  0.1237 -0.2415  0.2284
   93SAPE   H2X 9150   0.622   0.717   6.826  1.9731  0.0608  1.1116
   93SAPE   H2Y 9151   0.524   0.573   6.862  0.4061 -1.4249 -0.4704
   93SAPE   C23 9152   0.936   0.176   7.057 -0.2134 -0.6487 -0.0315
   93SAPE   H3R 9153   0.888   0.083   7.096  1.5898 -1.9484 -0.7525
   93SAPE   H3S 9154   1.042   0.153   7.034  0.7850  1.1513  2.3901
   93SAPE   C24 9155   0.862   0.233   6.937  0.3592 -0.1173 -0.0898
   93SAPE   H4R 9156   0.929   0.313   6.898 -1.3651  0.6751 -1.5763
   93SAPE   H4S 9157   0.763   0.276   6.964 -0.0985 -1.7512  0.9586
   93SAPE   C25 9158   0.826   0.120   6.847 -0.6295 -0.0877  0.4223
   93SAPE   H5R 9159   0.765   0.038   6.887 -2.5793  0.8788 -0.4381
   93SAPE   C26 9160   0.849   0.109   6.713  0.5379 -0.2529 -0.1535
   93SAPE   H6R 9161   0.807   0.018   6.667 -1.4831  0.6135 -0.1574
   93SAPE   C27 9162   0.918   0.201   6.623  0.4316  0.6957 -0.0500
   93SAPE   H7R 9163   0.961   0.280   6.689  0.9069  1.0281 -0.7387
   93SAPE   H7S 9164   0.839   0.248   6.559  1.4527  1.5395 -0.7255
   93SAPE   C28 9165   1.025   0.131   6.536  0.6309 -0.3427  0.5680
   93SAPE   H8R 9166   1.115   0.111   6.596 -0.2948 -0.1767  2.0645
   93SAPE   C29 9167   1.016   0.100   6.403  0.4216  0.3533  0.2909
   93SAPE   H9R 9168   1.103   0.050   6.357  0.6478 -0.4979  1.6005
   93SAPE  C210 9169   0.912   0.146   6.305 -0.1598  0.7051 -0.8459
   93SAPE  H10R 9170   0.959   0.222   6.239 -1.8718 -0.4302 -3.5412
   93SAPE  H10S 9171   0.822   0.184   6.357  0.8537 -0.9898  2.4131
   93SAPE  C211 9172   0.865   0.030   6.221  0.5327 -1.0166 -0.6172
   93SAPE  H11R 9173   0.861  -0.065   6.277 -0.5471 -0.9564 -0.5746
   93SAPE  C212 9174   0.833   0.024   6.087 -0.4489 -0.3464 -0.7494
   93SAPE  H12R 9175   0.799  -0.075   6.053  3.4751 -1.3344 -2.3460
   93SAPE  C213 9176   0.830   0.128   5.980 -0.0410 -0.1010  0.3350
   93SAPE  H13R 9177   0.927   0.156   5.934 -0.2328  0.8750  0.5064
   93SAPE  H13S 9178   0.794   0.220   6.030 -0.1880 -1.0629  2.0615
   93SAPE  C214 9179   0.727   0.096   5.874  0.0900 -0.5965  0.3335
   93SAPE  H14R 9180   0.626   0.113   5.913  0.8739  2.5421  1.3270
   93SAPE  C215 9181   0.758   0.039   5.754  0.6855 -0.2229  0.5523
   93SAPE  H15R 9182   0.677   0.028   5.681 -0.2510 -0.4242  1.5992
   93SAPE  C216 9183   0.893  -0.018   5.707 -0.4709 -0.6006 -0.2699
   93SAPE  H16R 9184   0.880  -0.120   5.666 -0.0021 -1.4095  1.4569
   93SAPE  H16S 9185   0.954  -0.045   5.796  0.8398 -0.9734 -1.2459
   93SAPE  C217 9186   0.977   0.062   5.601 -0.8691  0.1611 -0.4507
   93SAPE  H17R 9187   1.074   0.010   5.588 -1.4763 -0.9339 -0.6767
   93SAPE  H17S 9188   0.995   0.159   5.653 -1.1457 -0.6007  1.1250
   93SAPE  C218 9189   0.913   0.087   5.462 -0.2201 -0.5719 -0.0492
   93SAPE  H18R 9190   0.823   0.145   5.492 -0.5847 -1.1174 -0.0710
   93SAPE  H18S 9191   0.888  -0.012   5.420 -0.6291 -0.9742  1.1088
   93SAPE  C219 9192   0.993   0.178   5.373  1.3464  0.0522  0.1964
   93SAPE  H19R 9193   1.083   0.119   5.343  0.6609 -1.1253  0.3784
   93SAPE  H19S 9194   1.017   0.275   5.422 -0.5616  1.7846 -2.0728
   93SAPE  C220 9195   0.911   0.200   5.249  0.1714 -0.4616 -0.0304
   93SAPE  H20R 9196   0.881   0.103   5.203 -0.4960 -1.1261  1.6899
   93SAPE  H20S 9197   0.974   0.244   5.169  1.3529  0.3521  1.2908
   93SAPE  H20T 9198   0.810   0.242   5.267  0.1879 -0.5853  0.3645
   93SAPE   C33 9199   0.692   0.539   6.721  0.0868  0.5125 -0.0802
   93SAPE   H3X 9200   0.732   0.440   6.749 -0.2232  0.6618  0.9787
   93SAPE   H3Y 9201   0.785   0.595   6.700 -0.3297  1.4122  0.4008
   93SAPE   C34 9202   0.609   0.546   6.596  0.6652  0.2164  0.6955
   93SAPE   H4X 9203   0.577   0.650   6.575 -0.7120 -0.1047  1.1256
   93SAPE   H4Y 9204   0.513   0.493   6.614 -0.3194  1.7071  0.0353
   93SAPE   C35 9205   0.677   0.502   6.465 -0.2779  0.8815  0.5433
   93SAPE   H5X 9206   0.701   0.394   6.460 -3.7384 -0.0075  0.3927
   93SAPE   H5Y 9207   0.774   0.556   6.456 -1.1443  2.4042 -0.0575
   93SAPE   C36 9208   0.605   0.542   6.331 -0.1536  0.3736 -0.8492
   93SAPE   H6X 9209   0.579   0.649   6.345  0.4449  0.6211 -1.5986
   93SAPE   H6Y 9210   0.510   0.484   6.323 -0.6687  0.9385  0.7277
   93SAPE   C37 9211   0.683   0.518   6.200  0.6055  0.5296  0.3125
   93SAPE   H7X 9212   0.689   0.412   6.168 -0.5994  0.1993  1.1044
   93SAPE   H7Y 9213   0.791   0.540   6.218  0.3488  1.2920  0.9920
   93SAPE   C38 9214   0.614   0.606   6.092 -0.2558  1.1130  0.0179
   93SAPE   H8X 9215   0.645   0.712   6.102 -1.0836  1.3273  0.4667
   93SAPE   H8Y 9216   0.506   0.589   6.113 -0.3333 -0.8122 -1.7059
   93SAPE   C39 9217   0.643   0.564   5.947 -0.4875  0.2609  0.2755
   93SAPE   H9X 9218   0.641   0.453   5.944 -2.3042  0.0254  3.8401
   93SAPE   H9Y 9219   0.738   0.612   5.915  0.5156 -1.5884  0.3713
   93SAPE  C310 9220   0.532   0.606   5.843 -0.3122 -1.1694  0.2047
   93SAPE  H10X 9221   0.547   0.715   5.833 -1.2988 -1.0851 -0.5494
   93SAPE  H10Y 9222   0.431   0.594   5.890 -1.1948  0.7191 -1.0980
   93SAPE  C311 9223   0.531   0.538   5.700 -0.9009 -0.3594 -0.6661
   93SAPE  H11X 9224   0.455   0.590   5.638 -0.2630  2.7538  0.9567
   93SAPE  H11Y 9225   0.526   0.427   5.700  0.5656 -0.7222 -6.0891
   93SAPE  C312 9226   0.668   0.572   5.637 -0.7624  1.1665  0.3409
   93SAPE  H12X 9227   0.750   0.513   5.683 -0.0612  0.6663 -1.4962
   93SAPE  H12Y 9228   0.688   0.680   5.649  1.7382  0.8380 -0.3827
   93SAPE  C313 9229   0.663   0.541   5.487 -0.1859 -0.6631 -0.6988
   93SAPE  H13X 9230   0.574   0.592   5.447 -1.8136 -1.7730  1.3168
   93SAPE  H13Y 9231   0.639   0.433   5.480 -0.4705 -0.8345  1.8664
   93SAPE  C314 9232   0.793   0.566   5.415  0.8592 -0.2199  0.7353
   93SAPE  H14X 9233   0.870   0.492   5.446  2.1626  0.4736 -0.7091
   93SAPE  H14Y 9234   0.836   0.665   5.442  0.4540  0.5794 -1.3507
   93SAPE  C315 9235   0.796   0.565   5.256 -0.6085  0.2276  0.0940
   93SAPE  H15X 9236   0.741   0.478   5.215  2.4803 -2.4390  1.1882
   93SAPE  H15Y 9237   0.902   0.539   5.235 -0.7738 -1.5064  1.2047
   93SAPE  C316 9238   0.755   0.701   5.197 -0.6919  0.5683  0.4715
   93SAPE  H16X 9239   0.812   0.784   5.244  2.4126 -1.1903  0.0609
   93SAPE  H16Y 9240   0.650   0.732   5.216 -1.4330 -2.3938  1.7372
   93SAPE  C317 9241   0.793   0.714   5.047  0.1928 -0.8135  0.0004
   93SAPE  H17X 9242   0.753   0.624   4.996 -0.0095 -1.2330  0.8831
   93SAPE  H17Y 9243   0.904   0.720   5.044  0.1367  0.6400 -0.3133
   93SAPE  C318 9244   0.728   0.835   4.982 -0.6227 -0.5393  0.1470
   93SAPE  H18X 9245   0.623   0.839   5.018 -0.0044 -0.0430  2.0092
   93SAPE  H18Y 9246   0.738   0.836   4.871 -4.4838 -0.8101 -0.3530
   93SAPE  H18Z 9247   0.791   0.919   5.019 -0.9763 -0.1362 -0.1554
   94SAPE     N 9248   0.731   3.372   8.009  0.5490  0.8817 -0.1068
   94SAPE   HN1 9249   0.752   3.343   8.106  0.2953  0.3858 -0.1954
   94SAPE   HN2 9250   0.633   3.339   7.994  1.7827 -2.6026 -1.6550
   94SAPE   HN3 9251   0.786   3.309   7.947 -0.8221 -1.4244  0.8800
   94SAPE   C12 9252   0.768   3.514   7.982  0.6068  0.5757  0.2325
   94SAPE  H12A 9253   0.842   3.545   8.060  1.3209  1.4868 -0.7729
   94SAPE  H12B 9254   0.674   3.571   7.998 -1.9519 -3.4975  1.1252
   94SAPE   C11 9255   0.833   3.525   7.842 -0.7117  0.4688 -0.4993
   94SAPE  H11A 9256   0.883   3.624   7.828  1.2264 -0.0066  2.2522
   94SAPE  H11B 9257   0.756   3.515   7.763  0.6892  2.0315 -2.1658
   94SAPE     P 9258   1.010   3.404   7.703  0.3338 -0.2166 -0.5409
   94SAPE   O13 9259   1.083   3.527   7.663 -0.0128  0.3698 -0.2333
   94SAPE   O14 9260   1.082   3.274   7.711  1.1778  0.2104  0.6459
   94SAPE   O12 9261   0.938   3.430   7.839 -0.5270  0.1764 -0.3766
   94SAPE   O11 9262   0.883   3.386   7.604  0.4346 -0.1482 -0.3356
   94SAPE    C1 9263   0.814   3.259   7.587  0.6666 -0.6146  0.5198
   94SAPE    HA 9264   0.884   3.176   7.610  0.0346 -0.6684  2.3960
   94SAPE    HB 9265   0.717   3.250   7.641 -0.0358 -0.5860 -0.6772
   94SAPE    C2 9266   0.769   3.234   7.437 -0.9522  0.3326 -0.1401
   94SAPE    HS 9267   0.735   3.128   7.431 -2.1105  0.7822 -1.8796
   94SAPE   O21 9268   0.888   3.252   7.354  0.5263 -0.2514  0.5143
   94SAPE   C21 9269   0.968   3.147   7.350  0.0217 -0.2457  0.5986
   94SAPE   O22 9270   0.961   3.046   7.416  0.0712  0.2720  0.1766
   94SAPE   C22 9271   1.080   3.169   7.255 -0.6175 -0.7963  0.7388
   94SAPE   H2R 9272   1.119   3.271   7.274  1.4317 -1.4050  0.1392
   94SAPE   H2S 9273   1.166   3.107   7.289  0.1237  1.1105  2.5440
   94SAPE    C3 9274   0.661   3.330   7.392 -0.2329 -0.2302  0.6434
   94SAPE    HX 9275   0.670   3.425   7.449  1.6430  1.0613 -1.6150
   94SAPE    HY 9276   0.560   3.291   7.416 -0.0568 -1.3926 -0.4410
   94SAPE   O31 9277   0.669   3.353   7.250  0.0122  0.1099 -0.2512
   94SAPE   C31 9278   0.629   3.260   7.167  0.2439  0.1830 -0.4026
   94SAPE   O32 9279   0.570   3.159   7.190  0.0480 -0.4900 -0.4003
   94SAPE   C32 9280   0.672   3.307   7.029 -0.1100  0.0464 -0.1202
   94SAPE   H2X 9281   0.783   3.312   7.035 -0.1436 -0.0727  0.6852
   94SAPE   H2Y 9282   0.638   3.411   7.015  0.5764  0.5633  1.7450
   94SAPE   C23 9283   1.038   3.104   7.117 -0.0056 -0.0193 -0.4831
   94SAPE   H3R 9284   0.939   3.141   7.083  0.2770 -1.2045 -2.8008
   94SAPE   H3S 9285   1.020   2.995   7.126 -0.7317  0.0494 -1.0514
   94SAPE   C24 9286   1.127   3.134   6.994  0.6831 -0.5039 -1.0151
   94SAPE   H4R 9287   1.066   3.131   6.901 -1.1137 -3.8238  0.1056
   94SAPE   H4S 9288   1.201   3.051   6.986  1.5557  0.4012 -2.8355
   94SAPE   C25 9289   1.207   3.262   7.004 -0.6366 -0.0104  0.0282
   94SAPE   H5R 9290   1.255   3.279   7.102  0.1077  0.3734 -0.3939
   94SAPE   C26 9291   1.210   3.361   6.912 -0.5349  0.4917 -0.6579
   94SAPE   H6R 9292   1.281   3.445   6.919 -0.3858  0.2285  2.2508
   94SAPE   C27 9293   1.143   3.356   6.779  0.9695 -0.7658 -0.6828
   94SAPE   H7R 9294   1.097   3.450   6.744 -0.7668 -1.0927  0.6225
   94SAPE   H7S 9295   1.058   3.286   6.771 -0.2021  0.6359 -0.8248
   94SAPE   C28 9296   1.253   3.327   6.677 -0.3383 -1.2941  0.1995
   94SAPE   H8R 9297   1.338   3.396   6.690 -0.6148 -0.8934 -0.0958
   94SAPE   C29 9298   1.260   3.224   6.592 -0.3959  0.1258 -0.4483
   94SAPE   H9R 9299   1.351   3.221   6.530 -0.4528  0.3692 -0.5416
   94SAPE  C210 9300   1.150   3.121   6.566 -0.2644 -1.0583 -0.0478
   94SAPE  H10R 9301   1.050   3.164   6.585 -1.3234 -2.6857 -1.5595
   94SAPE  H10S 9302   1.158   3.034   6.635  0.9115 -1.7381 -1.0147
   94SAPE  C211 9303   1.147   3.067   6.424  0.5309 -0.2534 -0.5334
   94SAPE  H11R 9304   1.219   2.988   6.396  0.6992 -0.9647  1.7540
   94SAPE  C212 9305   1.076   3.118   6.321 -0.8685  0.4588  0.1021
   94SAPE  H12R 9306   1.062   3.061   6.228 -1.7947 -3.1571  2.2436
   94SAPE  C213 9307   0.991   3.245   6.309  0.5141  0.3012 -0.0700
   94SAPE  H13R 9308   0.952   3.271   6.410 -2.7440 -1.0616 -0.8526
   94SAPE  H13S 9309   0.903   3.218   6.247 -1.1019 -1.3822  2.7591
   94SAPE  C214 9310   1.057   3.370   6.268 -0.1037 -0.8913 -0.7738
   94SAPE  H14R 9311   1.152   3.356   6.216 -0.1112  0.5599 -1.2117
   94SAPE  C215 9312   1.016   3.498   6.295 -1.0081 -0.7882  0.6437
   94SAPE  H15R 9313   1.090   3.572   6.261 -1.6102 -0.4397  0.0856
   94SAPE  C216 9314   0.895   3.551   6.372 -0.3462  0.1768 -0.2611
   94SAPE  H16R 9315   0.835   3.460   6.393  2.0767 -1.4517 -0.0559
   94SAPE  H16S 9316   0.845   3.629   6.310 -1.2947 -0.7923 -0.7608
   94SAPE  C217 9317   0.929   3.622   6.505  0.1219 -0.4266 -0.0022
   94SAPE  H17R 9318   1.003   3.703   6.484 -0.7562  0.1545 -0.9722
   94SAPE  H17S 9319   0.968   3.549   6.579 -0.6787 -1.8439 -0.9392
   94SAPE  C218 9320   0.799   3.686   6.565 -0.9366 -0.3892  0.0455
   94SAPE  H18R 9321   0.730   3.603   6.592 -2.8461  1.4083  1.0442
   94SAPE  H18S 9322   0.752   3.731   6.475  1.1331 -0.1145 -0.9372
   94SAPE  C219 9323   0.817   3.785   6.680 -0.1527 -0.6106 -0.3879
   94SAPE  H19R 9324   0.742   3.865   6.662  0.6045  0.8217  2.2387
   94SAPE  H19S 9325   0.915   3.838   6.679 -1.7098  2.6105  1.3281
   94SAPE  C220 9326   0.789   3.711   6.815 -0.2242 -0.2338  0.9560
   94SAPE  H20R 9327   0.868   3.638   6.841  0.7780  0.0529 -1.0622
   94SAPE  H20S 9328   0.700   3.646   6.805 -0.5272  0.5134 -2.2845
   94SAPE  H20T 9329   0.766   3.783   6.897 -0.7666 -0.1382  0.7200
   94SAPE   C33 9330   0.610   3.213   6.924 -0.0921  0.1975 -0.0184
   94SAPE   H3X 9331   0.499   3.220   6.924 -0.1819 -0.9757  0.6490
   94SAPE   H3Y 9332   0.640   3.109   6.949  3.7787  1.3950  1.0656
   94SAPE   C34 9333   0.664   3.259   6.788  0.0702  0.4481  0.1943
   94SAPE   H4X 9334   0.767   3.219   6.787 -0.6739 -1.6825  1.3505
   94SAPE   H4Y 9335   0.674   3.369   6.781  0.1793  0.4944  1.0092
   94SAPE   C35 9336   0.579   3.188   6.677 -0.5651  0.0184 -0.1947
   94SAPE   H5X 9337   0.484   3.245   6.668 -0.8330 -0.3321  0.3275
   94SAPE   H5Y 9338   0.547   3.092   6.723  0.4006  0.8542  2.3906
   94SAPE   C36 9339   0.649   3.179   6.538  0.3782 -0.1204  0.5412
   94SAPE   H6X 9340   0.722   3.096   6.524  1.4970  1.0221 -0.5808
   94SAPE   H6Y 9341   0.713   3.268   6.523  1.0155 -0.7728 -0.8267
   94SAPE   C37 9342   0.554   3.186   6.416 -0.0821 -0.4024  0.0336
   94SAPE   H7X 9343   0.491   3.277   6.419  1.9716  1.1199 -0.5356
   94SAPE   H7Y 9344   0.484   3.100   6.426 -1.5236  0.8005  0.6763
   94SAPE   C38 9345   0.627   3.173   6.279 -0.0730 -0.3351 -0.2512
   94SAPE   H8X 9346   0.720   3.114   6.283 -2.4622 -4.4439  0.7133
   94SAPE   H8Y 9347   0.653   3.273   6.239 -1.3740 -0.3496 -1.1877
   94SAPE   C39 9348   0.547   3.095   6.169 -0.3924  0.2866  0.4260
   94SAPE   H9X 9349   0.455   3.151   6.140 -1.0202 -0.1831  1.4505
   94SAPE   H9Y 9350   0.515   2.998   6.212 -0.0061  0.4945  1.2154
   94SAPE  C310 9351   0.623   3.081   6.032  0.0045 -0.6856 -0.3617
   94SAPE  H10X 9352   0.692   2.998   6.058 -0.4398 -0.7244  0.7390
   94SAPE  H10Y 9353   0.670   3.175   5.996 -2.0444 -0.5770 -3.0208
   94SAPE  C311 9354   0.543   3.020   5.924  0.2757 -0.6014 -0.5470
   94SAPE  H11X 9355   0.470   3.099   5.896 -1.8178 -1.9867  0.7228
   94SAPE  H11Y 9356   0.471   2.942   5.956 -0.1907 -0.0689 -0.2807
   94SAPE  C312 9357   0.612   2.985   5.798  0.1828 -0.1781 -0.6558
   94SAPE  H12X 9358   0.648   2.881   5.809 -0.8882 -0.6230 -1.1698
   94SAPE  H12Y 9359   0.706   3.044   5.789  0.2610 -0.1187  0.4702
   94SAPE  C313 9360   0.528   3.004   5.668  0.2332 -0.5535 -0.9707
   94SAPE  H13X 9361   0.483   3.106   5.662  3.1300  0.8760 -0.1914
   94SAPE  H13Y 9362   0.446   2.929   5.668  0.0822 -0.3940 -0.4373
   94SAPE  C314 9363   0.615   2.991   5.537  0.7740  0.9041  0.2829
   94SAPE  H14X 9364   0.618   2.880   5.529  0.2274  0.9245 -0.2302
   94SAPE  H14Y 9365   0.719   3.025   5.560  0.3800  0.4482  3.1681
   94SAPE  C315 9366   0.537   3.039   5.409 -0.0376  0.0923  0.3144
   94SAPE  H15X 9367   0.575   3.137   5.372 -0.2419  0.5604  1.3216
   94SAPE  H15Y 9368   0.430   3.055   5.435 -0.3092 -2.0372  0.7059
   94SAPE  C316 9369   0.548   2.949   5.289  0.0772  0.9880 -0.3177
   94SAPE  H16X 9370   0.476   2.984   5.212 -1.1708 -0.0734  0.3235
   94SAPE  H16Y 9371   0.498   2.854   5.319  0.1157  0.7004 -1.1264
   94SAPE  C317 9372   0.689   2.931   5.235  0.1892 -0.2643  0.0855
   94SAPE  H17X 9373   0.749   2.899   5.323 -2.9014 -1.4948  1.8998
   94SAPE  H17Y 9374   0.712   3.032   5.193 -0.1938 -0.4566 -0.6069
   94SAPE  C318 9375   0.702   2.820   5.123 -0.0445 -0.0251  0.0756
   94SAPE  H18X 9376   0.642   2.732   5.154  1.5378 -0.6265  1.6097
   94SAPE  H18Y 9377   0.807   2.789   5.108 -0.1895 -0.8382  0.6369
   94SAPE  H18Z 9378   0.671   2.857   5.023 -1.8750 -0.2234  0.5367
   95SAPE     N 9379   2.459   2.720   7.589  0.2814 -0.8370  0.6722
   95SAPE   HN1 9380   2.529   2.683   7.658  3.7519  0.8317 -1.6509
   95SAPE   HN2 9381   2.498   2.811   7.560 -0.2620 -0.4901  1.0208
   95SAPE   HN3 9382   2.367   2.747   7.629 -0.7106  1.6797 -2.9109
   95SAPE   C12 9383   2.443   2.625   7.473  0.1573 -0.0849 -0.2321
   95SAPE  H12A 9384   2.535   2.626   7.412 -0.1441 -1.4616 -0.7525
   95SAPE  H12B 9385   2.352   2.649   7.414  0.6365 -2.1213 -1.9217
   95SAPE   C11 9386   2.437   2.488   7.536  0.1573 -0.3489  0.2390
   95SAPE  H11A 9387   2.421   2.421   7.449 -4.3590 -1.0928  1.3398
   95SAPE  H11B 9388   2.342   2.497   7.594 -1.2843  0.4373 -2.0981
   95SAPE     P 9389   2.567   2.309   7.672  0.0227  0.2985  0.0392
   95SAPE   O13 9390   2.685   2.312   7.754 -0.0995  0.4698 -0.5013
   95SAPE   O14 9391   2.447   2.263   7.751 -0.1110  0.3050 -0.6949
   95SAPE   O12 9392   2.552   2.450   7.613 -0.5487  0.6133  0.2904
   95SAPE   O11 9393   2.586   2.220   7.545 -0.4666  0.3281  0.2866
   95SAPE    C1 9394   2.713   2.186   7.486 -0.4076 -0.6334  0.3369
   95SAPE    HA 9395   2.796   2.183   7.560  1.8962 -2.0257 -2.1194
   95SAPE    HB 9396   2.703   2.090   7.431 -0.3397 -1.6308  1.9921
   95SAPE    C2 9397   2.750   2.281   7.375  0.0090 -0.1592 -0.5125
   95SAPE    HS 9398   2.806   2.358   7.432 -1.2271 -0.1687  0.7642
   95SAPE   O21 9399   2.638   2.335   7.308  0.2517 -0.0709  0.2432
   95SAPE   C21 9400   2.671   2.452   7.245 -0.3805  0.2736  0.0857
   95SAPE   O22 9401   2.762   2.522   7.283  0.3224 -0.5027  0.0126
   95SAPE   C22 9402   2.579   2.480   7.136  0.0695 -0.5501  0.8574
   95SAPE   H2R 9403   2.543   2.380   7.104 -0.0625  0.3639 -2.1646
   95SAPE   H2S 9404   2.488   2.525   7.181 -1.6194 -0.7675 -2.0708
   95SAPE    C3 9405   2.858   2.226   7.276 -0.3334 -0.2988  0.4023
   95SAPE    HX 9406   2.926   2.176   7.347  0.7023  0.8835  0.2639
   95SAPE    HY 9407   2.914   2.312   7.234 -1.1550  0.0923  0.0786
   95SAPE   O31 9408   2.808   2.142   7.175 -0.0877  0.0423  0.7420
   95SAPE   C31 9409   2.810   2.009   7.191  0.7148  0.3108 -0.7399
   95SAPE   O32 9410   2.858   1.954   7.292  0.3142  0.4444  0.8348
   95SAPE   C32 9411   2.749   1.937   7.064 -0.0767  0.5166 -0.0968
   95SAPE   H2X 9412   2.705   2.013   6.995 -2.5310  0.0988  0.9089
   95SAPE   H2Y 9413   2.662   1.875   7.094 -1.8360  2.7368 -0.2388
   95SAPE   C23 9414   2.643   2.543   7.009 -0.3183  0.1086 -0.1575
   95SAPE   H3R 9415   2.685   2.645   7.023  0.1706  0.0168 -0.9301
   95SAPE   H3S 9416   2.567   2.543   6.928 -0.0175 -0.6618 -0.4468
   95SAPE   C24 9417   2.765   2.465   6.947  0.4778  0.6502 -0.6043
   95SAPE   H4R 9418   2.745   2.356   6.954  1.5951  0.5306  1.4008
   95SAPE   H4S 9419   2.854   2.483   7.011 -0.3815  0.0406  0.7947
   95SAPE   C25 9420   2.794   2.508   6.807  0.5246 -0.1199 -0.4108
   95SAPE   H5R 9421   2.855   2.599   6.797 -1.7978  1.5592 -0.0234
   95SAPE   C26 9422   2.752   2.448   6.697 -0.3433 -0.2434 -0.3595
   95SAPE   H6R 9423   2.772   2.484   6.595 -0.7886 -1.5037 -0.9153
   95SAPE   C27 9424   2.676   2.313   6.692  0.7685 -0.1924  0.3000
   95SAPE   H7R 9425   2.584   2.320   6.630  0.1106 -1.0170  1.1483
   95SAPE   H7S 9426   2.640   2.294   6.796  0.3796 -0.8463  0.0476
   95SAPE   C28 9427   2.762   2.199   6.652 -0.4252 -0.1385  0.3463
   95SAPE   H8R 9428   2.833   2.160   6.725  2.3075 -1.0682 -2.5746
   95SAPE   C29 9429   2.777   2.142   6.534  1.0094  0.1454  0.6427
   95SAPE   H9R 9430   2.848   2.060   6.514 -1.8495 -2.6759  1.1484
   95SAPE  C210 9431   2.687   2.183   6.412  0.0283 -0.0946  0.8009
   95SAPE  H10R 9432   2.579   2.197   6.432  0.3674  0.8422  2.1243
   95SAPE  H10S 9433   2.694   2.100   6.338  0.6181  1.8336 -1.4124
   95SAPE  C211 9434   2.735   2.318   6.345 -0.3519 -0.3973 -0.0818
   95SAPE  H11R 9435   2.794   2.381   6.412 -2.2978 -0.8332  2.1754
   95SAPE  C212 9436   2.709   2.360   6.218  0.2718 -0.3593  0.0671
   95SAPE  H12R 9437   2.751   2.457   6.187  3.9159 -1.4039  1.2753
   95SAPE  C213 9438   2.638   2.271   6.120 -0.1836  0.4270  0.2050
   95SAPE  H13R 9439   2.607   2.329   6.030 -0.3195 -1.1056 -0.7861
   95SAPE  H13S 9440   2.540   2.240   6.163  0.0342 -0.2656  0.2207
   95SAPE  C214 9441   2.723   2.149   6.070  0.8703  0.2339  0.0288
   95SAPE  H14R 9442   2.694   2.057   6.123 -0.4013 -0.4903 -1.8477
   95SAPE  C215 9443   2.806   2.151   5.969  0.3115 -0.8054 -0.1545
   95SAPE  H15R 9444   2.865   2.062   5.945  0.3464 -1.0863  0.9548
   95SAPE  C216 9445   2.853   2.273   5.894 -0.3041 -0.2672  0.6802
   95SAPE  H16R 9446   2.931   2.318   5.959  0.1695  0.5676 -0.4311
   95SAPE  H16S 9447   2.774   2.348   5.870 -0.4404 -1.0145 -1.4464
   95SAPE  C217 9448   2.912   2.233   5.755  0.7866 -0.1144 -0.6285
   95SAPE  H17R 9449   2.833   2.191   5.690 -0.9215  4.1241 -1.6469
   95SAPE  H17S 9450   2.988   2.156   5.780  0.1901 -0.0410  1.6705
   95SAPE  C218 9451   2.980   2.359   5.683  0.9903  0.4309 -0.2967
   95SAPE  H18R 9452   3.017   2.318   5.586 -0.3609  1.5313 -1.3335
   95SAPE  H18S 9453   3.059   2.408   5.743 -0.3870  1.7900  0.4917
   95SAPE  C219 9454   2.884   2.475   5.655  0.1045 -0.0139 -0.0818
   95SAPE  H19R 9455   2.844   2.528   5.744  1.0610  1.4151 -0.4705
   95SAPE  H19S 9456   2.803   2.429   5.595  1.9469 -1.5189 -1.5495
   95SAPE  C220 9457   2.942   2.587   5.577  0.4907  0.0022 -1.0026
   95SAPE  H20R 9458   2.865   2.665   5.557 -0.3325  0.1366  2.1718
   95SAPE  H20S 9459   2.988   2.564   5.479  0.3773  1.4119 -1.4102
   95SAPE  H20T 9460   3.019   2.641   5.638 -1.4936  3.8062 -1.5542
   95SAPE   C33 9461   2.850   1.862   6.984 -0.0280  0.0250 -0.0900
   95SAPE   H3X 9462   2.907   1.788   7.044 -2.1569 -2.7674 -1.3037
   95SAPE   H3Y 9463   2.928   1.928   6.939 -0.0084 -0.4650 -0.8012
   95SAPE   C34 9464   2.788   1.772   6.871 -0.4591  0.1204 -0.8011
   95SAPE   H4X 9465   2.740   1.839   6.797  1.1444  0.3075 -1.7053
   95SAPE   H4Y 9466   2.712   1.709   6.923 -0.4177  0.4545 -0.3220
   95SAPE   C35 9467   2.898   1.680   6.815  0.8837 -0.0562 -0.4350
   95SAPE   H5X 9468   2.847   1.586   6.784  0.7057 -0.7438  1.7868
   95SAPE   H5Y 9469   2.963   1.642   6.897 -0.9180 -0.4044  0.8800
   95SAPE   C36 9470   2.989   1.743   6.714 -0.8509 -0.5604  0.3462
   95SAPE   H6X 9471   3.070   1.670   6.692 -0.4874 -0.2470  0.6216
   95SAPE   H6Y 9472   3.044   1.825   6.766 -2.8596 -0.5117  2.5899
   95SAPE   C37 9473   2.924   1.792   6.587  0.4221 -0.4001  0.3355
   95SAPE   H7X 9474   3.003   1.863   6.557 -0.8321  0.5935 -0.7657
   95SAPE   H7Y 9475   2.834   1.851   6.616  0.8582  0.9471 -0.9459
   95SAPE   C38 9476   2.889   1.689   6.475 -0.1770 -0.2825 -0.0899
   95SAPE   H8X 9477   2.791   1.643   6.501 -0.7156 -0.2150 -1.8293
   95SAPE   H8Y 9478   2.963   1.606   6.470 -0.4307 -0.4899 -0.5473
   95SAPE   C39 9479   2.879   1.765   6.342 -0.6619 -0.4227 -0.6788
   95SAPE   H9X 9480   2.981   1.806   6.328 -0.4951  0.1559  1.8113
   95SAPE   H9Y 9481   2.801   1.843   6.355 -0.6634 -0.7112  1.2584
   95SAPE  C310 9482   2.828   1.676   6.227  0.5739 -0.5427 -0.2873
   95SAPE  H10X 9483   2.724   1.649   6.255  1.5732 -2.2544  2.1204
   95SAPE  H10Y 9484   2.897   1.589   6.227  1.1700 -0.0790 -0.1028
   95SAPE  C311 9485   2.837   1.750   6.090 -0.3020  0.3114  0.2701
   95SAPE  H11X 9486   2.945   1.766   6.071 -0.1971  1.5467  1.7006
   95SAPE  H11Y 9487   2.789   1.851   6.089 -1.1782 -0.0921 -0.9509
   95SAPE  C312 9488   2.777   1.667   5.982  0.0289  0.3665 -0.2774
   95SAPE  H12X 9489   2.669   1.648   5.998 -0.4007  2.1517 -0.8109
   95SAPE  H12Y 9490   2.819   1.565   5.999 -3.4081 -0.8035  2.6134
   95SAPE  C313 9491   2.793   1.714   5.838  0.3478 -0.3364  0.2275
   95SAPE  H13X 9492   2.739   1.812   5.836 -1.6258 -1.3603  1.2987
   95SAPE  H13Y 9493   2.729   1.648   5.777  1.4813 -0.5223 -0.8095
   95SAPE  C314 9494   2.940   1.730   5.786  0.0263 -0.0024 -0.5746
   95SAPE  H14X 9495   2.999   1.636   5.796 -1.9918 -1.2725  0.2033
   95SAPE  H14Y 9496   2.983   1.804   5.857 -1.3053  0.6491 -0.4146
   95SAPE  C315 9497   2.947   1.780   5.637  0.2508 -1.4916  0.6307
   95SAPE  H15X 9498   2.880   1.866   5.616  2.0799  0.1811  1.3340
   95SAPE  H15Y 9499   2.911   1.696   5.574  1.7754  0.2292 -2.8001
   95SAPE  C316 9500   3.091   1.813   5.594  0.3823 -0.3098 -0.2704
   95SAPE  H16X 9501   3.152   1.721   5.609  1.1313  0.1907 -0.2134
   95SAPE  H16Y 9502   3.136   1.883   5.667  1.3788  0.2910 -1.4314
   95SAPE  C317 9503   3.106   1.878   5.453 -0.2096  0.3524  0.0255
   95SAPE  H17X 9504   3.202   1.934   5.449 -0.4439  0.7125 -0.8586
   95SAPE  H17Y 9505   3.030   1.956   5.432 -0.2306  0.5066  0.6736
   95SAPE  C318 9506   3.103   1.775   5.332 -0.1595 -0.3682  0.5938
   95SAPE  H18X 9507   3.204   1.730   5.323 -1.6865 -3.6462 -2.7777
   95SAPE  H18Y 9508   3.079   1.842   5.247  0.7324 -0.5615  0.1815
   95SAPE  H18Z 9509   3.030   1.692   5.342 -1.5471  0.1550 -3.4608
   96SAPE     N 9510   6.216   5.524   7.705  0.1741 -0.2516 -0.0191
   96SAPE   HN1 9511   6.277   5.607   7.715  0.9330 -0.7028 -0.7293
   96SAPE   HN2 9512   6.153   5.530   7.622  0.0961 -1.7962 -0.1034
   96SAPE   HN3 9513   6.158   5.510   7.790 -0.6338 -0.7955 -0.6393
   96SAPE   C12 9514   6.295   5.401   7.685  0.0813  0.3774 -0.3248
   96SAPE  H12A 9515   6.222   5.318   7.670  0.1064  0.1627  0.6822
   96SAPE  H12B 9516   6.353   5.385   7.779 -0.4358  0.8157  0.0763
   96SAPE   C11 9517   6.380   5.404   7.558 -1.4256 -0.1688 -0.1916
   96SAPE  H11A 9518   6.319   5.435   7.471 -1.0901 -1.7635 -1.0231
   96SAPE  H11B 9519   6.407   5.299   7.536  1.3134 -0.0264  1.9152
   96SAPE     P 9520   6.638   5.447   7.566 -0.1691  0.2082 -0.1742
   96SAPE   O13 9521   6.722   5.552   7.627 -0.8632  0.3227 -0.5726
   96SAPE   O14 9522   6.665   5.310   7.612  0.3260 -0.5654  0.8706
   96SAPE   O12 9523   6.489   5.488   7.588 -0.0193  0.6338 -0.2191
   96SAPE   O11 9524   6.647   5.450   7.408 -0.0181 -0.0707  0.5615
   96SAPE    C1 9525   6.635   5.582   7.346  0.3499  0.4845  0.1489
   96SAPE    HA 9526   6.536   5.625   7.375  0.1915  1.2547 -1.4594
   96SAPE    HB 9527   6.714   5.652   7.379  0.6370 -0.3659  1.3269
   96SAPE    C2 9528   6.640   5.579   7.193  0.5266 -0.1666 -0.3410
   96SAPE    HS 9529   6.571   5.657   7.155 -1.2164 -1.3221  0.3280
   96SAPE   O21 9530   6.604   5.447   7.141  0.0844  0.0311 -0.3044
   96SAPE   C21 9531   6.477   5.406   7.155  0.4616 -0.3454  0.3959
   96SAPE   O22 9532   6.380   5.468   7.188 -0.2325 -0.8861 -0.4804
   96SAPE   C22 9533   6.471   5.252   7.128  0.3742  0.1329  0.7708
   96SAPE   H2R 9534   6.569   5.209   7.098 -0.5440  0.0815 -2.6119
   96SAPE   H2S 9535   6.433   5.206   7.222  0.4533 -0.6730  0.4203
   96SAPE    C3 9536   6.778   5.631   7.141 -0.3071 -0.7214  0.6934
   96SAPE    HX 9537   6.863   5.583   7.194 -0.3803  1.5501  3.0762
   96SAPE    HY 9538   6.791   5.739   7.163  1.5495  0.2351 -3.8672
   96SAPE   O31 9539   6.779   5.625   6.997  0.0806  0.0183 -0.1438
   96SAPE   C31 9540   6.829   5.506   6.960  0.1619  0.1024  0.0199
   96SAPE   O32 9541   6.862   5.411   7.022  0.1181 -0.0061 -0.3671
   96SAPE   C32 9542   6.853   5.510   6.810 -0.3997  0.0735 -0.8171
   96SAPE   H2X 9543   6.799   5.602   6.778 -3.0513 -0.2332  2.2628
   96SAPE   H2Y 9544   6.817   5.412   6.772 -0.2985  0.2137 -1.2783
   96SAPE   C23 9545   6.382   5.226   7.002  0.3267  0.4700  0.0612
   96SAPE   H3R 9546   6.279   5.261   7.022  0.6079  1.8688 -0.7926
   96SAPE   H3S 9547   6.378   5.116   6.990  1.3226  0.5704 -1.3968
   96SAPE   C24 9548   6.422   5.283   6.865 -0.4014 -0.4327 -0.6398
   96SAPE   H4R 9549   6.360   5.232   6.788  0.1658  1.5220 -2.5112
   96SAPE   H4S 9550   6.525   5.250   6.840 -0.2859 -0.9643  0.4721
   96SAPE   C25 9551   6.402   5.432   6.850  0.7211  0.2333  0.6001
   96SAPE   H5R 9552   6.337   5.478   6.926 -0.6924  1.9999 -1.5451
   96SAPE   C26 9553   6.452   5.506   6.754 -0.2552  0.0495  0.7292
   96SAPE   H6R 9554   6.430   5.614   6.753 -0.5835  0.0070 -1.6651
   96SAPE   C27 9555   6.539   5.455   6.643 -0.2614  0.0735  0.4307
   96SAPE   H7R 9556   6.566   5.349   6.662  1.4195  0.2488 -0.8060
   96SAPE   H7S 9557   6.630   5.518   6.633  0.1293 -0.4931  0.3462
   96SAPE   C28 9558   6.452   5.430   6.517 -0.0785  0.6030  0.0820
   96SAPE   H8R 9559   6.344   5.412   6.529 -0.4147  3.1855  1.5382
   96SAPE   C29 9560   6.513   5.416   6.394 -0.6982  0.8991 -0.0809
   96SAPE   H9R 9561   6.441   5.405   6.312 -0.9899 -3.0105  0.5284
   96SAPE  C210 9562   6.658   5.427   6.347  1.0064  0.5380 -0.4658
   96SAPE  H10R 9563   6.725   5.385   6.425  3.0700  1.7758 -1.4825
   96SAPE  H10S 9564   6.693   5.532   6.335  3.5777  0.0109  1.4767
   96SAPE  C211 9565   6.680   5.348   6.216  0.4798 -0.3765  0.7939
   96SAPE  H11R 9566   6.737   5.255   6.232  1.6420  0.2735  0.5616
   96SAPE  C212 9567   6.650   5.381   6.086  0.0313  0.0374 -0.6250
   96SAPE  H12R 9568   6.675   5.303   6.013 -0.5665 -0.9428  0.1832
   96SAPE  C213 9569   6.604   5.510   6.035  0.7994  0.0508 -0.1963
   96SAPE  H13R 9570   6.694   5.562   5.997  1.4484 -2.3943 -2.2522
   96SAPE  H13S 9571   6.568   5.569   6.123  0.6389 -0.6850  0.2399
   96SAPE  C214 9572   6.502   5.493   5.919  0.2292 -0.3320 -0.2084
   96SAPE  H14R 9573   6.397   5.495   5.952  0.0511  0.0070 -0.7887
   96SAPE  C215 9574   6.522   5.493   5.786 -0.6829  0.3299 -0.6205
   96SAPE  H15R 9575   6.435   5.494   5.720 -0.2509  0.8838 -1.1895
   96SAPE  C216 9576   6.657   5.507   5.713 -0.8038 -0.3031 -0.0147
   96SAPE  H16R 9577   6.740   5.510   5.787 -1.4897 -2.9691  0.9923
   96SAPE  H16S 9578   6.661   5.605   5.663 -0.3683  0.0964  0.7805
   96SAPE  C217 9579   6.671   5.397   5.609 -0.5254  0.0993 -0.3175
   96SAPE  H17R 9580   6.762   5.413   5.548  1.3888  1.6706  2.7196
   96SAPE  H17S 9581   6.584   5.384   5.541 -2.9067  1.1189  2.3417
   96SAPE  C218 9582   6.682   5.256   5.675  0.0430 -0.4143  0.1565
   96SAPE  H18R 9583   6.594   5.223   5.734 -0.2388 -1.1041 -0.6346
   96SAPE  H18S 9584   6.774   5.262   5.737  0.5910 -1.2072 -0.5634
   96SAPE  C219 9585   6.683   5.139   5.571 -0.0851  0.3014 -0.5426
   96SAPE  H19R 9586   6.757   5.066   5.611  0.4439  1.4670  0.6663
   96SAPE  H19S 9587   6.706   5.180   5.470 -3.5647 -0.9795 -2.0039
   96SAPE  C220 9588   6.562   5.053   5.573 -0.1631  0.4571 -0.9059
   96SAPE  H20R 9589   6.475   5.108   5.532  0.8406  0.6542 -2.9124
   96SAPE  H20S 9590   6.539   5.010   5.673 -2.8600  1.0869 -1.1847
   96SAPE  H20T 9591   6.575   4.979   5.492 -0.1380  0.1991 -0.6655
   96SAPE   C33 9592   7.002   5.530   6.792  0.2326 -0.2567  0.0402
   96SAPE   H3X 9593   7.060   5.441   6.826  1.5570  0.6142  0.1214
   96SAPE   H3Y 9594   7.043   5.621   6.840  0.2067  1.5191 -3.0184
   96SAPE   C34 9595   7.033   5.547   6.647  0.3840  0.1033  0.0638
   96SAPE   H4X 9596   7.142   5.569   6.647  0.4909 -0.3875  1.0018
   96SAPE   H4Y 9597   6.980   5.637   6.608  0.3390  0.5801  1.2025
   96SAPE   C35 9598   7.010   5.426   6.548  0.3704  0.4248  1.6316
   96SAPE   H5X 9599   6.902   5.424   6.522  0.9807  0.7956 -1.2313
   96SAPE   H5Y 9600   7.038   5.332   6.600  2.2110  1.3692  2.4610
   96SAPE   C36 9601   7.094   5.446   6.418 -0.0060 -0.3838 -0.7333
   96SAPE   H6X 9602   7.083   5.357   6.352  2.2282 -1.6041  0.4052
   96SAPE   H6Y 9603   7.203   5.460   6.433 -0.4227 -0.4474  3.2590
   96SAPE   C37 9604   7.033   5.560   6.321 -0.1869 -0.2128 -0.2640
   96SAPE   H7X 9605   7.038   5.651   6.383  0.8325 -1.2185  1.2095
   96SAPE   H7Y 9606   6.926   5.545   6.294 -0.0334  1.1722 -1.7928
   96SAPE   C38 9607   7.103   5.577   6.184 -0.5119  0.5573  0.6184
   96SAPE   H8X 9608   7.211   5.560   6.201 -0.8041 -1.9602  0.3196
   96SAPE   H8Y 9609   7.098   5.680   6.142  0.4547  0.0396 -0.8190
   96SAPE   C39 9610   7.051   5.475   6.076  0.0701  0.3561 -0.1681
   96SAPE   H9X 9611   6.940   5.480   6.080  0.0701 -0.2615  1.6498
   96SAPE   H9Y 9612   7.087   5.377   6.116  0.7446  1.1175  1.1392
   96SAPE  C310 9613   7.110   5.518   5.940 -0.0513  0.2017 -0.6463
   96SAPE  H10X 9614   7.220   5.512   5.959  0.1275 -0.9673 -1.9065
   96SAPE  H10Y 9615   7.078   5.621   5.917 -0.0847  0.3565  0.0640
   96SAPE  C311 9616   7.083   5.418   5.829  0.3295  0.2174 -0.3153
   96SAPE  H11X 9617   6.976   5.388   5.826  0.8526 -1.6842 -0.9968
   96SAPE  H11Y 9618   7.141   5.325   5.841 -0.5351 -0.2348  0.4430
   96SAPE  C312 9619   7.114   5.484   5.692  0.0830  0.2195 -0.6290
   96SAPE  H12X 9620   7.222   5.508   5.686  0.9665 -3.1892 -0.4508
   96SAPE  H12Y 9621   7.052   5.576   5.689 -0.1002  0.1163 -0.0182
   96SAPE  C313 9622   7.077   5.402   5.566  0.0045 -0.0471 -0.4022
   96SAPE  H13X 9623   6.968   5.395   5.585  0.3151 -0.9073  1.2511
   96SAPE  H13Y 9624   7.118   5.300   5.579  0.1392 -0.0530 -0.8597
   96SAPE  C314 9625   7.122   5.453   5.433 -0.4059  0.2810 -0.0419
   96SAPE  H14X 9626   7.232   5.471   5.439 -0.0990 -1.7088  1.3635
   96SAPE  H14Y 9627   7.070   5.548   5.409 -0.3029  0.0682 -1.1858
   96SAPE  C315 9628   7.099   5.353   5.320 -0.3694  0.2748 -0.1801
   96SAPE  H15X 9629   7.121   5.249   5.351  0.1225  0.3618 -0.2324
   96SAPE  H15Y 9630   7.158   5.373   5.228 -0.8007  1.8872 -0.1448
   96SAPE  C316 9631   6.953   5.351   5.262 -0.2872  0.0808  0.3300
   96SAPE  H16X 9632   6.942   5.450   5.213 -0.1434  0.3205  0.7823
   96SAPE  H16Y 9633   6.883   5.346   5.348  0.1749  1.8982  0.8513
   96SAPE  C317 9634   6.933   5.235   5.159 -0.2234 -0.5670 -0.0473
   96SAPE  H17X 9635   6.979   5.150   5.213  0.5614  0.1851  0.5001
   96SAPE  H17Y 9636   6.998   5.254   5.071 -0.7893  0.4892 -0.2543
   96SAPE  C318 9637   6.792   5.236   5.109 -0.2714 -0.3416  0.1582
   96SAPE  H18X 9638   6.769   5.170   5.023 -1.8338  0.1788  0.1464
   96SAPE  H18Y 9639   6.782   5.340   5.072  0.9092 -0.9220 -1.9607
   96SAPE  H18Z 9640   6.718   5.210   5.188  1.2880  1.0418  2.2040
   97SAPE     N 9641   1.713   0.511   7.871  0.0402 -0.1214 -0.3972
   97SAPE   HN1 9642   1.717   0.608   7.836 -0.6125 -0.7203 -2.2205
   97SAPE   HN2 9643   1.660   0.505   7.960 -0.5410 -1.8797 -0.8243
   97SAPE   HN3 9644   1.809   0.478   7.898  0.0604  0.4820  0.3010
   97SAPE   C12 9645   1.660   0.417   7.768  0.3678  0.1082 -0.8319
   97SAPE  H12A 9646   1.555   0.447   7.750  1.1771  3.3292 -0.8617
   97SAPE  H12B 9647   1.661   0.313   7.806 -1.8982  0.0244 -0.8406
   97SAPE   C11 9648   1.736   0.432   7.637  0.1893  0.0191  1.1746
   97SAPE  H11A 9649   1.701   0.353   7.567  0.0343  2.6371 -1.9066
   97SAPE  H11B 9650   1.846   0.421   7.650  0.3664 -1.0349 -0.8548
   97SAPE     P 9651   1.591   0.569   7.450  0.4423  0.1715  0.0366
   97SAPE   O13 9652   1.465   0.589   7.520 -0.3246  0.0423 -0.1059
   97SAPE   O14 9653   1.635   0.672   7.355 -0.5500  0.2957  0.1955
   97SAPE   O12 9654   1.706   0.556   7.562  0.1154 -0.1533 -0.6235
   97SAPE   O11 9655   1.594   0.431   7.384 -0.1058 -0.0283  0.7337
   97SAPE    C1 9656   1.696   0.379   7.304 -0.6428  0.8094  0.3254
   97SAPE    HA 9657   1.785   0.447   7.306  0.0252 -0.0487  2.4985
   97SAPE    HB 9658   1.728   0.280   7.342  0.8740  1.0069 -0.3614
   97SAPE    C2 9659   1.638   0.348   7.162 -1.0554 -0.3307  0.4763
   97SAPE    HS 9660   1.715   0.337   7.083  0.9133  1.8394  1.9777
   97SAPE   O21 9661   1.535   0.443   7.128 -0.0238 -0.3809 -0.0056
   97SAPE   C21 9662   1.592   0.554   7.066 -0.5500 -0.1730 -0.2246
   97SAPE   O22 9663   1.705   0.565   7.033 -0.1273  0.1236 -0.4050
   97SAPE   C22 9664   1.484   0.668   7.060  0.3931  0.0051  0.1864
   97SAPE   H2R 9665   1.387   0.616   7.077  0.3935  0.5841  2.1664
   97SAPE   H2S 9666   1.504   0.734   7.146  0.4054 -1.7928  1.6190
   97SAPE    C3 9667   1.568   0.204   7.165 -0.2300  0.1513  0.2193
   97SAPE    HX 9668   1.499   0.196   7.252 -0.8267 -0.1624 -0.2768
   97SAPE    HY 9669   1.644   0.128   7.189 -0.2227  0.2468  0.5006
   97SAPE   O31 9670   1.502   0.167   7.037  0.4539  0.1245  0.2429
   97SAPE   C31 9671   1.373   0.194   7.025  0.4654  0.3666 -0.3937
   97SAPE   O32 9672   1.294   0.210   7.116  0.3327  0.0730  0.3679
   97SAPE   C32 9673   1.337   0.175   6.880 -0.3659 -0.1515  0.6284
   97SAPE   H2X 9674   1.238   0.219   6.855 -0.4729 -0.5665  0.3037
   97SAPE   H2Y 9675   1.340   0.065   6.866  1.7067 -0.2273  1.2534
   97SAPE   C23 9676   1.485   0.746   6.927 -0.9371  0.8022 -0.5735
   97SAPE   H3R 9677   1.587   0.789   6.922 -0.0599 -0.8204  1.5940
   97SAPE   H3S 9678   1.421   0.836   6.936 -0.6898  1.0899 -1.5697
   97SAPE   C24 9679   1.434   0.665   6.805 -0.1878 -0.2506  0.3744
   97SAPE   H4R 9680   1.487   0.568   6.796  0.1994 -0.0835  0.8289
   97SAPE   H4S 9681   1.455   0.730   6.717 -1.8422  2.4464  1.8286
   97SAPE   C25 9682   1.287   0.639   6.817 -0.0700 -0.4183  0.3688
   97SAPE   H5R 9683   1.241   0.627   6.916 -1.1376  0.0532 -0.0484
   97SAPE   C26 9684   1.204   0.616   6.718 -0.1771 -0.3647  0.4823
   97SAPE   H6R 9685   1.100   0.596   6.746 -0.0685 -0.1519  1.0474
   97SAPE   C27 9686   1.245   0.610   6.567  0.0433 -0.3808  0.2071
   97SAPE   H7R 9687   1.277   0.513   6.524  4.5869  0.8428  0.2706
   97SAPE   H7S 9688   1.337   0.671   6.556 -0.3295 -0.1204 -1.9678
   97SAPE   C28 9689   1.141   0.676   6.471  0.5143 -0.0771  0.9976
   97SAPE   H8R 9690   1.109   0.775   6.507  0.0485 -0.2383  1.0289
   97SAPE   C29 9691   1.102   0.626   6.350  0.5561 -0.0103  0.7690
   97SAPE   H9R 9692   1.038   0.693   6.292  0.8266 -0.2367  0.1972
   97SAPE  C210 9693   1.143   0.498   6.282  0.7997  0.0757  0.1659
   97SAPE  H10R 9694   1.056   0.443   6.240  0.0012  1.3519  0.0830
   97SAPE  H10S 9695   1.188   0.424   6.351  1.4015 -1.0863 -1.3941
   97SAPE  C211 9696   1.236   0.527   6.160  0.0542 -0.1141 -0.5480
   97SAPE  H11R 9697   1.336   0.567   6.180 -0.4681  0.8224  0.2718
   97SAPE  C212 9698   1.206   0.542   6.032 -0.2812 -0.6017 -0.3230
   97SAPE  H12R 9699   1.289   0.568   5.965  0.8405  0.0211  1.2186
   97SAPE  C213 9700   1.076   0.527   5.963  0.4108 -0.4476  0.9085
   97SAPE  H13R 9701   1.006   0.456   6.012 -0.2894 -0.1343  0.3664
   97SAPE  H13S 9702   1.094   0.490   5.860  0.7142 -1.2292  1.2311
   97SAPE  C214 9703   1.009   0.663   5.952 -0.3582  0.6296  0.1638
   97SAPE  H14R 9704   0.987   0.703   6.052  2.4117  1.5317  0.5181
   97SAPE  C215 9705   1.001   0.746   5.847  0.0892 -0.3293 -0.1476
   97SAPE  H15R 9706   0.967   0.850   5.859  2.3022  0.4032  0.1507
   97SAPE  C216 9707   1.038   0.712   5.703  0.6901  0.7917 -0.1273
   97SAPE  H16R 9708   0.948   0.696   5.640  0.0257 -0.2512  1.0461
   97SAPE  H16S 9709   1.096   0.617   5.696 -1.5332 -0.8115  1.6009
   97SAPE  C217 9710   1.122   0.823   5.643 -0.5105 -0.8211 -0.2099
   97SAPE  H17R 9711   1.174   0.782   5.554 -0.0293 -0.6263 -0.0215
   97SAPE  H17S 9712   1.193   0.862   5.719 -0.1643 -4.6004  1.6488
   97SAPE  C218 9713   1.055   0.944   5.578  0.2412 -0.2253  0.1162
   97SAPE  H18R 9714   1.036   1.015   5.662 -3.0977 -3.8498  2.8012
   97SAPE  H18S 9715   0.960   0.912   5.531  0.0490  2.0188 -1.2085
   97SAPE  C219 9716   1.140   1.016   5.471  0.0877  0.8785 -0.2256
   97SAPE  H19R 9717   1.197   0.947   5.405 -0.4302 -0.0903  0.3189
   97SAPE  H19S 9718   1.215   1.073   5.529  0.3700 -0.2242  0.5240
   97SAPE  C220 9719   1.064   1.116   5.389  0.0739  0.3506  0.5843
   97SAPE  H20R 9720   1.029   1.198   5.455  0.7724  0.0725  1.3118
   97SAPE  H20S 9721   0.986   1.065   5.328  1.0803 -0.9817  0.3605
   97SAPE  H20T 9722   1.141   1.160   5.322  0.5615 -2.1834 -0.6343
   97SAPE   C33 9723   1.434   0.241   6.776 -0.0089  0.5110  0.6171
   97SAPE   H3X 9724   1.531   0.276   6.818  1.4056 -2.0021 -0.2892
   97SAPE   H3Y 9725   1.375   0.326   6.737 -1.9973 -0.9504  0.2916
   97SAPE   C34 9726   1.462   0.153   6.648  0.2486  0.1697  0.1244
   97SAPE   H4X 9727   1.369   0.136   6.590 -0.2198 -1.6437  1.3272
   97SAPE   H4Y 9728   1.506   0.055   6.675 -1.0542 -1.1213 -2.1614
   97SAPE   C35 9729   1.562   0.224   6.548  0.3381  0.4725 -0.4733
   97SAPE   H5X 9730   1.665   0.229   6.589 -0.0138 -1.8589  0.8796
   97SAPE   H5Y 9731   1.523   0.325   6.523  0.9301  0.1195 -3.0929
   97SAPE   C36 9732   1.570   0.162   6.409  0.7224  0.2880  0.0112
   97SAPE   H6X 9733   1.612   0.059   6.420  0.4146  0.1715  0.1145
   97SAPE   H6Y 9734   1.650   0.211   6.349  0.4293 -1.0400 -1.5293
   97SAPE   C37 9735   1.453   0.173   6.311 -0.1807 -0.2025 -0.3052
   97SAPE   H7X 9736   1.419   0.279   6.316 -0.1509 -0.1110 -1.6465
   97SAPE   H7Y 9737   1.367   0.111   6.342 -0.6630  0.7813  0.3624
   97SAPE   C38 9738   1.488   0.132   6.169 -0.6671 -0.1719  0.7857
   97SAPE   H8X 9739   1.553   0.042   6.169 -1.8738 -1.0794  0.6900
   97SAPE   H8Y 9740   1.550   0.206   6.114  0.7312 -2.3116 -0.6830
   97SAPE   C39 9741   1.366   0.103   6.081  0.1182  0.6711  0.7676
   97SAPE   H9X 9742   1.299   0.189   6.061 -0.2260 -0.2621 -2.5455
   97SAPE   H9Y 9743   1.306   0.026   6.133 -0.3969  0.3840 -0.2381
   97SAPE  C310 9744   1.409   0.040   5.950  0.0903  0.2989  0.4875
   97SAPE  H10X 9745   1.424  -0.069   5.969  1.1019  0.1655 -0.9206
   97SAPE  H10Y 9746   1.507   0.076   5.912  0.2497 -0.3647  0.2558
   97SAPE  C311 9747   1.302   0.045   5.846 -0.2491 -0.5876 -0.7130
   97SAPE  H11X 9748   1.208  -0.005   5.876  0.3742 -2.0236 -1.0698
   97SAPE  H11Y 9749   1.345  -0.017   5.764  0.7194  0.7396 -1.2538
   97SAPE  C312 9750   1.279   0.183   5.781  0.4829 -0.6421 -0.1268
   97SAPE  H12X 9751   1.242   0.249   5.863  0.2074 -2.3278  1.1812
   97SAPE  H12Y 9752   1.200   0.172   5.703  1.3304 -1.9624 -0.8363
   97SAPE  C313 9753   1.402   0.230   5.709 -0.5523 -0.0512 -0.3198
   97SAPE  H13X 9754   1.437   0.162   5.628  0.8322  1.4981 -1.0952
   97SAPE  H13Y 9755   1.481   0.247   5.785  0.1134 -0.2900 -0.9397
   97SAPE  C314 9756   1.382   0.376   5.650 -0.7798 -0.2672  0.2061
   97SAPE  H14X 9757   1.476   0.414   5.604  0.5201 -2.6542  0.7487
   97SAPE  H14Y 9758   1.360   0.446   5.733  0.5771  0.4738 -0.0423
   97SAPE  C315 9759   1.285   0.372   5.531 -0.3169  0.2463 -0.0155
   97SAPE  H15X 9760   1.184   0.337   5.563 -0.1410  0.6782  1.0627
   97SAPE  H15Y 9761   1.329   0.311   5.450 -0.2833  1.4411 -0.9226
   97SAPE  C316 9762   1.280   0.503   5.450  0.1247  0.3165 -0.1761
   97SAPE  H16X 9763   1.386   0.535   5.445  0.3163  0.1497  1.8210
   97SAPE  H16Y 9764   1.226   0.582   5.507  1.0720  0.7947  0.0710
   97SAPE  C317 9765   1.201   0.508   5.321  0.5995  0.1461 -0.3501
   97SAPE  H17X 9766   1.099   0.476   5.353  0.8153  0.6670  0.9274
   97SAPE  H17Y 9767   1.227   0.431   5.246 -0.1037  1.5957 -2.1644
   97SAPE  C318 9768   1.194   0.644   5.252 -0.2604 -1.0307  0.6644
   97SAPE  H18X 9769   1.161   0.720   5.326  0.8193  0.3514 -0.2324
   97SAPE  H18Y 9770   1.120   0.638   5.170 -0.7430 -0.4077  1.0413
   97SAPE  H18Z 9771   1.296   0.667   5.215 -0.1909  1.7131  2.2561
   98SAPE     N 9772   6.665   6.140   7.543  0.0884 -0.4815 -0.2448
   98SAPE   HN1 9773   6.751   6.147   7.601 -0.2961  1.5206  0.1764
   98SAPE   HN2 9774   6.674   6.053   7.488  0.1395  0.4918 -1.8542
   98SAPE   HN3 9775   6.678   6.223   7.481 -1.9210 -1.2399 -1.7867
   98SAPE   C12 9776   6.544   6.148   7.631  0.6884 -0.2387  0.2067
   98SAPE  H12A 9777   6.535   6.245   7.684 -3.7933 -0.5746  0.4518
   98SAPE  H12B 9778   6.544   6.061   7.701  0.5587 -0.2249  0.2234
   98SAPE   C11 9779   6.415   6.120   7.542  0.0284  0.3216  0.2221
   98SAPE  H11A 9780   6.332   6.108   7.614 -1.2993 -2.6203 -1.6196
   98SAPE  H11B 9781   6.438   6.025   7.490 -1.8561 -1.5723  2.6328
   98SAPE     P 9782   6.296   6.347   7.478  0.1355  0.3374 -0.2738
   98SAPE   O13 9783   6.198   6.293   7.576  0.3023 -0.1297 -0.3212
   98SAPE   O14 9784   6.355   6.482   7.507 -0.1909  0.1524  0.0507
   98SAPE   O12 9785   6.409   6.233   7.452  0.0431  0.2087  0.1672
   98SAPE   O11 9786   6.220   6.350   7.338  0.1422 -0.1097  0.0010
   98SAPE    C1 9787   6.281   6.369   7.212 -0.5390 -0.4034  0.2113
   98SAPE    HA 9788   6.387   6.403   7.217 -0.7144  0.4098 -1.1402
   98SAPE    HB 9789   6.290   6.271   7.161  1.3405 -0.1505 -0.0122
   98SAPE    C2 9790   6.216   6.464   7.108 -0.9006  0.0597 -0.7297
   98SAPE    HS 9791   6.233   6.572   7.128 -1.5885 -0.0631  0.6234
   98SAPE   O21 9792   6.076   6.442   7.104  0.4395 -0.0251  0.3098
   98SAPE   C21 9793   6.014   6.532   7.025  0.1671  0.5169  0.1031
   98SAPE   O22 9794   6.065   6.634   6.984  0.4081 -0.6764  0.0469
   98SAPE   C22 9795   5.870   6.487   7.005  1.1822 -0.2154  0.4142
   98SAPE   H2R 9796   5.839   6.436   7.099 -1.9965 -0.7337 -0.8140
   98SAPE   H2S 9797   5.805   6.576   6.994 -1.1160 -1.7277  1.1257
   98SAPE    C3 9798   6.288   6.438   6.970 -0.2443  0.5101  0.6157
   98SAPE    HX 9799   6.399   6.436   6.984 -0.1807  1.9821  0.4895
   98SAPE    HY 9800   6.250   6.519   6.905 -1.3592  0.2351  0.9133
   98SAPE   O31 9801   6.236   6.310   6.918  0.1895  0.8723 -0.2115
   98SAPE   C31 9802   6.289   6.284   6.798 -0.6736  0.6428 -1.0090
   98SAPE   O32 9803   6.381   6.348   6.748  0.4775  0.0553 -0.0545
   98SAPE   C32 9804   6.234   6.154   6.746 -0.0318  0.2197  0.3478
   98SAPE   H2X 9805   6.129   6.170   6.713 -0.2934 -2.0767 -0.1575
   98SAPE   H2Y 9806   6.234   6.081   6.830 -0.7541  0.0281  0.1938
   98SAPE   C23 9807   5.855   6.382   6.888 -0.4789 -0.3042 -0.5984
   98SAPE   H3R 9808   5.745   6.370   6.878 -1.1849  3.1943  1.3014
   98SAPE   H3S 9809   5.896   6.290   6.936 -2.2974 -0.2629  1.1550
   98SAPE   C24 9810   5.926   6.416   6.754  0.0605 -0.4125  0.0844
   98SAPE   H4R 9811   5.933   6.329   6.686  1.9406  0.5019 -0.9896
   98SAPE   H4S 9812   6.031   6.446   6.774 -0.5690  1.4242  0.8753
   98SAPE   C25 9813   5.852   6.525   6.682 -0.0413 -0.5126  0.5033
   98SAPE   H5R 9814   5.903   6.622   6.695  1.1060 -0.8340 -1.1776
   98SAPE   C26 9815   5.764   6.502   6.582  0.4222 -0.1321  0.1738
   98SAPE   H6R 9816   5.713   6.592   6.545  0.4347  0.0082  0.4931
   98SAPE   C27 9817   5.696   6.369   6.539 -0.5014  0.2936 -0.5759
   98SAPE   H7R 9818   5.588   6.392   6.552 -0.0502  1.8484  0.8103
   98SAPE   H7S 9819   5.710   6.286   6.612 -0.5125  0.3992 -0.4516
   98SAPE   C28 9820   5.716   6.323   6.399  0.0192 -0.6828  0.2145
   98SAPE   H8R 9821   5.821   6.321   6.365 -0.4730 -0.2877 -1.4421
   98SAPE   C29 9822   5.626   6.306   6.302 -0.7104  0.4621  0.1334
   98SAPE   H9R 9823   5.653   6.259   6.206 -0.1983 -1.5633  1.1996
   98SAPE  C210 9824   5.481   6.334   6.312  0.4116  0.1121 -0.3804
   98SAPE  H10R 9825   5.446   6.336   6.417  0.9074 -2.1417 -0.1209
   98SAPE  H10S 9826   5.425   6.242   6.286 -1.0385  0.4273  1.4776
   98SAPE  C211 9827   5.441   6.459   6.239  1.0600  0.5642 -0.6133
   98SAPE  H11R 9828   5.449   6.548   6.304 -1.6719  0.5270 -0.1107
   98SAPE  C212 9829   5.419   6.471   6.105  0.3270 -0.1614  0.5401
   98SAPE  H12R 9830   5.392   6.572   6.068 -0.4547 -0.5126  0.1051
   98SAPE  C213 9831   5.418   6.359   6.009  0.4153  0.3795 -0.9991
   98SAPE  H13R 9832   5.426   6.259   6.058 -1.1349  1.4829  1.6778
   98SAPE  H13S 9833   5.507   6.361   5.942  2.3818 -0.2081  1.4604
   98SAPE  C214 9834   5.290   6.345   5.931 -0.1694 -0.4121  0.6939
   98SAPE  H14R 9835   5.205   6.334   6.000 -0.2841  0.6755  0.7491
   98SAPE  C215 9836   5.274   6.352   5.798  0.2215  0.9238  0.3757
   98SAPE  H15R 9837   5.176   6.322   5.757 -0.6902 -0.5291  3.3359
   98SAPE  C216 9838   5.380   6.391   5.702  0.1338 -0.0393  0.0013
   98SAPE  H16R 9839   5.430   6.304   5.654  2.6310  0.8140  0.8958
   98SAPE  H16S 9840   5.469   6.441   5.747  1.2950 -0.3166 -1.9005
   98SAPE  C217 9841   5.335   6.493   5.594  0.6884 -0.1210  0.0248
   98SAPE  H17R 9842   5.242   6.451   5.551  0.4314  1.2874 -0.8624
   98SAPE  H17S 9843   5.413   6.513   5.517  1.4172 -0.1752  0.7270
   98SAPE  C218 9844   5.302   6.628   5.660 -0.2885 -0.0255 -0.4347
   98SAPE  H18R 9845   5.392   6.659   5.718 -0.5823  0.4244 -0.2199
   98SAPE  H18S 9846   5.232   6.604   5.742  0.7442  1.2933  0.8871
   98SAPE  C219 9847   5.235   6.728   5.567  0.5244  0.4936 -0.2417
   98SAPE  H19R 9848   5.150   6.672   5.523  1.3810 -0.8298 -0.2678
   98SAPE  H19S 9849   5.311   6.739   5.487  0.8767  0.4954  0.0937
   98SAPE  C220 9850   5.191   6.857   5.627 -0.0366 -0.2838 -0.0460
   98SAPE  H20R 9851   5.118   6.909   5.561 -0.8500 -0.8315  0.4046
   98SAPE  H20S 9852   5.285   6.912   5.644 -0.1737  0.4990 -1.5798
   98SAPE  H20T 9853   5.131   6.838   5.718  1.5255  1.4985  1.4286
   98SAPE   C33 9854   6.318   6.097   6.630 -0.3070  0.0550 -0.6412
   98SAPE   H3X 9855   6.311   5.987   6.620  0.7684 -0.1660  0.6145
   98SAPE   H3Y 9856   6.426   6.105   6.657 -0.8702 -0.0229  1.9717
   98SAPE   C34 9857   6.284   6.166   6.494  0.5551  0.3777  0.4425
   98SAPE   H4X 9858   6.376   6.158   6.431  0.2463  2.2131 -0.3058
   98SAPE   H4Y 9859   6.273   6.275   6.509  0.7540  0.1331  2.6172
   98SAPE   C35 9860   6.169   6.095   6.429  0.3960  0.2618 -0.1234
   98SAPE   H5X 9861   6.078   6.085   6.492  2.0153 -0.6869  2.2293
   98SAPE   H5Y 9862   6.208   5.996   6.400  1.8571  1.7581 -3.8561
   98SAPE   C36 9863   6.108   6.159   6.298  0.1079 -0.1258  0.4549
   98SAPE   H6X 9864   6.186   6.158   6.219 -0.0777  0.2195  0.2677
   98SAPE   H6Y 9865   6.063   6.257   6.323 -4.6681 -1.8167 -0.3847
   98SAPE   C37 9866   5.988   6.072   6.245 -0.4313  0.7117  0.1073
   98SAPE   H7X 9867   5.912   6.059   6.325  1.1026 -1.1909  1.3638
   98SAPE   H7Y 9868   6.022   5.972   6.212 -3.0887  0.5440 -2.4190
   98SAPE   C38 9869   5.925   6.160   6.133 -0.1580  0.1031  0.0838
   98SAPE   H8X 9870   5.912   6.264   6.170  2.5119 -0.2181  2.1490
   98SAPE   H8Y 9871   5.821   6.125   6.110  1.0800 -1.4963 -4.0902
   98SAPE   C39 9872   6.002   6.146   6.002  0.0282  0.4163 -0.0265
   98SAPE   H9X 9873   6.017   6.048   5.952  0.1869  1.0751 -1.3120
   98SAPE   H9Y 9874   6.107   6.175   6.022  0.8185 -2.3921  0.2658
   98SAPE  C310 9875   5.946   6.238   5.896 -0.5883 -0.5528 -0.0264
   98SAPE  H10X 9876   5.969   6.340   5.932  0.5106 -1.2286  1.2905
   98SAPE  H10Y 9877   5.836   6.226   5.903 -0.7231  0.0812 -0.9085
   98SAPE  C311 9878   6.008   6.250   5.757  0.2303 -0.3006  0.7537
   98SAPE  H11X 9879   6.118   6.263   5.768  0.0843  1.4002  0.5188
   98SAPE  H11Y 9880   5.981   6.345   5.705 -2.8237 -1.6906 -0.4104
   98SAPE  C312 9881   5.970   6.141   5.653  0.2810  0.2263 -0.4315
   98SAPE  H12X 9882   5.869   6.171   5.617  0.1640  0.6766  0.2646
   98SAPE  H12Y 9883   5.950   6.046   5.707 -0.6045  0.9334  0.5317
   98SAPE  C313 9884   6.051   6.118   5.527 -0.4277 -0.6009 -0.5408
   98SAPE  H13X 9885   6.001   6.038   5.468 -0.4806 -0.1902 -1.0644
   98SAPE  H13Y 9886   6.146   6.076   5.565 -0.5911 -1.3028 -0.8829
   98SAPE  C314 9887   6.090   6.242   5.444 -0.2221 -0.3019 -0.6395
   98SAPE  H14X 9888   6.127   6.310   5.523 -0.6698 -1.5642  0.6829
   98SAPE  H14Y 9889   6.013   6.296   5.384 -0.5672 -0.6094 -0.4785
   98SAPE  C315 9890   6.211   6.210   5.346  0.4263  0.0869 -0.1067
   98SAPE  H15X 9891   6.293   6.170   5.410  0.9231 -0.6604 -1.1800
   98SAPE  H15Y 9892   6.242   6.309   5.307  1.7750  0.2815  1.3906
   98SAPE  C316 9893   6.165   6.114   5.228 -0.4225  0.2944 -0.1244
   98SAPE  H16X 9894   6.076   6.154   5.174 -1.7148  0.9688  2.3625
   98SAPE  H16Y 9895   6.142   6.018   5.278  0.1278  0.0902 -0.2573
   98SAPE  C317 9896   6.273   6.088   5.118 -0.9346 -0.0587  0.9859
   98SAPE  H17X 9897   6.337   6.011   5.167 -0.6760  0.3065  1.2180
   98SAPE  H17Y 9898   6.329   6.179   5.092  2.8967 -2.2674  0.7734
   98SAPE  C318 9899   6.207   6.030   4.996  0.1238 -0.1375 -0.2496
   98SAPE  H18X 9900   6.124   5.960   5.018  0.1338 -0.0761 -0.0220
   98SAPE  H18Y 9901   6.280   5.991   4.922  0.3720  0.9131 -0.5851
   98SAPE  H18Z 9902   6.172   6.119   4.940  1.3090  0.5319  0.0313
   99SAPE     N 9903   0.262   5.105   7.413  0.0697  0.4163  0.4630
   99SAPE   HN1 9904   0.220   5.177   7.351  0.3004 -0.6140 -0.9336
   99SAPE   HN2 9905   0.365   5.097   7.400 -0.3498 -2.2009 -2.5663
   99SAPE   HN3 9906   0.228   5.010   7.386  0.1041  0.2142  1.1027
   99SAPE   C12 9907   0.241   5.128   7.557 -0.3535 -1.3106  0.2208
   99SAPE  H12A 9908   0.256   5.026   7.599  0.8438 -1.3184 -0.1672
   99SAPE  H12B 9909   0.135   5.153   7.576  0.3144  2.3243 -0.0781
   99SAPE   C11 9910   0.331   5.245   7.619  0.5403  0.3187 -0.0262
   99SAPE  H11A 9911   0.323   5.231   7.729 -2.0050  0.8606 -0.0803
   99SAPE  H11B 9912   0.274   5.333   7.582 -0.1491 -0.2795 -0.4147
   99SAPE     P 9913   0.570   5.356   7.610  0.4058  0.3967 -0.0798
   99SAPE   O13 9914   0.544   5.378   7.753  0.1271  0.5329  0.1630
   99SAPE   O14 9915   0.711   5.327   7.579 -0.9813  0.8095  0.0063
   99SAPE   O12 9916   0.465   5.238   7.577 -0.2934  0.0377 -0.2170
   99SAPE   O11 9917   0.520   5.484   7.531 -0.6050  0.3473  0.1226
   99SAPE    C1 9918   0.453   5.478   7.404 -0.3775 -0.0589  0.3818
   99SAPE    HA 9919   0.397   5.383   7.389 -1.9784  0.6641  1.4653
   99SAPE    HB 9920   0.380   5.561   7.391 -0.3842 -0.3157 -1.5114
   99SAPE    C2 9921   0.561   5.478   7.291 -0.2615 -0.2532 -0.1568
   99SAPE    HS 9922   0.644   5.407   7.309  0.4671  0.2774 -1.3244
   99SAPE   O21 9923   0.602   5.619   7.270  0.0227 -0.0808 -0.3523
   99SAPE   C21 9924   0.725   5.640   7.304  0.3529  0.1960  0.6093
   99SAPE   O22 9925   0.808   5.560   7.349  0.4357 -0.4902  0.4313
   99SAPE   C22 9926   0.742   5.788   7.312  0.4620 -1.2872 -0.0374
   99SAPE   H2R 9927   0.645   5.835   7.337 -0.1886 -2.3645 -0.4468
   99SAPE   H2S 9928   0.816   5.811   7.391  3.0005  1.5627 -2.9431
   99SAPE    C3 9929   0.489   5.425   7.160 -0.3338 -0.0196  0.1010
   99SAPE    HX 9930   0.404   5.494   7.141 -0.3131 -0.2468 -0.8686
   99SAPE    HY 9931   0.457   5.322   7.184  0.7057  0.0671  2.0587
   99SAPE   O31 9932   0.584   5.426   7.044 -0.1218  0.1307 -0.4366
   99SAPE   C31 9933   0.618   5.308   6.993  0.4579  0.0015 -0.5392
   99SAPE   O32 9934   0.590   5.206   7.048  0.0199  0.1323  0.4200
   99SAPE   C32 9935   0.695   5.310   6.864 -0.5865 -0.2077 -0.1461
   99SAPE   H2X 9936   0.799   5.348   6.871 -0.6112  0.9979 -3.8979
   99SAPE   H2Y 9937   0.647   5.382   6.793 -0.7466 -1.5978 -1.5133
   99SAPE   C23 9938   0.794   5.842   7.171 -0.6607 -0.1363 -0.0363
   99SAPE   H3R 9939   0.901   5.818   7.153  0.0814  1.7273  1.5105
   99SAPE   H3S 9940   0.781   5.952   7.175 -1.5660 -0.1465 -1.7961
   99SAPE   C24 9941   0.712   5.788   7.051 -0.2237 -0.0611 -0.7096
   99SAPE   H4R 9942   0.611   5.814   7.089  0.4606  0.0486  1.1330
   99SAPE   H4S 9943   0.712   5.678   7.044 -3.1579 -0.3452  1.7466
   99SAPE   C25 9944   0.743   5.859   6.923  0.2468  0.1228 -0.1217
   99SAPE   H5R 9945   0.759   5.967   6.938 -0.3074  0.2257 -0.2287
   99SAPE   C26 9946   0.752   5.805   6.799 -1.1943  0.2079  0.2998
   99SAPE   H6R 9947   0.779   5.874   6.718  0.2016  0.5587  1.0249
   99SAPE   C27 9948   0.738   5.656   6.754 -0.6358 -0.4499 -0.0995
   99SAPE   H7R 9949   0.648   5.648   6.689 -0.4465  2.3358 -0.8574
   99SAPE   H7S 9950   0.715   5.596   6.844 -1.5167  1.0883  0.7365
   99SAPE   C28 9951   0.868   5.604   6.700  0.1572 -0.0146 -0.7020
   99SAPE   H8R 9952   0.959   5.642   6.749  0.0420  0.8012 -1.0977
   99SAPE   C29 9953   0.883   5.518   6.599  0.2732 -0.1595  0.0263
   99SAPE   H9R 9954   0.982   5.475   6.579 -0.5982 -1.5941 -1.5143
   99SAPE  C210 9955   0.773   5.450   6.525  0.4654 -0.1566 -0.1967
   99SAPE  H10R 9956   0.734   5.518   6.447  0.2409  0.4353  0.4137
   99SAPE  H10S 9957   0.685   5.445   6.593  1.7632 -1.3947  1.4883
   99SAPE  C211 9958   0.790   5.315   6.466  0.6234  0.2354  0.2166
   99SAPE  H11R 9959   0.809   5.238   6.542 -2.8875  1.2855  2.3812
   99SAPE  C212 9960   0.781   5.278   6.330  0.1851  1.1949  0.2371
   99SAPE  H12R 9961   0.789   5.169   6.318  1.3631  1.2388  0.4854
   99SAPE  C213 9962   0.757   5.363   6.204 -0.4685 -0.0057 -0.5256
   99SAPE  H13R 9963   0.694   5.447   6.240  0.8513 -0.2603  2.7365
   99SAPE  H13S 9964   0.699   5.308   6.127  1.0100 -0.4232 -1.3849
   99SAPE  C214 9965   0.890   5.398   6.148  0.1958  0.0790  0.4142
   99SAPE  H14R 9966   0.959   5.457   6.210  0.4943  0.1487  0.0191
   99SAPE  C215 9967   0.928   5.365   6.019  0.5006 -0.1217 -0.3094
   99SAPE  H15R 9968   1.030   5.377   5.981 -0.0555  2.0003 -1.2230
   99SAPE  C216 9969   0.855   5.283   5.919  0.0684  1.8557  0.9756
   99SAPE  H16R 9970   0.749   5.313   5.909 -1.1387 -2.1971 -0.2687
   99SAPE  H16S 9971   0.847   5.177   5.951 -0.6455  0.7772 -2.3657
   99SAPE  C217 9972   0.911   5.302   5.771 -0.1047 -0.4578 -0.6023
   99SAPE  H17R 9973   1.008   5.247   5.774 -0.4015 -0.9683  1.7906
   99SAPE  H17S 9974   0.927   5.411   5.758 -2.0295 -0.0170  0.3555
   99SAPE  C218 9975   0.814   5.253   5.663 -0.3155 -0.5718 -0.2533
   99SAPE  H18R 9976   0.723   5.317   5.665 -0.5499 -0.9091  1.4479
   99SAPE  H18S 9977   0.778   5.151   5.688  1.0993 -1.0544 -0.0860
   99SAPE  C219 9978   0.876   5.260   5.517  0.7810  0.3907  0.2015
   99SAPE  H19R 9979   0.957   5.184   5.507  1.5698  1.4626 -2.5915
   99SAPE  H19S 9980   0.912   5.363   5.499 -0.2432  0.6641 -0.3760
   99SAPE  C220 9981   0.769   5.227   5.406 -0.7616  0.2055 -0.0415
   99SAPE  H20R 9982   0.680   5.294   5.410 -1.6496 -0.8956  3.7063
   99SAPE  H20S 9983   0.729   5.123   5.402  1.9913 -0.9051 -1.0104
   99SAPE  H20T 9984   0.819   5.225   5.307  1.3401 -2.2362  0.9409
   99SAPE   C33 9985   0.705   5.174   6.790  1.2376  0.4749  0.4336
   99SAPE   H3X 9986   0.709   5.088   6.861  0.4999  0.6213  0.6605
   99SAPE   H3Y 9987   0.800   5.177   6.733  0.0974 -1.2801 -1.6809
   99SAPE   C34 9988   0.601   5.166   6.684  0.6222  1.0403  1.3273
   99SAPE   H4X 9989   0.600   5.247   6.609  3.2227  1.7340  1.9489
   99SAPE   H4Y 9990   0.508   5.170   6.745 -0.2996  1.0729 -0.0551
   99SAPE   C35 9991   0.599   5.031   6.608 -0.0477 -0.4095  0.0926
   99SAPE   H5X 9992   0.600   4.950   6.683  0.0288 -0.3571  0.1485
   99SAPE   H5Y 9993   0.696   5.014   6.558  0.5604  2.0423  0.2926
   99SAPE   C36 9994   0.468   5.028   6.521  0.0634 -0.6749  0.1693
   99SAPE   H6X 9995   0.478   5.125   6.468  2.0888 -0.3684  1.0108
   99SAPE   H6Y 9996   0.384   5.033   6.594  0.2077  1.1127  0.2488
   99SAPE   C37 9997   0.447   4.898   6.434 -0.1933 -0.9225  0.5332
   99SAPE   H7X 9998   0.345   4.897   6.391  0.2444 -0.8239 -0.5561
   99SAPE   H7Y 9999   0.445   4.813   6.506 -2.8266 -0.4810  1.0620
   99SAPE   C3810000   0.550   4.881   6.318  0.1717 -0.7272  1.1055
   99SAPE   H8X10001   0.531   4.775   6.293 -1.9828 -0.0740 -0.3799
   99SAPE   H8Y10002   0.655   4.892   6.352  0.4674  0.1797 -0.0348
   99SAPE   C3910003   0.537   4.974   6.189 -0.2147  0.3750  0.7250
   99SAPE   H9X10004   0.634   4.954   6.137  0.5636 -0.3655  2.3902
   99SAPE   H9Y10005   0.541   5.078   6.227 -0.4580 -0.4959  3.2890
   99SAPE  C31010006   0.431   4.940   6.082  0.1646 -0.9667 -0.5299
   99SAPE  H10X10007   0.327   4.937   6.123 -0.1932  1.1187 -1.1639
   99SAPE  H10Y10008   0.465   4.856   6.018  3.4971  0.5285 -0.9022
   99SAPE  C31110009   0.416   5.070   5.991 -0.1454  0.0096 -0.0629
   99SAPE  H11X10010   0.519   5.109   5.977  0.4909 -1.4503  0.3465
   99SAPE  H11Y10011   0.359   5.150   6.042  0.3986  1.6944 -1.9812
   99SAPE  C31210012   0.348   5.036   5.864 -0.2236 -0.1989  0.0245
   99SAPE  H12X10013   0.283   5.120   5.832 -0.7127 -0.4882  0.2327
   99SAPE  H12Y10014   0.279   4.949   5.877  0.6887 -0.8801  0.3809
   99SAPE  C31310015   0.440   5.001   5.748 -0.9928 -0.4635 -0.2097
   99SAPE  H13X10016   0.497   4.912   5.779  1.5194  1.2135  0.2586
   99SAPE  H13Y10017   0.514   5.084   5.746 -0.7438 -0.6920 -0.7337
   99SAPE  C31410018   0.371   5.002   5.604  0.2603 -0.3554 -0.1482
   99SAPE  H14X10019   0.314   5.097   5.601 -0.9458 -1.0177  0.7410
   99SAPE  H14Y10020   0.285   4.931   5.604 -0.2444  0.2402  0.6596
   99SAPE  C31510021   0.465   4.985   5.491  0.2268 -0.0161  0.8966
   99SAPE  H15X10022   0.550   5.054   5.513  1.3443 -1.7599  2.4012
   99SAPE  H15Y10023   0.418   5.025   5.399  1.2594 -0.2774  0.2403
   99SAPE  C31610024   0.519   4.839   5.464  0.8036 -0.9639 -0.2521
   99SAPE  H16X10025   0.447   4.757   5.484 -0.1619 -0.3322 -1.0669
   99SAPE  H16Y10026   0.603   4.817   5.533  2.3809 -0.9832 -2.0890
   99SAPE  C31710027   0.570   4.815   5.319 -0.1687 -0.4395  0.2723
   99SAPE  H17X10028   0.484   4.795   5.252  1.2883 -1.4701 -1.3739
   99SAPE  H17Y10029   0.625   4.719   5.320 -0.6806 -0.7359  1.1377
   99SAPE  C31810030   0.649   4.922   5.245  0.0734 -0.0135 -0.1427
   99SAPE  H18X10031   0.645   4.887   5.140 -0.7016 -2.3505  0.6034
   99SAPE  H18Y10032   0.751   4.936   5.286 -0.4193  3.3196  0.1931
   99SAPE  H18Z10033   0.606   5.024   5.244  1.0024  0.4110 -2.1925
  100SAPE     N10034   2.598   4.277   7.172  0.0989 -0.7506  0.1838
  100SAPE   HN110035   2.623   4.364   7.223  1.1880 -0.3953 -0.9217
  100SAPE   HN210036   2.590   4.309   7.074 -1.2452  2.2863  1.1409
  100SAPE   HN310037   2.509   4.246   7.217  0.3004 -0.5218  0.7508
  100SAPE   C1210038   2.700   4.171   7.172 -0.0788  0.1613  0.3143
  100SAPE  H12A10039   2.669   4.086   7.108 -0.9506  1.2830 -0.8015
  100SAPE  H12B10040   2.709   4.129   7.274 -2.4208 -4.1532 -1.0163
  100SAPE   C1110041   2.844   4.217   7.147  0.8296 -0.2638  0.2387
  100SAPE  H11A10042   2.852   4.305   7.213 -1.2081  0.0273  0.1651
  100SAPE  H11B10043   2.845   4.247   7.040  1.7084 -2.8357 -0.5575
  100SAPE     P10044   3.084   4.145   7.130  0.0355 -0.2194  0.1627
  100SAPE   O1310045   3.132   4.270   7.191  0.0500 -0.1646  0.0032
  100SAPE   O1410046   3.155   4.020   7.164 -0.4017  0.6501 -0.3823
  100SAPE   O1210047   2.936   4.120   7.187 -0.6587 -0.5194 -0.7484
  100SAPE   O1110048   3.068   4.161   6.971 -0.2541 -0.0798  0.5593
  100SAPE    C110049   3.010   4.067   6.879 -0.1788  0.2383 -0.2533
  100SAPE    HA10050   3.082   3.982   6.887  1.2257  1.3922 -0.2179
  100SAPE    HB10051   2.905   4.036   6.897  0.3681 -1.5704  0.0423
  100SAPE    C210052   3.012   4.114   6.733  0.4117  0.1161 -0.0342
  100SAPE    HS10053   3.099   4.180   6.713  0.3755  0.3920  0.6849
  100SAPE   O2110054   2.889   4.185   6.722  0.3428 -0.1638  0.1454
  100SAPE   C2110055   2.877   4.268   6.615  0.1280 -0.5049  0.0208
  100SAPE   O2210056   2.956   4.277   6.523 -0.1217 -0.3077  0.2135
  100SAPE   C2210057   2.768   4.374   6.633 -0.9941  0.3041 -0.4217
  100SAPE   H2R10058   2.698   4.334   6.708 -2.2374  1.9102 -0.6694
  100SAPE   H2S10059   2.821   4.463   6.672 -0.6173 -0.1495  0.1141
  100SAPE    C310060   3.015   3.997   6.630 -0.4956 -0.4096  0.2551
  100SAPE    HX10061   3.016   4.035   6.526 -0.8241  0.3832  0.5340
  100SAPE    HY10062   2.921   3.937   6.635 -0.2278 -0.8543 -0.0223
  100SAPE   O3110063   3.122   3.903   6.655 -0.5598 -0.1102  0.2302
  100SAPE   C3110064   3.106   3.785   6.589  0.7855 -0.7123  0.3157
  100SAPE   O3210065   3.004   3.743   6.536  0.3756 -0.6596  0.2160
  100SAPE   C3210066   3.228   3.700   6.595 -0.2487  0.4446  0.7183
  100SAPE   H2X10067   3.227   3.651   6.695 -0.7659 -1.0245  0.0164
  100SAPE   H2Y10068   3.317   3.766   6.583  0.6403 -1.1285 -2.3646
  100SAPE   C2310069   2.686   4.410   6.503  0.6017  0.1437 -0.6767
  100SAPE   H3R10070   2.615   4.490   6.534 -1.0389 -1.9603  1.3814
  100SAPE   H3S10071   2.621   4.320   6.497 -1.1127  1.2565  0.3461
  100SAPE   C2410072   2.756   4.458   6.374 -0.4277 -0.2738 -0.1871
  100SAPE   H4R10073   2.801   4.371   6.320 -2.3145 -1.2621 -0.2525
  100SAPE   H4S10074   2.843   4.516   6.411  0.5896 -0.8137 -1.6592
  100SAPE   C2510075   2.668   4.544   6.277 -0.1999  0.1331  0.3894
  100SAPE   H5R10076   2.625   4.631   6.328  0.2569  1.1292 -0.8799
  100SAPE   C2610077   2.631   4.499   6.159  0.1504 -0.2149  0.5026
  100SAPE   H6R10078   2.577   4.575   6.099  2.3847  0.0184 -1.3371
  100SAPE   C2710079   2.660   4.376   6.084  0.0178 -0.0144  0.4388
  100SAPE   H7R10080   2.602   4.292   6.129  0.9766 -0.8572  0.1342
  100SAPE   H7S10081   2.769   4.361   6.098  0.2458  2.3730  1.8926
  100SAPE   C2810082   2.627   4.379   5.934  0.2178  0.5312 -0.4969
  100SAPE   H8R10083   2.524   4.368   5.899  0.1416  1.3027 -0.5253
  100SAPE   C2910084   2.715   4.380   5.836 -0.0940 -0.0594 -0.4993
  100SAPE   H9R10085   2.670   4.398   5.737 -1.8075  1.9947  0.5665
  100SAPE  C21010086   2.861   4.396   5.852 -0.1463  0.0019 -0.8937
  100SAPE  H10R10087   2.893   4.434   5.951 -3.2375  2.3155 -0.6503
  100SAPE  H10S10088   2.872   4.476   5.775 -2.3327  0.3366 -0.9291
  100SAPE  C21110089   2.943   4.272   5.810 -0.5229  0.4889 -0.2691
  100SAPE  H11R10090   2.954   4.193   5.886  4.0971  0.1928 -0.9212
  100SAPE  C21210091   3.012   4.273   5.696 -0.0790  0.1246  0.2475
  100SAPE  H12R10092   3.087   4.193   5.679  2.1758  1.9556  1.0414
  100SAPE  C21310093   3.023   4.379   5.597 -0.5350 -0.4913  0.1886
  100SAPE  H13R10094   3.090   4.460   5.633 -0.0982 -0.6390 -0.2683
  100SAPE  H13S10095   2.931   4.433   5.565 -0.7109 -0.6560  0.4159
  100SAPE  C21410096   3.079   4.327   5.463  0.3485  0.7125 -0.9083
  100SAPE  H14R10097   3.189   4.322   5.461  0.3390  0.0493 -3.2994
  100SAPE  C21510098   3.008   4.299   5.351  0.4678  0.4500  0.4969
  100SAPE  H15R10099   3.071   4.260   5.270 -0.7108 -0.6283  0.0840
  100SAPE  C21610100   2.861   4.308   5.335  0.8207  0.8175  0.3370
  100SAPE  H16R10101   2.832   4.413   5.353  0.9268  1.3510 -2.1394
  100SAPE  H16S10102   2.815   4.244   5.413 -1.2041  0.6848 -0.8992
  100SAPE  C21710103   2.820   4.281   5.192 -0.3400  0.4052  0.4369
  100SAPE  H17R10104   2.863   4.183   5.163  0.6593  0.9193  0.1100
  100SAPE  H17S10105   2.860   4.356   5.121 -1.8998 -1.7475 -2.9980
  100SAPE  C21810106   2.668   4.289   5.159 -0.6856 -0.2480 -0.2443
  100SAPE  H18R10107   2.648   4.398   5.162  1.2448  0.1211  0.7013
  100SAPE  H18S10108   2.608   4.244   5.241  0.3128 -2.1220 -0.4957
  100SAPE  C21910109   2.623   4.252   5.013 -0.1326  0.5024  0.9386
  100SAPE  H19R10110   2.639   4.144   4.992 -3.3245  0.3015 -1.2165
  100SAPE  H19S10111   2.676   4.316   4.940  0.6488 -1.6021 -0.4456
  100SAPE  C22010112   2.473   4.266   4.979 -0.1084 -0.7848  0.0206
  100SAPE  H20R10113   2.450   4.370   5.013 -1.3289 -0.7938 -0.7388
  100SAPE  H20S10114   2.414   4.196   5.042  0.7238 -0.6397  1.0002
  100SAPE  H20T10115   2.454   4.257   4.870 -2.5458  3.8471 -0.2040
  100SAPE   C3310116   3.247   3.607   6.473  0.4916  0.5257 -0.2569
  100SAPE   H3X10117   3.191   3.514   6.496  1.4444  0.3639  1.5638
  100SAPE   H3Y10118   3.354   3.577   6.478  0.9453  2.0550  4.5891
  100SAPE   C3410119   3.213   3.667   6.333  0.7246 -0.3699 -0.3407
  100SAPE   H4X10120   3.226   3.777   6.327 -0.7999  0.0318  2.2037
  100SAPE   H4Y10121   3.105   3.653   6.310  0.3346  0.9614  0.5868
  100SAPE   C3510122   3.304   3.598   6.227  0.2927 -1.0454  0.6299
  100SAPE   H5X10123   3.263   3.497   6.204 -1.3150  0.0548 -1.8476
  100SAPE   H5Y10124   3.409   3.588   6.260  0.1671  0.1137  1.4510
  100SAPE   C3610125   3.311   3.671   6.096  0.1878 -0.6518  0.5703
  100SAPE   H6X10126   3.380   3.758   6.103 -0.6528 -0.0422  1.6023
  100SAPE   H6Y10127   3.213   3.721   6.076  0.6061  0.7304  1.7935
  100SAPE   C3710128   3.336   3.579   5.977 -0.4936  0.3109  0.2715
  100SAPE   H7X10129   3.244   3.521   5.952 -1.6215  2.3392 -0.4876
  100SAPE   H7Y10130   3.417   3.504   5.990  0.2273  0.7541 -1.4028
  100SAPE   C3810131   3.376   3.652   5.845  0.0452 -0.5102  0.2282
  100SAPE   H8X10132   3.468   3.714   5.852  0.0555 -0.5586  0.5232
  100SAPE   H8Y10133   3.292   3.720   5.821  0.6962 -0.6709 -3.0235
  100SAPE   C3910134   3.368   3.565   5.725 -0.5378  0.1314  0.8129
  100SAPE   H9X10135   3.396   3.625   5.636 -1.6721  0.9210  0.9771
  100SAPE   H9Y10136   3.270   3.515   5.710 -0.1710 -0.6048  0.8237
  100SAPE  C31010137   3.468   3.451   5.717  0.0376 -0.5369 -0.3799
  100SAPE  H10X10138   3.445   3.378   5.798  1.4890  1.2972  1.8097
  100SAPE  H10Y10139   3.568   3.480   5.755 -0.0599 -0.3190 -0.2902
  100SAPE  C31110140   3.481   3.382   5.582 -0.4521  0.4411  0.4903
  100SAPE  H11X10141   3.401   3.422   5.516 -1.2275 -1.9239 -0.1193
  100SAPE  H11Y10142   3.482   3.271   5.593  0.8274  0.5782  2.1886
  100SAPE  C31210143   3.621   3.410   5.511  0.3965 -0.0580  0.0340
  100SAPE  H12X10144   3.711   3.379   5.568 -0.9107  0.7402  2.6783
  100SAPE  H12Y10145   3.628   3.521   5.509 -0.8902  0.0505  0.4417
  100SAPE  C31310146   3.620   3.358   5.366  0.7437  0.0770 -0.0133
  100SAPE  H13X10147   3.530   3.380   5.306  1.1979 -0.4024 -0.8741
  100SAPE  H13Y10148   3.630   3.248   5.369  1.5532  0.1224 -0.7503
  100SAPE  C31410149   3.733   3.428   5.293  0.7743  0.3385 -0.9380
  100SAPE  H14X10150   3.822   3.422   5.359 -0.1592  2.3486  0.6236
  100SAPE  H14Y10151   3.705   3.534   5.279 -1.3431 -0.0806 -0.3450
  100SAPE  C31510152   3.772   3.368   5.155  0.0330 -0.3362 -0.2639
  100SAPE  H15X10153   3.722   3.425   5.074  2.2486  0.9409 -0.7929
  100SAPE  H15Y10154   3.751   3.260   5.170  2.4526 -0.5266  2.8696
  100SAPE  C31610155   3.919   3.391   5.137  0.0507  0.0188  0.0491
  100SAPE  H16X10156   3.970   3.353   5.228  0.7304 -1.3158 -0.8516
  100SAPE  H16Y10157   3.943   3.498   5.124 -0.6087  0.1102 -0.5196
  100SAPE  C31710158   3.967   3.313   5.016  0.4655  0.2171  0.4852
  100SAPE  H17X10159   3.944   3.359   4.918 -0.1079 -1.9373 -0.4465
  100SAPE  H17Y10160   3.908   3.220   5.024 -1.9975  1.7724  1.4922
  100SAPE  C31810161   4.121   3.278   5.018  0.3129 -0.3883  0.2471
  100SAPE  H18X10162   4.147   3.210   5.102  0.0164  1.3853  1.8373
  100SAPE  H18Y10163   4.173   3.373   5.042  1.6021 -1.2171  0.8245
  100SAPE  H18Z10164   4.148   3.240   4.918 -0.5030  1.5318 -0.7575
  101SAPE     N10165   3.313   5.805   7.144  0.3418  0.1727  0.9257
  101SAPE   HN110166   3.220   5.772   7.176  0.4735 -0.2689  0.8738
  101SAPE   HN210167   3.307   5.908   7.148 -0.7398  0.1795 -0.2884
  101SAPE   HN310168   3.328   5.781   7.044 -0.5310 -1.4276  1.1403
  101SAPE   C1210169   3.422   5.754   7.236 -0.8425 -0.0645  0.5565
  101SAPE  H12A10170   3.415   5.643   7.241 -0.8354 -0.0798  0.1935
  101SAPE  H12B10171   3.406   5.786   7.342 -0.8822  1.4338  0.1198
  101SAPE   C1110172   3.569   5.796   7.189  0.5774 -0.4558 -0.4551
  101SAPE  H11A10173   3.588   5.905   7.204 -0.5172 -0.1302 -1.2947
  101SAPE  H11B10174   3.574   5.786   7.079  0.8194  0.0610 -0.4964
  101SAPE     P10175   3.708   5.570   7.226 -0.0416 -0.0340  0.3270
  101SAPE   O1310176   3.851   5.551   7.249 -0.5662  0.1951  0.2359
  101SAPE   O1410177   3.617   5.487   7.303  0.3153  0.0468 -0.1604
  101SAPE   O1210178   3.673   5.726   7.256 -0.4640  0.4976 -0.1538
  101SAPE   O1110179   3.672   5.552   7.070 -0.2670 -0.0105 -0.2135
  101SAPE    C110180   3.772   5.590   6.974  0.2261 -0.3072  0.0746
  101SAPE    HA10181   3.719   5.646   6.894 -2.2733 -0.5249  1.4531
  101SAPE    HB10182   3.848   5.662   7.012 -0.7977  1.1061 -0.4696
  101SAPE    C210183   3.834   5.472   6.911  0.1544 -0.0009  0.4256
  101SAPE    HS10184   3.904   5.427   6.985  0.3986  0.3189  0.3934
  101SAPE   O2110185   3.903   5.506   6.781  0.2265  0.1277  0.0506
  101SAPE   C2110186   4.010   5.431   6.759 -0.1707  0.1180 -0.3504
  101SAPE   O2210187   4.070   5.366   6.839 -0.3511  0.8339 -0.0676
  101SAPE   C2210188   4.052   5.461   6.617  0.3586 -0.2313  0.1072
  101SAPE   H2R10189   3.974   5.503   6.550  0.0255 -1.7461 -0.4913
  101SAPE   H2S10190   4.128   5.542   6.612  0.6922 -0.5742 -0.5044
  101SAPE    C310191   3.724   5.369   6.877 -0.5832 -0.6147  0.5136
  101SAPE    HX10192   3.673   5.425   6.795  1.0381  0.8913  0.4699
  101SAPE    HY10193   3.646   5.353   6.955 -2.2339 -0.5824 -1.0543
  101SAPE   O3110194   3.792   5.250   6.828 -0.4179  0.3290  0.1669
  101SAPE   C3110195   3.777   5.138   6.890 -0.0268 -1.3548 -0.7802
  101SAPE   O3210196   3.703   5.132   6.985 -0.5982  0.5843 -0.6424
  101SAPE   C3210197   3.854   5.024   6.828  0.6441  0.8139 -0.4770
  101SAPE   H2X10198   3.923   4.992   6.910 -0.0866  1.5805  0.4602
  101SAPE   H2Y10199   3.925   5.066   6.753  2.1564  1.2818  1.1461
  101SAPE   C2310200   4.113   5.345   6.535  0.3260  0.5789 -0.5058
  101SAPE   H3R10201   4.033   5.284   6.488  0.4414  0.3557 -0.4133
  101SAPE   H3S10202   4.166   5.280   6.606 -1.9498  0.9007  1.6270
  101SAPE   C2410203   4.221   5.385   6.429 -0.0625  0.4054  0.3703
  101SAPE   H4R10204   4.245   5.300   6.362 -1.9489  1.6244 -1.9890
  101SAPE   H4S10205   4.312   5.418   6.483  0.9017 -0.9295 -0.3866
  101SAPE   C2510206   4.161   5.493   6.331 -0.4968 -0.7485 -0.6730
  101SAPE   H5R10207   4.183   5.599   6.350 -3.3073 -0.2165  0.0377
  101SAPE   C2610208   4.088   5.470   6.223  0.2623 -0.4281 -0.0340
  101SAPE   H6R10209   4.058   5.557   6.163 -0.2600  0.1625  1.0565
  101SAPE   C2710210   4.062   5.328   6.162 -0.1738 -0.1377  0.0691
  101SAPE   H7R10211   3.960   5.328   6.117 -0.7534 -0.4287  1.3316
  101SAPE   H7S10212   4.058   5.252   6.243 -0.1452 -2.1941 -1.7827
  101SAPE   C2810213   4.169   5.300   6.062  0.6823  0.5179 -0.1907
  101SAPE   H8R10214   4.270   5.311   6.104 -0.9901  0.7295  4.3609
  101SAPE   C2910215   4.159   5.262   5.932  0.4817  0.1607 -0.2703
  101SAPE   H9R10216   4.250   5.235   5.878  0.9966  0.7653  0.2682
  101SAPE  C21010217   4.026   5.251   5.859  0.3421  0.0713  0.4999
  101SAPE  H10R10218   3.979   5.348   5.829 -1.9979 -1.2154 -0.2614
  101SAPE  H10S10219   3.953   5.213   5.934  0.9487  0.0838  1.1014
  101SAPE  C21110220   4.040   5.153   5.745  0.2559 -0.3867  0.8031
  101SAPE  H11R10221   4.078   5.055   5.777  2.0015 -0.7547 -2.0341
  101SAPE  C21210222   4.040   5.187   5.609  0.0805 -0.0130 -0.1970
  101SAPE  H12R10223   4.037   5.094   5.550 -3.6060 -0.3209  0.2422
  101SAPE  C21310224   4.023   5.315   5.531 -0.5751 -0.4284  0.1769
  101SAPE  H13R10225   4.103   5.387   5.555 -1.7598  0.3267  2.1199
  101SAPE  H13S10226   3.937   5.376   5.568 -0.6880  0.1358 -0.9566
  101SAPE  C21410227   4.018   5.294   5.384 -0.0835  0.4783  0.3283
  101SAPE  H14R10228   3.915   5.295   5.345 -0.0522  0.1571  0.2270
  101SAPE  C21510229   4.124   5.275   5.303 -0.2640 -0.3408 -0.1801
  101SAPE  H15R10230   4.087   5.265   5.200  0.7006  1.5644 -0.7575
  101SAPE  C21610231   4.270   5.284   5.317  0.5831  1.1778  0.3816
  101SAPE  H16R10232   4.309   5.316   5.416  0.2536  0.5165  0.7252
  101SAPE  H16S10233   4.308   5.352   5.237  1.5551 -1.3166 -1.3907
  101SAPE  C21710234   4.330   5.140   5.294  1.0353 -0.1596  0.0914
  101SAPE  H17R10235   4.436   5.152   5.264  0.9097  0.3725 -0.1538
  101SAPE  H17S10236   4.270   5.089   5.216 -1.8373 -2.8458  3.6688
  101SAPE  C21810237   4.320   5.058   5.424  0.2231 -0.5113  0.4657
  101SAPE  H18R10238   4.211   5.040   5.438 -0.1132  0.0045 -1.1581
  101SAPE  H18S10239   4.349   5.111   5.517 -1.1131 -2.4729  2.0965
  101SAPE  C21910240   4.378   4.918   5.417  0.3648 -0.3205  0.4216
  101SAPE  H19R10241   4.487   4.921   5.397  0.6262 -1.9206  1.4216
  101SAPE  H19S10242   4.327   4.862   5.336  3.7075 -0.9055 -1.4494
  101SAPE  C22010243   4.360   4.836   5.540  0.3247 -0.1162  0.3609
  101SAPE  H20R10244   4.417   4.893   5.616  1.3298 -0.7906  0.1346
  101SAPE  H20S10245   4.414   4.741   5.522 -1.0663 -0.3194 -3.8535
  101SAPE  H20T10246   4.253   4.820   5.566 -0.1065  2.0515  0.1234
  101SAPE   C3310247   3.754   4.924   6.774  0.1417  0.2530 -0.0279
  101SAPE   H3X10248   3.682   4.895   6.854  0.6421 -2.2908 -0.4136
  101SAPE   H3Y10249   3.796   4.827   6.741 -0.6553 -0.6287  1.4584
  101SAPE   C3410250   3.674   4.978   6.646 -0.1404 -0.0995 -0.8916
  101SAPE   H4X10251   3.601   5.056   6.673  1.1116  0.7090  0.2322
  101SAPE   H4Y10252   3.611   4.889   6.622  0.6976 -1.0158  0.1614
  101SAPE   C3510253   3.763   5.009   6.527  0.2884  0.0855  0.5403
  101SAPE   H5X10254   3.833   4.927   6.501  1.2809  0.6651  1.3293
  101SAPE   H5Y10255   3.824   5.101   6.541  1.0803 -0.7187  2.7131
  101SAPE   C3610256   3.669   5.033   6.402  0.2059  1.0270 -0.6350
  101SAPE   H6X10257   3.598   5.111   6.437  1.2839  2.1207 -0.8647
  101SAPE   H6Y10258   3.609   4.941   6.382 -1.2475  1.7408  0.2071
  101SAPE   C3710259   3.745   5.063   6.272 -0.9949 -1.1242 -0.1626
  101SAPE   H7X10260   3.831   4.993   6.265  0.6055  0.7854 -0.7163
  101SAPE   H7Y10261   3.785   5.166   6.288 -0.4108 -1.6796  2.4727
  101SAPE   C3810262   3.651   5.058   6.161  0.9177 -0.1494  0.0964
  101SAPE   H8X10263   3.566   5.122   6.193  2.2153  2.1006 -0.7635
  101SAPE   H8Y10264   3.612   4.954   6.162 -0.6631  0.4185  0.5771
  101SAPE   C3910265   3.703   5.090   6.013  0.0409  0.0314  0.2090
  101SAPE   H9X10266   3.790   5.022   6.001 -0.5434 -0.4727 -1.5182
  101SAPE   H9Y10267   3.752   5.190   6.019 -1.0668  0.5303  1.1577
  101SAPE  C31010268   3.602   5.098   5.904  0.6426 -0.3462 -0.4069
  101SAPE  H10X10269   3.519   5.161   5.944 -0.9628 -2.0613 -0.8632
  101SAPE  H10Y10270   3.552   5.002   5.880  0.0938 -0.6419  1.7167
  101SAPE  C31110271   3.655   5.168   5.780  0.0024  0.6877 -0.5803
  101SAPE  H11X10272   3.736   5.106   5.734 -0.4713  0.2936 -0.8985
  101SAPE  H11Y10273   3.708   5.261   5.807 -0.3816  0.6030  0.5193
  101SAPE  C31210274   3.551   5.196   5.678 -0.1395  0.1014 -0.7105
  101SAPE  H12X10275   3.484   5.279   5.711 -1.9931 -1.5037 -0.2564
  101SAPE  H12Y10276   3.480   5.115   5.648 -1.0181 -0.1455  1.7823
  101SAPE  C31310277   3.613   5.242   5.554 -0.0547  0.3928  0.8649
  101SAPE  H13X10278   3.657   5.157   5.497 -2.3838  0.9342 -1.9526
  101SAPE  H13Y10279   3.690   5.315   5.586 -0.0594  0.8315 -0.1112
  101SAPE  C31410280   3.520   5.321   5.462 -0.2008  0.4004 -0.3150
  101SAPE  H14X10281   3.454   5.388   5.522  1.7298  1.9495  0.1972
  101SAPE  H14Y10282   3.453   5.249   5.412  0.0374  0.6400 -0.9901
  101SAPE  C31510283   3.588   5.407   5.356  0.3198  0.2050 -0.5522
  101SAPE  H15X10284   3.673   5.461   5.404  1.6571 -1.8737 -0.4179
  101SAPE  H15Y10285   3.530   5.485   5.302 -0.6056 -2.4711 -3.7443
  101SAPE  C31610286   3.653   5.323   5.246  0.1302  0.2549 -0.4138
  101SAPE  H16X10287   3.577   5.258   5.198  1.5388 -1.4522 -0.4728
  101SAPE  H16Y10288   3.717   5.249   5.300 -1.6183  0.7435  2.5251
  101SAPE  C31710289   3.734   5.391   5.138  0.8888  0.2862 -0.1635
  101SAPE  H17X10290   3.838   5.421   5.164  0.5628  1.9686 -0.6281
  101SAPE  H17Y10291   3.693   5.482   5.088  1.3317  0.3574 -0.4031
  101SAPE  C31810292   3.759   5.290   5.025  0.3197 -0.2857  0.2533
  101SAPE  H18X10293   3.807   5.198   5.065 -0.1254  0.1682  1.8928
  101SAPE  H18Y10294   3.834   5.338   4.958 -0.0763  1.5800  1.0984
  101SAPE  H18Z10295   3.666   5.267   4.969 -0.2527 -0.1646  1.1391
  102SAPE     N10296   3.404   5.323   7.366 -0.6330  0.4047  0.1128
  102SAPE   HN110297   3.478   5.395   7.380 -1.6489  1.7783 -1.2247
  102SAPE   HN210298   3.419   5.270   7.278 -1.0802 -0.3637  0.4871
  102SAPE   HN310299   3.328   5.389   7.340 -0.0999  1.4394  1.0730
  102SAPE   C1210300   3.347   5.242   7.477 -0.6590 -0.2641  0.1124
  102SAPE  H12A10301   3.347   5.314   7.562 -1.3671  1.5269 -1.3340
  102SAPE  H12B10302   3.419   5.159   7.487 -1.8134 -1.7331 -2.6123
  102SAPE   C1110303   3.211   5.191   7.452  0.2664  0.6268 -0.2051
  102SAPE  H11A10304   3.135   5.271   7.463  0.1997  0.2235  3.5229
  102SAPE  H11B10305   3.175   5.126   7.534 -1.2019  0.8121 -0.6879
  102SAPE     P10306   3.087   5.037   7.273  0.2035  0.2721 -0.2685
  102SAPE   O1310307   3.024   4.974   7.389  0.6599  0.3283  0.5672
  102SAPE   O1410308   2.999   5.108   7.181 -0.1490 -0.2905 -0.2295
  102SAPE   O1210309   3.209   5.127   7.320  0.2767  0.1230 -0.0333
  102SAPE   O1110310   3.155   4.920   7.189 -0.1608 -0.3186 -0.0319
  102SAPE    C110311   3.274   4.943   7.112  0.1550 -0.9815  0.2012
  102SAPE    HA10312   3.355   4.993   7.168 -1.0657 -0.8189  1.9212
  102SAPE    HB10313   3.315   4.841   7.091 -0.5328 -1.2680  0.2220
  102SAPE    C210314   3.241   5.032   6.985 -0.4760  0.2642 -1.0191
  102SAPE    HS10315   3.229   5.138   7.014 -1.3314  0.0610 -0.6060
  102SAPE   O2110316   3.124   4.987   6.920 -0.7294 -0.1528 -0.2595
  102SAPE   C2110317   3.059   5.077   6.846  0.0408 -0.3545  0.2212
  102SAPE   O2210318   3.083   5.196   6.841 -0.0860 -0.2519 -0.3238
  102SAPE   C2210319   2.947   5.016   6.771  0.8479 -0.0911 -0.1385
  102SAPE   H2R10320   2.890   5.099   6.723  2.1811 -0.3269 -2.2910
  102SAPE   H2S10321   2.992   4.957   6.689  0.9347 -1.1270  0.6389
  102SAPE    C310322   3.358   5.013   6.885 -0.3862 -0.3075 -0.5409
  102SAPE    HX10323   3.366   4.905   6.858 -2.3021 -1.2722  2.2657
  102SAPE    HY10324   3.456   5.037   6.930  0.3189  1.1779 -2.7188
  102SAPE   O3110325   3.333   5.096   6.767 -0.3163 -0.0313  0.1190
  102SAPE   C3110326   3.376   5.221   6.775  0.3982  0.0426 -0.0988
  102SAPE   O3210327   3.422   5.272   6.877  0.4835  0.1273  0.3659
  102SAPE   C3210328   3.381   5.278   6.637  0.0932  0.6785 -0.4877
  102SAPE   H2X10329   3.485   5.261   6.604 -0.0465 -1.7638  0.0747
  102SAPE   H2Y10330   3.366   5.388   6.642  1.5327  0.8508  0.6995
  102SAPE   C2310331   2.844   4.934   6.856 -0.1485  0.8810  1.2039
  102SAPE   H3R10332   2.800   5.010   6.924  1.0845  3.6253 -0.9029
  102SAPE   H3S10333   2.900   4.859   6.916  1.1823  0.2995 -0.6806
  102SAPE   C2410334   2.735   4.864   6.771  0.2488  0.5091  0.5861
  102SAPE   H4R10335   2.682   4.946   6.718 -0.6418 -0.6905 -0.4392
  102SAPE   H4S10336   2.661   4.808   6.833 -1.0342 -1.5104 -2.5224
  102SAPE   C2510337   2.787   4.766   6.665  0.0363  0.2673 -0.6342
  102SAPE   H5R10338   2.801   4.665   6.704  0.5093  0.3167 -0.6689
  102SAPE   C2610339   2.807   4.801   6.533  0.8921  0.1268  0.2840
  102SAPE   H6R10340   2.845   4.734   6.455  1.7309  1.8270 -0.8361
  102SAPE   C2710341   2.781   4.937   6.475  0.0213 -0.7658  0.3860
  102SAPE   H7R10342   2.871   4.973   6.420 -1.1253  1.5636 -0.1196
  102SAPE   H7S10343   2.758   5.020   6.546 -0.8216 -0.3383 -0.3567
  102SAPE   C2810344   2.661   4.925   6.379 -0.5976  0.1586 -0.5924
  102SAPE   H8R10345   2.565   4.918   6.432 -0.7419 -0.8286 -0.9535
  102SAPE   C2910346   2.662   4.943   6.247  0.0258 -0.9662  0.8011
  102SAPE   H9R10347   2.564   4.930   6.199 -0.8707  0.9735  1.9767
  102SAPE  C21010348   2.783   4.952   6.157  0.1039 -0.2519  0.3213
  102SAPE  H10R10349   2.873   4.993   6.208  0.6012 -0.2411 -0.5564
  102SAPE  H10S10350   2.759   5.023   6.076 -1.1466 -2.1416 -1.0714
  102SAPE  C21110351   2.804   4.812   6.104  1.0343  0.5707  0.4390
  102SAPE  H11R10352   2.854   4.746   6.177  0.7961  0.3188  0.3764
  102SAPE  C21210353   2.773   4.763   5.984 -0.2480  0.0882 -0.3324
  102SAPE  H12R10354   2.806   4.664   5.951  0.6863  0.4498 -0.5203
  102SAPE  C21310355   2.713   4.862   5.879  0.3846  0.9644 -0.6485
  102SAPE  H13R10356   2.792   4.914   5.820  0.4815  0.8381 -0.6313
  102SAPE  H13S10357   2.649   4.942   5.920  1.1901  1.3018 -0.0187
  102SAPE  C21410358   2.627   4.770   5.798 -0.6624 -0.2534 -0.3861
  102SAPE  H14R10359   2.575   4.695   5.860 -0.6496 -0.4498 -0.6136
  102SAPE  C21510360   2.630   4.752   5.668  0.0969  0.2620  0.4207
  102SAPE  H15R10361   2.573   4.667   5.629  0.4941 -0.0400  0.4909
  102SAPE  C21610362   2.708   4.828   5.566  0.5504  0.1776  0.1412
  102SAPE  H16R10363   2.696   4.936   5.586 -2.7704 -0.0614 -0.0037
  102SAPE  H16S10364   2.659   4.808   5.468 -0.2114 -0.3735  0.6212
  102SAPE  C21710365   2.850   4.762   5.555 -0.4087 -0.7724 -0.8027
  102SAPE  H17R10366   2.836   4.652   5.549 -1.5796 -0.6801 -0.1346
  102SAPE  H17S10367   2.910   4.787   5.645 -1.7763  2.0823 -0.5701
  102SAPE  C21810368   2.926   4.813   5.436  0.2377 -0.6964 -0.2173
  102SAPE  H18R10369   3.032   4.787   5.458  0.4364  0.2225 -0.0422
  102SAPE  H18S10370   2.905   4.921   5.423  0.0555 -0.7702 -0.5381
  102SAPE  C21910371   2.891   4.748   5.306 -0.1308  0.9561  1.0255
  102SAPE  H19R10372   2.781   4.730   5.300  0.3132 -1.8015 -1.7613
  102SAPE  H19S10373   2.936   4.646   5.305 -0.0053  0.9390  3.4711
  102SAPE  C22010374   2.944   4.827   5.182 -0.2775  0.4036  0.0160
  102SAPE  H20R10375   2.946   4.768   5.088  1.1245  1.2620 -0.5261
  102SAPE  H20S10376   3.049   4.862   5.198  0.4114 -2.0593  1.3165
  102SAPE  H20T10377   2.889   4.918   5.150 -1.4602 -0.0427  0.7349
  102SAPE   C3310378   3.292   5.196   6.527  0.6896 -0.3383  0.3671
  102SAPE   H3X10379   3.182   5.193   6.544  0.7618  0.2687  0.9965
  102SAPE   H3Y10380   3.340   5.096   6.522  2.9753  0.4990  2.8831
  102SAPE   C3410381   3.303   5.262   6.391 -0.3543 -0.2465  0.3795
  102SAPE   H4X10382   3.404   5.302   6.366 -0.3285  0.4658  1.5419
  102SAPE   H4Y10383   3.244   5.354   6.376 -1.2052 -0.4068  2.4255
  102SAPE   C3510384   3.263   5.167   6.275  0.6004  0.0045 -0.0350
  102SAPE   H5X10385   3.160   5.134   6.296  0.7127 -1.4876 -1.5672
  102SAPE   H5Y10386   3.324   5.074   6.278  0.4534 -0.0695  1.6473
  102SAPE   C3610387   3.257   5.224   6.132 -0.1751  0.8762  1.2095
  102SAPE   H6X10388   3.359   5.249   6.095  0.5669 -2.3697  0.7189
  102SAPE   H6Y10389   3.189   5.311   6.120 -0.8719  0.2041  0.1261
  102SAPE   C3710390   3.185   5.117   6.043  0.0129  0.1338  0.0585
  102SAPE   H7X10391   3.093   5.084   6.095  0.5271 -0.0235  0.8873
  102SAPE   H7Y10392   3.243   5.022   6.032  0.7546  0.6564 -0.7197
  102SAPE   C3810393   3.160   5.167   5.898 -0.0073  0.3327 -0.0952
  102SAPE   H8X10394   3.255   5.194   5.848  0.2289 -0.0575  0.1393
  102SAPE   H8Y10395   3.094   5.256   5.899 -1.2947 -0.5745  1.6979
  102SAPE   C3910396   3.112   5.056   5.814  0.4179 -0.4766  0.8182
  102SAPE   H9X10397   3.012   5.030   5.854 -1.2677  1.7450 -1.6136
  102SAPE   H9Y10398   3.171   4.962   5.822  0.4414 -0.6425 -0.8990
  102SAPE  C31010399   3.095   5.084   5.657 -0.5214 -0.1008 -0.1160
  102SAPE  H10X10400   3.036   5.001   5.614 -1.9030  1.4327 -1.3394
  102SAPE  H10Y10401   3.194   5.091   5.607 -1.0752  0.6106 -1.1583
  102SAPE  C31110402   3.017   5.208   5.603 -0.0033 -0.7421 -0.1628
  102SAPE  H11X10403   3.051   5.289   5.671 -2.4886  0.2157  0.0480
  102SAPE  H11Y10404   2.910   5.192   5.627 -0.0355 -1.4660 -0.7794
  102SAPE  C31210405   3.025   5.240   5.454 -0.7977 -0.1416 -0.0645
  102SAPE  H12X10406   2.960   5.328   5.439  1.2421  1.4251 -0.1755
  102SAPE  H12Y10407   2.984   5.153   5.398  2.2799 -0.9516 -1.3056
  102SAPE  C31310408   3.161   5.289   5.396  0.2883  0.1850  0.3656
  102SAPE  H13X10409   3.235   5.206   5.395 -0.0938 -0.1506  0.0319
  102SAPE  H13Y10410   3.205   5.382   5.438  0.9533  1.1558 -2.2946
  102SAPE  C31410411   3.142   5.329   5.251  0.1953  0.1513  0.2472
  102SAPE  H14X10412   3.050   5.392   5.244 -0.2185 -0.5840 -1.6322
  102SAPE  H14Y10413   3.101   5.236   5.207 -1.1731 -0.4442  2.5793
  102SAPE  C31510414   3.276   5.373   5.184  0.2898  0.5744 -0.4229
  102SAPE  H15X10415   3.338   5.280   5.179  0.2825  0.6286 -3.5740
  102SAPE  H15Y10416   3.319   5.449   5.253  1.0738  0.0202 -0.2883
  102SAPE  C31610417   3.255   5.424   5.035 -0.2598  0.1955  0.3256
  102SAPE  H16X10418   3.167   5.491   5.039 -1.3982 -1.0822 -1.6553
  102SAPE  H16Y10419   3.203   5.339   4.987 -1.0930  0.5319  0.6140
  102SAPE  C31710420   3.365   5.503   4.965 -0.6891 -0.1118 -0.2038
  102SAPE  H17X10421   3.329   5.539   4.867 -0.6424 -1.4037 -0.7191
  102SAPE  H17Y10422   3.447   5.430   4.945 -2.4309 -1.5046 -2.6846
  102SAPE  C31810423   3.426   5.610   5.044 -0.2431 -0.1169 -0.4628
  102SAPE  H18X10424   3.495   5.669   4.981  1.4287 -1.5606 -0.0484
  102SAPE  H18Y10425   3.472   5.570   5.137  0.1877  0.6717 -0.3321
  102SAPE  H18Z10426   3.351   5.687   5.072  1.7918  2.0757 -0.7030
  103SAPE     N10427   3.680   0.136   2.658  0.0111  0.2503 -0.6269
  103SAPE   HN110428   3.587   0.113   2.698 -0.6079  1.4478 -1.3282
  103SAPE   HN210429   3.758   0.076   2.693  0.7896  2.3394  1.5445
  103SAPE   HN310430   3.717   0.226   2.696  1.8560 -1.3049  1.5434
  103SAPE   C1210431   3.685   0.135   2.508  0.2277  0.0130 -0.3050
  103SAPE  H12A10432   3.762   0.060   2.478 -1.7920 -2.2733 -0.0491
  103SAPE  H12B10433   3.715   0.236   2.472  1.4760 -0.0940  0.3554
  103SAPE   C1110434   3.550   0.093   2.449  0.6347 -0.0480  0.3594
  103SAPE  H11A10435   3.547   0.099   2.338  3.8095 -0.9824  0.1285
  103SAPE  H11B10436   3.468   0.154   2.492 -1.7593 -1.0799 -2.3983
  103SAPE     P10437   3.426  -0.105   2.586 -0.0736  0.6883 -0.1214
  103SAPE   O1310438   3.286  -0.102   2.541 -0.3443  0.7176  0.1960
  103SAPE   O1410439   3.470  -0.241   2.629 -0.5111  0.5785 -0.0466
  103SAPE   O1210440   3.526  -0.042   2.482 -0.6604 -0.0928 -0.2059
  103SAPE   O1110441   3.448   0.006   2.706 -0.2007 -0.1361  0.4117
  103SAPE    C110442   3.340   0.061   2.770 -0.3632  0.4779  0.1797
  103SAPE    HA10443   3.300   0.147   2.713 -1.2080  1.2664  1.8917
  103SAPE    HB10444   3.251  -0.004   2.777  0.1507 -0.6580 -2.6805
  103SAPE    C210445   3.371   0.109   2.911 -0.1535  0.2127 -0.4864
  103SAPE    HS10446   3.445   0.189   2.886  1.7922 -1.8793 -1.8791
  103SAPE   O2110447   3.425   0.010   2.998 -0.2073  0.3093  0.5409
  103SAPE   C2110448   3.553  -0.026   2.974  0.3869 -0.4563  0.3018
  103SAPE   O2210449   3.632   0.043   2.915  1.0646  0.0640 -0.5244
  103SAPE   C2210450   3.590  -0.159   3.037  0.1177 -0.1670 -0.2502
  103SAPE   H2R10451   3.499  -0.223   3.037  0.5797 -0.9604  2.9953
  103SAPE   H2S10452   3.668  -0.208   2.975  2.5459  0.5482  2.0789
  103SAPE    C310453   3.249   0.172   2.986  0.3825 -0.0036  0.0998
  103SAPE    HX10454   3.192   0.082   3.018 -0.4498  0.7791  0.9026
  103SAPE    HY10455   3.192   0.231   2.910 -0.0974  2.6945  2.4124
  103SAPE   O3110456   3.289   0.253   3.097  0.4839  0.0218 -0.0211
  103SAPE   C3110457   3.194   0.274   3.180  0.7839  0.3273 -0.0875
  103SAPE   O3210458   3.087   0.212   3.183  0.2961 -0.1644 -0.5433
  103SAPE   C3210459   3.240   0.376   3.285  0.1165 -0.0262 -0.2531
  103SAPE   H2X10460   3.223   0.478   3.243 -2.6052 -0.0753  0.5584
  103SAPE   H2Y10461   3.348   0.355   3.301 -0.1483 -1.3326 -0.0577
  103SAPE   C2310462   3.649  -0.159   3.177 -0.0878  0.7040 -0.5172
  103SAPE   H3R10463   3.573  -0.113   3.243  0.8628 -0.8574  1.7981
  103SAPE   H3S10464   3.730  -0.084   3.181 -0.7265  1.3957 -0.4597
  103SAPE   C2410465   3.678  -0.302   3.230  0.2974  0.6063  0.6866
  103SAPE   H4R10466   3.752  -0.307   3.312  0.2408  0.4420  0.7283
  103SAPE   H4S10467   3.737  -0.361   3.156  3.7801  2.2122  1.9866
  103SAPE   C2510468   3.544  -0.369   3.262 -0.7096  0.0591 -0.0454
  103SAPE   H5R10469   3.472  -0.390   3.181 -1.2873 -0.8150  0.6801
  103SAPE   C2610470   3.506  -0.395   3.391  0.4088 -0.5610 -0.0060
  103SAPE   H6R10471   3.406  -0.437   3.406  0.1358 -0.3613 -1.1398
  103SAPE   C2710472   3.592  -0.369   3.515  0.2707  0.2126  0.0349
  103SAPE   H7R10473   3.588  -0.260   3.532 -0.2103  1.1518 -4.5813
  103SAPE   H7S10474   3.694  -0.405   3.486 -0.4173  0.0721 -2.4226
  103SAPE   C2810475   3.535  -0.444   3.634 -0.3430  0.0391  0.9614
  103SAPE   H8R10476   3.518  -0.551   3.617  1.0127 -0.4050  2.2192
  103SAPE   C2910477   3.493  -0.397   3.752 -0.0911  0.6083  0.0231
  103SAPE   H9R10478   3.455  -0.473   3.822 -0.7236 -0.0482 -1.0118
  103SAPE  C21010479   3.502  -0.253   3.796 -0.8289  0.0851 -0.5045
  103SAPE  H10R10480   3.403  -0.236   3.842 -0.1109 -1.7218  1.8949
  103SAPE  H10S10481   3.515  -0.175   3.717  1.0520  0.1015 -0.2287
  103SAPE  C21110482   3.604  -0.243   3.910  0.8332 -0.2785  0.2575
  103SAPE  H11R10483   3.706  -0.261   3.872  0.3165 -1.0812 -0.7908
  103SAPE  C21210484   3.588  -0.195   4.036 -0.3130 -0.4102 -0.7910
  103SAPE  H12R10485   3.674  -0.186   4.105 -1.1157 -2.4576  0.5898
  103SAPE  C21310486   3.454  -0.155   4.096 -0.2346 -0.7275  0.2951
  103SAPE  H13R10487   3.407  -0.242   4.146 -0.4770  0.2299  1.7681
  103SAPE  H13S10488   3.375  -0.127   4.023  0.4285 -2.1930 -1.0577
  103SAPE  C21410489   3.473  -0.048   4.195 -0.1429 -0.0350  0.0316
  103SAPE  H14R10490   3.507   0.044   4.146 -1.3057  0.5843  0.3671
  103SAPE  C21510491   3.473  -0.054   4.332  0.0289  0.0653  0.3987
  103SAPE  H15R10492   3.489   0.035   4.395 -2.7086  0.4001  0.7558
  103SAPE  C21610493   3.447  -0.174   4.419 -1.0739  0.7346 -0.3038
  103SAPE  H16R10494   3.475  -0.264   4.359 -1.2619 -1.4986  2.7257
  103SAPE  H16S10495   3.341  -0.189   4.446 -0.7724  0.6736  0.8772
  103SAPE  C21710496   3.532  -0.184   4.551 -0.2383  0.6120  0.0862
  103SAPE  H17R10497   3.638  -0.178   4.516  0.1705 -3.1037  0.2631
  103SAPE  H17S10498   3.521  -0.280   4.605  0.2322  0.7004  0.3520
  103SAPE  C21810499   3.502  -0.074   4.652 -0.4371 -0.2827  0.3214
  103SAPE  H18R10500   3.400  -0.041   4.625  0.5749  1.6870 -1.4813
  103SAPE  H18S10501   3.563   0.018   4.638  0.9262 -1.3865 -1.5231
  103SAPE  C21910502   3.513  -0.111   4.796 -0.4589  0.0504  0.9129
  103SAPE  H19R10503   3.553  -0.019   4.843 -0.2354 -0.3951  1.6121
  103SAPE  H19S10504   3.590  -0.188   4.819  2.3084  2.2255 -0.3722
  103SAPE  C22010505   3.391  -0.158   4.878 -0.2749 -0.2422 -0.6166
  103SAPE  H20R10506   3.419  -0.206   4.975  2.7180  1.5010 -0.4865
  103SAPE  H20S10507   3.331  -0.233   4.822 -0.1318 -0.7927 -0.0505
  103SAPE  H20T10508   3.336  -0.065   4.904  1.9143  1.0503 -0.2739
  103SAPE   C3310509   3.170   0.366   3.419 -0.3920  0.3386  0.0188
  103SAPE   H3X10510   3.060   0.372   3.404 -0.2019  3.1142 -0.6536
  103SAPE   H3Y10511   3.196   0.454   3.481 -2.3811  0.6443  0.4844
  103SAPE   C3410512   3.202   0.239   3.507 -0.7126 -0.1502  0.4594
  103SAPE   H4X10513   3.309   0.211   3.512 -1.0539 -1.3672  1.5870
  103SAPE   H4Y10514   3.157   0.149   3.460  1.2267 -0.7547 -0.3620
  103SAPE   C3510515   3.132   0.251   3.643 -0.4216  0.2013 -0.5546
  103SAPE   H5X10516   3.123   0.149   3.685  0.5326  1.0046  1.8087
  103SAPE   H5Y10517   3.035   0.305   3.641 -0.2147  0.7727  1.7155
  103SAPE   C3610518   3.225   0.324   3.740  0.3023 -0.3729 -0.0805
  103SAPE   H6X10519   3.255   0.429   3.720  3.8794 -1.5391 -1.6037
  103SAPE   H6Y10520   3.324   0.275   3.733 -0.1983 -1.4460  0.0830
  103SAPE   C3710521   3.187   0.317   3.887 -0.0336  0.9404  0.1115
  103SAPE   H7X10522   3.266   0.330   3.964 -0.2401  0.3535  0.4297
  103SAPE   H7Y10523   3.170   0.209   3.907 -1.0139  1.3839  1.9446
  103SAPE   C3810524   3.065   0.397   3.937  0.1031 -0.4793  0.3871
  103SAPE   H8X10525   2.980   0.354   3.880  0.1149 -0.5078  0.3908
  103SAPE   H8Y10526   3.073   0.500   3.896 -2.1878 -0.9296 -1.3581
  103SAPE   C3910527   3.055   0.401   4.085  0.1269 -1.0435  0.1376
  103SAPE   H9X10528   2.965   0.460   4.114 -0.0471 -1.1270 -0.2203
  103SAPE   H9Y10529   3.135   0.457   4.137 -0.2399 -0.5653  0.1959
  103SAPE  C31010530   3.036   0.260   4.142  0.3083  0.7719 -0.4262
  103SAPE  H10X10531   3.133   0.210   4.122  0.1293  1.1200 -2.3967
  103SAPE  H10Y10532   2.963   0.191   4.094  0.9096 -0.4999  0.4084
  103SAPE  C31110533   3.003   0.257   4.292  0.2269  0.4472 -0.1650
  103SAPE  H11X10534   2.900   0.290   4.315  1.0336  1.6246  2.1273
  103SAPE  H11Y10535   3.072   0.329   4.341  1.5766 -0.1511 -1.1132
  103SAPE  C31210536   3.022   0.119   4.349  0.0592  0.3993  0.1624
  103SAPE  H12X10537   3.105   0.060   4.305  0.0468 -1.4575  2.4853
  103SAPE  H12Y10538   2.926   0.063   4.348  1.0136 -1.3817 -1.8208
  103SAPE  C31310539   3.066   0.126   4.497  0.2008  0.0223  0.1932
  103SAPE  H13X10540   3.002   0.205   4.541 -0.5278 -0.3461 -0.1927
  103SAPE  H13Y10541   3.169   0.164   4.516 -1.2250  2.9201  3.0882
  103SAPE  C31410542   3.037  -0.002   4.582 -0.6241  0.3751  0.5326
  103SAPE  H14X10543   3.119  -0.073   4.560 -0.3131  0.7357  0.5223
  103SAPE  H14Y10544   2.944  -0.040   4.533 -0.0643  0.2252 -0.4327
  103SAPE  C31510545   3.015   0.038   4.727  0.1167  0.3983 -0.1515
  103SAPE  H15X10546   2.949   0.127   4.716  0.6378  0.8128  0.0491
  103SAPE  H15Y10547   3.116   0.060   4.769 -0.1432  1.0478  0.1498
  103SAPE  C31610548   2.946  -0.068   4.817  0.4107  0.9096  0.3001
  103SAPE  H16X10549   3.016  -0.154   4.826  0.2685  0.7862  0.2337
  103SAPE  H16Y10550   2.858  -0.113   4.767  0.9490 -0.7165  0.7312
  103SAPE  C31710551   2.897  -0.025   4.960 -0.8221 -0.1069  0.3365
  103SAPE  H17X10552   2.848  -0.110   5.012  0.0606 -1.3885 -0.8505
  103SAPE  H17Y10553   2.817   0.052   4.950 -2.6473 -2.2249 -3.5624
  103SAPE  C31810554   3.019   0.029   5.035 -0.4630  0.4727 -0.8952
  103SAPE  H18X10555   3.053   0.129   5.003  1.6797  0.0122 -0.2381
  103SAPE  H18Y10556   3.108  -0.037   5.023  0.1793  0.3150  3.0795
  103SAPE  H18Z10557   3.001   0.023   5.145 -0.2318  1.2770 -0.8097
  104SAPE     N10558   4.549   5.911   2.664 -0.2823  0.5224  0.2557
  104SAPE   HN110559   4.605   5.996   2.641  1.4421 -1.0396 -1.8263
  104SAPE   HN210560   4.598   5.866   2.744  0.3861 -1.5792 -1.2143
  104SAPE   HN310561   4.548   5.847   2.582 -0.1588 -0.0251  0.6736
  104SAPE   C1210562   4.415   5.929   2.713  0.2121 -0.3718  0.0283
  104SAPE  H12A10563   4.361   5.974   2.626  3.3835 -0.8991 -2.3746
  104SAPE  H12B10564   4.410   6.016   2.783  1.1581 -0.8889  0.7619
  104SAPE   C1110565   4.355   5.806   2.773  0.2328 -0.8263  0.1295
  104SAPE  H11A10566   4.364   5.716   2.708  0.0321 -1.3138  0.7681
  104SAPE  H11B10567   4.246   5.824   2.779  0.2207 -0.4643 -0.9097
  104SAPE     P10568   4.387   5.653   2.970  0.2156 -0.1913 -0.5003
  104SAPE   O1310569   4.401   5.548   2.858 -0.2089  0.5998 -0.0274
  104SAPE   O1410570   4.475   5.639   3.088  0.5393 -0.2485 -0.1491
  104SAPE   O1210571   4.415   5.793   2.904  0.6200  0.6981  0.2638
  104SAPE   O1110572   4.237   5.667   3.017 -0.0045  0.5723 -0.4482
  104SAPE    C110573   4.198   5.787   3.090  0.0141 -0.5056 -0.1629
  104SAPE    HA10574   4.266   5.874   3.079  1.8508 -1.4510  2.8442
  104SAPE    HB10575   4.092   5.816   3.071 -0.4355 -0.3075  2.3358
  104SAPE    C210576   4.201   5.764   3.252  0.7421  0.5991 -0.2452
  104SAPE    HS10577   4.304   5.728   3.273  1.0923 -0.6543 -3.5011
  104SAPE   O2110578   4.098   5.666   3.276 -0.1892  0.6672  0.7251
  104SAPE   C2110579   4.136   5.570   3.370 -0.4605  0.2751 -0.5008
  104SAPE   O2210580   4.246   5.564   3.419  0.3060 -0.5341 -0.1229
  104SAPE   C2210581   4.017   5.475   3.390 -0.2385 -0.5555  0.4943
  104SAPE   H2R10582   3.963   5.455   3.296  2.8426 -2.7746 -0.9955
  104SAPE   H2S10583   4.063   5.380   3.425  3.1016 -0.0299 -1.9819
  104SAPE    C310584   4.173   5.886   3.332  0.4581  0.8300  0.4869
  104SAPE    HX10585   4.063   5.895   3.322  0.0903 -1.9895  1.1988
  104SAPE    HY10586   4.230   5.974   3.293  1.5797  0.1110  0.4556
  104SAPE   O3110587   4.203   5.864   3.476  0.5097 -0.1252  0.2559
  104SAPE   C3110588   4.180   5.983   3.547 -0.0480  0.0079  0.1439
  104SAPE   O3210589   4.169   6.090   3.492 -0.3805 -0.4482  0.7019
  104SAPE   C3210590   4.218   5.954   3.689  0.2519 -0.4250 -0.1281
  104SAPE   H2X10591   4.206   6.042   3.757 -1.5709 -1.1958  0.5998
  104SAPE   H2Y10592   4.322   5.915   3.686  1.2557  2.0182  0.0727
  104SAPE   C2310593   3.923   5.522   3.500 -0.7460  0.0745  0.0134
  104SAPE   H3R10594   3.860   5.607   3.467  0.5223  2.4784  3.1871
  104SAPE   H3S10595   3.981   5.562   3.587 -0.9791  0.5510 -0.0451
  104SAPE   C2410596   3.829   5.409   3.544  0.9481  0.3536 -0.2415
  104SAPE   H4R10597   3.780   5.365   3.454  0.0744  1.7457 -0.4909
  104SAPE   H4S10598   3.744   5.441   3.609  1.7139 -1.8596  2.0282
  104SAPE   C2510599   3.894   5.297   3.624  0.3561  0.7956 -0.1189
  104SAPE   H5R10600   3.947   5.226   3.559 -1.2092 -0.1548 -0.4162
  104SAPE   C2610601   3.889   5.275   3.759 -0.0283 -0.3586  0.5837
  104SAPE   H6R10602   3.938   5.184   3.796  1.9501  0.7704  0.8958
  104SAPE   C2710603   3.823   5.348   3.871  0.3670  0.6283  0.4099
  104SAPE   H7R10604   3.771   5.271   3.931 -0.3840  0.9877  0.2439
  104SAPE   H7S10605   3.746   5.413   3.823 -0.2708  0.7114  1.5063
  104SAPE   C2810606   3.921   5.434   3.951  0.2416  0.3547 -0.0208
  104SAPE   H8R10607   3.994   5.493   3.895 -0.0791  1.2286  0.4596
  104SAPE   C2910608   3.937   5.436   4.085  0.7160 -0.3732 -0.0615
  104SAPE   H9R10609   4.013   5.500   4.133 -0.4682  0.8758  0.1872
  104SAPE  C21010610   3.855   5.346   4.177  0.6773 -0.7046 -1.0223
  104SAPE  H10R10611   3.844   5.242   4.139 -0.6264 -1.1442  0.4229
  104SAPE  H10S10612   3.750   5.382   4.180  0.2802 -1.7416 -1.7808
  104SAPE  C21110613   3.910   5.335   4.319  0.3218 -0.1620  0.6665
  104SAPE  H11R10614   3.923   5.230   4.351  0.7397 -0.9801 -1.9713
  104SAPE  C21210615   3.919   5.427   4.417  0.3862 -0.5193 -0.2202
  104SAPE  H12R10616   3.960   5.379   4.508 -1.1672 -2.2456 -0.3656
  104SAPE  C21310617   3.892   5.579   4.415 -0.1626  0.5853 -0.1612
  104SAPE  H13R10618   3.786   5.599   4.391 -0.7528 -0.4146  1.4438
  104SAPE  H13S10619   3.952   5.606   4.326  0.8526 -0.1706  0.2713
  104SAPE  C21410620   3.934   5.662   4.532  0.1034  1.2760 -0.0009
  104SAPE  H14R10621   3.997   5.747   4.503  1.1874 -0.1133 -2.0053
  104SAPE  C21510622   3.904   5.640   4.660 -0.8015 -0.4287  0.3954
  104SAPE  H15R10623   3.945   5.717   4.727  1.0337 -0.4723 -0.6229
  104SAPE  C21610624   3.810   5.541   4.723  0.0970  0.3489 -0.0934
  104SAPE  H16R10625   3.853   5.517   4.822 -2.6945 -1.5355  0.7877
  104SAPE  H16S10626   3.798   5.449   4.662  0.9548  1.1066 -1.4781
  104SAPE  C21710627   3.671   5.598   4.752 -0.0446 -0.4522 -0.5714
  104SAPE  H17R10628   3.702   5.687   4.811 -0.6753  0.0488 -0.9885
  104SAPE  H17S10629   3.607   5.530   4.812  0.0061  0.0138  0.0207
  104SAPE  C21810630   3.605   5.634   4.624  0.6106 -0.3419  0.0639
  104SAPE  H18R10631   3.618   5.549   4.554 -0.8654 -1.6665  1.3034
  104SAPE  H18S10632   3.636   5.730   4.578 -0.6087 -0.5766 -1.3320
  104SAPE  C21910633   3.446   5.625   4.633 -0.0616 -0.0917  0.2976
  104SAPE  H19R10634   3.415   5.530   4.683 -0.4688 -0.1981 -0.1437
  104SAPE  H19S10635   3.404   5.616   4.530 -1.4678 -0.8906  0.9140
  104SAPE  C22010636   3.386   5.750   4.699 -0.0841  0.0607  1.0394
  104SAPE  H20R10637   3.275   5.746   4.702 -0.1680 -0.2092 -0.9008
  104SAPE  H20S10638   3.415   5.839   4.639 -0.7147 -0.2315  0.2822
  104SAPE  H20T10639   3.408   5.761   4.807 -2.3424  0.1205  1.5589
  104SAPE   C3310640   4.139   5.830   3.733 -0.0896  0.4715 -0.6314
  104SAPE   H3X10641   4.090   5.768   3.656 -1.0550 -0.1436  0.4496
  104SAPE   H3Y10642   4.058   5.867   3.799  0.4279 -0.7144  0.7329
  104SAPE   C3410643   4.217   5.730   3.819 -0.3597  0.3911 -0.0803
  104SAPE   H4X10644   4.302   5.692   3.758 -1.3579 -1.6284 -0.3105
  104SAPE   H4Y10645   4.148   5.644   3.835 -0.7964  0.0662 -3.1397
  104SAPE   C3510646   4.255   5.784   3.961 -0.2492  0.0919  0.8318
  104SAPE   H5X10647   4.302   5.884   3.953  0.1209  0.0545  2.2031
  104SAPE   H5Y10648   4.343   5.729   4.001  0.5856 -1.8933 -3.3100
  104SAPE   C3610649   4.149   5.783   4.069 -0.3960  0.8253  0.1510
  104SAPE   H6X10650   4.120   5.676   4.078 -1.6506  1.1951  0.8581
  104SAPE   H6Y10651   4.065   5.832   4.015 -2.4373 -1.8576  0.6915
  104SAPE   C3710652   4.179   5.829   4.210  0.3710  0.2433 -0.1193
  104SAPE   H7X10653   4.256   5.766   4.260 -0.5502 -1.3284 -0.5817
  104SAPE   H7Y10654   4.094   5.812   4.280  1.0605  3.2166  1.6093
  104SAPE   C3810655   4.198   5.977   4.217 -0.7614  0.7817  0.1472
  104SAPE   H8X10656   4.110   6.037   4.185 -1.1887  0.0381 -0.1071
  104SAPE   H8Y10657   4.270   5.996   4.135 -0.3968 -1.4706 -0.1316
  104SAPE   C3910658   4.246   6.019   4.360  0.2972 -0.1541 -0.1258
  104SAPE   H9X10659   4.278   6.126   4.361 -2.7055  0.8352 -0.3075
  104SAPE   H9Y10660   4.340   5.962   4.377 -0.0959 -0.4677  1.0505
  104SAPE  C31010661   4.151   6.006   4.476  0.0359 -0.3008 -0.1375
  104SAPE  H10X10662   4.123   5.899   4.482 -0.2801 -0.1972  0.2413
  104SAPE  H10Y10663   4.066   6.077   4.462  2.0552  2.0270 -1.5521
  104SAPE  C31110664   4.217   6.045   4.614 -0.1286  0.2381 -0.1491
  104SAPE  H11X10665   4.246   6.152   4.613  0.3261  0.1286  0.5936
  104SAPE  H11Y10666   4.303   5.977   4.637 -0.3613 -0.1977 -0.5480
  104SAPE  C31210667   4.122   6.016   4.728 -0.4943 -0.6001 -0.4137
  104SAPE  H12X10668   4.113   5.907   4.743 -2.1227 -0.9992 -3.4970
  104SAPE  H12Y10669   4.021   6.051   4.699 -0.1574 -1.2825 -2.6070
  104SAPE  C31310670   4.154   6.077   4.864 -0.0258 -1.0315 -0.0132
  104SAPE  H13X10671   4.248   6.043   4.913  1.0305 -1.6107 -2.3258
  104SAPE  H13Y10672   4.067   6.045   4.926  1.3449 -1.4603  1.7551
  104SAPE  C31410673   4.160   6.233   4.869 -0.5168 -0.8572 -0.1142
  104SAPE  H14X10674   4.079   6.284   4.814 -0.3607 -3.6015 -3.1717
  104SAPE  H14Y10675   4.257   6.261   4.822 -0.3892  1.6276  1.4274
  104SAPE  C31510676   4.160   6.270   5.016 -0.0438  0.0571  0.0538
  104SAPE  H15X10677   4.252   6.234   5.067 -0.8877 -0.5942  1.1732
  104SAPE  H15Y10678   4.077   6.211   5.061 -0.1829  0.8826  0.9265
  104SAPE  C31610679   4.139   6.420   5.050  0.6919  0.1853 -0.3174
  104SAPE  H16X10680   4.034   6.440   5.020  0.0693 -1.0253  0.9316
  104SAPE  H16Y10681   4.201   6.494   4.996  0.0153  1.3015  0.4027
  104SAPE  C31710682   4.140   6.456   5.200  0.4919 -0.2605  0.0786
  104SAPE  H17X10683   4.242   6.470   5.243 -0.5741 -1.1394  3.1483
  104SAPE  H17Y10684   4.087   6.379   5.260  0.7798  0.0546  0.7561
  104SAPE  C31810685   4.071   6.590   5.211 -0.2164  0.0166  0.4063
  104SAPE  H18X10686   4.111   6.655   5.130 -0.4310 -1.6085 -1.0698
  104SAPE  H18Y10687   4.081   6.641   5.309  0.8096  0.4976  0.0649
  104SAPE  H18Z10688   3.966   6.573   5.179  0.2034 -1.7439 -0.1398
  105SAPE     N10689   6.224   3.377   2.749 -0.2307 -0.0966  0.5594
  105SAPE   HN110690   6.225   3.450   2.675 -0.8410  0.6953  1.3234
  105SAPE   HN210691   6.299   3.305   2.744 -0.4304 -0.3482  1.0793
  105SAPE   HN310692   6.132   3.329   2.739  0.1514 -0.4679 -1.8759
  105SAPE   C1210693   6.226   3.443   2.883 -1.0595  0.2314  0.2468
  105SAPE  H12A10694   6.325   3.477   2.919 -1.1299 -1.5392  2.3837
  105SAPE  H12B10695   6.197   3.358   2.950  1.6546  0.4417  1.8418
  105SAPE   C1110696   6.115   3.554   2.883 -0.1105 -0.0331 -0.5675
  105SAPE  H11A10697   6.098   3.595   2.984 -1.7352  2.9225 -1.9115
  105SAPE  H11B10698   6.016   3.515   2.853  0.1186 -0.2333 -1.0868
  105SAPE     P10699   6.267   3.766   2.802 -0.5430  0.0745  0.5412
  105SAPE   O1310700   6.390   3.708   2.738 -0.0804 -0.0552 -0.8248
  105SAPE   O1410701   6.219   3.897   2.754  0.4738  0.1404 -0.3516
  105SAPE   O1210702   6.148   3.664   2.794  0.1996 -0.0636 -0.2970
  105SAPE   O1110703   6.301   3.781   2.958  0.4802  0.4984  0.3468
  105SAPE    C110704   6.240   3.868   3.048 -0.0186  0.4365 -0.9165
  105SAPE    HA10705   6.292   3.966   3.043  0.3084  0.2646 -0.8891
  105SAPE    HB10706   6.133   3.882   3.020  0.0234 -0.8537 -1.8420
  105SAPE    C210707   6.248   3.797   3.184  0.5308  0.2507 -0.0085
  105SAPE    HS10708   6.240   3.689   3.158 -1.1604  0.3491  0.0416
  105SAPE   O2110709   6.143   3.832   3.278 -1.0544  0.4788  0.0885
  105SAPE   C2110710   6.026   3.769   3.272 -0.2155  0.0848 -0.3262
  105SAPE   O2210711   6.005   3.665   3.209  0.3757 -1.0075 -0.2389
  105SAPE   C2210712   5.928   3.840   3.353 -0.4781 -0.6783 -0.0171
  105SAPE   H2R10713   5.956   3.948   3.349  1.3387 -1.1074  0.2813
  105SAPE   H2S10714   5.828   3.837   3.304 -1.1345 -0.8666  1.2869
  105SAPE    C310715   6.388   3.804   3.244  0.5331  0.1577 -0.3261
  105SAPE    HX10716   6.406   3.911   3.265 -0.3387  0.3893 -0.7236
  105SAPE    HY10717   6.457   3.765   3.166 -0.4746  0.4442 -1.3894
  105SAPE   O3110718   6.391   3.726   3.372 -0.0031 -0.0044  0.5528
  105SAPE   C3110719   6.504   3.672   3.396  0.0499 -0.4847 -0.1391
  105SAPE   O3210720   6.601   3.680   3.324  0.9985 -0.3137  0.4625
  105SAPE   C3210721   6.516   3.603   3.527 -0.4329  0.2373 -0.0694
  105SAPE   H2X10722   6.597   3.527   3.517  1.4334  2.2003 -0.7197
  105SAPE   H2Y10723   6.419   3.556   3.554 -0.0029 -1.8145 -1.8136
  105SAPE   C2310724   5.931   3.782   3.499 -0.2527 -0.7599  0.3880
  105SAPE   H3R10725   5.913   3.673   3.499  0.8204 -0.9592 -0.2257
  105SAPE   H3S10726   5.841   3.822   3.550  0.7704 -0.9055  2.4397
  105SAPE   C2410727   6.059   3.820   3.571  0.1693  0.3212  0.2749
  105SAPE   H4R10728   6.060   3.930   3.587 -2.5299  0.1754  2.3931
  105SAPE   H4S10729   6.150   3.795   3.513  0.1168 -0.6572  0.5892
  105SAPE   C2510730   6.058   3.755   3.710 -0.4833  0.5254  0.2607
  105SAPE   H5R10731   6.016   3.654   3.700 -1.2252  0.9186 -0.7123
  105SAPE   C2610732   6.098   3.801   3.829  0.8340  0.0908  0.3561
  105SAPE   H6R10733   6.076   3.734   3.913 -2.4885  1.1363  0.4992
  105SAPE   C2710734   6.139   3.939   3.857  0.6201 -0.1114  0.0726
  105SAPE   H7R10735   6.055   4.010   3.871  0.8926  0.2891 -0.2989
  105SAPE   H7S10736   6.194   3.986   3.773  1.5858  2.3144  1.9256
  105SAPE   C2810737   6.222   3.932   3.976  0.2603  0.2125 -1.6951
  105SAPE   H8R10738   6.315   3.876   3.963 -0.7921 -1.8277 -0.8551
  105SAPE   C2910739   6.198   3.985   4.099  0.0285 -0.0081 -0.1086
  105SAPE   H9R10740   6.278   3.976   4.174  0.2527  0.5943 -0.2660
  105SAPE  C21010741   6.075   4.066   4.138 -0.7602  0.1102 -0.3469
  105SAPE  H10R10742   6.010   4.092   4.051 -1.1134 -0.7292 -0.3405
  105SAPE  H10S10743   6.107   4.162   4.185 -1.2893  0.1604 -0.0856
  105SAPE  C21110744   5.990   3.987   4.235  0.1997 -0.5226 -0.6746
  105SAPE  H11R10745   5.941   3.895   4.201 -0.4338 -1.3339  2.1627
  105SAPE  C21210746   5.969   4.010   4.370 -0.1465  0.2116 -0.6241
  105SAPE  H12R10747   5.905   3.944   4.430 -1.7163  0.7442 -1.6354
  105SAPE  C21310748   6.016   4.136   4.446  0.0994  0.2410 -0.5487
  105SAPE  H13R10749   6.044   4.225   4.386 -1.3096  0.4638 -0.9119
  105SAPE  H13S10750   6.111   4.107   4.494 -0.4321 -0.3303  0.1862
  105SAPE  C21410751   5.930   4.193   4.559  0.5905 -0.4885 -0.0232
  105SAPE  H14R10752   5.866   4.282   4.543  0.9523 -0.2229  0.0067
  105SAPE  C21510753   5.924   4.154   4.688  0.1537  1.5444  0.4270
  105SAPE  H15R10754   5.859   4.198   4.765 -1.0882  0.3228  0.1297
  105SAPE  C21610755   6.001   4.038   4.741  0.4853 -0.3235  0.0794
  105SAPE  H16R10756   6.079   4.008   4.667  0.7448 -2.2488  1.0635
  105SAPE  H16S10757   5.927   3.955   4.752  0.7890 -0.7079 -0.6614
  105SAPE  C21710758   6.088   4.058   4.872  0.2971  0.8415  0.0140
  105SAPE  H17R10759   6.090   3.956   4.917  0.2241  0.8891  0.1280
  105SAPE  H17S10760   6.023   4.120   4.938 -0.9961  0.9903 -1.3369
  105SAPE  C21810761   6.228   4.112   4.852  0.2625  0.0607  0.0414
  105SAPE  H18R10762   6.264   4.109   4.957 -0.6994 -1.7817  0.3612
  105SAPE  H18S10763   6.249   4.216   4.819  1.9064 -0.1573  0.3059
  105SAPE  C21910764   6.324   4.014   4.782  0.6269 -0.4582 -0.3072
  105SAPE  H19R10765   6.297   3.999   4.676  1.7539 -1.0409 -0.5263
  105SAPE  H19S10766   6.319   3.910   4.823  1.2189  0.1505  1.4135
  105SAPE  C22010767   6.470   4.047   4.795  0.0443  0.2515  0.5749
  105SAPE  H20R10768   6.498   4.043   4.903 -0.2472  1.7510  0.7183
  105SAPE  H20S10769   6.482   4.150   4.756  0.6352  1.8263  4.4513
  105SAPE  H20T10770   6.536   3.983   4.733  1.0001  1.9282 -0.2045
  105SAPE   C3310771   6.553   3.696   3.639 -0.5891  0.1469 -0.1600
  105SAPE   H3X10772   6.471   3.767   3.660 -1.2375 -1.0552  1.6222
  105SAPE   H3Y10773   6.640   3.754   3.599 -2.1241  3.9963  1.5668
  105SAPE   C3410774   6.585   3.634   3.773 -0.4948  0.6936  0.6056
  105SAPE   H4X10775   6.627   3.719   3.830 -1.1510  3.8391 -3.1582
  105SAPE   H4Y10776   6.677   3.573   3.762  0.4870  2.0857  0.8610
  105SAPE   C3510777   6.473   3.571   3.856  0.1515 -0.1894 -0.3775
  105SAPE   H5X10778   6.471   3.462   3.836 -1.7437 -0.3528  0.5129
  105SAPE   H5Y10779   6.372   3.611   3.834 -0.4221  0.2615  2.6651
  105SAPE   C3610780   6.503   3.596   4.001 -0.1906  0.5567 -0.6532
  105SAPE   H6X10781   6.425   3.539   4.056  0.7936 -1.6472 -1.4092
  105SAPE   H6Y10782   6.496   3.704   4.024 -0.1807  0.3942  0.1239
  105SAPE   C3710783   6.641   3.548   4.045 -0.0095 -0.7677 -0.0543
  105SAPE   H7X10784   6.719   3.609   3.994 -0.3395 -1.5968 -1.6002
  105SAPE   H7Y10785   6.667   3.445   4.013  1.8661 -0.8923  1.6196
  105SAPE   C3810786   6.666   3.552   4.197 -0.8475 -0.1285  0.4557
  105SAPE   H8X10787   6.755   3.490   4.221 -1.0085 -0.3041  0.6028
  105SAPE   H8Y10788   6.580   3.515   4.257  0.9284  1.9636  4.7422
  105SAPE   C3910789   6.690   3.697   4.247  0.4008  0.5228 -0.4008
  105SAPE   H9X10790   6.600   3.759   4.228  2.3118  2.7703 -2.9459
  105SAPE   H9Y10791   6.771   3.751   4.194  0.4512  2.7920  1.8035
  105SAPE  C31010792   6.736   3.706   4.398  0.6283 -1.0645 -0.4203
  105SAPE  H10X10793   6.759   3.814   4.411  1.5154 -1.2322 -0.5231
  105SAPE  H10Y10794   6.816   3.632   4.418  0.5279 -0.8295  0.9508
  105SAPE  C31110795   6.616   3.673   4.485 -0.4733 -0.3142  0.6427
  105SAPE  H11X10796   6.563   3.578   4.466 -0.3641 -0.6099  1.7083
  105SAPE  H11Y10797   6.549   3.761   4.476  0.7564  0.5652 -0.4165
  105SAPE  C31210798   6.645   3.650   4.628  0.1586 -0.7964  0.1725
  105SAPE  H12X10799   6.691   3.737   4.679 -1.3468  1.0672 -1.4950
  105SAPE  H12Y10800   6.698   3.553   4.643 -2.2493 -1.9688  1.6103
  105SAPE  C31310801   6.515   3.617   4.711  0.0010 -0.1166  0.2820
  105SAPE  H13X10802   6.474   3.521   4.673 -1.7959  0.5553  0.4241
  105SAPE  H13Y10803   6.442   3.698   4.692  1.1870  1.3630  1.7143
  105SAPE  C31410804   6.554   3.586   4.857 -0.0127 -0.2558 -0.8527
  105SAPE  H14X10805   6.652   3.533   4.866 -0.8065 -1.4906  1.8684
  105SAPE  H14Y10806   6.484   3.513   4.903 -0.4588  1.6507  1.7571
  105SAPE  C31510807   6.564   3.716   4.942 -0.1520  0.1703 -0.9686
  105SAPE  H15X10808   6.480   3.727   5.015  1.6521  3.0023  0.8669
  105SAPE  H15Y10809   6.552   3.801   4.871 -1.3154  2.3807  1.7030
  105SAPE  C31610810   6.688   3.729   5.031  0.7410 -0.0969  0.3653
  105SAPE  H16X10811   6.785   3.735   4.977  0.7449 -0.5970  0.3140
  105SAPE  H16Y10812   6.696   3.651   5.109  0.2535 -0.0997  0.4156
  105SAPE  C31710813   6.686   3.870   5.114 -0.7419  0.0490 -0.1535
  105SAPE  H17X10814   6.599   3.861   5.183 -0.2126  1.9191  0.8411
  105SAPE  H17Y10815   6.657   3.947   5.039 -0.3205 -0.4064 -0.7902
  105SAPE  C31810816   6.818   3.896   5.177  0.5563 -0.9316 -0.4069
  105SAPE  H18X10817   6.835   3.819   5.255 -2.4127 -0.2551  1.0553
  105SAPE  H18Y10818   6.818   3.987   5.240 -1.5039 -1.2467  0.1217
  105SAPE  H18Z10819   6.898   3.891   5.099  1.6842  0.2248  0.6393
  106SAPE     N10820   0.268   6.440   2.889  0.4436  0.0276  0.3321
  106SAPE   HN110821   0.325   6.526   2.875  1.5640 -1.0031 -1.9249
  106SAPE   HN210822   0.177   6.464   2.846  0.2110 -0.5245  0.5062
  106SAPE   HN310823   0.250   6.418   2.989 -1.0311  0.0170  0.0821
  106SAPE   C1210824   0.329   6.334   2.807  1.2923 -0.0773 -0.4933
  106SAPE  H12A10825   0.339   6.377   2.705 -1.0678  0.3398 -0.6044
  106SAPE  H12B10826   0.253   6.252   2.809  0.8728  0.2813  2.4109
  106SAPE   C1110827   0.459   6.265   2.853 -0.3279  0.4823 -0.1626
  106SAPE  H11A10828   0.488   6.179   2.789  0.6268  0.5179  0.2050
  106SAPE  H11B10829   0.447   6.232   2.958 -0.2796 -0.0955 -0.3353
  106SAPE     P10830   0.712   6.298   2.891  0.0040  0.0362  0.2763
  106SAPE   O1310831   0.726   6.185   2.793  0.4537 -0.0987  0.0797
  106SAPE   O1410832   0.810   6.409   2.877 -0.8884  0.5172 -0.0974
  106SAPE   O1210833   0.565   6.356   2.857 -0.3123 -0.1773  0.1388
  106SAPE   O1110834   0.710   6.245   3.040 -0.3901  0.6913 -0.4173
  106SAPE    C110835   0.657   6.323   3.149  0.2418 -0.2625  0.2667
  106SAPE    HA10836   0.676   6.430   3.123  2.7153 -0.9759 -1.2476
  106SAPE    HB10837   0.553   6.291   3.170  1.1951 -2.5045  2.0849
  106SAPE    C210838   0.755   6.314   3.271 -0.2140  1.0226 -0.7720
  106SAPE    HS10839   0.852   6.357   3.240  1.3103  0.6162  2.9408
  106SAPE   O2110840   0.764   6.172   3.308  0.3599  0.5916 -0.8087
  106SAPE   C2110841   0.869   6.142   3.380 -0.3652  0.5630 -0.9198
  106SAPE   O2210842   0.958   6.219   3.407 -0.1022  0.6517  0.1120
  106SAPE   C2210843   0.867   5.994   3.415  0.2905 -0.6207  0.7455
  106SAPE   H2R10844   0.851   5.942   3.319 -1.4313  1.3611 -0.1338
  106SAPE   H2S10845   0.967   5.969   3.457  0.0307 -0.0646  1.7391
  106SAPE    C310846   0.694   6.390   3.388  0.0226 -0.0158 -0.1906
  106SAPE    HX10847   0.687   6.495   3.352  0.1000  0.2750  0.6180
  106SAPE    HY10848   0.770   6.377   3.468 -0.8473  0.1063  0.6632
  106SAPE   O3110849   0.565   6.331   3.421 -0.5055 -0.0007 -0.4086
  106SAPE   C3110850   0.504   6.400   3.516 -0.7284  0.5474  0.4497
  106SAPE   O3210851   0.556   6.493   3.577 -0.1873  0.0243 -0.0193
  106SAPE   C3210852   0.363   6.342   3.532  0.2979 -0.8449 -0.0384
  106SAPE   H2X10853   0.317   6.316   3.435 -1.7795  0.9535  0.3876
  106SAPE   H2Y10854   0.296   6.419   3.576  0.1671  0.3641 -2.2283
  106SAPE   C2310855   0.745   5.960   3.505 -0.3429 -0.4439  0.7656
  106SAPE   H3R10856   0.727   5.851   3.501 -2.4622 -0.0997 -1.2664
  106SAPE   H3S10857   0.662   6.021   3.464  0.7673 -1.0397 -2.7230
  106SAPE   C2410858   0.755   6.013   3.646 -0.2002  0.3301  0.7147
  106SAPE   H4R10859   0.657   5.995   3.695 -1.3216 -0.1624 -1.5544
  106SAPE   H4S10860   0.774   6.122   3.635  0.5300  0.0986 -0.5561
  106SAPE   C2510861   0.876   5.956   3.708 -0.0875 -0.7763 -0.2041
  106SAPE   H5R10862   0.923   5.874   3.652  1.0245 -0.0661 -0.3310
  106SAPE   C2610863   0.925   5.995   3.824 -0.3916  0.4248 -0.4470
  106SAPE   H6R10864   1.026   5.967   3.857 -0.6775  1.4523  1.4554
  106SAPE   C2710865   0.866   6.102   3.916  0.1123  0.4253 -0.0473
  106SAPE   H7R10866   0.805   6.179   3.865 -0.5466 -0.9961 -1.4958
  106SAPE   H7S10867   0.938   6.179   3.951 -1.9062  2.4914 -0.2150
  106SAPE   C2810868   0.804   6.034   4.036  0.8024  1.0044  0.4678
  106SAPE   H8R10869   0.703   5.992   4.025  1.3401 -0.3387  0.5197
  106SAPE   C2910870   0.853   6.019   4.160 -0.2857  0.4881  0.3065
  106SAPE   H9R10871   0.800   5.947   4.225 -2.6129  1.4484 -0.4357
  106SAPE  C21010872   0.998   6.054   4.197  0.1321  0.6335  0.1059
  106SAPE  H10R10873   1.062   6.058   4.107  0.7377 -2.2115  0.3217
  106SAPE  H10S10874   1.040   5.966   4.249  0.7146  0.9480  0.1705
  106SAPE  C21110875   1.004   6.174   4.280  0.7601  0.3918 -0.5916
  106SAPE  H11R10876   0.939   6.257   4.249 -1.3001 -1.0671 -0.4081
  106SAPE  C21210877   1.080   6.191   4.387  0.3178 -0.7575 -0.3623
  106SAPE  H12R10878   1.086   6.292   4.430  0.7427 -1.3986  1.1781
  106SAPE  C21310879   1.169   6.093   4.455 -1.0617  0.3301  0.0342
  106SAPE  H13R10880   1.253   6.150   4.500  0.2137 -1.6312  0.2846
  106SAPE  H13S10881   1.220   6.030   4.378 -0.5135  0.0198  0.6433
  106SAPE  C21410882   1.107   5.990   4.545  0.4712  0.4636  0.3587
  106SAPE  H14R10883   1.060   5.904   4.494  0.0334 -0.1660  1.7746
  106SAPE  C21510884   1.117   5.984   4.678  0.1626  0.3853  0.0252
  106SAPE  H15R10885   1.044   5.913   4.719 -1.3006  0.1769 -2.6541
  106SAPE  C21610886   1.207   6.064   4.769 -0.4131  0.2011 -0.1069
  106SAPE  H16R10887   1.176   6.063   4.875  1.2868 -2.0386  0.4454
  106SAPE  H16S10888   1.188   6.172   4.751 -0.7054  0.3546  1.0829
  106SAPE  C21710889   1.366   6.036   4.757  0.0978  0.1930  0.0005
  106SAPE  H17R10890   1.408   6.113   4.825  0.6277  0.3740 -0.5340
  106SAPE  H17S10891   1.407   6.049   4.655  1.8122 -1.8159  0.3723
  106SAPE  C21810892   1.419   5.901   4.806 -0.5416 -0.3164 -0.1215
  106SAPE  H18R10893   1.387   5.812   4.748 -0.9901 -1.4258  1.7816
  106SAPE  H18S10894   1.377   5.886   4.907  0.5299 -0.5575  0.2994
  106SAPE  C21910895   1.579   5.898   4.817 -0.0289 -0.3946  0.2335
  106SAPE  H19R10896   1.614   5.977   4.888  1.9256 -0.2439 -0.8149
  106SAPE  H19S10897   1.609   5.908   4.710  2.7451 -0.8360  0.8946
  106SAPE  C22010898   1.648   5.757   4.850  0.3276  0.1039  0.0992
  106SAPE  H20R10899   1.614   5.709   4.943  0.0513 -0.4672 -0.2907
  106SAPE  H20S10900   1.759   5.765   4.849  0.3534 -0.1608  0.5549
  106SAPE  H20T10901   1.608   5.697   4.765 -1.6601  0.6144  0.6246
  106SAPE   C3310902   0.373   6.220   3.622  0.1746  0.2398 -0.2094
  106SAPE   H3X10903   0.452   6.148   3.591 -1.2017 -1.7868  0.7548
  106SAPE   H3Y10904   0.278   6.164   3.607  0.7613 -0.6575 -0.6878
  106SAPE   C3410905   0.381   6.247   3.771  0.0230  0.1573 -0.5836
  106SAPE   H4X10906   0.318   6.183   3.837  1.8783 -0.9931  0.1609
  106SAPE   H4Y10907   0.330   6.346   3.776  1.1545  0.7946 -1.2535
  106SAPE   C3510908   0.527   6.267   3.821 -1.1802 -0.5611  0.5683
  106SAPE   H5X10909   0.586   6.328   3.750  0.7216 -1.1527  1.5848
  106SAPE   H5Y10910   0.573   6.167   3.836  1.2037  0.2099 -1.1440
  106SAPE   C3610911   0.549   6.355   3.948  0.0290 -0.1530 -0.4927
  106SAPE   H6X10912   0.524   6.460   3.919  2.0564  0.2032 -1.1425
  106SAPE   H6Y10913   0.657   6.358   3.973 -0.7422  0.4003  3.3564
  106SAPE   C3710914   0.480   6.300   4.072 -0.0852 -0.1545  0.2619
  106SAPE   H7X10915   0.496   6.191   4.082 -1.2819 -0.5441 -1.5312
  106SAPE   H7Y10916   0.372   6.292   4.047  0.1558 -1.6339 -0.4039
  106SAPE   C3810917   0.516   6.384   4.195 -0.4303 -0.6302 -0.1795
  106SAPE   H8X10918   0.460   6.352   4.286 -1.8107 -0.8812 -1.0873
  106SAPE   H8Y10919   0.482   6.487   4.174  0.7726  0.6022  3.3007
  106SAPE   C3910920   0.666   6.402   4.224  0.4531 -1.0149  0.0517
  106SAPE   H9X10921   0.713   6.465   4.146 -0.3398 -0.8761 -0.3297
  106SAPE   H9Y10922   0.699   6.297   4.215  0.5638 -1.2398  2.3866
  106SAPE  C31010923   0.693   6.448   4.369  0.5009  0.2666  0.5764
  106SAPE  H10X10924   0.612   6.520   4.397 -1.7311 -1.5302 -0.9101
  106SAPE  H10Y10925   0.793   6.490   4.391  0.0674  0.1658  3.0994
  106SAPE  C31110926   0.686   6.325   4.459  0.1560  0.1247  0.3593
  106SAPE  H11X10927   0.748   6.246   4.411  1.2865  0.1750  1.6808
  106SAPE  H11Y10928   0.580   6.297   4.474 -0.7072  2.2358 -1.2060
  106SAPE  C31210929   0.766   6.349   4.587  0.5783 -0.2195 -0.1003
  106SAPE  H12X10930   0.723   6.433   4.645  0.8063 -2.0078  2.9058
  106SAPE  H12Y10931   0.874   6.372   4.572  1.4715 -1.4843  3.4200
  106SAPE  C31310932   0.770   6.220   4.669 -0.9679  0.3901 -0.2399
  106SAPE  H13X10933   0.822   6.136   4.619 -0.3336 -0.5955  1.9665
  106SAPE  H13Y10934   0.662   6.193   4.668 -0.5122 -1.5681 -0.7256
  106SAPE  C31410935   0.828   6.238   4.804  0.4767  0.0529 -0.0214
  106SAPE  H14X10936   0.780   6.330   4.843 -0.7843 -0.5411 -0.1154
  106SAPE  H14Y10937   0.938   6.250   4.801  0.3981  0.7599 -0.5001
  106SAPE  C31510938   0.798   6.135   4.910  0.6379 -0.1224  0.2336
  106SAPE  H15X10939   0.817   6.032   4.874 -1.2558 -0.1693 -0.7821
  106SAPE  H15Y10940   0.689   6.138   4.935  0.0832 -2.1809 -1.5772
  106SAPE  C31610941   0.878   6.154   5.039 -0.2175 -0.2250  0.1993
  106SAPE  H16X10942   0.831   6.243   5.085 -1.1408 -0.1449 -0.8478
  106SAPE  H16Y10943   0.983   6.166   5.006 -0.9879  0.8318 -2.1186
  106SAPE  C31710944   0.879   6.032   5.131  0.0203 -0.2754  0.7897
  106SAPE  H17X10945   0.907   5.943   5.071  1.1764  0.7550 -0.2619
  106SAPE  H17Y10946   0.782   6.005   5.177  0.3397 -0.8372  1.1438
  106SAPE  C31810947   0.986   6.042   5.249  0.2302  0.3344  0.0085
  106SAPE  H18X10948   0.966   6.127   5.317 -0.8208 -0.7951  1.1674
  106SAPE  H18Y10949   1.089   6.042   5.208 -0.1861 -0.7868 -1.0978
  106SAPE  H18Z10950   0.966   5.956   5.317 -0.6693  1.7519  1.6218
  107SAPE     N10951   1.728   3.447   2.625 -0.1906 -0.1168  0.6357
  107SAPE   HN110952   1.747   3.490   2.532 -2.2723 -1.2862 -0.4193
  107SAPE   HN210953   1.784   3.361   2.639  0.2546 -0.6131 -3.0773
  107SAPE   HN310954   1.629   3.417   2.614  0.1285 -0.3830 -2.2086
  107SAPE   C1210955   1.754   3.549   2.733 -0.9331 -0.6117  0.5574
  107SAPE  H12A10956   1.731   3.505   2.832 -0.5083 -2.4257 -0.1056
  107SAPE  H12B10957   1.694   3.637   2.704 -1.7959 -1.8243 -1.4966
  107SAPE   C1110958   1.901   3.595   2.741  0.1507 -0.2886 -0.1647
  107SAPE  H11A10959   1.972   3.519   2.779  2.3964  0.5947 -2.2998
  107SAPE  H11B10960   1.898   3.680   2.812 -1.7952  1.1700 -1.8498
  107SAPE     P10961   1.954   3.782   2.560  0.1375  0.1248 -0.0367
  107SAPE   O1310962   2.035   3.796   2.439 -0.2579 -0.5466  0.1126
  107SAPE   O1410963   1.810   3.827   2.559 -0.4757 -0.3933  0.6676
  107SAPE   O1210964   1.952   3.629   2.609  0.4207  0.7319  0.4175
  107SAPE   O1110965   2.024   3.864   2.677 -0.3401  0.4165 -0.1388
  107SAPE    C110966   2.058   3.994   2.689  0.1412 -0.3607  1.0143
  107SAPE    HA10967   2.121   4.021   2.602 -2.1508 -2.0153 -1.2862
  107SAPE    HB10968   1.960   4.044   2.673 -0.1245 -0.8873  1.0059
  107SAPE    C210969   2.095   4.037   2.834 -0.7794  0.1998  0.7283
  107SAPE    HS10970   2.095   4.148   2.832 -0.8053  0.2388  1.8434
  107SAPE   O2110971   2.211   3.976   2.895  0.4869 -0.9582 -0.0531
  107SAPE   C2110972   2.318   4.000   2.820  0.2183  0.4163 -0.4847
  107SAPE   O2210973   2.322   4.074   2.723 -0.1198  0.0230  0.4041
  107SAPE   C2210974   2.429   3.907   2.860  0.2393 -0.0375 -0.1870
  107SAPE   H2R10975   2.388   3.808   2.831 -0.1550 -0.4688  1.6792
  107SAPE   H2S10976   2.515   3.935   2.795 -0.1491  1.2010 -0.2111
  107SAPE    C310977   1.969   4.002   2.921 -0.4985  0.1826  0.3657
  107SAPE    HX10978   1.949   3.895   2.899  0.7667 -0.4697  2.2019
  107SAPE    HY10979   1.880   4.063   2.895 -0.5545 -0.4347 -0.9932
  107SAPE   O3110980   1.991   4.019   3.061  0.0933 -0.1326 -0.0898
  107SAPE   C3110981   2.035   3.916   3.141  0.1906  0.4734 -0.3795
  107SAPE   O3210982   2.057   3.804   3.095 -0.2639  0.1861 -0.6247
  107SAPE   C3210983   2.029   3.976   3.286  0.2065 -0.0855  0.0931
  107SAPE   H2X10984   1.963   4.066   3.285  2.2504  1.4787 -1.1995
  107SAPE   H2Y10985   2.133   4.005   3.312  0.9443  1.5831 -3.9730
  107SAPE   C2310986   2.451   3.897   3.012 -0.0754 -0.0821  0.5352
  107SAPE   H3R10987   2.354   3.856   3.048  0.5227 -0.1086  2.1933
  107SAPE   H3S10988   2.469   3.993   3.066 -0.4901 -0.4769  1.4008
  107SAPE   C2410989   2.578   3.823   3.052  0.0304 -0.3342 -0.7703
  107SAPE   H4R10990   2.583   3.717   3.021 -0.9785 -0.6094 -0.0576
  107SAPE   H4S10991   2.582   3.825   3.163 -0.8536 -1.5246 -0.6985
  107SAPE   C2510992   2.692   3.894   2.989 -0.5558 -0.2770  0.1884
  107SAPE   H5R10993   2.709   3.878   2.881  0.3939  1.0691  0.1151
  107SAPE   C2610994   2.790   3.955   3.051  0.6037 -0.3782 -0.2136
  107SAPE   H6R10995   2.862   4.013   2.992 -1.9473 -0.6929 -3.9437
  107SAPE   C2710996   2.793   3.991   3.199  0.4133  0.2082  0.3663
  107SAPE   H7R10997   2.898   3.971   3.229  1.8598 -0.6687 -4.4842
  107SAPE   H7S10998   2.734   3.926   3.267 -1.3020  2.8362  1.5942
  107SAPE   C2810999   2.752   4.136   3.235 -0.6142 -0.2451 -0.0647
  107SAPE   H8R11000   2.658   4.161   3.185 -0.2052 -0.9061 -1.1951
  107SAPE   C2911001   2.809   4.221   3.320  0.3346 -0.7706 -0.8718
  107SAPE   H9R11002   2.750   4.313   3.334  2.2328  0.3707 -0.0033
  107SAPE  C21011003   2.934   4.212   3.404 -0.7088 -0.6915  0.1654
  107SAPE  H10R11004   2.959   4.108   3.432  0.1900 -1.2169 -2.2773
  107SAPE  H10S11005   2.923   4.263   3.502 -1.6583  0.4108 -0.4851
  107SAPE  C21111006   3.040   4.274   3.316  0.2453 -0.3575 -0.0291
  107SAPE  H11R11007   3.017   4.245   3.212  1.0452 -0.8085 -0.0910
  107SAPE  C21211008   3.126   4.373   3.342 -0.4997 -0.2270 -0.3032
  107SAPE  H12R11009   3.194   4.404   3.261 -0.1923 -0.2981 -0.0713
  107SAPE  C21311010   3.150   4.443   3.471 -0.1499  0.5621 -0.0660
  107SAPE  H13R11011   3.222   4.385   3.533  1.3363  0.4203 -1.8110
  107SAPE  H13S11012   3.054   4.442   3.527  0.1264  1.9387  0.4707
  107SAPE  C21411013   3.196   4.583   3.461 -0.0194  0.0866  0.1385
  107SAPE  H14R11014   3.123   4.662   3.437  1.1564  0.9935 -0.5411
  107SAPE  C21511015   3.322   4.633   3.486  1.0936  0.4755 -0.3374
  107SAPE  H15R11016   3.343   4.738   3.463  2.5944  0.1217 -0.6684
  107SAPE  C21611017   3.443   4.550   3.514  0.3932 -0.7512 -0.7287
  107SAPE  H16R11018   3.523   4.582   3.444  0.7277 -0.7067 -0.3310
  107SAPE  H16S11019   3.422   4.443   3.491 -1.5192 -0.5504 -0.0882
  107SAPE  C21711020   3.494   4.559   3.655  0.2119 -0.0689  0.5663
  107SAPE  H17R11021   3.529   4.660   3.685 -1.6674  0.2827  1.8081
  107SAPE  H17S11022   3.574   4.483   3.667 -2.2155 -2.7751  0.5705
  107SAPE  C21811023   3.384   4.506   3.753 -0.5124  0.1828 -0.1295
  107SAPE  H18R11024   3.358   4.408   3.709 -1.5920  0.5496 -0.3370
  107SAPE  H18S11025   3.299   4.577   3.741 -0.7777 -0.0814  0.2099
  107SAPE  C21911026   3.428   4.494   3.897  0.0388 -0.0316 -0.5981
  107SAPE  H19R11027   3.465   4.586   3.948  2.1075 -1.9583  1.5861
  107SAPE  H19S11028   3.510   4.419   3.899  0.1910  0.1399 -0.1045
  107SAPE  C22011029   3.319   4.439   3.997 -0.3322 -0.2422  0.0143
  107SAPE  H20R11030   3.273   4.343   3.967  0.2181  0.7008 -4.5571
  107SAPE  H20S11031   3.238   4.514   3.984 -1.4206 -1.7659 -2.7901
  107SAPE  H20T11032   3.362   4.441   4.100  1.3516  2.8480 -0.6100
  107SAPE   C3311033   1.976   3.866   3.378  0.1131  0.5002 -0.1026
  107SAPE   H3X11034   1.870   3.841   3.358  0.3660 -2.2694  1.5458
  107SAPE   H3Y11035   1.971   3.921   3.474  0.4048  0.2749  0.0444
  107SAPE   C3411036   2.067   3.742   3.401 -0.1825 -0.2300 -0.2532
  107SAPE   H4X11037   2.175   3.769   3.396  0.6054 -2.3073  2.7690
  107SAPE   H4Y11038   2.048   3.671   3.318  1.2441  1.5202 -2.2001
  107SAPE   C3511039   2.048   3.672   3.542 -0.3742  0.2446 -0.0350
  107SAPE   H5X11040   2.093   3.570   3.540  0.3749  0.4505  2.7873
  107SAPE   H5Y11041   1.942   3.668   3.573 -0.5825 -0.8096 -0.7880
  107SAPE   C3611042   2.116   3.744   3.664 -0.2899  0.1498  0.7531
  107SAPE   H6X11043   2.096   3.853   3.670  3.6516  1.0413  0.7518
  107SAPE   H6Y11044   2.225   3.733   3.643 -0.5879 -0.1472 -0.7247
  107SAPE   C3711045   2.085   3.669   3.796  0.3363  0.5194  0.4592
  107SAPE   H7X11046   2.078   3.560   3.778  0.4251  0.5735  0.0957
  107SAPE   H7Y11047   1.980   3.697   3.817 -0.6313 -1.5940 -1.2338
  107SAPE   C3811048   2.182   3.712   3.904  0.3901 -0.2149 -0.4134
  107SAPE   H8X11049   2.157   3.819   3.922  0.8515 -0.1051 -0.3987
  107SAPE   H8Y11050   2.288   3.696   3.875  0.8267  0.9863  0.4180
  107SAPE   C3911051   2.163   3.632   4.043  0.0274 -0.5023  0.8247
  107SAPE   H9X11052   2.259   3.578   4.052  0.5950  0.4581  0.6103
  107SAPE   H9Y11053   2.071   3.573   4.019 -1.4306  1.4151  1.4362
  107SAPE  C31011054   2.135   3.735   4.156  0.6583 -0.4832  0.2044
  107SAPE  H10X11055   2.035   3.777   4.130  1.5741  1.0606 -0.9184
  107SAPE  H10Y11056   2.210   3.815   4.145 -0.1811  0.2046 -0.8244
  107SAPE  C31111057   2.153   3.667   4.288  0.1958  0.6094 -0.6300
  107SAPE  H11X11058   2.253   3.620   4.275 -0.6274 -1.1540 -0.8353
  107SAPE  H11Y11059   2.089   3.577   4.299  2.3429 -0.9732 -0.4215
  107SAPE  C31211060   2.154   3.747   4.420 -1.0009  0.0731  0.1330
  107SAPE  H12X11061   2.047   3.775   4.426 -0.9299  0.5351 -0.6074
  107SAPE  H12Y11062   2.219   3.837   4.421 -0.9130  0.0836  3.1796
  107SAPE  C31311063   2.170   3.650   4.535 -0.2155  0.4573 -0.5502
  107SAPE  H13X11064   2.255   3.580   4.522  1.8741  2.4317  1.5870
  107SAPE  H13Y11065   2.081   3.584   4.538 -0.0327  0.2364  0.1248
  107SAPE  C31411066   2.190   3.724   4.672  0.3537 -0.2919  1.0692
  107SAPE  H14X11067   2.097   3.774   4.707  1.1572  1.1193  1.2557
  107SAPE  H14Y11068   2.260   3.807   4.649  0.3555 -1.1966 -2.9200
  107SAPE  C31511069   2.252   3.636   4.782 -0.2982 -1.3945  0.0374
  107SAPE  H15X11070   2.290   3.708   4.857 -0.0047 -1.2338 -0.2625
  107SAPE  H15Y11071   2.337   3.585   4.732 -0.1855  1.0896 -2.5525
  107SAPE  C31611072   2.163   3.532   4.841  0.5697 -0.2024 -0.0233
  107SAPE  H16X11073   2.152   3.442   4.776  2.0389 -0.0492 -0.5120
  107SAPE  H16Y11074   2.059   3.561   4.868  0.0624 -1.3462 -0.6568
  107SAPE  C31711075   2.221   3.479   4.977  0.7039  0.3811 -0.4096
  107SAPE  H17X11076   2.218   3.560   5.053 -0.2086  0.0180 -0.0522
  107SAPE  H17Y11077   2.329   3.452   4.966  0.9399  0.3147  1.7098
  107SAPE  C31811078   2.142   3.357   5.027  0.2486 -0.1859 -0.1036
  107SAPE  H18X11079   2.036   3.379   5.053  0.2839  1.3631 -1.1779
  107SAPE  H18Y11080   2.176   3.310   5.122 -0.5665  0.8314  0.7156
  107SAPE  H18Z11081   2.133   3.273   4.954 -2.9265  0.0120 -0.0556
  108SAPE     N11082   0.982   5.541   2.675 -0.5652  0.6899  0.3593
  108SAPE   HN111083   0.947   5.614   2.610  1.3762  0.2190 -1.3282
  108SAPE   HN211084   0.901   5.491   2.715 -0.7064  1.3393  0.8914
  108SAPE   HN311085   1.017   5.587   2.762  1.2812 -0.3445  0.2230
  108SAPE   C1211086   1.091   5.446   2.619  0.6813 -0.1835 -0.5919
  108SAPE  H12A11087   1.195   5.485   2.624  0.4688  0.6494 -2.0589
  108SAPE  H12B11088   1.055   5.430   2.515  0.0316  1.7985 -0.7091
  108SAPE   C1111089   1.076   5.322   2.718  0.1219 -0.3391  0.4736
  108SAPE  H11A11090   1.123   5.346   2.815 -0.7936  1.7234  0.4585
  108SAPE  H11B11091   1.143   5.243   2.676  1.5222  0.2907  1.4702
  108SAPE     P11092   0.888   5.164   2.651 -0.7137 -0.2207 -0.3168
  108SAPE   O1311093   0.746   5.154   2.671 -0.4666 -0.1078 -0.4381
  108SAPE   O1411094   0.949   5.181   2.520 -0.1731  0.0226  0.6991
  108SAPE   O1211095   0.936   5.293   2.735  0.0936  0.5827 -0.6450
  108SAPE   O1111096   0.953   5.045   2.714 -0.2085  0.5538 -0.1853
  108SAPE    C111097   0.946   5.008   2.853  0.2144  0.2853 -0.2368
  108SAPE    HA11098   0.959   5.100   2.914  0.0923  1.6877 -2.2445
  108SAPE    HB11099   0.841   4.983   2.881  0.1920 -0.2148 -0.7488
  108SAPE    C211100   1.043   4.897   2.884  0.3988 -0.3764  0.1601
  108SAPE    HS11101   1.039   4.835   2.792  0.6466  0.8712 -0.7209
  108SAPE   O2111102   0.993   4.815   2.997 -0.1537 -0.1840  0.2217
  108SAPE   C2111103   0.877   4.756   2.993  0.3485  0.1094  0.1874
  108SAPE   O2211104   0.810   4.723   2.896  0.5698 -0.7539 -0.0695
  108SAPE   C2211105   0.831   4.737   3.138  0.2459  0.3789  1.0043
  108SAPE   H2R11106   0.755   4.818   3.144 -1.7879 -1.4341  0.9094
  108SAPE   H2S11107   0.779   4.640   3.148 -0.3247  0.5109 -0.4244
  108SAPE    C311108   1.181   4.946   2.912 -0.0128  0.2050  0.4982
  108SAPE    HX11109   1.210   5.018   2.832 -1.1639 -0.4089 -0.5040
  108SAPE    HY11110   1.248   4.858   2.906  1.0751  1.0357  0.1169
  108SAPE   O3111111   1.193   5.014   3.046 -0.2327 -0.0175  0.0679
  108SAPE   C3111112   1.288   4.960   3.127 -0.3127  0.0422 -0.1631
  108SAPE   O3211113   1.345   4.857   3.108  0.2868  0.3606 -0.3411
  108SAPE   C3211114   1.313   5.055   3.251 -0.0368  0.5191  0.1701
  108SAPE   H2X11115   1.325   5.155   3.204 -1.3931 -0.6599 -2.9610
  108SAPE   H2Y11116   1.407   5.030   3.305  0.3827  1.3723 -0.1491
  108SAPE   C2311117   0.940   4.757   3.247  0.0140  0.3830  1.0554
  108SAPE   H3R11118   0.888   4.768   3.345  0.3410  2.4258  1.0537
  108SAPE   H3S11119   0.996   4.852   3.228  3.2289 -1.5965 -0.0918
  108SAPE   C2411120   1.032   4.640   3.255  0.2651  0.2901 -0.2634
  108SAPE   H4R11121   1.063   4.613   3.151 -1.0181  0.7755 -0.7960
  108SAPE   H4S11122   0.972   4.551   3.282 -0.4731  0.7948 -0.2109
  108SAPE   C2511123   1.142   4.654   3.362 -0.0809  0.2354  0.0323
  108SAPE   H5R11124   1.242   4.658   3.317 -0.5318 -1.1471 -1.1731
  108SAPE   C2611125   1.125   4.634   3.490  0.6982 -0.5090  0.6143
  108SAPE   H6R11126   1.216   4.646   3.552  0.7659  0.5963  0.3170
  108SAPE   C2711127   0.995   4.607   3.563  0.2134 -0.2353 -0.3943
  108SAPE   H7R11128   1.032   4.534   3.639  1.6393  0.9217  0.0808
  108SAPE   H7S11129   0.921   4.555   3.499 -2.3599  2.0916  0.4869
  108SAPE   C2811130   0.926   4.726   3.624  0.3617  0.4338 -0.0675
  108SAPE   H8R11131   0.923   4.819   3.565 -0.2818  0.4379 -0.0360
  108SAPE   C2911132   0.852   4.720   3.738 -0.2018  0.0847 -0.7422
  108SAPE   H9R11133   0.812   4.818   3.768 -2.7607 -1.0016 -0.3689
  108SAPE  C21011134   0.851   4.606   3.834  0.0654  0.1047  0.1950
  108SAPE  H10R11135   0.917   4.524   3.799  0.7414  1.4728 -1.9740
  108SAPE  H10S11136   0.753   4.554   3.839 -0.1819  0.5043 -0.3338
  108SAPE  C21111137   0.873   4.665   3.972  0.0690  0.3239 -0.3311
  108SAPE  H11R11138   0.784   4.723   4.000  0.4192  1.2099 -1.0119
  108SAPE  C21211139   0.983   4.647   4.049 -0.5800 -0.1649 -0.2882
  108SAPE  H12R11140   0.976   4.700   4.144 -1.6624  2.2377 -1.6090
  108SAPE  C21311141   1.114   4.579   4.022 -0.0678 -0.1264  0.2222
  108SAPE  H13R11142   1.142   4.578   3.915 -2.2682  4.2535 -0.6208
  108SAPE  H13S11143   1.111   4.473   4.055 -0.5072 -0.7467 -1.7073
  108SAPE  C21411144   1.216   4.652   4.102  0.1641  0.1224  0.1918
  108SAPE  H14R11145   1.241   4.743   4.045  1.4027  1.1460  2.2499
  108SAPE  C21511146   1.280   4.616   4.213  0.8944  0.1251 -0.3183
  108SAPE  H15R11147   1.344   4.689   4.265  0.3781  0.2516  0.1459
  108SAPE  C21611148   1.260   4.495   4.302 -0.0097  0.5975  0.5735
  108SAPE  H16R11149   1.324   4.413   4.264  1.1526  1.6132  0.2683
  108SAPE  H16S11150   1.153   4.466   4.303  0.1887 -0.4152 -1.7320
  108SAPE  C21711151   1.299   4.521   4.452 -0.2699 -0.5227 -0.3329
  108SAPE  H17R11152   1.400   4.568   4.456 -0.5964  0.4868 -2.4299
  108SAPE  H17S11153   1.306   4.422   4.500  3.0429 -0.3254 -0.1527
  108SAPE  C21811154   1.200   4.612   4.523  0.5151 -0.4663  0.1148
  108SAPE  H18R11155   1.093   4.586   4.539  0.4909  1.1364  3.4161
  108SAPE  H18S11156   1.188   4.711   4.476 -0.8234  0.2207  1.7876
  108SAPE  C21911157   1.257   4.659   4.664  0.8143  0.9298  0.2896
  108SAPE  H19R11158   1.208   4.749   4.704  0.9375 -0.1779  3.1649
  108SAPE  H19S11159   1.363   4.681   4.639  1.3516 -0.2124  1.4149
  108SAPE  C22011160   1.247   4.559   4.780 -0.1084  1.4004 -0.0014
  108SAPE  H20R11161   1.280   4.612   4.872 -1.3628  0.4667  1.0292
  108SAPE  H20S11162   1.307   4.467   4.769 -2.4818 -0.5082  1.8508
  108SAPE  H20T11163   1.140   4.535   4.799  0.0303  1.1306  0.4704
  108SAPE   C3311164   1.194   5.043   3.352  0.2339 -0.1790 -0.0462
  108SAPE   H3X11165   1.172   4.936   3.372 -2.4535  0.4707  0.8558
  108SAPE   H3Y11166   1.106   5.084   3.299  0.6588 -1.3157 -1.7085
  108SAPE   C3411167   1.213   5.111   3.492 -0.0766  0.3353  0.7889
  108SAPE   H4X11168   1.207   5.222   3.486 -1.1611  0.2588  0.2325
  108SAPE   H4Y11169   1.318   5.090   3.521  0.5625 -1.6401 -2.5120
  108SAPE   C3511170   1.113   5.067   3.592 -0.0753  0.1608  0.7613
  108SAPE   H5X11171   1.013   5.112   3.576 -1.5702 -2.9932  0.5048
  108SAPE   H5Y11172   1.084   4.960   3.589  1.4940 -0.2801  0.5159
  108SAPE   C3611173   1.151   5.104   3.731 -0.0014 -0.0988 -0.3519
  108SAPE   H6X11174   1.140   5.214   3.731 -0.7876 -0.1657  0.1906
  108SAPE   H6Y11175   1.250   5.065   3.764  0.5451  1.8777  0.4659
  108SAPE   C3711176   1.045   5.031   3.824 -0.4249  0.0437 -0.2003
  108SAPE   H7X11177   1.071   4.924   3.834 -1.6672 -0.2231  0.4513
  108SAPE   H7Y11178   0.940   5.042   3.787  0.6134  1.4353 -3.0287
  108SAPE   C3811179   1.038   5.100   3.963  0.2925 -0.0959 -0.2818
  108SAPE   H8X11180   1.002   5.204   3.945  2.1928  0.5878 -0.3202
  108SAPE   H8Y11181   1.145   5.105   3.993 -0.0260  0.9039  0.7901
  108SAPE   C3911182   0.951   5.028   4.074  0.0775 -0.1811  0.0602
  108SAPE   H9X11183   0.997   4.930   4.094  0.4335  0.1468  0.9086
  108SAPE   H9Y11184   0.850   5.016   4.029  0.3939  0.9293 -0.9973
  108SAPE  C31011185   0.949   5.114   4.203 -0.3499  0.2870  0.1477
  108SAPE  H10X11186   0.884   5.199   4.173 -0.5734  0.6553  1.6122
  108SAPE  H10Y11187   1.054   5.148   4.218 -0.3594 -0.4343  2.1191
  108SAPE  C31111188   0.902   5.039   4.323 -0.3569 -0.2132 -0.3912
  108SAPE  H11X11189   0.959   4.944   4.332 -0.7517 -0.4395 -0.2305
  108SAPE  H11Y11190   0.796   5.007   4.312  0.1327 -1.2243 -2.6523
  108SAPE  C31211191   0.930   5.131   4.443 -0.0886  0.1564 -0.9807
  108SAPE  H12X11192   0.849   5.207   4.449  2.7411  3.3697 -0.2607
  108SAPE  H12Y11193   1.029   5.182   4.441  0.7239 -1.3701 -1.7697
  108SAPE  C31311194   0.933   5.049   4.574  0.4555  0.4652 -0.1177
  108SAPE  H13X11195   0.998   4.960   4.561  1.8564  1.5067 -0.4461
  108SAPE  H13Y11196   0.833   5.013   4.607  1.2588 -0.1468  1.7823
  108SAPE  C31411197   1.012   5.118   4.694  0.4439 -0.1657 -0.3805
  108SAPE  H14X11198   0.944   5.193   4.740  0.0148  0.1571 -1.5196
  108SAPE  H14Y11199   1.103   5.163   4.650 -1.2522  3.1129 -0.8220
  108SAPE  C31511200   1.038   5.028   4.823  0.0007 -0.1531 -0.5563
  108SAPE  H15X11201   1.113   4.949   4.802  0.5102  0.6051 -1.6862
  108SAPE  H15Y11202   0.941   4.981   4.851 -0.1263 -0.4427 -1.4590
  108SAPE  C31611203   1.089   5.100   4.954 -0.5045 -0.3617 -0.4891
  108SAPE  H16X11204   1.013   5.181   4.965 -0.9178 -0.6554 -1.1159
  108SAPE  H16Y11205   1.185   5.149   4.926  0.1341 -0.4789  1.3923
  108SAPE  C31711206   1.108   5.013   5.083 -0.0121  0.1707 -0.4529
  108SAPE  H17X11207   1.168   4.924   5.053 -0.5321 -0.8536  1.4186
  108SAPE  H17Y11208   1.012   4.973   5.123  0.5800 -0.7337  0.1046
  108SAPE  C31811209   1.186   5.071   5.201  0.0388 -0.3821 -0.4038
  108SAPE  H18X11210   1.140   5.169   5.229  1.6244  0.1928  0.3130
  108SAPE  H18Y11211   1.294   5.085   5.180  0.6308 -2.3829  1.0031
  108SAPE  H18Z11212   1.177   5.006   5.291 -1.2695 -0.5091 -0.6012
  109SAPE     N11213   5.395   1.732   3.062  0.7752  0.3782  0.0421
  109SAPE   HN111214   5.430   1.719   2.965 -0.8776 -0.4112 -0.4883
  109SAPE   HN211215   5.331   1.814   3.048  0.6120  0.1052 -0.9104
  109SAPE   HN311216   5.470   1.758   3.128  0.1261  1.7018  0.3047
  109SAPE   C1211217   5.331   1.600   3.096  0.2462 -0.0436  0.4007
  109SAPE  H12A11218   5.318   1.542   3.002 -0.9329  0.4981  0.2034
  109SAPE  H12B11219   5.225   1.609   3.130 -1.0956 -0.3922 -3.1494
  109SAPE   C1111220   5.414   1.516   3.195  0.0585  0.0097 -0.0512
  109SAPE  H11A11221   5.374   1.412   3.191  1.0374 -0.3583 -0.5693
  109SAPE  H11B11222   5.389   1.552   3.297  3.1171  1.0070  0.4579
  109SAPE     P11223   5.645   1.397   3.149 -0.2550  0.5246 -0.2334
  109SAPE   O1311224   5.604   1.321   3.030 -0.0933 -0.1805 -0.5380
  109SAPE   O1411225   5.784   1.442   3.141 -0.4453 -0.0873 -0.7615
  109SAPE   O1211226   5.552   1.525   3.169 -0.4115 -0.2493  0.6516
  109SAPE   O1111227   5.611   1.319   3.277 -0.1189 -0.3757 -0.5601
  109SAPE    C111228   5.669   1.346   3.401 -0.4847 -0.3489  0.9687
  109SAPE    HA11229   5.741   1.267   3.432 -1.2201 -1.2150  0.5235
  109SAPE    HB11230   5.728   1.440   3.404  0.3627 -0.8731  1.3429
  109SAPE    C211231   5.574   1.361   3.527 -0.6613 -0.1244 -0.0069
  109SAPE    HS11232   5.607   1.283   3.599  2.2668  1.5598  0.6398
  109SAPE   O2111233   5.433   1.360   3.487  0.2245  0.3735 -0.0247
  109SAPE   C2111234   5.382   1.236   3.472  0.6529  0.1396  0.3832
  109SAPE   O2211235   5.445   1.133   3.497 -0.0558 -0.3073  0.3178
  109SAPE   C2211236   5.236   1.242   3.430  0.4398 -0.0425  0.1819
  109SAPE   H2R11237   5.177   1.326   3.474 -0.4220 -0.5922  0.0994
  109SAPE   H2S11238   5.234   1.267   3.321  1.3675 -0.0347  0.1627
  109SAPE    C311239   5.587   1.497   3.604  0.1961  0.5668 -0.0060
  109SAPE    HX11240   5.526   1.492   3.696 -1.1704 -1.1928 -0.9447
  109SAPE    HY11241   5.547   1.571   3.531 -1.1508 -0.1106  0.0161
  109SAPE   O3111242   5.730   1.523   3.637 -0.0812 -0.1459 -0.7136
  109SAPE   C3111243   5.764   1.659   3.633  0.6765 -0.3260 -0.4902
  109SAPE   O3211244   5.689   1.749   3.611  0.8525  0.4863  0.0628
  109SAPE   C3211245   5.911   1.675   3.645  0.3616  0.3942  0.0979
  109SAPE   H2X11246   5.972   1.674   3.552  1.0667 -2.1455  0.5161
  109SAPE   H2Y11247   5.936   1.581   3.699 -1.0258  0.8641  1.6391
  109SAPE   C2311248   5.171   1.103   3.445  0.2488  0.1759 -0.8002
  109SAPE   H3R11249   5.234   1.021   3.406  0.2249  0.3133 -1.1252
  109SAPE   H3S11250   5.071   1.110   3.396 -0.0836  0.6875 -0.0787
  109SAPE   C2411251   5.146   1.069   3.594 -0.1243  1.0031 -0.3024
  109SAPE   H4R11252   5.243   1.057   3.647 -0.6500 -1.9496  0.1653
  109SAPE   H4S11253   5.119   0.961   3.590  2.5658  0.2711 -0.3138
  109SAPE   C2511254   5.029   1.146   3.651 -0.7169  0.9619  0.1433
  109SAPE   H5R11255   4.933   1.136   3.598 -0.2869  0.0216 -0.5033
  109SAPE   C2611256   5.037   1.238   3.746  0.5261 -0.6222 -0.2680
  109SAPE   H6R11257   4.946   1.287   3.782  1.1307  0.3361  0.0188
  109SAPE   C2711258   5.172   1.284   3.814  0.2530  0.1120  0.0656
  109SAPE   H7R11259   5.170   1.387   3.856  2.1647  0.9440 -1.7465
  109SAPE   H7S11260   5.239   1.288   3.726 -0.3345 -3.0488 -0.6377
  109SAPE   C2811261   5.245   1.198   3.919 -0.5041 -0.6182  0.0411
  109SAPE   H8R11262   5.208   1.100   3.951  0.5684 -0.4198  2.0465
  109SAPE   C2911263   5.349   1.250   3.992  0.4191  0.3211  0.3381
  109SAPE   H9R11264   5.394   1.181   4.065  0.2965 -1.4050 -1.1384
  109SAPE  C21011265   5.410   1.381   3.995 -0.1747  0.5171 -0.0917
  109SAPE  H10R11266   5.414   1.426   3.894 -1.4709 -1.0216 -0.8784
  109SAPE  H10S11267   5.512   1.381   4.038 -0.5312 -1.8686  0.9381
  109SAPE  C21111268   5.351   1.492   4.077  0.9766  0.5820 -0.5369
  109SAPE  H11R11269   5.287   1.561   4.019 -1.7522  1.3417  3.0109
  109SAPE  C21211270   5.369   1.518   4.208  0.3760  0.0916  0.3671
  109SAPE  H12R11271   5.319   1.603   4.256  1.3029  2.4268 -2.4897
  109SAPE  C21311272   5.428   1.425   4.307 -0.6800  0.6842  0.1397
  109SAPE  H13R11273   5.441   1.475   4.405 -1.4263 -0.5006  0.8613
  109SAPE  H13S11274   5.532   1.393   4.280 -0.6616  1.0180 -0.1892
  109SAPE  C21411275   5.349   1.298   4.335  0.4002 -0.0444 -0.3537
  109SAPE  H14R11276   5.385   1.214   4.274  0.8333  0.0449 -0.2202
  109SAPE  C21511277   5.266   1.286   4.443 -0.3655  0.9528  0.4050
  109SAPE  H15R11278   5.216   1.190   4.460  2.8467 -1.0426 -0.4600
  109SAPE  C21611279   5.218   1.390   4.544 -0.3684 -0.4010  0.2167
  109SAPE  H16R11280   5.114   1.415   4.515 -0.9361 -2.5342  0.2582
  109SAPE  H16S11281   5.274   1.486   4.543  0.9218 -1.1238  0.5450
  109SAPE  C21711282   5.211   1.353   4.690  0.2750 -0.0139  0.4621
  109SAPE  H17R11283   5.143   1.265   4.696  0.2775  0.0336  1.4557
  109SAPE  H17S11284   5.165   1.435   4.749 -2.8473 -1.8673  0.8366
  109SAPE  C21811285   5.345   1.299   4.750 -0.1787  0.1823 -0.5426
  109SAPE  H18R11286   5.423   1.376   4.732  1.2879 -1.6194 -2.3692
  109SAPE  H18S11287   5.370   1.205   4.697 -2.5267  0.0877 -1.5940
  109SAPE  C21911288   5.326   1.267   4.904 -0.8719  0.0450  0.2773
  109SAPE  H19R11289   5.261   1.177   4.910 -0.5364 -0.1762  0.7336
  109SAPE  H19S11290   5.290   1.358   4.955  0.5929  0.0359  1.4206
  109SAPE  C22011291   5.464   1.240   4.966 -0.7277  0.0655  0.3720
  109SAPE  H20R11292   5.526   1.331   4.955  2.4990 -1.7921  1.4663
  109SAPE  H20S11293   5.515   1.156   4.913 -2.2344  0.3444 -1.6243
  109SAPE  H20T11294   5.460   1.207   5.072  0.1753 -0.1724  0.3411
  109SAPE   C3311295   5.958   1.797   3.740 -0.0203 -0.5525 -0.2219
  109SAPE   H3X11296   5.906   1.890   3.708  0.1097  0.0572  1.2453
  109SAPE   H3Y11297   6.065   1.824   3.730 -0.1566 -0.3697 -1.3397
  109SAPE   C3411298   5.948   1.785   3.893  0.0611  0.5910 -0.3560
  109SAPE   H4X11299   5.990   1.879   3.935  0.5705  0.9362 -1.5951
  109SAPE   H4Y11300   6.016   1.704   3.926 -1.5013  0.4338  2.8319
  109SAPE   C3511301   5.801   1.769   3.953 -0.6722 -0.2580 -0.1737
  109SAPE   H5X11302   5.749   1.676   3.922 -1.0001 -0.6089  1.3619
  109SAPE   H5Y11303   5.739   1.854   3.918 -1.2830 -0.4731  0.3681
  109SAPE   C3611304   5.800   1.756   4.112 -0.2779  0.6410 -0.3324
  109SAPE   H6X11305   5.868   1.837   4.145  1.3749 -1.6219  2.2226
  109SAPE   H6Y11306   5.843   1.659   4.145 -1.0674  1.0038  1.9413
  109SAPE   C3711307   5.663   1.765   4.191  0.1621  0.6273 -0.6594
  109SAPE   H7X11308   5.609   1.672   4.163 -1.1697  0.5036  2.0428
  109SAPE   H7Y11309   5.598   1.848   4.159 -0.0294  1.1039  0.8901
  109SAPE   C3811310   5.690   1.768   4.342 -0.7124 -0.5876 -0.6315
  109SAPE   H8X11311   5.743   1.864   4.363  0.9042 -1.6207  0.2377
  109SAPE   H8Y11312   5.752   1.682   4.375 -1.1266 -0.1343  1.4299
  109SAPE   C3911313   5.558   1.769   4.425  0.5216 -0.0806 -0.7854
  109SAPE   H9X11314   5.509   1.673   4.399 -1.1786  0.9016 -1.3241
  109SAPE   H9Y11315   5.490   1.852   4.397 -1.2837 -1.8386 -1.8809
  109SAPE  C31011316   5.594   1.758   4.572  0.2242  0.1323  0.1771
  109SAPE  H10X11317   5.666   1.840   4.590 -0.5518  1.1449 -1.1220
  109SAPE  H10Y11318   5.647   1.665   4.602  0.8343 -0.1065 -1.5065
  109SAPE  C31111319   5.476   1.783   4.673 -0.5205  0.2696  0.2847
  109SAPE  H11X11320   5.402   1.703   4.650 -0.3041  0.7108 -2.1685
  109SAPE  H11Y11321   5.424   1.879   4.649  0.1904  0.4357 -0.6576
  109SAPE  C31211322   5.512   1.786   4.826  0.5915 -0.0585 -0.4141
  109SAPE  H12X11323   5.450   1.864   4.876  1.7200  0.6556 -0.0835
  109SAPE  H12Y11324   5.617   1.818   4.842 -0.0834  2.6587 -0.9530
  109SAPE  C31311325   5.509   1.649   4.894 -0.5067 -0.1083  0.3590
  109SAPE  H13X11326   5.574   1.588   4.827 -0.0915 -0.4704  1.0867
  109SAPE  H13Y11327   5.412   1.595   4.889 -0.3904 -0.2297 -1.0151
  109SAPE  C31411328   5.568   1.635   5.035 -0.2430  0.3583  0.0740
  109SAPE  H14X11329   5.585   1.528   5.060 -2.7040  0.7298  4.1891
  109SAPE  H14Y11330   5.496   1.667   5.113  2.2979  1.3987  2.1269
  109SAPE  C31511331   5.688   1.730   5.052 -0.5387  0.4103 -0.0788
  109SAPE  H15X11332   5.656   1.834   5.072  1.1914  1.0981 -0.6392
  109SAPE  H15Y11333   5.748   1.733   4.958 -0.2684  0.5085  0.0951
  109SAPE  C31611334   5.778   1.683   5.178 -0.4704 -0.5757 -0.3673
  109SAPE  H16X11335   5.813   1.581   5.151 -1.3049 -1.1957  0.7931
  109SAPE  H16Y11336   5.723   1.677   5.275  1.2734  1.3838  0.8293
  109SAPE  C31711337   5.894   1.776   5.200 -0.1204 -0.1848  0.6225
  109SAPE  H17X11338   5.858   1.877   5.227 -0.4495  0.0006 -0.4616
  109SAPE  H17Y11339   5.939   1.793   5.100 -3.2583  0.9062 -0.7181
  109SAPE  C31811340   6.006   1.723   5.294 -0.3375 -0.4752 -0.3596
  109SAPE  H18X11341   6.094   1.791   5.301 -0.1421 -0.7210 -0.4461
  109SAPE  H18Y11342   6.041   1.625   5.257  1.5941 -0.2128  0.6681
  109SAPE  H18Z11343   5.959   1.706   5.393 -0.4673 -0.0644 -0.3471
  110SAPE     N11344   5.908   0.557   2.994  0.1719  0.5248 -0.2679
  110SAPE   HN111345   5.994   0.549   3.052 -1.0486 -1.1877  1.4150
  110SAPE   HN211346   5.872   0.460   2.984  0.9377  0.1082  0.7859
  110SAPE   HN311347   5.937   0.596   2.901  1.3527  2.4520  0.8451
  110SAPE   C1211348   5.808   0.640   3.067  0.0202 -0.2316  0.4108
  110SAPE  H12A11349   5.792   0.727   2.999  1.2065 -0.5013 -0.2376
  110SAPE  H12B11350   5.862   0.677   3.157  2.6629 -1.4331 -0.6078
  110SAPE   C1111351   5.678   0.570   3.107  0.3730 -0.2274 -0.5244
  110SAPE  H11A11352   5.621   0.635   3.176 -1.4174  1.0843 -3.0740
  110SAPE  H11B11353   5.699   0.471   3.152 -0.3624 -0.7160 -1.2288
  110SAPE     P11354   5.445   0.566   2.972  0.0975 -0.5696  0.0779
  110SAPE   O1311355   5.404   0.680   3.061  0.4164 -0.0711 -0.2311
  110SAPE   O1411356   5.412   0.574   2.830 -0.2127 -0.9199 -0.2669
  110SAPE   O1211357   5.604   0.558   2.990  0.0675  0.6469 -0.2107
  110SAPE   O1111358   5.384   0.429   3.022  0.6562  0.0037 -1.0555
  110SAPE    C111359   5.455   0.307   3.051 -0.0902  0.1186 -0.0184
  110SAPE    HA11360   5.442   0.233   2.969 -1.9637 -2.2887  2.2463
  110SAPE    HB11361   5.564   0.329   3.054  0.1423 -0.7927 -1.0701
  110SAPE    C211362   5.419   0.237   3.190  0.4976 -0.2665  1.3167
  110SAPE    HS11363   5.472   0.139   3.200  1.5317  0.3991  2.7590
  110SAPE   O2111364   5.280   0.219   3.199 -0.4373 -0.4657 -0.3988
  110SAPE   C2111365   5.233   0.110   3.129 -0.2551 -0.5359 -0.4820
  110SAPE   O2211366   5.304   0.039   3.063 -0.5006  0.0682  0.1215
  110SAPE   C2211367   5.094   0.079   3.170 -0.0483  0.3320  0.4054
  110SAPE   H2R11368   5.029   0.153   3.119 -1.2912 -0.4655  0.7835
  110SAPE   H2S11369   5.075  -0.015   3.114  2.4233 -1.1156  1.8475
  110SAPE    C311370   5.466   0.332   3.311  0.5574  0.3445  0.6148
  110SAPE    HX11371   5.573   0.361   3.314  0.9003 -0.8750  0.5556
  110SAPE    HY11372   5.417   0.432   3.310  3.4981  1.9027 -0.4135
  110SAPE   O3111373   5.441   0.268   3.432  0.2755 -0.3919 -1.0841
  110SAPE   C3111374   5.452   0.351   3.541 -0.0250  0.2570 -0.0206
  110SAPE   O3211375   5.483   0.466   3.543 -0.2900 -0.2771  0.0441
  110SAPE   C3211376   5.427   0.263   3.661  0.1131 -0.1357  0.7286
  110SAPE   H2X11377   5.509   0.188   3.671  0.7109  0.6033  1.5289
  110SAPE   H2Y11378   5.335   0.208   3.632  0.2317 -0.4727  0.9701
  110SAPE   C2311379   5.074   0.061   3.320  1.0078  0.9424 -0.2051
  110SAPE   H3R11380   5.071   0.153   3.382 -0.9137 -1.1780  3.2075
  110SAPE   H3S11381   5.153   0.001   3.370  0.0198  0.7516  1.2001
  110SAPE   C2411382   4.944  -0.001   3.344  0.6867  0.2674  0.2257
  110SAPE   H4R11383   4.867   0.069   3.304 -0.7275 -0.3874  1.6362
  110SAPE   H4S11384   4.913   0.005   3.451 -0.2520  0.0114 -0.0153
  110SAPE   C2511385   4.934  -0.137   3.288 -0.2569 -0.3794 -0.5433
  110SAPE   H5R11386   4.908  -0.150   3.182 -0.9946 -2.0171 -0.1883
  110SAPE   C2611387   4.966  -0.249   3.359  0.5338 -0.5194 -0.6621
  110SAPE   H6R11388   4.965  -0.346   3.308  1.4894 -0.1110 -1.4901
  110SAPE   C2711389   4.999  -0.258   3.509  0.2316 -0.3380  0.0233
  110SAPE   H7R11390   5.036  -0.160   3.548  0.6485  0.6956 -2.7374
  110SAPE   H7S11391   5.079  -0.333   3.528 -1.2898 -1.9594  0.2935
  110SAPE   C2811392   4.872  -0.298   3.571  0.0079 -0.4299  0.1276
  110SAPE   H8R11393   4.806  -0.363   3.511 -0.7647  1.0026 -0.6283
  110SAPE   C2911394   4.829  -0.252   3.691 -0.0069 -0.0005 -0.0402
  110SAPE   H9R11395   4.734  -0.292   3.729  0.1648 -0.4059 -0.0332
  110SAPE  C21011396   4.898  -0.153   3.787  0.1719  0.2893 -0.0785
  110SAPE  H10R11397   4.823  -0.075   3.812 -1.0783 -0.2975 -1.8590
  110SAPE  H10S11398   4.993  -0.103   3.756  0.6239 -1.0754 -0.9495
  110SAPE  C21111399   4.934  -0.213   3.918 -0.1961 -0.5964 -1.1595
  110SAPE  H11R11400   4.932  -0.322   3.904  0.9705 -0.9899  1.2345
  110SAPE  C21211401   4.954  -0.161   4.047 -0.0518  0.2096  0.7783
  110SAPE  H12R11402   4.981  -0.226   4.131 -0.4835 -1.1692 -0.1282
  110SAPE  C21311403   4.945  -0.010   4.074  0.2011  0.3956  0.5291
  110SAPE  H13R11404   4.839   0.024   4.082  0.2458  0.2753  2.0128
  110SAPE  H13S11405   4.985   0.044   3.986  1.1542  0.4386  0.9775
  110SAPE  C21411406   5.050   0.035   4.178  0.4301  0.0349 -0.2529
  110SAPE  H14R11407   5.149  -0.004   4.149 -0.4204 -1.0921 -1.7764
  110SAPE  C21511408   5.031   0.068   4.308 -0.4192  0.0112  0.5814
  110SAPE  H15R11409   5.120   0.096   4.366 -1.0323 -0.5465  1.8343
  110SAPE  C21611410   4.901   0.088   4.387  0.5868  0.4987 -0.4816
  110SAPE  H16R11411   4.812   0.045   4.334 -0.3540  2.4913 -0.5905
  110SAPE  H16S11412   4.883   0.197   4.391  2.0099  0.7350 -0.1083
  110SAPE  C21711413   4.899   0.019   4.527  0.2911 -0.0646 -0.2694
  110SAPE  H17R11414   4.919  -0.089   4.511  0.1777 -0.3515  1.3716
  110SAPE  H17S11415   4.797   0.028   4.572  0.2444 -5.9937  1.7215
  110SAPE  C21811416   5.003   0.075   4.627 -0.6108  0.2107 -0.6013
  110SAPE  H18R11417   4.989   0.186   4.623 -0.5134  0.2669  0.4527
  110SAPE  H18S11418   5.108   0.056   4.598 -0.1013  0.7600  0.7829
  110SAPE  C21911419   4.987   0.033   4.776  0.0697  0.2870 -0.0884
  110SAPE  H19R11420   4.892   0.081   4.808 -1.1275  0.7887 -3.9138
  110SAPE  H19S11421   5.071   0.074   4.837  1.0367  0.2575 -1.3626
  110SAPE  C22011422   4.978  -0.116   4.801  0.4822  0.5007 -0.4082
  110SAPE  H20R11423   4.902  -0.167   4.738  0.0264  0.3270  0.2649
  110SAPE  H20S11424   4.950  -0.126   4.908  6.0923 -1.6210  1.2071
  110SAPE  H20T11425   5.074  -0.170   4.790 -0.3012 -0.9765 -0.2626
  110SAPE   C3311426   5.375   0.340   3.789 -0.3993 -0.8251  0.2681
  110SAPE   H3X11427   5.301   0.416   3.756  0.5170  0.1831  0.4691
  110SAPE   H3Y11428   5.462   0.395   3.830  0.0239 -1.3828  0.1176
  110SAPE   C3411429   5.310   0.243   3.890  0.2033  0.1513 -0.1480
  110SAPE   H4X11430   5.375   0.156   3.916 -0.0904 -1.1864 -3.3933
  110SAPE   H4Y11431   5.216   0.201   3.848  0.3783  0.1280 -0.5161
  110SAPE   C3511432   5.269   0.314   4.023  0.4766  0.4859 -0.2058
  110SAPE   H5X11433   5.229   0.227   4.081 -0.9685  1.7828  0.8155
  110SAPE   H5Y11434   5.173   0.368   4.006 -0.8937 -1.1657  1.7533
  110SAPE   C3611435   5.375   0.393   4.096 -0.3646 -0.2721  0.0689
  110SAPE   H6X11436   5.429   0.463   4.028  1.1891 -1.8312 -0.3544
  110SAPE   H6Y11437   5.447   0.316   4.129  0.6249  0.9223  0.7979
  110SAPE   C3711438   5.319   0.488   4.209 -0.0915  0.8717 -0.2834
  110SAPE   H7X11439   5.241   0.552   4.161  0.1838  0.2272 -1.6205
  110SAPE   H7Y11440   5.404   0.556   4.231  0.5175  0.3529 -1.0176
  110SAPE   C3811441   5.267   0.411   4.331  0.0719 -0.5569  0.1392
  110SAPE   H8X11442   5.344   0.351   4.384 -0.6663 -0.4857  1.3211
  110SAPE   H8Y11443   5.191   0.340   4.292 -1.8708  1.0738  0.7851
  110SAPE   C3911444   5.206   0.499   4.443  0.5378 -0.0926 -0.6013
  110SAPE   H9X11445   5.127   0.568   4.408  0.7797 -0.3711 -1.7491
  110SAPE   H9Y11446   5.292   0.555   4.486  1.5349 -2.1179  0.1983
  110SAPE  C31011447   5.154   0.419   4.561 -0.2824  0.1547 -0.2450
  110SAPE  H10X11448   5.223   0.332   4.560  2.3538  2.0309  1.6467
  110SAPE  H10Y11449   5.051   0.382   4.541 -1.0272  1.4967  0.8774
  110SAPE  C31111450   5.144   0.496   4.690  0.1658  0.6788  0.7244
  110SAPE  H11X11451   5.071   0.579   4.687 -0.4964  0.1196  1.0343
  110SAPE  H11Y11452   5.242   0.541   4.717  0.3085 -0.4128  2.1174
  110SAPE  C31211453   5.105   0.423   4.819  0.8653 -0.3160  0.0076
  110SAPE  H12X11454   5.026   0.348   4.795  1.6510 -1.8024  1.8465
  110SAPE  H12Y11455   5.064   0.496   4.893  1.4596  1.7405 -1.6084
  110SAPE  C31311456   5.217   0.346   4.887  0.7737  0.5151 -0.3616
  110SAPE  H13X11457   5.309   0.409   4.891 -0.3768  2.2342  0.4179
  110SAPE  H13Y11458   5.249   0.258   4.828  1.0895  0.9314 -0.8246
  110SAPE  C31411459   5.185   0.304   5.036  0.1964  0.1218 -0.0764
  110SAPE  H14X11460   5.078   0.273   5.039 -0.2675  1.7006  0.8464
  110SAPE  H14Y11461   5.181   0.394   5.101 -0.1344  1.3295 -1.7076
  110SAPE  C31511462   5.279   0.200   5.099  0.0478  0.1159 -0.3500
  110SAPE  H15X11463   5.258   0.188   5.208  1.4949 -2.7851 -0.2756
  110SAPE  H15Y11464   5.386   0.224   5.086  0.0396 -0.0959 -0.8210
  110SAPE  C31611465   5.246   0.054   5.058 -0.1940 -0.0556 -0.4063
  110SAPE  H16X11466   5.248   0.028   4.950 -2.6520 -1.0479 -0.2838
  110SAPE  H16Y11467   5.144   0.022   5.088  0.1556 -2.0119 -1.1710
  110SAPE  C31711468   5.348  -0.043   5.126 -0.7363  0.8982 -0.4368
  110SAPE  H17X11469   5.349  -0.015   5.234  0.7785 -1.1701  0.1499
  110SAPE  H17Y11470   5.440  -0.008   5.073 -0.7769  0.5271 -0.7499
  110SAPE  C31811471   5.330  -0.191   5.114 -0.1615 -0.7695 -0.1798
  110SAPE  H18X11472   5.356  -0.228   5.013  1.6719  1.1625 -0.5018
  110SAPE  H18Y11473   5.228  -0.201   5.158  1.0590  2.2310  4.0235
  110SAPE  H18Z11474   5.396  -0.252   5.179 -0.6042 -1.0709 -0.0082
  111SAPE     N11475   3.275   1.616   2.828  0.1816 -0.0159 -0.1598
  111SAPE   HN111476   3.221   1.699   2.796 -0.1241 -1.1530 -2.8477
  111SAPE   HN211477   3.221   1.553   2.890  1.1828  0.4349  1.2162
  111SAPE   HN311478   3.351   1.657   2.886  2.5281 -3.2730 -0.6488
  111SAPE   C1211479   3.340   1.535   2.716  0.3903  0.0236  0.0967
  111SAPE  H12A11480   3.431   1.582   2.673  0.1644 -0.2117 -0.6499
  111SAPE  H12B11481   3.267   1.527   2.633  1.9423  0.3248 -1.3414
  111SAPE   C1111482   3.394   1.404   2.762  0.5719  0.0124 -0.2036
  111SAPE  H11A11483   3.439   1.353   2.674 -0.3921  0.7902 -1.1742
  111SAPE  H11B11484   3.300   1.352   2.788 -0.3261  1.5675 -0.2379
  111SAPE     P11485   3.630   1.396   2.867 -0.0412 -0.1926 -0.0236
  111SAPE   O1311486   3.653   1.280   2.772 -0.0055  0.1643 -0.3020
  111SAPE   O1411487   3.688   1.527   2.827 -0.0914 -0.0113 -0.2789
  111SAPE   O1211488   3.470   1.407   2.885  0.0117  0.8746  0.1553
  111SAPE   O1111489   3.682   1.356   3.019 -0.1855 -0.0463 -0.1401
  111SAPE    C111490   3.651   1.458   3.113  0.5473 -0.4475 -0.3089
  111SAPE    HA11491   3.688   1.561   3.094  0.4047 -0.5113 -0.9642
  111SAPE    HB11492   3.542   1.460   3.131  0.7991 -0.9818  1.4669
  111SAPE    C211493   3.717   1.420   3.248  0.1711  0.5418  0.1493
  111SAPE    HS11494   3.824   1.416   3.221 -0.1571 -0.5146 -1.1329
  111SAPE   O2111495   3.668   1.293   3.303 -0.0911 -0.1511  0.7421
  111SAPE   C2111496   3.752   1.227   3.385  0.1371  0.4905  0.7840
  111SAPE   O2211497   3.865   1.263   3.411  0.6850 -0.4170  0.1853
  111SAPE   C2211498   3.691   1.103   3.448 -0.0686 -0.3850 -0.0293
  111SAPE   H2R11499   3.640   1.057   3.361  3.6409 -0.4365 -2.4137
  111SAPE   H2S11500   3.772   1.037   3.484 -1.5194 -1.0291  2.2966
  111SAPE    C311501   3.681   1.526   3.357 -0.4350 -0.5370 -0.1783
  111SAPE    HX11502   3.586   1.489   3.401 -0.0971  0.7556  1.7146
  111SAPE    HY11503   3.656   1.625   3.314 -0.2931 -0.8571 -1.0280
  111SAPE   O3111504   3.772   1.530   3.466  0.4442  0.8950 -0.4964
  111SAPE   C3111505   3.874   1.616   3.459 -0.3297  0.1156 -0.2459
  111SAPE   O3211506   3.897   1.693   3.367 -0.2191 -0.3082  0.1712
  111SAPE   C3211507   3.963   1.601   3.585 -0.1430  0.2593  1.6506
  111SAPE   H2X11508   4.022   1.695   3.587 -0.8571  0.8016 -0.5124
  111SAPE   H2Y11509   4.025   1.509   3.577 -1.2386 -0.4359  0.8115
  111SAPE   C2311510   3.605   1.142   3.566  0.3338  0.2198 -0.8964
  111SAPE   H3R11511   3.573   1.047   3.615 -0.4777  0.9574  0.0569
  111SAPE   H3S11512   3.512   1.186   3.525  1.1540  2.0174 -0.9446
  111SAPE   C2411513   3.656   1.241   3.669  0.6360 -1.1853  0.5493
  111SAPE   H4R11514   3.567   1.266   3.732  0.8552  1.3470 -0.0324
  111SAPE   H4S11515   3.682   1.336   3.618 -1.1915  0.2377  2.0958
  111SAPE   C2511516   3.773   1.182   3.733 -0.0983  0.1869  0.3973
  111SAPE   H5R11517   3.868   1.181   3.677 -0.0827 -1.2491  0.4101
  111SAPE   C2611518   3.778   1.136   3.861  0.0109  0.6403  0.1224
  111SAPE   H6R11519   3.872   1.095   3.901 -0.8745 -0.3875  1.2532
  111SAPE   C2711520   3.661   1.140   3.951 -0.2543 -0.5028 -0.7196
  111SAPE   H7R11521   3.670   1.060   4.027 -1.6246  0.6916  0.7885
  111SAPE   H7S11522   3.566   1.106   3.906 -0.6224 -2.0816  1.1142
  111SAPE   C2811523   3.650   1.280   4.010 -0.5818  0.4186  1.0204
  111SAPE   H8R11524   3.638   1.359   3.934  0.4866 -0.1010  0.2898
  111SAPE   C2911525   3.674   1.306   4.139  0.7853  0.8543  0.6874
  111SAPE   H9R11526   3.674   1.411   4.170  0.2561  1.1741 -0.3318
  111SAPE  C21011527   3.703   1.205   4.250 -0.0497 -0.2216 -0.5110
  111SAPE  H10R11528   3.808   1.174   4.230  0.4672 -1.2033  3.0248
  111SAPE  H10S11529   3.640   1.115   4.236  0.9027 -1.3173  1.7830
  111SAPE  C21111530   3.706   1.256   4.391  0.0969 -0.4707  0.4357
  111SAPE  H11R11531   3.740   1.360   4.402  1.6226 -0.6650 -1.8066
  111SAPE  C21211532   3.691   1.184   4.503 -0.3583 -0.1423 -0.3418
  111SAPE  H12R11533   3.693   1.245   4.595 -1.9886 -0.4012 -0.1069
  111SAPE  C21311534   3.648   1.035   4.522 -0.0952 -0.3576 -0.7853
  111SAPE  H13R11535   3.599   0.998   4.430 -3.8835  1.9568  0.0798
  111SAPE  H13S11536   3.560   1.044   4.590  1.5945  1.6192  1.3146
  111SAPE  C21411537   3.750   0.937   4.584 -0.4852 -0.2253 -0.4306
  111SAPE  H14R11538   3.756   0.934   4.693  0.7548 -0.2164 -0.4906
  111SAPE  C21511539   3.842   0.862   4.525  1.1253 -0.0437  0.8638
  111SAPE  H15R11540   3.916   0.809   4.586 -0.4871 -1.8346  1.3445
  111SAPE  C21611541   3.859   0.854   4.378 -0.6499  0.5078  0.0501
  111SAPE  H16R11542   3.785   0.914   4.321  0.1820  0.2041 -1.4124
  111SAPE  H16S11543   3.844   0.747   4.353 -1.4327  0.3919  0.9386
  111SAPE  C21711544   3.998   0.897   4.328 -0.3050  0.0448  0.2897
  111SAPE  H17R11545   4.075   0.834   4.375  3.2338  1.9350 -2.4767
  111SAPE  H17S11546   4.011   1.004   4.356  0.0659  0.3541 -0.9672
  111SAPE  C21811547   4.021   0.896   4.176  0.0085 -0.1160  0.2777
  111SAPE  H18R11548   4.123   0.929   4.149  0.8540 -2.1650  0.8217
  111SAPE  H18S11549   3.938   0.955   4.131 -1.6490 -1.2805  1.7028
  111SAPE  C21911550   3.993   0.762   4.105 -0.1450  0.8684 -0.3953
  111SAPE  H19R11551   3.909   0.711   4.157 -2.0435  0.1837 -3.8473
  111SAPE  H19S11552   4.087   0.705   4.124 -1.2517 -0.9148 -0.0330
  111SAPE  C22011553   3.965   0.771   3.957 -0.0002  0.1933 -0.1065
  111SAPE  H20R11554   3.866   0.809   3.922  0.2495 -0.1270 -1.1964
  111SAPE  H20S11555   3.960   0.676   3.899 -2.8212 -0.6977  1.3987
  111SAPE  H20T11556   4.045   0.833   3.912 -0.1096  1.6592  1.6288
  111SAPE   C3311557   3.881   1.590   3.716  0.0789  1.1103  0.3430
  111SAPE   H3X11558   3.837   1.489   3.731 -0.7606  1.1849 -1.3479
  111SAPE   H3Y11559   3.796   1.662   3.706 -1.4050 -0.6991 -0.7391
  111SAPE   C3411560   3.965   1.648   3.835  0.1613  0.2162  0.2221
  111SAPE   H4X11561   3.962   1.759   3.829  0.5048  0.2650  0.8596
  111SAPE   H4Y11562   4.070   1.611   3.831 -0.0714 -0.5629  1.0080
  111SAPE   C3511563   3.903   1.614   3.971 -0.1197  0.6447 -0.6419
  111SAPE   H5X11564   3.912   1.505   3.990  0.4848  0.9807  1.2113
  111SAPE   H5Y11565   3.793   1.628   3.965 -0.2394  0.3154  0.5366
  111SAPE   C3611566   3.964   1.702   4.085  0.3367 -0.5404 -0.7071
  111SAPE   H6X11567   3.921   1.804   4.078 -0.2313 -0.8184 -1.4632
  111SAPE   H6Y11568   4.075   1.708   4.075  0.3384 -1.1090 -1.1093
  111SAPE   C3711569   3.924   1.655   4.223 -0.8543  0.2421  0.5354
  111SAPE   H7X11570   3.940   1.546   4.234 -1.4344  0.1270  0.2670
  111SAPE   H7Y11571   3.814   1.662   4.241 -1.2644  2.3435 -2.0704
  111SAPE   C3811572   3.999   1.730   4.333  0.0536 -0.0996  0.5035
  111SAPE   H8X11573   3.971   1.837   4.336 -0.3998 -0.1085 -1.6766
  111SAPE   H8Y11574   4.106   1.726   4.301 -0.4255 -1.4851 -1.1268
  111SAPE   C3911575   3.990   1.660   4.473 -0.1450  1.4975 -0.0375
  111SAPE   H9X11576   4.073   1.680   4.545 -0.5659  0.9385  0.6167
  111SAPE   H9Y11577   4.005   1.551   4.457  0.7484  1.4889  0.7715
  111SAPE  C31011578   3.852   1.664   4.538  0.4880 -0.7309 -0.6152
  111SAPE  H10X11579   3.769   1.611   4.487 -0.9553  0.0612  0.8069
  111SAPE  H10Y11580   3.820   1.767   4.564  0.1612 -0.8448 -0.5682
  111SAPE  C31111581   3.856   1.604   4.689 -0.4551  0.1948  0.6879
  111SAPE  H11X11582   3.755   1.612   4.735 -0.6032 -0.0177  0.4018
  111SAPE  H11Y11583   3.925   1.663   4.753  1.6897 -2.0905  0.6510
  111SAPE  C31211584   3.876   1.456   4.708 -0.1549  0.9057  0.4278
  111SAPE  H12X11585   3.966   1.418   4.656  0.7751  2.1098  1.1297
  111SAPE  H12Y11586   3.791   1.404   4.658 -0.2131  1.8900 -0.5337
  111SAPE  C31311587   3.865   1.411   4.858  0.3151  0.4012 -0.0332
  111SAPE  H13X11588   3.761   1.424   4.894  0.6300  1.7199  0.4528
  111SAPE  H13Y11589   3.938   1.466   4.921  0.2661 -0.5578  0.8852
  111SAPE  C31411590   3.909   1.263   4.857  0.0010 -0.3799 -0.0800
  111SAPE  H14X11591   4.017   1.258   4.830  0.4066 -1.5705  1.5533
  111SAPE  H14Y11592   3.833   1.209   4.796  0.1739  0.1864 -0.8055
  111SAPE  C31511593   3.906   1.200   4.996  0.0765 -0.0271  0.1929
  111SAPE  H15X11594   3.959   1.265   5.069 -0.8278  0.1496  0.7087
  111SAPE  H15Y11595   3.959   1.103   4.991 -2.4920 -1.4935 -0.1522
  111SAPE  C31611596   3.762   1.171   5.054 -0.2058 -0.2137 -0.1349
  111SAPE  H16X11597   3.689   1.183   4.972  0.3816  1.9393 -0.3945
  111SAPE  H16Y11598   3.745   1.233   5.144  0.6545 -1.2394  0.7649
  111SAPE  C31711599   3.759   1.028   5.115 -0.0212 -0.2334  0.0491
  111SAPE  H17X11600   3.843   1.012   5.187  0.3099 -1.6545 -0.6140
  111SAPE  H17Y11601   3.769   0.962   5.026 -1.2469 -1.0714  0.5100
  111SAPE  C31811602   3.627   0.989   5.184 -0.7104  0.0105  0.3715
  111SAPE  H18X11603   3.618   0.878   5.185  3.2066 -0.5215 -1.4069
  111SAPE  H18Y11604   3.542   1.046   5.141  0.0023  1.7573  1.2069
  111SAPE  H18Z11605   3.649   1.025   5.287  2.0257 -0.2021 -0.0645
  112SAPE     N11606   1.126   1.029   2.984 -0.0165 -0.1016  1.0755
  112SAPE   HN111607   1.025   1.019   3.007 -0.9114 -0.9897 -2.6049
  112SAPE   HN211608   1.142   1.113   2.925  0.0215 -0.2883  0.8174
  112SAPE   HN311609   1.137   0.947   2.921 -1.3825 -0.1650  0.8944
  112SAPE   C1211610   1.214   1.038   3.108  0.0596 -0.6506 -0.1488
  112SAPE  H12A11611   1.179   1.128   3.163  2.6776  0.0988  0.4273
  112SAPE  H12B11612   1.321   1.052   3.082 -0.1504 -0.4011 -0.8968
  112SAPE   C1111613   1.207   0.917   3.203  0.9910  0.1950  0.1053
  112SAPE  H11A11614   1.102   0.916   3.238 -0.0578  2.6178 -2.5648
  112SAPE  H11B11615   1.272   0.929   3.293 -0.7815 -0.1947  1.5085
  112SAPE     P11616   1.148   0.672   3.163 -0.1925 -0.0861  0.0942
  112SAPE   O1311617   1.005   0.686   3.134  0.2942 -0.3921  0.7772
  112SAPE   O1411618   1.232   0.570   3.102 -0.3796  0.9680  0.1223
  112SAPE   O1211619   1.237   0.801   3.129  0.2107 -0.2165 -0.0388
  112SAPE   O1111620   1.158   0.647   3.321  0.0175  0.3727 -0.1338
  112SAPE    C111621   1.066   0.696   3.416  0.4061 -0.0218  0.2680
  112SAPE    HA11622   1.059   0.807   3.418 -0.8338 -0.0995  1.2582
  112SAPE    HB11623   0.962   0.676   3.383  0.2943 -0.2319  0.7318
  112SAPE    C211624   1.094   0.648   3.558  0.1791 -0.2953 -0.5357
  112SAPE    HS11625   1.002   0.638   3.619  0.9090 -3.0441  0.2482
  112SAPE   O2111626   1.187   0.746   3.619 -0.3315 -0.0080 -0.1588
  112SAPE   C2111627   1.131   0.843   3.680 -0.1299  0.6764 -0.0162
  112SAPE   O2211628   1.019   0.881   3.663 -0.1040 -0.2608  0.3305
  112SAPE   C2211629   1.231   0.915   3.770  0.2103 -0.2747 -0.3726
  112SAPE   H2R11630   1.322   0.853   3.787 -0.7082 -1.9982 -1.4934
  112SAPE   H2S11631   1.253   1.003   3.707 -1.0499  0.9908  0.8762
  112SAPE    C311632   1.151   0.501   3.575  0.1610 -0.2868  0.7595
  112SAPE    HX11633   1.234   0.505   3.501 -2.2347  2.4782 -2.1082
  112SAPE    HY11634   1.079   0.425   3.540  0.7361  1.1173 -4.2804
  112SAPE   O3111635   1.198   0.472   3.712 -0.3376  0.3009  0.3105
  112SAPE   C3111636   1.316   0.500   3.754  0.9140  0.1169 -0.7342
  112SAPE   O3211637   1.406   0.546   3.684  0.5738 -0.4046 -0.0055
  112SAPE   C3211638   1.318   0.484   3.897 -0.1176  0.0562  0.4820
  112SAPE   H2X11639   1.291   0.381   3.929  1.1372 -0.3531  0.2533
  112SAPE   H2Y11640   1.255   0.560   3.948 -3.6409 -2.3764  0.1653
  112SAPE   C2311641   1.179   0.963   3.900  0.7600  0.4060  0.4166
  112SAPE   H3R11642   1.071   0.981   3.881  0.0756 -2.8880  0.6587
  112SAPE   H3S11643   1.230   1.056   3.935 -0.5623  1.5453 -0.5586
  112SAPE   C2411644   1.180   0.869   4.023 -0.0206 -0.0194  0.5990
  112SAPE   H4R11645   1.146   0.772   3.981 -1.9377  0.1885  1.5745
  112SAPE   H4S11646   1.115   0.916   4.100 -0.1699  1.0485 -0.1545
  112SAPE   C2511647   1.326   0.850   4.076  0.2861  0.2222  0.0638
  112SAPE   H5R11648   1.403   0.815   4.005 -1.6658 -2.5523 -0.8499
  112SAPE   C2611649   1.371   0.872   4.197 -0.0999  0.1935 -0.1838
  112SAPE   H6R11650   1.470   0.829   4.216 -1.5516 -3.0477  0.7020
  112SAPE   C2711651   1.299   0.922   4.318  0.4618 -0.0072 -0.3121
  112SAPE   H7R11652   1.298   0.840   4.394 -0.4448  0.2201 -0.0716
  112SAPE   H7S11653   1.190   0.912   4.299  0.1752  0.7995  0.8307
  112SAPE   C2811654   1.323   1.056   4.363 -0.5724  0.0475 -0.2152
  112SAPE   H8R11655   1.310   1.137   4.290 -2.6464 -0.3549 -0.3322
  112SAPE   C2911656   1.331   1.094   4.493 -0.4663 -0.2061 -0.8524
  112SAPE   H9R11657   1.341   1.198   4.527  2.3166 -0.6772  0.0644
  112SAPE  C21011658   1.325   0.994   4.606 -0.2439 -0.1139  0.5776
  112SAPE  H10R11659   1.373   1.043   4.693  0.6290  1.9729 -0.9821
  112SAPE  H10S11660   1.389   0.911   4.570 -0.2496  0.0488  0.1885
  112SAPE  C21111661   1.174   0.958   4.629  0.0901 -0.4497  0.2761
  112SAPE  H11R11662   1.112   0.966   4.538  0.3644 -1.7859 -0.0493
  112SAPE  C21211663   1.132   0.913   4.749 -0.7271  0.4011 -0.5213
  112SAPE  H12R11664   1.027   0.885   4.769  0.3437 -0.5851  5.2624
  112SAPE  C21311665   1.218   0.879   4.868  0.2122 -0.5057  0.6243
  112SAPE  H13R11666   1.314   0.934   4.859 -1.0763  1.7398 -0.2746
  112SAPE  H13S11667   1.244   0.771   4.858 -0.4589 -0.5092 -1.7399
  112SAPE  C21411668   1.147   0.918   4.999  0.5498  0.2307  0.2225
  112SAPE  H14R11669   1.141   0.838   5.074 -2.8934  0.6838  0.5754
  112SAPE  C21511670   1.095   1.038   5.033  0.3584 -0.1869 -0.3528
  112SAPE  H15R11671   1.047   1.060   5.129 -1.1545  0.9582 -1.3242
  112SAPE  C21611672   1.080   1.154   4.939 -0.7785  0.0496  0.1240
  112SAPE  H16R11673   0.987   1.145   4.878 -0.8209 -0.8914  0.3161
  112SAPE  H16S11674   1.160   1.153   4.862 -0.5478  0.3803  0.3537
  112SAPE  C21711675   1.058   1.284   5.013  0.0407 -0.4969 -0.3493
  112SAPE  H17R11676   1.115   1.293   5.108 -2.5634  2.0656  1.1439
  112SAPE  H17S11677   0.950   1.287   5.040  0.3335 -0.5200  0.8949
  112SAPE  C21811678   1.091   1.403   4.914  0.0849  0.4606 -0.0670
  112SAPE  H18R11679   1.014   1.403   4.834  0.8088 -1.3526 -0.7994
  112SAPE  H18S11680   1.193   1.397   4.870 -0.0920  0.9680 -0.5638
  112SAPE  C21911681   1.085   1.541   4.967  0.3569  0.9664 -0.8475
  112SAPE  H19R11682   1.161   1.553   5.047  0.0830 -0.8417 -0.2846
  112SAPE  H19S11683   0.985   1.554   5.015  1.0363  0.0540  0.9097
  112SAPE  C22011684   1.110   1.650   4.869  0.0151 -0.0078 -0.0240
  112SAPE  H20R11685   1.211   1.631   4.826 -1.2923 -0.3306 -3.2604
  112SAPE  H20S11686   1.108   1.746   4.925 -0.3288  0.2033 -0.3844
  112SAPE  H20T11687   1.035   1.641   4.787 -0.6481 -3.4205  0.8072
  112SAPE   C3311688   1.460   0.516   3.955  0.1163  0.1812 -0.5669
  112SAPE   H3X11689   1.478   0.623   3.932 -1.3577  0.6573  0.3898
  112SAPE   H3Y11690   1.530   0.442   3.910 -2.6330 -2.8405 -0.2095
  112SAPE   C3411691   1.460   0.500   4.107  0.1638 -0.0426  0.6044
  112SAPE   H4X11692   1.388   0.423   4.143  1.0727 -0.8085  0.8203
  112SAPE   H4Y11693   1.434   0.601   4.144  0.0919  0.2653 -0.2671
  112SAPE   C3511694   1.600   0.466   4.155 -0.2096  0.4165  0.1966
  112SAPE   H5X11695   1.672   0.540   4.113  1.4322 -1.1987  0.0396
  112SAPE   H5Y11696   1.624   0.370   4.105  1.4731  0.7625  0.2821
  112SAPE   C3611697   1.627   0.441   4.304  0.4287  0.0797 -0.0017
  112SAPE   H6X11698   1.736   0.440   4.327  0.0130 -0.5932  2.2724
  112SAPE   H6Y11699   1.587   0.344   4.342  0.1711  0.6583  1.2518
  112SAPE   C3711700   1.571   0.550   4.393  0.5917  0.0801 -0.0482
  112SAPE   H7X11701   1.460   0.545   4.402  0.5776 -0.0575 -0.3055
  112SAPE   H7Y11702   1.603   0.645   4.346 -0.2768 -0.1483 -1.1314
  112SAPE   C3811703   1.627   0.568   4.538  0.5364  0.3340  0.0413
  112SAPE   H8X11704   1.738   0.579   4.533  0.7872 -2.1827 -2.0737
  112SAPE   H8Y11705   1.601   0.480   4.600 -1.5038  1.6488  1.1555
  112SAPE   C3911706   1.563   0.689   4.609  0.9845 -0.4630 -0.2813
  112SAPE   H9X11707   1.458   0.661   4.630  0.2636  1.5486 -0.9372
  112SAPE   H9Y11708   1.561   0.779   4.544 -1.4970 -0.3908 -0.1770
  112SAPE  C31011709   1.638   0.740   4.734 -0.1562  0.6749  0.0331
  112SAPE  H10X11710   1.576   0.823   4.774 -1.0268  0.2919 -0.5018
  112SAPE  H10Y11711   1.741   0.774   4.708 -0.6053  1.7068 -0.4769
  112SAPE  C31111712   1.647   0.636   4.851 -1.0791 -0.6541  0.0767
  112SAPE  H11X11713   1.735   0.676   4.907 -0.5554 -2.5608  0.6968
  112SAPE  H11Y11714   1.678   0.535   4.817  0.3593  0.1865 -1.2434
  112SAPE  C31211715   1.527   0.635   4.946 -0.0876 -0.1704  0.0018
  112SAPE  H12X11716   1.431   0.622   4.892 -0.6327 -1.8520  1.3075
  112SAPE  H12Y11717   1.527   0.734   4.996 -4.1978  0.7448 -1.4074
  112SAPE  C31311718   1.541   0.527   5.050  0.6729  0.4872  0.0214
  112SAPE  H13X11719   1.463   0.561   5.122 -0.5155  1.4865 -1.6308
  112SAPE  H13Y11720   1.642   0.533   5.094  0.6721  1.1866 -0.0505
  112SAPE  C31411721   1.513   0.382   5.002 -0.2493 -0.6764  0.8893
  112SAPE  H14X11722   1.589   0.345   4.929  0.7476 -0.4349  1.7872
  112SAPE  H14Y11723   1.416   0.388   4.948  0.9147  0.6047 -1.2238
  112SAPE  C31511724   1.494   0.283   5.117  0.6926  0.6517 -0.0601
  112SAPE  H15X11725   1.418   0.320   5.189  0.6919  0.3849  0.0755
  112SAPE  H15Y11726   1.589   0.274   5.173 -0.0475 -1.1032  1.0151
  112SAPE  C31611727   1.425   0.149   5.069 -0.5813 -0.1209 -0.7588
  112SAPE  H16X11728   1.498   0.097   5.003 -2.8962 -2.0284 -1.9754
  112SAPE  H16Y11729   1.335   0.175   5.010 -1.6423 -1.8267  0.0301
  112SAPE  C31711730   1.384   0.055   5.188  0.2972 -0.7661 -1.0522
  112SAPE  H17X11731   1.337  -0.036   5.145 -1.1542 -0.5520 -0.0122
  112SAPE  H17Y11732   1.314   0.107   5.258 -0.0331 -1.7539 -0.6217
  112SAPE  C31811733   1.502   0.014   5.278  0.3797  0.2750 -0.8565
  112SAPE  H18X11734   1.532   0.098   5.343  2.2758 -0.2270 -1.0322
  112SAPE  H18Y11735   1.590  -0.008   5.214  0.0055 -2.0971 -0.6411
  112SAPE  H18Z11736   1.478  -0.070   5.347  0.9606  2.1218  1.7517
  113SAPE     N11737   2.541   6.080   2.290 -0.2282  0.7604 -0.0198
  113SAPE   HN111738   2.596   6.100   2.205 -2.2304  0.2961 -1.5246
  113SAPE   HN211739   2.613   6.041   2.354  1.1308 -0.4235 -2.1450
  113SAPE   HN311740   2.469   6.008   2.267  0.3406  0.8749 -2.3779
  113SAPE   C1211741   2.489   6.215   2.335 -0.1500  1.3476  0.3955
  113SAPE  H12A11742   2.379   6.209   2.327  0.0112 -0.6364 -1.2660
  113SAPE  H12B11743   2.527   6.287   2.258  0.6762 -1.6868 -2.2446
  113SAPE   C1111744   2.538   6.250   2.476  0.0886 -0.4602  0.0252
  113SAPE  H11A11745   2.647   6.234   2.482 -0.0479 -1.8819 -0.9156
  113SAPE  H11B11746   2.482   6.189   2.551 -2.7687  3.3634  1.3662
  113SAPE     P11747   2.383   6.453   2.542  0.5396  0.5116 -0.0410
  113SAPE   O1311748   2.368   6.575   2.456 -0.1563 -0.2114  0.0629
  113SAPE   O1411749   2.274   6.359   2.535  0.5799 -0.0291 -0.2807
  113SAPE   O1211750   2.517   6.393   2.502  0.2796 -0.1790  0.2461
  113SAPE   O1111751   2.396   6.501   2.695 -0.3007  0.1393 -0.2171
  113SAPE    C111752   2.501   6.448   2.776 -0.5623  0.5627  0.3117
  113SAPE    HA11753   2.598   6.442   2.722 -1.2422 -3.1869 -0.8528
  113SAPE    HB11754   2.518   6.510   2.866 -0.6159 -0.2933  0.9254
  113SAPE    C211755   2.468   6.305   2.838 -0.9641 -0.3184 -0.5004
  113SAPE    HS11756   2.465   6.230   2.756 -0.2942 -2.0218  0.9793
  113SAPE   O2111757   2.340   6.316   2.903  0.0494  0.0436 -0.1096
  113SAPE   C2111758   2.286   6.198   2.938 -0.9514  0.1267  0.3687
  113SAPE   O2211759   2.314   6.088   2.889  0.5253 -0.3087 -0.6227
  113SAPE   C2211760   2.172   6.224   3.037 -0.1805  0.0403  0.1159
  113SAPE   H2R11761   2.205   6.280   3.127  1.7487 -0.1374 -0.4340
  113SAPE   H2S11762   2.090   6.282   2.991  1.8635  1.1462 -2.3962
  113SAPE    C311763   2.587   6.272   2.937  0.4735  0.5330 -0.2599
  113SAPE    HX11764   2.683   6.286   2.882 -0.4045  2.9348 -1.3275
  113SAPE    HY11765   2.586   6.164   2.961 -2.2055  0.6893  0.6322
  113SAPE   O3111766   2.581   6.363   3.046  0.4148  0.0643  0.0114
  113SAPE   C3111767   2.649   6.323   3.149 -0.3795  0.1948  0.7166
  113SAPE   O3211768   2.725   6.232   3.140 -0.2592 -0.1086 -0.5140
  113SAPE   C3211769   2.615   6.411   3.266  0.1398 -1.0979 -0.1987
  113SAPE   H2X11770   2.516   6.458   3.249  0.9918  0.8817  0.0451
  113SAPE   H2Y11771   2.687   6.496   3.265 -0.3670 -0.6130  1.6409
  113SAPE   C2311772   2.128   6.094   3.095 -0.2183 -0.0359  0.0684
  113SAPE   H3R11773   2.209   6.025   3.125 -0.8258 -1.5903 -1.6458
  113SAPE   H3S11774   2.078   6.037   3.013 -0.1056  0.9790 -0.7334
  113SAPE   C2411775   2.033   6.113   3.215  0.0533  0.5458  0.3603
  113SAPE   H4R11776   1.945   6.169   3.178 -0.3308 -0.1414  0.2168
  113SAPE   H4S11777   2.090   6.180   3.283 -1.6060  0.6078  1.7549
  113SAPE   C2511778   1.995   5.979   3.273 -0.0892 -0.0589  0.0942
  113SAPE   H5R11779   1.942   5.917   3.199  0.8653 -0.7911  0.0083
  113SAPE   C2611780   2.028   5.920   3.390  0.1800 -0.3219  0.2700
  113SAPE   H6R11781   2.000   5.816   3.411 -0.1316 -0.7798 -2.0801
  113SAPE   C2711782   2.110   5.980   3.494 -0.3847  0.0870 -1.2024
  113SAPE   H7R11783   2.126   5.904   3.574 -0.8059  1.1604 -0.0600
  113SAPE   H7S11784   2.045   6.061   3.534 -1.7824 -1.8734  0.7644
  113SAPE   C2811785   2.245   6.041   3.470 -1.0437  0.4049 -0.2750
  113SAPE   H8R11786   2.270   6.044   3.363  0.4290 -1.1252 -0.0018
  113SAPE   C2911787   2.327   6.102   3.557  0.0651  0.2948 -0.0543
  113SAPE   H9R11788   2.418   6.150   3.519  0.6522 -1.7531 -1.4054
  113SAPE  C21011789   2.291   6.122   3.702 -0.3136 -0.4625 -0.5161
  113SAPE  H10R11790   2.189   6.087   3.729 -0.4180 -0.7964 -1.3248
  113SAPE  H10S11791   2.293   6.232   3.719 -1.2690 -0.2061 -1.8965
  113SAPE  C21111792   2.396   6.069   3.799  0.0222  0.1427  0.6177
  113SAPE  H11R11793   2.498   6.053   3.762 -0.4003 -0.9363 -0.1220
  113SAPE  C21211794   2.369   6.024   3.924  0.2428 -0.4053 -0.1087
  113SAPE  H12R11795   2.452   5.986   3.986 -0.5663 -0.1238  1.1742
  113SAPE  C21311796   2.234   6.044   3.994 -0.6571 -0.0286  0.5750
  113SAPE  H13R11797   2.142   6.008   3.942 -1.8579  4.0248 -0.4223
  113SAPE  H13S11798   2.217   6.153   3.989  0.1082  0.0562 -1.9119
  113SAPE  C21411799   2.235   5.971   4.131  1.0157 -0.9503 -0.1121
  113SAPE  H14R11800   2.188   5.871   4.137  0.6110 -0.7389  0.3242
  113SAPE  C21511801   2.276   6.017   4.248 -0.0059  0.6137  0.2418
  113SAPE  H15R11802   2.273   5.951   4.336  0.7042 -1.5604 -1.2715
  113SAPE  C21611803   2.355   6.142   4.256  0.1787 -0.1178 -0.6814
  113SAPE  H16R11804   2.311   6.218   4.324  2.7835  0.3949  0.5987
  113SAPE  H16S11805   2.369   6.190   4.157  1.1806 -1.1990 -1.0786
  113SAPE  C21711806   2.493   6.126   4.329 -0.5247 -0.0924 -0.6702
  113SAPE  H17R11807   2.555   6.218   4.327  1.3734 -1.3255 -1.4262
  113SAPE  H17S11808   2.550   6.052   4.269  0.6394 -0.2724  0.6211
  113SAPE  C21811809   2.485   6.098   4.479  0.0898  0.2389 -0.5466
  113SAPE  H18R11810   2.441   5.997   4.492  1.5789 -0.4149 -0.3104
  113SAPE  H18S11811   2.439   6.178   4.542 -0.5824  0.1739 -0.9496
  113SAPE  C21911812   2.622   6.076   4.544 -0.0905 -0.0182  0.2315
  113SAPE  H19R11813   2.699   6.155   4.529 -0.7433  0.7400  0.7671
  113SAPE  H19S11814   2.667   5.985   4.498 -1.4745 -0.6603  0.1177
  113SAPE  C22011815   2.612   6.030   4.687  0.3267  0.8454  0.2167
  113SAPE  H20R11816   2.681   5.949   4.720  1.3092  0.3581 -2.7394
  113SAPE  H20S11817   2.511   5.989   4.709  1.2299 -1.2689  0.6277
  113SAPE  H20T11818   2.621   6.120   4.752  2.0071  1.2041 -0.4655
  113SAPE   C3311819   2.619   6.350   3.408 -0.3791  0.4494 -0.3013
  113SAPE   H3X11820   2.723   6.314   3.426 -0.3171 -0.5191 -2.3176
  113SAPE   H3Y11821   2.565   6.253   3.406  0.1002  0.1760 -0.1943
  113SAPE   C3411822   2.567   6.437   3.524  0.0704  0.6389  0.2154
  113SAPE   H4X11823   2.457   6.448   3.522  0.1192  1.1463 -1.8961
  113SAPE   H4Y11824   2.608   6.539   3.510 -1.9683  1.4943  0.0646
  113SAPE   C3511825   2.611   6.383   3.657 -1.0985 -0.3041 -0.1572
  113SAPE   H5X11826   2.722   6.388   3.669 -1.2284  1.7587  0.4731
  113SAPE   H5Y11827   2.565   6.286   3.687 -1.7110 -0.4761 -1.5918
  113SAPE   C3611828   2.572   6.489   3.759  0.7574 -0.5888  0.3323
  113SAPE   H6X11829   2.461   6.487   3.757  0.7261  0.6788 -0.6090
  113SAPE   H6Y11830   2.595   6.594   3.731 -1.7449  0.2696  1.1760
  113SAPE   C3711831   2.631   6.463   3.894 -0.3741  0.3725  0.4671
  113SAPE   H7X11832   2.741   6.457   3.877 -0.4809 -1.6205  0.2442
  113SAPE   H7Y11833   2.586   6.370   3.935 -0.1053 -0.5093 -1.1436
  113SAPE   C3811834   2.616   6.578   3.993 -0.6197 -0.0225 -0.2293
  113SAPE   H8X11835   2.679   6.665   3.965  0.7534 -0.3016  1.8192
  113SAPE   H8Y11836   2.510   6.610   4.001 -0.3647  0.9134 -0.3904
  113SAPE   C3911837   2.659   6.548   4.130 -0.0239  0.3247  0.0197
  113SAPE   H9X11838   2.766   6.519   4.129 -0.2053 -0.4928 -2.6007
  113SAPE   H9Y11839   2.603   6.459   4.166 -1.3740  1.7538  1.6148
  113SAPE  C31011840   2.618   6.666   4.217  0.1047  0.5645  0.1964
  113SAPE  H10X11841   2.509   6.687   4.217  0.0297  0.3887 -1.9859
  113SAPE  H10Y11842   2.674   6.753   4.177 -0.3656  0.6119 -0.3763
  113SAPE  C31111843   2.673   6.650   4.354  0.9007 -0.0136 -0.7911
  113SAPE  H11X11844   2.678   6.753   4.397 -0.0386 -0.1319 -0.3864
  113SAPE  H11Y11845   2.772   6.600   4.344  1.9860  2.3345 -3.3561
  113SAPE  C31211846   2.573   6.567   4.443 -0.3906  0.1624  0.8054
  113SAPE  H12X11847   2.552   6.475   4.385 -0.3734  0.8923 -0.4025
  113SAPE  H12Y11848   2.489   6.634   4.471 -0.8232 -0.7060  1.6593
  113SAPE  C31311849   2.629   6.531   4.585 -0.2201  0.1678 -0.5295
  113SAPE  H13X11850   2.654   6.631   4.627 -0.0238 -1.2936  3.2102
  113SAPE  H13Y11851   2.714   6.460   4.575 -0.4464 -0.2091  0.1835
  113SAPE  C31411852   2.531   6.469   4.684 -0.3596  0.2834 -0.1655
  113SAPE  H14X11853   2.488   6.377   4.640  1.8247 -1.9777  2.1300
  113SAPE  H14Y11854   2.449   6.542   4.697  0.5504  1.1896  0.6577
  113SAPE  C31511855   2.599   6.418   4.814 -0.1393  0.8625 -0.4554
  113SAPE  H15X11856   2.693   6.475   4.833 -0.1310  0.3544  1.2360
  113SAPE  H15Y11857   2.635   6.314   4.799  2.1078  1.6850 -1.2913
  113SAPE  C31611858   2.513   6.424   4.946 -0.0118 -0.0525  0.1496
  113SAPE  H16X11859   2.425   6.490   4.927 -0.0037 -0.1987 -0.4332
  113SAPE  H16Y11860   2.574   6.464   5.029  0.0876 -2.3363  1.2247
  113SAPE  C31711861   2.456   6.281   4.990  0.2034 -1.1961  0.6272
  113SAPE  H17X11862   2.427   6.218   4.902 -1.0651 -0.6724  0.6428
  113SAPE  H17Y11863   2.370   6.305   5.057  1.8000  3.4732  1.3706
  113SAPE  C31811864   2.561   6.208   5.069  0.6133 -0.6439 -0.6254
  113SAPE  H18X11865   2.664   6.239   5.041 -0.6224  3.0342 -1.6906
  113SAPE  H18Y11866   2.549   6.099   5.054  0.4629 -0.7196  0.0209
  113SAPE  H18Z11867   2.554   6.230   5.177  1.8845 -0.6161 -0.5345
  114SAPE     N11868   3.457   1.136   3.128 -0.1276 -0.3725 -0.2357
  114SAPE   HN111869   3.504   1.100   3.042  0.4672 -1.3945  0.5051
  114SAPE   HN211870   3.412   1.230   3.119 -0.1921 -0.3038  0.7369
  114SAPE   HN311871   3.539   1.155   3.190  0.2106 -1.1943 -0.4167
  114SAPE   C1211872   3.352   1.045   3.184 -0.4371  0.4636 -0.5081
  114SAPE  H12A11873   3.305   1.096   3.271 -3.7012 -0.2960 -1.6841
  114SAPE  H12B11874   3.396   0.949   3.218 -0.9136  1.4995  3.4659
  114SAPE   C1111875   3.242   1.019   3.085  0.3488 -0.6535 -0.6016
  114SAPE  H11A11876   3.153   0.970   3.128 -0.7238  0.1871 -1.7657
  114SAPE  H11B11877   3.286   0.949   3.011  0.1012 -0.9339 -0.4835
  114SAPE     P11878   3.071   1.140   2.927  0.2278  0.1890  0.0333
  114SAPE   O1311879   3.033   1.275   2.888  0.0145 -0.1600 -0.4283
  114SAPE   O1411880   3.099   1.048   2.818  0.0968  0.3885  0.5488
  114SAPE   O1211881   3.199   1.143   3.023 -0.5857 -0.5660  0.4307
  114SAPE   O1111882   2.955   1.086   3.018  0.8831  0.1640  0.4063
  114SAPE    C111883   2.894   1.174   3.117 -0.1526  0.4958  0.3741
  114SAPE    HA11884   2.907   1.281   3.090 -0.5685 -0.3914 -3.9691
  114SAPE    HB11885   2.784   1.169   3.129 -0.1001  1.8407  1.9603
  114SAPE    C211886   2.967   1.155   3.248 -0.2777  0.0443  0.7366
  114SAPE    HS11887   3.076   1.159   3.227 -0.3319  1.5024  0.6168
  114SAPE   O2111888   2.910   1.028   3.295  0.4947  0.3074  0.0392
  114SAPE   C2111889   2.995   0.959   3.368  0.4012 -1.3771  0.8236
  114SAPE   O2211890   3.111   0.987   3.389 -0.6297  0.2241  0.3877
  114SAPE   C2211891   2.918   0.838   3.418  0.1224  0.5745 -0.1744
  114SAPE   H2R11892   2.850   0.877   3.497  0.6620  1.2230 -0.0183
  114SAPE   H2S11893   2.854   0.800   3.335 -0.4740 -0.4080  0.7074
  114SAPE    C311894   2.934   1.267   3.356  0.9990 -0.0917  0.8126
  114SAPE    HX11895   2.824   1.277   3.368  0.8800  0.2797 -0.4689
  114SAPE    HY11896   2.977   1.364   3.323 -0.3812  1.2135  2.6194
  114SAPE   O3111897   2.978   1.237   3.494  0.3872 -0.2375  0.4666
  114SAPE   C3111898   3.101   1.262   3.523  1.3795 -0.1305 -0.4305
  114SAPE   O3211899   3.178   1.325   3.448  0.0507  0.3306 -0.2290
  114SAPE   C3211900   3.134   1.186   3.654 -0.1032  0.6760 -0.4163
  114SAPE   H2X11901   3.244   1.174   3.644 -0.1276  1.1208 -1.2686
  114SAPE   H2Y11902   3.093   1.083   3.646  1.5521  0.0076 -0.8349
  114SAPE   C2311903   3.008   0.716   3.453 -0.0794  0.6367  0.9041
  114SAPE   H3R11904   3.081   0.712   3.369 -0.9167 -1.3112  0.1926
  114SAPE   H3S11905   2.949   0.623   3.441 -1.3669  1.6757 -1.5155
  114SAPE   C2411906   3.059   0.727   3.593 -0.6095 -0.3490  0.5367
  114SAPE   H4R11907   3.104   0.825   3.619  0.9274 -0.4932 -1.3393
  114SAPE   H4S11908   3.146   0.659   3.605 -1.5164 -1.1442  3.4924
  114SAPE   C2511909   2.952   0.674   3.690  0.3924  0.4264  0.9387
  114SAPE   H5R11910   2.916   0.573   3.666 -0.4639  0.7897  0.6654
  114SAPE   C2611911   2.901   0.749   3.784 -0.1753  0.1451  0.7644
  114SAPE   H6R11912   2.817   0.711   3.844  0.1519 -0.5006  0.8238
  114SAPE   C2711913   2.938   0.893   3.821  0.2894 -0.2916  0.1628
  114SAPE   H7R11914   2.930   0.952   3.727  0.0474  0.0440  0.3940
  114SAPE   H7S11915   3.045   0.899   3.849  0.2648  1.5782  0.0045
  114SAPE   C2811916   2.860   0.956   3.925 -0.2345 -0.3848 -0.6394
  114SAPE   H8R11917   2.772   1.016   3.900  0.2165  0.6938  0.2571
  114SAPE   C2911918   2.895   0.953   4.059 -0.1264 -0.8248  0.4675
  114SAPE   H9R11919   2.817   1.004   4.115 -0.4136 -1.3122  0.5178
  114SAPE  C21011920   3.001   0.873   4.127 -0.2016 -0.4345  0.0886
  114SAPE  H10R11921   3.063   0.958   4.162 -0.1653  0.3525 -1.7778
  114SAPE  H10S11922   3.064   0.828   4.048 -1.1486  0.3282 -1.1313
  114SAPE  C21111923   2.963   0.784   4.246  0.3273  0.2395 -0.0653
  114SAPE  H11R11924   2.973   0.676   4.228  1.7180  0.6974 -2.4676
  114SAPE  C21211925   2.956   0.829   4.374 -0.6589 -0.5492 -0.1280
  114SAPE  H12R11926   2.926   0.757   4.452 -1.3204  1.4283  1.5223
  114SAPE  C21311927   2.968   0.971   4.419 -0.3625  0.1584 -0.1133
  114SAPE  H13R11928   2.904   1.038   4.358 -0.0582 -0.6828 -1.4017
  114SAPE  H13S11929   3.069   1.011   4.394  0.6938 -1.1852  1.7557
  114SAPE  C21411930   2.931   0.987   4.568 -0.2839  0.0208 -0.3356
  114SAPE  H14R11931   2.835   0.959   4.613 -0.2065 -0.7998 -0.6775
  114SAPE  C21511932   3.022   1.045   4.655  0.9279  0.0484  0.6200
  114SAPE  H15R11933   2.992   1.069   4.758  1.0587  1.9508  0.2470
  114SAPE  C21611934   3.167   1.086   4.632  0.2176 -0.7814  0.5838
  114SAPE  H16R11935   3.194   1.145   4.722  0.7601 -0.5478  0.2706
  114SAPE  H16S11936   3.177   1.150   4.542 -1.7597 -1.9251 -0.5065
  114SAPE  C21711937   3.269   0.969   4.615  0.8168  0.4966 -0.2953
  114SAPE  H17R11938   3.360   1.012   4.567  0.8304  1.0561  0.2157
  114SAPE  H17S11939   3.221   0.895   4.548 -0.0668 -0.2625  1.1273
  114SAPE  C21811940   3.303   0.905   4.748 -0.2569  0.6669 -0.4271
  114SAPE  H18R11941   3.323   0.990   4.817 -1.1635  1.3586 -0.9971
  114SAPE  H18S11942   3.392   0.840   4.734 -1.2794 -0.7463 -0.5707
  114SAPE  C21911943   3.195   0.817   4.822 -0.0268  0.1718  0.2116
  114SAPE  H19R11944   3.148   0.755   4.743 -1.8601  1.3981  0.2887
  114SAPE  H19S11945   3.115   0.883   4.862 -0.2254 -0.4853  0.9121
  114SAPE  C22011946   3.254   0.729   4.934  0.1542 -0.3221 -0.2386
  114SAPE  H20R11947   3.337   0.785   4.983 -0.5312 -0.6557  1.3895
  114SAPE  H20S11948   3.280   0.630   4.891  0.8575 -0.2791  0.0717
  114SAPE  H20T11949   3.190   0.709   5.023  1.3991 -0.9670  0.5492
  114SAPE   C3311950   3.117   1.263   3.781  1.1806  0.2568 -0.2248
  114SAPE   H3X11951   3.019   1.242   3.829  0.2166  0.6971 -1.9014
  114SAPE   H3Y11952   3.107   1.372   3.764 -0.4131  0.3614  1.1231
  114SAPE   C3411953   3.220   1.231   3.898 -0.1273 -0.5512 -0.2213
  114SAPE   H4X11954   3.324   1.248   3.863 -0.4534  0.0535 -0.9202
  114SAPE   H4Y11955   3.219   1.121   3.915 -1.3533 -0.3790  1.0422
  114SAPE   C3511956   3.181   1.320   4.020 -0.2382  0.3326  0.9560
  114SAPE   H5X11957   3.084   1.286   4.062 -0.5528 -2.0967 -1.4728
  114SAPE   H5Y11958   3.187   1.422   3.976  0.6239 -0.6604 -1.3336
  114SAPE   C3611959   3.280   1.308   4.136 -0.2713 -0.6004  0.3445
  114SAPE   H6X11960   3.381   1.348   4.112  0.5516 -1.5738  1.9465
  114SAPE   H6Y11961   3.286   1.201   4.164 -0.4387  0.0237  3.0868
  114SAPE   C3711962   3.233   1.392   4.247 -0.9439  0.0542  0.2123
  114SAPE   H7X11963   3.135   1.354   4.283 -0.1027 -1.3982  1.0584
  114SAPE   H7Y11964   3.229   1.497   4.212 -1.5920 -0.4284 -1.2069
  114SAPE   C3811965   3.328   1.382   4.374 -0.1033 -0.3085 -0.2210
  114SAPE   H8X11966   3.423   1.434   4.347 -1.0121  1.3076 -0.4244
  114SAPE   H8Y11967   3.367   1.283   4.408 -0.5837 -0.0062  1.2824
  114SAPE   C3911968   3.275   1.461   4.495  0.6991  0.5215  1.1117
  114SAPE   H9X11969   3.185   1.404   4.529  0.8475 -1.6254 -1.7562
  114SAPE   H9Y11970   3.239   1.561   4.463  0.0512 -0.7061 -2.4431
  114SAPE  C31011971   3.372   1.455   4.613 -0.8092 -0.0831  0.8928
  114SAPE  H10X11972   3.465   1.504   4.577 -1.5333  1.4623  1.0607
  114SAPE  H10Y11973   3.395   1.349   4.636 -1.6553 -0.3446  0.5968
  114SAPE  C31111974   3.325   1.533   4.733 -0.4710  0.3235 -0.2093
  114SAPE  H11X11975   3.299   1.636   4.700  1.4497  1.5353  1.7308
  114SAPE  H11Y11976   3.407   1.561   4.804  0.4748  1.3906 -1.6632
  114SAPE  C31211977   3.227   1.470   4.829 -0.3105  0.3783 -0.1115
  114SAPE  H12X11978   3.147   1.417   4.773 -0.7802 -0.8456  1.6222
  114SAPE  H12Y11979   3.182   1.551   4.891 -0.0488  0.5130 -0.0966
  114SAPE  C31311980   3.296   1.366   4.919 -0.6384 -0.1823 -0.2280
  114SAPE  H13X11981   3.381   1.400   4.982 -0.9718 -0.8752  0.6214
  114SAPE  H13Y11982   3.325   1.288   4.846 -2.5097 -0.9593 -0.2015
  114SAPE  C31411983   3.201   1.291   5.013  0.3985  0.7574 -0.0110
  114SAPE  H14X11984   3.112   1.257   4.957  1.6889 -4.3048  0.5263
  114SAPE  H14Y11985   3.170   1.371   5.084  0.0918  0.0754  0.6269
  114SAPE  C31511986   3.264   1.173   5.093 -0.1760 -0.3759 -0.6922
  114SAPE  H15X11987   3.359   1.207   5.139 -1.3122  0.7200  0.9362
  114SAPE  H15Y11988   3.284   1.078   5.038 -1.0321  0.1363 -1.9294
  114SAPE  C31611989   3.170   1.135   5.214 -0.2134 -0.5615 -0.3432
  114SAPE  H16X11990   3.076   1.094   5.171 -0.9910  1.2808 -0.4863
  114SAPE  H16Y11991   3.144   1.224   5.274  0.0829  0.7699 -2.1059
  114SAPE  C31711992   3.221   1.024   5.306  0.2588  0.2156 -0.0332
  114SAPE  H17X11993   3.258   0.938   5.246  1.4621  2.1847 -2.3046
  114SAPE  H17Y11994   3.140   0.974   5.363  1.6672 -0.7286  1.2141
  114SAPE  C31811995   3.333   1.067   5.410 -0.0342 -1.1592 -0.2948
  114SAPE  H18X11996   3.306   1.155   5.472  2.0965 -0.3330 -0.4422
  114SAPE  H18Y11997   3.428   1.092   5.358 -0.4059 -0.2925 -0.5704
  114SAPE  H18Z11998   3.351   0.980   5.478 -0.7110 -0.3430  0.9667
  115SAPE     N11999   1.748   1.912   2.681 -0.0987 -0.2230 -0.0152
  115SAPE   HN112000   1.707   2.005   2.660 -2.1880 -0.8597  0.9985
  115SAPE   HN212001   1.673   1.846   2.651  0.2961 -0.4750 -0.4639
  115SAPE   HN312002   1.763   1.904   2.783  1.1466 -0.3226 -0.1920
  115SAPE   C1212003   1.885   1.889   2.612 -0.3365  0.6989  0.9643
  115SAPE  H12A12004   1.861   1.899   2.504  1.3854  1.6701  0.6460
  115SAPE  H12B12005   1.916   1.784   2.634 -2.4133  0.0072  0.7993
  115SAPE   C1112006   1.971   1.997   2.670 -0.1003 -0.0475  0.1955
  115SAPE  H11A12007   2.074   1.986   2.629  0.3566 -4.1221  1.8981
  115SAPE  H11B12008   1.974   1.982   2.780 -0.7066  0.7155  0.3222
  115SAPE     P12009   1.967   2.260   2.664  0.1400  0.1624  0.1979
  115SAPE   O1312010   2.097   2.273   2.598 -0.3036 -0.1313 -0.1465
  115SAPE   O1412011   1.864   2.361   2.620 -0.1700  0.3339 -0.1927
  115SAPE   O1212012   1.918   2.125   2.628 -0.2156  0.1015  0.2160
  115SAPE   O1112013   1.995   2.257   2.820 -0.7054  0.7235  0.0498
  115SAPE    C112014   1.873   2.240   2.904  0.7966 -0.5183  0.9995
  115SAPE    HA12015   1.799   2.319   2.878  0.2926 -1.4282 -0.4551
  115SAPE    HB12016   1.812   2.148   2.890 -0.9782  0.7367  0.0644
  115SAPE    C212017   1.894   2.253   3.053 -0.2947 -0.2838  0.6819
  115SAPE    HS12018   1.796   2.278   3.099 -1.2735 -0.5617 -1.1789
  115SAPE   O2112019   1.984   2.353   3.084  0.0583 -0.1077 -0.1400
  115SAPE   C2112020   1.938   2.478   3.081  0.4092  0.5479 -0.3366
  115SAPE   O2212021   1.818   2.506   3.073 -0.4489 -0.1199  0.5577
  115SAPE   C2212022   2.051   2.577   3.106 -0.3406  0.1177 -0.6308
  115SAPE   H2R12023   2.138   2.550   3.043  0.9613  0.4375  0.9610
  115SAPE   H2S12024   2.013   2.674   3.066  2.6621  0.7414 -2.2655
  115SAPE    C312025   1.940   2.119   3.123  0.0500  0.3466 -0.2296
  115SAPE    HX12026   2.010   2.081   3.044 -2.0311 -1.7809 -1.1730
  115SAPE    HY12027   1.852   2.051   3.127  0.4916 -0.1652  1.7630
  115SAPE   O3112028   2.011   2.119   3.249 -0.1633  0.0632  0.5916
  115SAPE   C3112029   1.936   2.154   3.346 -0.7081 -0.2601  0.4397
  115SAPE   O3212030   1.813   2.160   3.343  0.8053  0.1484  0.2675
  115SAPE   C3212031   2.018   2.172   3.473 -0.2631 -0.6967  0.2159
  115SAPE   H2X12032   2.126   2.148   3.459 -0.2149 -0.4327  0.1387
  115SAPE   H2Y12033   1.973   2.103   3.548 -0.6195  0.2133  0.8721
  115SAPE   C2312034   2.093   2.587   3.259 -0.1456  0.2244 -0.0481
  115SAPE   H3R12035   2.182   2.653   3.262 -0.3006  0.5160  4.2845
  115SAPE   H3S12036   2.119   2.491   3.310  0.9833  1.5324  1.9780
  115SAPE   C2412037   1.984   2.665   3.334 -0.4008 -0.4598 -0.1436
  115SAPE   H4R12038   1.889   2.609   3.342 -1.6885  1.1144 -3.0056
  115SAPE   H4S12039   1.962   2.757   3.275  0.7625  0.4686  0.7977
  115SAPE   C2512040   2.038   2.694   3.474 -0.2600  0.0019  0.1954
  115SAPE   H5R12041   2.049   2.611   3.545  1.2706 -1.7443 -1.9277
  115SAPE   C2612042   2.075   2.817   3.511  0.2101  0.0028 -0.5603
  115SAPE   H6R12043   2.112   2.819   3.614  1.7962 -1.6870 -1.0445
  115SAPE   C2712044   2.086   2.945   3.436 -0.7207 -0.0106  0.1169
  115SAPE   H7R12045   2.015   3.021   3.474 -1.5267 -0.5860 -0.2128
  115SAPE   H7S12046   2.062   2.927   3.328 -0.1154 -1.7528  0.2388
  115SAPE   C2812047   2.227   2.987   3.454 -0.3533 -0.5599  0.9356
  115SAPE   H8R12048   2.295   2.921   3.398  1.7438  2.7106 -0.7106
  115SAPE   C2912049   2.278   3.102   3.506  0.1458 -0.8891  0.2434
  115SAPE   H9R12050   2.386   3.119   3.500  0.3999 -2.7014 -3.9770
  115SAPE  C21012051   2.194   3.214   3.559 -0.3179  0.0650 -0.1412
  115SAPE  H10R12052   2.107   3.168   3.608 -0.6514  0.7820 -0.0426
  115SAPE  H10S12053   2.156   3.267   3.468  3.6507  2.0944 -0.8684
  115SAPE  C21112054   2.270   3.314   3.640 -0.2700  0.5832  0.3570
  115SAPE  H11R12055   2.276   3.415   3.598  0.8475  0.6202  0.5655
  115SAPE  C21212056   2.304   3.301   3.772  0.4560 -0.3036 -0.0488
  115SAPE  H12R12057   2.357   3.383   3.823 -0.0457  0.3088 -0.4917
  115SAPE  C21312058   2.284   3.177   3.854 -0.7761  0.0077 -0.1837
  115SAPE  H13R12059   2.264   3.090   3.788  3.4646 -1.3015 -0.0429
  115SAPE  H13S12060   2.195   3.184   3.921  0.7586 -0.9802  2.0946
  115SAPE  C21412061   2.412   3.139   3.938 -0.1972 -1.1444  0.1176
  115SAPE  H14R12062   2.460   3.050   3.897 -1.7030 -1.7100 -0.4876
  115SAPE  C21512063   2.469   3.214   4.034 -0.6478 -0.8014  0.0550
  115SAPE  H15R12064   2.563   3.178   4.080  0.1811  1.1849 -0.0111
  115SAPE  C21612065   2.424   3.346   4.085  0.0921  0.2683  0.5281
  115SAPE  H16R12066   2.329   3.370   4.033 -0.6107  0.1067  1.7138
  115SAPE  H16S12067   2.490   3.435   4.083  2.0427 -0.9177  3.8724
  115SAPE  C21712068   2.391   3.322   4.233  0.2694 -0.5195  1.1341
  115SAPE  H17R12069   2.359   3.421   4.271  1.3009  0.5385 -0.6367
  115SAPE  H17S12070   2.479   3.287   4.291  0.3669 -0.2784  1.1322
  115SAPE  C21812071   2.271   3.222   4.256 -0.9607 -0.3426 -0.1478
  115SAPE  H18R12072   2.288   3.124   4.205 -0.5822 -0.1727 -0.3537
  115SAPE  H18S12073   2.176   3.263   4.216 -1.8257 -0.1636  2.0035
  115SAPE  C21912074   2.244   3.196   4.402 -0.0343  0.2166 -0.7477
  115SAPE  H19R12075   2.260   3.291   4.458 -2.9569 -0.1591  0.9513
  115SAPE  H19S12076   2.311   3.122   4.452  1.4944  2.4776  0.6962
  115SAPE  C22012077   2.106   3.149   4.448  0.0938  0.2123  0.0021
  115SAPE  H20R12078   2.091   3.039   4.434  1.0877  0.1999 -1.2078
  115SAPE  H20S12079   2.034   3.197   4.378  0.2707  0.0347 -0.3068
  115SAPE  H20T12080   2.082   3.180   4.552  1.2568  2.2392 -0.2725
  115SAPE   C3312081   1.998   2.315   3.540  0.2362  0.4583 -0.0665
  115SAPE   H3X12082   1.894   2.345   3.515  0.7678  0.7072 -2.1916
  115SAPE   H3Y12083   2.063   2.393   3.494  0.1877  0.5222 -0.0276
  115SAPE   C3412084   2.013   2.308   3.694  0.0869  0.0001  0.5166
  115SAPE   H4X12085   2.116   2.303   3.734 -0.9850  0.1926  3.5671
  115SAPE   H4Y12086   1.960   2.219   3.734  3.3811 -1.0196  3.0474
  115SAPE   C3512087   1.937   2.425   3.753 -0.4802  0.2939  0.0405
  115SAPE   H5X12088   1.845   2.439   3.692  0.4279 -1.3160 -1.8067
  115SAPE   H5Y12089   2.001   2.516   3.745 -0.4346  0.2417 -0.2157
  115SAPE   C3612090   1.898   2.413   3.904  0.1938  0.1864  0.8633
  115SAPE   H6X12091   1.831   2.328   3.931  2.3189 -1.2006  2.0914
  115SAPE   H6Y12092   1.843   2.507   3.926  1.5486  0.8671  1.4339
  115SAPE   C3712093   2.017   2.390   3.999  0.1753  0.1909  0.4917
  115SAPE   H7X12094   2.106   2.452   3.978  1.0739 -0.2154  2.7837
  115SAPE   H7Y12095   2.053   2.285   3.998  0.1718  0.1941  0.0629
  115SAPE   C3812096   1.975   2.410   4.143 -0.1245  0.5716  0.1067
  115SAPE   H8X12097   1.887   2.344   4.159 -0.4590 -1.0484 -5.9455
  115SAPE   H8Y12098   1.938   2.515   4.133 -1.6503 -0.0678 -1.7343
  115SAPE   C3912099   2.082   2.382   4.250 -0.8911 -1.1709  0.4579
  115SAPE   H9X12100   2.160   2.457   4.224 -1.0184 -1.4103 -0.6860
  115SAPE   H9Y12101   2.113   2.276   4.248  0.2734 -0.8431 -1.2171
  115SAPE  C31012102   2.027   2.421   4.385 -0.1660  0.2304  0.0936
  115SAPE  H10X12103   1.928   2.374   4.401  0.0428 -0.2055  0.1338
  115SAPE  H10Y12104   2.012   2.530   4.376 -1.8491  0.2592  2.3817
  115SAPE  C31112105   2.119   2.381   4.505 -0.3638 -0.1826  0.7370
  115SAPE  H11X12106   2.212   2.442   4.501 -0.3492 -0.0620  2.1418
  115SAPE  H11Y12107   2.151   2.277   4.487 -3.7866 -1.2299 -0.0762
  115SAPE  C31212108   2.051   2.412   4.639  0.5342  0.6124  0.0155
  115SAPE  H12X12109   1.959   2.351   4.651  1.6139 -0.9077  0.9044
  115SAPE  H12Y12110   2.010   2.515   4.644  1.3482  1.1411 -2.6792
  115SAPE  C31312111   2.128   2.383   4.763  0.1768 -0.1811  0.3228
  115SAPE  H13X12112   2.201   2.464   4.783 -0.9957  0.2972  3.1282
  115SAPE  H13Y12113   2.183   2.286   4.756 -0.7931 -0.8405  1.4551
  115SAPE  C31412114   2.021   2.373   4.874 -0.0279  0.2778  0.2227
  115SAPE  H14X12115   1.953   2.286   4.861 -0.6824  0.5795  1.3827
  115SAPE  H14Y12116   1.965   2.469   4.874  0.3064  0.4914 -1.1676
  115SAPE  C31512117   2.089   2.366   5.012 -0.2427 -0.3347  0.6098
  115SAPE  H15X12118   2.145   2.460   5.032 -0.4662 -0.0349 -0.1186
  115SAPE  H15Y12119   2.162   2.284   5.028  0.9573  0.4837 -0.4773
  115SAPE  C31612120   1.981   2.358   5.116 -0.1538  0.0856  0.3217
  115SAPE  H16X12121   2.019   2.328   5.216 -1.3820 -2.7436  0.0366
  115SAPE  H16Y12122   1.902   2.283   5.091  0.3260 -1.3420  2.8132
  115SAPE  C31712123   1.901   2.491   5.132 -0.2541 -0.0948  0.2848
  115SAPE  H17X12124   1.836   2.501   5.042  2.8746 -3.7467 -2.7270
  115SAPE  H17Y12125   1.972   2.576   5.128  0.7555 -0.9143  0.4820
  115SAPE  C31812126   1.809   2.487   5.252  0.3105  0.4837 -0.0131
  115SAPE  H18X12127   1.744   2.397   5.246 -0.3053  0.9258 -0.0374
  115SAPE  H18Y12128   1.741   2.574   5.261 -0.1665  0.5594 -3.2958
  115SAPE  H18Z12129   1.876   2.489   5.341  1.7801  0.4666 -1.0742
  116SAPE     N12130   0.743   2.721   2.707 -0.2014 -0.2330 -0.4266
  116SAPE   HN112131   0.662   2.670   2.666  0.6249 -1.2294 -0.8502
  116SAPE   HN212132   0.724   2.824   2.704  0.1913 -0.1112  0.8118
  116SAPE   HN312133   0.828   2.701   2.651  1.1834  1.2522  1.0632
  116SAPE   C1212134   0.748   2.671   2.852 -0.3989 -0.2870 -0.4242
  116SAPE  H12A12135   0.791   2.569   2.858  0.0127 -0.1957 -1.5751
  116SAPE  H12B12136   0.640   2.678   2.880 -0.2933  2.9463 -0.4671
  116SAPE   C1112137   0.827   2.763   2.949 -0.7411 -0.6580  0.4469
  116SAPE  H11A12138   0.842   2.706   3.043 -0.4005  1.0304  1.4606
  116SAPE  H11B12139   0.770   2.856   2.972  2.1033  0.9911  1.3070
  116SAPE     P12140   1.084   2.702   2.904  0.2475  0.2516  0.2545
  116SAPE   O1312141   1.035   2.564   2.920  0.9799 -0.0357  0.6612
  116SAPE   O1412142   1.168   2.736   2.788  0.0758  0.0751  0.0035
  116SAPE   O1212143   0.955   2.798   2.895  1.3500 -0.5149 -0.7063
  116SAPE   O1112144   1.162   2.754   3.033  0.2166  0.1833  0.5846
  116SAPE    C112145   1.121   2.852   3.125 -0.0587 -0.3390  0.1899
  116SAPE    HA12146   1.055   2.921   3.068 -0.0012 -1.2654 -1.0323
  116SAPE    HB12147   1.081   2.796   3.212  0.2266  1.0780  1.2747
  116SAPE    C212148   1.248   2.934   3.178 -0.1675  0.4516  0.3615
  116SAPE    HS12149   1.301   2.979   3.092  1.2915  0.1875  1.0903
  116SAPE   O2112150   1.339   2.840   3.241  0.4210  0.2293  0.3644
  116SAPE   C2112151   1.469   2.863   3.230  0.1437 -0.0019 -0.2226
  116SAPE   O2212152   1.519   2.952   3.163 -0.1982  0.3605 -0.6827
  116SAPE   C2212153   1.544   2.762   3.316 -0.5027  0.0269 -0.0758
  116SAPE   H2R12154   1.467   2.736   3.392 -0.7546 -0.9054 -0.6226
  116SAPE   H2S12155   1.573   2.678   3.249  1.8246  0.4627  0.2791
  116SAPE    C312156   1.206   3.049   3.273  0.2114 -0.6948 -0.6077
  116SAPE    HX12157   1.177   3.001   3.370 -0.2440 -1.7727 -1.2601
  116SAPE    HY12158   1.117   3.094   3.225 -0.8932 -1.8748  0.2641
  116SAPE   O3112159   1.316   3.146   3.290 -0.5765  0.3304 -0.8448
  116SAPE   C3112160   1.287   3.221   3.393 -0.5839  0.4487  0.0123
  116SAPE   O3212161   1.177   3.231   3.442  0.4654 -0.1031 -0.0810
  116SAPE   C3212162   1.408   3.302   3.435 -0.9506  0.4536  0.2386
  116SAPE   H2X12163   1.437   3.370   3.351  5.0085 -3.2374 -1.2845
  116SAPE   H2Y12164   1.500   3.240   3.434 -0.9764  0.2645 -3.2787
  116SAPE   C2312165   1.659   2.819   3.398 -0.1024 -0.2728 -0.3126
  116SAPE   H3R12166   1.736   2.869   3.336  1.1950 -1.0289  0.6282
  116SAPE   H3S12167   1.703   2.741   3.465 -1.2102 -0.8786 -0.2735
  116SAPE   C2412168   1.613   2.920   3.512 -0.5780 -0.2239  0.1038
  116SAPE   H4R12169   1.539   2.863   3.571 -1.3886 -2.1964 -2.6008
  116SAPE   H4S12170   1.568   3.005   3.456 -0.5331 -1.1133 -1.3562
  116SAPE   C2512171   1.730   2.970   3.599 -0.1244  0.0571 -0.1195
  116SAPE   H5R12172   1.827   2.992   3.553  0.4579 -0.6838  0.7236
  116SAPE   C2612173   1.720   2.980   3.735  0.3148 -0.1967  0.7400
  116SAPE   H6R12174   1.815   3.011   3.780 -0.1150 -0.1250  1.6160
  116SAPE   C2712175   1.603   2.955   3.824  0.2120 -1.1870 -0.4511
  116SAPE   H7R12176   1.506   2.975   3.775 -0.0869 -0.7556  0.3121
  116SAPE   H7S12177   1.608   3.011   3.920 -0.2318 -2.3569  0.2715
  116SAPE   C2812178   1.602   2.808   3.868 -0.0742 -0.0468  0.7488
  116SAPE   H8R12179   1.634   2.734   3.793 -1.4480 -1.6678  1.7072
  116SAPE   C2912180   1.547   2.760   3.977  0.7384 -0.2239  0.5976
  116SAPE   H9R12181   1.556   2.651   3.994  2.7609 -0.3010 -0.6440
  116SAPE  C21012182   1.478   2.858   4.083  0.2964 -0.1589  0.1938
  116SAPE  H10R12183   1.460   2.955   4.032 -2.0178 -0.2844  0.6501
  116SAPE  H10S12184   1.530   2.870   4.180 -0.9144  0.3625  0.7999
  116SAPE  C21112185   1.344   2.814   4.119 -0.9472  0.5043  0.3615
  116SAPE  H11R12186   1.280   2.784   4.035 -2.5846  1.0323  1.3674
  116SAPE  C21212187   1.298   2.797   4.244 -0.3539 -0.6892 -0.3956
  116SAPE  H12R12188   1.195   2.762   4.262 -0.7597  0.4243 -0.4776
  116SAPE  C21312189   1.390   2.809   4.369  0.2490  0.2201 -0.5387
  116SAPE  H13R12190   1.483   2.749   4.363  0.6080  0.6214  0.6527
  116SAPE  H13S12191   1.331   2.749   4.441  1.3072  0.9757  0.9989
  116SAPE  C21412192   1.412   2.952   4.427 -0.2896 -0.7198 -0.0828
  116SAPE  H14R12193   1.468   3.022   4.363 -1.0790  0.1120  0.1210
  116SAPE  C21512194   1.364   3.000   4.542  0.1786 -0.0460  0.7804
  116SAPE  H15R12195   1.383   3.107   4.560  0.0197 -0.4265  3.6253
  116SAPE  C21612196   1.285   2.932   4.649 -1.0188 -0.1619 -0.1201
  116SAPE  H16R12197   1.359   2.886   4.719  0.6524  0.4794 -1.3798
  116SAPE  H16S12198   1.239   2.840   4.606  2.2042 -2.2731  0.5539
  116SAPE  C21712199   1.179   3.011   4.720  0.3349 -0.2358 -0.1937
  116SAPE  H17R12200   1.218   3.093   4.784  0.2928  1.7030 -2.5100
  116SAPE  H17S12201   1.120   2.950   4.792 -3.6999  2.2094 -1.0852
  116SAPE  C21812202   1.069   3.069   4.623 -0.7837 -0.5816 -0.3988
  116SAPE  H18R12203   1.046   3.005   4.536 -1.6599 -1.4156  0.4190
  116SAPE  H18S12204   1.105   3.167   4.584  2.3660 -0.0885  3.2025
  116SAPE  C21912205   0.943   3.110   4.696  0.4261  0.2001  0.1560
  116SAPE  H19R12206   0.891   3.180   4.628  2.7161 -0.0329 -1.9972
  116SAPE  H19S12207   0.973   3.177   4.780 -0.3558  1.4401 -0.5326
  116SAPE  C22012208   0.844   2.998   4.739 -0.6640  0.0623 -0.1381
  116SAPE  H20R12209   0.771   3.031   4.816 -1.4788 -1.2323 -0.3263
  116SAPE  H20S12210   0.911   2.918   4.777  0.3695  1.4632  1.0963
  116SAPE  H20T12211   0.782   2.968   4.651 -0.7321  0.7722 -0.3435
  116SAPE   C3312212   1.394   3.377   3.571  0.2270 -0.6398  1.1293
  116SAPE   H3X12213   1.305   3.442   3.582  0.2824 -0.0053 -1.4836
  116SAPE   H3Y12214   1.483   3.444   3.571 -0.6065  0.5058  2.5183
  116SAPE   C3412215   1.414   3.293   3.694  0.7162 -0.3521 -0.2234
  116SAPE   H4X12216   1.510   3.239   3.704  1.3314  0.6890 -0.4651
  116SAPE   H4Y12217   1.321   3.231   3.692 -0.1499  0.9236 -1.2618
  116SAPE   C3512218   1.412   3.384   3.820  0.6859 -0.4384 -0.6393
  116SAPE   H5X12219   1.340   3.466   3.803  0.2407 -1.2456 -3.1502
  116SAPE   H5Y12220   1.509   3.434   3.840 -0.8800  2.5708 -0.0455
  116SAPE   C3612221   1.356   3.299   3.936  0.1740 -0.0603 -0.1219
  116SAPE   H6X12222   1.434   3.222   3.956  0.2376  0.4764  1.8810
  116SAPE   H6Y12223   1.271   3.239   3.897  2.1538 -1.4131 -2.7075
  116SAPE   C3712224   1.319   3.374   4.062  0.2030 -0.4516  0.2584
  116SAPE   H7X12225   1.232   3.442   4.055 -2.3672 -3.3014  1.9105
  116SAPE   H7Y12226   1.412   3.427   4.089  0.1197  0.2756 -0.8370
  116SAPE   C3812227   1.291   3.281   4.174  0.1606 -0.9105  0.4888
  116SAPE   H8X12228   1.377   3.213   4.192 -0.4113 -1.2232  2.2716
  116SAPE   H8Y12229   1.213   3.209   4.141  0.6610 -1.9755  1.5490
  116SAPE   C3912230   1.241   3.337   4.305 -0.4038 -0.4432 -0.4378
  116SAPE   H9X12231   1.255   3.253   4.376  0.1976 -0.0755 -0.1138
  116SAPE   H9Y12232   1.132   3.359   4.311 -0.0851  0.7923  2.6339
  116SAPE  C31012233   1.323   3.452   4.353  0.0573 -0.0974  0.1128
  116SAPE  H10X12234   1.308   3.548   4.298  0.7287  1.9620  3.2215
  116SAPE  H10Y12235   1.427   3.421   4.333  0.2312  0.0453  0.7812
  116SAPE  C31112236   1.317   3.476   4.505 -0.7721  0.1592  0.0366
  116SAPE  H11X12237   1.403   3.540   4.536 -0.0807 -1.7611  2.3749
  116SAPE  H11Y12238   1.334   3.386   4.567 -0.0393  1.7691  2.3224
  116SAPE  C31212239   1.182   3.536   4.553 -0.7988  0.0474 -0.4900
  116SAPE  H12X12240   1.101   3.491   4.492 -0.9989  0.9459 -0.9045
  116SAPE  H12Y12241   1.175   3.642   4.521 -2.2971  0.2452  0.3875
  116SAPE  C31312242   1.163   3.535   4.701 -0.3824  0.1244  0.1948
  116SAPE  H13X12243   1.256   3.575   4.746 -0.1818  0.5375 -0.5657
  116SAPE  H13Y12244   1.144   3.438   4.751 -1.7254  0.4477  0.3787
  116SAPE  C31412245   1.043   3.632   4.734 -0.2842  0.3996 -0.7267
  116SAPE  H14X12246   1.057   3.734   4.691 -2.3917  1.0800  0.0311
  116SAPE  H14Y12247   1.033   3.641   4.844 -0.2612  0.4906 -0.7314
  116SAPE  C31512248   0.911   3.582   4.682 -0.1636 -0.2242  0.3652
  116SAPE  H15X12249   0.909   3.475   4.713  0.2273  0.0770  1.4509
  116SAPE  H15Y12250   0.912   3.585   4.571 -1.8782 -0.9695  0.2977
  116SAPE  C31612251   0.788   3.650   4.742  0.4056 -0.3641  0.3845
  116SAPE  H16X12252   0.758   3.616   4.843 -1.2937  2.3536  0.9049
  116SAPE  H16Y12253   0.710   3.616   4.671  0.5934  1.6014 -0.8676
  116SAPE  C31712254   0.783   3.808   4.731 -0.3346 -0.8663 -0.6861
  116SAPE  H17X12255   0.810   3.838   4.628  1.6411 -1.5324 -0.4084
  116SAPE  H17Y12256   0.872   3.832   4.793 -1.2977 -0.5389  0.6313
  116SAPE  C31812257   0.647   3.867   4.779 -0.0912 -0.6788  0.9282
  116SAPE  H18X12258   0.624   3.969   4.742 -0.7843 -1.3430 -0.5554
  116SAPE  H18Y12259   0.638   3.849   4.889  0.7983 -1.3780  0.9070
  116SAPE  H18Z12260   0.575   3.800   4.727  0.1059 -0.1739 -0.0192
  117SOPE     N12261   4.840   1.546   7.599  0.0635 -0.2252  0.2440
  117SOPE   HN112262   4.865   1.532   7.499 -1.5372  0.8434 -0.3627
  117SOPE   HN212263   4.907   1.503   7.665 -0.9971 -0.7391  1.0235
  117SOPE   HN312264   4.748   1.499   7.611  0.7410 -1.7211 -0.1714
  117SOPE   C1212265   4.828   1.699   7.623  0.4483  0.2178  0.1737
  117SOPE  H12A12266   4.933   1.730   7.641  1.0045 -2.4355  2.1715
  117SOPE  H12B12267   4.768   1.718   7.714 -0.0974  0.2585 -0.1886
  117SOPE   C1112268   4.757   1.779   7.506  0.1729 -0.1814  0.4871
  117SOPE  H11A12269   4.655   1.739   7.491  0.1693 -0.9814  2.3582
  117SOPE  H11B12270   4.828   1.764   7.422  2.2882  1.2509  1.9117
  117SOPE     P12271   4.650   1.995   7.633 -0.3093  0.4433  0.2518
  117SOPE   O1312272   4.707   2.105   7.717 -0.1904  0.0675  0.3607
  117SOPE   O1412273   4.556   1.895   7.692 -0.0460 -0.7430  0.6084
  117SOPE   O1212274   4.760   1.923   7.546  0.0048  0.4541  0.2622
  117SOPE   O1112275   4.577   2.045   7.501  0.9629 -0.8269 -1.1059
  117SOPE    C112276   4.604   2.178   7.464 -0.2859  0.1995  0.3732
  117SOPE    HA12277   4.710   2.208   7.456  0.3358 -2.1760 -1.3058
  117SOPE    HB12278   4.550   2.259   7.517  0.1088  1.3445 -0.9131
  117SOPE    C212279   4.556   2.200   7.325 -0.1421 -0.5217 -0.0081
  117SOPE    HS12280   4.591   2.298   7.285  0.4914 -1.4634 -1.9006
  117SOPE   O2112281   4.410   2.205   7.341  0.2567 -0.2514  0.3380
  117SOPE   C2112282   4.347   2.282   7.248  0.1873  0.1825 -0.3937
  117SOPE   O2212283   4.405   2.356   7.172  0.1840  0.3477 -0.0774
  117SOPE   C2212284   4.200   2.261   7.247  0.1132 -0.1609 -0.4500
  117SOPE   H2R12285   4.153   2.305   7.337 -1.2526 -1.9455 -0.2387
  117SOPE   H2S12286   4.183   2.151   7.240  0.4276 -0.4829  2.5225
  117SOPE    C312287   4.595   2.080   7.222  0.3818 -0.5970 -0.4418
  117SOPE    HX12288   4.537   1.993   7.257  0.7799  0.2792  2.6771
  117SOPE    HY12289   4.702   2.061   7.246  0.3133 -0.8702 -0.3578
  117SOPE   O3112290   4.557   2.110   7.083 -0.6547 -0.1592 -0.3849
  117SOPE   C3112291   4.609   2.214   7.030 -0.5232  0.3412  0.5569
  117SOPE   O3212292   4.703   2.285   7.072 -0.2236  0.0496  0.8006
  117SOPE   C3212293   4.536   2.228   6.892  0.3242 -0.2015 -0.2138
  117SOPE   H2X12294   4.454   2.296   6.923 -0.0251 -0.4633 -0.5535
  117SOPE   H2Y12295   4.499   2.131   6.854 -2.3144 -0.5875  2.8827
  117SOPE   C2312296   4.126   2.344   7.142  0.1968  0.2322  0.3342
  117SOPE   H3R12297   4.171   2.445   7.153 -0.4815  0.5491  0.2633
  117SOPE   H3S12298   4.016   2.352   7.156  0.0931  1.6473 -0.9501
  117SOPE   C2412299   4.145   2.284   7.003 -0.2744 -0.1821  0.2905
  117SOPE   H4R12300   4.251   2.258   6.981 -0.3426 -0.0407 -0.2198
  117SOPE   H4S12301   4.080   2.194   7.006  0.4942 -0.7184  1.6006
  117SOPE   C2512302   4.092   2.385   6.900  0.3663 -0.2653  0.2715
  117SOPE   H5R12303   3.991   2.418   6.931  0.6598  2.7042 -1.4711
  117SOPE   H5S12304   4.147   2.482   6.905 -0.0125 -0.1099  2.7970
  117SOPE   C2612305   4.089   2.336   6.751 -0.2877  0.4194  0.4054
  117SOPE   H6R12306   4.187   2.302   6.711 -1.8268 -3.1892 -0.7284
  117SOPE   H6S12307   4.028   2.243   6.751 -0.7750  0.7116 -0.9870
  117SOPE   C2712308   4.035   2.442   6.660 -0.1637 -0.2918 -0.6307
  117SOPE   H7R12309   3.949   2.484   6.718  0.0580  0.6747 -0.9891
  117SOPE   H7S12310   4.106   2.527   6.652  1.1696 -1.1939  1.0644
  117SOPE   C2812311   3.994   2.390   6.525  0.5184 -0.2814  0.1117
  117SOPE   H8R12312   4.090   2.368   6.474  0.8248  1.0806  0.0681
  117SOPE   H8S12313   3.932   2.299   6.535  2.0042 -1.1130  2.9159
  117SOPE   C2912314   3.928   2.504   6.445  0.0909  1.0648  0.3842
  117SOPE   H9112315   3.830   2.540   6.481 -0.9836 -1.1852 -0.1241
  117SOPE  C21012316   3.976   2.546   6.326  0.0744 -0.9069  0.3051
  117SOPE  H10112317   3.909   2.613   6.270  1.5537 -1.0557 -1.7642
  117SOPE  C21112318   4.106   2.517   6.258  0.0255  0.5076  0.0860
  117SOPE  H11R12319   4.175   2.450   6.314 -0.7714 -0.5849 -0.2024
  117SOPE  H11S12320   4.160   2.613   6.243  1.5042 -0.2670  0.2548
  117SOPE  C21212321   4.087   2.462   6.118 -0.0822 -0.0906 -0.5564
  117SOPE  H12R12322   4.049   2.358   6.130  2.0157 -1.1339 -2.3750
  117SOPE  H12S12323   4.185   2.455   6.067 -0.8670 -2.1342 -1.9495
  117SOPE  C21312324   3.992   2.548   6.030 -0.3679  0.1660  0.0176
  117SOPE  H13R12325   4.006   2.658   6.031 -0.0502  0.1390 -0.6772
  117SOPE  H13S12326   3.887   2.526   6.057 -0.2511  0.1872  0.4950
  117SOPE  C21412327   4.017   2.525   5.877 -0.0824 -0.3909 -0.3858
  117SOPE  H14R12328   3.965   2.433   5.843 -2.6734  0.6603  0.4569
  117SOPE  H14S12329   4.126   2.506   5.869 -0.3993 -1.8552 -1.7707
  117SOPE  C21512330   3.968   2.647   5.799 -0.0395 -0.6783  0.3701
  117SOPE  H15R12331   4.035   2.732   5.825 -2.7669  1.5850  0.5030
  117SOPE  H15S12332   3.869   2.669   5.845  0.3362 -2.1820  1.9984
  117SOPE  C21612333   3.959   2.629   5.651  0.6036  0.2392  0.5370
  117SOPE  H16R12334   4.053   2.592   5.606  0.5575  0.9394 -0.1412
  117SOPE  H16S12335   3.950   2.731   5.609 -2.5582  0.8488  2.3288
  117SOPE  C21712336   3.839   2.540   5.607  0.6826  0.6257 -0.0977
  117SOPE  H17R12337   3.745   2.561   5.663 -0.4312  0.2841 -1.7726
  117SOPE  H17S12338   3.848   2.432   5.632 -1.4001  0.4658  0.1344
  117SOPE  C21812339   3.814   2.552   5.455 -0.3724  0.0264  0.4224
  117SOPE  H18R12340   3.802   2.658   5.425  0.1152 -0.5460 -1.9387
  117SOPE  H18S12341   3.730   2.486   5.423  0.7479 -0.8011 -0.9150
  117SOPE  H18T12342   3.900   2.508   5.400  0.3019  1.3292  0.4037
  117SOPE   C3312343   4.645   2.291   6.798  0.5491 -0.1567 -0.8059
  117SOPE   H3X12344   4.750   2.275   6.830  0.6137  0.4795 -0.6884
  117SOPE   H3Y12345   4.635   2.402   6.796  0.1085 -0.1835 -0.3597
  117SOPE   C3412346   4.636   2.254   6.648 -0.4054  0.2179  0.5421
  117SOPE   H4X12347   4.543   2.302   6.614 -1.6149 -0.6924  2.3840
  117SOPE   H4Y12348   4.623   2.143   6.655 -2.7459  0.4273  0.2378
  117SOPE   C3512349   4.762   2.310   6.582  1.0034 -0.1348  0.4330
  117SOPE   H5X12350   4.856   2.321   6.642  0.6788  2.1438  0.6270
  117SOPE   H5Y12351   4.742   2.411   6.541  0.4427 -1.1166 -1.8128
  117SOPE   C3612352   4.784   2.224   6.451  0.0196  0.8171  0.1433
  117SOPE   H6X12353   4.682   2.196   6.418  0.4546 -1.5237  0.6498
  117SOPE   H6Y12354   4.832   2.128   6.480 -2.1391  0.2383  2.1060
  117SOPE   C3712355   4.844   2.306   6.332  0.3758  0.0725 -0.2837
  117SOPE   H7X12356   4.950   2.334   6.351  0.5216 -0.1375 -0.7497
  117SOPE   H7Y12357   4.774   2.392   6.324 -2.4137 -2.0010  0.3649
  117SOPE   C3812358   4.849   2.240   6.195  0.9086  0.8204  0.0139
  117SOPE   H8X12359   4.748   2.198   6.177  0.4684  1.9881 -0.4028
  117SOPE   H8Y12360   4.921   2.157   6.201  2.7827  2.4503  1.5061
  117SOPE   C3912361   4.878   2.316   6.066  0.0922 -0.0473 -0.3823
  117SOPE   H9X12362   4.978   2.359   6.090 -0.3616  0.3325  0.9188
  117SOPE   H9Y12363   4.810   2.402   6.048 -0.8568 -0.1705  2.2212
  117SOPE  C31012364   4.877   2.232   5.942 -0.9590  0.4506  0.0078
  117SOPE  H10X12365   4.856   2.293   5.851  0.9175  2.0738  0.5840
  117SOPE  H10Y12366   4.792   2.160   5.947  0.1628 -0.9615 -0.7055
  117SOPE  C31112367   5.006   2.167   5.913 -0.6705  0.2095 -0.0311
  117SOPE  H11X12368   5.034   2.108   6.003  1.2485 -0.1753 -0.8308
  117SOPE  H11Y12369   5.087   2.239   5.888 -1.1729  0.0274 -2.3734
  117SOPE  C31212370   5.010   2.074   5.790  0.6461 -0.0334 -1.4074
  117SOPE  H12X12371   4.951   2.118   5.707  0.1927  1.5451 -0.2901
  117SOPE  H12Y12372   4.962   1.978   5.820 -0.7253  0.7790 -0.8950
  117SOPE  C31312373   5.147   2.042   5.747 -0.3604 -0.1827  0.1586
  117SOPE  H13X12374   5.212   1.996   5.825  1.5691  0.5294 -0.9527
  117SOPE  H13Y12375   5.201   2.137   5.727  1.1972 -0.8512  0.9806
  117SOPE  C31412376   5.146   1.963   5.618 -0.3318  0.0707 -0.5056
  117SOPE  H14X12377   5.071   2.004   5.547 -0.4676 -1.5578 -1.3533
  117SOPE  H14Y12378   5.135   1.854   5.636  1.7749 -0.3197 -1.3051
  117SOPE  C31512379   5.289   1.964   5.559 -0.3152 -0.4257  0.1716
  117SOPE  H15X12380   5.356   1.930   5.641 -1.6963 -0.5734  1.2720
  117SOPE  H15Y12381   5.309   2.069   5.528 -1.1648 -0.4169 -0.3831
  117SOPE  C31612382   5.301   1.889   5.429  0.1583  0.1506  0.1344
  117SOPE  H16X12383   5.228   1.927   5.355 -0.9803 -2.4136 -0.1537
  117SOPE  H16Y12384   5.284   1.782   5.453  0.3789  0.0014 -0.3676
  117SOPE  C31712385   5.444   1.889   5.364  0.3749 -0.6793  0.3369
  117SOPE  H17X12386   5.442   1.804   5.292 -0.5248  0.2420 -0.7705
  117SOPE  H17Y12387   5.526   1.873   5.437  0.1503 -1.8726  0.3383
  117SOPE  C31812388   5.474   2.017   5.283 -0.4071 -0.4509  0.4235
  117SOPE  H18X12389   5.393   2.037   5.209  1.4492 -0.9642 -1.8681
  117SOPE  H18Y12390   5.562   1.999   5.217 -0.2525  1.6065  0.0069
  117SOPE  H18Z12391   5.499   2.109   5.340  1.8432 -0.6768 -0.1084
  118SOPE     N12392   5.966   3.253   7.650 -0.5991  0.2394 -0.0329
  118SOPE   HN112393   6.016   3.164   7.670 -2.8949 -0.7757  1.6811
  118SOPE   HN212394   5.960   3.303   7.741 -0.7543  1.2095 -0.5595
  118SOPE   HN312395   5.872   3.237   7.607 -1.9288  2.9601  1.5426
  118SOPE   C1212396   6.051   3.330   7.555 -0.9327 -0.1516  0.0024
  118SOPE  H12A12397   6.127   3.379   7.620 -0.0951 -2.7046  1.0865
  118SOPE  H12B12398   6.004   3.397   7.481  0.8424  0.6909 -0.4128
  118SOPE   C1112399   6.135   3.227   7.475  1.0650  0.6616 -0.2939
  118SOPE  H11A12400   6.214   3.284   7.422 -0.7516  2.2488 -1.4593
  118SOPE  H11B12401   6.079   3.172   7.396 -0.9868  0.1135  1.4379
  118SOPE     P12402   6.168   2.976   7.561  0.1910 -0.2501 -0.1248
  118SOPE   O1312403   6.026   2.968   7.576  0.2130 -0.3319  0.2727
  118SOPE   O1412404   6.255   2.919   7.661 -0.7366 -0.1978 -0.1799
  118SOPE   O1212405   6.201   3.132   7.561  0.5141  0.3399  0.5264
  118SOPE   O1112406   6.208   2.922   7.419  0.6712 -0.4167 -0.0719
  118SOPE    C112407   6.335   2.966   7.364  0.2999 -0.0247  0.5319
  118SOPE    HA12408   6.419   2.922   7.422  1.2551 -0.4532 -1.1034
  118SOPE    HB12409   6.346   3.076   7.369 -0.1797  0.1579 -1.5530
  118SOPE    C212410   6.358   2.916   7.223 -0.2330 -0.2879  0.0695
  118SOPE    HS12411   6.464   2.940   7.199  0.6932 -1.2574  2.8122
  118SOPE   O2112412   6.259   2.975   7.131 -0.0970 -0.1092 -0.2055
  118SOPE   C2112413   6.301   3.093   7.092 -0.1725 -0.0455  0.0145
  118SOPE   O2212414   6.411   3.139   7.120 -0.1055 -0.0754  0.2300
  118SOPE   C2212415   6.194   3.157   7.000  1.0223  0.1107  0.8092
  118SOPE   H2R12416   6.227   3.263   6.994  1.8683 -0.2101 -1.6928
  118SOPE   H2S12417   6.094   3.139   7.044  0.7834 -2.6740 -0.6661
  118SOPE    C312418   6.345   2.758   7.223 -0.2239  0.1936  0.8130
  118SOPE    HX12419   6.255   2.725   7.279 -1.4984  3.5182  0.9743
  118SOPE    HY12420   6.427   2.711   7.280 -0.5158 -0.9803  0.2971
  118SOPE   O3112421   6.337   2.712   7.083  0.1762 -0.2429 -0.5380
  118SOPE   C3112422   6.453   2.723   7.019  0.3570  0.5156 -0.8617
  118SOPE   O3212423   6.563   2.740   7.077 -0.0775  0.2097  0.2855
  118SOPE   C3212424   6.452   2.696   6.867  0.0325 -0.1830 -0.1723
  118SOPE   H2X12425   6.353   2.667   6.827  0.5239  0.1024 -1.6665
  118SOPE   H2Y12426   6.522   2.616   6.836 -1.2316 -0.6987 -1.8543
  118SOPE   C2312427   6.195   3.083   6.860  0.0021 -0.0224 -0.1123
  118SOPE   H3R12428   6.119   3.002   6.858 -0.8997  0.8183 -0.0075
  118SOPE   H3S12429   6.301   3.058   6.836  0.6994  3.3134 -1.0079
  118SOPE   C2412430   6.165   3.175   6.743 -0.6918  0.0965  0.2067
  118SOPE   H4R12431   6.057   3.203   6.747 -0.4447  1.5210 -1.8237
  118SOPE   H4S12432   6.221   3.269   6.760 -1.4821  0.2029  2.6483
  118SOPE   C2512433   6.197   3.111   6.605 -0.2775 -0.6494  0.4929
  118SOPE   H5R12434   6.306   3.089   6.600 -0.5156 -1.5613 -1.4478
  118SOPE   H5S12435   6.137   3.017   6.602  0.0697 -0.8867  0.8580
  118SOPE   C2612436   6.169   3.207   6.482  1.0144 -0.4379 -0.6758
  118SOPE   H6R12437   6.059   3.218   6.475  0.7714 -0.2010  2.2067
  118SOPE   H6S12438   6.218   3.306   6.498  1.1908 -0.5669 -0.4092
  118SOPE   C2712439   6.221   3.138   6.357 -0.4774 -0.2043  0.1002
  118SOPE   H7R12440   6.210   3.028   6.349 -1.1703  0.0039 -2.6480
  118SOPE   H7S12441   6.151   3.171   6.278 -1.5341 -0.6943  0.8112
  118SOPE   C2812442   6.376   3.163   6.338  0.0328 -0.6458 -0.3277
  118SOPE   H8R12443   6.430   3.134   6.431 -0.1612  0.2010  0.0664
  118SOPE   H8S12444   6.405   3.104   6.249 -0.3341  0.6846 -1.3552
  118SOPE   C2912445   6.411   3.305   6.300  0.2607  0.1823 -0.3731
  118SOPE   H9112446   6.441   3.366   6.387  3.6714 -1.3461 -0.3245
  118SOPE  C21012447   6.421   3.353   6.176  0.1313 -0.7638 -0.0141
  118SOPE  H10112448   6.471   3.449   6.160  3.2473 -2.4264 -0.9542
  118SOPE  C21112449   6.398   3.281   6.047  0.1843  0.4227 -0.1172
  118SOPE  H11R12450   6.297   3.238   6.031  1.4672 -2.5509 -0.9830
  118SOPE  H11S12451   6.455   3.186   6.058 -1.6882 -0.9076 -1.3535
  118SOPE  C21212452   6.452   3.353   5.918 -0.0461 -0.4567  0.0532
  118SOPE  H12R12453   6.563   3.356   5.924  0.3367 -3.1042 -2.8406
  118SOPE  H12S12454   6.410   3.455   5.901 -1.1968 -1.0651 -0.8330
  118SOPE  C21312455   6.420   3.271   5.799 -0.0809  0.0737  0.5092
  118SOPE  H13R12456   6.312   3.246   5.805 -0.8503  2.9961  0.6613
  118SOPE  H13S12457   6.493   3.189   5.812  1.7235  1.5357  0.1296
  118SOPE  C21412458   6.455   3.347   5.673  0.4746  0.0073  0.2763
  118SOPE  H14R12459   6.563   3.336   5.650  0.1470  0.1710 -1.5219
  118SOPE  H14S12460   6.429   3.454   5.687  0.7789  0.1512 -0.2152
  118SOPE  C21512461   6.382   3.307   5.542 -0.2786  0.1873  0.8788
  118SOPE  H15R12462   6.272   3.307   5.556 -0.3025 -0.1128  0.6794
  118SOPE  H15S12463   6.415   3.203   5.521 -1.6860 -0.0661 -0.2041
  118SOPE  C21612464   6.425   3.390   5.424  0.2679 -0.7848 -0.4404
  118SOPE  H16R12465   6.536   3.388   5.422  0.3146  0.4807 -0.1029
  118SOPE  H16S12466   6.390   3.495   5.434  0.5758 -0.5578 -1.6720
  118SOPE  C21712467   6.392   3.334   5.286  1.0359  0.1694 -0.0891
  118SOPE  H17R12468   6.283   3.313   5.280  0.6154  1.1968  2.5372
  118SOPE  H17S12469   6.444   3.242   5.253 -0.2998 -0.7556  0.2951
  118SOPE  C21812470   6.420   3.426   5.171 -0.1966  0.4741  0.4375
  118SOPE  H18R12471   6.413   3.368   5.076  1.5594 -0.9590  1.1300
  118SOPE  H18S12472   6.524   3.465   5.168 -0.1697  0.3691 -0.8302
  118SOPE  H18T12473   6.350   3.511   5.163 -3.5368 -2.0862  0.3463
  118SOPE   C3312474   6.493   2.825   6.792 -0.7923 -0.1534  0.6754
  118SOPE   H3X12475   6.601   2.839   6.813 -0.6652 -2.0163  1.3777
  118SOPE   H3Y12476   6.438   2.914   6.831  0.9349  0.6893  1.2875
  118SOPE   C3412477   6.472   2.819   6.638  0.1620 -0.1958  0.7659
  118SOPE   H4X12478   6.483   2.914   6.583 -1.2194  0.2898  1.2863
  118SOPE   H4Y12479   6.364   2.795   6.631 -0.5626  2.1032  2.7080
  118SOPE   C3512480   6.568   2.714   6.579  0.0831  0.3449 -0.1102
  118SOPE   H5X12481   6.540   2.608   6.600 -2.3358  0.8085 -0.6753
  118SOPE   H5Y12482   6.666   2.737   6.624  1.4626 -0.0682 -2.7055
  118SOPE   C3612483   6.591   2.716   6.425 -0.0517 -0.6859 -0.0635
  118SOPE   H6X12484   6.670   2.640   6.409 -0.0839 -0.7197 -0.0591
  118SOPE   H6Y12485   6.644   2.811   6.404  2.0243 -1.8673 -0.4194
  118SOPE   C3712486   6.473   2.666   6.338  0.5958 -0.0413  0.3345
  118SOPE   H7X12487   6.397   2.746   6.333  1.0211  0.3674  0.2887
  118SOPE   H7Y12488   6.423   2.579   6.386 -0.4071 -0.2813 -1.1101
  118SOPE   C3812489   6.515   2.636   6.197  0.0921 -0.5971  0.2862
  118SOPE   H8X12490   6.431   2.597   6.136 -0.9583  2.6306 -0.5262
  118SOPE   H8Y12491   6.605   2.570   6.195  2.4151  2.3273 -1.2836
  118SOPE   C3912492   6.574   2.762   6.121  0.3599 -0.8674 -0.1006
  118SOPE   H9X12493   6.651   2.801   6.191  0.3508 -1.6257  0.3280
  118SOPE   H9Y12494   6.492   2.837   6.118  1.1654  0.0166 -2.2314
  118SOPE  C31012495   6.631   2.731   5.979 -0.3716 -0.6129  0.5778
  118SOPE  H10X12496   6.724   2.671   5.988 -2.9742 -5.2545 -0.2886
  118SOPE  H10Y12497   6.654   2.825   5.924 -0.9216 -0.2006  1.0402
  118SOPE  C31112498   6.541   2.638   5.893  0.2909  0.4883  0.5041
  118SOPE  H11X12499   6.441   2.684   5.882  0.1172 -0.2372 -1.3433
  118SOPE  H11Y12500   6.532   2.537   5.938  0.2794  0.0853 -0.3842
  118SOPE  C31212501   6.601   2.619   5.751  0.2703 -0.4020 -0.0800
  118SOPE  H12X12502   6.692   2.558   5.765  2.1390  1.7830 -1.9893
  118SOPE  H12Y12503   6.635   2.709   5.697  1.4877 -0.2202  0.9464
  118SOPE  C31312504   6.506   2.554   5.653  0.3382 -0.2947  0.5468
  118SOPE  H13X12505   6.420   2.624   5.645  0.9460  0.3471 -0.4882
  118SOPE  H13Y12506   6.457   2.459   5.685 -1.3557 -0.0308 -1.1066
  118SOPE  C31412507   6.553   2.539   5.511  0.6235 -0.9710 -0.9205
  118SOPE  H14X12508   6.553   2.635   5.455 -1.7281  0.6314  1.6062
  118SOPE  H14Y12509   6.475   2.477   5.463  0.8163 -0.9225 -1.3005
  118SOPE  C31512510   6.686   2.469   5.490 -0.6712  0.5461 -0.3794
  118SOPE  H15X12511   6.698   2.386   5.563 -1.9769  0.0737 -0.6843
  118SOPE  H15Y12512   6.775   2.536   5.489 -0.0426 -0.2502  0.6585
  118SOPE  C31612513   6.664   2.401   5.358 -0.0663  0.4787  0.3639
  118SOPE  H16X12514   6.670   2.487   5.287 -1.0689  1.1947  1.1341
  118SOPE  H16Y12515   6.565   2.352   5.350 -0.9271  2.2967 -0.5367
  118SOPE  C31712516   6.781   2.300   5.342  0.6781 -0.5858 -0.3124
  118SOPE  H17X12517   6.753   2.216   5.409 -0.5484  0.3772  0.4065
  118SOPE  H17Y12518   6.864   2.357   5.388 -0.4852  1.6275 -0.8358
  118SOPE  C31812519   6.816   2.260   5.199 -0.1338 -0.3725 -0.5657
  118SOPE  H18X12520   6.734   2.197   5.159 -1.5755  2.6204 -2.7331
  118SOPE  H18Y12521   6.910   2.202   5.210 -1.1656 -1.7264  1.9300
  118SOPE  H18Z12522   6.834   2.352   5.139  1.4629 -0.6280 -0.5334
  119SOPE     N12523   2.329   3.984   7.339  0.4522 -0.1565 -0.3714
  119SOPE   HN112524   2.334   4.079   7.299 -0.3947 -0.0555 -0.2598
  119SOPE   HN212525   2.418   3.932   7.330  0.0145 -0.7464 -1.5197
  119SOPE   HN312526   2.254   3.929   7.292 -1.2988  0.7047  1.2536
  119SOPE   C1212527   2.269   3.976   7.483  1.2796 -0.5603  0.3054
  119SOPE  H12A12528   2.341   4.038   7.542 -0.0847  0.1977  1.2380
  119SOPE  H12B12529   2.283   3.870   7.514  1.2764 -0.8668 -0.7052
  119SOPE   C1112530   2.124   4.039   7.493  0.3613 -0.0691  0.1640
  119SOPE  H11A12531   2.139   4.148   7.504 -0.6627  0.0704  0.2685
  119SOPE  H11B12532   2.071   4.005   7.584  2.4160 -0.0772  1.4101
  119SOPE     P12533   1.897   4.022   7.361 -0.2482  0.2366  0.7642
  119SOPE   O1312534   1.869   4.171   7.354 -0.2351  0.4665 -0.3345
  119SOPE   O1412535   1.828   3.950   7.467 -0.7503 -0.0963  0.2503
  119SOPE   O1212536   2.050   3.999   7.372  0.5935 -0.0497  0.7387
  119SOPE   O1112537   1.854   3.965   7.222 -0.3490 -0.3060  0.1875
  119SOPE    C112538   1.920   3.994   7.096  0.6020 -0.1277  1.1737
  119SOPE    HA12539   1.918   3.900   7.036  0.6841 -1.4692  3.2022
  119SOPE    HB12540   2.029   4.013   7.100  0.2253  3.1813 -0.5145
  119SOPE    C212541   1.848   4.112   7.014  0.2687 -1.0099 -0.0130
  119SOPE    HS12542   1.875   4.207   7.066 -0.0430  0.3471 -2.1897
  119SOPE   O2112543   1.707   4.093   7.015 -0.5042  0.3921  0.2062
  119SOPE   C2112544   1.635   4.203   7.000  0.1010  0.0791 -0.3014
  119SOPE   O2212545   1.676   4.318   7.010  0.1609  0.0509 -0.0114
  119SOPE   C2212546   1.490   4.168   6.958  0.8443 -0.3069  0.1419
  119SOPE   H2R12547   1.440   4.217   7.044 -2.4859 -1.0772 -1.2063
  119SOPE   H2S12548   1.468   4.059   6.962 -1.5748  0.1323  0.4328
  119SOPE    C312549   1.892   4.126   6.870 -0.2860 -0.1028 -0.6529
  119SOPE    HX12550   2.001   4.145   6.861 -0.2726 -0.2343 -0.7728
  119SOPE    HY12551   1.847   4.218   6.827 -0.6394  0.9433  1.7796
  119SOPE   O3112552   1.868   4.004   6.805  0.2689  0.2068  0.1808
  119SOPE   C3112553   1.903   4.010   6.671  0.4458  0.5083 -0.3054
  119SOPE   O3212554   1.964   4.103   6.621 -0.3378  0.3988 -0.0223
  119SOPE   C3212555   1.857   3.883   6.602 -0.1467  0.1364 -0.5984
  119SOPE   H2X12556   1.750   3.859   6.618 -0.5671  1.4800 -1.2326
  119SOPE   H2Y12557   1.912   3.798   6.647 -1.7181  0.5603  2.4390
  119SOPE   C2312558   1.437   4.227   6.826  0.2541 -0.1912 -0.4240
  119SOPE   H3R12559   1.452   4.337   6.827  0.0637 -0.1605  0.4712
  119SOPE   H3S12560   1.327   4.212   6.837  0.1915  0.8049  0.5103
  119SOPE   C2412561   1.500   4.158   6.707 -0.5048 -0.3217 -0.6671
  119SOPE   H4R12562   1.609   4.181   6.712 -0.4929  0.0233  5.9923
  119SOPE   H4S12563   1.478   4.049   6.713  1.2026 -0.6609  0.2350
  119SOPE   C2512564   1.429   4.201   6.579  0.1710 -0.4678 -0.6170
  119SOPE   H5R12565   1.321   4.225   6.594  0.4003 -0.5096  1.4616
  119SOPE   H5S12566   1.473   4.302   6.561  0.2531  0.6324  4.3545
  119SOPE   C2612567   1.466   4.109   6.468  0.9591 -0.3988  0.5377
  119SOPE   H6R12568   1.560   4.149   6.425  0.5489  0.3767  0.3266
  119SOPE   H6S12569   1.484   4.006   6.505 -0.3748 -0.0982  2.2139
  119SOPE   C2712570   1.377   4.092   6.343 -0.3172 -0.7352  0.1831
  119SOPE   H7R12571   1.274   4.068   6.378 -1.6301  0.3751 -2.6154
  119SOPE   H7S12572   1.376   4.187   6.285  1.7548  0.4936  2.0316
  119SOPE   C2812573   1.416   3.970   6.256 -1.0992 -0.2852  0.2732
  119SOPE   H8R12574   1.441   3.885   6.323  1.5446  0.5811  0.5151
  119SOPE   H8S12575   1.331   3.945   6.189  0.2717  0.0134 -1.6595
  119SOPE   C2912576   1.532   4.020   6.174  0.6891  0.1320 -0.4418
  119SOPE   H9112577   1.626   4.019   6.231  1.2559  0.9814 -1.3443
  119SOPE  C21012578   1.541   4.065   6.050 -0.0356  0.1541 -0.3700
  119SOPE  H10112579   1.637   4.093   6.004 -0.7083  0.1027 -1.8517
  119SOPE  C21112580   1.421   4.067   5.953 -0.1511  0.1307 -0.1398
  119SOPE  H11R12581   1.445   4.134   5.867 -0.6839 -2.3693 -2.3445
  119SOPE  H11S12582   1.340   4.123   6.004  0.7872  2.5259 -1.0822
  119SOPE  C21212583   1.375   3.937   5.891  0.1885  0.2465 -0.2033
  119SOPE  H12R12584   1.353   3.866   5.974  1.0808 -1.8815 -1.6848
  119SOPE  H12S12585   1.455   3.880   5.837  0.9621 -0.1679  1.3122
  119SOPE  C21312586   1.262   3.953   5.793 -0.1207 -0.7535 -0.6000
  119SOPE  H13R12587   1.170   3.996   5.837 -0.4915  0.4409 -2.4246
  119SOPE  H13S12588   1.244   3.847   5.768 -0.7930 -0.4375 -1.4778
  119SOPE  C21412589   1.298   4.045   5.666 -0.1597  0.2811  0.4191
  119SOPE  H14R12590   1.314   4.151   5.695  0.4396 -0.2492  2.1787
  119SOPE  H14S12591   1.216   4.038   5.592 -2.6868  2.7343  2.7341
  119SOPE  C21512592   1.417   3.995   5.594 -0.3241 -0.0553  0.0375
  119SOPE  H15R12593   1.405   3.888   5.567 -1.5818  0.3304 -1.0625
  119SOPE  H15S12594   1.509   3.999   5.657  1.6944 -3.8559 -2.2317
  119SOPE  C21612595   1.447   4.070   5.467  0.4243 -0.4190  0.9815
  119SOPE  H16R12596   1.472   4.176   5.489  2.4233 -0.6843  0.2814
  119SOPE  H16S12597   1.354   4.081   5.408 -0.5109 -0.6763  2.3691
  119SOPE  C21712598   1.557   3.998   5.378  0.3941 -0.3830 -0.3092
  119SOPE  H17R12599   1.532   3.893   5.353 -1.3420  0.0232 -0.4049
  119SOPE  H17S12600   1.653   3.998   5.434  0.4272 -1.5452 -0.3582
  119SOPE  C21812601   1.581   4.077   5.246 -0.4065 -0.6698 -0.6581
  119SOPE  H18R12602   1.618   4.179   5.265  0.7572 -0.4948 -3.3037
  119SOPE  H18S12603   1.494   4.081   5.177  0.0589  1.6528 -1.1819
  119SOPE  H18T12604   1.666   4.030   5.191  1.9208  1.4843  0.9262
  119SOPE   C3312605   1.882   3.879   6.455  0.9671  0.5463 -0.4075
  119SOPE   H3X12606   1.865   3.980   6.411 -1.6215 -0.0511 -0.9317
  119SOPE   H3Y12607   1.811   3.811   6.404  0.9211  1.0660 -1.0527
  119SOPE   C3412608   2.024   3.843   6.396 -0.3758  0.3939  0.0587
  119SOPE   H4X12609   2.047   3.744   6.441 -0.1803  0.4435  0.0677
  119SOPE   H4Y12610   2.094   3.914   6.444 -1.5425 -1.2035  4.6143
  119SOPE   C3512611   2.031   3.856   6.242 -0.4251 -0.1823  0.6865
  119SOPE   H5X12612   2.003   3.958   6.210 -1.6541 -0.3685  1.1025
  119SOPE   H5Y12613   1.951   3.794   6.194  0.7213 -0.1689 -1.3226
  119SOPE   C3612614   2.162   3.811   6.186  0.2919 -0.1238 -0.0633
  119SOPE   H6X12615   2.167   3.702   6.206 -0.2060 -0.5789 -2.1760
  119SOPE   H6Y12616   2.246   3.859   6.240  1.8320 -2.1730 -0.5335
  119SOPE   C3712617   2.175   3.840   6.036  0.2561 -0.1424 -0.5707
  119SOPE   H7X12618   2.094   3.793   5.977 -0.3943  0.9233 -0.5515
  119SOPE   H7Y12619   2.266   3.779   6.015  0.8458 -0.4112  2.3089
  119SOPE   C3812620   2.175   3.996   6.002 -0.5439  0.0464  0.2951
  119SOPE   H8X12621   2.248   4.042   6.073 -0.7675  2.0906 -0.7220
  119SOPE   H8Y12622   2.076   4.042   6.022  0.0126  1.9370 -1.0275
  119SOPE   C3912623   2.230   4.027   5.864  0.1140 -0.0667  0.4549
  119SOPE   H9X12624   2.317   3.962   5.843 -0.6993 -1.8627  2.2633
  119SOPE   H9Y12625   2.254   4.135   5.854 -0.0026  0.0217  1.0741
  119SOPE  C31012626   2.132   4.000   5.744 -0.3110  0.2358  0.0521
  119SOPE  H10X12627   2.038   4.056   5.763  0.4638  1.2781  0.9135
  119SOPE  H10Y12628   2.115   3.890   5.744  1.2560 -0.0339 -1.1578
  119SOPE  C31112629   2.193   4.032   5.605 -0.4623  0.2243  0.0831
  119SOPE  H11X12630   2.294   3.987   5.593 -1.4061 -1.8180 -0.6010
  119SOPE  H11Y12631   2.207   4.141   5.593 -0.0273  0.3611  1.6365
  119SOPE  C31212632   2.106   3.980   5.495  0.0873  0.5818 -0.4145
  119SOPE  H12X12633   2.007   4.030   5.496 -1.2410 -1.8960 -0.4599
  119SOPE  H12Y12634   2.087   3.874   5.523  0.6302  0.9171  1.3675
  119SOPE  C31312635   2.176   3.993   5.359  0.1875  0.6287  0.6259
  119SOPE  H13X12636   2.265   3.926   5.363  0.4803  0.7652 -1.8691
  119SOPE  H13Y12637   2.200   4.100   5.343 -0.7482  0.6633 -0.7134
  119SOPE  C31412638   2.093   3.955   5.242  0.0524 -0.4751 -0.2098
  119SOPE  H14X12639   1.996   4.008   5.245  0.9388  1.2675 -0.9038
  119SOPE  H14Y12640   2.066   3.849   5.258  2.4129 -1.2020 -0.7122
  119SOPE  C31512641   2.153   3.981   5.108  0.3779 -0.9304 -0.4863
  119SOPE  H15X12642   2.261   3.963   5.090  0.2946 -0.3165 -1.7793
  119SOPE  H15Y12643   2.132   4.087   5.080 -0.6232 -1.5597 -2.2690
  119SOPE  C31612644   2.079   3.901   5.000  0.0493  0.0525  0.4632
  119SOPE  H16X12645   2.099   3.792   5.014 -0.2030 -0.0455  0.0821
  119SOPE  H16Y12646   2.129   3.915   4.901 -3.0386  4.1127 -0.7871
  119SOPE  C31712647   1.934   3.920   4.985 -0.2292  0.4876  0.3446
  119SOPE  H17X12648   1.874   3.908   5.078 -0.4553  0.3541  0.1831
  119SOPE  H17Y12649   1.905   3.837   4.917  0.4852  0.1103  0.4867
  119SOPE  C31812650   1.895   4.050   4.920 -0.7633  0.6007  0.4775
  119SOPE  H18X12651   1.786   4.056   4.901 -0.8986 -0.9389  0.6614
  119SOPE  H18Y12652   1.943   4.063   4.821 -1.8762  0.6406 -0.0687
  119SOPE  H18Z12653   1.925   4.133   4.988 -1.5686 -0.0917  1.7242
  120SOPE     N12654   2.757   5.974   7.503 -0.0933  0.1388 -0.0660
  120SOPE   HN112655   2.794   5.877   7.510  1.7592  0.6367 -1.8363
  120SOPE   HN212656   2.777   6.028   7.590  1.0080  0.4467 -0.4869
  120SOPE   HN312657   2.655   5.971   7.483  0.1182  0.6787 -1.3181
  120SOPE   C1212658   2.811   6.048   7.385  0.2901  0.0834 -0.5345
  120SOPE  H12A12659   2.781   6.152   7.409 -2.5566 -0.8878  0.4495
  120SOPE  H12B12660   2.764   6.016   7.290  3.9242 -1.0675 -2.1189
  120SOPE   C1112661   2.960   6.034   7.377  0.7646 -0.1449 -0.4365
  120SOPE  H11A12662   3.007   6.088   7.462  1.3930 -0.9546 -0.2492
  120SOPE  H11B12663   2.998   6.082   7.284 -0.7104  2.0562  0.0261
  120SOPE     P12664   2.961   5.794   7.278  0.2917  0.1646  0.2540
  120SOPE   O1312665   2.849   5.724   7.336 -0.1051  0.3942 -0.1997
  120SOPE   O1412666   3.079   5.713   7.234 -0.0102  0.4739 -0.0765
  120SOPE   O1212667   3.004   5.900   7.379 -0.5402 -0.1489  0.0104
  120SOPE   O1112668   2.911   5.881   7.153  0.2160 -0.2736 -1.0807
  120SOPE    C112669   2.899   5.807   7.030  0.2676 -1.2957  0.1902
  120SOPE    HA12670   2.829   5.722   7.044  0.0257 -1.4980 -1.9933
  120SOPE    HB12671   2.995   5.764   6.994  0.0839 -1.5184 -0.0290
  120SOPE    C212672   2.843   5.902   6.915  0.3711 -0.2942 -0.1988
  120SOPE    HS12673   2.858   5.854   6.816  0.4080  1.2694 -0.9782
  120SOPE   O2112674   2.910   6.029   6.909 -0.4475 -0.6564  0.3313
  120SOPE   C2112675   3.042   6.027   6.924  0.4031  0.0878  0.0453
  120SOPE   O2212676   3.117   5.932   6.898  0.1396 -0.4200  0.4608
  120SOPE   C2212677   3.091   6.167   6.942 -0.5456  0.0745  0.0869
  120SOPE   H2R12678   3.096   6.200   7.048  0.7132  1.3580 -0.3409
  120SOPE   H2S12679   3.012   6.234   6.901 -2.5706 -2.9458 -1.2496
  120SOPE    C312680   2.692   5.922   6.939  0.5949 -0.0198 -0.4768
  120SOPE    HX12681   2.682   5.964   7.041  1.1777 -0.2403 -0.3210
  120SOPE    HY12682   2.624   5.835   6.949 -2.1005  1.9257 -0.9500
  120SOPE   O3112683   2.631   6.013   6.846 -0.0821 -0.3035 -0.5877
  120SOPE   C3112684   2.583   5.955   6.741 -0.6054  0.3174 -0.2295
  120SOPE   O3212685   2.586   5.831   6.723  0.8512 -0.8897  0.0855
  120SOPE   C3212686   2.528   6.061   6.646 -0.5751 -0.1512  0.4920
  120SOPE   H2X12687   2.618   6.097   6.592  1.9286 -3.7422  1.8633
  120SOPE   H2Y12688   2.484   6.148   6.699  2.3172  1.5839  0.2299
  120SOPE   C2312689   3.227   6.199   6.861 -0.3680 -0.0996  0.4213
  120SOPE   H3R12690   3.308   6.131   6.894 -1.1808 -0.0703  2.6179
  120SOPE   H3S12691   3.267   6.299   6.888  2.9130 -1.2492  0.2606
  120SOPE   C2412692   3.207   6.193   6.706 -0.1246  0.3182  0.0208
  120SOPE   H4R12693   3.130   6.118   6.676  0.0172 -0.6839  1.9902
  120SOPE   H4S12694   3.187   6.296   6.669  0.4964  0.4162 -0.0587
  120SOPE   C2512695   3.334   6.163   6.628  0.0671 -0.4850  0.3343
  120SOPE   H5R12696   3.416   6.218   6.678  0.5081 -1.6256  0.8859
  120SOPE   H5S12697   3.348   6.054   6.646 -0.6645 -0.4783  0.9963
  120SOPE   C2612698   3.339   6.185   6.479  0.4420 -0.1042 -0.0914
  120SOPE   H6R12699   3.246   6.137   6.440 -0.0340 -0.7812  1.7589
  120SOPE   H6S12700   3.327   6.293   6.456 -0.1932 -0.1909 -0.2097
  120SOPE   C2712701   3.460   6.128   6.403 -0.1997 -0.2015 -0.5006
  120SOPE   H7R12702   3.462   6.179   6.304 -0.0599  0.5429 -0.1202
  120SOPE   H7S12703   3.550   6.145   6.466 -0.2625  0.5207 -0.5967
  120SOPE   C2812704   3.449   5.978   6.383 -0.1083  0.1013  0.4794
  120SOPE   H8R12705   3.471   5.929   6.480  0.0897  2.5587  1.7526
  120SOPE   H8S12706   3.345   5.955   6.353 -0.0448 -1.6041  1.4444
  120SOPE   C2912707   3.553   5.945   6.281  0.1088  0.3934  0.1625
  120SOPE   H9112708   3.651   5.907   6.311  0.5646 -0.1530 -1.8477
  120SOPE  C21012709   3.518   5.928   6.147 -0.0866  0.3470  0.6039
  120SOPE  H10112710   3.596   5.909   6.072 -2.0531 -1.2081 -1.1676
  120SOPE  C21112711   3.386   5.963   6.084 -0.2374 -0.1490 -0.4272
  120SOPE  H11R12712   3.363   6.057   6.138  0.9005  0.6849 -1.3504
  120SOPE  H11S12713   3.307   5.888   6.109  0.6117 -0.0695  2.8739
  120SOPE  C21212714   3.393   5.992   5.934 -0.0323 -0.5296  0.0880
  120SOPE  H12R12715   3.377   5.891   5.892  2.1233 -1.3477  1.1048
  120SOPE  H12S12716   3.488   6.036   5.899 -1.6427  2.4660 -0.8773
  120SOPE  C21312717   3.267   6.065   5.887  1.4036  0.7439  0.6155
  120SOPE  H13R12718   3.243   6.148   5.958  1.1765 -0.5763  2.1373
  120SOPE  H13S12719   3.180   6.000   5.909  1.4828  1.0929  2.1188
  120SOPE  C21412720   3.272   6.108   5.744 -0.2436  0.1804 -0.2077
  120SOPE  H14R12721   3.309   6.032   5.672  0.9105  0.3595  0.1646
  120SOPE  H14S12722   3.341   6.195   5.746  0.0811 -0.0789 -0.0750
  120SOPE  C21512723   3.125   6.139   5.700  0.3930 -0.0473 -0.2756
  120SOPE  H15R12724   3.118   6.250   5.707  4.7133  0.5673 -2.3549
  120SOPE  H15S12725   3.052   6.088   5.766  0.6608  1.3144  1.1336
  120SOPE  C21612726   3.082   6.096   5.557  0.4073  0.0027  0.2011
  120SOPE  H16R12727   3.074   5.985   5.547 -4.4836  0.2419 -0.5983
  120SOPE  H16S12728   3.164   6.136   5.494 -0.3139  1.6733  0.2874
  120SOPE  C21712729   2.955   6.159   5.500 -0.7162 -0.5815 -0.3042
  120SOPE  H17R12730   2.962   6.266   5.530 -0.7294 -0.8746  0.8085
  120SOPE  H17S12731   2.869   6.104   5.544 -1.4132  0.3636 -0.4515
  120SOPE  C21812732   2.953   6.151   5.349  0.2126  0.1439 -0.1479
  120SOPE  H18R12733   3.034   6.213   5.305 -0.1032  1.9306  1.6356
  120SOPE  H18S12734   2.858   6.194   5.310  1.8000  2.4008 -1.8182
  120SOPE  H18T12735   2.961   6.044   5.321 -1.9052  0.0631 -0.6582
  120SOPE   C3312736   2.418   6.002   6.547 -0.1791  0.3130  0.3032
  120SOPE   H3X12737   2.335   5.980   6.617 -0.0206  1.9946  1.0709
  120SOPE   H3Y12738   2.458   5.913   6.492 -0.0607 -0.7005  1.9779
  120SOPE   C3412739   2.379   6.106   6.455 -0.2514  0.2371 -0.0318
  120SOPE   H4X12740   2.461   6.150   6.395 -0.4586  0.5267 -0.1046
  120SOPE   H4Y12741   2.340   6.195   6.508  1.2382  0.0153  1.5232
  120SOPE   C3512742   2.269   6.057   6.363  0.2242 -0.5568 -0.2476
  120SOPE   H5X12743   2.180   6.011   6.412 -1.0089  0.0238 -1.8717
  120SOPE   H5Y12744   2.316   5.978   6.300 -2.2413 -2.0808 -0.3249
  120SOPE   C3612745   2.217   6.164   6.259 -0.1644 -0.5046  0.5965
  120SOPE   H6X12746   2.303   6.204   6.202 -1.7097  1.9755 -0.1667
  120SOPE   H6Y12747   2.185   6.257   6.311  2.7666  0.5789  0.6309
  120SOPE   C3712748   2.110   6.114   6.161 -0.2963  0.2927 -0.7058
  120SOPE   H7X12749   2.016   6.111   6.220  0.5099  1.9084  0.7505
  120SOPE   H7Y12750   2.144   6.014   6.127 -0.2559  0.5494 -1.4421
  120SOPE   C3812751   2.098   6.210   6.044 -0.2636 -0.0641  0.3661
  120SOPE   H8X12752   2.196   6.206   5.992 -0.3251  2.0017  0.0237
  120SOPE   H8Y12753   2.096   6.317   6.075 -0.8285  0.1886 -0.4972
  120SOPE   C3912754   1.978   6.173   5.959  0.1306 -0.8171  1.2183
  120SOPE   H9X12755   1.882   6.218   5.993 -0.4052 -1.0996  0.1160
  120SOPE   H9Y12756   1.960   6.064   5.956  0.4070 -0.8391 -0.4643
  120SOPE  C31012757   1.997   6.220   5.813 -0.3373 -0.3714 -0.4471
  120SOPE  H10X12758   1.928   6.180   5.736  1.6541 -2.5459 -1.2048
  120SOPE  H10Y12759   2.096   6.180   5.782 -1.3887 -1.2383 -2.9296
  120SOPE  C31112760   1.990   6.369   5.796  0.9116 -0.2817  0.5604
  120SOPE  H11X12761   2.065   6.423   5.858  0.6088  2.0920 -1.0330
  120SOPE  H11Y12762   1.894   6.415   5.829  0.2759  0.2035 -1.7598
  120SOPE  C31212763   2.023   6.416   5.647  0.3428  0.1007  0.3513
  120SOPE  H12X12764   2.110   6.358   5.611  0.5638  0.5095  0.2152
  120SOPE  H12Y12765   2.051   6.524   5.652 -0.3208  0.5540 -3.1550
  120SOPE  C31312766   1.903   6.400   5.549  0.5808  0.0460  0.1122
  120SOPE  H13X12767   1.822   6.468   5.583 -0.8090 -1.7374  0.5446
  120SOPE  H13Y12768   1.861   6.297   5.556 -2.3776  1.2301  1.5061
  120SOPE  C31412769   1.939   6.424   5.403 -0.4988 -0.0248 -0.7322
  120SOPE  H14X12770   2.027   6.359   5.383  0.3057  0.2627  1.6287
  120SOPE  H14Y12771   1.970   6.530   5.399  0.3717 -0.1633  1.3307
  120SOPE  C31512772   1.828   6.370   5.315  0.1690 -0.5738 -0.7411
  120SOPE  H15X12773   1.737   6.431   5.333  0.9221  1.0846 -2.2067
  120SOPE  H15Y12774   1.798   6.265   5.337 -0.6691  0.0348  1.2511
  120SOPE  C31612775   1.863   6.377   5.163 -0.6612  0.1896 -0.3993
  120SOPE  H16X12776   1.967   6.340   5.153 -1.2400 -1.2006 -1.5384
  120SOPE  H16Y12777   1.873   6.486   5.143  0.7572  0.8051  2.8942
  120SOPE  C31712778   1.756   6.312   5.067  1.0548  0.4885  0.2477
  120SOPE  H17X12779   1.661   6.350   5.109  0.8218 -0.4489  0.5798
  120SOPE  H17Y12780   1.757   6.201   5.065  2.2038  0.4685 -2.3981
  120SOPE  C31812781   1.758   6.356   4.921  0.4064 -0.1637 -0.0966
  120SOPE  H18X12782   1.657   6.356   4.876 -0.2635  2.6053  1.1992
  120SOPE  H18Y12783   1.827   6.293   4.861  0.9752  1.3133 -1.0622
  120SOPE  H18Z12784   1.793   6.462   4.915 -4.0917  1.5783  0.6978
  121SOPE     N12785   2.454   4.767   7.351 -0.3740  0.2400 -0.2775
  121SOPE   HN112786   2.512   4.687   7.383 -0.1747  0.3311 -0.4103
  121SOPE   HN212787   2.483   4.796   7.255  0.5564 -0.2718 -0.1665
  121SOPE   HN312788   2.461   4.854   7.408 -1.7133  1.8941 -2.4579
  121SOPE   C1212789   2.313   4.724   7.342  0.3835  0.4633 -0.0731
  121SOPE  H12A12790   2.253   4.817   7.338 -1.0788 -0.4156  0.6503
  121SOPE  H12B12791   2.269   4.671   7.429 -0.2087  1.6803  0.3927
  121SOPE   C1112792   2.279   4.635   7.219 -0.8374  0.4001  0.3408
  121SOPE  H11A12793   2.329   4.675   7.129 -1.1969 -1.6194 -0.8256
  121SOPE  H11B12794   2.169   4.632   7.205 -1.1280 -1.5481  2.3772
  121SOPE     P12795   2.252   4.381   7.290  0.0874 -0.3363 -0.3355
  121SOPE   O1312796   2.173   4.422   7.410  0.1663 -0.3101  0.1543
  121SOPE   O1412797   2.348   4.268   7.309 -0.6025 -0.1812  0.2904
  121SOPE   O1212798   2.338   4.504   7.239  0.3451  0.2052 -0.0608
  121SOPE   O1112799   2.152   4.355   7.173 -0.4024 -0.1395 -0.3555
  121SOPE    C112800   2.192   4.326   7.043 -0.4578 -0.1885  0.0219
  121SOPE    HA12801   2.132   4.242   7.001 -0.9389 -0.3960  1.0910
  121SOPE    HB12802   2.296   4.295   7.020 -0.7185  0.1859 -1.8563
  121SOPE    C212803   2.155   4.441   6.946  0.4452 -0.5927 -0.1679
  121SOPE    HS12804   2.219   4.524   6.986 -1.1446 -0.6525  2.8173
  121SOPE   O2112805   2.017   4.468   6.960 -0.1631  0.3509 -0.4848
  121SOPE   C2112806   1.984   4.592   6.942  0.2320 -0.4340 -0.0617
  121SOPE   O2212807   2.059   4.687   6.924 -0.3286 -0.0289 -0.1369
  121SOPE   C2212808   1.827   4.598   6.955 -0.4416  0.8104  0.0761
  121SOPE   H2R12809   1.808   4.697   7.002  0.8875  2.9115 -3.4027
  121SOPE   H2S12810   1.784   4.511   7.009 -0.9330  1.2301  0.3661
  121SOPE    C312811   2.190   4.407   6.801  0.1903  0.5725  0.2804
  121SOPE    HX12812   2.116   4.330   6.767 -1.1063  1.8420  0.1039
  121SOPE    HY12813   2.290   4.359   6.810 -0.1322 -0.5420 -1.4762
  121SOPE   O3112814   2.202   4.512   6.708 -0.1486 -0.1934 -0.5605
  121SOPE   C3112815   2.305   4.592   6.729 -0.2577  0.2860  0.4871
  121SOPE   O3212816   2.407   4.562   6.791 -0.1929  0.2481  1.0431
  121SOPE   C3212817   2.283   4.725   6.660 -0.4012 -0.8518  0.5037
  121SOPE   H2X12818   2.216   4.774   6.734  0.2821  0.4670  0.2661
  121SOPE   H2Y12819   2.236   4.716   6.560  1.9635  2.4542 -1.1029
  121SOPE   C2312820   1.771   4.614   6.807  0.0208 -0.0942  0.3999
  121SOPE   H3R12821   1.837   4.678   6.744 -1.7051 -1.7691 -3.4146
  121SOPE   H3S12822   1.670   4.661   6.808  0.1438  0.1789  0.1638
  121SOPE   C2412823   1.752   4.489   6.723 -0.3512 -0.0155 -0.6033
  121SOPE   H4R12824   1.855   4.450   6.707 -0.2107  0.1975 -0.2304
  121SOPE   H4S12825   1.685   4.420   6.777 -0.9749 -0.6287 -2.0944
  121SOPE   C2512826   1.684   4.510   6.587  0.0695 -0.5727 -1.0736
  121SOPE   H5R12827   1.665   4.405   6.559  0.5127 -1.4131  1.4978
  121SOPE   H5S12828   1.583   4.557   6.594  0.9700  1.1601  2.3179
  121SOPE   C2612829   1.769   4.581   6.482 -0.0830 -0.1738  0.0814
  121SOPE   H6R12830   1.704   4.620   6.401  1.6849  0.6606 -0.9958
  121SOPE   H6S12831   1.823   4.668   6.525 -0.3333  0.9975 -1.8380
  121SOPE   C2712832   1.875   4.489   6.409  0.5774  0.3484  0.5737
  121SOPE   H7R12833   1.919   4.546   6.325  0.6088 -2.7530 -1.6754
  121SOPE   H7S12834   1.953   4.461   6.483  0.8157 -0.7805 -0.0753
  121SOPE   C2812835   1.815   4.359   6.355  0.4652  0.4633  0.2679
  121SOPE   H8R12836   1.773   4.297   6.437  3.1430 -1.7051  0.1215
  121SOPE   H8S12837   1.731   4.377   6.284 -0.7005 -0.4761  1.3600
  121SOPE   C2912838   1.926   4.279   6.292  0.6008 -0.1645 -0.2177
  121SOPE   H9112839   1.990   4.226   6.364 -1.2717 -1.2712  0.7121
  121SOPE  C21012840   1.939   4.260   6.159  0.5406  0.0695 -0.4009
  121SOPE  H10112841   2.013   4.189   6.119  0.2617 -0.2835 -0.2923
  121SOPE  C21112842   1.859   4.326   6.047 -0.3184  0.4694  0.1839
  121SOPE  H11R12843   1.851   4.435   6.067  0.0864  0.4310  0.5572
  121SOPE  H11S12844   1.755   4.287   6.059  0.8839 -2.2992  2.8759
  121SOPE  C21212845   1.923   4.286   5.913  0.0913  0.0183 -0.2081
  121SOPE  H12R12846   1.930   4.176   5.901  3.8597  0.2126 -0.7707
  121SOPE  H12S12847   2.027   4.323   5.903 -0.4831  1.8062  0.0052
  121SOPE  C21312848   1.838   4.347   5.794  0.6361  0.7059  0.2238
  121SOPE  H13R12849   1.862   4.455   5.807  0.7346  0.7850 -0.5961
  121SOPE  H13S12850   1.727   4.347   5.803  0.3239 -3.6880 -1.4068
  121SOPE  C21412851   1.889   4.306   5.654 -0.1079  0.4758  0.3587
  121SOPE  H14R12852   1.879   4.197   5.636  1.1482  0.4169 -0.0730
  121SOPE  H14S12853   1.998   4.327   5.660 -0.2245  1.2464 -0.1287
  121SOPE  C21512854   1.832   4.380   5.534 -0.7709 -0.6997 -0.2336
  121SOPE  H15R12855   1.860   4.486   5.555 -0.0428 -0.6113 -1.5670
  121SOPE  H15S12856   1.723   4.360   5.536 -1.0315  0.6365  0.7987
  121SOPE  C21612857   1.897   4.343   5.405 -0.6140 -0.1477 -0.1240
  121SOPE  H16R12858   1.892   4.233   5.388  1.9027 -0.1586 -1.3581
  121SOPE  H16S12859   2.005   4.371   5.413 -1.1603  2.8748 -1.7880
  121SOPE  C21712860   1.830   4.424   5.288  0.2925  0.3895  0.1287
  121SOPE  H17R12861   1.795   4.524   5.322  0.8978  0.4550  0.5838
  121SOPE  H17S12862   1.742   4.363   5.260 -0.8525  0.8338  2.4842
  121SOPE  C21812863   1.928   4.445   5.174  0.9643 -0.4014  0.9762
  121SOPE  H18R12864   1.863   4.474   5.089 -0.0760  0.5273  2.0375
  121SOPE  H18S12865   1.974   4.346   5.155 -1.7226 -1.7367  0.9340
  121SOPE  H18T12866   2.007   4.520   5.194  1.0650  0.1869 -1.3790
  121SOPE   C3312867   2.403   4.815   6.641 -0.8612  0.1454  0.2086
  121SOPE   H3X12868   2.477   4.780   6.565 -1.9442  0.2845 -0.9485
  121SOPE   H3Y12869   2.457   4.819   6.738 -0.1527 -0.5485 -0.1442
  121SOPE   C3412870   2.367   4.956   6.605 -1.3296  0.0922 -0.8738
  121SOPE   H4X12871   2.458   5.019   6.620 -2.7035  2.4051 -1.7719
  121SOPE   H4Y12872   2.299   4.992   6.684  0.7867  0.5003  0.8533
  121SOPE   C3512873   2.295   4.978   6.475 -0.2156  0.2482  0.2625
  121SOPE   H5X12874   2.191   4.940   6.477  0.3077 -1.5232 -2.0919
  121SOPE   H5Y12875   2.345   4.925   6.391  1.0171  1.8028 -0.0330
  121SOPE   C3612876   2.279   5.124   6.424 -0.2062  0.7001 -0.9252
  121SOPE   H6X12877   2.377   5.172   6.444  1.0635 -2.5339  1.5016
  121SOPE   H6Y12878   2.205   5.170   6.493 -2.9217 -1.9884 -1.8326
  121SOPE   C3712879   2.231   5.133   6.280  0.0678 -0.1826  0.1537
  121SOPE   H7X12880   2.215   5.240   6.257 -0.3271 -0.4308 -0.7651
  121SOPE   H7Y12881   2.129   5.094   6.262 -0.0615  0.7392 -1.1980
  121SOPE   C3812882   2.314   5.085   6.163  0.3211 -0.0748 -0.2429
  121SOPE   H8X12883   2.310   4.974   6.164  1.5624 -0.1404  1.2283
  121SOPE   H8Y12884   2.419   5.115   6.183  0.3371 -0.8228  0.8462
  121SOPE   C3912885   2.272   5.143   6.022  0.3729  0.3313 -0.2302
  121SOPE   H9X12886   2.276   5.253   6.040  0.5219  0.4054 -0.6795
  121SOPE   H9Y12887   2.171   5.112   5.990  0.9830 -1.7816 -0.3030
  121SOPE  C31012888   2.378   5.112   5.911 -0.1159 -0.6380 -0.3823
  121SOPE  H10X12889   2.398   5.003   5.916  1.2844 -0.3308  2.0852
  121SOPE  H10Y12890   2.468   5.172   5.938  0.5498 -0.7621 -2.1480
  121SOPE  C31112891   2.366   5.174   5.768  0.5143 -0.0718  0.0510
  121SOPE  H11X12892   2.350   5.283   5.778 -1.2317 -0.4490  2.4568
  121SOPE  H11Y12893   2.269   5.135   5.728  0.1942  0.1963  0.5486
  121SOPE  C31212894   2.478   5.138   5.670 -0.7979 -0.3154 -0.5099
  121SOPE  H12X12895   2.459   5.033   5.640  1.7568 -1.1017  0.3192
  121SOPE  H12Y12896   2.577   5.151   5.719 -0.0681  0.2387 -2.0805
  121SOPE  C31312897   2.478   5.215   5.537 -0.1769  0.5716 -0.2691
  121SOPE  H13X12898   2.510   5.318   5.565 -2.2139  0.6531  2.1389
  121SOPE  H13Y12899   2.375   5.219   5.496 -0.1816 -3.9109 -1.1324
  121SOPE  C31412900   2.580   5.156   5.437  0.3615  0.4952  0.2541
  121SOPE  H14X12901   2.542   5.053   5.424  0.3515  0.5597 -0.2536
  121SOPE  H14Y12902   2.685   5.144   5.469 -0.1594  0.6481  2.1292
  121SOPE  C31512903   2.590   5.229   5.303  0.1776  0.2228 -0.5409
  121SOPE  H15X12904   2.620   5.336   5.314 -1.2435  0.3572  3.3402
  121SOPE  H15Y12905   2.487   5.240   5.263  0.4354 -0.1628 -1.3416
  121SOPE  C31612906   2.671   5.150   5.193 -0.5278  0.4060 -0.2321
  121SOPE  H16X12907   2.617   5.053   5.193  1.9943 -1.1408  1.4424
  121SOPE  H16Y12908   2.771   5.130   5.237 -0.1665  0.3279 -1.0580
  121SOPE  C31712909   2.691   5.235   5.064 -0.2458  0.0349 -0.4044
  121SOPE  H17X12910   2.740   5.332   5.087  0.1945 -0.0178 -1.0833
  121SOPE  H17Y12911   2.595   5.270   5.021  1.1716  0.6420 -3.3124
  121SOPE  C31812912   2.784   5.157   4.969  0.2659  0.2561  0.0780
  121SOPE  H18X12913   2.870   5.118   5.028  0.2235  1.4328  0.9525
  121SOPE  H18Y12914   2.822   5.217   4.884 -2.1466 -0.3320 -1.5187
  121SOPE  H18Z12915   2.735   5.069   4.921  0.1601  1.6085 -2.4786
  122SOPE     N12916   0.557   4.335   7.204 -0.5117 -0.1078 -0.3409
  122SOPE   HN112917   0.527   4.424   7.160 -0.1027  0.0680 -0.2713
  122SOPE   HN212918   0.613   4.276   7.140 -2.2570 -1.9926 -0.2171
  122SOPE   HN312919   0.467   4.291   7.232 -0.9150  2.8468  4.1761
  122SOPE   C1212920   0.648   4.352   7.324 -0.0683 -0.4016  0.0058
  122SOPE  H12A12921   0.679   4.250   7.356  3.5901  0.9962  1.3516
  122SOPE  H12B12922   0.585   4.379   7.411  0.0886 -0.1253  0.0344
  122SOPE   C1112923   0.767   4.444   7.290  1.0168  0.3875  0.4417
  122SOPE  H11A12924   0.815   4.402   7.199 -0.9562 -0.6538 -0.1659
  122SOPE  H11B12925   0.844   4.424   7.368  2.4491 -2.5839 -1.5248
  122SOPE     P12926   0.844   4.690   7.246  0.0188  0.3069 -0.3356
  122SOPE   O1312927   0.958   4.689   7.344 -0.4739  0.2689  0.6227
  122SOPE   O1412928   0.780   4.820   7.233  0.1884 -0.3494 -0.0489
  122SOPE   O1212929   0.735   4.584   7.285 -0.2408  0.5424 -0.3932
  122SOPE   O1112930   0.895   4.652   7.105  0.7244  0.2199  0.1928
  122SOPE    C112931   0.967   4.540   7.065 -0.8357  0.0961 -0.7975
  122SOPE    HA12932   0.900   4.473   7.009  0.8771 -1.6970 -0.7923
  122SOPE    HB12933   1.021   4.481   7.142 -0.1905 -0.7970 -1.9082
  122SOPE    C212934   1.081   4.568   6.961 -0.9222 -0.4265  0.0432
  122SOPE    HS12935   1.143   4.648   7.006  0.4139 -0.7078 -1.2199
  122SOPE   O2112936   1.030   4.621   6.842 -0.1144 -0.6792  0.3662
  122SOPE   C2112937   1.013   4.749   6.831 -0.1459 -0.3835  0.2452
  122SOPE   O2212938   1.048   4.837   6.908  0.0038  0.2463 -0.0258
  122SOPE   C2212939   0.944   4.770   6.697 -0.4629 -0.0428 -0.6545
  122SOPE   H2R12940   0.840   4.806   6.713 -0.0345  0.8475  0.2497
  122SOPE   H2S12941   0.949   4.679   6.634 -0.3773  1.1874 -2.5120
  122SOPE    C312942   1.167   4.440   6.926  0.0874 -0.3790 -0.9822
  122SOPE    HX12943   1.200   4.398   7.023 -2.8684 -1.0237 -0.1607
  122SOPE    HY12944   1.257   4.466   6.866 -0.4778  1.8014 -0.9845
  122SOPE   O3112945   1.091   4.340   6.861 -0.2215 -0.3194  0.1242
  122SOPE   C3112946   1.089   4.346   6.728 -0.1157  1.0903 -0.2318
  122SOPE   O3212947   1.164   4.411   6.661  0.1612 -0.0860  0.1922
  122SOPE   C3212948   0.986   4.254   6.671  0.1327 -0.2647  0.3439
  122SOPE   H2X12949   0.895   4.313   6.649  0.4946 -0.1338 -0.8911
  122SOPE   H2Y12950   0.962   4.176   6.746  1.1265 -2.8506 -1.8335
  122SOPE   C2312951   1.014   4.876   6.608  0.0158  0.1421  0.0793
  122SOPE   H3R12952   1.123   4.859   6.599  0.0378 -0.1238  0.7682
  122SOPE   H3S12953   1.000   4.977   6.653 -2.3996 -0.8650  1.8131
  122SOPE   C2412954   0.951   4.884   6.473 -0.0863 -0.5271 -0.3210
  122SOPE   H4R12955   0.947   4.784   6.424 -0.7234 -0.5095 -0.3152
  122SOPE   H4S12956   0.844   4.906   6.494 -0.2363 -1.7354  0.3119
  122SOPE   C2512957   1.028   4.985   6.386  0.8079 -0.1318 -0.0397
  122SOPE   H5R12958   1.003   5.081   6.435 -1.0466  0.7004 -2.4036
  122SOPE   H5S12959   1.139   4.981   6.383  0.8776  1.5126 -1.5695
  122SOPE   C2612960   0.977   4.992   6.241 -0.0344 -0.7510 -0.2863
  122SOPE   H6R12961   0.866   4.989   6.245 -0.0183 -0.7045  0.3148
  122SOPE   H6S12962   1.006   5.091   6.199  1.7370 -1.5638 -1.0770
  122SOPE   C2712963   1.038   4.876   6.157 -0.0698  0.1965 -1.0622
  122SOPE   H7R12964   1.148   4.893   6.165 -0.2462  0.4811  2.0085
  122SOPE   H7S12965   1.035   4.775   6.204 -1.0191  0.0210 -1.4774
  122SOPE   C2812966   1.007   4.868   6.006  0.7396 -0.0905 -0.0572
  122SOPE   H8R12967   1.014   4.969   5.961 -0.6008  0.0681  0.0481
  122SOPE   H8S12968   1.091   4.813   5.958  0.6595 -0.4225  0.1751
  122SOPE   C2912969   0.859   4.824   5.996  0.0694  0.3585  0.7359
  122SOPE   H9112970   0.805   4.788   6.084 -0.6020 -1.9259 -0.5105
  122SOPE  C21012971   0.806   4.808   5.865 -0.3628 -0.1923 -0.4152
  122SOPE  H10112972   0.700   4.782   5.849 -0.2496 -1.4942  0.7750
  122SOPE  C21112973   0.884   4.830   5.739  0.1839 -0.2285 -0.0215
  122SOPE  H11R12974   0.972   4.896   5.755 -0.1825 -0.2737  2.6397
  122SOPE  H11S12975   0.818   4.878   5.664 -0.8931  1.7870  2.0825
  122SOPE  C21212976   0.946   4.702   5.688 -0.1587  0.0461 -0.5015
  122SOPE  H12R12977   0.877   4.615   5.685  0.2607 -0.2666 -1.1170
  122SOPE  H12S12978   1.028   4.674   5.756  0.0842 -2.1995 -1.6513
  122SOPE  C21312979   1.005   4.726   5.553 -0.4426 -0.1089  0.1285
  122SOPE  H13R12980   1.103   4.777   5.568  0.6274 -2.0726  0.2655
  122SOPE  H13S12981   0.935   4.779   5.486  0.3044 -0.1903 -0.7339
  122SOPE  C21412982   1.029   4.590   5.489 -0.0908 -0.4358 -0.5379
  122SOPE  H14R12983   0.929   4.543   5.473 -1.2732  2.1442 -1.2505
  122SOPE  H14S12984   1.094   4.526   5.552  0.0777 -0.3476 -0.6216
  122SOPE  C21512985   1.104   4.603   5.358  0.0893 -0.2112  0.5173
  122SOPE  H15R12986   1.202   4.651   5.380  0.1701 -0.1041 -0.0523
  122SOPE  H15S12987   1.055   4.683   5.297 -1.3628  0.4347  2.4107
  122SOPE  C21612988   1.111   4.471   5.281  0.3164 -0.2456 -0.0935
  122SOPE  H16R12989   1.016   4.445   5.229  1.5254 -0.5700 -2.2397
  122SOPE  H16S12990   1.131   4.396   5.360 -3.3949 -0.5540  0.7694
  122SOPE  C21712991   1.233   4.465   5.190  0.5247 -0.0154  0.5073
  122SOPE  H17R12992   1.312   4.512   5.253  0.9281 -1.7039  1.3307
  122SOPE  H17S12993   1.209   4.509   5.092 -3.2762 -0.3319  1.1706
  122SOPE  C21812994   1.279   4.322   5.167 -0.5987  0.3335 -0.9207
  122SOPE  H18R12995   1.335   4.290   5.258  0.9534  0.0733 -1.9210
  122SOPE  H18S12996   1.343   4.303   5.077  0.3591 -1.8173  0.1358
  122SOPE  H18T12997   1.193   4.252   5.158  1.5835 -2.5071 -1.1033
  122SOPE   C3312998   1.037   4.180   6.540  0.3737  0.1155  0.5066
  122SOPE   H3X12999   1.128   4.125   6.575  1.4596  1.9031  0.6218
  122SOPE   H3Y13000   1.073   4.264   6.477 -0.6152  1.0576  1.1706
  122SOPE   C3413001   0.931   4.099   6.473  0.4379  0.3842  0.7573
  122SOPE   H4X13002   0.833   4.150   6.458  0.4549  0.0167 -0.7394
  122SOPE   H4Y13003   0.907   4.012   6.537 -1.4101  0.4181  0.1690
  122SOPE   C3513004   0.978   4.039   6.339  0.8249 -0.0893  0.2197
  122SOPE   H5X13005   1.051   3.958   6.362  1.0878  0.5046  1.5774
  122SOPE   H5Y13006   1.039   4.113   6.283  0.4694 -0.9898 -1.4087
  122SOPE   C3613007   0.869   3.979   6.252 -0.3117 -0.6779 -0.3325
  122SOPE   H6X13008   0.789   4.050   6.221 -2.7697 -2.5842  1.2129
  122SOPE   H6Y13009   0.823   3.894   6.307  0.7079 -1.0357 -0.0052
  122SOPE   C3713010   0.931   3.924   6.127  0.2307  0.1292  0.4396
  122SOPE   H7X13011   1.003   3.841   6.139  1.2813  0.9855  0.2373
  122SOPE   H7Y13012   0.991   4.008   6.085  1.2476 -1.5781 -1.7397
  122SOPE   C3813013   0.828   3.862   6.028 -0.4389 -0.6787  0.2034
  122SOPE   H8X13014   0.738   3.917   5.993  0.0716  1.0118  1.3966
  122SOPE   H8Y13015   0.787   3.766   6.064 -0.0780 -1.1191 -0.5375
  122SOPE   C3913016   0.905   3.846   5.894  0.3769 -0.1354  0.2324
  122SOPE   H9X13017   0.958   3.939   5.863  1.1994 -1.4333 -2.6113
  122SOPE   H9Y13018   0.817   3.839   5.826  0.0376 -2.3179  0.8192
  122SOPE  C31013019   0.995   3.729   5.887 -0.0864  0.1694 -0.6384
  122SOPE  H10X13020   1.083   3.733   5.956 -0.3392 -0.1355 -0.2925
  122SOPE  H10Y13021   1.043   3.729   5.787 -0.7344  1.4655 -0.9684
  122SOPE  C31113022   0.924   3.596   5.921  0.0552 -0.3702 -0.5973
  122SOPE  H11X13023   0.819   3.587   5.887 -0.3815  1.6045  0.1167
  122SOPE  H11Y13024   0.921   3.574   6.029  1.4832 -0.0226 -0.4635
  122SOPE  C31213025   1.000   3.477   5.872  0.5039  0.9907  0.0769
  122SOPE  H12X13026   1.097   3.481   5.925  0.8525  0.3543 -0.4827
  122SOPE  H12Y13027   1.030   3.493   5.766  0.5051 -3.4155 -0.7925
  122SOPE  C31313028   0.924   3.339   5.882  0.0845  0.8184 -0.3375
  122SOPE  H13X13029   0.819   3.344   5.847 -0.7356  0.2133  1.8569
  122SOPE  H13Y13030   0.913   3.320   5.991 -2.1807  0.1025 -0.6451
  122SOPE  C31413031   0.990   3.213   5.817  0.2998  0.8574 -0.1704
  122SOPE  H14X13032   0.938   3.117   5.839 -1.6361  1.6926 -0.9342
  122SOPE  H14Y13033   1.100   3.209   5.834  0.1557 -0.3491  0.5895
  122SOPE  C31513034   0.982   3.225   5.664  0.0858  0.1029  0.0698
  122SOPE  H15X13035   1.020   3.324   5.632 -1.8369  1.3338  1.4240
  122SOPE  H15Y13036   0.875   3.236   5.638  0.6451  4.7422 -1.1816
  122SOPE  C31613037   1.058   3.108   5.585 -0.5676 -0.1664 -0.1830
  122SOPE  H16X13038   1.019   3.011   5.622  0.6634  0.0455  1.8115
  122SOPE  H16Y13039   1.167   3.103   5.604 -0.3306  3.1609  0.0709
  122SOPE  C31713040   1.029   3.129   5.439  0.6931 -0.2920  0.9570
  122SOPE  H17X13041   1.071   3.227   5.407  2.3144 -1.4553 -0.7104
  122SOPE  H17Y13042   0.919   3.132   5.426  0.7673  2.1028  0.4113
  122SOPE  C31813043   1.086   3.015   5.353 -0.3099  0.1302  0.3147
  122SOPE  H18X13044   1.185   2.979   5.390  0.3853  2.1508  0.5666
  122SOPE  H18Y13045   1.094   3.054   5.249 -1.1051  2.1582  0.9608
  122SOPE  H18Z13046   1.018   2.927   5.353  0.8882 -0.8655 -1.0506
  123SOPE     N13047   4.055   2.582   3.061 -0.1080  0.5074  0.0656
  123SOPE   HN113048   4.066   2.626   3.155 -0.3945  1.4196 -0.3236
  123SOPE   HN213049   4.138   2.609   3.004  1.5918 -0.8427  1.7387
  123SOPE   HN313050   3.970   2.612   3.011  0.0805 -0.2228 -0.7117
  123SOPE   C1213051   4.043   2.437   3.070  0.2829  0.3417 -0.2065
  123SOPE  H12A13052   4.143   2.404   3.103 -0.1878 -0.2535  0.6447
  123SOPE  H12B13053   4.022   2.396   2.968  3.8484  2.8632 -2.1959
  123SOPE   C1113054   3.934   2.394   3.170 -0.2460 -0.0436  0.7137
  123SOPE  H11A13055   3.955   2.428   3.274  0.8094  1.0022  0.1856
  123SOPE  H11B13056   3.934   2.283   3.173  1.9186 -0.0980  0.2981
  123SOPE     P13057   3.671   2.363   3.123  0.2008 -0.5603  0.1321
  123SOPE   O1313058   3.689   2.223   3.167 -0.1464 -0.2353  0.1712
  123SOPE   O1413059   3.596   2.369   2.997  0.1655 -0.3777 -0.2025
  123SOPE   O1213060   3.811   2.437   3.119  0.0825  0.4452  0.1493
  123SOPE   O1113061   3.589   2.449   3.228 -0.6773 -0.2475 -0.3010
  123SOPE    C113062   3.577   2.596   3.210 -0.1171  0.2374 -0.1572
  123SOPE    HA13063   3.607   2.630   3.108  0.4946  2.7570  0.7868
  123SOPE    HB13064   3.649   2.643   3.280 -1.0447  0.6731  0.5330
  123SOPE    C213065   3.431   2.631   3.247  0.1385 -0.3856 -0.5506
  123SOPE    HS13066   3.409   2.734   3.211  1.2421 -0.3756 -1.2415
  123SOPE   O2113067   3.406   2.615   3.386 -0.2225  0.3731  0.2201
  123SOPE   C2113068   3.484   2.690   3.463  0.1353  0.4969 -0.5305
  123SOPE   O2213069   3.556   2.782   3.434 -0.8497  0.6112 -0.3579
  123SOPE   C2213070   3.465   2.650   3.615  0.0695 -0.2324 -0.1676
  123SOPE   H2R13071   3.521   2.554   3.623  2.4421  1.2515  3.0281
  123SOPE   H2S13072   3.357   2.633   3.633 -0.2696 -0.8776 -2.3881
  123SOPE    C313073   3.330   2.535   3.172 -0.0512 -0.2420  0.4588
  123SOPE    HX13074   3.363   2.429   3.177  1.6378  0.2829  1.1729
  123SOPE    HY13075   3.338   2.569   3.066 -1.1182  0.6599  0.6586
  123SOPE   O3113076   3.193   2.546   3.219  0.1185  0.2745  0.2148
  123SOPE   C3113077   3.149   2.460   3.303 -0.1956  0.8365 -0.5283
  123SOPE   O3213078   3.211   2.358   3.341  0.3962  0.5862 -0.5998
  123SOPE   C3213079   3.009   2.501   3.355 -0.0759 -0.1332 -0.3353
  123SOPE   H2X13080   2.935   2.419   3.344  0.7173 -1.1835  1.6963
  123SOPE   H2Y13081   2.972   2.585   3.293 -1.1532  0.6652  1.3162
  123SOPE   C2313082   3.528   2.756   3.713 -0.0591 -0.1481 -0.2018
  123SOPE   H3R13083   3.483   2.855   3.689 -0.5825 -0.5379 -0.9001
  123SOPE   H3S13084   3.637   2.763   3.697  0.2489 -2.2026  0.6778
  123SOPE   C2413085   3.512   2.718   3.863 -0.2628  0.3216  0.2323
  123SOPE   H4R13086   3.402   2.727   3.877 -0.0198  3.1265  0.9493
  123SOPE   H4S13087   3.534   2.610   3.872  2.3723  0.7964  0.2914
  123SOPE   C2513088   3.573   2.807   3.969 -0.7567 -0.1453  0.3131
  123SOPE   H5R13089   3.681   2.786   3.985 -0.7034  1.1435  1.9207
  123SOPE   H5S13090   3.564   2.913   3.939  3.8491  0.6661  1.0645
  123SOPE   C2613091   3.507   2.799   4.111  0.0219 -0.1441  0.1029
  123SOPE   H6R13092   3.404   2.838   4.103  0.6660  1.6275  0.1201
  123SOPE   H6S13093   3.503   2.693   4.144 -0.0002  0.5092  2.3625
  123SOPE   C2713094   3.580   2.878   4.221 -0.4511 -0.2485  0.4863
  123SOPE   H7R13095   3.681   2.841   4.247  0.2791  2.0295  1.0592
  123SOPE   H7S13096   3.595   2.976   4.171  2.3086 -1.1213 -0.5317
  123SOPE   C2813097   3.501   2.903   4.348  0.0318  0.4171 -0.5914
  123SOPE   H8R13098   3.539   2.994   4.401 -1.2096  0.6134 -0.0081
  123SOPE   H8S13099   3.396   2.929   4.323  0.0755  1.9200  0.6082
  123SOPE   C2913100   3.505   2.780   4.430 -0.7017  0.6831  0.0343
  123SOPE   H9113101   3.509   2.686   4.373 -2.0860  0.4198  0.3362
  123SOPE  C21013102   3.533   2.768   4.564 -0.4786 -0.1154  0.2505
  123SOPE  H10113103   3.537   2.662   4.591 -2.0346 -0.0311  0.9714
  123SOPE  C21113104   3.550   2.874   4.677 -0.6042  0.1844  0.6059
  123SOPE  H11R13105   3.497   2.968   4.650 -2.7031 -1.0051  0.3253
  123SOPE  H11S13106   3.659   2.890   4.687 -0.1998 -1.0191 -1.3913
  123SOPE  C21213107   3.484   2.840   4.806 -1.0211 -0.5990  0.6095
  123SOPE  H12R13108   3.496   2.914   4.888  1.7804 -1.3829  0.9956
  123SOPE  H12S13109   3.510   2.736   4.834  2.2482  0.2117  0.9559
  123SOPE  C21313110   3.334   2.838   4.786  0.4386  0.2776  0.6187
  123SOPE  H13R13111   3.292   2.776   4.704 -0.8134 -0.8476  2.0505
  123SOPE  H13S13112   3.297   2.941   4.767 -0.9445 -0.0240  1.4927
  123SOPE  C21413113   3.259   2.804   4.916 -0.0082 -0.3028  0.5058
  123SOPE  H14R13114   3.281   2.876   4.997  0.7993 -0.0064  0.0367
  123SOPE  H14S13115   3.303   2.712   4.961  2.1088  0.2721 -0.2728
  123SOPE  C21513116   3.107   2.792   4.891 -0.4162  0.1133 -0.7572
  123SOPE  H15R13117   3.092   2.698   4.833  1.7318 -0.4913 -0.4344
  123SOPE  H15S13118   3.069   2.880   4.836 -0.6027 -0.9750 -2.4258
  123SOPE  C21613119   3.021   2.777   5.015  0.2752 -0.5923  0.1286
  123SOPE  H16R13120   3.074   2.697   5.071 -0.6084 -1.0980  0.2630
  123SOPE  H16S13121   2.920   2.737   4.990  0.4302 -0.1483 -1.3334
  123SOPE  C21713122   3.002   2.900   5.104  0.4311  0.0074 -0.2991
  123SOPE  H17R13123   2.936   2.975   5.055  0.2294  0.4968  0.6709
  123SOPE  H17S13124   3.105   2.943   5.108  1.0077 -1.3814  0.3686
  123SOPE  C21813125   2.944   2.879   5.244  0.1977  0.0146 -0.4011
  123SOPE  H18R13126   2.846   2.827   5.235 -0.7555  1.8595 -1.0412
  123SOPE  H18S13127   2.941   2.977   5.297  1.4903 -0.7636  1.2293
  123SOPE  H18T13128   3.008   2.820   5.314 -1.5016 -0.9518  0.4056
  123SOPE   C3313129   3.009   2.550   3.503 -0.6078  0.3757  0.3547
  123SOPE   H3X13130   3.089   2.627   3.513 -0.8012  0.8160 -1.2589
  123SOPE   H3Y13131   3.027   2.460   3.566  0.8913  0.0368 -0.5162
  123SOPE   C3413132   2.873   2.605   3.542  0.5447  0.1638  0.3737
  123SOPE   H4X13133   2.804   2.521   3.520 -0.2804  0.8551  0.2871
  123SOPE   H4Y13134   2.847   2.685   3.470 -3.2299 -0.0190  1.3432
  123SOPE   C3513135   2.872   2.664   3.681 -0.2340  0.0128  0.3000
  123SOPE   H5X13136   2.871   2.576   3.749 -0.8419  1.5558  2.3612
  123SOPE   H5Y13137   2.777   2.720   3.694 -0.2362  0.2631 -0.7026
  123SOPE   C3613138   2.989   2.767   3.713  0.1813  0.1062  0.2737
  123SOPE   H6X13139   3.004   2.827   3.620 -0.4693 -0.4448 -0.1947
  123SOPE   H6Y13140   3.084   2.710   3.714  0.5492  0.6677 -0.9035
  123SOPE   C3713141   2.968   2.864   3.836  0.2045  0.0823 -0.1884
  123SOPE   H7X13142   2.859   2.884   3.847  0.5702  1.9641  0.4445
  123SOPE   H7Y13143   3.021   2.961   3.825 -0.7403  0.6585  0.2654
  123SOPE   C3813144   3.013   2.789   3.962  0.0511  0.0655 -0.2528
  123SOPE   H8X13145   3.118   2.762   3.938 -0.1808  0.7823 -2.3066
  123SOPE   H8Y13146   2.960   2.693   3.981  1.7944 -1.4871 -2.6633
  123SOPE   C3913147   3.013   2.878   4.089  0.1605  0.4945  0.7527
  123SOPE   H9X13148   2.914   2.923   4.114 -0.3658  0.6742 -1.4358
  123SOPE   H9Y13149   3.077   2.967   4.069 -0.0424  1.0195  2.3403
  123SOPE  C31013150   3.064   2.789   4.201 -0.1617 -0.8237 -0.4142
  123SOPE  H10X13151   3.167   2.762   4.170  0.5435  0.2290  0.9266
  123SOPE  H10Y13152   3.005   2.696   4.218 -0.2120 -0.6112  0.6272
  123SOPE  C31113153   3.062   2.869   4.329 -0.1836  0.3243  0.1320
  123SOPE  H11X13154   3.122   2.962   4.325 -0.6885  0.6474  0.0938
  123SOPE  H11Y13155   3.119   2.814   4.406 -2.0800 -1.6891  0.2062
  123SOPE  C31213156   2.925   2.896   4.389  0.4939  0.2217 -0.1381
  123SOPE  H12X13157   2.861   2.805   4.393  0.9469 -0.1532 -1.2580
  123SOPE  H12Y13158   2.871   2.977   4.336  0.5270  1.0908  1.1171
  123SOPE  C31313159   2.936   2.938   4.542  1.1418  0.2121  0.0171
  123SOPE  H13X13160   2.974   3.043   4.539  0.0149  0.6858  1.2534
  123SOPE  H13Y13161   3.005   2.877   4.603 -0.9261 -0.2122  2.0893
  123SOPE  C31413162   2.797   2.944   4.609 -0.1573 -0.0776 -0.2018
  123SOPE  H14X13163   2.746   2.846   4.603 -0.2230 -0.2178  1.8164
  123SOPE  H14Y13164   2.733   3.023   4.563 -0.8833 -0.7911 -0.4367
  123SOPE  C31513165   2.805   2.967   4.761  0.9396 -0.0547 -0.2126
  123SOPE  H15X13166   2.866   3.057   4.784  0.3553 -0.3633  3.0056
  123SOPE  H15Y13167   2.835   2.873   4.811  2.6161  1.3418  1.5895
  123SOPE  C31613168   2.656   2.982   4.813 -0.0057  0.1435 -0.1086
  123SOPE  H16X13169   2.601   2.887   4.799 -0.2392 -0.1000  2.0820
  123SOPE  H16Y13170   2.614   3.066   4.753  0.9327  2.4057  2.1885
  123SOPE  C31713171   2.647   3.029   4.970  0.5027  0.3538  1.3248
  123SOPE  H17X13172   2.713   3.118   4.978 -0.6112  1.1844  1.5787
  123SOPE  H17Y13173   2.696   2.948   5.027  3.1645  0.7056 -0.2752
  123SOPE  C31813174   2.508   3.050   5.015 -0.1126 -0.5048 -0.0560
  123SOPE  H18X13175   2.466   3.149   4.987  1.0691  0.2651  0.7898
  123SOPE  H18Y13176   2.504   3.059   5.126 -1.5077  0.2616 -0.1433
  123SOPE  H18Z13177   2.441   2.966   4.989 -1.1685  0.8592 -1.9565
  124SOPE     N13178   3.182   5.507   2.451  0.1383  0.5469  0.3477
  124SOPE   HN113179   3.240   5.590   2.475  0.3475  0.4467  0.1900
  124SOPE   HN213180   3.231   5.418   2.473  1.0725  0.8344 -0.4990
  124SOPE   HN313181   3.161   5.516   2.349 -0.5762 -0.3832  0.4036
  124SOPE   C1213182   3.051   5.515   2.519 -0.0911  0.2693 -0.3680
  124SOPE  H12A13183   3.068   5.501   2.628  0.5096  2.2918 -0.1635
  124SOPE  H12B13184   2.989   5.428   2.490 -1.6192  0.8785  0.9349
  124SOPE   C1113185   2.974   5.651   2.493  0.4739 -1.1133  0.3945
  124SOPE  H11A13186   3.037   5.738   2.523 -0.2731  0.3805 -2.0881
  124SOPE  H11B13187   2.877   5.655   2.548  0.0021 -0.8325 -0.4491
  124SOPE     P13188   2.839   5.592   2.282 -0.1226  0.2640  0.1533
  124SOPE   O1313189   2.844   5.449   2.314  0.5660 -0.2513  0.1404
  124SOPE   O1413190   2.834   5.626   2.140  0.9050 -0.1642  0.6681
  124SOPE   O1213191   2.961   5.668   2.354  0.2487  0.3835  0.6408
  124SOPE   O1113192   2.714   5.649   2.358  0.5482  0.0493 -0.2124
  124SOPE    C113193   2.646   5.577   2.462  0.2524  0.0971  0.3153
  124SOPE    HA13194   2.716   5.533   2.537  0.6784  0.4271  0.1192
  124SOPE    HB13195   2.587   5.505   2.402  0.3863  0.2397  0.0076
  124SOPE    C213196   2.553   5.677   2.538 -0.3171 -0.2456  0.4101
  124SOPE    HS13197   2.514   5.742   2.457 -1.0903 -2.7980 -1.4058
  124SOPE   O2113198   2.629   5.736   2.646 -0.7241 -0.0564 -0.0236
  124SOPE   C2113199   2.603   5.861   2.684 -0.1017 -0.7853  0.4522
  124SOPE   O2213200   2.537   5.943   2.623 -0.7275 -0.1295  0.1667
  124SOPE   C2213201   2.683   5.901   2.814  0.6365  0.5754 -0.0600
  124SOPE   H2R13202   2.715   6.007   2.810  2.0225  0.1757 -0.2247
  124SOPE   H2S13203   2.768   5.829   2.806 -1.5923 -2.0270 -2.0348
  124SOPE    C313204   2.434   5.595   2.598 -1.1368 -0.7277 -0.0519
  124SOPE    HX13205   2.472   5.501   2.642 -1.9519 -1.7681 -1.4868
  124SOPE    HY13206   2.365   5.557   2.520 -2.1692  0.5995  0.1740
  124SOPE   O3113207   2.355   5.672   2.686 -0.4318 -0.2773  0.1450
  124SOPE   C3113208   2.303   5.599   2.780  0.0472 -0.2028 -0.5721
  124SOPE   O3213209   2.293   5.481   2.785 -0.6399 -0.3324  0.0933
  124SOPE   C3213210   2.234   5.692   2.883 -0.5435 -0.1489 -0.3070
  124SOPE   H2X13211   2.149   5.740   2.831 -1.5945  2.1870  3.1642
  124SOPE   H2Y13212   2.298   5.775   2.920 -1.8364  0.0772  1.5173
  124SOPE   C2313213   2.604   5.862   2.942 -0.4464 -0.1834  0.3948
  124SOPE   H3R13214   2.592   5.752   2.934 -1.5913 -0.1276  1.1183
  124SOPE   H3S13215   2.506   5.915   2.943  0.3363  1.3012  0.2326
  124SOPE   C2413216   2.674   5.883   3.072 -0.2595  0.7347  0.9189
  124SOPE   H4R13217   2.759   5.811   3.076 -0.9034 -0.0455  0.9899
  124SOPE   H4S13218   2.721   5.983   3.072  0.8021  0.2747 -0.5638
  124SOPE   C2513219   2.587   5.866   3.195 -0.2138 -0.0798 -0.1426
  124SOPE   H5R13220   2.512   5.947   3.203  1.2996  1.2139  1.9544
  124SOPE   H5S13221   2.541   5.766   3.186 -0.1200 -0.0979 -0.4384
  124SOPE   C2613222   2.672   5.886   3.316  0.3712  0.3821 -0.0369
  124SOPE   H6R13223   2.716   5.789   3.346 -0.5984 -0.0757 -0.0625
  124SOPE   H6S13224   2.750   5.964   3.301  2.3878 -1.2452  1.3846
  124SOPE   C2713225   2.588   5.937   3.435  0.1968  0.3030 -0.2163
  124SOPE   H7R13226   2.626   6.038   3.460  1.1109  0.4189 -1.9233
  124SOPE   H7S13227   2.480   5.948   3.409 -1.0254 -0.6918  3.7235
  124SOPE   C2813228   2.591   5.840   3.554 -0.3514 -0.3674  0.0089
  124SOPE   H8R13229   2.693   5.841   3.596 -0.4609  2.5951  0.4215
  124SOPE   H8S13230   2.516   5.879   3.627 -0.2819 -3.2992  1.7988
  124SOPE   C2913231   2.536   5.706   3.509  0.0842 -0.4208 -0.3999
  124SOPE   H9113232   2.577   5.662   3.417 -0.8449  1.0992 -1.5861
  124SOPE  C21013233   2.431   5.637   3.571 -0.7711 -0.4316  0.1787
  124SOPE  H10113234   2.406   5.542   3.522 -1.0515 -0.1112 -0.2941
  124SOPE  C21113235   2.349   5.672   3.695  0.5568 -0.5197 -0.7750
  124SOPE  H11R13236   2.253   5.616   3.695 -0.5031  1.2533 -0.4218
  124SOPE  H11S13237   2.314   5.777   3.690 -3.0125 -1.3909  1.8845
  124SOPE  C21213238   2.413   5.655   3.832 -0.6579  0.1536 -0.5056
  124SOPE  H12R13239   2.338   5.706   3.896 -1.4647 -0.4298 -0.9667
  124SOPE  H12S13240   2.510   5.708   3.821  0.5845 -2.0903 -0.8536
  124SOPE  C21313241   2.449   5.506   3.851  0.4456 -0.6955 -0.0222
  124SOPE  H13R13242   2.533   5.468   3.788 -0.5352 -4.6898  0.7979
  124SOPE  H13S13243   2.359   5.447   3.824  0.8387 -0.5922 -1.6883
  124SOPE  C21413244   2.470   5.474   3.997  0.4391 -0.2092  0.4597
  124SOPE  H14R13245   2.461   5.365   4.015 -1.9081  0.2867  2.9133
  124SOPE  H14S13246   2.386   5.531   4.042 -1.2956 -1.9576 -0.4274
  124SOPE  C21513247   2.604   5.540   4.050  0.4296 -0.0093  0.1846
  124SOPE  H15R13248   2.601   5.644   4.012 -3.6700  0.0541  0.3154
  124SOPE  H15S13249   2.694   5.483   4.017 -0.2965 -0.0470 -1.8436
  124SOPE  C21613250   2.607   5.566   4.203 -0.4257 -0.0462 -0.0057
  124SOPE  H16R13251   2.701   5.622   4.223 -0.9523  0.7370  0.3208
  124SOPE  H16S13252   2.618   5.471   4.260 -0.4960 -0.6113 -0.9194
  124SOPE  C21713253   2.492   5.659   4.251  0.1643 -0.7042 -0.0989
  124SOPE  H17R13254   2.400   5.597   4.265 -1.2250  1.3184  0.1850
  124SOPE  H17S13255   2.474   5.726   4.164 -0.8947 -0.7848  0.0456
  124SOPE  C21813256   2.521   5.752   4.371  0.3175  0.5827 -0.5592
  124SOPE  H18R13257   2.608   5.818   4.351  0.1777  1.5542  1.6768
  124SOPE  H18S13258   2.547   5.688   4.458 -0.6404 -1.5796 -1.7754
  124SOPE  H18T13259   2.434   5.818   4.394 -0.5859  0.0442 -2.2756
  124SOPE   C3313260   2.188   5.602   2.999 -0.6824  0.2192  0.0092
  124SOPE   H3X13261   2.279   5.552   3.038 -1.4317 -0.2494  1.2212
  124SOPE   H3Y13262   2.118   5.527   2.955 -0.0603 -1.0008  1.0454
  124SOPE   C3413263   2.105   5.682   3.103  0.1615  0.2025  0.0065
  124SOPE   H4X13264   2.027   5.733   3.043 -0.9278  0.9108  1.9564
  124SOPE   H4Y13265   2.168   5.757   3.154 -0.9092  0.8535  0.4046
  124SOPE   C3513266   2.030   5.591   3.202 -0.6193 -0.2028  0.0863
  124SOPE   H5X13267   1.974   5.514   3.144 -0.5586  0.4691 -0.8755
  124SOPE   H5Y13268   1.959   5.661   3.251  0.0722 -0.0415  0.8824
  124SOPE   C3613269   2.108   5.508   3.304 -0.3602  0.4616 -0.3797
  124SOPE   H6X13270   2.202   5.544   3.352  0.0929  0.9713 -1.5987
  124SOPE   H6Y13271   2.139   5.418   3.247 -1.4522  0.6439 -1.3116
  124SOPE   C3713272   2.020   5.451   3.418 -0.4509  0.0280 -0.0118
  124SOPE   H7X13273   1.931   5.409   3.367 -0.2235  0.0103 -0.3977
  124SOPE   H7Y13274   1.976   5.537   3.473  1.8267 -0.6149  3.1146
  124SOPE   C3813275   2.089   5.358   3.514 -0.6283  0.7607  0.0846
  124SOPE   H8X13276   2.179   5.415   3.547 -0.8493  1.5894 -0.7159
  124SOPE   H8Y13277   2.127   5.269   3.460  0.3180  0.5783  1.0071
  124SOPE   C3913278   2.002   5.298   3.631 -0.6526  0.2107 -0.0139
  124SOPE   H9X13279   1.912   5.246   3.594 -1.0189  0.0345  1.0926
  124SOPE   H9Y13280   1.960   5.395   3.666 -0.8722  0.7314 -1.6379
  124SOPE  C31013281   2.067   5.217   3.740  0.1265 -0.0036 -0.1755
  124SOPE  H10X13282   2.124   5.280   3.812 -0.7632 -0.9818  1.4492
  124SOPE  H10Y13283   2.128   5.144   3.682  2.3547  1.0034  0.7483
  124SOPE  C31113284   1.962   5.147   3.816  0.8947 -0.3589  0.3726
  124SOPE  H11X13285   1.899   5.078   3.756 -1.5169  0.9323  1.2690
  124SOPE  H11Y13286   1.893   5.228   3.850  0.0904 -1.3532  1.1810
  124SOPE  C31213287   2.025   5.072   3.938 -0.1754 -0.0690  0.2396
  124SOPE  H12X13288   2.065   5.146   4.009 -2.1391 -0.4528  1.8528
  124SOPE  H12Y13289   2.107   5.011   3.896 -0.3210  0.6599 -1.1527
  124SOPE  C31313290   1.913   4.993   4.009  0.1372 -0.0015  0.3315
  124SOPE  H13X13291   1.961   4.898   4.040 -1.3511 -0.7304  0.4852
  124SOPE  H13Y13292   1.831   4.971   3.936  0.3985  2.8722 -0.9585
  124SOPE  C31413293   1.849   5.052   4.130 -0.8456 -0.5379 -0.0884
  124SOPE  H14X13294   1.748   5.009   4.147  0.3555 -2.6189  2.6173
  124SOPE  H14Y13295   1.836   5.158   4.100 -0.9723 -0.5929 -0.2296
  124SOPE  C31513296   1.933   5.041   4.257  0.4431 -0.1145  0.0683
  124SOPE  H15X13297   2.033   5.082   4.229 -1.0289  2.4462 -1.8882
  124SOPE  H15Y13298   1.947   4.934   4.279  0.3582  0.3410  2.5461
  124SOPE  C31613299   1.864   5.105   4.374 -0.3941  0.2210 -0.3134
  124SOPE  H16X13300   1.763   5.059   4.379 -0.2830  0.0927  1.3232
  124SOPE  H16Y13301   1.857   5.215   4.360  1.5363  0.6946  1.7940
  124SOPE  C31713302   1.935   5.070   4.507  0.5943 -0.0828 -0.6072
  124SOPE  H17X13303   2.045   5.069   4.497  0.7510 -1.6760  0.8251
  124SOPE  H17Y13304   1.904   4.964   4.525  0.8539 -0.1000 -0.2681
  124SOPE  C31813305   1.881   5.146   4.628 -0.0136 -0.1062 -0.1272
  124SOPE  H18X13306   1.942   5.118   4.716  0.2966 -1.4720 -0.7607
  124SOPE  H18Y13307   1.778   5.121   4.664  0.3130  0.2239  1.0936
  124SOPE  H18Z13308   1.886   5.257   4.619 -2.1330 -0.0935 -2.0736
  125SOPE     N13309   2.373   0.507   2.818  0.1582  0.1299 -0.0775
  125SOPE   HN113310   2.420   0.555   2.738 -0.6572 -1.8916 -1.8413
  125SOPE   HN213311   2.272   0.496   2.798 -0.0470  0.3659  0.7673
  125SOPE   HN313312   2.383   0.566   2.904 -0.1943 -0.5769  0.4569
  125SOPE   C1213313   2.426   0.366   2.842 -0.3566  0.1902 -0.1899
  125SOPE  H12A13314   2.399   0.294   2.761  1.2585 -1.4359  0.6333
  125SOPE  H12B13315   2.377   0.335   2.936 -1.3676  1.2496 -0.3492
  125SOPE   C1113316   2.576   0.381   2.846 -0.2341 -0.3778 -0.3100
  125SOPE  H11A13317   2.617   0.280   2.868  1.1849 -0.4652 -2.9585
  125SOPE  H11B13318   2.606   0.454   2.925  1.3345 -0.5949 -0.6761
  125SOPE     P13319   2.702   0.316   2.632 -0.3227  0.0033 -0.1473
  125SOPE   O1313320   2.731   0.376   2.503 -0.5535  0.6190 -0.0627
  125SOPE   O1413321   2.623   0.189   2.622  0.0597 -0.2923 -0.1252
  125SOPE   O1213322   2.618   0.421   2.716  0.2514  0.1478  0.5777
  125SOPE   O1113323   2.840   0.287   2.710 -0.2544 -0.6916 -0.5225
  125SOPE    C113324   2.887   0.152   2.724 -0.3861 -0.0672  0.2311
  125SOPE    HA13325   2.992   0.162   2.759 -0.3750 -2.2097  0.9507
  125SOPE    HB13326   2.887   0.089   2.632 -0.8024 -1.3883  1.1003
  125SOPE    C213327   2.810   0.066   2.827 -0.5985 -0.5064  0.2568
  125SOPE    HS13328   2.708   0.050   2.784 -0.0063  0.8290 -1.7873
  125SOPE   O2113329   2.802   0.135   2.950  0.4269  0.5488 -0.3685
  125SOPE   C2113330   2.741   0.074   3.055 -0.5185 -0.2528 -0.4821
  125SOPE   O2213331   2.694  -0.041   3.053 -0.0630 -0.1946 -0.4707
  125SOPE   C2213332   2.740   0.176   3.170  0.1181 -0.0066 -0.1629
  125SOPE   H2R13333   2.673   0.261   3.144  1.1715  0.3366 -1.9102
  125SOPE   H2S13334   2.843   0.210   3.193 -1.3440  3.4360  2.3535
  125SOPE    C313335   2.871  -0.084   2.835  0.3248  0.3528 -0.1960
  125SOPE    HX13336   2.892  -0.119   2.731  0.5700  2.5928 -0.9603
  125SOPE    HY13337   2.795  -0.154   2.875  0.2435 -0.3802 -1.5337
  125SOPE   O3113338   2.992  -0.093   2.910  0.1482  0.4962 -0.1582
  125SOPE   C3113339   3.021  -0.221   2.942 -0.2697 -0.9613  0.2890
  125SOPE   O3213340   2.963  -0.322   2.904 -0.1560  0.6172  0.5629
  125SOPE   C3213341   3.149  -0.210   3.027  0.2576  0.0682 -0.1031
  125SOPE   H2X13342   3.226  -0.166   2.960  1.1957 -2.3057 -0.6795
  125SOPE   H2Y13343   3.163  -0.316   3.057 -2.7157 -0.1145  0.9479
  125SOPE   C2313344   2.692   0.118   3.306  0.3229  0.0768  0.1496
  125SOPE   H3R13345   2.780   0.061   3.343 -1.2506 -1.7824  1.2192
  125SOPE   H3S13346   2.610   0.045   3.290 -0.0533  0.1551  1.5429
  125SOPE   C2413347   2.636   0.232   3.396 -0.0595 -0.3420  0.2107
  125SOPE   H4R13348   2.711   0.309   3.421  1.5789 -1.5565 -0.7702
  125SOPE   H4S13349   2.557   0.285   3.338 -1.3269 -0.3029  1.8934
  125SOPE   C2513350   2.568   0.199   3.531  0.1211 -0.0548  0.3811
  125SOPE   H5R13351   2.469   0.150   3.520  1.3820 -2.7815  0.2073
  125SOPE   H5S13352   2.624   0.131   3.599 -0.5031 -1.1797 -0.2020
  125SOPE   C2613353   2.528   0.327   3.618 -0.5591 -0.0877 -0.3633
  125SOPE   H6R13354   2.618   0.390   3.636 -1.3322  0.7792  0.5528
  125SOPE   H6S13355   2.457   0.381   3.552  1.9779  0.7701 -2.5908
  125SOPE   C2713356   2.450   0.301   3.751  0.0317 -0.2007  0.1805
  125SOPE   H7R13357   2.412   0.398   3.789  1.2726  0.4383 -0.1855
  125SOPE   H7S13358   2.365   0.242   3.708 -0.0172  1.5021 -2.2252
  125SOPE   C2813359   2.533   0.233   3.861  0.3263  0.8210  0.8040
  125SOPE   H8R13360   2.469   0.216   3.950  2.7963 -0.3876  2.4682
  125SOPE   H8S13361   2.564   0.132   3.825  0.9424  0.9365  1.0012
  125SOPE   C2913362   2.652   0.317   3.895  0.5801  0.3581 -0.2653
  125SOPE   H9113363   2.737   0.292   3.830  1.6870 -0.6480  1.4958
  125SOPE  C21013364   2.665   0.396   4.001  0.5781 -0.1446  0.1322
  125SOPE  H10113365   2.752   0.459   4.025 -1.0719  2.2995  0.0817
  125SOPE  C21113366   2.558   0.439   4.098 -0.0447 -0.1352 -0.3606
  125SOPE  H11R13367   2.466   0.378   4.089 -0.9135  1.0065  0.4132
  125SOPE  H11S13368   2.524   0.543   4.079  0.0001 -0.2111 -0.8585
  125SOPE  C21213369   2.607   0.431   4.245  0.7586 -0.2664  0.0348
  125SOPE  H12R13370   2.695   0.497   4.258 -0.6683  1.5849  0.6517
  125SOPE  H12S13371   2.653   0.330   4.256 -0.0572 -1.3936 -4.6896
  125SOPE  C21313372   2.497   0.439   4.346  0.3998 -0.3416 -0.5825
  125SOPE  H13R13373   2.409   0.381   4.312 -1.5657  2.0900  0.0535
  125SOPE  H13S13374   2.469   0.545   4.364  1.1866 -0.3413  0.8381
  125SOPE  C21413375   2.546   0.377   4.475 -0.3352 -0.1819 -0.2762
  125SOPE  H14R13376   2.578   0.274   4.449 -0.4796 -0.2279 -0.2761
  125SOPE  H14S13377   2.460   0.380   4.546 -0.4491 -1.8363 -0.2988
  125SOPE  C21513378   2.665   0.451   4.537 -0.3516  1.0060  0.2764
  125SOPE  H15R13379   2.635   0.557   4.554 -2.0893  0.4508  0.8876
  125SOPE  H15S13380   2.747   0.461   4.463 -1.7318  0.0151 -1.4678
  125SOPE  C21613381   2.722   0.368   4.656 -0.3398 -0.1771  0.0869
  125SOPE  H16R13382   2.753   0.269   4.616  4.4970  1.0766  0.1607
  125SOPE  H16S13383   2.643   0.360   4.733 -1.8906 -0.9103 -1.5015
  125SOPE  C21713384   2.854   0.424   4.714 -0.8197  0.3111 -0.0904
  125SOPE  H17R13385   2.926   0.425   4.630 -2.1529  2.8374 -1.3089
  125SOPE  H17S13386   2.880   0.353   4.795 -1.0804  0.8362  0.4660
  125SOPE  C21813387   2.868   0.562   4.781 -0.5794 -0.4875 -0.3341
  125SOPE  H18R13388   2.802   0.568   4.870 -0.0954 -0.8896  0.0581
  125SOPE  H18S13389   2.828   0.640   4.713 -4.5638 -3.0786 -1.2621
  125SOPE  H18T13390   2.970   0.581   4.820 -0.5987  2.0952 -1.3446
  125SOPE   C3313391   3.135  -0.113   3.151 -0.1977  0.0847 -0.4171
  125SOPE   H3X13392   3.062  -0.035   3.119  0.5170  0.7839 -0.3871
  125SOPE   H3Y13393   3.231  -0.069   3.185  0.5537 -0.9865 -1.0916
  125SOPE   C3413394   3.072  -0.187   3.275  0.1870  0.0133 -0.1431
  125SOPE   H4X13395   3.126  -0.277   3.312  1.2316  1.3041  1.6265
  125SOPE   H4Y13396   2.969  -0.219   3.249  0.2319  0.5287 -0.9860
  125SOPE   C3513397   3.060  -0.090   3.402 -0.6400  0.3515  0.3601
  125SOPE   H5X13398   3.025   0.007   3.361  1.2724  0.3907 -1.3833
  125SOPE   H5Y13399   3.168  -0.080   3.429 -0.5225 -1.5105  0.6917
  125SOPE   C3613400   2.990  -0.128   3.530 -0.3326  0.1997 -0.0103
  125SOPE   H6X13401   2.891  -0.151   3.485  0.3545  2.0346 -2.6767
  125SOPE   H6Y13402   2.994  -0.040   3.597 -1.4360  0.4288 -0.2245
  125SOPE   C3713403   3.064  -0.239   3.595 -0.1641 -0.6272 -0.1428
  125SOPE   H7X13404   3.174  -0.228   3.584 -0.3492  2.8458  0.1834
  125SOPE   H7Y13405   3.031  -0.329   3.540 -0.0678 -1.4800  1.1627
  125SOPE   C3813406   3.027  -0.246   3.745 -0.5087 -0.0319  0.4507
  125SOPE   H8X13407   3.058  -0.346   3.782 -0.6407  0.4733  2.0014
  125SOPE   H8Y13408   2.920  -0.226   3.768 -0.0904  1.7095  0.9779
  125SOPE   C3913409   3.104  -0.144   3.828  0.0379  0.3169 -0.6461
  125SOPE   H9X13410   3.095  -0.039   3.794 -1.3060  0.2815 -0.4298
  125SOPE   H9Y13411   3.212  -0.172   3.823  0.5488  1.9768  0.4111
  125SOPE  C31013412   3.049  -0.137   3.977 -0.1197 -0.2306  0.4706
  125SOPE  H10X13413   2.948  -0.091   3.969  0.3344  0.6096 -0.7110
  125SOPE  H10Y13414   3.125  -0.087   4.041  1.2904 -2.2933  0.4778
  125SOPE  C31113415   3.030  -0.265   4.055 -0.3602 -0.0520  0.0096
  125SOPE  H11X13416   3.115  -0.334   4.036 -1.7319 -2.0387  0.7100
  125SOPE  H11Y13417   2.929  -0.305   4.033 -0.4724  1.3108 -2.3141
  125SOPE  C31213418   3.040  -0.236   4.208  0.6566  0.7642  0.5575
  125SOPE  H12X13419   2.957  -0.169   4.240 -0.3276  0.2372 -0.8105
  125SOPE  H12Y13420   3.138  -0.184   4.220  1.1889  0.3557 -1.6064
  125SOPE  C31313421   3.030  -0.369   4.282 -0.2843 -0.1677  0.1233
  125SOPE  H13X13422   3.111  -0.440   4.251  0.5464 -0.2686  2.3676
  125SOPE  H13Y13423   2.930  -0.416   4.270  0.2371 -1.3224  0.1604
  125SOPE  C31413424   3.041  -0.347   4.433 -0.4604  0.7314 -0.0202
  125SOPE  H14X13425   2.962  -0.275   4.463 -1.4648 -1.0881  1.9698
  125SOPE  H14Y13426   3.137  -0.294   4.452 -0.2274  1.0012 -1.7460
  125SOPE  C31513427   3.035  -0.478   4.512 -0.0563 -0.0362  0.1248
  125SOPE  H15X13428   3.096  -0.561   4.471 -1.2284 -1.2478  0.7527
  125SOPE  H15Y13429   2.933  -0.521   4.511  0.6849 -1.8818  0.6206
  125SOPE  C31613430   3.069  -0.440   4.652  0.3937  0.0885  0.1868
  125SOPE  H16X13431   3.012  -0.358   4.699  1.7079  1.5859 -0.7195
  125SOPE  H16Y13432   3.175  -0.406   4.644  0.1135  1.0346  0.3538
  125SOPE  C31713433   3.052  -0.564   4.736  0.1307 -0.0477 -0.1244
  125SOPE  H17X13434   3.125  -0.641   4.703  1.0953  0.1069  1.4894
  125SOPE  H17Y13435   2.945  -0.593   4.727 -0.5880  2.4193 -0.4590
  125SOPE  C31813436   3.083  -0.539   4.878  0.5299  0.3457 -0.1723
  125SOPE  H18X13437   3.064  -0.635   4.930  1.8696 -0.3798 -0.9734
  125SOPE  H18Y13438   3.007  -0.472   4.925  0.2570  0.1336 -0.3067
  125SOPE  H18Z13439   3.185  -0.503   4.900  0.3979  1.3643 -1.1214
  126SOPE     N13440   3.485   2.816   2.607 -0.4479  0.5784  0.0485
  126SOPE   HN113441   3.421   2.802   2.527 -0.7052  0.0880  0.3322
  126SOPE   HN213442   3.565   2.871   2.570 -0.1806 -0.5483 -1.0960
  126SOPE   HN313443   3.523   2.720   2.616 -0.1408  0.4818 -1.9091
  126SOPE   C1213444   3.423   2.870   2.734 -0.0413 -0.4174 -0.2588
  126SOPE  H12A13445   3.363   2.788   2.778 -1.5883  0.0793 -1.3434
  126SOPE  H12B13446   3.364   2.958   2.700  0.1448 -0.9630 -2.1516
  126SOPE   C1113447   3.533   2.891   2.843 -0.2132  0.6599  0.2352
  126SOPE  H11A13448   3.488   2.901   2.944  1.3446 -0.1903  1.0545
  126SOPE  H11B13449   3.586   2.987   2.824  2.2978 -0.3971  1.4566
  126SOPE     P13450   3.784   2.800   2.837 -0.1097 -0.3330  0.0423
  126SOPE   O1313451   3.824   2.826   2.696  1.0229 -0.2734  0.4330
  126SOPE   O1413452   3.859   2.689   2.904  0.5938  0.3542 -0.0034
  126SOPE   O1213453   3.625   2.773   2.849 -0.0415  0.3049  0.7002
  126SOPE   O1113454   3.803   2.937   2.923 -1.0157  1.0044  0.3852
  126SOPE    C113455   3.781   2.934   3.069  0.4176 -0.3759  0.4415
  126SOPE    HA13456   3.700   2.865   3.100 -0.7354  0.4143 -0.6882
  126SOPE    HB13457   3.762   3.036   3.110  0.9242 -0.6362  1.3391
  126SOPE    C213458   3.904   2.899   3.152 -0.2215  0.8785 -0.4600
  126SOPE    HS13459   3.971   2.829   3.098 -0.3446 -2.2022  2.9793
  126SOPE   O2113460   3.867   2.818   3.271  0.5225  0.3587 -0.1022
  126SOPE   C2113461   3.958   2.746   3.333  0.2449 -0.2118  0.0669
  126SOPE   O2213462   4.073   2.725   3.293  0.3059  0.3483 -0.3932
  126SOPE   C2213463   3.910   2.701   3.465  0.3701 -0.4193  0.3333
  126SOPE   H2R13464   3.909   2.591   3.452 -1.4030 -0.1553 -2.5402
  126SOPE   H2S13465   3.804   2.727   3.486  0.0306 -2.1379  0.9683
  126SOPE    C313466   3.999   3.022   3.191 -0.7422  0.1499  0.0347
  126SOPE    HX13467   4.030   3.076   3.099 -0.6293 -1.1293 -0.7031
  126SOPE    HY13468   4.084   2.968   3.237 -1.3518 -1.2151 -0.3682
  126SOPE   O3113469   3.936   3.111   3.281 -0.0056 -0.1266 -0.0763
  126SOPE   C3113470   4.023   3.186   3.349 -0.2231  0.0933  0.3493
  126SOPE   O3213471   4.148   3.181   3.342 -0.0289 -0.6413 -0.2439
  126SOPE   C3213472   3.941   3.286   3.423 -0.5838  0.3205 -0.3953
  126SOPE   H2X13473   3.852   3.226   3.452  1.7701 -2.6480  1.2035
  126SOPE   H2Y13474   3.925   3.368   3.350  0.3940  1.2059  0.3559
  126SOPE   C2313475   4.000   2.753   3.573  0.2014  0.6460 -0.4219
  126SOPE   H3R13476   3.995   2.864   3.566  1.2368  0.6124 -3.8024
  126SOPE   H3S13477   4.106   2.731   3.548  0.1621 -0.2268  0.1608
  126SOPE   C2413478   3.952   2.702   3.716 -1.0297 -0.0205 -0.0353
  126SOPE   H4R13479   3.849   2.739   3.732 -0.4630  1.9734 -0.7518
  126SOPE   H4S13480   3.967   2.595   3.741 -0.3607  0.5044  1.9215
  126SOPE   C2513481   4.032   2.765   3.834  0.0791 -0.8814  0.9168
  126SOPE   H5R13482   4.139   2.739   3.822  0.2246  0.0187  0.2030
  126SOPE   H5S13483   4.020   2.875   3.825  1.0304 -0.7451  1.2011
  126SOPE   C2613484   3.986   2.730   3.971 -0.3287 -0.7985  0.4621
  126SOPE   H6R13485   3.883   2.767   3.992 -0.3689 -0.5690 -0.1224
  126SOPE   H6S13486   3.968   2.621   3.980  1.4103 -1.3569 -1.9014
  126SOPE   C2713487   4.085   2.783   4.080 -0.2817  1.0179 -0.7253
  126SOPE   H7R13488   4.190   2.777   4.044 -0.0318  0.2337  0.1177
  126SOPE   H7S13489   4.059   2.889   4.100 -1.2520  0.5774  0.4788
  126SOPE   C2813490   4.071   2.701   4.218 -0.3373 -0.3098  0.8655
  126SOPE   H8R13491   4.068   2.591   4.202 -2.7878 -0.0679 -0.9215
  126SOPE   H8S13492   4.169   2.714   4.269 -0.4485  1.0355  0.7622
  126SOPE   C2913493   3.953   2.739   4.308 -0.9295  0.1862 -0.4573
  126SOPE   H9113494   3.853   2.716   4.267 -1.5272  1.3142  0.3336
  126SOPE  C21013495   3.963   2.793   4.435 -0.4207 -0.3232 -0.3134
  126SOPE  H10113496   3.873   2.829   4.487  0.9465  2.5389  0.2316
  126SOPE  C21113497   4.085   2.832   4.510  0.8244 -0.2589 -0.5465
  126SOPE  H11R13498   4.122   2.933   4.481  1.2978  0.0290  0.9466
  126SOPE  H11S13499   4.152   2.748   4.482 -0.2912 -0.4150 -2.9781
  126SOPE  C21213500   4.047   2.839   4.660 -0.0725 -0.8717  0.6282
  126SOPE  H12R13501   4.027   2.741   4.707  1.7653 -1.2899  0.6302
  126SOPE  H12S13502   3.957   2.903   4.666 -0.7140 -1.7609  0.5977
  126SOPE  C21313503   4.151   2.915   4.751  1.1378  0.1610 -0.2484
  126SOPE  H13R13504   4.105   2.920   4.852 -0.2436 -2.0403 -0.7071
  126SOPE  H13S13505   4.162   3.018   4.710 -1.9656  0.4866 -0.4807
  126SOPE  C21413506   4.293   2.850   4.752  0.1796 -0.1613 -0.2379
  126SOPE  H14R13507   4.346   2.858   4.654  0.3087 -0.9099 -0.2313
  126SOPE  H14S13508   4.286   2.744   4.783 -1.8032  0.1042  0.3587
  126SOPE  C21513509   4.394   2.910   4.856  0.3575  0.0128 -0.1845
  126SOPE  H15R13510   4.351   2.897   4.957 -4.2433  0.8618 -1.7517
  126SOPE  H15S13511   4.394   3.021   4.854  1.7412  0.3538  5.1582
  126SOPE  C21613512   4.539   2.859   4.842  0.3278 -0.0621 -0.0159
  126SOPE  H16R13513   4.562   2.851   4.733  0.0626  0.3479 -0.1044
  126SOPE  H16S13514   4.534   2.756   4.882 -1.7895  0.1148  0.3343
  126SOPE  C21713515   4.653   2.941   4.905  0.1209 -0.1824  0.2743
  126SOPE  H17R13516   4.662   3.039   4.854  1.0580  0.3867  1.4620
  126SOPE  H17S13517   4.750   2.886   4.894  0.0660 -0.1781 -0.2481
  126SOPE  C21813518   4.629   2.967   5.057  0.0872 -0.6487 -0.5901
  126SOPE  H18R13519   4.610   2.875   5.116  1.0503 -0.2132  0.4318
  126SOPE  H18S13520   4.542   3.030   5.084  0.2614 -1.9811  3.6758
  126SOPE  H18T13521   4.719   3.015   5.101  0.0140 -0.1016 -1.0272
  126SOPE   C3313522   4.013   3.352   3.553 -0.5947 -0.2136  0.2446
  126SOPE   H3X13523   3.965   3.451   3.572  1.2358  0.8195 -0.3235
  126SOPE   H3Y13524   4.122   3.366   3.544 -0.4858 -0.1556  1.4517
  126SOPE   C3413525   3.978   3.275   3.679  0.6606 -0.2180  0.3231
  126SOPE   H4X13526   3.981   3.166   3.658 -0.0034 -0.7765  2.8076
  126SOPE   H4Y13527   3.875   3.303   3.710  0.7511  0.6932 -0.1624
  126SOPE   C3513528   4.087   3.303   3.791 -0.5714 -0.1568  0.5060
  126SOPE   H5X13529   4.095   3.410   3.821  1.3768 -0.5219  1.4564
  126SOPE   H5Y13530   4.187   3.269   3.755 -1.5014  0.0063 -2.5103
  126SOPE   C3613531   4.063   3.238   3.932  0.1839 -0.2943  0.4272
  126SOPE   H6X13532   4.150   3.271   3.993  0.9668 -1.4302 -0.0421
  126SOPE   H6Y13533   4.067   3.127   3.931 -1.6701 -0.4360 -2.5131
  126SOPE   C3713534   3.928   3.283   3.995 -0.4146  0.5268 -0.6273
  126SOPE   H7X13535   3.851   3.259   3.918 -0.2939  0.7299 -0.8139
  126SOPE   H7Y13536   3.928   3.393   4.009  0.7003  0.2785  1.8997
  126SOPE   C3813537   3.893   3.207   4.124 -0.4090  0.0598  0.7020
  126SOPE   H8X13538   3.942   3.111   4.096 -0.0089  1.2262 -3.2135
  126SOPE   H8Y13539   3.783   3.195   4.126 -0.2610 -1.7392 -0.1202
  126SOPE   C3913540   3.935   3.267   4.259  0.4025 -0.4280  0.1748
  126SOPE   H9X13541   3.907   3.374   4.260  0.3700 -0.3915 -1.5464
  126SOPE   H9Y13542   4.045   3.258   4.263  0.4055 -0.2254  0.5169
  126SOPE  C31013543   3.876   3.200   4.382  0.1988  0.6817 -0.0596
  126SOPE  H10X13544   3.912   3.095   4.391 -0.5773  0.2692 -1.4085
  126SOPE  H10Y13545   3.765   3.209   4.381  0.3067  3.1949  1.8504
  126SOPE  C31113546   3.924   3.265   4.510 -0.0245  0.0409 -0.2502
  126SOPE  H11X13547   3.934   3.376   4.510 -0.4059  0.0775 -0.7585
  126SOPE  H11Y13548   4.028   3.229   4.523 -0.0342  0.6249  1.9301
  126SOPE  C31213549   3.845   3.228   4.641 -0.3321  0.7106  0.4430
  126SOPE  H12X13550   3.890   3.270   4.733 -0.6225  0.7474  0.5683
  126SOPE  H12Y13551   3.845   3.118   4.650  1.2511  0.5523 -0.8958
  126SOPE  C31313552   3.689   3.269   4.647 -0.0692  0.9803  0.6850
  126SOPE  H13X13553   3.651   3.231   4.744  2.0388 -0.2283  1.0967
  126SOPE  H13Y13554   3.643   3.224   4.557  0.8797  0.3217  0.5070
  126SOPE  C31413555   3.643   3.416   4.651 -0.6140  0.4224 -0.1622
  126SOPE  H14X13556   3.705   3.472   4.725 -0.8709  0.2538  0.1810
  126SOPE  H14Y13557   3.539   3.423   4.689 -0.5513  1.5649 -0.1654
  126SOPE  C31513558   3.648   3.480   4.510  0.0707 -0.1954  0.4327
  126SOPE  H15X13559   3.613   3.401   4.441  0.9264 -1.7821  1.7433
  126SOPE  H15Y13560   3.753   3.506   4.482 -0.2686 -0.5100 -1.2400
  126SOPE  C31613561   3.566   3.610   4.499 -0.2972 -0.3993 -0.4080
  126SOPE  H16X13562   3.461   3.590   4.530 -0.2468  0.3683  0.2721
  126SOPE  H16Y13563   3.554   3.639   4.393 -0.9175 -2.8944 -1.1000
  126SOPE  C31713564   3.628   3.724   4.573 -0.8082 -0.1882 -0.3334
  126SOPE  H17X13565   3.732   3.748   4.542 -1.2210  1.9813 -0.1998
  126SOPE  H17Y13566   3.633   3.686   4.677  3.8445  2.0355  0.4855
  126SOPE  C31813567   3.551   3.856   4.570  0.7018 -0.5102 -0.2390
  126SOPE  H18X13568   3.566   3.925   4.485 -3.9010  2.1243  0.7487
  126SOPE  H18Y13569   3.557   3.925   4.657 -0.9956 -0.3976 -0.1855
  126SOPE  H18Z13570   3.444   3.828   4.558 -0.1759  1.6441  1.7222
  127SOPE     N13571   5.479   3.396   2.765  0.0077 -0.3394 -0.3897
  127SOPE   HN113572   5.501   3.299   2.796 -1.0066  0.0265  1.6924
  127SOPE   HN213573   5.378   3.412   2.779 -0.0017  0.5848 -1.4831
  127SOPE   HN313574   5.472   3.395   2.662 -0.0997 -0.7928 -0.3807
  127SOPE   C1213575   5.586   3.483   2.810  0.0769  0.7991 -0.0877
  127SOPE  H12A13576   5.596   3.486   2.921 -0.1240  2.9430 -0.0931
  127SOPE  H12B13577   5.566   3.587   2.778  0.8254  0.7410 -0.7589
  127SOPE   C1113578   5.715   3.417   2.762  0.3924 -0.0346 -0.2506
  127SOPE  H11A13579   5.798   3.466   2.818  0.9715  0.2935 -1.3575
  127SOPE  H11B13580   5.709   3.442   2.654 -0.4555 -1.1066 -0.4681
  127SOPE     P13581   5.858   3.195   2.780 -0.0517 -0.3050 -0.1746
  127SOPE   O1313582   5.962   3.280   2.731  0.0311 -0.5088  0.0475
  127SOPE   O1413583   5.836   3.062   2.724 -0.1136  0.5416  0.2887
  127SOPE   O1213584   5.719   3.279   2.783  0.1426 -0.6323 -0.0289
  127SOPE   O1113585   5.886   3.167   2.930  0.3343 -0.1765  0.0732
  127SOPE    C113586   5.817   3.080   3.016  0.5652  0.6149 -0.3753
  127SOPE    HA13587   5.881   3.027   3.090 -0.0830  1.4960  0.8558
  127SOPE    HB13588   5.777   2.991   2.963 -0.1423 -0.1102  1.2964
  127SOPE    C213589   5.700   3.136   3.100 -0.1917  1.0104 -0.2365
  127SOPE    HS13590   5.619   3.168   3.031 -1.1290  0.0752  0.3892
  127SOPE   O2113591   5.749   3.245   3.180  0.0405  0.4128  0.1080
  127SOPE   C2113592   5.653   3.341   3.206 -0.6369 -0.6056  0.6011
  127SOPE   O2213593   5.539   3.342   3.159  0.2487 -0.6155  0.1670
  127SOPE   C2213594   5.713   3.439   3.307 -0.3874 -0.3017  0.1589
  127SOPE   H2R13595   5.727   3.533   3.249 -2.2441  0.2721  0.5760
  127SOPE   H2S13596   5.807   3.405   3.356 -0.4250  1.8723  1.8991
  127SOPE    C313597   5.634   3.029   3.195 -0.6565 -0.1693 -0.5612
  127SOPE    HX13598   5.725   3.012   3.256 -1.0165 -0.0810  0.0116
  127SOPE    HY13599   5.606   2.939   3.137 -0.8042  0.3984 -1.3864
  127SOPE   O3113600   5.535   3.081   3.288  0.4805 -0.5736  0.5519
  127SOPE   C3113601   5.412   3.081   3.229  0.0695 -0.0497 -0.6789
  127SOPE   O3213602   5.389   3.042   3.119  0.6728 -0.1546  0.0565
  127SOPE   C3213603   5.320   3.125   3.339  0.0614 -0.7249 -0.3453
  127SOPE   H2X13604   5.233   3.181   3.299 -1.2827 -1.1427  1.7942
  127SOPE   H2Y13605   5.373   3.193   3.408 -1.9792  0.8166 -0.1978
  127SOPE   C2313606   5.611   3.478   3.414 -0.0418  0.8215 -0.0049
  127SOPE   H3R13607   5.513   3.506   3.370 -0.3064 -2.3973 -1.8164
  127SOPE   H3S13608   5.649   3.566   3.469 -0.1230  0.6290  0.3706
  127SOPE   C2413609   5.595   3.369   3.522 -0.1027  0.7646 -0.6799
  127SOPE   H4R13610   5.538   3.287   3.474 -1.7365  1.2613  0.3128
  127SOPE   H4S13611   5.694   3.328   3.552 -0.6919  0.3006  0.7102
  127SOPE   C2513612   5.521   3.419   3.643  0.1866  0.2061 -0.4612
  127SOPE   H5R13613   5.565   3.521   3.655 -0.2600  0.1207  3.0221
  127SOPE   H5S13614   5.414   3.431   3.615 -0.0066 -1.2175 -0.3810
  127SOPE   C2613615   5.527   3.338   3.775  0.1086 -0.1953 -0.1339
  127SOPE   H6R13616   5.450   3.381   3.843  0.6232  1.1401 -0.3672
  127SOPE   H6S13617   5.516   3.230   3.755  3.2103 -1.4794  3.7033
  127SOPE   C2713618   5.655   3.361   3.862  0.1344  0.0022  0.7123
  127SOPE   H7R13619   5.738   3.299   3.820 -1.4923  0.5289 -3.7498
  127SOPE   H7S13620   5.682   3.468   3.850  1.5140 -0.3391  0.5281
  127SOPE   C2813621   5.643   3.316   4.008 -0.1138  0.3273 -0.0299
  127SOPE   H8R13622   5.729   3.329   4.076  0.1089  0.7661 -0.3862
  127SOPE   H8S13623   5.573   3.378   4.068  1.4077  0.9113  1.2193
  127SOPE   C2913624   5.604   3.169   4.009  0.8232  0.8049  0.4048
  127SOPE   H9113625   5.496   3.155   3.994  0.4366  4.1273 -0.9858
  127SOPE  C21013626   5.684   3.064   4.031 -0.0858 -0.0414  0.4529
  127SOPE  H10113627   5.641   2.964   4.040 -1.9619  0.7553  0.6349
  127SOPE  C21113628   5.830   3.073   4.047 -0.5644  0.4264 -0.1945
  127SOPE  H11R13629   5.879   3.169   4.019  0.9753 -0.1924  0.2430
  127SOPE  H11S13630   5.867   2.994   3.979 -0.9341 -2.2654  2.4851
  127SOPE  C21213631   5.876   3.034   4.186 -0.1254 -0.1064 -0.1037
  127SOPE  H12R13632   5.986   3.027   4.187 -0.1569 -0.5421  0.1021
  127SOPE  H12S13633   5.842   2.933   4.216 -1.8726  0.7520  1.0459
  127SOPE  C21313634   5.828   3.135   4.295  0.2074 -0.2290 -0.1012
  127SOPE  H13R13635   5.717   3.132   4.303  0.2709 -0.6381  0.6940
  127SOPE  H13S13636   5.849   3.242   4.271  1.9134 -0.8286 -1.5517
  127SOPE  C21413637   5.889   3.096   4.429 -0.1412  0.0728  0.3958
  127SOPE  H14R13638   5.999   3.113   4.435 -0.0907  0.3001 -0.9407
  127SOPE  H14S13639   5.874   2.987   4.437  0.3365 -0.0132  0.1668
  127SOPE  C21513640   5.827   3.180   4.539 -0.5351 -0.2707 -0.2818
  127SOPE  H15R13641   5.830   3.287   4.509  0.4608  0.6264  2.6142
  127SOPE  H15S13642   5.908   3.175   4.615  0.1107  2.7999 -0.6541
  127SOPE  C21613643   5.692   3.133   4.602  0.8092  0.0503 -0.0459
  127SOPE  H16R13644   5.712   3.024   4.591  0.4828  0.0390 -0.5617
  127SOPE  H16S13645   5.613   3.175   4.536  1.2880  3.7120  1.5037
  127SOPE  C21713646   5.669   3.188   4.745 -0.7899 -0.3154  0.1096
  127SOPE  H17R13647   5.672   3.299   4.752 -1.0192 -0.3299  0.5032
  127SOPE  H17S13648   5.754   3.148   4.803 -1.4811 -1.1454  0.5735
  127SOPE  C21813649   5.540   3.147   4.812 -0.6378 -0.5317  0.2348
  127SOPE  H18R13650   5.451   3.184   4.757  0.1370 -0.9500 -1.3458
  127SOPE  H18S13651   5.535   3.197   4.912  2.0599  4.1279 -1.6224
  127SOPE  H18T13652   5.527   3.037   4.809  0.0156 -0.5829 -1.1858
  127SOPE   C3313653   5.265   3.006   3.421 -0.1686 -0.0582  0.6817
  127SOPE   H3X13654   5.332   2.919   3.404 -0.1965  0.3539 -1.8155
  127SOPE   H3Y13655   5.163   2.973   3.390 -0.1836 -0.0564  0.7280
  127SOPE   C3413656   5.281   3.034   3.571  0.8046  0.6379  0.9870
  127SOPE   H4X13657   5.236   3.130   3.605 -1.5950  0.0028 -0.1976
  127SOPE   H4Y13658   5.392   3.040   3.579  0.8260  0.4700  0.8081
  127SOPE   C3513659   5.221   2.916   3.649  0.2551  0.2252  0.8108
  127SOPE   H5X13660   5.241   2.812   3.614 -3.8560 -1.0558  1.6949
  127SOPE   H5Y13661   5.111   2.907   3.643  0.3354  0.1602 -0.8667
  127SOPE   C3613662   5.269   2.926   3.796  0.4075 -0.1866 -0.7001
  127SOPE   H6X13663   5.229   3.019   3.841  2.0112 -0.1821  0.8228
  127SOPE   H6Y13664   5.378   2.945   3.787  0.3415 -0.3978 -2.2051
  127SOPE   C3713665   5.242   2.798   3.889 -0.1568 -0.2015 -0.4443
  127SOPE   H7X13666   5.292   2.709   3.845 -0.3278 -0.8501  0.6374
  127SOPE   H7Y13667   5.136   2.766   3.902 -0.3773  1.0219  1.0529
  127SOPE   C3813668   5.299   2.815   4.031 -0.1682  0.0531 -0.4936
  127SOPE   H8X13669   5.406   2.844   4.028  0.1319 -0.7971  1.0774
  127SOPE   H8Y13670   5.299   2.716   4.082  1.9207 -0.1537 -0.8118
  127SOPE   C3913671   5.220   2.911   4.119  1.0637 -0.2236  0.5276
  127SOPE   H9X13672   5.123   2.878   4.163  0.4440  2.6438  1.5645
  127SOPE   H9Y13673   5.203   3.003   4.059  3.1023 -0.1643 -0.0087
  127SOPE  C31013674   5.284   2.952   4.257 -0.4922  0.1832 -1.1995
  127SOPE  H10X13675   5.237   3.047   4.292  1.4925  0.4573  0.9472
  127SOPE  H10Y13676   5.388   2.985   4.240  0.0273  0.4268  1.8467
  127SOPE  C31113677   5.277   2.829   4.352 -0.3978  0.4141  0.3527
  127SOPE  H11X13678   5.342   2.749   4.309 -0.8419  0.7210 -0.9439
  127SOPE  H11Y13679   5.176   2.785   4.358 -0.0948 -0.1415  1.7727
  127SOPE  C31213680   5.320   2.859   4.497 -0.3556 -0.2331 -0.2825
  127SOPE  H12X13681   5.268   2.950   4.534  0.2285 -1.7049  5.0541
  127SOPE  H12Y13682   5.426   2.891   4.499 -0.9545  1.9499  1.2826
  127SOPE  C31313683   5.297   2.737   4.588  0.7412  0.5481  0.0432
  127SOPE  H13X13684   5.324   2.639   4.543  0.3170  1.0591 -1.3834
  127SOPE  H13Y13685   5.189   2.745   4.612  0.5777  0.8972 -0.7935
  127SOPE  C31413686   5.379   2.737   4.719 -0.2288  0.6856 -1.1797
  127SOPE  H14X13687   5.369   2.833   4.774 -2.1442 -0.8422  1.4251
  127SOPE  H14Y13688   5.488   2.722   4.706 -0.1080  2.2625 -2.2686
  127SOPE  C31513689   5.322   2.627   4.813  0.6147  0.0585  0.3478
  127SOPE  H15X13690   5.319   2.531   4.757  3.0614  0.9890 -1.5493
  127SOPE  H15Y13691   5.219   2.662   4.836  1.2313  1.7792  0.5812
  127SOPE  C31613692   5.389   2.604   4.951 -0.3447 -0.0982 -0.2607
  127SOPE  H16X13693   5.497   2.583   4.932 -0.4708 -0.9087 -0.0882
  127SOPE  H16Y13694   5.352   2.516   5.007  2.1091 -2.1626 -1.6514
  127SOPE  C31713695   5.386   2.727   5.043  0.5295 -0.3272  0.1012
  127SOPE  H17X13696   5.284   2.755   5.077 -0.7398 -3.0499 -1.1480
  127SOPE  H17Y13697   5.422   2.813   4.983 -0.6229  0.6051  0.6829
  127SOPE  C31813698   5.475   2.710   5.165 -0.2483 -0.5331 -0.1429
  127SOPE  H18X13699   5.581   2.735   5.140 -0.2170 -0.5600 -0.0356
  127SOPE  H18Y13700   5.491   2.602   5.186  0.0202 -0.8048 -1.6016
  127SOPE  H18Z13701   5.441   2.753   5.261  0.3421 -0.5075  0.0610
  128SOPE     N13702   2.524   2.253   2.621  0.4023 -0.0003  0.2048
  128SOPE   HN113703   2.571   2.216   2.706  1.5909  0.5643 -0.1869
  128SOPE   HN213704   2.475   2.344   2.639  0.0362  0.1821 -1.5676
  128SOPE   HN313705   2.451   2.190   2.583 -0.6489  2.3466 -1.9982
  128SOPE   C1213706   2.623   2.284   2.512  0.1989 -0.1165 -0.5362
  128SOPE  H12A13707   2.561   2.301   2.421  0.4837 -0.9210 -0.8901
  128SOPE  H12B13708   2.694   2.200   2.496  0.7063  0.2254 -0.0984
  128SOPE   C1113709   2.707   2.413   2.551  0.4603  1.5537 -0.6658
  128SOPE  H11A13710   2.807   2.409   2.503  0.7769  0.3672  0.0746
  128SOPE  H11B13711   2.722   2.406   2.661 -1.2065  0.1421 -0.4862
  128SOPE     P13712   2.520   2.603   2.597 -0.0445  0.0250 -0.0420
  128SOPE   O1313713   2.417   2.502   2.618 -0.2783  0.5977  0.5112
  128SOPE   O1413714   2.472   2.731   2.535  0.0385 -0.6291 -0.0285
  128SOPE   O1213715   2.637   2.537   2.516 -0.1263 -0.7787 -0.4474
  128SOPE   O1113716   2.571   2.638   2.734  0.0660  0.4531  0.0858
  128SOPE    C113717   2.685   2.727   2.745  0.1965 -0.0752  0.1632
  128SOPE    HA13718   2.708   2.773   2.647 -2.9583  1.1436 -0.1050
  128SOPE    HB13719   2.773   2.671   2.786 -1.9694 -1.3728  3.5066
  128SOPE    C213720   2.656   2.848   2.848  0.2454  0.3793 -0.0742
  128SOPE    HS13721   2.746   2.908   2.873  1.2944  0.0491 -2.6917
  128SOPE   O2113722   2.599   2.795   2.969 -0.3936  0.2434 -0.1282
  128SOPE   C2113723   2.682   2.728   3.044 -0.0263 -0.7377  0.3162
  128SOPE   O2213724   2.795   2.698   3.015 -0.5067  0.2746 -0.3500
  128SOPE   C2213725   2.616   2.701   3.185 -0.3082 -0.0503  0.4265
  128SOPE   H2R13726   2.662   2.608   3.226  2.4066  1.2838  0.6142
  128SOPE   H2S13727   2.506   2.695   3.172 -0.1721  0.6412 -1.3726
  128SOPE    C313728   2.565   2.955   2.774  0.5544 -0.3659 -0.2323
  128SOPE    HX13729   2.465   2.907   2.773 -0.1960  0.9165  2.9420
  128SOPE    HY13730   2.588   2.979   2.667  1.3590  2.7496  0.5139
  128SOPE   O3113731   2.554   3.082   2.845  0.3108 -0.5224 -0.0611
  128SOPE   C3113732   2.652   3.167   2.813 -0.7226 -0.2360  0.8327
  128SOPE   O3213733   2.720   3.168   2.713  0.3817 -0.1624  0.1073
  128SOPE   C3213734   2.661   3.284   2.915  0.1010  0.8457 -0.0600
  128SOPE   H2X13735   2.603   3.248   3.003  2.4936  0.5640  1.4820
  128SOPE   H2Y13736   2.598   3.362   2.867 -1.4947 -0.7927 -0.7380
  128SOPE   C2313737   2.661   2.817   3.270 -0.3849 -0.3198  0.0397
  128SOPE   H3R13738   2.767   2.801   3.301  0.3479  1.0159 -1.6159
  128SOPE   H3S13739   2.611   2.812   3.369 -0.3080 -1.5231  0.0330
  128SOPE   C2413740   2.635   2.964   3.220  0.4480  0.5355  0.0840
  128SOPE   H4R13741   2.692   2.983   3.126  0.2311  2.3003  0.2678
  128SOPE   H4S13742   2.528   2.966   3.191  0.3869 -0.1010  0.2553
  128SOPE   C2513743   2.665   3.078   3.318 -0.1275 -0.7607 -0.0526
  128SOPE   H5R13744   2.761   3.119   3.280 -1.3681  0.1930 -2.3421
  128SOPE   H5S13745   2.588   3.156   3.297 -2.3035 -1.8152  3.1465
  128SOPE   C2613746   2.673   3.065   3.467  0.7082 -0.1008  0.0202
  128SOPE   H6R13747   2.572   3.034   3.502  0.7120  0.1349  0.2394
  128SOPE   H6S13748   2.732   2.974   3.494 -0.5513 -0.5604  1.3303
  128SOPE   C2713749   2.733   3.187   3.535  0.3384 -0.2863  0.1669
  128SOPE   H7R13750   2.822   3.219   3.478 -0.4327 -0.1011 -0.9695
  128SOPE   H7S13751   2.662   3.271   3.517 -1.1459 -1.6830 -0.8023
  128SOPE   C2813752   2.767   3.183   3.680  0.4222 -0.4728  0.0998
  128SOPE   H8R13753   2.682   3.153   3.745 -0.4532  1.3678 -0.1283
  128SOPE   H8S13754   2.843   3.104   3.695  3.1064  2.2139  1.9826
  128SOPE   C2913755   2.834   3.320   3.725 -0.7011 -0.3647 -0.0297
  128SOPE   H9113756   2.818   3.404   3.656 -0.3707 -1.4549 -1.4703
  128SOPE  C21013757   2.934   3.338   3.818 -0.1343 -0.5647  0.2047
  128SOPE  H10113758   2.971   3.440   3.835  0.1292  0.1845 -3.8391
  128SOPE  C21113759   3.001   3.228   3.902  0.3001  0.0270 -0.0535
  128SOPE  H11R13760   3.096   3.189   3.861  1.7447 -0.6687  3.5626
  128SOPE  H11S13761   2.930   3.143   3.908  0.2619  0.1346  1.4971
  128SOPE  C21213762   3.024   3.266   4.049  0.0242 -0.6476 -0.4837
  128SOPE  H12R13763   3.096   3.351   4.051 -0.2008 -0.2419 -3.6828
  128SOPE  H12S13764   3.073   3.179   4.097  0.6874 -0.9834 -1.7041
  128SOPE  C21313765   2.899   3.308   4.123  0.2153  0.0721 -0.2190
  128SOPE  H13R13766   2.821   3.230   4.115 -1.3401  1.5431  0.0981
  128SOPE  H13S13767   2.859   3.405   4.086 -0.3109  0.7786  2.0771
  128SOPE  C21413768   2.918   3.317   4.275 -0.5206 -0.1407  0.4883
  128SOPE  H14R13769   2.972   3.410   4.302  0.3345 -0.4189 -0.2515
  128SOPE  H14S13770   2.975   3.227   4.308 -1.2998 -0.5771  0.6886
  128SOPE  C21513771   2.783   3.307   4.346 -0.1119 -0.6157 -0.2307
  128SOPE  H15R13772   2.730   3.217   4.310 -2.0575 -0.1803  1.3790
  128SOPE  H15S13773   2.716   3.388   4.309 -0.6911 -1.8011 -1.8844
  128SOPE  C21613774   2.792   3.318   4.495 -0.6429  0.0061 -0.7832
  128SOPE  H16R13775   2.834   3.414   4.532  1.7933 -1.0668 -0.5717
  128SOPE  H16S13776   2.854   3.231   4.527  0.6867  0.2771 -2.4679
  128SOPE  C21713777   2.659   3.314   4.567  0.1225  0.7863 -0.0648
  128SOPE  H17R13778   2.685   3.292   4.673 -1.3147 -0.9022 -0.0171
  128SOPE  H17S13779   2.607   3.221   4.535  1.4253 -0.1939  0.5598
  128SOPE  C21813780   2.560   3.432   4.545 -0.3023 -0.1003 -0.5645
  128SOPE  H18R13781   2.541   3.443   4.436 -0.1442 -1.3518 -0.7333
  128SOPE  H18S13782   2.597   3.526   4.592  0.0513 -0.5198  0.0192
  128SOPE  H18T13783   2.461   3.418   4.593  0.1746  0.6363  0.6795
  128SOPE   C3313784   2.794   3.338   2.933  0.3304 -0.4056  0.2827
  128SOPE   H3X13785   2.790   3.444   2.964 -1.2172 -0.8154  1.5949
  128SOPE   H3Y13786   2.860   3.339   2.844 -1.6342 -0.0930 -1.2315
  128SOPE   C3413787   2.864   3.254   3.038 -0.6167  0.0016  0.6252
  128SOPE   H4X13788   2.901   3.158   2.996 -1.9437  0.1488 -1.0056
  128SOPE   H4Y13789   2.791   3.204   3.106 -0.6641  0.6247  1.0411
  128SOPE   C3513790   2.962   3.322   3.139 -0.5012 -0.2048  0.4469
  128SOPE   H5X13791   3.037   3.367   3.070 -0.9519 -1.3580 -0.8332
  128SOPE   H5Y13792   3.008   3.238   3.196  1.2145  1.1066  1.1002
  128SOPE   C3613793   2.897   3.415   3.232  0.3682  0.2514 -0.7571
  128SOPE   H6X13794   2.828   3.356   3.295  0.8330 -0.7161 -1.1451
  128SOPE   H6Y13795   2.830   3.483   3.175 -0.3336  0.0944 -0.1369
  128SOPE   C3713796   3.005   3.502   3.317 -0.0725 -0.3599  0.0847
  128SOPE   H7X13797   2.951   3.594   3.347 -1.8050 -1.1271 -0.5630
  128SOPE   H7Y13798   3.065   3.533   3.229 -1.8781 -0.1947 -1.1375
  128SOPE   C3813799   3.079   3.432   3.436 -0.0906  0.2003 -0.2213
  128SOPE   H8X13800   3.112   3.326   3.425 -1.0246 -0.0133 -1.1692
  128SOPE   H8Y13801   3.000   3.444   3.513 -1.1956 -0.9287 -1.1319
  128SOPE   C3913802   3.204   3.524   3.465  0.0028  0.0831  0.7430
  128SOPE   H9X13803   3.187   3.626   3.425 -0.5396  0.2846  1.4517
  128SOPE   H9Y13804   3.292   3.490   3.408  0.2244  2.1061 -0.1790
  128SOPE  C31013805   3.257   3.520   3.612 -0.1754 -0.0917  0.8158
  128SOPE  H10X13806   3.368   3.524   3.619 -0.1190 -2.2123  2.1803
  128SOPE  H10Y13807   3.237   3.416   3.648  1.5613 -0.3248  1.2004
  128SOPE  C31113808   3.189   3.624   3.704  0.3612  0.5238 -0.1842
  128SOPE  H11X13809   3.084   3.590   3.701  0.7556 -0.8224  0.5119
  128SOPE  H11Y13810   3.189   3.729   3.666 -0.7496  0.2239 -1.0342
  128SOPE  C31213811   3.233   3.623   3.853 -0.3944  0.0485 -0.0087
  128SOPE  H12X13812   3.344   3.629   3.860 -0.3616  1.5516 -1.1386
  128SOPE  H12Y13813   3.212   3.522   3.893  2.5740 -0.9173 -0.6021
  128SOPE  C31313814   3.163   3.729   3.948  0.1493  0.5229  0.0148
  128SOPE  H13X13815   3.053   3.711   3.944  0.4942 -1.7511 -1.1794
  128SOPE  H13Y13816   3.186   3.829   3.907  2.7275  0.5290  1.2638
  128SOPE  C31413817   3.224   3.710   4.088  0.2799  0.4037 -0.1746
  128SOPE  H14X13818   3.330   3.740   4.077  0.0479  0.9356 -1.0393
  128SOPE  H14Y13819   3.211   3.602   4.112  1.1405  0.4899  0.7765
  128SOPE  C31513820   3.156   3.789   4.205 -0.0725  0.2666  0.0754
  128SOPE  H15X13821   3.046   3.799   4.191 -0.3109 -1.5423  0.4401
  128SOPE  H15Y13822   3.174   3.896   4.179 -0.7449  0.1164 -1.0930
  128SOPE  C31613823   3.211   3.751   4.342  0.8305 -0.3023 -0.4765
  128SOPE  H16X13824   3.264   3.841   4.381 -1.1308  1.3869 -1.4883
  128SOPE  H16Y13825   3.270   3.658   4.335 -0.2593 -0.9540 -1.3992
  128SOPE  C31713826   3.093   3.729   4.441 -0.0788  0.6090  0.3183
  128SOPE  H17X13827   3.011   3.688   4.379 -1.8923  0.7483  2.5050
  128SOPE  H17Y13828   3.067   3.828   4.486  1.2822  0.2393  2.0432
  128SOPE  C31813829   3.115   3.633   4.557  0.5514 -0.9767  0.2187
  128SOPE  H18X13830   3.153   3.539   4.511  1.6903 -0.2702 -0.3315
  128SOPE  H18Y13831   3.018   3.614   4.607 -0.3817  1.2761 -0.6097
  128SOPE  H18Z13832   3.196   3.663   4.627  0.4652  0.0964 -0.1250
  129OSM      N13833   5.048   1.998   8.118  0.1512  0.2596 -0.5094
  129OSM    C1513834   4.916   1.999   8.189 -0.3722 -0.2001 -0.6949
  129OSM   H15A13835   4.858   1.908   8.188 -2.2892  0.9485 -1.2821
  129OSM   H15B13836   4.847   2.068   8.142  1.1839  2.4596  0.6603
  129OSM   H15C13837   4.942   2.041   8.285  0.1958 -0.3012 -0.8043
  129OSM    C1413838   5.101   2.141   8.108 -0.2488  0.3379  0.4187
  129OSM   H14A13839   5.102   2.190   8.203 -3.9595 -0.2027  0.8816
  129OSM   H14B13840   5.032   2.197   8.047 -1.2785 -1.0948  0.2174
  129OSM   H14C13841   5.199   2.143   8.061 -0.1052  0.7589  0.7388
  129OSM    C1313842   5.138   1.897   8.176  0.3091 -0.2898  1.0160
  129OSM   H13A13843   5.173   1.939   8.268  1.0807  1.8159 -0.1736
  129OSM   H13B13844   5.223   1.881   8.111  0.6780 -0.1959  1.4735
  129OSM   H13C13845   5.098   1.798   8.194 -0.2981 -0.0448  1.0583
  129OSM    C1213846   5.026   1.952   7.979 -0.6653  0.0734  0.0230
  129OSM   H12A13847   4.943   2.008   7.939 -0.5450  0.5840  0.4609
  129OSM   H12B13848   4.997   1.849   7.971 -2.3524  0.5291 -0.1492
  129OSM    C1113849   5.140   1.964   7.874 -0.0702 -0.2526 -0.0580
  129OSM   H11A13850   5.163   2.072   7.859  1.5964 -0.8494 -2.2577
  129OSM   H11B13851   5.093   1.943   7.776  0.2882 -2.2129  0.1424
  129OSM      P13852   5.381   1.916   7.828 -0.0985 -0.2104 -0.0064
  129OSM    O1313853   5.447   2.035   7.887 -0.4434  0.2263 -0.5503
  129OSM    O1413854   5.468   1.793   7.822  0.1221 -0.1260 -0.6787
  129OSM    O1113855   5.332   1.942   7.684 -0.1708 -0.0029 -0.5105
  129OSM    O1213856   5.249   1.880   7.893  0.0177  0.6628 -0.2328
  129OSM    C1S13857   5.387   2.039   7.591 -0.5580  0.3991 -0.5850
  129OSM    H1S13858   5.484   2.084   7.622 -0.7657  0.8750 -0.6045
  129OSM    H1T13859   5.317   2.126   7.589 -0.4763  0.5016  0.3872
  129OSM     NF13860   5.486   2.049   7.360 -0.1686  0.3420  0.0709
  129OSM    HNF13861   5.441   2.106   7.293 -0.3104 -0.9515 -0.9749
  129OSM    C2S13862   5.392   1.971   7.444 -0.0935  0.6622  0.1739
  129OSM    H2S13863   5.441   1.873   7.459  0.7198  1.1276  0.6952
  129OSM    C3S13864   5.254   1.945   7.391  0.3866  0.4225  0.4769
  129OSM    H3S13865   5.225   2.046   7.356  1.1340  1.2871  2.2136
  129OSM     O313866   5.157   1.915   7.493  0.3262  0.0478 -0.4528
  129OSM    HO313867   5.208   1.925   7.574 -0.1501 -1.1938  0.0334
  129OSM    C4S13868   5.238   1.842   7.285  0.1032  0.7287  0.3056
  129OSM    H4S13869   5.273   1.740   7.305 -0.4771  0.2752 -0.9119
  129OSM    C5S13870   5.184   1.871   7.163 -0.0397 -0.5711 -0.1314
  129OSM    H5S13871   5.150   1.975   7.147 -3.0093 -1.2393  1.1199
  129OSM    C6S13872   5.164   1.770   7.055 -0.1078 -0.1733 -0.6091
  129OSM    H6S13873   5.058   1.739   7.060 -0.3206  0.5588 -0.5483
  129OSM    H6T13874   5.230   1.682   7.068 -1.7161 -1.4133 -0.5728
  129OSM    C7S13875   5.186   1.826   6.917  0.5873 -0.4211  0.2101
  129OSM    H7S13876   5.284   1.878   6.922 -0.7860  2.3137  0.7069
  129OSM    H7T13877   5.113   1.907   6.895 -2.3988 -2.7461  1.0366
  129OSM    C8S13878   5.185   1.716   6.808 -1.0540  0.2616 -0.2440
  129OSM    H8S13879   5.092   1.658   6.824  0.2684 -2.1117 -0.5516
  129OSM    H8T13880   5.271   1.647   6.825  0.1739  1.2104 -2.1882
  129OSM    C9S13881   5.202   1.775   6.669 -0.0836  0.4878  0.3043
  129OSM    H9S13882   5.305   1.816   6.666  0.4936 -0.9517 -0.7127
  129OSM    H9T13883   5.123   1.843   6.631  0.2561 -0.3255 -2.0283
  129OSM   C10S13884   5.207   1.677   6.550 -0.9422  0.2140 -0.7395
  129OSM   H10S13885   5.119   1.608   6.552 -1.0312  0.3012 -1.3458
  129OSM   H10T13886   5.288   1.605   6.571 -1.8699 -0.6155  0.1216
  129OSM   C11S13887   5.213   1.753   6.416  0.3084  0.5283  0.2289
  129OSM   H11S13888   5.317   1.791   6.415  0.6515 -0.3716  0.6647
  129OSM   H11T13889   5.139   1.832   6.391  2.1118  1.5434 -2.3371
  129OSM   C12S13890   5.211   1.648   6.298  0.6166 -0.6330  0.3619
  129OSM   H12S13891   5.112   1.600   6.289  0.0230  0.7575 -0.9063
  129OSM   H12T13892   5.291   1.571   6.304  0.4304 -0.8976 -0.4627
  129OSM   C13S13893   5.248   1.713   6.162 -0.2280 -0.3297  0.0879
  129OSM   H13S13894   5.350   1.757   6.165  0.8646 -2.6238 -0.7196
  129OSM   H13T13895   5.180   1.798   6.143  0.2432 -0.1873 -1.0329
  129OSM   C14S13896   5.248   1.609   6.044 -0.2186  0.1263 -0.2850
  129OSM   H14S13897   5.151   1.556   6.043 -1.3427  1.9958  1.3035
  129OSM   H14T13898   5.332   1.537   6.051  0.9398  1.4279 -0.1471
  129OSM   C15S13899   5.273   1.696   5.917 -0.5974 -0.1743 -0.1684
  129OSM   H15S13900   5.371   1.746   5.926 -0.1715 -1.0769  0.3562
  129OSM   H15T13901   5.201   1.780   5.922  0.2609  0.6057 -0.6780
  129OSM   C16S13902   5.246   1.622   5.786  0.2601 -0.0717  0.6693
  129OSM   H16S13903   5.284   1.518   5.789 -0.7079 -0.4249  1.1985
  129OSM   H16T13904   5.292   1.670   5.698 -0.2512  1.2219  1.0819
  129OSM   C17S13905   5.091   1.597   5.752 -0.3754  0.2740  0.1916
  129OSM   H17S13906   5.035   1.692   5.766 -0.6070  0.3508 -1.0841
  129OSM   H17T13907   5.058   1.518   5.823  3.8026  0.0040  2.0861
  129OSM   C18S13908   5.060   1.556   5.607  0.0329  0.4206 -0.2949
  129OSM   H18S13909   4.952   1.569   5.586 -0.3056  0.2790  1.2573
  129OSM   H18T13910   5.097   1.453   5.585 -0.5204  0.7758 -3.2929
  129OSM   H18U13911   5.110   1.626   5.536 -0.3714  2.4174  1.2939
  129OSM    C1F13912   5.616   2.065   7.390 -0.6023  0.2696  0.3910
  129OSM     OF13913   5.683   1.990   7.465  0.9727 -0.6263  0.0860
  129OSM    C2F13914   5.675   2.179   7.314 -0.1476  0.0760  0.2308
  129OSM    H2F13915   5.736   2.248   7.376 -1.3526  1.5529 -0.1634
  129OSM    H2G13916   5.595   2.251   7.287 -0.0545  1.5118  3.3684
  129OSM    C3F13917   5.758   2.138   7.191  0.1685  0.3059  0.2639
  129OSM    H3F13918   5.806   2.039   7.203  1.5452  1.2149  3.2581
  129OSM    H3G13919   5.838   2.215   7.186  0.2696  0.1084 -2.3914
  129OSM    C4F13920   5.675   2.136   7.061  0.0244 -0.0265 -0.6735
  129OSM    H4F13921   5.683   2.230   7.003  0.0902 -0.1925 -0.9369
  129OSM    H4G13922   5.574   2.095   7.078  0.4956 -0.9234  0.0425
  129OSM    C5F13923   5.731   2.035   6.959 -0.3842 -0.2486 -0.1733
  129OSM    H5F13924   5.693   1.931   6.966  0.0070 -0.4137 -0.4333
  129OSM    H5G13925   5.839   2.028   6.987 -1.0747 -0.5168  2.7172
  129OSM    C6F13926   5.728   2.084   6.811 -0.4340  0.8608  1.0864
  129OSM    H6F13927   5.765   1.998   6.752 -1.5056  0.2559  1.2754
  129OSM    H6G13928   5.793   2.172   6.793 -0.2509  0.1894 -1.9354
  129OSM    C7F13929   5.588   2.126   6.763 -0.0815  1.1110 -0.0828
  129OSM    H7F13930   5.543   2.218   6.806 -0.4244  0.3217  1.3323
  129OSM    H7G13931   5.513   2.047   6.784  0.0482  0.1824 -2.7240
  129OSM    C8F13932   5.584   2.143   6.612  0.4004  0.7985  0.1275
  129OSM    H8F13933   5.488   2.188   6.578 -0.5360 -0.8054  0.5388
  129OSM    H8G13934   5.602   2.040   6.574  0.1285  1.1128 -0.8908
  129OSM    C9F13935   5.696   2.221   6.547  0.1087  0.3065 -0.7808
  129OSM    H9F13936   5.707   2.324   6.586 -0.6995 -0.0300  0.4033
  129OSM   C10F13937   5.784   2.177   6.458 -0.1912 -0.0925 -1.0135
  129OSM   H10F13938   5.858   2.249   6.420 -3.4967  3.1776 -1.8769
  129OSM   C11F13939   5.785   2.050   6.382  0.0110  0.1904  0.3600
  129OSM   H11F13940   5.684   2.005   6.393 -1.0861  2.2981 -0.6510
  129OSM   H11G13941   5.861   1.979   6.423 -0.4854 -1.4639 -1.4290
  129OSM   C12F13942   5.814   2.066   6.233  0.5648 -0.3808  0.8412
  129OSM   H12F13943   5.743   2.141   6.192 -1.2100 -2.3893  0.0739
  129OSM   H12G13944   5.790   1.967   6.188 -0.5249  0.7191 -1.0929
  129OSM   C13F13945   5.956   2.101   6.189  1.0405 -0.5304  0.1059
  129OSM   H13F13946   6.019   2.015   6.220  0.0509 -1.1724  0.3974
  129OSM   H13G13947   5.999   2.186   6.246 -0.7801 -0.3377  1.2795
  129OSM   C14F13948   5.963   2.123   6.039  0.3149  0.5677 -0.3078
  129OSM   H14F13949   5.910   2.030   6.006  2.0827 -0.9759  0.9768
  129OSM   H14G13950   6.069   2.114   6.007  0.5212  1.2832  0.1658
  129OSM   C15F13951   5.907   2.255   5.981 -0.0073  0.0685 -0.5741
  129OSM   H15F13952   5.796   2.254   5.989  0.1117  0.0243  1.2788
  129OSM   H15G13953   5.937   2.267   5.875 -1.5088  0.2545 -1.0121
  129OSM   C16F13954   5.950   2.382   6.058 -0.4000 -0.0875  0.2060
  129OSM   H16F13955   5.946   2.364   6.168 -1.8865 -1.0660  0.0121
  129OSM   H16G13956   5.871   2.453   6.025 -0.4209 -0.1557  0.1112
  129OSM   C17F13957   6.086   2.438   6.030 -0.5373 -0.6146 -0.2121
  129OSM   H17F13958   6.158   2.356   6.046 -0.7054 -0.4562  1.6755
  129OSM   H17G13959   6.094   2.519   6.106 -0.0784  1.1671 -2.0730
  129OSM   C18F13960   6.110   2.488   5.889 -0.0560  0.4359  0.1792
  129OSM   H18F13961   6.044   2.574   5.867  1.6115  1.3993 -1.2897
  129OSM   H18G13962   6.088   2.411   5.812 -2.8166  1.2974 -0.0066
  129OSM   H18H13963   6.210   2.535   5.877  0.1780  1.4505  4.5272
  130OSM      N13964   0.732   4.623   7.731 -0.9276  0.7599  0.3918
  130OSM    C1513965   0.749   4.701   7.603  0.0388 -0.2050 -0.3762
  130OSM   H15A13966   0.649   4.710   7.565 -0.2078 -2.4350 -0.3772
  130OSM   H15B13967   0.821   4.644   7.547  1.4117 -0.9653  1.9936
  130OSM   H15C13968   0.776   4.804   7.621 -1.3809 -0.1033  1.4014
  130OSM    C1413969   0.878   4.582   7.763  0.4133 -0.3794 -0.3598
  130OSM   H14A13970   0.940   4.669   7.779 -0.4355  0.5129 -1.7657
  130OSM   H14B13971   0.923   4.533   7.677 -0.4118  1.5930 -1.9908
  130OSM   H14C13972   0.881   4.522   7.853  0.6647 -1.2411 -0.9238
  130OSM    C1313973   0.665   4.700   7.839  0.3883 -0.4208  0.0197
  130OSM   H13A13974   0.572   4.739   7.800  0.5510  1.4915  1.4503
  130OSM   H13B13975   0.720   4.781   7.884 -0.7505  0.2436  0.2561
  130OSM   H13C13976   0.638   4.633   7.920  1.2045 -0.6553  0.1073
  130OSM    C1213977   0.653   4.502   7.701  0.3106 -0.0149  0.1387
  130OSM   H12A13978   0.664   4.426   7.776  1.0335 -0.4095 -0.3510
  130OSM   H12B13979   0.693   4.462   7.609  0.1868  0.6523 -0.2144
  130OSM    C1113980   0.502   4.522   7.675 -0.0801 -0.1552  0.3346
  130OSM   H11A13981   0.461   4.553   7.774  1.5126 -0.1580  1.0321
  130OSM   H11B13982   0.465   4.423   7.640  1.3734  0.0244 -1.8928
  130OSM      P13983   0.324   4.652   7.531 -0.0102 -0.0583 -0.5820
  130OSM    O1313984   0.254   4.525   7.506  0.9400  0.1571  0.1673
  130OSM    O1413985   0.266   4.745   7.634  0.2677 -0.3850 -0.5560
  130OSM    O1113986   0.337   4.723   7.390 -0.2424  0.2594 -0.7558
  130OSM    O1213987   0.476   4.615   7.569 -0.3187  0.3929 -0.5156
  130OSM    C1S13988   0.427   4.678   7.284  0.4067 -0.5200 -0.2747
  130OSM    H1S13989   0.435   4.567   7.283  2.4502 -0.4073  0.1825
  130OSM    H1T13990   0.522   4.735   7.286 -1.2156  2.4105 -0.9248
  130OSM     NF13991   0.459   4.717   7.040 -0.7891  0.8873  0.1477
  130OSM    HNF13992   0.529   4.788   7.037  0.2183 -0.0856 -0.0924
  130OSM    C2S13993   0.364   4.721   7.147 -0.1132 -0.2805 -0.1487
  130OSM    H2S13994   0.282   4.648   7.126 -1.0252  0.9666 -1.1275
  130OSM    C3S13995   0.306   4.864   7.153 -0.3996 -0.0185 -0.2272
  130OSM    H3S13996   0.386   4.936   7.178 -1.1989  0.7278  0.2383
  130OSM     O313997   0.209   4.880   7.259 -0.0143 -1.1768  0.7836
  130OSM    HO313998   0.206   4.805   7.319  1.5385  0.1083  2.5868
  130OSM    C4S13999   0.239   4.920   7.031 -0.5017  0.5292  0.1212
  130OSM    H4S14000   0.234   4.847   6.949 -0.3193 -0.3300  0.8576
  130OSM    C5S14001   0.208   5.048   7.004 -0.3789 -0.3710  1.0205
  130OSM    H5S14002   0.255   5.128   7.063  0.9089 -0.6364  0.3900
  130OSM    C6S14003   0.140   5.096   6.874 -0.9934  0.1493 -1.0206
  130OSM    H6S14004   0.201   5.181   6.835  0.5566  0.0235  0.9263
  130OSM    H6T14005   0.038   5.135   6.894 -0.7483  1.3171 -1.9636
  130OSM    C7S14006   0.121   5.003   6.756 -0.2051  0.4153 -0.0720
  130OSM    H7S14007   0.060   4.914   6.784  2.6100 -1.8798 -0.7398
  130OSM    H7T14008   0.222   4.964   6.729  0.6222  2.5029 -0.1469
  130OSM    C8S14009   0.070   5.069   6.628  0.1111 -0.4922  0.2333
  130OSM    H8S14010   0.136   5.152   6.595  1.6310 -1.4657  0.7362
  130OSM    H8T14011  -0.034   5.108   6.634 -0.2010 -0.8515 -1.9751
  130OSM    C9S14012   0.058   4.962   6.524  0.0462  0.0325  0.1807
  130OSM    H9S14013  -0.008   4.877   6.551  0.9844 -1.7994 -2.8597
  130OSM    H9T14014   0.158   4.916   6.514 -0.1990 -0.2129 -1.3074
  130OSM   C10S14015   0.009   5.017   6.391  0.6133  0.1106 -0.7919
  130OSM   H10S14016   0.098   5.074   6.355  2.1504  0.4606  3.0221
  130OSM   H10T14017  -0.084   5.075   6.402 -0.0742 -1.1838  0.6103
  130OSM   C11S14018  -0.005   4.900   6.285 -0.5268 -0.3814 -0.4246
  130OSM   H11S14019  -0.104   4.850   6.292 -1.0631  0.3973 -2.0952
  130OSM   H11T14020   0.065   4.820   6.316  0.2956  0.4499 -0.0908
  130OSM   C12S14021   0.016   4.950   6.147 -0.3830 -0.6505  0.8159
  130OSM   H12S14022   0.110   5.004   6.123  0.3747 -3.2683 -3.1079
  130OSM   H12T14023  -0.059   5.027   6.123  0.6269  0.3280  0.7192
  130OSM   C13S14024   0.022   4.839   6.040 -0.4786  0.2963  0.3073
  130OSM   H13S14025  -0.050   4.758   6.065  1.1931 -1.2420  0.3264
  130OSM   H13T14026   0.111   4.776   6.056 -1.1984 -0.9982 -0.6328
  130OSM   C14S14027   0.007   4.882   5.893  0.3358 -0.0014 -0.3302
  130OSM   H14S14028   0.062   4.978   5.896  0.1036  0.1132  1.2919
  130OSM   H14T14029  -0.100   4.898   5.869  0.9990  1.9773 -2.3368
  130OSM   C15S14030   0.066   4.778   5.801 -0.8505  0.1832 -0.0651
  130OSM   H15S14031   0.162   4.740   5.841  0.1286  2.5230 -0.0778
  130OSM   H15T14032   0.087   4.813   5.698 -1.4560  0.0490 -0.2420
  130OSM   C16S14033  -0.020   4.652   5.778  0.1432 -0.4132  0.1683
  130OSM   H16S14034  -0.116   4.681   5.731  0.2892  0.3460  0.3078
  130OSM   H16T14035  -0.040   4.611   5.879 -1.4505  1.0386  0.4912
  130OSM   C17S14036   0.040   4.539   5.694 -0.7192  0.5312 -0.3996
  130OSM   H17S14037  -0.017   4.450   5.730 -1.0328  0.7749 -0.2875
  130OSM   H17T14038   0.145   4.531   5.730 -0.6043  2.6875 -0.1000
  130OSM   C18S14039   0.032   4.541   5.542 -0.2385 -0.0061 -0.5691
  130OSM   H18S14040   0.114   4.606   5.506 -0.8238  1.2997  0.3924
  130OSM   H18T14041  -0.057   4.595   5.503 -0.3223  1.0141  0.9539
  130OSM   H18U14042   0.027   4.438   5.499 -1.9233 -0.4098  0.5037
  130OSM    C1F14043   0.509   4.605   6.986 -0.9588  0.4813  0.2279
  130OSM     OF14044   0.466   4.495   7.014 -0.0069  0.0214 -0.1070
  130OSM    C2F14045   0.615   4.610   6.882 -0.2890  1.3581  0.3352
  130OSM    H2F14046   0.714   4.596   6.930 -1.1645 -0.4923  1.7208
  130OSM    H2G14047   0.613   4.707   6.828 -0.5066  0.9490 -0.3996
  130OSM    C3F14048   0.590   4.502   6.777 -0.2386  0.1342  0.0017
  130OSM    H3F14049   0.489   4.500   6.730  0.2468 -2.2741 -1.1355
  130OSM    H3G14050   0.592   4.405   6.831  1.4707  0.8153  1.2443
  130OSM    C4F14051   0.692   4.489   6.660 -0.4283 -0.2272 -0.9860
  130OSM    H4F14052   0.674   4.397   6.600  2.2102  0.0953 -2.3797
  130OSM    H4G14053   0.793   4.483   6.706 -1.2378  0.5255  1.0126
  130OSM    C5F14054   0.680   4.611   6.563 -0.1586 -0.0772 -0.3149
  130OSM    H5F14055   0.717   4.699   6.620  1.6111 -0.6574 -0.5152
  130OSM    H5G14056   0.573   4.638   6.547  0.1485  1.8734  0.5623
  130OSM    C6F14057   0.765   4.587   6.440  0.0384 -0.6334 -0.2644
  130OSM    H6F14058   0.871   4.569   6.466 -0.0944 -0.4204  0.4579
  130OSM    H6G14059   0.770   4.687   6.391 -0.4785 -0.3808  0.1890
  130OSM    C7F14060   0.710   4.489   6.340 -0.3209  0.0889  0.1616
  130OSM    H7F14061   0.617   4.530   6.295 -0.2418  0.4479  0.3309
  130OSM    H7G14062   0.682   4.396   6.394 -0.9837 -1.0613 -2.0360
  130OSM    C8F14063   0.812   4.436   6.233  0.2199  0.2812  0.2107
  130OSM    H8F14064   0.904   4.397   6.281  1.0631  0.9003 -0.8482
  130OSM    H8G14065   0.853   4.523   6.178  1.2304 -0.4170 -0.1631
  130OSM    C9F14066   0.741   4.338   6.143  0.2455  0.1507 -0.8792
  130OSM    H9F14067   0.674   4.268   6.196 -0.1583 -0.5638 -2.2978
  130OSM   C10F14068   0.753   4.335   6.010  0.0279 -0.5538 -0.0904
  130OSM   H10F14069   0.692   4.260   5.959  0.6718 -1.3615  0.3057
  130OSM   C11F14070   0.845   4.422   5.927 -0.5578 -0.5598  0.1675
  130OSM   H11F14071   0.921   4.471   5.990 -0.5431  1.2630 -1.2050
  130OSM   H11G14072   0.792   4.512   5.889  0.4014  0.1401  0.4567
  130OSM   C12F14073   0.916   4.354   5.809 -0.1449  0.1126 -0.2326
  130OSM   H12F14074   0.987   4.281   5.855 -0.9783 -1.2162 -0.9861
  130OSM   H12G14075   0.976   4.425   5.750  0.4819 -0.3648 -0.1816
  130OSM   C13F14076   0.821   4.291   5.713 -1.3950 -0.6294  0.0421
  130OSM   H13F14077   0.783   4.369   5.643 -0.5528 -1.7103 -1.6926
  130OSM   H13G14078   0.739   4.236   5.764 -0.4644  0.1594  2.5567
  130OSM   C14F14079   0.895   4.185   5.642 -0.6888  0.1963 -0.2507
  130OSM   H14F14080   0.934   4.112   5.716  0.0944  2.7059  1.9644
  130OSM   H14G14081   0.987   4.220   5.590  0.0694 -1.7814 -0.3617
  130OSM   C15F14082   0.804   4.116   5.541  0.0945  0.1506  1.0055
  130OSM   H15F14083   0.746   4.191   5.483  2.5792  0.4418 -1.2786
  130OSM   H15G14084   0.731   4.044   5.584 -0.5506  0.7594  0.9519
  130OSM   C16F14085   0.880   4.036   5.434  0.9344  0.6893  0.0770
  130OSM   H16F14086   0.963   4.093   5.388  1.9602  0.5359  1.6644
  130OSM   H16G14087   0.802   4.022   5.356  0.0553  2.2626  0.6288
  130OSM   C17F14088   0.917   3.900   5.478  0.4965  0.5819 -0.8960
  130OSM   H17F14089   0.826   3.837   5.490 -0.4633  2.3032  1.6844
  130OSM   H17G14090   0.973   3.918   5.573 -0.9239 -0.4165  0.1709
  130OSM   C18F14091   1.017   3.830   5.383 -0.0542 -0.1816 -0.7415
  130OSM   H18F14092   1.035   3.724   5.410  2.0328  0.4752  0.7011
  130OSM   H18G14093   1.113   3.880   5.409 -0.0539 -1.1272  1.2165
  130OSM   H18H14094   0.992   3.845   5.275 -0.7926 -0.2855 -0.5879
  131OSM      N14095   0.619   5.774   7.733  0.4460 -0.8082 -0.5277
  131OSM    C1514096   0.633   5.911   7.798 -0.1716  0.1332 -0.3503
  131OSM   H15A14097   0.660   5.908   7.903 -2.2157 -2.9946  0.2201
  131OSM   H15B14098   0.537   5.960   7.791 -0.5655 -0.4492  0.7843
  131OSM   H15C14099   0.707   5.975   7.751  1.6655  1.2807  3.6538
  131OSM    C1414100   0.752   5.718   7.707 -0.6949 -0.4126  0.0324
  131OSM   H14A14101   0.738   5.617   7.673 -2.1337  0.3068 -1.6479
  131OSM   H14B14102   0.802   5.710   7.803 -1.1360  0.2416  0.3280
  131OSM   H14C14103   0.803   5.769   7.627 -2.4802 -1.2270 -1.6935
  131OSM    C1314104   0.544   5.677   7.825 -0.2605 -0.3123 -0.1351
  131OSM   H13A14105   0.440   5.705   7.835  0.0706  0.5638  1.1129
  131OSM   H13B14106   0.586   5.661   7.923 -1.3645  1.3482  0.6573
  131OSM   H13C14107   0.546   5.587   7.765 -1.5416 -0.0954 -0.5199
  131OSM    C1214108   0.548   5.793   7.601  0.0214  0.0033  0.9638
  131OSM   H12A14109   0.544   5.696   7.552  3.1184  0.6459 -0.8043
  131OSM   H12B14110   0.606   5.861   7.540 -0.6706  0.1646  0.4612
  131OSM    C1114111   0.413   5.864   7.597 -0.7513  0.1415 -0.5714
  131OSM   H11A14112   0.344   5.830   7.677  1.1493 -3.1245 -0.1144
  131OSM   H11B14113   0.354   5.844   7.504 -0.1149 -1.7077 -0.6287
  131OSM      P14114   0.335   6.116   7.563 -0.3126 -0.0721  0.3826
  131OSM    O1314115   0.209   6.092   7.637  0.2426 -0.7373  0.0424
  131OSM    O1414116   0.395   6.254   7.581  0.1376  0.2440 -0.0356
  131OSM    O1114117   0.299   6.085   7.414  0.0817 -0.3494  0.4880
  131OSM    O1214118   0.434   6.001   7.604  0.5882 -0.3184  0.0586
  131OSM    C1S14119   0.279   6.182   7.314  0.0146 -0.4366  0.2782
  131OSM    H1S14120   0.328   6.274   7.353 -0.5509 -0.7710  1.8383
  131OSM    H1T14121   0.170   6.194   7.296  0.3404  0.4094 -1.3782
  131OSM     NF14122   0.340   6.248   7.082 -0.3354 -0.5051  0.0839
  131OSM    HNF14123   0.261   6.249   7.021  0.4293 -0.6747 -0.9309
  131OSM    C2S14124   0.340   6.135   7.184 -0.1585  0.2354 -0.3609
  131OSM    H2S14125   0.446   6.107   7.205 -0.7518 -0.4268  2.0613
  131OSM    C3S14126   0.278   6.007   7.131  0.3096  0.4090  0.2831
  131OSM    H3S14127   0.167   6.008   7.121  0.3239  2.2736 -0.1480
  131OSM     O314128   0.295   5.895   7.220  0.2458 -0.5392  0.0441
  131OSM    HO314129   0.335   5.934   7.298  0.6510 -0.9410  0.0441
  131OSM    C4S14130   0.355   5.961   7.013 -0.5911 -0.6593 -0.1576
  131OSM    H4S14131   0.452   5.917   7.039 -0.3609  0.1385  0.3585
  131OSM    C5S14132   0.331   5.962   6.882  0.1541 -0.1308  0.2264
  131OSM    H5S14133   0.237   6.006   6.845  0.7792  0.5604 -0.5748
  131OSM    C6S14134   0.407   5.902   6.770 -0.5250 -0.2173  0.0229
  131OSM    H6S14135   0.341   5.838   6.708 -0.5145  1.2554 -1.5973
  131OSM    H6T14136   0.479   5.826   6.807 -0.3095  1.0814  2.4919
  131OSM    C7S14137   0.477   6.007   6.686 -0.0422  0.0482  0.0170
  131OSM    H7S14138   0.573   6.036   6.734  0.8535 -0.2232 -1.5147
  131OSM    H7T14139   0.423   6.104   6.685 -0.4993 -0.1662  1.6385
  131OSM    C8S14140   0.507   5.959   6.542  0.0974 -0.1809  0.3578
  131OSM    H8S14141   0.544   5.855   6.553  1.0069 -0.0441 -1.1572
  131OSM    H8T14142   0.584   6.027   6.501 -1.2202  1.3609  0.3419
  131OSM    C9S14143   0.388   5.964   6.443  0.1469 -0.4277  0.4892
  131OSM    H9S14144   0.328   6.057   6.448 -0.1453 -0.5824 -0.0462
  131OSM    H9T14145   0.308   5.894   6.476 -0.1567 -0.4440 -0.2533
  131OSM   C10S14146   0.416   5.935   6.295  0.7532 -0.0056 -0.4791
  131OSM   H10S14147   0.480   5.845   6.285 -1.2084 -1.8098  1.9196
  131OSM   H10T14148   0.466   6.022   6.247 -0.3368  0.7317 -0.3249
  131OSM   C11S14149   0.280   5.918   6.221 -0.1117  0.8296 -0.3474
  131OSM   H11S14150   0.205   5.976   6.278  0.8539  1.3265  0.4651
  131OSM   H11T14151   0.250   5.813   6.243  2.6667 -0.3535 -1.6392
  131OSM   C12S14152   0.285   5.944   6.075  0.2413  0.8158  0.6735
  131OSM   H12S14153   0.387   5.922   6.038  0.8598  2.5854  1.2263
  131OSM   H12T14154   0.285   6.054   6.060  0.4728  1.1672  2.8296
  131OSM   C13S14155   0.170   5.869   6.000  0.2841  0.9145  0.2579
  131OSM   H13S14156   0.074   5.888   6.053  0.0105 -1.9923  0.9668
  131OSM   H13T14157   0.191   5.760   6.007 -3.0936  0.2032  0.9709
  131OSM   C14S14158   0.149   5.894   5.847 -0.5666 -0.9178  0.0847
  131OSM   H14S14159   0.106   5.995   5.832  0.5397 -0.3497  0.6065
  131OSM   H14T14160   0.077   5.820   5.804 -0.6033 -0.5432 -0.5087
  131OSM   C15S14161   0.271   5.895   5.755  0.1768  0.3713  0.3754
  131OSM   H15S14162   0.294   5.794   5.716 -1.8804  1.3614 -4.0526
  131OSM   H15T14163   0.362   5.927   5.811  2.3619 -1.3282 -1.9905
  131OSM   C16S14164   0.246   5.988   5.638 -0.6252 -0.5067 -0.3453
  131OSM   H16S14165   0.231   6.089   5.681  2.6104 -0.8634  2.0171
  131OSM   H16T14166   0.152   5.944   5.597  0.2356 -2.9603  0.1219
  131OSM   C17S14167   0.362   5.980   5.541 -0.0981  0.4354  0.7247
  131OSM   H17S14168   0.377   5.877   5.501  1.2424  1.3485 -1.2282
  131OSM   H17T14169   0.451   6.030   5.583 -0.2791  2.2102 -0.8737
  131OSM   C18S14170   0.338   6.063   5.415 -0.3699  0.5154 -0.4140
  131OSM   H18S14171   0.344   6.170   5.443  2.0954  0.9261 -2.1481
  131OSM   H18T14172   0.240   6.044   5.366  0.7963 -0.8437 -2.3248
  131OSM   H18U14173   0.425   6.046   5.348 -0.0824  1.0369 -0.1772
  131OSM    C1F14174   0.408   6.359   7.103 -0.2053 -0.4931  0.1390
  131OSM     OF14175   0.491   6.361   7.188  0.2776  0.4015 -0.5915
  131OSM    C2F14176   0.361   6.486   7.034  0.5991 -0.3032  0.4218
  131OSM    H2F14177   0.345   6.561   7.115  0.9798  0.9068 -0.5912
  131OSM    H2G14178   0.271   6.462   6.974 -1.4878 -0.0755  3.2360
  131OSM    C3F14179   0.473   6.537   6.947 -0.4979  0.0741 -0.1719
  131OSM    H3F14180   0.566   6.533   7.007  0.9477 -0.3905 -2.3377
  131OSM    H3G14181   0.472   6.644   6.918  0.3116  0.5480  1.4020
  131OSM    C4F14182   0.481   6.458   6.814  0.8073  0.1084 -0.0054
  131OSM    H4F14183   0.388   6.474   6.755 -0.8894 -0.5636  2.3212
  131OSM    H4G14184   0.482   6.348   6.829 -2.1700  0.1444  1.2941
  131OSM    C5F14185   0.585   6.506   6.721 -0.7763 -0.2567 -0.5674
  131OSM    H5F14186   0.686   6.495   6.768 -2.0682 -1.1039  2.2707
  131OSM    H5G14187   0.563   6.613   6.703 -0.6552  0.2923  2.0753
  131OSM    C6F14188   0.586   6.424   6.592  0.3824  0.0735  0.4507
  131OSM    H6F14189   0.492   6.437   6.534  0.7731 -0.9566 -0.4602
  131OSM    H6G14190   0.572   6.316   6.615 -2.4823 -0.1177 -1.5623
  131OSM    C7F14191   0.712   6.448   6.504 -0.5565 -0.1022 -1.0916
  131OSM    H7F14192   0.797   6.404   6.561  0.1292  2.3894 -0.0791
  131OSM    H7G14193   0.744   6.553   6.486  0.0759  0.3600  2.1908
  131OSM    C8F14194   0.710   6.364   6.368  0.4075 -0.1247  0.1051
  131OSM    H8F14195   0.672   6.264   6.395 -2.5157  0.7076 -0.5841
  131OSM    H8G14196   0.818   6.350   6.350  0.3593  0.9063 -1.0791
  131OSM    C9F14197   0.647   6.421   6.241 -0.4583 -0.1784  0.4949
  131OSM    H9F14198   0.584   6.508   6.266 -1.3729 -0.7489  0.2010
  131OSM   C10F14199   0.664   6.385   6.116 -0.0586  0.5320 -0.1849
  131OSM   H10F14200   0.611   6.434   6.033 -0.0717  1.2966  0.2656
  131OSM   C11F14201   0.745   6.272   6.062 -0.2640 -0.9819 -0.4908
  131OSM   H11F14202   0.782   6.218   6.152 -2.2589 -0.1776  0.8890
  131OSM   H11G14203   0.825   6.314   5.997 -0.9956  0.0118 -0.7796
  131OSM   C12F14204   0.660   6.159   5.996 -0.4482 -0.2576 -0.5780
  131OSM   H12F14205   0.582   6.128   6.069  2.0634  0.3404  2.5629
  131OSM   H12G14206   0.722   6.071   5.968  2.3046  1.2714  0.3639
  131OSM   C13F14207   0.591   6.200   5.862  0.8542 -0.0909 -0.1042
  131OSM   H13F14208   0.521   6.272   5.909  0.2481 -1.9538  2.0463
  131OSM   H13G14209   0.536   6.115   5.816 -0.7553  0.9858 -0.2646
  131OSM   C14F14210   0.686   6.259   5.757  0.0945  0.6883  0.4995
  131OSM   H14F14211   0.743   6.345   5.800  0.4138  0.3373  0.7875
  131OSM   H14G14212   0.623   6.287   5.670 -1.1587 -0.3394  1.0499
  131OSM   C15F14213   0.802   6.171   5.704  0.0740 -0.1037  0.4097
  131OSM   H15F14214   0.758   6.091   5.641 -1.3825  1.2763 -0.3985
  131OSM   H15G14215   0.871   6.127   5.779  0.1861 -1.9055 -0.7020
  131OSM   C16F14216   0.899   6.255   5.610  0.3493  0.1664  0.2397
  131OSM   H16F14217   0.961   6.174   5.566 -2.0358 -1.4386 -0.3699
  131OSM   H16G14218   0.963   6.323   5.671  0.5821  3.0342 -2.9097
  131OSM   C17F14219   0.833   6.325   5.489 -0.0669 -0.5357  0.0604
  131OSM   H17F14220   0.760   6.402   5.524 -1.9302 -1.5906 -1.2861
  131OSM   H17G14221   0.786   6.252   5.419  1.4117 -0.5198 -0.9870
  131OSM   C18F14222   0.938   6.385   5.397  0.0459 -0.2843  0.3486
  131OSM   H18F14223   1.004   6.457   5.451  1.0584 -2.1654  1.7664
  131OSM   H18G14224   0.902   6.450   5.315 -3.1597 -2.4132 -0.0832
  131OSM   H18H14225   1.005   6.316   5.340  1.0703  0.9339  0.0290
  132OSM      N14226   1.718   2.215   7.858 -0.1061  0.5795 -0.6120
  132OSM    C1514227   1.863   2.188   7.892  0.9185  0.2643  0.0557
  132OSM   H15A14228   1.884   2.087   7.859 -2.7848 -0.4876 -0.5094
  132OSM   H15B14229   1.884   2.186   7.998 -0.3011  1.0920  0.3284
  132OSM   H15C14230   1.917   2.260   7.832 -1.0389  1.3126 -0.5372
  132OSM    C1414231   1.619   2.117   7.916 -0.8236 -0.4621 -0.5498
  132OSM   H14A14232   1.639   2.099   8.021  1.2185 -0.6907 -0.9465
  132OSM   H14B14233   1.617   2.021   7.865  1.1727 -1.3365  0.8820
  132OSM   H14C14234   1.519   2.155   7.904 -0.9986 -0.4600  0.7549
  132OSM    C1314235   1.688   2.348   7.915  0.2129  0.7941 -0.2941
  132OSM   H13A14236   1.598   2.380   7.866 -0.8552 -0.6633  0.6377
  132OSM   H13B14237   1.760   2.424   7.889  1.9822 -0.5345  0.4684
  132OSM   H13C14238   1.677   2.357   8.022 -0.6437 -0.4185 -0.2522
  132OSM    C1214239   1.689   2.209   7.707  0.6391 -0.2275  0.6886
  132OSM   H12A14240   1.721   2.115   7.663 -0.0683  0.2781 -0.9649
  132OSM   H12B14241   1.739   2.286   7.651 -0.0644  0.2205  0.6698
  132OSM    C1114242   1.540   2.225   7.654  0.6065 -0.3191  0.2542
  132OSM   H11A14243   1.480   2.137   7.687  0.7621 -0.5846 -0.1548
  132OSM   H11B14244   1.539   2.230   7.543 -0.6633  0.3424  0.2802
  132OSM      P14245   1.342   2.357   7.779 -0.1347  0.0813  0.0033
  132OSM    O1314246   1.343   2.262   7.893  0.5293  0.3055  0.4085
  132OSM    O1414247   1.332   2.499   7.810  0.4614 -0.3302 -0.3250
  132OSM    O1114248   1.230   2.321   7.676 -0.7400 -0.2538 -0.6455
  132OSM    O1214249   1.477   2.345   7.698 -0.5084  0.3963  0.3398
  132OSM    C1S14250   1.218   2.401   7.559  0.4466  1.1220 -0.0029
  132OSM    H1S14251   1.300   2.375   7.489  0.6747 -0.4520  0.7907
  132OSM    H1T14252   1.194   2.507   7.582 -1.0892  0.9059 -0.5059
  132OSM     NF14253   1.108   2.379   7.343 -0.2699  0.2211  0.1005
  132OSM    HNF14254   1.072   2.469   7.320  1.9217  2.7607  4.9436
  132OSM    C2S14255   1.090   2.358   7.486  0.3509 -0.5706  0.4021
  132OSM    H2S14256   1.085   2.249   7.506  1.0804 -0.6200  0.3328
  132OSM    C3S14257   0.964   2.427   7.551  0.3351  0.1425  0.1088
  132OSM    H3S14258   0.969   2.535   7.527 -0.7975  0.1189 -0.3247
  132OSM     O314259   0.944   2.409   7.691 -0.1520 -0.0928  0.1915
  132OSM    HO314260   1.022   2.359   7.716  0.4161 -0.3290 -1.9153
  132OSM    C4S14261   0.834   2.378   7.490 -0.2195  0.3338  0.2415
  132OSM    H4S14262   0.840   2.268   7.496  2.3044  0.4903  2.3688
  132OSM    C5S14263   0.732   2.446   7.442  0.5676 -0.1015 -0.2878
  132OSM    H5S14264   0.727   2.556   7.444  0.8258 -0.0963  0.7371
  132OSM    C6S14265   0.595   2.398   7.403  0.3125 -0.4006  0.1276
  132OSM    H6S14266   0.524   2.426   7.484  0.3620 -1.1016  0.4135
  132OSM    H6T14267   0.598   2.287   7.408  3.1825 -0.4078 -0.0453
  132OSM    C7S14268   0.550   2.448   7.264 -0.0666 -0.8708 -0.3904
  132OSM    H7S14269   0.543   2.558   7.249  0.5343 -0.8474 -0.5025
  132OSM    H7T14270   0.444   2.419   7.250 -1.7800  2.1002  4.0089
  132OSM    C8S14271   0.630   2.386   7.150 -0.5527 -0.7562 -0.1692
  132OSM    H8S14272   0.652   2.279   7.170  0.9517 -1.2394 -3.6404
  132OSM    H8T14273   0.726   2.439   7.133  0.6260 -2.5909  0.4287
  132OSM    C9S14274   0.562   2.418   7.013  0.3747  0.4314 -0.5068
  132OSM    H9S14275   0.549   2.529   7.008  0.1607  0.3646 -1.7688
  132OSM    H9T14276   0.462   2.370   7.012 -0.2257  1.5607 -2.6018
  132OSM   C10S14277   0.651   2.377   6.892 -0.1804  0.2169  0.2907
  132OSM   H10S14278   0.691   2.275   6.911  1.7809  0.7177 -0.9042
  132OSM   H10T14279   0.745   2.434   6.882  0.0750 -0.3319 -0.5142
  132OSM   C11S14280   0.563   2.366   6.753  0.7210 -0.2356  0.0236
  132OSM   H11S14281   0.518   2.464   6.725 -0.0052 -1.3048 -2.9549
  132OSM   H11T14282   0.475   2.304   6.781 -0.9361  2.2414  0.6833
  132OSM   C12S14283   0.653   2.316   6.638 -0.1287 -0.1492 -0.2874
  132OSM   H12S14284   0.655   2.207   6.660  0.1418 -0.1800 -0.4612
  132OSM   H12T14285   0.752   2.364   6.648 -0.0500 -0.6168  1.3218
  132OSM   C13S14286   0.607   2.329   6.492  0.5432  0.6433  0.4112
  132OSM   H13S14287   0.594   2.435   6.462 -2.2633  1.1851  3.0379
  132OSM   H13T14288   0.503   2.291   6.485  0.5967  0.6162 -0.3925
  132OSM   C14S14289   0.691   2.265   6.382 -0.0597  0.2009  0.6279
  132OSM   H14S14290   0.669   2.156   6.391  1.6952 -0.3748 -1.3379
  132OSM   H14T14291   0.794   2.299   6.401  0.0012  0.1171  0.4515
  132OSM   C15S14292   0.641   2.306   6.247  0.4139  0.0803  0.6076
  132OSM   H15S14293   0.636   2.416   6.230 -1.7663 -0.0116  0.3657
  132OSM   H15T14294   0.534   2.277   6.243  0.6227 -0.6886  0.4741
  132OSM   C16S14295   0.718   2.230   6.135 -0.2160 -0.5785  0.6224
  132OSM   H16S14296   0.723   2.126   6.173 -0.3884 -0.8569 -0.1019
  132OSM   H16T14297   0.821   2.270   6.136 -0.0783 -0.9069  1.7192
  132OSM   C17S14298   0.630   2.227   6.018 -0.0285 -0.6623  0.0573
  132OSM   H17S14299   0.616   2.335   5.996  1.9189 -0.3203  0.2575
  132OSM   H17T14300   0.533   2.190   6.056  0.5746 -0.1229  2.2507
  132OSM   C18S14301   0.686   2.153   5.892 -0.0861  0.1258 -0.2187
  132OSM   H18S14302   0.603   2.135   5.820 -1.8917  1.1528  1.5130
  132OSM   H18T14303   0.737   2.060   5.928 -0.8899  0.7112  2.6598
  132OSM   H18U14304   0.761   2.226   5.854  0.5790 -1.2132 -1.6193
  132OSM    C1F14305   1.199   2.315   7.260  0.6994 -0.2529 -0.1774
  132OSM     OF14306   1.266   2.216   7.300  0.6236 -0.5834 -0.3854
  132OSM    C2F14307   1.222   2.369   7.121  0.2462 -0.0958 -0.1350
  132OSM    H2F14308   1.266   2.471   7.126 -0.5320  0.2864 -0.7795
  132OSM    H2G14309   1.117   2.374   7.084 -0.1374  1.4742  1.0448
  132OSM    C3F14310   1.289   2.270   7.028  0.6010  0.0305 -0.6533
  132OSM    H3F14311   1.259   2.166   7.053 -0.0579 -0.1778 -2.1662
  132OSM    H3G14312   1.396   2.264   7.057  0.0134  0.3643  1.7352
  132OSM    C4F14313   1.280   2.276   6.873  0.3788 -0.1448 -0.3072
  132OSM    H4F14314   1.302   2.375   6.829 -2.6861  1.2985  1.0971
  132OSM    H4G14315   1.173   2.271   6.843  0.8476 -2.6914 -1.9021
  132OSM    C5F14316   1.350   2.159   6.809  0.2525  0.1915 -0.6346
  132OSM    H5F14317   1.303   2.062   6.835  0.9138  0.2907  1.0370
  132OSM    H5G14318   1.457   2.156   6.840  0.0891  0.8702  0.0119
  132OSM    C6F14319   1.358   2.159   6.649  0.9068 -0.0232  0.0884
  132OSM    H6F14320   1.255   2.178   6.613  0.8204  0.3808  0.5415
  132OSM    H6G14321   1.390   2.062   6.605 -0.6831 -1.1063  1.2401
  132OSM    C7F14322   1.449   2.270   6.601  0.6540  0.4170 -0.3034
  132OSM    H7F14323   1.550   2.258   6.648  0.6963 -0.3242 -0.5763
  132OSM    H7G14324   1.418   2.371   6.636 -0.1440 -0.9143  3.2472
  132OSM    C8F14325   1.463   2.257   6.449  0.3873  0.4084 -0.0135
  132OSM    H8F14326   1.359   2.266   6.413  0.3655  0.2997  0.0204
  132OSM    H8G14327   1.484   2.156   6.406 -0.9004  0.0102  0.2408
  132OSM    C9F14328   1.559   2.356   6.393 -0.2895 -0.2941 -0.2379
  132OSM    H9F14329   1.637   2.397   6.459 -1.1564  0.6204  0.2269
  132OSM   C10F14330   1.548   2.417   6.273 -0.4648 -0.3197  0.0492
  132OSM   H10F14331   1.616   2.503   6.260  0.8164 -1.1368  1.0467
  132OSM   C11F14332   1.450   2.397   6.160 -0.2983  0.5072  0.3013
  132OSM   H11F14333   1.437   2.497   6.115  0.8161  0.0850 -0.9966
  132OSM   H11G14334   1.355   2.346   6.188 -0.4761 -0.0258 -1.1829
  132OSM   C12F14335   1.500   2.302   6.049 -0.0498  0.0004 -0.1119
  132OSM   H12F14336   1.516   2.204   6.100 -2.0830 -0.3094 -0.0134
  132OSM   H12G14337   1.590   2.356   6.011 -1.0767  1.2404 -0.8656
  132OSM   C13F14338   1.394   2.274   5.937  0.0286 -0.2570  0.0372
  132OSM   H13F14339   1.329   2.363   5.930 -1.6394 -1.5501 -2.4918
  132OSM   H13G14340   1.324   2.194   5.970 -0.3861  0.5722  1.2404
  132OSM   C14F14341   1.470   2.245   5.802  0.9252 -0.2130 -0.0933
  132OSM   H14F14342   1.534   2.155   5.809 -0.1271 -1.0997 -1.4874
  132OSM   H14G14343   1.538   2.332   5.784  1.5033 -1.1273 -2.7239
  132OSM   C15F14344   1.376   2.243   5.679 -0.5280  0.2706 -0.3981
  132OSM   H15F14345   1.308   2.331   5.678 -0.3040  0.4618 -1.8696
  132OSM   H15G14346   1.303   2.160   5.685 -1.6347  1.2783  0.4970
  132OSM   C16F14347   1.461   2.233   5.551 -0.2580 -0.2848 -0.3738
  132OSM   H16F14348   1.525   2.142   5.557 -0.7719 -0.5906  0.7839
  132OSM   H16G14349   1.521   2.326   5.539 -0.4774  0.5230  3.5275
  132OSM   C17F14350   1.379   2.209   5.423  0.5792  0.0908  0.1428
  132OSM   H17F14351   1.306   2.291   5.405 -0.5818 -0.4243  2.2658
  132OSM   H17G14352   1.321   2.114   5.424  0.6840  0.0220 -0.1259
  132OSM   C18F14353   1.467   2.211   5.298 -0.8445  0.6810 -0.3549
  132OSM   H18F14354   1.504   2.311   5.267  0.2188 -0.1214 -1.7695
  132OSM   H18G14355   1.420   2.164   5.209 -1.5110  1.3830 -0.3830
  132OSM   H18H14356   1.558   2.151   5.321 -2.4131 -3.2694 -3.2490
  133OSM      N14357   5.165   3.182   7.277  0.3015  0.3936  0.2144
  133OSM    C1514358   5.183   3.061   7.190 -0.5671  0.0970  0.4100
  133OSM   H15A14359   5.091   3.040   7.138  0.1486 -2.0151 -0.1133
  133OSM   H15B14360   5.212   2.974   7.247  1.5977  0.4728 -0.0030
  133OSM   H15C14361   5.253   3.079   7.109  0.3084  0.8435  1.3059
  133OSM    C1414362   5.126   3.301   7.191  0.1775  0.0970  0.3437
  133OSM   H14A14363   5.036   3.289   7.132 -1.2541  3.6514  1.5196
  133OSM   H14B14364   5.204   3.319   7.119 -1.8826 -0.2115 -2.1347
  133OSM   H14C14365   5.112   3.388   7.254 -1.8962 -1.5730  2.3745
  133OSM    C1314366   5.058   3.144   7.365 -0.5728 -0.2054  0.5336
  133OSM   H13A14367   5.069   3.060   7.431 -0.2513  1.6811  3.0396
  133OSM   H13B14368   4.964   3.137   7.312 -1.7120  0.8846  2.2760
  133OSM   H13C14369   5.044   3.223   7.438  0.7070  1.0864 -0.5502
  133OSM    C1214370   5.292   3.202   7.362 -0.4823  0.0272 -0.0526
  133OSM   H12A14371   5.311   3.117   7.426  1.9160 -0.8117 -1.6983
  133OSM   H12B14372   5.272   3.292   7.417 -0.2475  1.5547 -2.3458
  133OSM    C1114373   5.429   3.225   7.293  0.7443  0.8668  0.5099
  133OSM   H11A14374   5.419   3.323   7.242  0.2004  0.5532  0.0068
  133OSM   H11B14375   5.454   3.140   7.226 -1.0020  0.2186  0.6238
  133OSM      P14376   5.663   3.288   7.393  0.1306  0.2816 -0.2111
  133OSM    O1314377   5.655   3.434   7.372  0.1619 -0.6298  0.5597
  133OSM    O1414378   5.727   3.239   7.514  0.4405  0.0933 -0.8034
  133OSM    O1114379   5.718   3.225   7.263  0.7817 -0.5063  0.4136
  133OSM    O1214380   5.523   3.228   7.395  0.0586  0.5813  0.1572
  133OSM    C1S14381   5.718   3.297   7.139  0.8514 -0.0717 -0.4246
  133OSM    H1S14382   5.779   3.388   7.153  0.3506  0.0720  0.9784
  133OSM    H1T14383   5.619   3.324   7.095 -0.7373 -3.1538  0.9376
  133OSM     NF14384   5.840   3.293   6.929 -0.5957 -1.0521  0.2697
  133OSM    HNF14385   5.803   3.262   6.842  0.7504  0.6313 -0.9753
  133OSM    C2S14386   5.807   3.211   7.040 -0.1624 -0.4333 -0.1862
  133OSM    H2S14387   5.900   3.182   7.094 -0.8418 -0.8570  0.7821
  133OSM    C3S14388   5.738   3.076   7.006 -0.0188  0.1302  0.5337
  133OSM    H3S14389   5.653   3.108   6.941  0.4933  1.5332  0.5206
  133OSM     O314390   5.677   3.003   7.114  0.2102  0.1597  0.0824
  133OSM    HO314391   5.682   3.062   7.190 -0.4215  1.2580 -0.7153
  133OSM    C4S14392   5.804   2.987   6.901  0.3242  0.3288 -0.0617
  133OSM    H4S14393   5.772   3.014   6.800 -0.3433 -2.4237 -0.6723
  133OSM    C5S14394   5.875   2.873   6.918  0.5530  0.3937 -0.1546
  133OSM    H5S14395   5.886   2.820   7.013 -0.0020 -1.2143 -0.9463
  133OSM    C6S14396   5.931   2.803   6.796  0.0722 -0.4166 -0.1479
  133OSM    H6S14397   5.897   2.697   6.793 -0.8918 -0.1414  0.5352
  133OSM    H6T14398   6.041   2.818   6.794  0.0385 -0.1266 -2.4991
  133OSM    C7S14399   5.892   2.861   6.656  0.6834  0.4663  0.8257
  133OSM    H7S14400   5.925   2.968   6.656  0.0343  0.6765  1.3650
  133OSM    H7T14401   5.782   2.859   6.643  0.6653  1.3824  0.7398
  133OSM    C8S14402   5.959   2.778   6.544  0.1213 -0.2443  0.5934
  133OSM    H8S14403   5.905   2.681   6.534 -1.3094  0.5964 -0.0216
  133OSM    H8T14404   6.063   2.746   6.568  0.9416  1.7918 -0.0365
  133OSM    C9S14405   5.948   2.859   6.409  0.4155  0.1667 -0.4795
  133OSM    H9S14406   6.009   2.952   6.413 -1.4659  1.4015  1.3347
  133OSM    H9T14407   5.847   2.904   6.398 -0.7116 -1.7643  1.1657
  133OSM   C10S14408   5.987   2.774   6.287 -0.5335  0.4014 -0.0626
  133OSM   H10S14409   5.923   2.683   6.285 -0.2683  0.1348  1.7470
  133OSM   H10T14410   6.088   2.729   6.299 -0.6874  0.2136  0.5624
  133OSM   C11S14411   5.999   2.850   6.156 -0.0285 -0.3491  0.2050
  133OSM   H11S14412   5.952   2.950   6.167 -0.6166 -0.8433  3.2013
  133OSM   H11T14413   5.948   2.790   6.078  1.6493  0.8213 -1.9191
  133OSM   C12S14414   6.136   2.884   6.091 -0.0202 -0.1327  0.1546
  133OSM   H12S14415   6.180   2.783   6.082 -1.1049 -0.9681  2.9798
  133OSM   H12T14416   6.203   2.952   6.148  0.6493 -1.2962  0.7821
  133OSM   C13S14417   6.117   2.936   5.945 -0.1538 -0.2284  0.2141
  133OSM   H13S14418   6.089   3.044   5.947 -0.5678 -0.2772 -1.3978
  133OSM   H13T14419   6.032   2.879   5.901 -1.5527  2.8507 -1.3969
  133OSM   C14S14420   6.245   2.926   5.864  0.0355  0.3132  0.2640
  133OSM   H14S14421   6.286   2.823   5.868 -0.7256 -0.0288 -0.4426
  133OSM   H14T14422   6.314   3.002   5.906 -0.7877  0.0107  2.2875
  133OSM   C15S14423   6.220   2.952   5.714 -0.4776  0.6197  0.0807
  133OSM   H15S14424   6.170   3.052   5.710  0.2395  1.0211  0.8304
  133OSM   H15T14425   6.151   2.869   5.690  0.4326  0.9026 -4.4777
  133OSM   C16S14426   6.339   2.945   5.623 -0.2450 -0.4101 -0.3056
  133OSM   H16S14427   6.403   2.856   5.641  0.0185  0.0252  1.1081
  133OSM   H16T14428   6.409   3.023   5.660  1.3120 -1.8763 -0.0186
  133OSM   C17S14429   6.288   2.946   5.484  0.4592 -0.4300 -0.1989
  133OSM   H17S14430   6.270   3.054   5.464 -0.7399 -0.6638 -0.4535
  133OSM   H17T14431   6.193   2.890   5.470  0.4942 -0.8711  1.1665
  133OSM   C18S14432   6.391   2.893   5.385 -0.1824 -0.0277  0.1866
  133OSM   H18S14433   6.414   2.786   5.405  1.9095 -0.2094 -2.5711
  133OSM   H18T14434   6.484   2.955   5.379 -0.3022  0.0276 -4.0219
  133OSM   H18U14435   6.339   2.902   5.288 -1.1824  1.1128  0.7871
  133OSM    C1F14436   5.929   3.389   6.945 -0.4728  0.0286  0.6519
  133OSM     OF14437   5.991   3.400   7.047 -0.2645  0.7913 -0.1089
  133OSM    C2F14438   5.955   3.477   6.832  0.5213  0.7057  0.8385
  133OSM    H2F14439   5.872   3.550   6.827 -0.4739 -0.3494  1.4681
  133OSM    H2G14440   5.949   3.420   6.736  1.8052  1.6253  0.1856
  133OSM    C3F14441   6.095   3.552   6.844 -0.2348  0.4091 -0.3145
  133OSM    H3F14442   6.187   3.489   6.842  1.9581  3.2266  2.3425
  133OSM    H3G14443   6.086   3.616   6.935 -1.0797  2.7171 -1.9456
  133OSM    C4F14444   6.106   3.667   6.736 -0.3034  0.1522  0.3548
  133OSM    H4F14445   6.211   3.701   6.746 -0.0992 -0.7847  1.5700
  133OSM    H4G14446   6.021   3.737   6.756 -3.0593 -2.5071 -1.2104
  133OSM    C5F14447   6.096   3.613   6.586 -0.0769 -0.1512 -0.1975
  133OSM    H5F14448   5.994   3.593   6.547  0.3598 -0.6487 -1.1325
  133OSM    H5G14449   6.149   3.516   6.575 -2.0443 -1.0877 -2.2267
  133OSM    C6F14450   6.161   3.714   6.479 -1.1958 -0.4189  0.3997
  133OSM    H6F14451   6.235   3.784   6.525 -0.8421 -0.7749  0.3766
  133OSM    H6G14452   6.080   3.778   6.439 -0.2231 -0.2242 -1.3831
  133OSM    C7F14453   6.226   3.640   6.362 -0.3406 -0.4044 -0.3832
  133OSM    H7F14454   6.157   3.567   6.313  1.5966 -1.2584 -1.9914
  133OSM    H7G14455   6.312   3.583   6.402 -0.0522 -1.0288 -1.8127
  133OSM    C8F14456   6.280   3.729   6.249  0.1737  0.6955  0.2668
  133OSM    H8F14457   6.361   3.670   6.200  0.7705  0.7479  1.1607
  133OSM    H8G14458   6.328   3.819   6.295  1.8370  0.9271 -1.7417
  133OSM    C9F14459   6.175   3.763   6.149 -0.4188 -0.1071 -0.1413
  133OSM    H9F14460   6.076   3.780   6.193  1.1690  2.1489  2.9934
  133OSM   C10F14461   6.193   3.790   6.016  0.9615 -0.0518  0.2611
  133OSM   H10F14462   6.102   3.811   5.958 -0.1012 -1.7255  1.2094
  133OSM   C11F14463   6.311   3.773   5.929 -0.1029  0.2411 -0.4173
  133OSM   H11F14464   6.363   3.677   5.950  1.0500  1.1389  1.0150
  133OSM   H11G14465   6.391   3.848   5.948 -1.3245  1.4050  0.3085
  133OSM   C12F14466   6.280   3.773   5.780 -0.0632  0.4825 -0.3530
  133OSM   H12F14467   6.193   3.712   5.750  0.3729  0.8640 -2.5010
  133OSM   H12G14468   6.368   3.725   5.731  0.6361  0.5059  0.8367
  133OSM   C13F14469   6.255   3.910   5.717  0.1071 -0.1669 -0.2564
  133OSM   H13F14470   6.332   3.981   5.755 -0.0208 -0.4743  0.6109
  133OSM   H13G14471   6.152   3.948   5.732  0.1632  0.9897 -2.4152
  133OSM   C14F14472   6.297   3.910   5.573 -0.1028  0.3414  0.2579
  133OSM   H14F14473   6.399   3.868   5.565 -0.6646 -1.1777  0.7375
  133OSM   H14G14474   6.293   4.016   5.539  1.6558 -0.2915 -2.1770
  133OSM   C15F14475   6.209   3.822   5.476 -0.1450  0.0950  0.1884
  133OSM   H15F14476   6.125   3.895   5.475 -0.5552 -0.3759 -0.1438
  133OSM   H15G14477   6.174   3.729   5.524 -0.8840 -0.3731 -1.1954
  133OSM   C16F14478   6.280   3.797   5.340 -0.1335  0.5367 -0.8262
  133OSM   H16F14479   6.330   3.701   5.362 -2.1560 -0.3972 -0.0541
  133OSM   H16G14480   6.360   3.871   5.316 -1.4620  2.0863 -0.6631
  133OSM   C17F14481   6.179   3.802   5.216  0.0716  0.0744  0.1900
  133OSM   H17F14482   6.237   3.826   5.124 -2.5626  1.1853 -1.2857
  133OSM   H17G14483   6.127   3.899   5.226 -2.0145 -0.8745 -0.8448
  133OSM   C18F14484   6.077   3.688   5.204 -0.3992  0.1454 -1.8033
  133OSM   H18F14485   6.122   3.586   5.202 -0.8320 -0.0603 -1.3783
  133OSM   H18G14486   6.006   3.707   5.120 -1.4927 -0.7397 -1.1174
  133OSM   H18H14487   6.008   3.693   5.291 -0.0284  0.9919 -1.5552
  134OSM      N14488   3.665   2.169   8.013  0.5547  0.4933 -0.9920
  134OSM    C1514489   3.515   2.154   8.019 -0.8112 -0.2139 -0.0426
  134OSM   H15A14490   3.462   2.209   8.096 -1.7750 -1.0394 -0.0981
  134OSM   H15B14491   3.478   2.053   8.026  1.1358 -0.9403  0.2103
  134OSM   H15C14492   3.469   2.188   7.928 -1.6816 -1.3437 -0.0485
  134OSM    C1414493   3.684   2.320   8.003  0.4368 -0.6359  0.3534
  134OSM   H14A14494   3.639   2.374   8.084  0.2279  1.5345 -1.1246
  134OSM   H14B14495   3.635   2.361   7.916  0.9586  1.5601  1.0422
  134OSM   H14C14496   3.783   2.360   8.017  0.8289 -0.3838 -2.4454
  134OSM    C1314497   3.725   2.115   8.149  0.9799 -0.3595  0.3621
  134OSM   H13A14498   3.828   2.146   8.146 -0.0789  3.5724  0.1647
  134OSM   H13B14499   3.702   2.010   8.165 -2.2949  0.5798  2.8838
  134OSM   H13C14500   3.691   2.174   8.232 -0.9127 -0.5981 -0.1920
  134OSM    C1214501   3.741   2.102   7.900  0.0994 -0.5325  1.3042
  134OSM   H12A14502   3.708   2.001   7.879 -1.4060  0.2292 -0.2329
  134OSM   H12B14503   3.844   2.094   7.934  0.7462  4.1838  1.0886
  134OSM    C1114504   3.743   2.182   7.760  0.4469  0.1098  0.3549
  134OSM   H11A14505   3.811   2.126   7.691 -0.5290  0.4005 -0.8749
  134OSM   H11B14506   3.795   2.278   7.781  3.4492 -0.3512 -3.7671
  134OSM      P14507   3.535   2.077   7.661  0.2221  0.0937 -0.1566
  134OSM    O1314508   3.605   1.950   7.695  0.1000  0.5570  0.5803
  134OSM    O1414509   3.395   2.080   7.715 -0.1142 -0.3680 -0.0809
  134OSM    O1114510   3.525   2.095   7.503 -0.1407 -0.4203  0.0205
  134OSM    O1214511   3.612   2.198   7.718  0.5571 -0.3372  0.0969
  134OSM    C1S14512   3.455   2.214   7.458 -0.5398  0.5465 -0.5929
  134OSM    H1S14513   3.522   2.294   7.497  0.1553 -1.4344  2.6304
  134OSM    H1T14514   3.355   2.227   7.504 -0.7580 -2.3956 -0.0623
  134OSM     NF14515   3.425   2.345   7.259 -0.5341  0.2872 -0.2718
  134OSM    HNF14516   3.334   2.384   7.273  0.2803  1.7112  1.4882
  134OSM    C2S14517   3.440   2.206   7.306 -0.1107 -0.4628 -1.0082
  134OSM    H2S14518   3.532   2.168   7.257 -0.3832 -0.4624 -1.5340
  134OSM    C3S14519   3.318   2.116   7.284  0.2108  0.0474  1.0785
  134OSM    H3S14520   3.226   2.149   7.337 -0.6722  1.2746 -1.1032
  134OSM     O314521   3.339   1.982   7.334  0.4936  0.4345 -0.0158
  134OSM    HO314522   3.430   1.988   7.362  1.6284 -2.3158 -2.5434
  134OSM    C4S14523   3.283   2.091   7.141 -0.1616 -0.3897 -0.5291
  134OSM    H4S14524   3.353   2.020   7.093  2.7319  1.8033  0.1675
  134OSM    C5S14525   3.181   2.139   7.064 -0.0809 -0.2305 -1.0040
  134OSM    H5S14526   3.098   2.202   7.099 -2.4330 -2.1812 -2.8367
  134OSM    C6S14527   3.165   2.094   6.923 -0.3423 -0.3726  0.7154
  134OSM    H6S14528   3.072   2.143   6.885 -0.7363 -0.9709  0.8898
  134OSM    H6T14529   3.145   1.985   6.917 -2.7100  0.0233  0.3281
  134OSM    C7S14530   3.281   2.125   6.820 -0.0472 -0.3997 -0.0166
  134OSM    H7S14531   3.374   2.077   6.858 -1.3458 -0.8168  2.8895
  134OSM    H7T14532   3.292   2.236   6.810 -2.7231 -0.1881 -1.5959
  134OSM    C8S14533   3.271   2.072   6.678  0.4368 -0.1443  0.1945
  134OSM    H8S14534   3.203   1.985   6.677 -1.0339  0.9649  0.5951
  134OSM    H8T14535   3.372   2.040   6.645  0.1064  0.8113 -1.9030
  134OSM    C9S14536   3.220   2.188   6.589  0.4419  0.3550 -0.9991
  134OSM    H9S14537   3.296   2.269   6.578  0.6624  0.0472 -1.8428
  134OSM    H9T14538   3.139   2.235   6.649  0.8755 -0.7581  0.5084
  134OSM   C10S14539   3.164   2.138   6.453  0.0306  0.1845  0.2217
  134OSM   H10S14540   3.086   2.059   6.459 -0.6815  0.9882  2.0774
  134OSM   H10T14541   3.254   2.096   6.402 -0.4149 -0.2728 -0.1990
  134OSM   C11S14542   3.086   2.246   6.376 -0.4004  0.0948 -0.2143
  134OSM   H11S14543   3.152   2.336   6.380  4.0367 -2.8366  2.9134
  134OSM   H11T14544   2.992   2.275   6.428  1.5519  2.1231  2.5501
  134OSM   C12S14545   3.080   2.219   6.228 -1.4001 -0.8633  0.0074
  134OSM   H12S14546   3.007   2.292   6.187 -0.7464  0.7787  1.6233
  134OSM   H12T14547   3.044   2.115   6.210 -0.1882 -1.1908 -0.6184
  134OSM   C13S14548   3.215   2.241   6.155 -0.3374  0.6835 -0.6067
  134OSM   H13S14549   3.294   2.188   6.213 -1.2229 -0.6120 -0.5256
  134OSM   H13T14550   3.235   2.350   6.158  0.8159  0.4562  0.9584
  134OSM   C14S14551   3.221   2.195   6.013 -0.1907  0.6021  0.1477
  134OSM   H14S14552   3.136   2.239   5.957  1.4980  0.6754 -2.5928
  134OSM   H14T14553   3.189   2.090   5.997 -1.0188  1.2483 -3.3308
  134OSM   C15S14554   3.348   2.246   5.942  0.2416  0.1533  0.6565
  134OSM   H15S14555   3.445   2.195   5.962 -0.1511 -0.8298  0.1106
  134OSM   H15T14556   3.371   2.348   5.981  0.9943 -0.8144  2.9169
  134OSM   C16S14557   3.343   2.243   5.786  0.3814 -0.3151 -0.3036
  134OSM   H16S14558   3.259   2.305   5.748  0.3070  0.4448  1.0316
  134OSM   H16T14559   3.333   2.137   5.754  0.2427 -0.6721  0.8866
  134OSM   C17S14560   3.474   2.298   5.718 -0.0343  0.7712  0.9068
  134OSM   H17S14561   3.548   2.215   5.724 -1.1082 -0.1626  1.6168
  134OSM   H17T14562   3.521   2.379   5.778 -1.5142 -0.4064  3.8683
  134OSM   C18S14563   3.462   2.331   5.572  0.1696 -0.2427  0.4815
  134OSM   H18S14564   3.430   2.236   5.523 -0.0980  0.4697 -0.7742
  134OSM   H18T14565   3.559   2.358   5.525 -0.2804  2.1069  0.8120
  134OSM   H18U14566   3.379   2.402   5.555  0.1500 -0.2737  0.4451
  134OSM    C1F14567   3.524   2.428   7.256 -1.0000 -0.2381  0.3501
  134OSM     OF14568   3.638   2.382   7.247  0.3007  0.1350 -0.7349
  134OSM    C2F14569   3.486   2.572   7.267 -0.0434 -0.1368 -0.2545
  134OSM    H2F14570   3.443   2.591   7.367 -0.4485  0.1060 -0.4756
  134OSM    H2G14571   3.409   2.607   7.195  0.3236  0.1030 -0.5379
  134OSM    C3F14572   3.608   2.671   7.262  0.3082 -0.0101  0.5834
  134OSM    H3F14573   3.660   2.651   7.358 -1.3045  0.3690  1.5874
  134OSM    H3G14574   3.559   2.770   7.259  0.0728 -0.1358  0.1207
  134OSM    C4F14575   3.704   2.664   7.144  0.3394 -0.6071 -0.6002
  134OSM    H4F14576   3.765   2.572   7.148 -0.0443 -0.9998 -2.4730
  134OSM    H4G14577   3.777   2.746   7.157 -1.0033  0.5524 -0.0927
  134OSM    C5F14578   3.639   2.670   7.006 -0.1697 -1.1226 -0.1565
  134OSM    H5F14579   3.587   2.768   7.009  0.2577 -0.9028  1.6217
  134OSM    H5G14580   3.580   2.576   6.997 -2.5977  0.0211  2.1091
  134OSM    C6F14581   3.738   2.683   6.890  0.0212  0.3659  0.0600
  134OSM    H6F14582   3.801   2.592   6.889 -1.6701 -0.8529  0.0399
  134OSM    H6G14583   3.797   2.772   6.919 -1.3642  1.1030  0.7007
  134OSM    C7F14584   3.668   2.696   6.755 -0.6494  0.5035 -0.4534
  134OSM    H7F14585   3.615   2.603   6.726 -2.0200  0.9019  0.6654
  134OSM    H7G14586   3.750   2.696   6.680  1.2350 -0.0345  1.5010
  134OSM    C8F14587   3.581   2.818   6.730  0.7936  0.4233  0.5212
  134OSM    H8F14588   3.516   2.841   6.817 -0.3904  2.5940 -0.8745
  134OSM    H8G14589   3.526   2.806   6.634  0.7334  1.1708  0.4573
  134OSM    C9F14590   3.662   2.946   6.716  0.5089 -0.1525  0.3231
  134OSM    H9F14591   3.663   3.006   6.808 -0.2929 -0.0428  0.2676
  134OSM   C10F14592   3.691   3.001   6.597  0.0184 -0.1255  0.0900
  134OSM   H10F14593   3.755   3.091   6.588 -2.3550  1.6724  0.2677
  134OSM   C11F14594   3.673   2.948   6.449 -0.1207 -0.5535 -0.6312
  134OSM   H11F14595   3.643   3.038   6.391 -1.0544 -0.7095 -0.4004
  134OSM   H11G14596   3.586   2.879   6.448 -0.6808  0.1031  0.8775
  134OSM   C12F14597   3.792   2.870   6.381  0.1249 -0.3118 -0.7169
  134OSM   H12F14598   3.816   2.781   6.443 -0.2194  1.0944  1.5730
  134OSM   H12G14599   3.878   2.937   6.364 -0.2287  0.3221 -0.0526
  134OSM   C13F14600   3.761   2.832   6.235  0.6947 -0.3937 -0.3258
  134OSM   H13F14601   3.850   2.807   6.174  0.8076  0.4650 -0.5225
  134OSM   H13G14602   3.722   2.925   6.189 -0.8646 -1.2365 -0.7865
  134OSM   C14F14603   3.652   2.721   6.222 -0.8283  0.2722 -0.0092
  134OSM   H14F14604   3.572   2.749   6.294  0.6840  1.5858  1.2487
  134OSM   H14G14605   3.703   2.622   6.231 -2.2527 -0.6094 -1.2274
  134OSM   C15F14606   3.589   2.715   6.091  0.4827  0.5335  0.2005
  134OSM   H15F14607   3.658   2.662   6.022 -1.6162  0.1982 -1.7714
  134OSM   H15G14608   3.573   2.818   6.053 -0.1735  0.5500  0.5119
  134OSM   C16F14609   3.446   2.663   6.087 -0.3636 -0.0929  0.2530
  134OSM   H16F14610   3.399   2.722   6.168  0.3985 -1.7708  2.0160
  134OSM   H16G14611   3.448   2.558   6.123  0.6095 -0.8411 -1.8286
  134OSM   C17F14612   3.370   2.655   5.957  0.0690 -0.0376 -0.4037
  134OSM   H17F14613   3.400   2.566   5.898  0.2912  0.9258 -1.7815
  134OSM   H17G14614   3.415   2.739   5.901  2.2868  0.1952  1.5521
  134OSM   C18F14615   3.217   2.660   5.964 -0.7289 -0.9469  1.1297
  134OSM   H18F14616   3.175   2.634   5.865  0.5984 -0.5605  0.4352
  134OSM   H18G14617   3.180   2.759   5.997  0.5359 -0.7291  1.9658
  134OSM   H18H14618   3.176   2.580   6.029 -1.4739 -1.5808 -0.1030
  135OSM      N14619   4.285   0.382   7.542  0.3011 -1.2526 -0.4313
  135OSM    C1514620   4.299   0.295   7.418  0.0862  0.5631 -0.6310
  135OSM   H15A14621   4.309   0.361   7.334 -1.1011  1.2169 -0.2787
  135OSM   H15B14622   4.213   0.230   7.413  1.7575 -1.6991 -1.3486
  135OSM   H15C14623   4.378   0.223   7.435  0.4792  1.4280  1.6091
  135OSM    C1414624   4.147   0.451   7.549  0.1781  0.1079  0.3830
  135OSM   H14A14625   4.068   0.377   7.555 -0.2194  0.3928 -0.9164
  135OSM   H14B14626   4.131   0.515   7.464 -2.1661  1.0106  1.4173
  135OSM   H14C14627   4.155   0.514   7.636  1.8360  0.6469 -0.1277
  135OSM    C1314628   4.297   0.300   7.672 -0.2095 -0.4961  0.8388
  135OSM   H13A14629   4.294   0.366   7.757  3.1656  0.1876  0.5890
  135OSM   H13B14630   4.396   0.257   7.666  0.3452  0.9039 -1.0665
  135OSM   H13C14631   4.218   0.227   7.677 -3.9276  2.6584 -3.0556
  135OSM    C1214632   4.396   0.494   7.538 -0.2298 -1.1367  0.4285
  135OSM   H12A14633   4.391   0.557   7.451  1.4610 -0.2283  0.9288
  135OSM   H12B14634   4.495   0.451   7.531  0.4066  0.4278 -0.9585
  135OSM    C1114635   4.407   0.604   7.645 -1.0419  0.5980 -0.0363
  135OSM   H11A14636   4.496   0.670   7.639 -0.4113 -0.3840 -2.1852
  135OSM   H11B14637   4.419   0.546   7.739  0.5961 -0.9375 -1.1353
  135OSM      P14638   4.245   0.795   7.534 -0.3329  0.2586  0.3207
  135OSM    O1314639   4.100   0.798   7.508 -0.3070 -0.8560 -0.8479
  135OSM    O1414640   4.305   0.929   7.567  0.6444  0.1586 -0.1040
  135OSM    O1114641   4.317   0.746   7.398 -0.1633  0.1419 -0.0861
  135OSM    O1214642   4.290   0.688   7.646  0.1859  0.2214  0.0719
  135OSM    C1S14643   4.259   0.689   7.279 -0.1396  0.0287 -0.4669
  135OSM    H1S14644   4.153   0.659   7.296 -0.6566 -0.9091 -4.4704
  135OSM    H1T14645   4.312   0.592   7.268 -0.3935 -0.1928  0.1692
  135OSM     NF14646   4.219   0.712   7.048 -0.2767 -0.1531 -0.3356
  135OSM    HNF14647   4.272   0.636   7.012 -1.2038 -1.2797  0.5969
  135OSM    C2S14648   4.280   0.781   7.161 -0.0070 -0.5797  0.3999
  135OSM    H2S14649   4.233   0.876   7.194 -0.0024 -0.3025 -0.3759
  135OSM    C3S14650   4.431   0.820   7.138 -0.7871  0.2380 -0.2063
  135OSM    H3S14651   4.481   0.720   7.137  0.9477  1.0616 -1.6186
  135OSM     O314652   4.496   0.891   7.243 -0.0269 -0.1981  0.1673
  135OSM    HO314653   4.433   0.878   7.314  1.7347 -3.3271  1.3511
  135OSM    C4S14654   4.452   0.900   7.013  0.3143  0.0369 -0.2981
  135OSM    H4S14655   4.386   0.986   6.990 -0.8158 -0.4547  1.0283
  135OSM    C5S14656   4.542   0.885   6.919  0.1225  0.2277 -0.0678
  135OSM    H5S14657   4.606   0.797   6.935 -0.8047 -0.1597  1.8124
  135OSM    C6S14658   4.534   0.963   6.790 -0.2491  0.0360  0.5073
  135OSM    H6S14659   4.628   1.021   6.776  0.2236 -1.2590 -2.5448
  135OSM    H6T14660   4.443   1.027   6.789 -1.4926 -1.6620  0.7584
  135OSM    C7S14661   4.518   0.858   6.678 -0.1547 -0.6521 -0.3629
  135OSM    H7S14662   4.418   0.810   6.681 -0.9999  1.0112 -0.5774
  135OSM    H7T14663   4.602   0.786   6.682 -0.3374 -0.8606 -0.2899
  135OSM    C8S14664   4.515   0.937   6.551  0.2909  0.3368  0.0840
  135OSM    H8S14665   4.609   0.997   6.553 -0.2375  1.1645  2.0086
  135OSM    H8T14666   4.433   1.010   6.536  2.3646  2.9040  0.5594
  135OSM    C9S14667   4.529   0.845   6.434  0.2010 -0.0784  0.9734
  135OSM    H9S14668   4.446   0.772   6.438  1.9062 -2.1371  1.0873
  135OSM    H9T14669   4.627   0.791   6.442  0.9935  1.1186 -0.2362
  135OSM   C10S14670   4.527   0.929   6.303  0.5378 -0.5780  0.1466
  135OSM   H10S14671   4.602   1.008   6.325 -0.6006  0.8056 -0.7489
  135OSM   H10T14672   4.427   0.973   6.282 -0.3735 -2.1895  0.9458
  135OSM   C11S14673   4.581   0.847   6.178  0.3085  0.2218  0.1209
  135OSM   H11S14674   4.533   0.748   6.165 -2.2006  1.4412 -0.4439
  135OSM   H11T14675   4.690   0.832   6.190  0.3736  1.1045  0.7649
  135OSM   C12S14676   4.564   0.927   6.054  0.4286 -0.7639 -0.4918
  135OSM   H12S14677   4.578   1.036   6.069 -3.0770  0.1928 -2.9036
  135OSM   H12T14678   4.458   0.915   6.024 -0.3083  1.7434  0.8879
  135OSM   C13S14679   4.650   0.879   5.939 -0.0923 -0.4763  0.1229
  135OSM   H13S14680   4.646   0.768   5.928 -1.4478 -0.4169 -0.0887
  135OSM   H13T14681   4.747   0.930   5.954 -0.4157 -0.4376  2.4602
  135OSM   C14S14682   4.613   0.923   5.800 -0.3457 -0.1568  0.3038
  135OSM   H14S14683   4.623   1.033   5.798  2.1684 -0.2616  2.4148
  135OSM   H14T14684   4.508   0.891   5.786 -0.4035  0.8956 -2.4974
  135OSM   C15S14685   4.701   0.856   5.692  0.2846  0.2576 -0.1504
  135OSM   H15S14686   4.691   0.746   5.690 -1.8323  0.3862  1.1603
  135OSM   H15T14687   4.805   0.889   5.715 -0.4600  2.4586  0.2579
  135OSM   C16S14688   4.668   0.899   5.547  0.1694 -0.1825  0.0448
  135OSM   H16S14689   4.683   1.008   5.539 -2.1518  0.1717 -0.2303
  135OSM   H16T14690   4.560   0.874   5.535  0.4097 -0.3787 -1.9873
  135OSM   C17S14691   4.755   0.826   5.445  0.3559 -0.0149 -0.3221
  135OSM   H17S14692   4.752   0.718   5.469  0.1624 -0.2493 -1.3540
  135OSM   H17T14693   4.859   0.865   5.454  0.1795  0.4410 -0.1972
  135OSM   C18S14694   4.704   0.856   5.304  0.3782  0.5200 -0.0520
  135OSM   H18S14695   4.726   0.960   5.274  0.0279  1.3138  2.2319
  135OSM   H18T14696   4.595   0.838   5.287  0.3360  1.4991 -0.9100
  135OSM   H18U14697   4.766   0.796   5.233  0.5830  1.0607 -0.3319
  135OSM    C1F14698   4.089   0.720   7.031  0.5468  0.0008 -0.2690
  135OSM     OF14699   4.014   0.798   7.092 -0.3419  0.3749  0.0754
  135OSM    C2F14700   4.037   0.617   6.936 -0.2804  0.3328 -0.8447
  135OSM    H2F14701   3.958   0.552   6.979 -0.0691  0.2717 -0.5465
  135OSM    H2G14702   4.123   0.550   6.915  1.3513  1.7380  0.9857
  135OSM    C3F14703   3.981   0.683   6.807 -0.7166 -0.0938  0.0073
  135OSM    H3F14704   3.897   0.742   6.850 -1.2591 -1.3638  0.7580
  135OSM    H3G14705   3.947   0.606   6.734  0.7058 -0.2736 -0.4778
  135OSM    C4F14706   4.074   0.786   6.735  0.0765 -0.0195 -0.4460
  135OSM    H4F14707   4.087   0.869   6.809 -0.0761 -0.3118 -0.0880
  135OSM    H4G14708   4.173   0.737   6.731  1.9923  3.5855 -1.7677
  135OSM    C5F14709   4.044   0.843   6.601  0.0780 -0.2785  0.5210
  135OSM    H5F14710   3.954   0.908   6.606 -0.7265 -1.3689  0.6611
  135OSM    H5G14711   4.017   0.764   6.528 -0.0346 -2.3364  2.6656
  135OSM    C6F14712   4.156   0.936   6.545  0.1496  0.0346  0.5395
  135OSM    H6F14713   4.241   0.874   6.509  0.6262  2.2605 -2.5816
  135OSM    H6G14714   4.196   1.006   6.621  1.5557  1.7153 -1.6437
  135OSM    C7F14715   4.119   1.028   6.423 -0.0495  0.4394  0.5329
  135OSM    H7F14716   4.208   1.092   6.403  0.7698 -1.0576 -0.7394
  135OSM    H7G14717   4.040   1.100   6.457 -0.2050  0.3450  0.3728
  135OSM    C8F14718   4.072   0.957   6.295 -0.3449  0.5516  0.3109
  135OSM    H8F14719   3.984   0.902   6.333  0.6621  0.7212  3.0701
  135OSM    H8G14720   4.154   0.884   6.278  1.9404  2.9355  0.3301
  135OSM    C9F14721   4.030   1.040   6.185  0.0154  0.8726  0.2089
  135OSM    H9F14722   4.004   1.144   6.211  0.1081  1.0775 -0.4897
  135OSM   C10F14723   4.053   1.016   6.051  0.5814  0.4593 -0.5134
  135OSM   H10F14724   4.011   1.076   5.969 -0.3603 -1.4369 -1.5092
  135OSM   C11F14725   4.117   0.896   5.995  0.2192 -0.4699  0.5425
  135OSM   H11F14726   4.184   0.852   6.073 -0.7180  0.3032  1.8201
  135OSM   H11G14727   4.187   0.933   5.917 -0.1277  0.6902  0.7612
  135OSM   C12F14728   4.018   0.800   5.935  0.3200 -0.3832  0.1139
  135OSM   H12F14729   3.942   0.788   6.016  1.0272 -0.4986  0.7673
  135OSM   H12G14730   4.071   0.703   5.935 -0.8588 -1.2107  4.0640
  135OSM   C13F14731   3.966   0.833   5.792  0.3622 -0.3308  0.4065
  135OSM   H13F14732   3.902   0.924   5.793  2.0076  1.0271 -2.8802
  135OSM   H13G14733   3.896   0.754   5.757 -1.2564  1.5592 -0.7816
  135OSM   C14F14734   4.068   0.858   5.682 -0.2704  0.5708 -0.3454
  135OSM   H14F14735   4.122   0.763   5.658  1.8432  1.6454 -0.0318
  135OSM   H14G14736   4.145   0.929   5.719  0.4531 -0.5365  0.3598
  135OSM   C15F14737   4.012   0.933   5.565  0.5080  0.1498 -0.4499
  135OSM   H15F14738   3.938   1.007   5.604 -0.6878 -1.1866 -0.0976
  135OSM   H15G14739   3.934   0.874   5.513 -0.4392  2.1819 -1.4628
  135OSM   C16F14740   4.116   0.991   5.467  0.6854 -0.0482  0.1645
  135OSM   H16F14741   4.187   1.056   5.523  1.1949 -0.6577  0.2381
  135OSM   H16G14742   4.073   1.058   5.390  0.5475  1.1642  1.2706
  135OSM   C17F14743   4.203   0.884   5.396 -0.1231 -0.0515  0.1140
  135OSM   H17F14744   4.236   0.807   5.469  0.8044 -0.0478 -0.2868
  135OSM   H17G14745   4.281   0.938   5.338  0.0755 -0.1118  0.3226
  135OSM   C18F14746   4.127   0.794   5.296  0.5316 -0.0336 -0.0306
  135OSM   H18F14747   4.183   0.698   5.293  1.5284  0.5642 -1.5477
  135OSM   H18G14748   4.124   0.843   5.196  0.2158  0.0592  0.0210
  135OSM   H18H14749   4.022   0.773   5.327  0.1584  1.9764  0.2337
  136OSM      N14750   6.480   0.000   7.730  0.5841 -0.4726 -0.8377
  136OSM    C1514751   6.465   0.127   7.654 -0.2222  0.3578 -1.0491
  136OSM   H15A14752   6.564   0.167   7.636  0.0219  1.2862  1.8302
  136OSM   H15B14753   6.435   0.209   7.717  3.5763 -0.8248  2.7926
  136OSM   H15C14754   6.408   0.125   7.562 -2.4076  1.6138  0.2009
  136OSM    C1414755   6.546   0.039   7.859 -0.3743  0.8726  0.2360
  136OSM   H14A14756   6.651   0.064   7.850 -0.6784  1.7816 -1.0980
  136OSM   H14B14757   6.539  -0.039   7.933  1.4254  0.4888  0.0327
  136OSM   H14C14758   6.500   0.133   7.887  0.1158  1.0805  0.3600
  136OSM    C1314759   6.346  -0.062   7.767 -0.1188  0.3709  0.1832
  136OSM   H13A14760   6.272   0.007   7.804 -1.8271 -2.5120  2.6439
  136OSM   H13B14761   6.351  -0.140   7.842 -0.7516 -1.0108 -1.1578
  136OSM   H13C14762   6.307  -0.110   7.679  1.4369  2.3434 -1.7133
  136OSM    C1214763   6.557  -0.107   7.656  0.1849 -0.4434  0.0417
  136OSM   H12A14764   6.507  -0.126   7.562 -1.1750  3.4869 -0.2001
  136OSM   H12B14765   6.555  -0.199   7.712  1.9219  0.1646  1.1822
  136OSM    C1114766   6.706  -0.080   7.639  0.1850 -0.0479  0.4076
  136OSM   H11A14767   6.756  -0.084   7.738  1.3247 -0.7730 -0.1745
  136OSM   H11B14768   6.724   0.021   7.596  1.3015  0.0900  1.1429
  136OSM      P14769   6.739  -0.199   7.407  0.4053  0.2618 -0.0132
  136OSM    O1314770   6.865  -0.178   7.345  0.2932 -0.4464  0.5362
  136OSM    O1414771   6.674  -0.333   7.387  0.8289  0.2025 -0.7754
  136OSM    O1114772   6.637  -0.083   7.370  0.0870 -0.0936  0.1863
  136OSM    O1214773   6.764  -0.182   7.563 -0.2799  0.5432 -0.2397
  136OSM    C1S14774   6.697   0.043   7.341 -0.0058 -0.0262 -0.7159
  136OSM    H1S14775   6.784   0.057   7.409 -1.5209 -2.5612  2.0027
  136OSM    H1T14776   6.627   0.125   7.366  1.0630  1.4309 -2.2334
  136OSM     NF14777   6.781   0.213   7.169 -0.0740  1.1503  0.3883
  136OSM    HNF14778   6.722   0.265   7.108  0.0753 -1.6407 -2.3709
  136OSM    C2S14779   6.739   0.073   7.195  0.2552  0.1062 -0.1539
  136OSM    H2S14780   6.820   0.003   7.166 -0.6727 -1.2008  0.3510
  136OSM    C3S14781   6.624   0.035   7.092 -0.1544  0.7292 -0.7364
  136OSM    H3S14782   6.534   0.096   7.115  0.3137  1.8828 -1.8136
  136OSM     O314783   6.564  -0.095   7.109 -0.0483  0.3182  0.2698
  136OSM    HO314784   6.570  -0.111   7.204  0.3227  1.9788  0.5597
  136OSM    C4S14785   6.666   0.045   6.951  0.1980 -0.1061  0.8632
  136OSM    H4S14786   6.759  -0.007   6.924  0.4399  1.0828 -0.7680
  136OSM    C5S14787   6.595   0.108   6.855 -0.2413 -0.6242  0.0464
  136OSM    H5S14788   6.494   0.145   6.881 -1.5845 -2.8373 -1.6300
  136OSM    C6S14789   6.630   0.120   6.710  0.1567 -0.0014  0.3351
  136OSM    H6S14790   6.555   0.068   6.648  1.1590  0.0163 -0.9323
  136OSM    H6T14791   6.728   0.070   6.697 -0.0822 -0.1527 -0.9878
  136OSM    C7S14792   6.641   0.259   6.661  0.9148 -0.2600  0.7869
  136OSM    H7S14793   6.703   0.326   6.726 -0.9977  1.5660  0.8398
  136OSM    H7T14794   6.544   0.312   6.657  0.7688 -0.6318 -2.1273
  136OSM    C8S14795   6.692   0.251   6.513 -0.4507  0.2531 -0.6296
  136OSM    H8S14796   6.774   0.177   6.518 -0.0559  0.6881 -0.5949
  136OSM    H8T14797   6.744   0.346   6.489  1.0134 -0.2898  0.2753
  136OSM    C9S14798   6.584   0.218   6.422  0.3030 -0.3909  0.4997
  136OSM    H9S14799   6.478   0.230   6.454 -0.0731 -0.0273 -0.8159
  136OSM    H9T14800   6.599   0.108   6.410  3.6896  0.2333 -2.4821
  136OSM   C10S14801   6.595   0.274   6.280 -0.5071  0.5522 -0.5113
  136OSM   H10S14802   6.701   0.273   6.247 -0.5345 -0.9389 -0.5965
  136OSM   H10T14803   6.582   0.384   6.282 -0.7226  0.5379 -0.9545
  136OSM   C11S14804   6.507   0.209   6.177  0.1591 -0.3910 -1.0939
  136OSM   H11S14805   6.400   0.232   6.196 -0.3343 -3.4196  0.4653
  136OSM   H11T14806   6.516   0.099   6.189  3.4073 -0.1084  0.2101
  136OSM   C12S14807   6.543   0.244   6.034  1.0175 -0.0182  0.3413
  136OSM   H12S14808   6.496   0.161   5.977  1.1482 -0.4684  0.8861
  136OSM   H12T14809   6.651   0.227   6.015  0.8851  1.9395 -2.9472
  136OSM   C13S14810   6.502   0.385   5.978  0.7724 -0.6540  0.6273
  136OSM   H13S14811   6.581   0.451   6.019 -0.7938  1.9375 -0.2642
  136OSM   H13T14812   6.402   0.419   6.012  1.5963  1.4969  1.0265
  136OSM   C14S14813   6.498   0.386   5.821 -0.1043 -0.3156  0.0875
  136OSM   H14S14814   6.402   0.335   5.797 -0.1719  0.3904 -1.2671
  136OSM   H14T14815   6.578   0.320   5.781  1.1133  2.1903 -1.9229
  136OSM   C15S14816   6.505   0.537   5.775 -0.2282 -0.2670  0.1044
  136OSM   H15S14817   6.610   0.571   5.789 -0.0751 -1.5652  2.7839
  136OSM   H15T14818   6.449   0.588   5.855 -2.3488 -2.9358  0.4866
  136OSM   C16S14819   6.459   0.551   5.632  0.1314 -0.6934  0.0839
  136OSM   H16S14820   6.350   0.528   5.632  0.6118 -3.5029  1.1650
  136OSM   H16T14821   6.507   0.483   5.558  0.9577 -1.5273  1.3260
  136OSM   C17S14822   6.466   0.694   5.574 -0.4580  0.4388  0.1229
  136OSM   H17S14823   6.572   0.720   5.597 -0.3317 -0.0637  0.1139
  136OSM   H17T14824   6.397   0.753   5.638 -0.1150 -1.1581  2.0834
  136OSM   C18S14825   6.436   0.713   5.420 -0.2086  0.2909  0.1599
  136OSM   H18S14826   6.522   0.664   5.371 -0.4542 -0.8259  0.8247
  136OSM   H18T14827   6.425   0.822   5.402  0.4757  0.6548  1.7515
  136OSM   H18U14828   6.342   0.657   5.404 -0.7373  0.4707  2.3459
  136OSM    C1F14829   6.895   0.261   7.209  0.4651 -0.1419 -0.3106
  136OSM     OF14830   6.960   0.203   7.296  0.0625 -0.2595 -0.1833
  136OSM    C2F14831   6.939   0.393   7.142 -0.4045  0.1392 -0.8547
  136OSM    H2F14832   6.988   0.454   7.220  0.9645  0.2688 -1.7948
  136OSM    H2G14833   6.843   0.438   7.108  0.5156  1.2250 -2.1055
  136OSM    C3F14834   7.045   0.369   7.032 -0.0068 -0.5965 -0.3373
  136OSM    H3F14835   7.143   0.335   7.072 -0.6138 -2.6901 -0.4688
  136OSM    H3G14836   7.060   0.465   6.979 -1.2152 -0.3652 -0.2932
  136OSM    C4F14837   7.004   0.266   6.921  0.6740 -0.2792 -0.6561
  136OSM    H4F14838   6.898   0.270   6.888  0.5588  0.0596 -0.2545
  136OSM    H4G14839   7.014   0.166   6.970 -0.3219 -0.5784 -1.0513
  136OSM    C5F14840   7.094   0.257   6.797  0.3879 -0.4767 -0.0785
  136OSM    H5F14841   7.195   0.226   6.831 -0.1132  0.0225  1.9772
  136OSM    H5G14842   7.111   0.353   6.744  0.3186 -1.4335 -1.9073
  136OSM    C6F14843   7.069   0.145   6.699  0.1699  0.3183  0.8914
  136OSM    H6F14844   6.963   0.147   6.663  1.0970  0.8311 -2.1092
  136OSM    H6G14845   7.073   0.043   6.742 -2.8581  0.0536  0.8099
  136OSM    C7F14846   7.155   0.161   6.572  0.4469 -0.1319 -1.0465
  136OSM    H7F14847   7.261   0.136   6.594  0.1779 -1.8905 -1.6069
  136OSM    H7G14848   7.145   0.263   6.528 -0.5998 -0.5819 -1.9023
  136OSM    C8F14849   7.124   0.051   6.469 -0.2317 -1.0760  0.3292
  136OSM    H8F14850   7.014   0.063   6.459 -0.0033  0.2514 -1.0593
  136OSM    H8G14851   7.157  -0.045   6.512 -2.4598 -1.7274  0.6753
  136OSM    C9F14852   7.198   0.093   6.335  0.5039 -0.2551  0.3213
  136OSM    H9F14853   7.308   0.094   6.342  0.7184 -1.2602 -1.9699
  136OSM   C10F14854   7.143   0.146   6.223  0.0027 -0.1219  0.7187
  136OSM   H10F14855   7.205   0.190   6.144 -3.4222  1.2481 -1.4559
  136OSM   C11F14856   6.996   0.174   6.209  0.0813  0.0079  0.2484
  136OSM   H11F14857   6.960   0.236   6.293 -0.5278 -0.5168  0.3783
  136OSM   H11G14858   6.931   0.085   6.196 -0.1024  0.3906 -1.8932
  136OSM   C12F14859   6.968   0.264   6.091  0.2674 -0.3137  0.2767
  136OSM   H12F14860   7.018   0.363   6.095 -0.6725  0.1422  2.0485
  136OSM   H12G14861   6.862   0.297   6.096  0.4679  1.1005 -2.7076
  136OSM   C13F14862   7.020   0.199   5.957  0.8293 -0.1730  0.0524
  136OSM   H13F14863   6.965   0.106   5.935  2.9248 -1.3555 -0.4974
  136OSM   H13G14864   7.125   0.161   5.958  0.5392 -1.0044 -0.3941
  136OSM   C14F14865   7.010   0.298   5.841 -0.4270  0.4788  0.2150
  136OSM   H14F14866   7.049   0.248   5.749 -0.9384  1.6006 -0.6367
  136OSM   H14G14867   7.083   0.379   5.859  1.3480 -0.5826 -1.7508
  136OSM   C15F14868   6.870   0.355   5.816  1.0767 -0.1774  0.1747
  136OSM   H15F14869   6.839   0.431   5.891  1.2085  0.7660 -0.6994
  136OSM   H15G14870   6.792   0.276   5.813 -0.6674  1.4223  1.3027
  136OSM   C16F14871   6.863   0.415   5.676  0.0180 -0.6127  0.7369
  136OSM   H16F14872   6.943   0.491   5.659 -0.3073 -0.6912 -1.4115
  136OSM   H16G14873   6.766   0.464   5.653  1.3589  1.9310  0.1357
  136OSM   C17F14874   6.866   0.320   5.548  0.4936 -0.1189  1.5510
  136OSM   H17F14875   6.796   0.239   5.576  1.5808 -1.1835  1.2855
  136OSM   H17G14876   6.962   0.265   5.536  1.0907  1.1855  0.0558
  136OSM   C18F14877   6.829   0.383   5.415  0.4094 -0.1480  0.0285
  136OSM   H18F14878   6.731   0.436   5.423 -1.2729 -2.8761 -1.2699
  136OSM   H18G14879   6.827   0.303   5.339 -0.9102 -0.4420  0.3370
  136OSM   H18H14880   6.908   0.458   5.392 -0.4841  0.3498 -1.5162
  137OSM      N14881   3.711   0.508   7.319  0.5331 -0.1377 -0.3288
  137OSM    C1514882   3.796   0.459   7.440 -0.4048  0.2392  0.6754
  137OSM   H15A14883   3.741   0.379   7.487  0.3433 -1.5626 -1.3342
  137OSM   H15B14884   3.813   0.539   7.511 -0.0772  2.0834 -1.3714
  137OSM   H15C14885   3.887   0.414   7.403 -0.3184  0.3422  0.7625
  137OSM    C1414886   3.594   0.594   7.365  0.1308 -0.0133  0.1526
  137OSM   H14A14887   3.512   0.538   7.406  0.8897 -0.8876  0.4992
  137OSM   H14B14888   3.544   0.643   7.282  1.0249 -1.0203 -1.0228
  137OSM   H14C14889   3.640   0.668   7.428 -0.0208  0.1510  0.0716
  137OSM    C1314890   3.798   0.590   7.228 -0.5709  0.0183 -0.2969
  137OSM   H13A14891   3.894   0.545   7.206 -0.8276  0.4579 -2.6078
  137OSM   H13B14892   3.833   0.684   7.268  0.8986 -0.8435  0.5549
  137OSM   H13C14893   3.756   0.610   7.131 -1.3790  1.5466  0.3331
  137OSM    C1214894   3.659   0.381   7.252  0.1588 -0.4389 -0.0885
  137OSM   H12A14895   3.744   0.319   7.224  1.7250  1.9034 -0.8705
  137OSM   H12B14896   3.600   0.405   7.165 -0.0322 -0.5319  0.0153
  137OSM    C1114897   3.568   0.277   7.331 -0.5794  0.2631  0.2341
  137OSM   H11A14898   3.623   0.200   7.390  3.1403  1.6914 -1.0546
  137OSM   H11B14899   3.524   0.213   7.251  0.9811 -1.2419  0.5275
  137OSM      P14900   3.314   0.333   7.373  0.1760 -0.1669  0.2182
  137OSM    O1314901   3.262   0.201   7.404 -0.0025  0.6800  0.0882
  137OSM    O1414902   3.259   0.444   7.448 -0.2438  0.2872 -0.3635
  137OSM    O1114903   3.289   0.371   7.227 -0.3087  0.5533 -0.2519
  137OSM    O1214904   3.475   0.345   7.403 -0.2443 -0.7083 -0.2675
  137OSM    C1S14905   3.309   0.506   7.189  0.2168 -0.8153 -0.0470
  137OSM    H1S14906   3.418   0.528   7.199  0.7162 -2.2392 -1.7090
  137OSM    H1T14907   3.248   0.587   7.232  3.7571  1.4485  1.1612
  137OSM     NF14908   3.333   0.644   6.986  0.1224 -0.5919 -0.4733
  137OSM    HNF14909   3.260   0.711   6.996  0.5361 -0.3198  0.8327
  137OSM    C2S14910   3.279   0.516   7.034  0.4005 -0.3073  0.7805
  137OSM    H2S14911   3.344   0.437   6.991 -0.6568 -0.0319 -1.4883
  137OSM    C3S14912   3.137   0.467   6.992 -0.5241  0.4616 -0.0577
  137OSM    H3S14913   3.062   0.524   7.052  0.0356  0.7542  0.3660
  137OSM     O314914   3.122   0.329   7.012  0.0874 -0.0339  0.2642
  137OSM    HO314915   3.145   0.328   7.105 -0.2561  1.5488  0.4030
  137OSM    C4S14916   3.106   0.499   6.850 -0.5025 -0.2156  0.3205
  137OSM    H4S14917   3.187   0.482   6.777 -0.1703  1.2813  0.3086
  137OSM    C5S14918   3.017   0.597   6.821 -0.2812  0.2561 -0.2003
  137OSM    H5S14919   2.957   0.648   6.898 -0.1536 -1.2579  0.9604
  137OSM    C6S14920   3.022   0.674   6.696  0.6343 -0.4145  0.1600
  137OSM    H6S14921   3.124   0.712   6.677 -0.5266  2.0473 -1.7410
  137OSM    H6T14922   2.947   0.756   6.692  1.6038  0.4466 -0.7681
  137OSM    C7S14923   2.983   0.584   6.576  0.8486  0.1648  0.2048
  137OSM    H7S14924   2.876   0.554   6.588  1.6496 -2.4354  1.4969
  137OSM    H7T14925   3.055   0.500   6.579  1.5579  0.7629  0.2804
  137OSM    C8S14926   2.986   0.646   6.430 -0.3024 -0.7026 -0.0946
  137OSM    H8S14927   2.915   0.729   6.448  0.3186 -0.7386  3.0909
  137OSM    H8T14928   2.950   0.568   6.358  0.9925 -0.8754 -0.5675
  137OSM    C9S14929   3.120   0.705   6.380 -1.1531 -0.0647 -0.0026
  137OSM    H9S14930   3.190   0.635   6.328  1.0975  1.4117  0.8894
  137OSM    H9T14931   3.175   0.751   6.465  1.1210 -0.2606 -1.2628
  137OSM   C10S14932   3.099   0.812   6.281  0.8394 -0.4519  0.4686
  137OSM   H10S14933   3.197   0.851   6.246  1.3179 -1.6164  0.4390
  137OSM   H10T14934   3.063   0.903   6.333  1.5555  1.1964 -1.7414
  137OSM   C11S14935   3.014   0.773   6.158  0.1970 -0.4548  0.5002
  137OSM   H11S14936   2.908   0.764   6.189  0.7380 -1.8596  2.1123
  137OSM   H11T14937   3.050   0.673   6.125  0.5708 -0.5771  1.2518
  137OSM   C12S14938   3.041   0.868   6.046 -0.0352  0.3344 -0.9929
  137OSM   H12S14939   3.146   0.869   6.010 -0.3122 -0.2207 -1.8562
  137OSM   H12T14940   3.006   0.965   6.087 -1.1003 -1.2475  2.1907
  137OSM   C13S14941   2.961   0.829   5.917 -0.0071  0.2431 -0.2315
  137OSM   H13S14942   2.944   0.923   5.861  1.8508 -0.3607 -1.9265
  137OSM   H13T14943   2.857   0.799   5.941  0.4199 -0.5780  0.6858
  137OSM   C14S14944   3.031   0.729   5.820  1.3539 -0.5733 -0.8755
  137OSM   H14S14945   3.029   0.637   5.882  0.3563  0.6643  1.0182
  137OSM   H14T14946   3.133   0.772   5.809  1.8911 -2.0643 -1.9440
  137OSM   C15S14947   2.968   0.705   5.682 -0.1355 -0.4058 -0.0639
  137OSM   H15S14948   2.874   0.645   5.691 -0.9820  1.1600  2.7105
  137OSM   H15T14949   3.042   0.642   5.628  0.3655 -0.2223  0.4147
  137OSM   C16S14950   2.942   0.830   5.600 -0.7258 -0.4751  0.1599
  137OSM   H16S14951   3.035   0.890   5.612 -0.1503 -1.8097  3.2803
  137OSM   H16T14952   2.858   0.890   5.641  0.2384  0.8724  0.2336
  137OSM   C17S14953   2.911   0.812   5.454 -0.0073 -0.2892 -0.5317
  137OSM   H17S14954   2.818   0.751   5.450  1.0194 -1.8552 -1.2063
  137OSM   H17T14955   2.992   0.764   5.395  0.6390 -0.1743  0.2456
  137OSM   C18S14956   2.867   0.951   5.396 -0.2052  0.0524  0.1944
  137OSM   H18S14957   2.844   0.944   5.287 -0.9315 -1.8053  0.4266
  137OSM   H18T14958   2.948   1.026   5.401 -0.6715  0.5318  0.5904
  137OSM   H18U14959   2.770   0.966   5.447 -1.9320 -1.7120 -2.2700
  137OSM    C1F14960   3.461   0.673   6.976  0.3623 -0.1319 -0.3761
  137OSM     OF14961   3.544   0.587   7.002 -0.2693  0.0280 -0.8661
  137OSM    C2F14962   3.506   0.812   6.936  0.1843  0.3483 -0.0532
  137OSM    H2F14963   3.575   0.844   7.018  1.3225  0.0868 -0.8760
  137OSM    H2G14964   3.422   0.882   6.918 -0.0705  0.2106  0.5830
  137OSM    C3F14965   3.593   0.811   6.813 -1.0292 -0.3569 -0.4562
  137OSM    H3F14966   3.674   0.735   6.810 -1.3123 -0.6493 -1.0331
  137OSM    H3G14967   3.650   0.905   6.797  0.1022 -1.1368 -1.0658
  137OSM    C4F14968   3.514   0.813   6.684  0.0842  0.3018  0.7812
  137OSM    H4F14969   3.464   0.912   6.682  2.2588  1.4678  0.7095
  137OSM    H4G14970   3.436   0.734   6.674  1.8996 -1.4014 -0.9662
  137OSM    C5F14971   3.594   0.805   6.548 -0.1381  0.4967 -0.5532
  137OSM    H5F14972   3.576   0.709   6.495 -0.5273  1.0406 -1.4161
  137OSM    H5G14973   3.705   0.806   6.553 -0.1045  0.4344 -1.2375
  137OSM    C6F14974   3.541   0.909   6.451  0.0252 -0.1829  0.4335
  137OSM    H6F14975   3.544   1.014   6.486 -0.5257  0.4542 -1.3282
  137OSM    H6G14976   3.438   0.885   6.419  1.1443  0.2090 -4.0742
  137OSM    C7F14977   3.635   0.912   6.326 -0.2342  0.5653 -0.5566
  137OSM    H7F14978   3.667   0.815   6.283  0.1383  1.0062 -1.2987
  137OSM    H7G14979   3.735   0.947   6.360 -0.3165  0.1109  0.1902
  137OSM    C8F14980   3.585   1.005   6.211  0.3293  0.3355  0.2135
  137OSM    H8F14981   3.670   1.012   6.139 -0.7331 -1.7758 -1.3662
  137OSM    H8G14982   3.555   1.107   6.241  0.1938  0.5017 -0.4594
  137OSM    C9F14983   3.471   0.928   6.148 -0.5069 -0.0342 -0.6356
  137OSM    H9F14984   3.403   0.889   6.224  0.6159 -0.9314 -0.0535
  137OSM   C10F14985   3.455   0.894   6.021  0.3902 -0.1229  1.1579
  137OSM   H10F14986   3.364   0.841   5.990  2.4692 -3.6054  0.3968
  137OSM   C11F14987   3.557   0.927   5.912 -0.2186  0.0854 -0.0244
  137OSM   H11F14988   3.528   0.880   5.816 -0.3760  0.0514  0.0379
  137OSM   H11G14989   3.655   0.876   5.926 -0.3943 -1.5457 -3.6033
  137OSM   C12F14990   3.572   1.077   5.864  0.2114  0.4397  0.0805
  137OSM   H12F14991   3.588   1.148   5.948 -0.9776  3.3326 -1.9958
  137OSM   H12G14992   3.467   1.092   5.833 -0.7853 -3.5166  0.9860
  137OSM   C13F14993   3.660   1.100   5.740  0.1686  0.1993 -0.2290
  137OSM   H13F14994   3.664   1.017   5.667  0.9210  1.3442 -1.5478
  137OSM   H13G14995   3.766   1.111   5.771 -0.1538 -0.1272  1.0077
  137OSM   C14F14996   3.622   1.224   5.649 -0.1908  0.0063 -0.6930
  137OSM   H14F14997   3.632   1.294   5.735 -3.1309 -2.5451  1.9359
  137OSM   H14G14998   3.517   1.210   5.616 -1.4234  3.4235  1.2133
  137OSM   C15F14999   3.725   1.254   5.530 -0.1200  0.0698 -0.3325
  137OSM   H15F15000   3.677   1.339   5.476 -2.2816  0.6846  2.3425
  137OSM   H15G15001   3.735   1.164   5.465 -1.2995 -0.4598  0.1857
  137OSM   C16F15002   3.856   1.297   5.579 -0.5654 -0.4239 -0.0966
  137OSM   H16F15003   3.902   1.230   5.655  2.1035  0.6366 -0.6837
  137OSM   H16G15004   3.835   1.395   5.625 -0.8404  0.5118 -2.1033
  137OSM   C17F15005   3.955   1.321   5.463 -0.4461  0.5407  0.0964
  137OSM   H17F15006   3.896   1.394   5.403  0.2375 -0.6885 -2.1679
  137OSM   H17G15007   3.974   1.230   5.403  0.7284 -0.8191  2.3545
  137OSM   C18F15008   4.093   1.367   5.498 -0.8352  0.6553 -0.5353
  137OSM   H18F15009   4.157   1.415   5.421 -1.1297  0.1109 -1.1349
  137OSM   H18G15010   4.142   1.270   5.523 -0.9916  0.9697  1.1149
  137OSM   H18H15011   4.097   1.430   5.590 -1.1254 -1.8214  1.2746
  138OSM      N15012   5.890   0.392   7.640 -0.6788 -0.1878  0.2862
  138OSM    C1515013   5.876   0.243   7.654  0.0546  0.1070  0.1056
  138OSM   H15A15014   5.775   0.210   7.633 -0.3381  0.8319  0.8217
  138OSM   H15B15015   5.891   0.211   7.756 -0.7994  0.7519  0.4460
  138OSM   H15C15016   5.951   0.195   7.593  0.5359  2.0373 -0.9180
  138OSM    C1415017   5.868   0.421   7.494 -0.5385  0.7133  0.4029
  138OSM   H14A15018   5.794   0.358   7.447 -0.8155  1.7101 -0.5555
  138OSM   H14B15019   5.953   0.382   7.440 -0.8264 -0.6842  0.9370
  138OSM   H14C15020   5.844   0.523   7.464 -1.6810  1.1315  2.5525
  138OSM    C1315021   5.795   0.478   7.718 -0.4710  0.1223 -0.0135
  138OSM   H13A15022   5.807   0.454   7.823  0.4569 -0.6722 -0.2962
  138OSM   H13B15023   5.693   0.465   7.685 -0.7314  2.6798 -0.4961
  138OSM   H13C15024   5.815   0.584   7.713 -2.1832  0.6250  2.0398
  138OSM    C1215025   6.025   0.436   7.678 -0.3003  0.3465 -0.4430
  138OSM   H12A15026   6.028   0.446   7.785 -0.6280  1.9516 -0.5578
  138OSM   H12B15027   6.029   0.539   7.643 -0.1267  0.1143 -1.1351
  138OSM    C1115028   6.147   0.355   7.636 -0.0092  0.1449  0.2714
  138OSM   H11A15029   6.128   0.252   7.672 -0.9375 -0.0816 -0.8377
  138OSM   H11B15030   6.238   0.403   7.679 -1.5145  3.2795  0.2833
  138OSM      P15031   6.267   0.426   7.402  0.2535  0.0383 -0.1378
  138OSM    O1315032   6.229   0.572   7.384  0.1893  0.2216  0.7973
  138OSM    O1415033   6.405   0.420   7.460  0.7419 -0.0909  0.0632
  138OSM    O1115034   6.262   0.359   7.258 -0.5526 -0.1817 -0.1239
  138OSM    O1215035   6.166   0.340   7.493 -0.1881 -0.2537 -0.3062
  138OSM    C1S15036   6.148   0.287   7.222 -0.4598  0.2321  0.2351
  138OSM    H1S15037   6.067   0.338   7.278  0.1996  0.4724  0.9862
  138OSM    H1T15038   6.146   0.180   7.253  0.6185  0.1538  0.0771
  138OSM     NF15039   6.008   0.203   7.043 -0.1392 -0.4623  0.2522
  138OSM    HNF15040   6.020   0.120   6.988  2.0077  1.6919 -2.9224
  138OSM    C2S15041   6.128   0.276   7.069 -0.5444  0.0052  0.3337
  138OSM    H2S15042   6.100   0.375   7.027 -0.7947  0.2474  1.0672
  138OSM    C3S15043   6.260   0.229   6.998  0.6490  0.5803  1.0425
  138OSM    H3S15044   6.299   0.134   7.041  0.1738 -1.1446 -2.0140
  138OSM     O315045   6.370   0.317   7.026  0.0032 -0.5954 -0.3970
  138OSM    HO315046   6.348   0.348   7.114 -0.9114 -3.0993  0.3670
  138OSM    C4S15047   6.232   0.215   6.852  0.2485 -0.1752 -0.0803
  138OSM    H4S15048   6.177   0.295   6.801 -1.1490 -1.6497 -0.9993
  138OSM    C5S15049   6.261   0.117   6.769 -1.2653 -0.3998 -0.0626
  138OSM    H5S15050   6.296   0.017   6.800  0.2740 -0.3341 -1.4360
  138OSM    C6S15051   6.221   0.124   6.628  0.6494  0.8485  0.1185
  138OSM    H6S15052   6.301   0.170   6.567  2.8567 -0.9096  1.5061
  138OSM    H6T15053   6.131   0.186   6.612 -0.8784 -1.1034  0.6924
  138OSM    C7S15054   6.196  -0.014   6.576 -0.7278  0.5007  0.3638
  138OSM    H7S15055   6.110  -0.068   6.622  0.6073 -2.0664  0.0829
  138OSM    H7T15056   6.285  -0.079   6.593 -0.4802  1.3567  2.7614
  138OSM    C8S15057   6.156  -0.019   6.425  0.1385  0.0627 -0.3411
  138OSM    H8S15058   6.243   0.032   6.378 -0.6981  1.5910 -0.3185
  138OSM    H8T15059   6.065   0.041   6.404 -0.8237 -1.1788  0.1659
  138OSM    C9S15060   6.122  -0.160   6.372  0.4374 -0.4656  0.3240
  138OSM    H9S15061   6.034  -0.214   6.413  0.1383 -1.1071 -1.0711
  138OSM    H9T15062   6.209  -0.228   6.385  3.2677  2.6343 -0.9787
  138OSM   C10S15063   6.096  -0.157   6.221  0.2557 -0.5647 -0.1871
  138OSM   H10S15064   6.023  -0.075   6.204  1.2488 -0.0745 -2.5898
  138OSM   H10T15065   6.067  -0.254   6.175  1.9745 -0.7654 -0.9373
  138OSM   C11S15066   6.215  -0.121   6.131  0.3154  0.6148  0.2301
  138OSM   H11S15067   6.296  -0.193   6.156  1.3777  1.1833 -1.3800
  138OSM   H11T15068   6.231  -0.014   6.157 -2.1546  1.4445 -1.3050
  138OSM   C12S15069   6.166  -0.121   5.983 -1.0838 -0.4295 -0.4937
  138OSM   H12S15070   6.077  -0.054   5.974 -0.2235  0.5325 -2.4731
  138OSM   H12T15071   6.148  -0.222   5.940 -0.8685 -0.3216 -0.8400
  138OSM   C13S15072   6.279  -0.061   5.895  0.1682 -0.0645  0.0736
  138OSM   H13S15073   6.370  -0.118   5.924 -0.4675 -2.3886 -2.2066
  138OSM   H13T15074   6.297   0.046   5.920  1.8675 -0.3820  0.3787
  138OSM   C14S15075   6.265  -0.085   5.744  0.4669 -0.7941  0.0374
  138OSM   H14S15076   6.162  -0.057   5.714  0.3387 -0.3392  0.8747
  138OSM   H14T15077   6.277  -0.194   5.733  0.4611 -0.8695  0.7309
  138OSM   C15S15078   6.357   0.004   5.658 -0.4130 -0.3496  0.0016
  138OSM   H15S15079   6.456   0.007   5.710 -0.9082 -1.1772  1.0299
  138OSM   H15T15080   6.324   0.109   5.642  4.7255  1.6453  0.5792
  138OSM   C16S15081   6.380  -0.058   5.514 -0.6105 -0.2397  0.2326
  138OSM   H16S15082   6.280  -0.078   5.471  0.1758 -2.1511 -0.8383
  138OSM   H16T15083   6.437  -0.153   5.513  0.6522  0.4564  1.5743
  138OSM   C17S15084   6.455   0.026   5.408  0.7660 -0.2483  0.2965
  138OSM   H17S15085   6.410   0.126   5.424  1.7795  0.2366  0.1909
  138OSM   H17T15086   6.433  -0.023   5.311 -0.9464 -0.4793  0.7635
  138OSM   C18S15087   6.605   0.037   5.438 -0.7507 -0.7504 -0.5169
  138OSM   H18S15088   6.649  -0.064   5.454  1.7616  0.2944 -0.3485
  138OSM   H18T15089   6.620   0.090   5.534 -0.0225 -4.0324  1.3569
  138OSM   H18U15090   6.661   0.094   5.361  1.0743 -1.0493  0.5288
  138OSM    C1F15091   5.888   0.255   7.072  0.4645 -0.0464 -0.0060
  138OSM     OF15092   5.868   0.367   7.121 -0.5085  0.0507 -0.3049
  138OSM    C2F15093   5.765   0.191   7.020 -0.6507  0.4963  0.2306
  138OSM    H2F15094   5.713   0.133   7.099 -0.4199 -2.4588 -1.6647
  138OSM    H2G15095   5.784   0.120   6.937 -1.5290 -1.1074  1.3589
  138OSM    C3F15096   5.655   0.289   6.963 -0.4413 -0.2577  0.8208
  138OSM    H3F15097   5.632   0.352   7.051 -1.0216  2.3196 -1.0550
  138OSM    H3G15098   5.576   0.214   6.942 -0.8904  0.2977  0.4931
  138OSM    C4F15099   5.699   0.372   6.843  0.2528 -0.2765  0.0306
  138OSM    H4F15100   5.777   0.440   6.884  0.1832 -0.3697  0.3251
  138OSM    H4G15101   5.609   0.426   6.805 -0.9092 -0.5797  2.1595
  138OSM    C5F15102   5.763   0.294   6.729  0.5523  0.1579  0.8111
  138OSM    H5F15103   5.708   0.199   6.712  1.3889 -0.5134  1.7703
  138OSM    H5G15104   5.870   0.266   6.744  0.6054 -2.0569 -2.6252
  138OSM    C6F15105   5.747   0.369   6.597  0.0101  0.1263  0.3490
  138OSM    H6F15106   5.829   0.444   6.587 -1.3972  1.4460 -2.3150
  138OSM    H6G15107   5.656   0.433   6.593  2.8388  4.5412 -1.4115
  138OSM    C7F15108   5.753   0.270   6.482  0.1592 -0.5596 -1.7336
  138OSM    H7F15109   5.661   0.211   6.500 -0.2781  1.1587  3.4148
  138OSM    H7G15110   5.839   0.201   6.496  0.6384  0.1813 -0.8735
  138OSM    C8F15111   5.767   0.335   6.346 -0.1358 -0.2591 -0.6651
  138OSM    H8F15112   5.867   0.385   6.346  0.1320 -0.7843 -0.8565
  138OSM    H8G15113   5.697   0.420   6.331  0.3002  0.3253  0.5297
  138OSM    C9F15114   5.764   0.237   6.235 -0.1223  0.1972  0.0386
  138OSM    H9F15115   5.665   0.192   6.218 -0.0388 -0.6295  1.5529
  138OSM   C10F15116   5.874   0.189   6.173  0.5642 -0.0097 -0.1780
  138OSM   H10F15117   5.868   0.111   6.095  0.4628  0.6551 -0.8452
  138OSM   C11F15118   6.007   0.247   6.202  0.1497 -0.7562  0.8348
  138OSM   H11F15119   6.055   0.213   6.297 -0.2433 -3.5802  0.1079
  138OSM   H11G15120   5.996   0.357   6.213 -0.7115 -0.5000 -1.9957
  138OSM   C12F15121   6.099   0.247   6.075  0.3909 -0.6543  0.5600
  138OSM   H12F15122   6.101   0.141   6.042  0.3237 -0.9415  1.4561
  138OSM   H12G15123   6.202   0.284   6.090 -0.6399  2.4452  0.7569
  138OSM   C13F15124   6.032   0.342   5.961 -0.1585  0.1769  0.3782
  138OSM   H13F15125   6.060   0.449   5.973  3.8903 -0.3751 -2.1291
  138OSM   H13G15126   5.921   0.348   5.966 -0.1436  0.8135  0.0836
  138OSM   C14F15127   6.082   0.295   5.820  0.3598  0.6283 -0.4930
  138OSM   H14F15128   6.076   0.185   5.835  0.9871  0.8877  2.1978
  138OSM   H14G15129   6.192   0.313   5.818  0.3363  1.0351  0.9432
  138OSM   C15F15130   6.000   0.352   5.704  0.3709 -0.2920  0.7553
  138OSM   H15F15131   5.994   0.462   5.715 -0.8462 -0.0314 -1.8728
  138OSM   H15G15132   5.891   0.329   5.704  0.0759  1.0274  0.1626
  138OSM   C16F15133   6.069   0.330   5.569  0.0630  0.7147  0.7987
  138OSM   H16F15134   6.092   0.222   5.565 -3.2512 -0.0562 -0.0578
  138OSM   H16G15135   6.165   0.387   5.574 -0.4588  1.6412  0.5936
  138OSM   C17F15136   5.993   0.388   5.449  0.1663  0.6761 -0.2357
  138OSM   H17F15137   5.990   0.499   5.454 -0.7585  0.6088  1.7802
  138OSM   H17G15138   5.887   0.365   5.470  0.5714  1.1128  2.7214
  138OSM   C18F15139   6.033   0.332   5.313 -0.1244  1.0124  0.1210
  138OSM   H18F15140   6.040   0.222   5.311 -2.2718  0.8010 -3.0042
  138OSM   H18G15141   6.130   0.379   5.285  0.1881 -0.2419 -1.0000
  138OSM   H18H15142   5.956   0.356   5.237  0.6353  3.4417  0.0312
  139OSM      N15143   1.551   4.203   7.542 -0.2382  0.4221  0.6751
  139OSM    C1515144   1.676   4.265   7.581  0.0234  0.8569  0.0252
  139OSM   H15A15145   1.718   4.228   7.673  1.6492  1.2594 -0.5282
  139OSM   H15B15146   1.671   4.372   7.591  2.2476  0.8923  1.4355
  139OSM   H15C15147   1.745   4.245   7.500  1.3291 -2.4225  1.7762
  139OSM    C1415148   1.558   4.060   7.576 -0.3385  0.3083 -0.6668
  139OSM   H14A15149   1.570   4.049   7.683 -3.0907  1.2718 -0.1896
  139OSM   H14B15150   1.644   4.028   7.519  1.6276  1.7136  1.3258
  139OSM   H14C15151   1.468   4.008   7.546 -1.0993  0.9102  0.5027
  139OSM    C1315152   1.439   4.252   7.622 -0.1026  0.2831 -0.4111
  139OSM   H13A15153   1.448   4.360   7.628  1.0740  0.1163  1.9888
  139OSM   H13B15154   1.452   4.216   7.723  4.1767 -0.0958 -0.9039
  139OSM   H13C15155   1.343   4.225   7.580 -0.6520 -0.0656  1.0308
  139OSM    C1215156   1.523   4.222   7.394  0.3885 -0.0734  0.1419
  139OSM   H12A15157   1.616   4.209   7.341 -0.4249  0.0110 -1.3720
  139OSM   H12B15158   1.493   4.325   7.383  0.0393 -0.0283  1.4435
  139OSM    C1115159   1.413   4.129   7.337 -0.2844 -0.0495  0.2267
  139OSM   H11A15160   1.437   4.021   7.349 -0.3997 -0.1645 -0.5228
  139OSM   H11B15161   1.408   4.121   7.226 -1.5565 -2.0414  0.3808
  139OSM      P15162   1.200   4.289   7.312  0.3472 -0.0382  0.0267
  139OSM    O1315163   1.101   4.327   7.416 -0.0741  0.7139 -0.4993
  139OSM    O1415164   1.299   4.394   7.283 -0.7090 -0.7047 -0.2257
  139OSM    O1115165   1.119   4.234   7.185 -0.0956 -0.2774  0.5505
  139OSM    O1215166   1.282   4.166   7.378  0.6462 -0.0397 -0.1568
  139OSM    C1S15167   1.006   4.145   7.194  0.5798 -0.7431  0.2009
  139OSM    H1S15168   0.914   4.204   7.213 -1.2215 -2.8592 -1.4413
  139OSM    H1T15169   1.010   4.072   7.277  1.0549 -2.6855 -1.4719
  139OSM     NF15170   0.841   4.010   7.066 -0.2647  0.5101  0.0210
  139OSM    HNF15171   0.836   3.913   7.087  1.2088  0.9774  3.0752
  139OSM    C2S15172   0.978   4.070   7.063  1.1908 -0.0241  0.3133
  139OSM    H2S15173   0.989   4.137   6.975  1.5548 -2.5042 -1.6407
  139OSM    C3S15174   1.089   3.961   7.044  0.5637 -0.0251  0.0683
  139OSM    H3S15175   1.061   3.890   7.124 -1.5090  0.7541  0.0868
  139OSM     O315176   1.220   3.993   7.084 -0.7470 -0.3371 -0.5773
  139OSM    HO315177   1.211   4.077   7.130  2.2185 -0.3061  0.1578
  139OSM    C4S15178   1.089   3.881   6.916 -0.1795  0.5909  0.2881
  139OSM    H4S15179   1.034   3.786   6.917  1.3241 -0.3102  0.6872
  139OSM    C5S15180   1.161   3.901   6.801  0.0057  0.7892 -0.2893
  139OSM    H5S15181   1.229   3.987   6.798  0.1521  1.0178  3.7512
  139OSM    C6S15182   1.162   3.815   6.675 -0.4154 -0.2220 -0.4019
  139OSM    H6S15183   1.113   3.870   6.592 -0.3416 -0.7926 -0.8303
  139OSM    H6T15184   1.097   3.726   6.689 -1.3351  0.3552 -0.8779
  139OSM    C7S15185   1.306   3.759   6.640  0.0410  0.0291 -0.4059
  139OSM    H7S15186   1.330   3.695   6.728  1.1230  0.3956 -0.4125
  139OSM    H7T15187   1.390   3.831   6.637  0.2852 -0.2392 -0.1967
  139OSM    C8S15188   1.311   3.677   6.508  0.1760  0.2002 -0.0614
  139OSM    H8S15189   1.300   3.746   6.422  1.8080 -0.7179 -1.0700
  139OSM    H8T15190   1.227   3.604   6.510 -0.0353  0.1218  5.6545
  139OSM    C9S15191   1.441   3.597   6.495 -0.2025 -0.5278 -0.3512
  139OSM    H9S15192   1.468   3.532   6.581  1.1125 -0.1961 -0.4879
  139OSM    H9T15193   1.525   3.670   6.492 -0.9431  0.6002  2.7401
  139OSM   C10S15194   1.438   3.493   6.376 -0.4142 -0.2095 -0.0141
  139OSM   H10S15195   1.357   3.418   6.392  1.6106 -2.9309 -1.6488
  139OSM   H10T15196   1.531   3.432   6.374  0.5220  1.1816 -1.3766
  139OSM   C11S15197   1.410   3.554   6.236  0.5405  0.3838  0.5978
  139OSM   H11S15198   1.479   3.640   6.222 -0.6654  1.1142 -1.1564
  139OSM   H11T15199   1.308   3.597   6.241  0.4357  0.1094  0.8639
  139OSM   C12S15200   1.424   3.460   6.111 -0.0371 -0.3006  0.2252
  139OSM   H12S15201   1.355   3.374   6.125  1.2643 -1.2675  0.9726
  139OSM   H12T15202   1.525   3.414   6.120 -1.7431 -5.0071 -1.3851
  139OSM   C13S15203   1.409   3.535   5.982  0.1084 -0.0447  0.1399
  139OSM   H13S15204   1.500   3.599   5.977 -0.4867  0.7259 -2.1118
  139OSM   H13T15205   1.316   3.595   5.986 -0.5807 -1.1388  1.2142
  139OSM   C14S15206   1.391   3.446   5.859  0.0357 -0.0711 -0.7999
  139OSM   H14S15207   1.313   3.368   5.874 -0.5288  0.2529 -1.9446
  139OSM   H14T15208   1.488   3.396   5.838 -0.6019 -0.6529 -2.5368
  139OSM   C15S15209   1.356   3.519   5.727 -0.0546 -0.1021 -0.0766
  139OSM   H15S15210   1.430   3.593   5.690 -2.4203  2.0543 -0.8828
  139OSM   H15T15211   1.262   3.576   5.745 -0.1857 -0.6622  1.0444
  139OSM   C16S15212   1.317   3.423   5.610 -0.0918  0.2443  0.3361
  139OSM   H16S15213   1.255   3.336   5.640 -0.0782  0.0822 -0.0868
  139OSM   H16T15214   1.402   3.375   5.556 -0.1119 -2.5468  2.5587
  139OSM   C17S15215   1.245   3.491   5.490  0.1583  0.1663 -0.3847
  139OSM   H17S15216   1.145   3.527   5.521 -0.2717 -1.9922  0.8953
  139OSM   H17T15217   1.228   3.408   5.419  1.0647 -1.2580  1.0064
  139OSM   C18S15218   1.318   3.607   5.423  0.1525  0.3288 -0.3029
  139OSM   H18S15219   1.425   3.584   5.407  0.0676  0.1555 -0.6417
  139OSM   H18T15220   1.302   3.696   5.488  2.4323  2.0028 -1.8875
  139OSM   H18U15221   1.276   3.632   5.323  0.3078  2.3398  0.0906
  139OSM    C1F15222   0.735   4.092   7.053 -0.1716  0.1832 -0.0881
  139OSM     OF15223   0.748   4.211   7.040  0.2258 -0.7811 -0.0549
  139OSM    C2F15224   0.594   4.036   7.051  0.5821 -0.6627 -0.1303
  139OSM    H2F15225   0.561   4.044   7.157  2.6834  1.3972  0.4514
  139OSM    H2G15226   0.602   3.928   7.024  0.3923 -0.7695  0.2306
  139OSM    C3F15227   0.496   4.096   6.946 -0.2726  0.0373  0.8875
  139OSM    H3F15228   0.490   4.207   6.946 -0.8401  0.0261  2.0510
  139OSM    H3G15229   0.396   4.058   6.977  0.6288 -2.2743  1.1422
  139OSM    C4F15230   0.524   4.040   6.808 -0.1219  0.5950  0.1110
  139OSM    H4F15231   0.556   3.934   6.818 -0.4882  0.4650 -0.1023
  139OSM    H4G15232   0.623   4.078   6.772 -0.0810 -1.0736 -1.7512
  139OSM    C5F15233   0.421   4.073   6.695 -0.6355 -0.3983 -0.3672
  139OSM    H5F15234   0.379   4.175   6.712  3.0768  1.2606  0.0416
  139OSM    H5G15235   0.341   3.997   6.687  0.5101 -1.9038  1.4440
  139OSM    C6F15236   0.493   4.089   6.562  0.6777 -0.0339  0.7148
  139OSM    H6F15237   0.548   3.996   6.533  2.0687  1.3120 -1.2100
  139OSM    H6G15238   0.571   4.168   6.561  0.9729 -0.3189  0.8345
  139OSM    C7F15239   0.381   4.119   6.455 -0.1673 -0.0459  0.1806
  139OSM    H7F15240   0.307   4.192   6.492 -1.0530  1.0950 -3.4436
  139OSM    H7G15241   0.319   4.029   6.431 -1.5497  0.1963  2.4859
  139OSM    C8F15242   0.440   4.165   6.321 -0.3265  0.1025  0.4911
  139OSM    H8F15243   0.526   4.096   6.302  1.0815  2.0430 -0.5610
  139OSM    H8G15244   0.476   4.270   6.327  0.0648 -0.0834  1.5745
  139OSM    C9F15245   0.339   4.154   6.206  0.4391 -0.6043  0.1865
  139OSM    H9F15246   0.235   4.182   6.231  0.1568 -0.3750 -1.1478
  139OSM   C10F15247   0.362   4.090   6.088  0.3760 -0.1198  0.2664
  139OSM   H10F15248   0.277   4.091   6.018 -0.4389 -0.7075  1.2312
  139OSM   C11F15249   0.487   4.034   6.034  0.3015 -0.5025 -0.4996
  139OSM   H11F15250   0.495   3.924   6.050  1.3609 -0.2566  0.7965
  139OSM   H11G15251   0.579   4.066   6.087  0.3063 -1.7691  0.3030
  139OSM   C12F15252   0.502   4.058   5.879  0.8122  0.0121  0.0074
  139OSM   H12F15253   0.606   4.025   5.854 -0.3007 -3.2307 -0.9291
  139OSM   H12G15254   0.493   4.166   5.853  0.2525  0.4580  1.9207
  139OSM   C13F15255   0.405   3.979   5.797  0.4800 -0.1324 -0.3900
  139OSM   H13F15256   0.300   4.009   5.814  0.6921  0.7435 -0.6152
  139OSM   H13G15257   0.403   3.875   5.839 -0.6603  0.6138  1.5118
  139OSM   C14F15258   0.443   3.972   5.648 -0.1374  0.2524 -0.0300
  139OSM   H14F15259   0.537   3.918   5.626 -0.4032 -0.8957  1.4945
  139OSM   H14G15260   0.454   4.073   5.602  1.5082 -0.3652 -1.0947
  139OSM   C15F15261   0.347   3.895   5.562  0.4865 -0.6345 -0.1177
  139OSM   H15F15262   0.243   3.928   5.583  0.3021 -2.4195  2.1140
  139OSM   H15G15263   0.337   3.790   5.596 -1.1956  0.1174  1.9136
  139OSM   C16F15264   0.383   3.890   5.408 -0.5025 -0.1057 -0.7900
  139OSM   H16F15265   0.364   3.987   5.357 -0.9660 -0.6939 -1.7510
  139OSM   H16G15266   0.309   3.818   5.369 -1.2181 -0.2738  0.7929
  139OSM   C17F15267   0.529   3.845   5.369 -0.3371 -0.3389 -0.0559
  139OSM   H17F15268   0.556   3.765   5.441  0.7519 -0.4322 -0.5623
  139OSM   H17G15269   0.611   3.920   5.374  1.6412 -2.3802 -0.0948
  139OSM   C18F15270   0.537   3.787   5.227 -0.2237  0.5630  0.2404
  139OSM   H18F15271   0.480   3.692   5.232  1.7343 -0.6200  1.0866
  139OSM   H18G15272   0.641   3.762   5.197 -0.6945 -0.0444 -0.9221
  139OSM   H18H15273   0.493   3.862   5.158  0.5930  0.6909 -0.1489
  140OSM      N15274   2.950   0.251   8.137 -0.3264 -0.3179  0.5344
  140OSM    C1515275   3.013   0.121   8.161 -0.7418  0.8902 -0.4574
  140OSM   H15A15276   3.097   0.108   8.094 -1.0875  0.6753 -0.8560
  140OSM   H15B15277   2.941   0.044   8.137 -0.6639  0.4495  0.6902
  140OSM   H15C15278   3.044   0.110   8.264  0.8960 -4.2976 -1.1992
  140OSM    C1415279   2.842   0.262   8.244 -0.2594  0.1760 -0.5739
  140OSM   H14A15280   2.778   0.349   8.237 -0.7081 -0.0754  0.3131
  140OSM   H14B15281   2.874   0.249   8.346 -1.7313  0.2013 -0.0762
  140OSM   H14C15282   2.773   0.178   8.238 -1.1477  0.7751  0.7331
  140OSM    C1315283   3.049   0.363   8.149 -0.5876 -0.5910 -0.1082
  140OSM   H13A15284   2.999   0.459   8.156 -1.5008 -1.0697  0.1012
  140OSM   H13B15285   3.117   0.359   8.065 -0.0971  3.9893 -0.1944
  140OSM   H13C15286   3.106   0.364   8.240 -1.2264  1.2206  0.3159
  140OSM    C1215287   2.871   0.257   8.005 -0.3319  0.5116  0.2287
  140OSM   H12A15288   2.798   0.336   8.007 -0.9204  0.0144 -0.8193
  140OSM   H12B15289   2.806   0.171   8.000 -1.3394  1.2544  0.4328
  140OSM    C1115290   2.942   0.265   7.869 -0.2318 -0.6176  0.0624
  140OSM   H11A15291   3.027   0.335   7.875 -0.4950 -0.3604  0.8644
  140OSM   H11B15292   2.872   0.306   7.794  0.6483 -0.0173 -0.4406
  140OSM      P15293   2.894   0.031   7.768  0.1757  0.1403 -0.3687
  140OSM    O1315294   2.975  -0.094   7.755  0.7578 -0.2257 -0.0175
  140OSM    O1415295   2.772   0.028   7.856 -0.3354 -0.1515  0.4248
  140OSM    O1115296   2.855   0.086   7.624  0.6668 -0.2219  0.2723
  140OSM    O1215297   2.989   0.140   7.822 -0.1782  0.1590 -0.5510
  140OSM    C1S15298   2.948   0.067   7.517 -0.2439 -0.1676 -0.1029
  140OSM    H1S15299   2.936  -0.040   7.493 -1.1198 -0.1300  0.1419
  140OSM    H1T15300   3.051   0.095   7.550 -1.2126  3.2559  0.4486
  140OSM     NF15301   3.008   0.115   7.291 -0.1836  0.5281 -0.1412
  140OSM    HNF15302   3.093   0.167   7.293  0.9784 -1.2420 -1.0034
  140OSM    C2S15303   2.910   0.148   7.388 -0.4594 -0.0499 -0.4765
  140OSM    H2S15304   2.815   0.108   7.345 -0.2611  0.5288 -1.4780
  140OSM    C3S15305   2.923   0.300   7.407 -0.1953 -0.2091  0.0361
  140OSM    H3S15306   3.029   0.321   7.433  0.2941 -1.2727 -1.0332
  140OSM     O315307   2.860   0.341   7.534  0.0144  0.2001  0.2359
  140OSM    HO315308   2.842   0.263   7.587 -0.0348 -0.7049 -1.0496
  140OSM    C4S15309   2.872   0.378   7.287 -0.2331  0.4994  0.3469
  140OSM    H4S15310   2.931   0.366   7.195 -0.3703 -0.4690  0.3761
  140OSM    C5S15311   2.753   0.435   7.268 -0.1273 -1.0050  0.0723
  140OSM    H5S15312   2.683   0.437   7.353 -0.5038  0.1831 -0.2473
  140OSM    C6S15313   2.702   0.482   7.137 -0.1833 -0.1725 -0.1457
  140OSM    H6S15314   2.735   0.588   7.127 -2.4308  0.4925 -0.9316
  140OSM    H6T15315   2.592   0.487   7.130 -0.0965  2.5232 -0.9656
  140OSM    C7S15316   2.746   0.422   7.005 -0.7373  0.5115 -0.0020
  140OSM    H7S15317   2.851   0.449   6.981 -0.8999  0.1279 -1.2267
  140OSM    H7T15318   2.694   0.488   6.932  1.6808  0.3343 -2.0445
  140OSM    C8S15319   2.720   0.273   6.980 -0.3336 -0.7253 -0.0533
  140OSM    H8S15320   2.610   0.261   6.969 -0.5641  0.2649  0.9886
  140OSM    H8T15321   2.751   0.222   7.074 -1.4160 -2.3051 -0.5075
  140OSM    C9S15322   2.804   0.214   6.867 -0.2861 -0.2174  0.2688
  140OSM    H9S15323   2.799   0.104   6.871 -2.6069 -0.1892 -0.2081
  140OSM    H9T15324   2.904   0.251   6.897 -0.4006 -0.6410  1.2102
  140OSM   C10S15325   2.779   0.264   6.721 -0.2537 -0.6731 -0.4689
  140OSM   H10S15326   2.773   0.374   6.719  2.0745 -0.4626  0.5724
  140OSM   H10T15327   2.680   0.236   6.680  0.8051  0.1748 -3.8493
  140OSM   C11S15328   2.895   0.221   6.631 -0.2940 -0.4012 -0.4555
  140OSM   H11S15329   2.908   0.113   6.652  0.0380  0.0175  1.7769
  140OSM   H11T15330   2.991   0.266   6.662 -0.4180 -0.6798  0.3583
  140OSM   C12S15331   2.862   0.242   6.477 -1.2445 -0.1116 -0.3463
  140OSM   H12S15332   2.844   0.350   6.455 -0.3639  0.0396 -0.3601
  140OSM   H12T15333   2.767   0.190   6.450 -2.5783  2.0691 -0.1679
  140OSM   C13S15334   2.981   0.200   6.388  0.5370  0.2657  0.5089
  140OSM   H13S15335   3.037   0.113   6.429 -0.0683 -1.8043 -2.6743
  140OSM   H13T15336   3.054   0.281   6.411 -0.5367  0.8996  1.8280
  140OSM   C14S15337   2.945   0.167   6.247 -1.0293  0.6445  0.7855
  140OSM   H14S15338   2.846   0.118   6.243 -1.4306  1.5335 -0.9256
  140OSM   H14T15339   3.020   0.097   6.204  0.0704  2.0509  0.3202
  140OSM   C15S15340   2.952   0.290   6.154  0.2796  0.0931  0.0344
  140OSM   H15S15341   2.951   0.251   6.050 -4.3010  2.1042 -0.9220
  140OSM   H15T15342   3.045   0.345   6.179  0.9300 -0.9261 -0.1149
  140OSM   C16S15343   2.831   0.383   6.161 -0.1096  1.1496 -0.2829
  140OSM   H16S15344   2.854   0.469   6.094  1.9705  0.3692 -0.6327
  140OSM   H16T15345   2.810   0.423   6.262  0.4882  0.4968  0.1091
  140OSM   C17S15346   2.709   0.312   6.096 -0.0760 -0.5018 -0.3151
  140OSM   H17S15347   2.683   0.231   6.167 -0.7009  1.7786  2.2289
  140OSM   H17T15348   2.742   0.262   6.002  2.7992 -0.3743  0.5313
  140OSM   C18S15349   2.587   0.405   6.065  0.0287  0.2226  0.2309
  140OSM   H18S15350   2.624   0.494   6.011  1.1255 -0.8981 -0.9309
  140OSM   H18T15351   2.529   0.427   6.157 -0.6571 -0.5617 -0.0005
  140OSM   H18U15352   2.525   0.345   5.995  3.0424 -0.9752 -1.6124
  140OSM    C1F15353   3.021  -0.003   7.232 -0.0038  0.5926 -0.0639
  140OSM     OF15354   2.930  -0.082   7.249  0.1264 -0.2216  0.2965
  140OSM    C2F15355   3.150  -0.047   7.164 -0.6062 -0.5898 -0.4688
  140OSM    H2F15356   3.212  -0.088   7.246  2.3760  2.1188 -1.1921
  140OSM    H2G15357   3.207   0.040   7.125  2.0264 -2.6858 -1.6365
  140OSM    C3F15358   3.138  -0.145   7.045  0.6186 -0.0150  0.0783
  140OSM    H3F15359   3.086  -0.236   7.083  1.4754  0.4460  2.5408
  140OSM    H3G15360   3.241  -0.179   7.022  0.5400  0.9351 -1.8948
  140OSM    C4F15361   3.068  -0.079   6.929  0.6802  0.6262 -0.5665
  140OSM    H4F15362   3.123   0.008   6.887  2.1826 -1.3798 -3.0433
  140OSM    H4G15363   2.966  -0.055   6.966  1.1175  2.0316 -0.1969
  140OSM    C5F15364   3.073  -0.175   6.817 -0.6540  0.1623  0.1631
  140OSM    H5F15365   3.008  -0.260   6.848 -0.3357 -0.2879 -0.3689
  140OSM    H5G15366   3.179  -0.206   6.802 -0.4869  0.5817  0.4824
  140OSM    C6F15367   3.030  -0.113   6.683  0.0705 -0.1436 -0.5091
  140OSM    H6F15368   3.092  -0.026   6.653 -0.2708  0.5722  0.8094
  140OSM    H6G15369   2.926  -0.075   6.690  0.2671  0.3314 -0.1219
  140OSM    C7F15370   3.043  -0.215   6.572 -0.0987 -0.2931 -0.8253
  140OSM    H7F15371   2.987  -0.295   6.625  0.4945  2.0152  3.7322
  140OSM    H7G15372   3.141  -0.258   6.541 -0.0034 -0.9822  0.3764
  140OSM    C8F15373   2.972  -0.183   6.441  0.0261 -0.6098 -0.2590
  140OSM    H8F15374   3.035  -0.112   6.382 -1.9579  0.5563 -1.0941
  140OSM    H8G15375   2.871  -0.139   6.454  0.2847 -0.4169  1.2607
  140OSM    C9F15376   2.953  -0.314   6.365  0.5389 -0.3050  0.8491
  140OSM    H9F15377   2.919  -0.395   6.430 -3.4444  1.8124  1.6971
  140OSM   C10F15378   2.995  -0.343   6.242  1.1025  0.7143 -0.1771
  140OSM   H10F15379   2.975  -0.443   6.201 -4.4015  1.2926  0.3599
  140OSM   C11F15380   3.047  -0.250   6.136  0.2669 -0.2522 -0.6118
  140OSM   H11F15381   3.108  -0.310   6.065  0.9675 -1.2845  0.8148
  140OSM   H11G15382   3.124  -0.188   6.187  0.0305  0.0443 -0.6133
  140OSM   C12F15383   2.930  -0.175   6.061  0.1288  0.3649 -0.1573
  140OSM   H12F15384   2.866  -0.129   6.140  0.6046  2.1706 -0.7709
  140OSM   H12G15385   2.871  -0.253   6.009 -0.6675 -1.0578  2.6861
  140OSM   C13F15386   2.995  -0.074   5.969  0.8758 -0.4204  0.5816
  140OSM   H13F15387   3.058  -0.126   5.894 -0.1471 -1.9320  0.7174
  140OSM   H13G15388   3.051   0.005   6.024  0.0004  0.0966  0.7465
  140OSM   C14F15389   2.891   0.001   5.880  0.0765  0.0519  0.2462
  140OSM   H14F15390   2.828   0.068   5.942 -1.4977 -1.5430  0.4651
  140OSM   H14G15391   2.825  -0.070   5.827  0.1188  0.6586 -0.6447
  140OSM   C15F15392   2.982   0.088   5.786 -0.2478  0.2313  0.5968
  140OSM   H15F15393   3.014   0.020   5.704 -1.1324  0.8014 -0.2409
  140OSM   H15G15394   3.067   0.128   5.845  1.3838 -0.2489 -1.3163
  140OSM   C16F15395   2.912   0.199   5.712  0.1104 -0.1158 -0.0972
  140OSM   H16F15396   2.986   0.251   5.648  1.5654 -2.8844 -0.8455
  140OSM   H16G15397   2.877   0.286   5.772 -0.0613 -0.0484 -0.2963
  140OSM   C17F15398   2.792   0.139   5.628 -0.0216  0.0302  0.6117
  140OSM   H17F15399   2.723   0.092   5.700  1.2029  0.7451  2.3390
  140OSM   H17G15400   2.833   0.061   5.560 -0.2657 -0.0031  0.5015
  140OSM   C18F15401   2.725   0.249   5.553 -0.2531 -0.1074  0.2137
  140OSM   H18F15402   2.642   0.215   5.486  1.4850  0.0810 -2.1662
  140OSM   H18G15403   2.798   0.306   5.493 -3.0183  0.3639 -3.0367
  140OSM   H18H15404   2.675   0.325   5.617 -0.5789  0.9528 -1.2522
  141OSM      N15405   0.856   2.160   8.142 -0.8970  0.6336 -0.5856
  141OSM    C1515406   1.002   2.117   8.133  0.8548 -0.0085  0.0371
  141OSM   H15A15407   1.043   2.143   8.037 -0.0301  0.8752 -0.1223
  141OSM   H15B15408   1.014   2.011   8.145  2.3398  0.4076  3.5246
  141OSM   H15C15409   1.062   2.179   8.199 -0.0825  2.8039 -1.5645
  141OSM    C1415410   0.791   2.093   8.260  0.9349 -0.1274 -0.1249
  141OSM   H14A15411   0.859   2.082   8.343  1.4366  0.6053 -0.4216
  141OSM   H14B15412   0.755   1.996   8.229 -0.9567  1.0372 -1.8517
  141OSM   H14C15413   0.704   2.153   8.280  0.8949  0.3753 -1.6555
  141OSM    C1315414   0.866   2.307   8.160 -0.1373  0.2114  0.5336
  141OSM   H13A15415   0.767   2.350   8.173 -0.0808  0.2208  0.9641
  141OSM   H13B15416   0.920   2.349   8.077  1.6383 -1.4803  0.7590
  141OSM   H13C15417   0.929   2.344   8.239 -1.3511 -0.2470  1.7574
  141OSM    C1215418   0.787   2.113   8.016  0.0848  0.3813  0.9413
  141OSM   H12A15419   0.699   2.170   7.988 -0.4953 -1.1226 -0.4706
  141OSM   H12B15420   0.761   2.011   8.035  1.8601 -0.0430  1.2758
  141OSM    C1115421   0.860   2.113   7.874  0.0546 -0.5748 -0.2275
  141OSM   H11A15422   0.892   2.217   7.852 -0.0303 -0.3277  0.7450
  141OSM   H11B15423   0.793   2.082   7.792  0.1452 -0.3772 -0.3764
  141OSM      P15424   0.970   1.875   7.822 -0.0675 -0.3070 -0.0108
  141OSM    O1315425   1.085   1.801   7.875 -0.2269  0.3001 -0.8498
  141OSM    O1415426   0.842   1.824   7.860  0.5985 -0.0198  0.2885
  141OSM    O1115427   0.978   1.879   7.671 -0.2675  0.5997 -0.3253
  141OSM    O1215428   0.977   2.025   7.860 -0.8084 -0.3294 -0.3907
  141OSM    C1S15429   1.093   1.948   7.611  0.1566  0.0909  0.1614
  141OSM    H1S15430   1.184   1.900   7.653 -1.1306 -0.8409  2.0426
  141OSM    H1T15431   1.094   2.058   7.632  3.5354  0.0380  0.7581
  141OSM     NF15432   1.209   1.952   7.396  0.5182  0.2699 -0.5761
  141OSM    HNF15433   1.218   2.049   7.377  0.5044  0.6733  1.3201
  141OSM    C2S15434   1.084   1.912   7.459 -0.4283  0.1848  0.2751
  141OSM    H2S15435   1.061   1.806   7.433  0.5860  0.0175  0.0140
  141OSM    C3S15436   0.954   1.983   7.401 -0.7907 -0.4561  0.2029
  141OSM    H3S15437   0.960   2.092   7.423 -2.1467 -0.6079  1.4812
  141OSM     O315438   0.831   1.960   7.468  0.0928 -0.5133 -0.2514
  141OSM    HO315439   0.863   1.911   7.544 -0.5932  1.3463  1.3205
  141OSM    C4S15440   0.928   1.957   7.257 -0.2031  0.3929 -0.4831
  141OSM    H4S15441   0.930   1.853   7.224 -0.3879  0.2782 -0.1355
  141OSM    C5S15442   0.890   2.055   7.167 -1.0158  0.1001 -0.2525
  141OSM    H5S15443   0.877   2.161   7.194 -0.1222 -0.1086  1.1418
  141OSM    C6S15444   0.861   2.016   7.026  0.3890 -0.1405 -0.0843
  141OSM    H6S15445   0.758   2.044   6.995  0.7339  0.8355 -0.3951
  141OSM    H6T15446   0.860   1.908   7.001 -0.7100  0.2407 -1.9211
  141OSM    C7S15447   0.967   2.093   6.939 -0.3113 -0.3194  0.2496
  141OSM    H7S15448   1.060   2.032   6.936 -1.2792 -1.9276  1.4262
  141OSM    H7T15449   0.978   2.199   6.970 -0.1798  0.2463 -1.6142
  141OSM    C8S15450   0.924   2.102   6.790 -0.3265 -0.0058 -0.1290
  141OSM    H8S15451   1.001   2.165   6.742  0.4503  0.2131  1.3495
  141OSM    H8T15452   0.827   2.154   6.776  0.6776  1.4538 -2.0798
  141OSM    C9S15453   0.927   1.966   6.721  0.5590  0.1255 -0.3323
  141OSM    H9S15454   0.847   1.906   6.770 -0.9255  3.1251  1.1568
  141OSM    H9T15455   1.028   1.922   6.739  0.7872  1.3374  1.6898
  141OSM   C10S15456   0.907   1.972   6.564  0.2160  0.5452  0.1275
  141OSM   H10S15457   0.812   2.027   6.550  0.9667  1.3031 -2.6586
  141OSM   H10T15458   0.882   1.872   6.521  1.0148 -0.7043  2.3904
  141OSM   C11S15459   1.023   2.051   6.491 -0.7309  0.1452  0.3366
  141OSM   H11S15460   1.109   1.981   6.497 -1.9948 -1.6006 -0.8566
  141OSM   H11T15461   1.035   2.155   6.528  3.4245 -0.2119  0.4248
  141OSM   C12S15462   1.013   2.063   6.334  0.4171  0.3746 -0.7034
  141OSM   H12S15463   1.099   2.118   6.289  1.2473 -0.5586 -0.3031
  141OSM   H12T15464   0.918   2.121   6.332  0.9885  1.6289  2.3203
  141OSM   C13S15465   1.008   1.939   6.250  0.7216 -0.3943 -0.2105
  141OSM   H13S15466   0.914   1.880   6.249  1.3190 -1.3930  1.0193
  141OSM   H13T15467   1.093   1.877   6.284  3.2160  1.4520 -2.6074
  141OSM   C14S15468   1.028   1.956   6.097  0.1996  0.5025  0.2270
  141OSM   H14S15469   1.093   2.043   6.074  1.5063 -0.3893  0.4379
  141OSM   H14T15470   0.925   1.981   6.062  0.0179  1.2823  1.2767
  141OSM   C15S15471   1.084   1.832   6.021  0.0145  0.1745  0.2797
  141OSM   H15S15472   1.027   1.744   6.059 -1.0198  0.4226 -0.6515
  141OSM   H15T15473   1.186   1.804   6.054  0.5351 -1.5366 -2.4847
  141OSM   C16S15474   1.069   1.820   5.860 -0.5357  0.1352 -0.0564
  141OSM   H16S15475   0.966   1.794   5.825 -0.3164 -0.2701 -0.4176
  141OSM   H16T15476   1.126   1.727   5.837 -2.1224 -0.8163 -0.3643
  141OSM   C17S15477   1.120   1.946   5.789 -0.0575 -0.3740 -0.0067
  141OSM   H17S15478   1.149   1.916   5.686 -3.6252  1.1218 -1.5855
  141OSM   H17T15479   1.207   1.982   5.848  1.2333  0.0099 -2.0610
  141OSM   C18S15480   1.016   2.053   5.784 -0.2533 -0.4648  0.2312
  141OSM   H18S15481   0.991   2.076   5.889 -0.0110 -4.3773  1.3200
  141OSM   H18T15482   0.925   2.006   5.738  0.2560  0.0869 -1.4112
  141OSM   H18U15483   1.052   2.141   5.726  0.7444  0.9667  2.8926
  141OSM    C1F15484   1.321   1.875   7.380  0.6561 -0.0788 -0.1777
  141OSM     OF15485   1.317   1.762   7.421 -0.2476  0.1949  0.1399
  141OSM    C2F15486   1.437   1.932   7.311  1.2040  0.1322 -0.1640
  141OSM    H2F15487   1.497   1.971   7.397 -0.4047  3.2937 -0.3450
  141OSM    H2G15488   1.410   2.021   7.250  0.8589  0.1119 -0.0384
  141OSM    C3F15489   1.520   1.853   7.210  0.0809 -0.6738 -0.9253
  141OSM    H3F15490   1.557   1.758   7.255 -0.9019 -0.9965 -0.7614
  141OSM    H3G15491   1.616   1.901   7.183  0.3787 -0.3971  0.5070
  141OSM    C4F15492   1.437   1.823   7.084  0.1629  0.7420 -0.0546
  141OSM    H4F15493   1.348   1.889   7.078  0.4709  1.0597 -2.1053
  141OSM    H4G15494   1.397   1.719   7.094  1.7594 -0.0628 -1.4947
  141OSM    C5F15495   1.514   1.835   6.954  0.4278  0.0461  0.2131
  141OSM    H5F15496   1.619   1.797   6.958  0.4270  0.1228  0.9349
  141OSM    H5G15497   1.511   1.945   6.938 -0.2241  0.2400  1.5799
  141OSM    C6F15498   1.442   1.763   6.842  0.1937 -0.6543  0.0730
  141OSM    H6F15499   1.341   1.808   6.826  0.7049  0.3899 -0.2667
  141OSM    H6G15500   1.425   1.656   6.867 -0.1134 -0.6879 -0.2530
  141OSM    C7F15501   1.513   1.756   6.704 -0.2488 -0.2971  0.2771
  141OSM    H7F15502   1.623   1.740   6.716  0.0741  2.1230  1.1833
  141OSM    H7G15503   1.496   1.854   6.653  1.0086 -1.2974 -2.2559
  141OSM    C8F15504   1.448   1.653   6.610 -0.3297  0.4643  0.6240
  141OSM    H8F15505   1.348   1.696   6.588 -1.2278 -1.6974  0.2039
  141OSM    H8G15506   1.433   1.552   6.654 -0.6012  0.1315 -0.1940
  141OSM    C9F15507   1.541   1.640   6.488  0.0722  0.5045 -0.0066
  141OSM    H9F15508   1.628   1.576   6.507 -0.8433 -0.1132  2.4556
  141OSM   C10F15509   1.522   1.671   6.363 -0.3320  0.3664 -1.0697
  141OSM   H10F15510   1.602   1.647   6.291  1.0707 -1.6873  1.0231
  141OSM   C11F15511   1.409   1.750   6.305 -0.2275 -0.6152  0.0821
  141OSM   H11F15512   1.347   1.809   6.376 -2.4007 -1.1890 -1.2392
  141OSM   H11G15513   1.322   1.688   6.274 -0.9624  0.5730 -0.2617
  141OSM   C12F15514   1.460   1.843   6.187 -0.2927 -0.1570  0.3743
  141OSM   H12F15515   1.536   1.917   6.220  0.3996 -0.8328  0.3291
  141OSM   H12G15516   1.372   1.901   6.151 -2.0692 -3.4315 -1.0972
  141OSM   C13F15517   1.499   1.759   6.060 -0.1694  0.1477  0.2000
  141OSM   H13F15518   1.420   1.684   6.042 -1.0026  0.7404  1.2248
  141OSM   H13G15519   1.587   1.696   6.084 -0.1115  0.4727  0.8676
  141OSM   C14F15520   1.517   1.841   5.935  0.0589 -0.0106 -0.6379
  141OSM   H14F15521   1.601   1.909   5.959  1.1381 -1.7456  0.7682
  141OSM   H14G15522   1.427   1.905   5.932 -0.2253 -0.3890 -0.2437
  141OSM   C15F15523   1.546   1.764   5.810 -0.5898  0.6503 -0.5316
  141OSM   H15F15524   1.460   1.696   5.794 -0.7011  0.6836 -0.0753
  141OSM   H15G15525   1.633   1.697   5.825 -1.3400 -1.3337 -3.9225
  141OSM   C16F15526   1.566   1.855   5.691  0.1493 -0.3234 -0.3684
  141OSM   H16F15527   1.666   1.903   5.696 -0.0179 -0.1128  3.4140
  141OSM   H16G15528   1.478   1.921   5.686  0.9180  0.7062 -0.6983
  141OSM   C17F15529   1.561   1.774   5.557 -0.5518 -0.1905 -0.2828
  141OSM   H17F15530   1.457   1.743   5.533 -0.4444 -0.1156 -0.8499
  141OSM   H17G15531   1.625   1.684   5.563  1.7968  1.3073 -1.4466
  141OSM   C18F15532   1.605   1.851   5.434  0.0097 -0.6326 -0.5357
  141OSM   H18F15533   1.715   1.856   5.448 -0.1182  0.9089  0.1114
  141OSM   H18G15534   1.548   1.946   5.422 -0.8468 -1.0503  0.0899
  141OSM   H18H15535   1.593   1.789   5.343  2.0383 -3.1822  0.8177
  142OSM      N15536   3.359   6.304   7.698  0.0521 -0.1241  0.0978
  142OSM    C1515537   3.415   6.299   7.837 -0.4532 -0.4225 -0.3260
  142OSM   H15A15538   3.341   6.280   7.913  0.5594 -0.8071  0.5757
  142OSM   H15B15539   3.475   6.387   7.856 -2.1072  0.1582  2.8319
  142OSM   H15C15540   3.486   6.218   7.841  0.7379  0.5365 -1.0517
  142OSM    C1415541   3.287   6.170   7.687  0.6343  0.2660  0.0725
  142OSM   H14A15542   3.335   6.090   7.741 -1.0577 -1.4059 -0.8047
  142OSM   H14B15543   3.298   6.138   7.584 -0.4550 -1.6266  0.5183
  142OSM   H14C15544   3.190   6.183   7.731  0.3597 -0.3081 -0.3654
  142OSM    C1315545   3.251   6.411   7.687  0.7023 -0.6938  0.6452
  142OSM   H13A15546   3.198   6.389   7.596 -1.7255  1.1762  1.5060
  142OSM   H13B15547   3.283   6.514   7.693 -2.5877  0.6496 -1.9726
  142OSM   H13C15548   3.185   6.410   7.773 -0.8370 -0.0326 -0.4848
  142OSM    C1215549   3.466   6.324   7.590 -0.3121  0.9205  0.2096
  142OSM   H12A15550   3.526   6.234   7.593 -1.3116  0.2819  2.0505
  142OSM   H12B15551   3.534   6.402   7.620  0.2591 -0.2498  2.1182
  142OSM    C1115552   3.425   6.337   7.445  1.1336 -0.1900 -0.7158
  142OSM   H11A15553   3.519   6.351   7.387 -0.1597 -1.2774 -3.2510
  142OSM   H11B15554   3.358   6.424   7.426  1.8206  0.3080 -0.8979
  142OSM      P15555   3.305   6.202   7.253 -0.5393  0.3238  0.3432
  142OSM    O1315556   3.305   6.056   7.230 -0.1795 -0.3446 -0.3699
  142OSM    O1415557   3.168   6.265   7.249  0.4082 -0.2611 -0.0180
  142OSM    O1115558   3.409   6.255   7.152  0.3110  0.2386  0.2406
  142OSM    O1215559   3.365   6.216   7.402  0.3964 -0.3104 -0.5719
  142OSM    C1S15560   3.538   6.197   7.124  0.1909 -0.4856  0.9870
  142OSM    H1S15561   3.529   6.087   7.133  0.9321 -0.6256  0.1437
  142OSM    H1T15562   3.623   6.226   7.190  0.5156  0.8607  0.0381
  142OSM     NF15563   3.686   6.154   6.937 -0.0657 -0.4449  0.0590
  142OSM    HNF15564   3.782   6.162   6.961  0.3663  1.8192 -2.0283
  142OSM    C2S15565   3.583   6.249   6.988 -0.7242 -0.2409  0.3795
  142OSM    H2S15566   3.497   6.250   6.918 -1.4719  2.0879  1.2373
  142OSM    C3S15567   3.624   6.397   6.994  0.1116 -0.0303  0.3535
  142OSM    H3S15568   3.707   6.409   7.067  1.5785  2.1292 -1.4789
  142OSM     O315569   3.518   6.476   7.041  0.3683 -0.8296 -0.1275
  142OSM    HO315570   3.470   6.409   7.091 -1.0575 -1.9462 -2.7598
  142OSM    C4S15571   3.673   6.448   6.864  0.2125 -0.3076 -0.4850
  142OSM    H4S15572   3.782   6.448   6.844 -0.0798  0.5967 -2.2564
  142OSM    C5S15573   3.598   6.510   6.775 -0.3647 -0.2424  0.8537
  142OSM    H5S15574   3.489   6.525   6.784 -0.1484  0.7098  2.3468
  142OSM    C6S15575   3.644   6.556   6.640 -1.4603  0.0484 -0.2885
  142OSM    H6S15576   3.715   6.480   6.600 -1.0633  1.5573 -2.6081
  142OSM    H6T15577   3.696   6.653   6.652 -1.7970  0.2119 -0.1299
  142OSM    C7S15578   3.526   6.560   6.534 -0.0033  0.1302 -0.2373
  142OSM    H7S15579   3.453   6.640   6.556  1.7560  2.0525 -1.1086
  142OSM    H7T15580   3.473   6.462   6.539  2.5681 -1.3415  0.0834
  142OSM    C8S15581   3.580   6.588   6.400  0.0312  0.0400  0.4027
  142OSM    H8S15582   3.647   6.504   6.375 -0.9976 -0.6948  0.0356
  142OSM    H8T15583   3.632   6.686   6.393  0.4017 -0.2498 -1.6026
  142OSM    C9S15584   3.466   6.587   6.297  0.1274 -0.4995 -0.4624
  142OSM    H9S15585   3.400   6.673   6.320 -0.4997 -1.2030  0.4775
  142OSM    H9T15586   3.411   6.492   6.315 -2.8099  1.2514  0.4620
  142OSM   C10S15587   3.510   6.590   6.153 -0.5078 -0.2960 -0.4680
  142OSM   H10S15588   3.597   6.523   6.162  0.1086  0.6457  0.8008
  142OSM   H10T15589   3.549   6.693   6.135  0.2368 -0.0429  2.2332
  142OSM   C11S15590   3.408   6.557   6.052  1.0430 -0.1170  0.0334
  142OSM   H11S15591   3.317   6.612   6.087 -0.5853 -2.8065  0.3103
  142OSM   H11T15592   3.379   6.451   6.069 -0.8655  0.7377  2.9829
  142OSM   C12S15593   3.437   6.592   5.906 -0.2313 -0.0623 -0.0728
  142OSM   H12S15594   3.522   6.532   5.869  0.0142  1.2769 -1.8287
  142OSM   H12T15595   3.477   6.695   5.909  1.7604 -0.8194  1.2767
  142OSM   C13S15596   3.333   6.584   5.798  0.8000 -0.6832 -0.2701
  142OSM   H13S15597   3.265   6.672   5.805  1.5291 -0.1499  0.2506
  142OSM   H13T15598   3.264   6.503   5.828  0.0667  0.3643  1.0035
  142OSM   C14S15599   3.385   6.556   5.661 -0.4257 -0.6113 -0.1766
  142OSM   H14S15600   3.435   6.457   5.665  1.2940  0.1192 -1.9655
  142OSM   H14T15601   3.449   6.639   5.626  0.1514 -0.7915  0.4166
  142OSM   C15S15602   3.271   6.556   5.563  0.0048 -0.2114 -0.4469
  142OSM   H15S15603   3.247   6.662   5.540 -0.5396 -0.5056 -1.2891
  142OSM   H15T15604   3.181   6.511   5.610 -0.5375  1.4367  0.1878
  142OSM   C16S15605   3.317   6.475   5.447 -0.0852 -0.3789 -0.4978
  142OSM   H16S15606   3.340   6.370   5.476  0.0950 -0.6198 -1.4588
  142OSM   H16T15607   3.422   6.503   5.424 -0.5950  1.2554 -0.9565
  142OSM   C17S15608   3.225   6.468   5.323 -0.0019  0.4264 -0.5202
  142OSM   H17S15609   3.213   6.573   5.290 -1.6320  0.4599  0.0896
  142OSM   H17T15610   3.124   6.449   5.366  1.0331 -1.6918  1.1553
  142OSM   C18S15611   3.276   6.376   5.215 -0.2773 -0.1546 -0.3506
  142OSM   H18S15612   3.308   6.279   5.260 -0.0187  0.4863  0.8940
  142OSM   H18T15613   3.364   6.419   5.163  0.7992 -1.3511  0.3941
  142OSM   H18U15614   3.189   6.365   5.147 -0.2122 -1.2036 -0.2810
  142OSM    C1F15615   3.645   6.037   6.886 -0.1177  1.0068 -0.0132
  142OSM     OF15616   3.527   6.006   6.882 -0.2125 -0.0660 -0.2175
  142OSM    C2F15617   3.745   5.941   6.830 -0.2675  0.3318 -0.1732
  142OSM    H2F15618   3.752   5.853   6.897  0.6064 -0.3257 -1.0892
  142OSM    H2G15619   3.843   5.994   6.831 -0.5604  0.9233 -1.3061
  142OSM    C3F15620   3.708   5.894   6.683 -0.5291  0.0123 -0.6233
  142OSM    H3F15621   3.684   5.986   6.627 -1.5175 -0.1308 -0.4400
  142OSM    H3G15622   3.608   5.848   6.692 -0.9928  0.6145 -2.4874
  142OSM    C4F15623   3.815   5.800   6.627  0.2860 -0.0306  0.2202
  142OSM    H4F15624   3.846   5.727   6.705  2.8222 -0.3862 -0.9944
  142OSM    H4G15625   3.905   5.852   6.588 -0.6248  1.9774  0.6468
  142OSM    C5F15626   3.772   5.718   6.499 -0.4569 -0.4514  0.3654
  142OSM    H5F15627   3.867   5.685   6.452 -0.0239  0.2507  0.7263
  142OSM    H5G15628   3.734   5.783   6.418  0.4188  1.2721  1.2849
  142OSM    C6F15629   3.672   5.613   6.527 -0.3052 -0.7119 -0.4142
  142OSM    H6F15630   3.573   5.654   6.555 -0.3733 -0.5838 -0.8332
  142OSM    H6G15631   3.716   5.557   6.612 -1.2990  0.1685  0.7134
  142OSM    C7F15632   3.654   5.521   6.412  0.3137  0.0126  0.6182
  142OSM    H7F15633   3.598   5.429   6.440 -1.6182  1.1022  0.5340
  142OSM    H7G15634   3.756   5.489   6.381  0.8667 -0.3406  2.6456
  142OSM    C8F15635   3.582   5.572   6.289  0.3239 -0.1910 -0.3819
  142OSM    H8F15636   3.615   5.675   6.260 -1.6694  0.1155 -1.7533
  142OSM    H8G15637   3.476   5.575   6.321  0.5419  1.7732  0.2868
  142OSM    C9F15638   3.593   5.485   6.170  0.5901 -0.2832  0.5451
  142OSM    H9F15639   3.690   5.436   6.153 -0.1356 -1.1188 -1.5333
  142OSM   C10F15640   3.505   5.478   6.065  0.2917  0.3613  0.0379
  142OSM   H10F15641   3.540   5.424   5.976  1.0320  0.6959  0.1203
  142OSM   C11F15642   3.373   5.547   6.064 -0.2611 -0.4440  0.2024
  142OSM   H11F15643   3.387   5.650   6.102 -0.5691  0.1554 -1.2411
  142OSM   H11G15644   3.301   5.500   6.134 -0.2340  0.2169  0.6816
  142OSM   C12F15645   3.290   5.516   5.933  0.3683 -0.6075 -0.1461
  142OSM   H12F15646   3.200   5.579   5.945  0.8984 -0.0861  1.5000
  142OSM   H12G15647   3.267   5.409   5.917 -0.9428 -0.9307  3.1799
  142OSM   C13F15648   3.366   5.582   5.811 -0.2618 -0.0509 -0.1550
  142OSM   H13F15649   3.463   5.527   5.809 -0.9481 -1.3983  1.5034
  142OSM   H13G15650   3.397   5.682   5.848  0.0832 -1.1446  2.8210
  142OSM   C14F15651   3.292   5.580   5.678 -0.8221 -0.3336  0.6696
  142OSM   H14F15652   3.187   5.615   5.690 -0.6291  0.3077  0.5248
  142OSM   H14G15653   3.276   5.475   5.646 -1.1722  0.0253 -0.3677
  142OSM   C15F15654   3.363   5.672   5.569  0.3818 -0.1178  0.3672
  142OSM   H15F15655   3.447   5.608   5.534 -0.1847 -2.0392  2.2530
  142OSM   H15G15656   3.405   5.763   5.617 -0.0148  0.3760 -0.2020
  142OSM   C16F15657   3.266   5.717   5.466 -0.3217 -0.1241  0.0107
  142OSM   H16F15658   3.188   5.775   5.519  0.9318  0.7502  0.9848
  142OSM   H16G15659   3.204   5.636   5.423 -0.5246  0.1319 -0.1767
  142OSM   C17F15660   3.330   5.816   5.372  0.2229 -0.3345  0.5235
  142OSM   H17F15661   3.398   5.759   5.304 -1.5068 -0.9274 -0.7896
  142OSM   H17G15662   3.391   5.892   5.425  2.0471 -0.1136 -1.7299
  142OSM   C18F15663   3.225   5.886   5.283 -0.0265  0.2127 -0.0741
  142OSM   H18F15664   3.200   5.988   5.318  0.4601  0.9452 -1.7212
  142OSM   H18G15665   3.137   5.819   5.275 -0.5360  0.7823  0.6482
  142OSM   H18H15666   3.272   5.902   5.183  0.8540 -1.7001 -0.0134
  143OSM      N15667   2.960   3.764   7.413  0.0328 -0.2527  0.0857
  143OSM    C1515668   3.088   3.695   7.351  0.2406 -0.3668 -0.4408
  143OSM   H15A15669   3.067   3.637   7.262 -1.0559 -2.6032  1.2325
  143OSM   H15B15670   3.131   3.632   7.427 -0.5549 -1.2178 -0.6711
  143OSM   H15C15671   3.163   3.766   7.319 -0.2109  0.6128  0.6107
  143OSM    C1415672   2.854   3.668   7.443 -0.2719 -0.1532  0.7954
  143OSM   H14A15673   2.758   3.711   7.467 -0.3117 -1.0241  2.3180
  143OSM   H14B15674   2.875   3.604   7.528  0.9177  0.4435  0.9728
  143OSM   H14C15675   2.839   3.601   7.360 -1.5277 -0.0755  0.9484
  143OSM    C1315676   2.988   3.835   7.544  0.4182  0.1191 -0.3555
  143OSM   H13A15677   2.998   3.758   7.619  1.0014 -0.1003 -0.6551
  143OSM   H13B15678   2.906   3.897   7.578  1.5752  0.5156  1.9324
  143OSM   H13C15679   3.082   3.886   7.528  1.1530 -2.0175 -3.8977
  143OSM    C1215680   2.910   3.868   7.310 -0.6108  0.7336 -0.1798
  143OSM   H12A15681   2.991   3.938   7.298 -0.0303  0.0389 -0.4028
  143OSM   H12B15682   2.830   3.929   7.350 -1.9169  0.2359 -1.8889
  143OSM    C1115683   2.872   3.822   7.167 -0.0987 -0.1532 -0.2886
  143OSM   H11A15684   2.959   3.775   7.116  0.4284  1.2537 -0.7342
  143OSM   H11B15685   2.857   3.913   7.105 -2.6310  0.0076  0.4513
  143OSM      P15686   2.610   3.788   7.174 -0.1324  0.2813  0.5011
  143OSM    O1315687   2.515   3.679   7.204  0.2115  0.0812 -0.7331
  143OSM    O1415688   2.604   3.904   7.261  0.2922 -0.3463 -0.2978
  143OSM    O1115689   2.583   3.841   7.030 -0.1739 -0.3977 -0.3505
  143OSM    O1215690   2.764   3.726   7.169 -0.1182 -0.9780  0.0741
  143OSM    C1S15691   2.596   3.752   6.918 -0.6184  0.8727 -0.2430
  143OSM    H1S15692   2.552   3.652   6.936  0.3163  0.2469 -1.2542
  143OSM    H1T15693   2.706   3.742   6.903 -0.4164  2.7063 -0.1367
  143OSM     NF15694   2.551   3.699   6.694 -0.5271 -0.2408  0.1298
  143OSM    HNF15695   2.627   3.707   6.630 -1.3826  0.0564 -0.8915
  143OSM    C2S15696   2.548   3.809   6.781  0.3808 -1.0514 -0.0950
  143OSM    H2S15697   2.446   3.848   6.802  0.7002  0.2642 -0.8830
  143OSM    C3S15698   2.633   3.933   6.741 -0.3215 -0.5987  0.0962
  143OSM    H3S15699   2.735   3.895   6.719  0.2609  0.5840  0.6406
  143OSM     O315700   2.646   4.024   6.845  0.5210 -0.2257  0.0480
  143OSM    HO315701   2.640   3.970   6.924 -1.4396 -0.4188 -0.1789
  143OSM    C4S15702   2.586   3.988   6.607 -0.2713  0.2218 -0.2689
  143OSM    H4S15703   2.647   3.947   6.525  0.3539  1.1005 -0.2547
  143OSM    C5S15704   2.477   4.063   6.582 -0.2553 -0.1310 -0.4657
  143OSM    H5S15705   2.430   4.092   6.677 -0.6810 -0.8529 -0.4498
  143OSM    C6S15706   2.425   4.118   6.457 -0.1062 -0.2073  0.4190
  143OSM    H6S15707   2.338   4.058   6.424  0.1647 -0.2986 -0.1358
  143OSM    H6T15708   2.506   4.133   6.383 -1.1392  0.1894 -0.6631
  143OSM    C7S15709   2.355   4.255   6.483 -0.3936 -0.0358 -0.0493
  143OSM    H7S15710   2.425   4.327   6.530 -0.1418  0.5808 -1.3115
  143OSM    H7T15711   2.259   4.248   6.539 -0.3847  1.1837  0.1557
  143OSM    C8S15712   2.323   4.311   6.341  0.0037  0.2318 -0.4809
  143OSM    H8S15713   2.240   4.255   6.294 -0.9436  1.7067 -0.6410
  143OSM    H8T15714   2.415   4.305   6.278 -0.1345 -0.2221 -0.6379
  143OSM    C9S15715   2.281   4.464   6.344  0.4634 -0.0724 -0.0478
  143OSM    H9S15716   2.360   4.521   6.395  0.1922 -0.6470  1.0390
  143OSM    H9T15717   2.200   4.459   6.421  1.4549 -3.3788  0.9339
  143OSM   C10S15718   2.241   4.502   6.204  0.1676 -0.3090 -0.0345
  143OSM   H10S15719   2.176   4.422   6.162 -0.8137  0.9978 -1.0731
  143OSM   H10T15720   2.332   4.502   6.140  0.7112  2.7784  0.5996
  143OSM   C11S15721   2.169   4.638   6.187  0.8436  0.1165  0.0825
  143OSM   H11S15722   2.163   4.707   6.274 -1.2082  1.2495 -0.8832
  143OSM   H11T15723   2.063   4.612   6.168  0.6180 -2.5256  3.9786
  143OSM   C12S15724   2.231   4.710   6.076 -0.8978 -1.0672  0.6364
  143OSM   H12S15725   2.340   4.709   6.098 -0.9238 -0.2015  0.8499
  143OSM   H12T15726   2.204   4.818   6.076 -0.3125 -0.9120 -0.0821
  143OSM   C13S15727   2.194   4.645   5.937 -0.4493  0.1512  0.1595
  143OSM   H13S15728   2.092   4.601   5.935 -0.8116  0.9276 -2.3282
  143OSM   H13T15729   2.276   4.573   5.915 -0.9784 -0.6289  0.7081
  143OSM   C14S15730   2.216   4.759   5.831 -0.2195  0.4739  0.0906
  143OSM   H14S15731   2.318   4.803   5.827 -0.0876  0.3819  1.9152
  143OSM   H14T15732   2.151   4.847   5.850 -2.5601 -0.8426 -1.3010
  143OSM   C15S15733   2.172   4.715   5.687 -0.1279  0.8004 -0.1794
  143OSM   H15S15734   2.063   4.703   5.703 -0.0845 -0.3618 -0.6234
  143OSM   H15T15735   2.216   4.615   5.665  0.0798  0.9563 -0.4908
  143OSM   C16S15736   2.202   4.811   5.575 -0.7030  0.0570 -0.0238
  143OSM   H16S15737   2.313   4.810   5.575 -0.7059 -1.1164 -0.7907
  143OSM   H16T15738   2.150   4.908   5.595 -2.9537 -1.0646 -0.1255
  143OSM   C17S15739   2.158   4.747   5.446 -0.5591  1.1717 -0.3455
  143OSM   H17S15740   2.192   4.815   5.364  3.0347  1.9777  1.5960
  143OSM   H17T15741   2.048   4.732   5.442 -0.4319  0.4117 -1.2801
  143OSM   C18S15742   2.244   4.619   5.407 -0.0212 -0.0266  0.6772
  143OSM   H18S15743   2.237   4.537   5.482  0.2259  0.0451  0.7806
  143OSM   H18T15744   2.351   4.648   5.407 -0.2479  0.8605 -0.1620
  143OSM   H18U15745   2.213   4.595   5.303 -0.4794  1.6978  0.3833
  143OSM    C1F15746   2.473   3.591   6.701 -1.1240 -0.0726 -0.4908
  143OSM     OF15747   2.362   3.598   6.741 -0.1888  0.0454 -0.3231
  143OSM    C2F15748   2.531   3.459   6.653  0.3282 -0.0596 -0.1002
  143OSM    H2F15749   2.615   3.442   6.723  0.0116  0.2123  0.3579
  143OSM    H2G15750   2.589   3.475   6.560  1.4767 -0.6693  0.4916
  143OSM    C3F15751   2.428   3.341   6.635  0.3244  0.7570 -1.1111
  143OSM    H3F15752   2.369   3.337   6.728  1.4686 -2.6316 -0.3963
  143OSM    H3G15753   2.490   3.248   6.632 -2.3733 -1.1314 -2.3199
  143OSM    C4F15754   2.335   3.344   6.517  0.1556 -0.1088 -0.2460
  143OSM    H4F15755   2.270   3.434   6.522  0.8944  0.4455 -0.4464
  143OSM    H4G15756   2.268   3.256   6.511 -1.3343  0.7587  2.0894
  143OSM    C5F15757   2.410   3.360   6.380 -0.0217 -0.0745  0.4599
  143OSM    H5F15758   2.478   3.273   6.372  1.3775  0.8839  1.4219
  143OSM    H5G15759   2.483   3.444   6.390 -0.4300  0.4592 -0.7529
  143OSM    C6F15760   2.331   3.384   6.254 -0.1490 -0.0215  0.2209
  143OSM    H6F15761   2.266   3.474   6.252 -2.0290 -1.3353 -0.0200
  143OSM    H6G15762   2.266   3.298   6.230 -0.6755  0.2333  0.7231
  143OSM    C7F15763   2.423   3.405   6.130  0.0801  0.3900 -0.4999
  143OSM    H7F15764   2.481   3.312   6.110 -1.4832 -0.5640 -0.8088
  143OSM    H7G15765   2.497   3.485   6.151  2.7825 -1.4189 -2.5022
  143OSM    C8F15766   2.351   3.435   5.996 -0.2090  0.5216 -0.2236
  143OSM    H8F15767   2.280   3.516   6.021 -1.8042 -0.1888 -2.2047
  143OSM    H8G15768   2.278   3.357   5.964 -0.9881 -0.3862  3.3091
  143OSM    C9F15769   2.442   3.473   5.882 -0.0164  0.1496 -0.6143
  143OSM    H9F15770   2.547   3.453   5.908 -0.7007 -1.0615  1.4487
  143OSM   C10F15771   2.392   3.526   5.771  0.0387 -0.1936  0.1253
  143OSM   H10F15772   2.471   3.538   5.695 -0.1184  0.2131  0.0246
  143OSM   C11F15773   2.249   3.546   5.739 -0.2369  0.0806  0.5179
  143OSM   H11F15774   2.222   3.653   5.725 -0.2561 -0.2951 -3.4642
  143OSM   H11G15775   2.176   3.495   5.805 -0.5266 -0.1852 -0.0080
  143OSM   C12F15776   2.229   3.489   5.595  0.5880 -0.0603 -0.2819
  143OSM   H12F15777   2.121   3.465   5.581  0.6547 -0.4113 -0.1814
  143OSM   H12G15778   2.273   3.388   5.590  1.2977 -0.0777  3.4729
  143OSM   C13F15779   2.262   3.595   5.480  0.3149 -0.4450 -0.0264
  143OSM   H13F15780   2.341   3.661   5.523  2.6931 -2.7563 -0.6082
  143OSM   H13G15781   2.185   3.671   5.456  0.4395 -0.4195 -0.3543
  143OSM   C14F15782   2.306   3.520   5.348  0.2579 -0.6624  0.3843
  143OSM   H14F15783   2.309   3.598   5.269 -2.1990  0.8314  1.6402
  143OSM   H14G15784   2.229   3.442   5.332  1.4594 -1.6785 -0.7445
  143OSM   C15F15785   2.443   3.454   5.363 -0.1726  1.1148  0.5491
  143OSM   H15F15786   2.425   3.356   5.413  0.8322 -0.1087 -1.3532
  143OSM   H15G15787   2.499   3.522   5.431  1.1385  1.6071 -0.9647
  143OSM   C16F15788   2.515   3.444   5.226  0.0644 -0.1225 -0.6949
  143OSM   H16F15789   2.506   3.544   5.177 -0.8027  1.9568  3.3103
  143OSM   H16G15790   2.453   3.365   5.178  3.1842 -2.3952 -1.2884
  143OSM   C17F15791   2.657   3.391   5.245  0.0065  0.6471 -0.7315
  143OSM   H17F15792   2.664   3.292   5.295 -1.7474  0.6393 -0.4252
  143OSM   H17G15793   2.706   3.464   5.312 -0.5145  1.2783 -1.0232
  143OSM   C18F15794   2.735   3.366   5.116  0.0974 -0.2262  0.3374
  143OSM   H18F15795   2.682   3.295   5.049  0.0294  1.3777 -1.3674
  143OSM   H18G15796   2.841   3.333   5.127  0.6876  1.3109 -0.5024
  143OSM   H18H15797   2.743   3.458   5.054 -0.6713 -0.3845 -0.0056
  144OSM      N15798   3.586   3.157   7.705  0.4431 -0.0222 -1.0721
  144OSM    C1515799   3.561   3.278   7.785 -0.5722 -0.0496 -0.0669
  144OSM   H15A15800   3.458   3.311   7.784 -0.1508  2.2716  4.8388
  144OSM   H15B15801   3.620   3.359   7.743  0.0563 -1.3556 -1.8312
  144OSM   H15C15802   3.579   3.259   7.890 -0.8348  0.0786  0.0033
  144OSM    C1415803   3.732   3.142   7.689 -0.2547  0.2731 -0.4146
  144OSM   H14A15804   3.773   3.213   7.620  1.1826  0.8655  1.0051
  144OSM   H14B15805   3.763   3.041   7.664  0.6534 -0.0626  1.8501
  144OSM   H14C15806   3.781   3.147   7.785 -2.7033 -0.7197  0.9890
  144OSM    C1315807   3.529   3.047   7.786 -0.0097  0.1231  0.0856
  144OSM   H13A15808   3.588   3.031   7.874  1.1580  0.4578 -0.6111
  144OSM   H13B15809   3.546   2.955   7.731 -2.7755 -0.0191 -0.6600
  144OSM   H13C15810   3.426   3.066   7.811  0.3256 -0.4923  2.0611
  144OSM    C1215811   3.524   3.158   7.567  0.2936 -0.1197  0.3330
  144OSM   H12A15812   3.560   3.246   7.517 -0.3889  0.4896  0.8927
  144OSM   H12B15813   3.417   3.161   7.577  0.4045 -0.8276  2.2594
  144OSM    C1115814   3.543   3.032   7.476 -0.4500  1.1980  0.1896
  144OSM   H11A15815   3.649   2.999   7.474 -0.7822  0.1352 -1.3078
  144OSM   H11B15816   3.522   3.056   7.370 -0.9454 -0.9165 -0.2357
  144OSM      P15817   3.316   2.898   7.475 -0.3536 -0.1963 -0.3923
  144OSM    O1315818   3.262   2.772   7.537  0.1132  0.2485  0.4277
  144OSM    O1415819   3.241   3.022   7.505 -0.9203  0.2959  0.0044
  144OSM    O1115820   3.319   2.880   7.319  0.2766 -0.2268  0.2038
  144OSM    O1215821   3.470   2.914   7.522 -0.3523  0.1010  0.2389
  144OSM    C1S15822   3.238   2.971   7.247  0.6293 -0.1722  0.6497
  144OSM    H1S15823   3.281   3.073   7.256 -0.0962  0.1328  0.7754
  144OSM    H1T15824   3.131   2.968   7.277  0.7993  0.7092  1.3754
  144OSM     NF15825   3.203   3.036   7.008  0.2951  0.3943  0.4706
  144OSM    HNF15826   3.107   3.037   6.982  0.2654  1.5572  0.5789
  144OSM    C2S15827   3.246   2.926   7.094 -0.5909 -0.3690 -0.1909
  144OSM    H2S15828   3.347   2.891   7.067 -0.0747  0.1533  0.9920
  144OSM    C3S15829   3.162   2.794   7.076  0.9552 -0.3130 -0.1855
  144OSM    H3S15830   3.058   2.830   7.082  1.1477  0.5631 -1.6049
  144OSM     O315831   3.164   2.692   7.177 -0.5314 -0.2719  0.2937
  144OSM    HO315832   3.220   2.730   7.245  2.0764 -1.1668 -1.2017
  144OSM    C4S15833   3.180   2.728   6.943 -0.6196  0.0253 -0.2447
  144OSM    H4S15834   3.091   2.741   6.881 -1.4575  1.2540  1.1591
  144OSM    C5S15835   3.282   2.643   6.908  0.2359  0.1869 -0.6070
  144OSM    H5S15836   3.355   2.625   6.987 -2.0341  0.7207  1.7558
  144OSM    C6S15837   3.294   2.561   6.779 -0.4724 -0.7673 -0.1804
  144OSM    H6S15838   3.327   2.460   6.812 -2.2699 -1.7700 -1.2685
  144OSM    H6T15839   3.376   2.595   6.711 -1.0209 -0.4757 -0.7067
  144OSM    C7S15840   3.174   2.558   6.684  0.4863  0.0657 -0.3409
  144OSM    H7S15841   3.092   2.514   6.745  0.4526  0.8949  0.2273
  144OSM    H7T15842   3.194   2.485   6.602 -2.0263 -1.7991  0.5684
  144OSM    C8S15843   3.149   2.687   6.598  0.2828  0.5673 -0.4635
  144OSM    H8S15844   3.241   2.747   6.579  0.6575  0.5947  1.3212
  144OSM    H8T15845   3.067   2.743   6.647 -1.4208  0.5097 -3.0461
  144OSM    C9S15846   3.093   2.658   6.462 -0.2219  0.0029  0.4267
  144OSM    H9S15847   3.015   2.580   6.479  1.8774 -1.8768  2.1166
  144OSM    H9T15848   3.165   2.615   6.389  0.8045  2.2028  0.0696
  144OSM   C10S15849   3.042   2.790   6.389  0.6324  0.2325 -1.0127
  144OSM   H10S15850   3.130   2.850   6.356  0.5025  0.9055 -0.1735
  144OSM   H10T15851   2.979   2.843   6.463  2.4733 -0.2237  0.9866
  144OSM   C11S15852   2.974   2.759   6.257  0.0464 -0.0242  0.0225
  144OSM   H11S15853   2.879   2.710   6.286 -0.0169 -0.6609 -1.1804
  144OSM   H11T15854   3.029   2.684   6.196 -1.6244 -0.0098 -1.5629
  144OSM   C12S15855   2.936   2.886   6.178  0.6836 -0.6167 -0.2232
  144OSM   H12S15856   3.022   2.956   6.165 -0.4565  0.3569 -3.2605
  144OSM   H12T15857   2.863   2.940   6.242  0.5714 -0.9877 -0.0342
  144OSM   C13S15858   2.863   2.849   6.049  0.5764  0.1452 -0.0803
  144OSM   H13S15859   2.775   2.782   6.059  1.0343 -0.8041 -1.8560
  144OSM   H13T15860   2.948   2.811   5.987  1.3851  2.9198 -0.8008
  144OSM   C14S15861   2.798   2.974   5.979 -0.1306 -0.2744  0.0117
  144OSM   H14S15862   2.881   3.034   5.936 -0.2530 -0.3397 -0.3119
  144OSM   H14T15863   2.735   3.025   6.056 -0.1599 -2.2126  1.3402
  144OSM   C15S15864   2.707   2.938   5.864  0.7226  0.3506 -0.0555
  144OSM   H15S15865   2.651   2.855   5.913 -1.0282  1.7797  0.4472
  144OSM   H15T15866   2.758   2.901   5.772 -0.2762 -1.8172  0.1910
  144OSM   C16S15867   2.614   3.055   5.830 -0.0397  0.4195  0.4918
  144OSM   H16S15868   2.680   3.137   5.796 -1.1932  0.7597 -1.0171
  144OSM   H16T15869   2.567   3.081   5.927  0.3080  2.1554  0.2122
  144OSM   C17S15870   2.514   3.004   5.719  0.5442 -0.1832 -0.2248
  144OSM   H17S15871   2.448   2.934   5.774  1.4551  0.1525  1.3487
  144OSM   H17T15872   2.571   2.972   5.630  1.5396  0.3256  0.2161
  144OSM   C18S15873   2.424   3.126   5.677 -0.3426 -0.9002 -0.0505
  144OSM   H18S15874   2.362   3.152   5.766 -1.4102 -0.8128 -0.8132
  144OSM   H18T15875   2.356   3.107   5.592  0.9280 -1.8810 -0.8861
  144OSM   H18U15876   2.489   3.210   5.644 -2.9881  1.1069 -0.4577
  144OSM    C1F15877   3.284   3.140   6.981 -0.2956  0.0874  0.5677
  144OSM     OF15878   3.396   3.147   7.037 -0.0332  0.2735  0.3177
  144OSM    C2F15879   3.223   3.249   6.895  0.0750  0.7108  0.2366
  144OSM    H2F15880   3.127   3.287   6.937 -1.4406 -0.9237 -1.5162
  144OSM    H2G15881   3.196   3.207   6.795 -0.0927  1.7098 -0.1451
  144OSM    C3F15882   3.337   3.352   6.874  0.1128 -0.7832  0.0426
  144OSM    H3F15883   3.385   3.382   6.969  1.0848 -1.8653 -0.0949
  144OSM    H3G15884   3.297   3.446   6.829  3.3710  0.2975 -0.8637
  144OSM    C4F15885   3.446   3.308   6.775  0.1015  0.1530  0.7881
  144OSM    H4F15886   3.483   3.207   6.802  3.4787  0.6539 -1.4206
  144OSM    H4G15887   3.535   3.375   6.783 -1.2506  1.9863  1.2890
  144OSM    C5F15888   3.406   3.316   6.625  0.8303 -0.0122 -0.5995
  144OSM    H5F15889   3.491   3.346   6.560  0.4293  1.9232 -0.2926
  144OSM    H5G15890   3.339   3.405   6.630  0.1782 -0.5721  2.2427
  144OSM    C6F15891   3.352   3.193   6.558  0.4800 -0.2189 -0.2028
  144OSM    H6F15892   3.280   3.140   6.625  2.0230  0.0354  1.7666
  144OSM    H6G15893   3.431   3.116   6.545 -0.8331 -1.3956 -1.4788
  144OSM    C7F15894   3.271   3.232   6.425 -0.3770 -0.3165  0.1087
  144OSM    H7F15895   3.319   3.302   6.353 -2.2268 -0.7863 -1.6627
  144OSM    H7G15896   3.185   3.297   6.454  0.7343  1.0213  0.5018
  144OSM    C8F15897   3.220   3.103   6.361 -0.0607 -0.2006  0.8138
  144OSM    H8F15898   3.131   3.118   6.295  0.1206 -1.3033  0.2953
  144OSM    H8G15899   3.173   3.033   6.433 -2.5700 -0.8118 -1.2760
  144OSM    C9F15900   3.332   3.043   6.282  0.5485  0.1193 -0.1170
  144OSM    H9F15901   3.407   3.009   6.355 -1.0892  0.0672  1.6123
  144OSM   C10F15902   3.377   3.058   6.156  0.2826 -0.2352  0.1000
  144OSM   H10F15903   3.471   3.011   6.124  0.9280  0.6437  0.6774
  144OSM   C11F15904   3.315   3.156   6.058 -0.4201 -0.4085 -0.0823
  144OSM   H11F15905   3.391   3.235   6.046 -1.8894  1.1969  0.7838
  144OSM   H11G15906   3.217   3.194   6.094 -0.7799  0.4840 -1.9063
  144OSM   C12F15907   3.296   3.090   5.920  0.3820  0.0838  0.1426
  144OSM   H12F15908   3.239   3.165   5.860 -3.2473 -0.8834  2.0842
  144OSM   H12G15909   3.237   2.996   5.931  0.3607 -0.2683 -2.3878
  144OSM   C13F15910   3.426   3.061   5.848  0.7272 -0.4301 -0.9523
  144OSM   H13F15911   3.491   2.995   5.910 -0.6894 -0.4510  0.5633
  144OSM   H13G15912   3.490   3.152   5.839  0.4303 -0.0933  0.1388
  144OSM   C14F15913   3.400   3.005   5.708 -0.0407  0.1123 -0.2382
  144OSM   H14F15914   3.366   3.090   5.644  0.8594 -0.5369 -1.6356
  144OSM   H14G15915   3.318   2.934   5.730  0.0197  0.3920  0.9335
  144OSM   C15F15916   3.506   2.912   5.639 -0.3361  1.0666 -0.4349
  144OSM   H15F15917   3.564   2.848   5.709 -2.6687 -1.9573 -1.0666
  144OSM   H15G15918   3.582   2.970   5.582  2.0545 -1.0024  0.4679
  144OSM   C16F15919   3.456   2.801   5.543 -0.1407  0.4573 -0.5316
  144OSM   H16F15920   3.389   2.737   5.605  1.7830  0.1520  1.3769
  144OSM   H16G15921   3.545   2.746   5.507  0.3619  0.6231  0.4068
  144OSM   C17F15922   3.382   2.870   5.425 -0.3879 -0.1487  0.1964
  144OSM   H17F15923   3.436   2.964   5.402 -2.1901  0.7319 -0.6045
  144OSM   H17G15924   3.278   2.880   5.463  0.1821  0.8523  1.5774
  144OSM   C18F15925   3.384   2.789   5.299  0.6032  0.3517  1.0005
  144OSM   H18F15926   3.336   2.844   5.216 -2.2982 -1.3359  1.4501
  144OSM   H18G15927   3.312   2.705   5.305  0.3004  0.4666 -0.6423
  144OSM   H18H15928   3.486   2.750   5.275 -0.0749 -0.2741 -1.0520
  145OSM      N15929   4.294   4.501   7.344  0.9066 -0.5269  0.2865
  145OSM    C1515930   4.248   4.490   7.486 -0.2591 -0.2191  0.6902
  145OSM   H15A15931   4.338   4.470   7.542  1.2128 -1.2772 -1.8798
  145OSM   H15B15932   4.179   4.407   7.492  0.3332 -0.9325 -1.6064
  145OSM   H15C15933   4.214   4.590   7.509  1.0079  0.3367  0.2442
  145OSM    C1415934   4.172   4.549   7.259 -0.1172  0.0647 -1.0626
  145OSM   H14A15935   4.094   4.474   7.262  0.6240 -0.7008  0.1220
  145OSM   H14B15936   4.200   4.554   7.155 -0.8419 -0.2119 -1.2732
  145OSM   H14C15937   4.126   4.639   7.296  0.8250  0.0158  0.3086
  145OSM    C1315938   4.399   4.605   7.339  0.3904  0.2758  0.8070
  145OSM   H13A15939   4.494   4.578   7.380  0.9767  1.5569  0.3617
  145OSM   H13B15940   4.377   4.696   7.394  1.0708 -0.6799  2.7431
  145OSM   H13C15941   4.417   4.612   7.233 -2.3552 -1.9111  0.0626
  145OSM    C1215942   4.335   4.372   7.290 -0.0367  0.0514  0.1319
  145OSM   H12A15943   4.263   4.293   7.304 -0.2303  0.1318 -0.3691
  145OSM   H12B15944   4.426   4.334   7.336  0.9188 -1.9192 -3.0400
  145OSM    C1115945   4.373   4.361   7.137 -0.5987  0.0716 -0.0252
  145OSM   H11A15946   4.446   4.438   7.103  2.6584 -2.3633  0.9244
  145OSM   H11B15947   4.271   4.370   7.095 -1.3227 -2.2529  1.0529
  145OSM      P15948   4.564   4.187   7.155 -0.0014  0.0612  0.2426
  145OSM    O1315949   4.628   4.299   7.225  0.4817  0.1717 -0.4469
  145OSM    O1415950   4.565   4.062   7.231  0.2432 -0.4224 -0.1564
  145OSM    O1115951   4.632   4.162   7.013  0.2616  0.4450  0.2106
  145OSM    O1215952   4.414   4.226   7.124  0.2628  0.0029  0.0392
  145OSM    C1S15953   4.613   4.038   6.934 -0.4019 -0.1278 -0.3879
  145OSM    H1S15954   4.582   3.957   7.003 -1.4705 -0.6202 -1.3926
  145OSM    H1T15955   4.707   3.997   6.892  0.5042  2.1001 -0.6500
  145OSM     NF15956   4.483   3.936   6.754  0.0618 -0.3569  0.4152
  145OSM    HNF15957   4.524   3.913   6.666 -0.3371  0.4326  0.0138
  145OSM    C2S15958   4.524   4.061   6.808 -0.1748 -0.1762  0.1577
  145OSM    H2S15959   4.433   4.114   6.845  0.1731 -0.3065  1.2447
  145OSM    C3S15960   4.590   4.165   6.712  0.1524  0.2430 -0.3793
  145OSM    H3S15961   4.690   4.134   6.676  0.3199 -0.2520  0.4898
  145OSM     O315962   4.614   4.296   6.774 -0.4763  0.0298  0.3225
  145OSM    HO315963   4.609   4.268   6.866 -1.1288  1.9836  0.9255
  145OSM    C4S15964   4.506   4.179   6.592  0.3663  0.2746 -0.4555
  145OSM    H4S15965   4.518   4.095   6.522 -1.0818 -0.6019  0.2977
  145OSM    C5S15966   4.420   4.278   6.573  0.2512  0.4390  0.1688
  145OSM    H5S15967   4.419   4.364   6.641 -1.3528 -1.0001  2.0667
  145OSM    C6S15968   4.343   4.289   6.446  0.0848  0.0221  0.3949
  145OSM    H6S15969   4.340   4.398   6.422 -0.2227 -0.1062 -0.1530
  145OSM    H6T15970   4.240   4.247   6.448  0.4502 -1.0458 -1.3578
  145OSM    C7S15971   4.398   4.226   6.315  0.2637  0.2644  0.7168
  145OSM    H7S15972   4.409   4.115   6.319 -0.0863  0.1271 -1.2140
  145OSM    H7T15973   4.500   4.265   6.298  0.9054 -1.6325 -0.1138
  145OSM    C8S15974   4.313   4.266   6.190  0.1236 -0.3228  0.1316
  145OSM    H8S15975   4.331   4.373   6.166 -2.2500 -0.1307 -1.1051
  145OSM    H8T15976   4.204   4.269   6.210  0.1317  1.1098  0.0529
  145OSM    C9S15977   4.329   4.171   6.070 -0.3415  0.6356  0.0849
  145OSM    H9S15978   4.275   4.074   6.086  2.7546 -1.2109  0.0781
  145OSM    H9T15979   4.435   4.144   6.055 -0.5242  0.0572 -0.2220
  145OSM   C10S15980   4.280   4.214   5.935  0.0414  0.4842 -0.0981
  145OSM   H10S15981   4.308   4.321   5.924  0.6470  0.7100  2.9172
  145OSM   H10T15982   4.170   4.197   5.946  0.5217 -2.6591  0.6998
  145OSM   C11S15983   4.355   4.139   5.822  0.0256 -0.4661  0.2859
  145OSM   H11S15984   4.337   4.033   5.852  0.8453 -0.4156  0.9837
  145OSM   H11T15985   4.465   4.153   5.830 -0.2040  2.3807 -0.5882
  145OSM   C12S15986   4.310   4.166   5.676 -0.4898  0.5424  0.2584
  145OSM   H12S15987   4.199   4.163   5.679 -0.4840  0.0801  0.0999
  145OSM   H12T15988   4.360   4.099   5.603 -0.3059  0.1022  0.7827
  145OSM   C13S15989   4.330   4.309   5.638  1.1355 -0.9161  0.9921
  145OSM   H13S15990   4.436   4.337   5.653  0.9026  0.7051 -0.1387
  145OSM   H13T15991   4.255   4.373   5.690 -0.2808 -1.0676 -0.7515
  145OSM   C14S15992   4.310   4.323   5.483 -0.4977  0.1642  0.1658
  145OSM   H14S15993   4.203   4.313   5.454 -0.4260  1.6883 -0.7268
  145OSM   H14T15994   4.365   4.235   5.443  1.1020  1.4516 -0.5703
  145OSM   C15S15995   4.380   4.446   5.427 -0.4825 -0.0580  0.4188
  145OSM   H15S15996   4.488   4.431   5.452 -0.4451  0.3947  0.5315
  145OSM   H15T15997   4.340   4.535   5.479  2.3090  0.7775  1.3300
  145OSM   C16S15998   4.368   4.466   5.275  0.2894 -0.3151 -0.5973
  145OSM   H16S15999   4.427   4.381   5.235 -0.3302 -0.6000 -0.9161
  145OSM   H16T16000   4.429   4.558   5.261 -0.3185  0.3524  0.8985
  145OSM   C17S16001   4.224   4.482   5.241  0.0624 -0.3647  0.5673
  145OSM   H17S16002   4.161   4.543   5.310 -0.7506 -2.0156  1.3538
  145OSM   H17T16003   4.171   4.385   5.245 -0.8310  0.1366  1.5415
  145OSM   C18S16004   4.201   4.543   5.104  0.5036 -0.0857  0.1148
  145OSM   H18S16005   4.238   4.648   5.103  0.5719 -0.1101 -0.2039
  145OSM   H18T16006   4.092   4.555   5.091  0.3976 -0.5463  0.5581
  145OSM   H18U16007   4.254   4.482   5.027 -2.7156 -0.8126 -1.7390
  145OSM    C1F16008   4.399   3.854   6.815 -0.4052 -0.3422  0.3974
  145OSM     OF16009   4.365   3.869   6.932  0.1267  0.1927  0.0865
  145OSM    C2F16010   4.359   3.738   6.733 -0.4287 -0.0769  0.0518
  145OSM    H2F16011   4.325   3.659   6.804 -1.0142  0.5472  0.4729
  145OSM    H2G16012   4.440   3.691   6.673 -0.4186 -2.0124  1.4581
  145OSM    C3F16013   4.233   3.779   6.651 -1.0644  0.1066  0.9689
  145OSM    H3F16014   4.173   3.846   6.715  1.2196  1.1264  2.1292
  145OSM    H3G16015   4.172   3.687   6.634 -0.5293 -0.1647  0.4625
  145OSM    C4F16016   4.258   3.847   6.510 -0.7206  0.5784 -0.2756
  145OSM    H4F16017   4.341   3.790   6.464 -0.7500  1.3402 -1.3085
  145OSM    H4G16018   4.274   3.955   6.532  0.4706  0.5393 -0.8760
  145OSM    C5F16019   4.139   3.840   6.429 -0.0932 -0.8843  0.7221
  145OSM    H5F16020   4.053   3.889   6.479  0.4170 -2.0134  2.7907
  145OSM    H5G16021   4.107   3.739   6.396 -1.4432  0.4220 -2.3982
  145OSM    C6F16022   4.153   3.914   6.291 -0.4493  0.1908 -0.5829
  145OSM    H6F16023   4.240   3.868   6.238  0.4851  0.2509  0.8630
  145OSM    H6G16024   4.159   4.024   6.301 -0.4072  0.3452 -2.0312
  145OSM    C7F16025   4.030   3.900   6.193 -0.2358  0.6708  0.8977
  145OSM    H7F16026   4.035   3.984   6.121 -0.5869 -1.0587 -1.2237
  145OSM    H7G16027   3.939   3.913   6.255  1.2668  1.3334  3.1119
  145OSM    C8F16028   4.011   3.773   6.106 -0.2531 -0.4102 -0.2793
  145OSM    H8F16029   3.908   3.784   6.066 -0.5326 -0.4800  0.4058
  145OSM    H8G16030   4.014   3.681   6.169 -2.0600 -0.7434 -0.6132
  145OSM    C9F16031   4.106   3.761   5.982  0.3356  0.3569  0.4245
  145OSM    H9F16032   4.201   3.710   6.001 -0.1667 -0.3585  1.0812
  145OSM   C10F16033   4.073   3.780   5.852 -0.5528 -0.3833  0.1981
  145OSM   H10F16034   4.151   3.748   5.782 -0.6731 -3.9168  1.4669
  145OSM   C11F16035   3.943   3.832   5.793 -0.2788 -0.2778 -0.3670
  145OSM   H11F16036   3.973   3.918   5.729  1.5129  0.5353  1.4695
  145OSM   H11G16037   3.886   3.880   5.876  2.2068 -1.2512  2.0470
  145OSM   C12F16038   3.859   3.736   5.700 -0.6290  0.2859 -0.4919
  145OSM   H12F16039   3.812   3.659   5.765 -0.1029  0.6322  0.3161
  145OSM   H12G16040   3.934   3.691   5.630  0.6033  0.0523  0.9288
  145OSM   C13F16041   3.744   3.807   5.629  0.1797  0.3517  0.6544
  145OSM   H13F16042   3.685   3.868   5.700 -2.0333  0.5295 -1.2231
  145OSM   H13G16043   3.677   3.726   5.593 -0.3345  1.3317 -0.6668
  145OSM   C14F16044   3.795   3.896   5.507 -0.3406  0.1670  0.3871
  145OSM   H14F16045   3.905   3.890   5.500 -0.5149 -1.1337 -2.2300
  145OSM   H14G16046   3.786   4.003   5.535  0.8730 -0.2487  2.6064
  145OSM   C15F16047   3.725   3.860   5.378 -0.2251 -0.3060  0.2338
  145OSM   H15F16048   3.615   3.867   5.387 -0.1247  0.8976  0.7783
  145OSM   H15G16049   3.757   3.756   5.354  0.8145  0.2550 -0.9350
  145OSM   C16F16050   3.776   3.939   5.260  0.6510 -0.3424  0.3333
  145OSM   H16F16051   3.882   3.968   5.277  0.1792  1.3540  0.5510
  145OSM   H16G16052   3.719   4.031   5.237  0.5075 -0.8649 -1.5926
  145OSM   C17F16053   3.781   3.855   5.125  0.9398  0.0977 -0.4276
  145OSM   H17F16054   3.846   3.769   5.150 -0.6885 -1.0010  0.1719
  145OSM   H17G16055   3.841   3.911   5.050  3.0422 -1.9038 -0.3689
  145OSM   C18F16056   3.650   3.797   5.093  0.0447  0.0703 -0.6179
  145OSM   H18F16057   3.665   3.722   5.012  1.3899 -0.8511  0.4483
  145OSM   H18G16058   3.598   3.876   5.035 -0.4962  0.5313  0.4680
  145OSM   H18H16059   3.588   3.746   5.170  0.4936  1.6334  0.8391
  146OSM      N16060   2.625   6.430   7.140  0.0392 -0.1818 -0.3390
  146OSM    C1516061   2.646   6.396   7.289 -0.5642  0.4649  0.4383
  146OSM   H15A16062   2.739   6.428   7.334  0.9842 -0.9617 -1.5489
  146OSM   H15B16063   2.660   6.289   7.285 -0.0854  0.5500 -2.9055
  146OSM   H15C16064   2.567   6.430   7.354 -1.2075 -0.9806  0.4551
  146OSM    C1416065   2.627   6.584   7.135  0.5212  0.2057  0.2320
  146OSM   H14A16066   2.715   6.614   7.190  2.2049 -2.7158 -0.6429
  146OSM   H14B16067   2.540   6.630   7.181  1.8782  0.9422  2.2039
  146OSM   H14C16068   2.632   6.626   7.036  0.4663  0.3324  0.2822
  146OSM    C1316069   2.748   6.394   7.056 -0.1189  0.0688 -0.3156
  146OSM   H13A16070   2.755   6.286   7.052 -2.5636 -0.3036  2.1173
  146OSM   H13B16071   2.831   6.443   7.104 -0.6284  0.4319  0.2107
  146OSM   H13C16072   2.730   6.443   6.962 -0.9002 -0.2609 -0.3443
  146OSM    C1216073   2.499   6.372   7.094  0.0569  0.2922 -0.0685
  146OSM   H12A16074   2.460   6.417   7.004  0.3488 -0.2962 -0.4945
  146OSM   H12B16075   2.425   6.390   7.171 -0.5010  1.8609 -0.9150
  146OSM    C1116076   2.504   6.218   7.062 -0.4626  0.3195  0.1940
  146OSM   H11A16077   2.591   6.202   6.994  0.9807 -0.1724  2.0795
  146OSM   H11B16078   2.412   6.193   7.004  0.5560  0.9799 -1.7690
  146OSM      P16079   2.409   6.069   7.266 -0.2756  0.1009 -0.0080
  146OSM    O1316080   2.490   6.000   7.369  0.4405 -0.1757 -0.1125
  146OSM    O1416081   2.321   6.181   7.317  0.2827  0.5073  0.4071
  146OSM    O1116082   2.333   5.961   7.179  0.8490 -0.4393  0.1339
  146OSM    O1216083   2.520   6.132   7.178 -0.3882 -0.3465  0.0425
  146OSM    C1S16084   2.244   5.993   7.078 -1.2332  0.0058 -0.0228
  146OSM    H1S16085   2.233   6.101   7.055  0.8666  0.5634  1.2722
  146OSM    H1T16086   2.147   5.961   7.121 -1.0668 -1.1109 -0.4381
  146OSM     NF16087   2.161   5.960   6.841  0.1190 -0.0134  0.0502
  146OSM    HNF16088   2.097   5.893   6.803  1.6608 -1.3153 -0.3615
  146OSM    C2S16089   2.264   5.921   6.940 -0.5651  0.5637  0.4672
  146OSM    H2S16090   2.359   5.960   6.898  0.8521 -2.6868  0.3318
  146OSM    C3S16091   2.288   5.760   6.963  0.4539 -0.1970  0.1260
  146OSM    H3S16092   2.186   5.724   6.991 -0.3698  1.8770 -0.0950
  146OSM     O316093   2.382   5.730   7.066  0.4380  0.0887  0.9276
  146OSM    HO316094   2.385   5.815   7.112 -0.8731 -0.3844  1.9528
  146OSM    C4S16095   2.318   5.691   6.835  0.1379  0.1797 -0.2745
  146OSM    H4S16096   2.422   5.658   6.820  0.2490  0.0986  0.6376
  146OSM    C5S16097   2.225   5.657   6.744  0.0172  0.0844  0.2388
  146OSM    H5S16098   2.119   5.660   6.773  0.2993  1.9939  1.2258
  146OSM    C6S16099   2.249   5.589   6.614 -0.3352  0.2091  0.1378
  146OSM    H6S16100   2.214   5.484   6.628 -0.2451  0.4445  2.4920
  146OSM    H6T16101   2.356   5.579   6.584 -0.8317 -0.4853 -1.5856
  146OSM    C7S16102   2.183   5.655   6.490  0.1089  0.4215 -0.2216
  146OSM    H7S16103   2.218   5.760   6.489  1.3608  0.0227 -0.5307
  146OSM    H7T16104   2.073   5.664   6.504  0.4485  2.3439  1.6482
  146OSM    C8S16105   2.214   5.582   6.356 -0.1974  1.0373  0.1430
  146OSM    H8S16106   2.116   5.555   6.310  0.4122  0.0742 -0.6283
  146OSM    H8T16107   2.281   5.496   6.377  2.7904  2.8895 -1.0871
  146OSM    C9S16108   2.292   5.655   6.254 -0.6203 -0.5371  0.2585
  146OSM    H9S16109   2.385   5.686   6.306 -0.4180 -1.5001  0.4946
  146OSM    H9T16110   2.240   5.750   6.228  1.2454  0.1447 -1.1894
  146OSM   C10S16111   2.314   5.582   6.121 -0.5983  0.2499 -0.5998
  146OSM   H10S16112   2.347   5.479   6.149 -0.4201  0.9287  2.0235
  146OSM   H10T16113   2.396   5.624   6.059  1.1315 -0.8447  0.8231
  146OSM   C11S16114   2.193   5.574   6.027  0.3763 -0.1768 -0.1522
  146OSM   H11S16115   2.151   5.676   6.020  1.2834  0.4829  2.6830
  146OSM   H11T16116   2.117   5.514   6.082  2.6416 -0.7993  2.5014
  146OSM   C12S16117   2.222   5.523   5.886  0.4635 -0.3552 -0.2072
  146OSM   H12S16118   2.122   5.506   5.841  0.4289 -1.0340  0.1036
  146OSM   H12T16119   2.280   5.429   5.897 -0.2826 -1.0690 -1.9963
  146OSM   C13S16120   2.281   5.630   5.794 -0.4386 -0.5409  0.1400
  146OSM   H13S16121   2.379   5.667   5.832 -0.8258 -0.7848  1.4450
  146OSM   H13T16122   2.212   5.716   5.784 -0.6118 -0.5181  1.3581
  146OSM   C14S16123   2.298   5.588   5.647 -0.3648 -0.0238  0.3465
  146OSM   H14S16124   2.213   5.536   5.598  0.7678  0.4113 -2.2909
  146OSM   H14T16125   2.371   5.505   5.643  0.1533  0.3263  1.8207
  146OSM   C15S16126   2.339   5.696   5.545  0.8038 -0.6160  0.3215
  146OSM   H15S16127   2.447   5.715   5.562  1.3142 -1.7530 -1.4466
  146OSM   H15T16128   2.278   5.790   5.549 -0.8645 -1.6919  1.7686
  146OSM   C16S16129   2.316   5.653   5.394 -0.7249 -0.8128 -0.1030
  146OSM   H16S16130   2.326   5.743   5.329  1.6598 -0.9603 -0.0109
  146OSM   H16T16131   2.217   5.604   5.386 -0.1096 -2.2615  0.8515
  146OSM   C17S16132   2.409   5.547   5.348 -0.7875 -0.5318  0.6689
  146OSM   H17S16133   2.408   5.451   5.403 -2.5863  0.2033  1.9921
  146OSM   H17T16134   2.510   5.589   5.367 -0.2485 -1.4644  0.0091
  146OSM   C18S16135   2.388   5.532   5.192 -0.2830 -0.5285 -0.7403
  146OSM   H18S16136   2.427   5.621   5.138 -0.8759 -0.7111 -1.4861
  146OSM   H18T16137   2.278   5.531   5.176 -0.3275  1.1881 -0.6464
  146OSM   H18U16138   2.429   5.440   5.145 -2.0598 -1.1350 -1.1619
  146OSM    C1F16139   2.145   6.081   6.792 -0.3095  0.7272  0.3404
  146OSM     OF16140   2.219   6.170   6.833  0.2415  0.6598 -0.2604
  146OSM    C2F16141   2.027   6.103   6.705  0.0196  0.7763  0.3999
  146OSM    H2F16142   1.932   6.112   6.762  0.3949 -1.0977  1.4118
  146OSM    H2G16143   2.013   6.012   6.642 -2.6892  1.2598  0.2097
  146OSM    C3F16144   2.041   6.223   6.613 -0.0482  0.1346  0.5155
  146OSM    H3F16145   2.105   6.193   6.527  0.7787  1.5475  0.5971
  146OSM    H3G16146   2.085   6.315   6.659 -0.3858  1.7012 -2.0598
  146OSM    C4F16147   1.911   6.258   6.546  0.1878 -0.6326  0.2257
  146OSM    H4F16148   1.840   6.269   6.631 -0.2055  1.2360 -0.2931
  146OSM    H4G16149   1.886   6.168   6.486 -0.8141  0.1228 -0.5287
  146OSM    C5F16150   1.926   6.389   6.460 -0.2463  0.0953  0.2083
  146OSM    H5F16151   2.013   6.394   6.391 -0.1407 -2.3335  0.1081
  146OSM    H5G16152   1.950   6.474   6.529  0.1609  0.5406 -0.4704
  146OSM    C6F16153   1.807   6.422   6.373 -0.6228 -0.1800 -0.2622
  146OSM    H6F16154   1.820   6.516   6.315 -1.5596 -0.5489 -1.1103
  146OSM    H6G16155   1.715   6.430   6.435 -1.3792  4.5984 -1.5477
  146OSM    C7F16156   1.782   6.321   6.258 -0.4785 -0.0367 -0.2325
  146OSM    H7F16157   1.796   6.225   6.312  1.5459  0.7812  0.8232
  146OSM    H7G16158   1.852   6.332   6.173  0.4473 -0.0631  0.5128
  146OSM    C8F16159   1.642   6.313   6.196  0.5429 -0.3115  0.2759
  146OSM    H8F16160   1.580   6.336   6.285 -0.5382  1.5732 -0.8773
  146OSM    H8G16161   1.631   6.204   6.179  2.1995 -0.6941  1.3932
  146OSM    C9F16162   1.616   6.406   6.083 -0.7091 -0.4735  0.4604
  146OSM    H9F16163   1.648   6.510   6.097  1.1335 -0.7453 -1.2493
  146OSM   C10F16164   1.556   6.365   5.972 -0.6843  0.5226  0.4543
  146OSM   H10F16165   1.552   6.429   5.882  0.4250 -2.7028 -2.0883
  146OSM   C11F16166   1.509   6.225   5.935  0.2946 -0.3446 -0.4962
  146OSM   H11F16167   1.406   6.221   5.894  0.8566 -0.6418 -1.9460
  146OSM   H11G16168   1.490   6.173   6.032  1.4344  3.1054  1.7596
  146OSM   C12F16169   1.600   6.152   5.835 -0.2150 -0.4515  0.4404
  146OSM   H12F16170   1.573   6.044   5.826 -0.3074 -0.2698 -2.2559
  146OSM   H12G16171   1.702   6.154   5.877 -0.4500 -0.1243  1.0151
  146OSM   C13F16172   1.589   6.202   5.686 -0.6082 -0.2846  0.4094
  146OSM   H13F16173   1.661   6.140   5.628  0.5707  0.0158  1.4975
  146OSM   H13G16174   1.630   6.305   5.683 -2.2167  0.4127  1.2525
  146OSM   C14F16175   1.450   6.201   5.621 -0.9200  0.3204  0.1510
  146OSM   H14F16176   1.390   6.111   5.644  0.7492 -1.2495 -1.3301
  146OSM   H14G16177   1.390   6.281   5.670  0.1151  0.9004  0.4946
  146OSM   C15F16178   1.457   6.246   5.476  0.2850  0.4669  0.2102
  146OSM   H15F16179   1.501   6.164   5.414  0.4101  1.1685 -0.6591
  146OSM   H15G16180   1.525   6.334   5.473  0.0424  0.6406 -1.7867
  146OSM   C16F16181   1.319   6.278   5.418  0.1782 -0.5390  0.2070
  146OSM   H16F16182   1.275   6.353   5.488  0.3258  0.1152 -0.3838
  146OSM   H16G16183   1.251   6.191   5.427 -1.5115  0.4848 -1.7306
  146OSM   C17F16184   1.306   6.344   5.282 -0.3211  0.4861 -0.6309
  146OSM   H17F16185   1.372   6.433   5.278 -0.5086  0.6939  0.6295
  146OSM   H17G16186   1.197   6.365   5.277 -0.0657  1.6130 -2.9119
  146OSM   C18F16187   1.341   6.263   5.159 -0.5137  0.0995 -0.3256
  146OSM   H18F16188   1.438   6.210   5.160 -1.1090 -1.0169  0.1964
  146OSM   H18G16189   1.332   6.323   5.066 -1.1539 -0.2963 -0.5296
  146OSM   H18H16190   1.256   6.194   5.138 -0.1510 -0.0281 -1.4463
  147OSM      N16191   4.562   4.119   2.434 -1.1192  0.5019 -0.2202
  147OSM    C1516192   4.446   4.176   2.503  0.4218 -0.8109 -0.1249
  147OSM   H15A16193   4.428   4.275   2.464  1.8559 -1.2596 -2.0849
  147OSM   H15B16194   4.472   4.180   2.607  1.1141 -0.0407 -0.3161
  147OSM   H15C16195   4.359   4.113   2.493 -0.0691 -0.4575  1.6737
  147OSM    C1416196   4.578   3.973   2.457 -0.1976  0.7658 -0.0928
  147OSM   H14A16197   4.581   3.942   2.561  1.2128 -1.3344 -0.6962
  147OSM   H14B16198   4.670   3.946   2.408 -1.4481 -1.4556 -1.4410
  147OSM   H14C16199   4.489   3.926   2.417 -0.8979  2.2367 -0.3060
  147OSM    C1316200   4.539   4.145   2.287  0.7196  0.2000 -0.4025
  147OSM   H13A16201   4.527   4.250   2.265 -0.3300  0.6398  2.0473
  147OSM   H13B16202   4.449   4.090   2.265 -0.6423  1.2604  2.2008
  147OSM   H13C16203   4.626   4.110   2.233  0.2929 -0.7677 -0.4831
  147OSM    C1216204   4.696   4.188   2.464 -0.8360 -0.1181 -0.1588
  147OSM   H12A16205   4.681   4.295   2.457 -1.2325 -0.1658 -0.0633
  147OSM   H12B16206   4.768   4.154   2.392 -0.3961 -0.7881  0.5786
  147OSM    C1116207   4.755   4.155   2.609 -0.1438 -0.1013 -0.2556
  147OSM   H11A16208   4.849   4.213   2.617 -0.9060  0.9428  2.1298
  147OSM   H11B16209   4.787   4.051   2.631  0.1322  0.7147  3.9460
  147OSM      P16210   4.602   4.134   2.821  0.1083  0.3229 -0.4226
  147OSM    O1316211   4.465   4.187   2.849 -0.6333  0.6781  0.3155
  147OSM    O1416212   4.604   3.990   2.787 -0.4856  0.3017 -0.3126
  147OSM    O1116213   4.706   4.152   2.945  0.0316 -0.0328  0.3121
  147OSM    O1216214   4.673   4.217   2.709  0.0319  0.1857  0.3373
  147OSM    C1S16215   4.782   4.274   2.950  0.6111 -0.7694  1.2738
  147OSM    H1S16216   4.708   4.355   2.933  0.1116 -1.5281 -0.3145
  147OSM    H1T16217   4.856   4.275   2.867 -1.2301 -1.4972 -0.4330
  147OSM     NF16218   4.881   4.434   3.107  0.3713 -0.2160 -0.4404
  147OSM    HNF16219   4.979   4.446   3.103  0.3427 -0.4329 -2.3358
  147OSM    C2S16220   4.837   4.298   3.092  0.2785  0.2412 -0.3627
  147OSM    H2S16221   4.755   4.279   3.165  0.7183  0.4666  0.2018
  147OSM    C3S16222   4.940   4.188   3.124  0.0466 -0.1044 -0.5579
  147OSM    H3S16223   5.026   4.208   3.057 -0.5598  2.1934 -0.7149
  147OSM     O316224   4.905   4.049   3.091 -0.2445 -0.5776  0.2141
  147OSM    HO316225   4.820   4.039   3.048  0.1061 -3.4695 -0.0098
  147OSM    C4S16226   4.988   4.192   3.270  0.8540 -0.1308  0.0005
  147OSM    H4S16227   5.040   4.286   3.292  0.6287 -0.5776  2.8298
  147OSM    C5S16228   4.965   4.114   3.375 -0.0582 -0.6416 -0.3949
  147OSM    H5S16229   4.912   4.019   3.356 -2.3241  1.0034 -3.0790
  147OSM    C6S16230   5.025   4.132   3.516 -0.2331 -0.9828  0.6222
  147OSM    H6S16231   4.949   4.155   3.594  1.2725 -3.0859  2.8501
  147OSM    H6T16232   5.103   4.211   3.520 -2.1080  0.9188  2.5307
  147OSM    C7S16233   5.106   4.015   3.560  0.3040  0.1992  0.5016
  147OSM    H7S16234   5.193   3.990   3.497  0.4968  0.0588  0.8186
  147OSM    H7T16235   5.038   3.927   3.553  0.1091  0.3837  0.0211
  147OSM    C8S16236   5.155   4.015   3.702 -0.0823 -0.2091  0.2185
  147OSM    H8S16237   5.206   4.114   3.700  0.1588 -0.3353  0.0041
  147OSM    H8T16238   5.235   3.939   3.720  0.8991  1.3384  3.1126
  147OSM    C9S16239   5.048   4.011   3.813  0.4508  0.5555 -0.7952
  147OSM    H9S16240   4.996   3.913   3.799 -1.9139  1.9998 -3.0877
  147OSM    H9T16241   4.974   4.091   3.789 -1.5377 -0.5074  1.3063
  147OSM   C10S16242   5.095   4.027   3.956 -0.4471  0.0761  0.3125
  147OSM   H10S16243   5.164   3.941   3.969 -1.2899 -0.9804 -1.6683
  147OSM   H10T16244   5.007   4.016   4.022 -0.4483 -2.9808 -0.0513
  147OSM   C11S16245   5.177   4.156   3.978  0.7760  0.2611  0.7627
  147OSM   H11S16246   5.103   4.239   3.985  0.5905  0.1338  0.3625
  147OSM   H11T16247   5.236   4.184   3.888 -1.3123  2.7285  0.0398
  147OSM   C12S16248   5.284   4.152   4.088 -0.3889  0.1544  0.4983
  147OSM   H12S16249   5.335   4.251   4.094  1.3574 -0.7838  1.9405
  147OSM   H12T16250   5.358   4.076   4.054 -1.9257 -0.7394 -1.0043
  147OSM   C13S16251   5.225   4.106   4.221  0.0894 -0.3335  0.0165
  147OSM   H13S16252   5.200   3.998   4.220 -0.8059 -0.1944 -2.6948
  147OSM   H13T16253   5.132   4.164   4.242 -0.1076 -0.8965  0.7257
  147OSM   C14S16254   5.321   4.131   4.343  1.0122 -0.4051 -0.5915
  147OSM   H14S16255   5.276   4.091   4.437  1.2098 -1.8525 -1.0890
  147OSM   H14T16256   5.328   4.242   4.345 -0.9866 -0.2205 -1.2156
  147OSM   C15S16257   5.455   4.062   4.324 -0.2884 -0.4694 -1.2105
  147OSM   H15S16258   5.501   4.078   4.224  0.5130  1.9099 -0.5495
  147OSM   H15T16259   5.445   3.952   4.330 -0.8083 -0.4035 -0.7487
  147OSM   C16S16260   5.559   4.111   4.436  0.7212 -0.2067  0.2313
  147OSM   H16S16261   5.645   4.045   4.414 -0.4698 -0.7393 -3.3906
  147OSM   H16T16262   5.526   4.068   4.533  1.1037  0.0464  0.4779
  147OSM   C17S16263   5.595   4.264   4.444  0.3690 -0.7156  0.3641
  147OSM   H17S16264   5.657   4.290   4.532  1.6468 -0.4962 -0.5701
  147OSM   H17T16265   5.507   4.328   4.464  0.5532  0.1573 -1.4618
  147OSM   C18S16266   5.647   4.315   4.310  0.3654 -0.4548  0.0362
  147OSM   H18S16267   5.704   4.409   4.323  0.4328 -0.6533  1.3913
  147OSM   H18T16268   5.574   4.331   4.228  1.7157  0.4791 -1.0255
  147OSM   H18U16269   5.719   4.241   4.270  0.8829  0.1324 -0.1362
  147OSM    C1F16270   4.802   4.531   3.138  0.5991 -0.0941  0.0386
  147OSM     OF16271   4.684   4.520   3.162 -0.3043 -0.6419  0.5505
  147OSM    C2F16272   4.862   4.670   3.147 -0.5044  0.1779 -0.6957
  147OSM    H2F16273   4.821   4.740   3.072  2.0459 -0.1413 -2.5139
  147OSM    H2G16274   4.970   4.655   3.125 -0.2779  1.0876 -0.2482
  147OSM    C3F16275   4.841   4.738   3.292  0.1434 -0.4688 -0.6997
  147OSM    H3F16276   4.734   4.756   3.316  1.0652  1.9243  2.1006
  147OSM    H3G16277   4.887   4.838   3.281 -0.5909  0.0618  0.8074
  147OSM    C4F16278   4.903   4.666   3.409  0.6202 -0.3952  0.1323
  147OSM    H4F16279   4.929   4.744   3.484  0.1680  0.1637 -0.2807
  147OSM    H4G16280   5.004   4.627   3.385  1.0174 -0.4499  1.7599
  147OSM    C5F16281   4.818   4.549   3.467  0.4263 -0.0611 -1.1559
  147OSM    H5F16282   4.821   4.472   3.387  5.2731 -0.1897 -1.1844
  147OSM    H5G16283   4.714   4.579   3.491  1.3916  2.0954  0.8153
  147OSM    C6F16284   4.880   4.497   3.599 -0.0555 -0.2554  0.2743
  147OSM    H6F16285   4.975   4.445   3.577  0.2760 -0.0026  1.0730
  147OSM    H6G16286   4.813   4.414   3.632 -0.9243 -0.1443 -1.1407
  147OSM    C7F16287   4.897   4.602   3.713 -0.8183 -0.1414 -0.1835
  147OSM    H7F16288   4.800   4.649   3.738 -0.2552  0.3861  1.1039
  147OSM    H7G16289   4.969   4.678   3.675 -0.8143  0.7229  1.4762
  147OSM    C8F16290   4.958   4.558   3.845  0.0649 -0.3976 -1.0001
  147OSM    H8F16291   5.002   4.642   3.903  0.3750 -1.2119 -0.0423
  147OSM    H8G16292   5.048   4.496   3.822  0.6252 -0.8742  2.0464
  147OSM    C9F16293   4.851   4.481   3.919  0.5907  0.5445  0.1841
  147OSM    H9F16294   4.834   4.380   3.878 -0.7537  0.8091  0.0728
  147OSM   C10F16295   4.800   4.522   4.033  0.0862 -0.3961 -0.4193
  147OSM   H10F16296   4.728   4.452   4.077  0.3046 -0.6548 -0.4725
  147OSM   C11F16297   4.828   4.645   4.113 -0.2346  0.2019 -0.0865
  147OSM   H11F16298   4.758   4.680   4.192  0.4934  0.9495  0.2475
  147OSM   H11G16299   4.848   4.727   4.041  2.4249  0.7055  1.0949
  147OSM   C12F16300   4.961   4.630   4.196 -0.1612  0.5231 -0.0582
  147OSM   H12F16301   4.971   4.722   4.258  1.5025  0.4518 -0.1657
  147OSM   H12G16302   5.051   4.638   4.132  1.2867  0.2120  1.8319
  147OSM   C13F16303   4.968   4.507   4.297 -0.9227  0.1574 -0.3970
  147OSM   H13F16304   5.076   4.487   4.316 -1.2291 -0.5805  0.6619
  147OSM   H13G16305   4.913   4.422   4.253 -2.8759 -1.0556  3.8396
  147OSM   C14F16306   4.901   4.529   4.433  0.1051 -0.7008  0.1643
  147OSM   H14F16307   4.933   4.443   4.496  2.4085  0.7102  1.0485
  147OSM   H14G16308   4.792   4.542   4.418  0.2584  3.0000  1.3491
  147OSM   C15F16309   4.942   4.649   4.517 -0.5031 -0.2562  0.0236
  147OSM   H15F16310   4.890   4.637   4.614 -0.3140  1.1146  0.3159
  147OSM   H15G16311   4.904   4.742   4.471  0.3841  1.0363  1.7834
  147OSM   C16F16312   5.093   4.668   4.550 -0.4753 -0.9189 -0.1198
  147OSM   H16F16313   5.132   4.680   4.447 -0.3912 -0.0584 -0.0005
  147OSM   H16G16314   5.135   4.579   4.601 -1.0064 -1.7947 -1.1756
  147OSM   C17F16315   5.129   4.797   4.634 -0.8024 -0.0157  0.8988
  147OSM   H17F16316   5.060   4.883   4.622  1.6644  1.7172 -2.5565
  147OSM   H17G16317   5.223   4.840   4.595 -1.7558  0.8383 -0.5315
  147OSM   C18F16318   5.144   4.765   4.783 -1.0096  0.7348 -0.8401
  147OSM   H18F16319   5.058   4.703   4.815  0.8827 -0.9806  1.2914
  147OSM   H18G16320   5.160   4.858   4.842 -0.6078  0.2424 -0.1538
  147OSM   H18H16321   5.232   4.698   4.797 -3.0906 -2.1821 -0.8380
  148OSM      N16322   4.897   5.683   2.483 -0.8234  0.3134  0.9592
  148OSM    C1516323   4.776   5.611   2.445 -0.2030  0.2214 -0.3423
  148OSM   H15A16324   4.742   5.555   2.531  1.0496  0.4332  0.3318
  148OSM   H15B16325   4.797   5.536   2.371  0.4551 -0.9911  1.0285
  148OSM   H15C16326   4.701   5.679   2.407  0.1860  0.2229 -1.1303
  148OSM    C1416327   4.953   5.763   2.362 -0.2720  0.3458 -0.1863
  148OSM   H14A16328   4.878   5.817   2.306 -0.6133 -0.7809 -0.8529
  148OSM   H14B16329   5.012   5.700   2.297 -0.1964  0.8350 -0.6038
  148OSM   H14C16330   5.023   5.835   2.401  1.7750 -1.3845 -0.4869
  148OSM    C1316331   4.865   5.782   2.592  0.7467  0.0564 -0.0760
  148OSM   H13A16332   4.954   5.834   2.624 -1.0144  2.4918  1.1826
  148OSM   H13B16333   4.831   5.721   2.675  1.3213 -1.1870 -0.7255
  148OSM   H13C16334   4.795   5.857   2.558 -1.1386 -1.3508  0.5302
  148OSM    C1216335   5.010   5.588   2.523 -0.0140  0.0597  0.8521
  148OSM   H12A16336   5.095   5.648   2.553  0.6424 -1.2602  1.7302
  148OSM   H12B16337   5.050   5.541   2.435  0.1229  0.9351  0.4356
  148OSM    C1116338   4.985   5.493   2.643  1.0065 -0.5897  0.1558
  148OSM   H11A16339   4.929   5.552   2.719 -0.9467 -0.1398 -1.5562
  148OSM   H11B16340   5.082   5.467   2.692  0.4731  0.9438  2.1801
  148OSM      P16341   4.834   5.304   2.720 -0.3105 -0.5487  0.0998
  148OSM    O1316342   4.704   5.379   2.732 -0.1327  0.7955 -0.5559
  148OSM    O1416343   4.830   5.159   2.707  0.3465  0.0555  0.8506
  148OSM    O1116344   4.913   5.344   2.856  0.6222 -0.2329  0.0191
  148OSM    O1216345   4.922   5.373   2.610  0.0962  0.1823  0.0254
  148OSM    C1S16346   4.849   5.331   2.979  0.2267  0.0294 -0.4739
  148OSM    H1S16347   4.797   5.232   2.984 -1.4597  0.9027 -0.0538
  148OSM    H1T16348   4.768   5.404   3.001 -0.6102 -0.8536 -0.5170
  148OSM     NF16349   4.863   5.316   3.220 -0.4091  0.4584 -0.7793
  148OSM    HNF16350   4.838   5.398   3.272 -0.2716 -1.0727  1.8553
  148OSM    C2S16351   4.942   5.341   3.104  0.2444 -0.2403  0.6985
  148OSM    H2S16352   5.011   5.255   3.091 -1.7234 -1.8846  0.6579
  148OSM    C3S16353   5.010   5.486   3.107  0.0985  0.3928  0.6264
  148OSM    H3S16354   4.930   5.561   3.126 -0.7415 -0.7774  1.9113
  148OSM     O316355   5.066   5.528   2.981 -0.3901 -0.5333  0.2154
  148OSM    HO316356   5.045   5.454   2.924 -1.9600 -1.6683  2.1275
  148OSM    C4S16357   5.099   5.513   3.224 -0.0002  0.1606 -0.1090
  148OSM    H4S16358   5.036   5.528   3.313  1.3484 -2.2303  1.3798
  148OSM    C5S16359   5.233   5.529   3.242 -0.0408 -0.2525  0.3021
  148OSM    H5S16360   5.304   5.507   3.161  1.6257 -0.8164  1.8611
  148OSM    C6S16361   5.307   5.568   3.371 -0.2173  0.3779  0.3585
  148OSM    H6S16362   5.367   5.660   3.349 -0.8227  0.1927 -2.4381
  148OSM    H6T16363   5.380   5.489   3.398 -0.6278 -0.0654  0.1801
  148OSM    C7S16364   5.222   5.594   3.496  0.9102  0.0373  0.6616
  148OSM    H7S16365   5.169   5.500   3.521  3.0603 -1.6292 -0.6946
  148OSM    H7T16366   5.141   5.668   3.480  0.3022 -0.8647 -0.6832
  148OSM    C8S16367   5.309   5.639   3.613 -0.0257  0.0542  0.4823
  148OSM    H8S16368   5.350   5.742   3.605 -1.0649  0.5956  1.9335
  148OSM    H8T16369   5.395   5.569   3.621  0.4329  0.6640  1.0244
  148OSM    C9S16370   5.236   5.640   3.745 -0.1585  0.7260  0.2600
  148OSM    H9S16371   5.194   5.540   3.769 -2.2410  1.5929  0.4238
  148OSM    H9T16372   5.143   5.700   3.745 -0.7343 -0.1222  1.2531
  148OSM   C10S16373   5.324   5.676   3.872  0.4334 -0.1974 -0.4137
  148OSM   H10S16374   5.365   5.777   3.852  0.1521 -0.0794 -0.4047
  148OSM   H10T16375   5.407   5.604   3.880 -0.2612 -0.9056  0.7050
  148OSM   C11S16376   5.243   5.670   4.006 -0.5695 -0.3818  0.0055
  148OSM   H11S16377   5.196   5.569   4.009 -0.5429 -0.3998 -0.1806
  148OSM   H11T16378   5.157   5.740   4.005  0.6987  1.2304  0.2153
  148OSM   C12S16379   5.316   5.689   4.133  0.4082  0.1044 -0.1402
  148OSM   H12S16380   5.370   5.786   4.132 -0.8405  0.8738  1.5334
  148OSM   H12T16381   5.386   5.605   4.151  0.4872  0.0189 -0.8138
  148OSM   C13S16382   5.220   5.689   4.262 -0.6189 -0.5350  0.1590
  148OSM   H13S16383   5.193   5.582   4.279  0.8724 -1.2323 -1.5032
  148OSM   H13T16384   5.131   5.753   4.248 -0.8591 -0.4001  2.0802
  148OSM   C14S16385   5.296   5.755   4.381  0.2096 -0.7597  0.0996
  148OSM   H14S16386   5.306   5.860   4.348  0.6638  0.2894  3.2944
  148OSM   H14T16387   5.391   5.703   4.408  1.3228  1.1263 -0.0294
  148OSM   C15S16388   5.213   5.749   4.516 -0.0306  0.0458  0.6698
  148OSM   H15S16389   5.160   5.654   4.536  1.1706 -1.4698 -2.6797
  148OSM   H15T16390   5.140   5.833   4.514  1.0954  1.0585  0.4276
  148OSM   C16S16391   5.296   5.780   4.642 -0.4620  0.1685 -0.6091
  148OSM   H16S16392   5.358   5.870   4.626 -0.0350 -0.0510 -0.2232
  148OSM   H16T16393   5.364   5.695   4.666 -0.1844  0.4329 -0.4521
  148OSM   C17S16394   5.202   5.802   4.758  0.1662 -0.2953 -0.8928
  148OSM   H17S16395   5.119   5.728   4.761  0.0911 -0.2089  2.0928
  148OSM   H17T16396   5.164   5.904   4.736 -1.3606 -0.6027  0.1512
  148OSM   C18S16397   5.268   5.800   4.894  0.3135 -0.0717 -0.0443
  148OSM   H18S16398   5.325   5.705   4.904  0.7252  0.0970 -0.7338
  148OSM   H18T16399   5.200   5.814   4.981 -0.7658 -1.6558 -0.5799
  148OSM   H18U16400   5.349   5.876   4.900 -0.4043  0.6159  1.9363
  148OSM    C1F16401   4.819   5.197   3.257  0.2596  0.4796 -0.4108
  148OSM     OF16402   4.833   5.093   3.187  0.4852 -0.5589  0.6776
  148OSM    C2F16403   4.747   5.178   3.388  0.2467 -0.1967  0.2907
  148OSM    H2F16404   4.641   5.210   3.378  0.2204  0.5345  2.4519
  148OSM    H2G16405   4.798   5.245   3.460 -1.8669  1.4622  0.3531
  148OSM    C3F16406   4.748   5.028   3.433  0.6932 -0.1030  0.6180
  148OSM    H3F16407   4.851   4.985   3.429  0.5482 -0.4845  0.9970
  148OSM    H3G16408   4.692   4.971   3.356  2.5776 -0.2380 -0.7353
  148OSM    C4F16409   4.673   5.003   3.560 -0.3185 -0.3890 -0.3683
  148OSM    H4F16410   4.641   4.896   3.559 -1.6100 -0.0292 -0.1281
  148OSM    H4G16411   4.573   5.052   3.553 -0.0090  0.1903 -0.7738
  148OSM    C5F16412   4.764   5.023   3.680  0.3553 -0.3303  0.1125
  148OSM    H5F16413   4.797   5.129   3.680 -1.6923  0.4847 -3.5667
  148OSM    H5G16414   4.854   4.959   3.670  2.2302  2.0978  0.3294
  148OSM    C6F16415   4.697   4.999   3.815 -0.0735  0.2922  0.3978
  148OSM    H6F16416   4.640   4.904   3.806 -1.6146  1.3485 -2.2819
  148OSM    H6G16417   4.612   5.069   3.834  0.0054  0.4323  0.2346
  148OSM    C7F16418   4.796   5.007   3.930  0.6672 -0.9205 -0.3259
  148OSM    H7F16419   4.844   5.107   3.920 -0.1678 -0.6120 -1.5260
  148OSM    H7G16420   4.870   4.925   3.922  1.3992 -0.5970  2.3639
  148OSM    C8F16421   4.737   4.983   4.069 -0.1227 -0.5601  0.8840
  148OSM    H8F16422   4.823   4.949   4.131  0.7905  1.2739  0.6867
  148OSM    H8G16423   4.655   4.907   4.068 -1.8362  1.1379 -2.3596
  148OSM    C9F16424   4.674   5.114   4.114  0.3817  0.0129 -0.0206
  148OSM    H9F16425   4.582   5.141   4.059 -0.2739  1.2182  1.5888
  148OSM   C10F16426   4.704   5.176   4.227 -0.2406 -0.2317 -0.4808
  148OSM   H10F16427   4.648   5.269   4.248  0.3898  0.2949 -1.0786
  148OSM   C11F16428   4.806   5.137   4.328  0.4284 -0.0845  0.0689
  148OSM   H11F16429   4.820   5.221   4.400 -1.4758  0.7156 -0.4205
  148OSM   H11G16430   4.907   5.116   4.286 -0.1710  0.5944 -1.8165
  148OSM   C12F16431   4.777   5.003   4.411  0.3252  0.2424 -0.3627
  148OSM   H12F16432   4.855   5.000   4.490  1.0558 -0.6218 -1.1085
  148OSM   H12G16433   4.804   4.925   4.337  2.3542  0.8165 -0.2912
  148OSM   C13F16434   4.637   5.002   4.472  0.2238 -0.3398  0.4179
  148OSM   H13F16435   4.615   4.897   4.502 -0.5811 -0.6485 -1.1106
  148OSM   H13G16436   4.564   5.023   4.390  0.2803  0.8399  0.6612
  148OSM   C14F16437   4.619   5.092   4.596  0.3276 -0.0782  0.9226
  148OSM   H14F16438   4.627   5.200   4.574 -1.7510 -0.3073 -1.2728
  148OSM   H14G16439   4.708   5.070   4.659 -0.2015 -0.7620  1.4560
  148OSM   C15F16440   4.499   5.049   4.678  0.6030 -0.0854  0.1739
  148OSM   H15F16441   4.470   4.943   4.663  1.1316 -0.0961 -0.9087
  148OSM   H15G16442   4.414   5.118   4.656 -0.2031 -1.2897 -0.5807
  148OSM   C16F16443   4.541   5.045   4.828  0.0013 -0.0920  0.1951
  148OSM   H16F16444   4.613   5.129   4.839 -1.8183  1.6291 -0.3415
  148OSM   H16G16445   4.589   4.947   4.849 -1.2911 -0.3209  2.3476
  148OSM   C17F16446   4.419   5.062   4.923  0.4456  0.4939 -0.3331
  148OSM   H17F16447   4.465   5.071   5.024  1.8231 -2.1161 -0.6361
  148OSM   H17G16448   4.350   4.975   4.916  2.7389 -1.5020  0.6451
  148OSM   C18F16449   4.339   5.193   4.912  0.9032  0.1420  0.3370
  148OSM   H18F16450   4.405   5.278   4.941  1.2434 -0.9062  2.9610
  148OSM   H18G16451   4.259   5.190   4.990  1.1193  1.2935  0.6210
  148OSM   H18H16452   4.298   5.204   4.809  1.8800  0.2555 -0.0481
  149OSM      N16453   4.163   2.980   2.548  0.3803  0.4166 -0.3314
  149OSM    C1516454   4.081   3.046   2.440  0.3218  0.2572  0.3795
  149OSM   H15A16455   4.126   3.028   2.343 -0.2913 -0.4455  0.2125
  149OSM   H15B16456   4.086   3.154   2.446  0.8085  0.1594  2.6660
  149OSM   H15C16457   3.976   3.022   2.440  0.3801 -0.0824 -0.9949
  149OSM    C1416458   4.110   2.834   2.567 -0.4376 -1.0938  0.0753
  149OSM   H14A16459   4.109   2.777   2.475  1.3346  0.9702 -1.3316
  149OSM   H14B16460   4.010   2.838   2.608 -0.2011 -2.3772  0.8240
  149OSM   H14C16461   4.164   2.783   2.645 -1.3509 -0.4040  1.1873
  149OSM    C1316462   4.307   2.984   2.521 -0.3204 -0.0490 -0.2673
  149OSM   H13A16463   4.349   3.083   2.537 -0.0215 -0.0548 -0.9640
  149OSM   H13B16464   4.327   2.959   2.418  1.8728  0.1802  0.0437
  149OSM   H13C16465   4.358   2.922   2.593 -1.9486  1.5687  2.4736
  149OSM    C1216466   4.141   3.045   2.685 -0.3597 -0.8484 -0.1524
  149OSM   H12A16467   4.040   3.019   2.713 -0.0998 -1.0924  0.5587
  149OSM   H12B16468   4.148   3.153   2.683  1.1304 -0.8441  1.7654
  149OSM    C1116469   4.223   3.004   2.809 -0.2036 -0.2002 -0.5965
  149OSM   H11A16470   4.192   3.066   2.896  0.4615  0.7268 -1.0003
  149OSM   H11B16471   4.327   3.025   2.775 -0.2365 -1.1315 -1.3129
  149OSM      P16472   4.325   2.764   2.870 -0.2256 -0.3289 -0.4404
  149OSM    O1316473   4.274   2.639   2.939 -0.0051 -0.1794  0.1409
  149OSM    O1416474   4.407   2.745   2.747 -0.0564 -0.2084 -0.1321
  149OSM    O1116475   4.411   2.846   2.972  0.4099 -0.1549  0.1434
  149OSM    O1216476   4.206   2.864   2.835 -0.1448  0.0097 -0.6054
  149OSM    C1S16477   4.359   2.877   3.109  0.6902 -0.8642 -0.4560
  149OSM    H1S16478   4.378   2.791   3.176 -3.2000 -0.9927  0.6844
  149OSM    H1T16479   4.250   2.898   3.112  0.6021 -1.4188  0.3615
  149OSM     NF16480   4.386   3.020   3.299 -0.6582  0.3851  0.0385
  149OSM    HNF16481   4.338   3.105   3.323 -3.1313 -1.7550  3.7734
  149OSM    C2S16482   4.435   2.999   3.164  0.3442  0.2193  0.1588
  149OSM    H2S16483   4.541   2.970   3.183  1.5068  3.4444 -0.6902
  149OSM    C3S16484   4.433   3.122   3.069  0.0075  0.5926  0.0176
  149OSM    H3S16485   4.325   3.137   3.047 -0.1999  0.3776  0.8463
  149OSM     O316486   4.514   3.106   2.953 -0.2173 -0.9311  0.9534
  149OSM    HO316487   4.538   3.013   2.948  2.4464 -0.2471 -1.7440
  149OSM    C4S16488   4.485   3.237   3.145  0.0250  0.1892 -0.7234
  149OSM    H4S16489   4.587   3.231   3.185 -0.1009  1.4866 -0.1832
  149OSM    C5S16490   4.406   3.343   3.180  0.2331  0.4899 -0.2386
  149OSM    H5S16491   4.302   3.348   3.147 -0.1572  1.3806  1.0444
  149OSM    C6S16492   4.439   3.467   3.257  0.0990 -0.4739  0.0029
  149OSM    H6S16493   4.351   3.493   3.319 -0.3363 -0.4783 -0.6165
  149OSM    H6T16494   4.458   3.545   3.180  1.0984  0.4227  1.1189
  149OSM    C7S16495   4.563   3.458   3.350  0.2010  0.0353  0.0161
  149OSM    H7S16496   4.654   3.439   3.289  1.1591  0.6506  1.2129
  149OSM    H7T16497   4.557   3.384   3.433  0.7049  0.3054  0.2989
  149OSM    C8S16498   4.600   3.597   3.412 -0.2964 -0.5369 -0.7670
  149OSM    H8S16499   4.507   3.658   3.408 -1.1219 -1.6410  0.4699
  149OSM    H8T16500   4.674   3.647   3.347  0.6026  0.0985  0.6867
  149OSM    C9S16501   4.637   3.585   3.562 -0.3089  0.6732  1.1059
  149OSM    H9S16502   4.671   3.679   3.610 -1.8921  0.9258  1.8186
  149OSM    H9T16503   4.724   3.516   3.562 -0.4925  0.4402  1.0982
  149OSM   C10S16504   4.517   3.548   3.653  0.6742  0.5699  0.1849
  149OSM   H10S16505   4.477   3.448   3.625  0.9693  0.6992 -0.7180
  149OSM   H10T16506   4.437   3.622   3.632 -0.0666 -0.4401 -0.6863
  149OSM   C11S16507   4.555   3.531   3.808  0.0648 -0.0066  0.5805
  149OSM   H11S16508   4.596   3.627   3.844  1.1226 -1.2069  2.8428
  149OSM   H11T16509   4.637   3.457   3.821 -0.3430 -0.8571 -1.3299
  149OSM   C12S16510   4.445   3.479   3.901 -0.0340 -0.0034 -0.0858
  149OSM   H12S16511   4.421   3.371   3.888  1.4256 -0.6842  2.3295
  149OSM   H12T16512   4.361   3.549   3.888 -1.5469 -1.4514  1.3477
  149OSM   C13S16513   4.495   3.494   4.046 -0.0261 -0.0788 -0.3517
  149OSM   H13S16514   4.558   3.586   4.056 -0.5291  0.2763 -0.3799
  149OSM   H13T16515   4.572   3.418   4.069 -1.3993 -1.7738 -1.2074
  149OSM   C14S16516   4.389   3.495   4.160 -0.2585  0.0918  0.1263
  149OSM   H14S16517   4.451   3.498   4.253  0.3671 -0.5596 -0.2630
  149OSM   H14T16518   4.341   3.396   4.146  1.5220 -0.6319 -1.2357
  149OSM   C15S16519   4.297   3.619   4.159 -0.7451  0.5285 -0.0718
  149OSM   H15S16520   4.262   3.636   4.054 -0.5330 -3.3462 -0.9481
  149OSM   H15T16521   4.352   3.711   4.186 -1.0187  0.8720 -0.6560
  149OSM   C16S16522   4.166   3.596   4.241  0.1133 -0.6209  0.4084
  149OSM   H16S16523   4.200   3.554   4.338 -1.2712 -0.4405  0.9957
  149OSM   H16T16524   4.092   3.524   4.199 -2.3899  1.0190  1.7891
  149OSM   C17S16525   4.087   3.725   4.260  0.1159  0.7259  0.2309
  149OSM   H17S16526   4.062   3.770   4.161 -0.9702  1.6631  0.9124
  149OSM   H17T16527   4.160   3.798   4.301  2.8152  0.2517 -3.2439
  149OSM   C18S16528   3.965   3.714   4.346  0.1468 -0.8411  0.6406
  149OSM   H18S16529   4.002   3.669   4.441 -1.6653  1.1330  2.3946
  149OSM   H18T16530   3.884   3.661   4.291 -0.0757 -0.7820  0.9052
  149OSM   H18U16531   3.933   3.813   4.386 -1.6284 -0.8785 -0.5480
  149OSM    C1F16532   4.393   2.944   3.405  0.1514 -0.6950 -0.3713
  149OSM     OF16533   4.445   2.832   3.409 -0.7068 -0.3147  0.8856
  149OSM    C2F16534   4.324   2.991   3.525 -0.6462 -0.3787 -0.3289
  149OSM    H2F16535   4.217   2.963   3.511 -0.6250 -0.4520 -0.3404
  149OSM    H2G16536   4.325   3.102   3.511 -1.7015 -0.3307 -0.1273
  149OSM    C3F16537   4.386   2.942   3.658  0.1209  0.3430 -0.0734
  149OSM    H3F16538   4.497   2.936   3.656  0.1229  0.2859  0.3399
  149OSM    H3G16539   4.348   2.838   3.672  0.1348  0.6014  2.0791
  149OSM    C4F16540   4.334   3.019   3.778 -0.3377 -0.3495 -0.5979
  149OSM    H4F16541   4.224   3.012   3.788 -0.2957  0.9253  1.3623
  149OSM    H4G16542   4.361   3.125   3.761 -1.1973  0.0847  0.6144
  149OSM    C5F16543   4.405   2.983   3.914 -0.0566 -0.0286 -0.0805
  149OSM    H5F16544   4.515   2.995   3.903  0.1391 -1.1721  0.4690
  149OSM    H5G16545   4.399   2.874   3.933 -2.0939  0.0829  0.0982
  149OSM    C6F16546   4.344   3.056   4.034  1.3250  0.3112 -0.0698
  149OSM    H6F16547   4.241   3.015   4.036  1.4489  0.0269  1.0037
  149OSM    H6G16548   4.346   3.162   4.000  1.1449 -0.1587 -1.6189
  149OSM    C7F16549   4.411   3.031   4.175 -0.3592 -0.8302  0.1224
  149OSM    H7F16550   4.521   3.043   4.175 -0.4950  0.9003 -1.2058
  149OSM    H7G16551   4.402   2.923   4.200 -0.4739 -0.5174  1.4625
  149OSM    C8F16552   4.333   3.094   4.288 -0.1134  0.9336  0.5134
  149OSM    H8F16553   4.223   3.082   4.279 -0.1225  1.3502 -0.0157
  149OSM    H8G16554   4.337   3.205   4.285 -0.5570  0.9207 -1.0681
  149OSM    C9F16555   4.393   3.033   4.415  0.2919  0.7243  0.2814
  149OSM    H9F16556   4.359   2.935   4.452  2.2192  1.2987  4.1364
  149OSM   C10F16557   4.493   3.078   4.488  1.1864 -0.7952  0.3621
  149OSM   H10F16558   4.521   3.018   4.576 -0.4085 -1.9034  0.1644
  149OSM   C11F16559   4.554   3.212   4.468 -0.3839 -0.6413 -0.0434
  149OSM   H11F16560   4.533   3.257   4.369  0.4443  0.0605  0.0865
  149OSM   H11G16561   4.664   3.207   4.483 -0.3088 -2.1744 -0.8671
  149OSM   C12F16562   4.511   3.312   4.583 -0.4254  0.8137  0.3150
  149OSM   H12F16563   4.585   3.395   4.581  0.8853 -0.3448 -0.2540
  149OSM   H12G16564   4.515   3.260   4.681  1.7152  2.2961  1.0818
  149OSM   C13F16565   4.369   3.366   4.563  0.2241 -0.3805 -0.1351
  149OSM   H13F16566   4.293   3.287   4.581  0.1932 -0.8138 -1.9262
  149OSM   H13G16567   4.375   3.392   4.455 -0.8164  3.1839  0.5310
  149OSM   C14F16568   4.337   3.496   4.642  0.2797 -0.2575  0.2337
  149OSM   H14F16569   4.369   3.582   4.580 -2.7221 -0.5750 -1.9516
  149OSM   H14G16570   4.382   3.477   4.742  3.6747 -0.0218 -1.1222
  149OSM   C15F16571   4.183   3.518   4.657  0.8645 -0.2487  0.3321
  149OSM   H15F16572   4.137   3.446   4.728  2.0119 -0.0431  1.3224
  149OSM   H15G16573   4.128   3.503   4.562  1.3009 -0.8811  0.1709
  149OSM   C16F16574   4.161   3.656   4.716 -0.5138 -0.2607  0.0374
  149OSM   H16F16575   4.192   3.733   4.643 -1.3392  0.0282 -0.0184
  149OSM   H16G16576   4.225   3.660   4.806  0.2677 -1.1849 -0.4669
  149OSM   C17F16577   4.007   3.673   4.755  0.4225 -0.0395 -0.2257
  149OSM   H17F16578   3.978   3.581   4.811  1.4575 -0.9000 -1.0477
  149OSM   H17G16579   3.938   3.688   4.670  0.5533  0.7902 -0.1891
  149OSM   C18F16580   3.988   3.788   4.858  0.3172  0.2881  0.0745
  149OSM   H18F16581   4.043   3.760   4.950  3.3906 -1.2958 -2.0272
  149OSM   H18G16582   3.879   3.790   4.879 -0.2352 -2.3081 -1.9949
  149OSM   H18H16583   4.036   3.882   4.822 -0.3529 -0.0085 -1.7034
  150OSM      N16584   3.826   5.497   2.489 -0.3406  0.4273 -0.5309
  150OSM    C1516585   3.953   5.428   2.510 -0.0365 -0.2734 -0.5107
  150OSM   H15A16586   4.029   5.478   2.451 -0.2762  2.8522  1.5403
  150OSM   H15B16587   3.956   5.321   2.504  0.7078 -0.2288 -1.0657
  150OSM   H15C16588   3.990   5.447   2.610  1.4324 -2.1451 -0.6378
  150OSM    C1416589   3.830   5.641   2.530  0.9949 -0.1931 -0.3057
  150OSM   H14A16590   3.918   5.680   2.481  0.1047 -0.9663 -2.6155
  150OSM   H14B16591   3.846   5.637   2.637  0.2804 -0.5575 -0.2047
  150OSM   H14C16592   3.740   5.697   2.510 -0.2271 -2.3252 -1.0381
  150OSM    C1316593   3.808   5.486   2.341  0.5251  0.4054 -0.1884
  150OSM   H13A16594   3.830   5.383   2.318 -0.0793 -0.1528  1.5428
  150OSM   H13B16595   3.875   5.551   2.286  0.3303 -1.1118 -2.3293
  150OSM   H13C16596   3.706   5.514   2.321  0.4371  0.3375  0.1484
  150OSM    C1216597   3.723   5.408   2.558  0.3100 -0.0844 -0.0012
  150OSM   H12A16598   3.754   5.385   2.659 -0.6808 -0.3631  0.2525
  150OSM   H12B16599   3.718   5.312   2.509 -0.6380 -1.5092  2.6342
  150OSM    C1116600   3.577   5.454   2.563 -0.2396  0.6346 -0.8018
  150OSM   H11A16601   3.512   5.376   2.608 -2.0859  3.0521  1.0110
  150OSM   H11B16602   3.539   5.479   2.462 -0.3504 -1.9540 -1.4580
  150OSM      P16603   3.436   5.649   2.661  0.0484 -0.1036 -0.4751
  150OSM    O1316604   3.435   5.767   2.750 -0.0783 -0.2852  0.6605
  150OSM    O1416605   3.393   5.682   2.525  0.5648 -0.2100 -0.2193
  150OSM    O1116606   3.328   5.543   2.719  0.2161 -0.1010 -0.2847
  150OSM    O1216607   3.567   5.569   2.645  0.1408  0.2125  0.1628
  150OSM    C1S16608   3.359   5.492   2.850  0.6283 -0.5110 -0.4884
  150OSM    H1S16609   3.464   5.498   2.885  0.7906 -2.2095 -0.6055
  150OSM    H1T16610   3.339   5.384   2.833 -0.7551 -0.3535 -0.0298
  150OSM     NF16611   3.301   5.468   3.086 -0.0012  0.0749 -0.7345
  150OSM    HNF16612   3.240   5.389   3.086  1.3302 -0.9874 -0.2163
  150OSM    C2S16613   3.282   5.558   2.974 -0.0739  0.4107 -0.6074
  150OSM    H2S16614   3.333   5.654   2.998  0.6746 -0.1086 -0.0800
  150OSM    C3S16615   3.128   5.571   2.944  0.4192  0.1584 -1.0333
  150OSM    H3S16616   3.099   5.468   2.916 -3.8162  0.5927  1.0274
  150OSM     O316617   3.107   5.674   2.847  0.3021 -1.2852 -0.0474
  150OSM    HO316618   3.199   5.683   2.820  0.2981 -2.0178 -0.3334
  150OSM    C4S16619   3.052   5.617   3.063  0.3218 -0.0421  0.9394
  150OSM    H4S16620   3.083   5.714   3.104 -1.3309  1.8525 -1.9261
  150OSM    C5S16621   2.938   5.560   3.106 -0.0589  0.9265  0.8589
  150OSM    H5S16622   2.904   5.465   3.062 -0.7603  1.3440  0.4901
  150OSM    C6S16623   2.862   5.605   3.227 -0.1474 -0.8450 -0.1745
  150OSM    H6S16624   2.753   5.609   3.212  0.0556 -0.7230 -1.7941
  150OSM    H6T16625   2.885   5.713   3.240 -1.2812 -0.7414  1.2795
  150OSM    C7S16626   2.918   5.509   3.336 -0.0191 -0.5837  0.4223
  150OSM    H7S16627   3.028   5.497   3.332  0.3134  2.1612 -0.5356
  150OSM    H7T16628   2.878   5.406   3.319  0.6898 -1.2433  2.4408
  150OSM    C8S16629   2.879   5.544   3.480 -0.4287 -0.7030  0.5842
  150OSM    H8S16630   2.769   5.562   3.486 -0.5780 -1.1806 -0.4810
  150OSM    H8T16631   2.925   5.643   3.503  1.7097 -1.5101  0.0409
  150OSM    C9S16632   2.901   5.428   3.577 -0.0794  0.0771 -0.0249
  150OSM    H9S16633   2.986   5.360   3.551 -0.6620 -0.3600 -0.8697
  150OSM    H9T16634   2.811   5.363   3.575  0.7788 -1.3027 -3.9546
  150OSM   C10S16635   2.916   5.479   3.723  0.0131 -0.3951 -0.0197
  150OSM   H10S16636   2.829   5.542   3.751  0.3529  0.7794 -1.4697
  150OSM   H10T16637   3.004   5.545   3.737  1.6522 -2.7043  1.3446
  150OSM   C11S16638   2.941   5.364   3.818  0.4905  0.3824 -0.7114
  150OSM   H11S16639   3.008   5.283   3.783  2.0685  1.3447 -0.0391
  150OSM   H11T16640   2.842   5.314   3.819  0.8536 -0.4114  1.5423
  150OSM   C12S16641   2.985   5.404   3.958  0.4830  0.1802 -0.3959
  150OSM   H12S16642   2.921   5.483   4.001 -1.2624 -1.2584 -0.2495
  150OSM   H12T16643   3.092   5.433   3.947  0.5281 -0.3740 -1.5745
  150OSM   C13S16644   2.989   5.286   4.055  0.8949 -0.3227 -0.7672
  150OSM   H13S16645   3.072   5.215   4.037  2.4921  0.3075  3.1344
  150OSM   H13T16646   2.889   5.237   4.058 -0.0440  1.4800 -1.3126
  150OSM   C14S16647   3.012   5.340   4.196  0.5911 -0.7207 -0.3866
  150OSM   H14S16648   2.927   5.406   4.223  1.7557  0.9246 -0.5933
  150OSM   H14T16649   3.103   5.404   4.197  1.7142 -2.2766 -0.6693
  150OSM   C15S16650   3.019   5.223   4.292 -0.2251  0.2411 -0.8209
  150OSM   H15S16651   3.112   5.169   4.265 -0.4117 -0.6249  0.1607
  150OSM   H15T16652   2.932   5.154   4.287 -0.0435 -0.1171  0.5639
  150OSM   C16S16653   3.027   5.289   4.424 -0.3583  0.4274 -0.9561
  150OSM   H16S16654   2.932   5.341   4.450 -0.3189 -0.5179  1.3449
  150OSM   H16T16655   3.105   5.367   4.432  0.3151 -0.2122 -1.1949
  150OSM   C17S16656   3.046   5.184   4.539 -0.0754  0.1647  0.1776
  150OSM   H17S16657   3.140   5.130   4.514  0.3668  1.2203 -0.5213
  150OSM   H17T16658   2.958   5.117   4.543 -0.2351  0.3431 -0.2720
  150OSM   C18S16659   3.041   5.246   4.683  0.5548  0.0987 -0.9421
  150OSM   H18S16660   3.112   5.332   4.683  0.0887  0.5104 -2.2558
  150OSM   H18T16661   3.069   5.169   4.758  1.3867 -0.6079 -1.9505
  150OSM   H18U16662   2.940   5.286   4.706  0.4998 -0.3116 -0.4568
  150OSM    C1F16663   3.407   5.461   3.169  0.3082 -0.1657  0.0593
  150OSM     OF16664   3.509   5.535   3.156  0.6674  0.0647 -0.6953
  150OSM    C2F16665   3.405   5.360   3.280 -0.3037 -0.2113  0.1709
  150OSM    H2F16666   3.489   5.292   3.253  0.8234  1.1665  0.0637
  150OSM    H2G16667   3.314   5.297   3.281 -0.3901 -0.0846  0.1951
  150OSM    C3F16668   3.428   5.414   3.424  1.1027  0.3907  0.4204
  150OSM    H3F16669   3.525   5.465   3.441  1.3534 -1.3094  5.6542
  150OSM    H3G16670   3.434   5.314   3.473  1.5541 -0.0923 -0.5929
  150OSM    C4F16671   3.300   5.485   3.473 -0.8903  0.4866 -0.7468
  150OSM    H4F16672   3.218   5.486   3.398  0.2131 -2.4616 -2.1455
  150OSM    H4G16673   3.334   5.590   3.487  1.2032 -0.2793  0.3346
  150OSM    C5F16674   3.267   5.448   3.616  0.4866  0.0325 -0.1697
  150OSM    H5F16675   3.225   5.345   3.625 -2.6649  1.2270  0.0706
  150OSM    H5G16676   3.186   5.516   3.651  0.8343 -0.1632  1.0661
  150OSM    C6F16677   3.391   5.453   3.712  1.0008  0.1878 -0.0193
  150OSM    H6F16678   3.473   5.518   3.674  1.4028 -1.8727 -3.0371
  150OSM    H6G16679   3.439   5.353   3.705 -0.0152 -0.5183  2.1639
  150OSM    C7F16680   3.364   5.473   3.869 -0.1422 -0.3429  0.8714
  150OSM    H7F16681   3.288   5.404   3.909  1.1042 -2.0837  0.3911
  150OSM    H7G16682   3.326   5.577   3.872 -0.4830 -0.2942 -2.1225
  150OSM    C8F16683   3.487   5.464   3.960 -1.0061  0.7797  0.5031
  150OSM    H8F16684   3.572   5.526   3.925 -2.1999  3.8764  2.6777
  150OSM    H8G16685   3.524   5.359   3.967  0.7931  1.3692  0.4515
  150OSM    C9F16686   3.446   5.518   4.097 -0.0846 -0.0240 -0.1573
  150OSM    H9F16687   3.453   5.626   4.116  1.0655  0.2311 -1.8097
  150OSM   C10F16688   3.424   5.442   4.203 -0.6090 -0.1016 -0.3972
  150OSM   H10F16689   3.407   5.487   4.302  0.5229 -1.5665  0.4833
  150OSM   C11F16690   3.428   5.292   4.199 -0.0312 -0.6422  1.0247
  150OSM   H11F16691   3.513   5.259   4.136 -0.3660  2.4519 -1.3217
  150OSM   H11G16692   3.345   5.255   4.134  3.0076 -1.1457 -2.9702
  150OSM   C12F16693   3.416   5.221   4.335  0.0732 -0.2383  0.1790
  150OSM   H12F16694   3.416   5.111   4.319 -0.3191 -0.0169 -1.5169
  150OSM   H12G16695   3.335   5.262   4.400  2.4591  1.6099  2.1728
  150OSM   C13F16696   3.549   5.241   4.417  0.1373 -0.0508 -0.4426
  150OSM   H13F16697   3.572   5.349   4.430  0.5893 -0.1769 -0.1761
  150OSM   H13G16698   3.632   5.209   4.351  1.4707  2.0369  0.1299
  150OSM   C14F16699   3.564   5.157   4.550 -0.2484 -0.0257 -0.3701
  150OSM   H14F16700   3.656   5.190   4.603 -0.7857 -0.3793  0.8219
  150OSM   H14G16701   3.589   5.055   4.513  3.9074  0.5055  0.4336
  150OSM   C15F16702   3.448   5.162   4.646  0.2782 -0.1161  0.6182
  150OSM   H15F16703   3.364   5.120   4.586  0.7387 -0.3756  0.1488
  150OSM   H15G16704   3.415   5.265   4.675 -0.2916 -0.2073  0.3188
  150OSM   C16F16705   3.468   5.059   4.755  0.1916 -0.5657 -0.5009
  150OSM   H16F16706   3.550   5.085   4.825  0.3538 -3.3459  0.4353
  150OSM   H16G16707   3.499   4.957   4.726 -0.3261 -0.6712 -0.7029
  150OSM   C17F16708   3.338   5.055   4.842  0.0118 -0.3579 -0.4039
  150OSM   H17F16709   3.262   5.054   4.760  0.1543 -0.1759 -0.5362
  150OSM   H17G16710   3.327   5.153   4.892  3.2586 -0.4668  0.7235
  150OSM   C18F16711   3.327   4.936   4.935 -0.5218  0.5088 -0.0136
  150OSM   H18F16712   3.408   4.944   5.010  0.4295  0.7800 -1.0420
  150OSM   H18G16713   3.345   4.846   4.871 -0.3344  1.6746 -1.6704
  150OSM   H18H16714   3.224   4.924   4.974 -0.5422 -0.6773 -0.3757
  151OSM      N16715   3.209   4.881   2.262 -0.0496 -0.1794  0.6637
  151OSM    C1516716   3.274   4.871   2.126 -0.7458 -0.7777  0.4463
  151OSM   H15A16717   3.295   4.769   2.097 -0.8221 -1.2904  2.1043
  151OSM   H15B16718   3.372   4.915   2.134 -0.7674 -0.4678 -0.7256
  151OSM   H15C16719   3.214   4.931   2.058  0.2946  0.6532  0.7362
  151OSM    C1416720   3.088   4.792   2.272 -0.8295  0.0219  0.5865
  151OSM   H14A16721   3.055   4.775   2.373 -0.9110 -3.1921  0.1420
  151OSM   H14B16722   3.102   4.691   2.235 -0.5126  0.9531 -2.0568
  151OSM   H14C16723   3.001   4.830   2.220 -1.2907 -0.0328  1.3044
  151OSM    C1316724   3.312   4.834   2.360  0.2944 -0.6619  0.2355
  151OSM   H13A16725   3.398   4.897   2.370  1.1554 -1.8064  0.2741
  151OSM   H13B16726   3.339   4.731   2.340 -1.7213 -0.9879 -1.1541
  151OSM   H13C16727   3.266   4.834   2.457  2.5690 -0.8985  1.3681
  151OSM    C1216728   3.175   5.025   2.284  0.2851  0.4365 -0.0134
  151OSM   H12A16729   3.106   5.062   2.209  1.6734  0.9470 -1.0677
  151OSM   H12B16730   3.267   5.081   2.280  0.8240 -0.4646 -0.4127
  151OSM    C1116731   3.101   5.065   2.416 -0.3395  0.3436  0.5666
  151OSM   H11A16732   3.005   5.015   2.440  0.7260 -1.9216  0.3721
  151OSM   H11B16733   3.068   5.171   2.413 -1.0700  0.2525  3.0558
  151OSM      P16734   3.257   5.156   2.606 -0.2286 -0.3244  0.2349
  151OSM    O1316735   3.370   5.102   2.686 -0.3014 -0.1940  0.8597
  151OSM    O1416736   3.289   5.272   2.519 -0.2283 -0.2533 -0.4010
  151OSM    O1116737   3.146   5.199   2.709 -0.4805  0.6823  0.0109
  151OSM    O1216738   3.187   5.037   2.525 -0.4042  0.4635 -0.2834
  151OSM    C1S16739   3.099   5.103   2.806  0.8397 -0.5595 -0.5236
  151OSM    H1S16740   3.185   5.056   2.858 -1.1839 -0.8216  2.9223
  151OSM    H1T16741   3.040   5.022   2.758  1.3535 -1.3863  0.2073
  151OSM     NF16742   2.984   5.117   3.031  0.4034  0.0475 -0.7224
  151OSM    HNF16743   2.901   5.063   3.050  1.3637 -0.9780  0.8076
  151OSM    C2S16744   3.000   5.178   2.908  0.3159 -0.0303 -0.2965
  151OSM    H2S16745   3.039   5.282   2.904 -0.2568  0.1994  0.0549
  151OSM    C3S16746   2.872   5.191   2.821 -0.7328 -0.0965  0.2541
  151OSM    H3S16747   2.838   5.086   2.808  0.2744 -0.3525 -0.3840
  151OSM     O316748   2.891   5.234   2.687  0.6349  0.9125 -0.2658
  151OSM    HO316749   2.986   5.221   2.682  0.6179  0.7555 -0.1706
  151OSM    C4S16750   2.756   5.263   2.890  0.5583  0.2268 -0.2809
  151OSM    H4S16751   2.684   5.191   2.932 -0.2006  1.5340  0.7135
  151OSM    C5S16752   2.722   5.391   2.892  0.4733 -0.0871  0.3245
  151OSM    H5S16753   2.785   5.459   2.833  0.4401 -1.0503 -0.8631
  151OSM    C6S16754   2.594   5.444   2.953 -0.3568 -0.1195  0.2124
  151OSM    H6S16755   2.532   5.489   2.873  0.9062  0.4349 -0.4962
  151OSM    H6T16756   2.608   5.534   3.016  0.3114 -1.3601  1.9250
  151OSM    C7S16757   2.510   5.346   3.037 -0.4316  0.1116 -0.3862
  151OSM    H7S16758   2.487   5.256   2.976 -0.7324 -0.0542 -0.0295
  151OSM    H7T16759   2.418   5.399   3.070 -0.1040  2.7950 -3.3107
  151OSM    C8S16760   2.590   5.303   3.171  0.8883  0.3296  0.2078
  151OSM    H8S16761   2.617   5.393   3.229  2.3870 -0.6487  1.1176
  151OSM    H8T16762   2.683   5.247   3.145  0.4135 -1.3633  1.9009
  151OSM    C9S16763   2.510   5.201   3.254 -0.4221 -0.1162  0.3746
  151OSM    H9S16764   2.518   5.118   3.180  1.9200 -1.1318  1.6558
  151OSM    H9T16765   2.402   5.227   3.256 -0.5703 -0.4498 -1.3198
  151OSM   C10S16766   2.578   5.158   3.389 -0.3794 -0.5522  1.0516
  151OSM   H10S16767   2.686   5.149   3.366 -0.4305  1.2834 -0.0735
  151OSM   H10T16768   2.541   5.055   3.409 -0.4784 -1.2039 -2.0283
  151OSM   C11S16769   2.552   5.245   3.510 -0.4940  0.2874 -0.1893
  151OSM   H11S16770   2.444   5.271   3.517 -0.4042  0.5041  0.4666
  151OSM   H11T16771   2.595   5.346   3.490  0.5589 -0.3620 -1.3761
  151OSM   C12S16772   2.616   5.187   3.641 -0.3601  0.8694 -0.1135
  151OSM   H12S16773   2.636   5.278   3.703 -0.4287 -0.0633  1.3380
  151OSM   H12T16774   2.712   5.134   3.624 -0.3440  1.3946 -1.7841
  151OSM   C13S16775   2.518   5.099   3.720  0.1050  0.6884  0.2247
  151OSM   H13S16776   2.486   5.027   3.642  1.6913  0.8859 -0.6726
  151OSM   H13T16777   2.430   5.153   3.760 -1.4039 -0.3023 -1.6328
  151OSM   C14S16778   2.595   5.010   3.825  0.3768  0.2180  0.4343
  151OSM   H14S16779   2.689   4.956   3.798  0.0137  0.0617 -0.5478
  151OSM   H14T16780   2.519   4.932   3.845  1.1065 -0.1177  2.0369
  151OSM   C15S16781   2.619   5.089   3.952  0.0437  0.6044  0.7845
  151OSM   H15S16782   2.528   5.138   3.993  0.3250  0.0139  2.1792
  151OSM   H15T16783   2.688   5.170   3.921  2.7958 -1.5259  1.0450
  151OSM   C16S16784   2.665   5.004   4.073 -0.7459  0.0434  0.2905
  151OSM   H16S16785   2.774   4.988   4.057 -0.6833  1.6133 -1.1658
  151OSM   H16T16786   2.611   4.907   4.065 -0.7291  0.0821 -0.3690
  151OSM   C17S16787   2.660   5.075   4.213 -0.7730 -0.8153  0.7025
  151OSM   H17S16788   2.558   5.115   4.232 -0.9826  0.0521 -1.8444
  151OSM   H17T16789   2.732   5.160   4.209 -0.4390 -1.1142  0.1913
  151OSM   C18S16790   2.696   4.993   4.336 -0.9735 -0.7269  0.3051
  151OSM   H18S16791   2.686   5.050   4.431 -1.8932 -1.6588  0.7889
  151OSM   H18T16792   2.799   4.952   4.334  0.2347  2.0003 -3.3645
  151OSM   H18U16793   2.639   4.897   4.331  0.3665 -1.5051 -0.5354
  151OSM    C1F16794   3.075   5.124   3.129 -0.7414 -0.4728  0.4376
  151OSM     OF16795   3.185   5.177   3.118  0.4795 -0.6381 -0.4435
  151OSM    C2F16796   3.028   5.058   3.267  0.1004  0.1289  0.0721
  151OSM    H2F16797   3.039   4.948   3.257 -0.2208  0.0767  0.2640
  151OSM    H2G16798   2.919   5.078   3.279  0.5361  1.8597  1.5151
  151OSM    C3F16799   3.114   5.124   3.380 -0.2235 -0.1198 -0.3328
  151OSM    H3F16800   3.106   5.234   3.365  0.0881 -0.0072  0.3283
  151OSM    H3G16801   3.213   5.076   3.367 -0.1933  0.1028 -0.9541
  151OSM    C4F16802   3.049   5.098   3.516 -0.0035 -0.0111 -0.3154
  151OSM    H4F16803   2.939   5.089   3.500 -0.2333  1.6698  0.1283
  151OSM    H4G16804   3.067   5.175   3.594 -2.3875 -2.1228  2.5327
  151OSM    C5F16805   3.098   4.968   3.576 -0.7931  0.2959 -1.3759
  151OSM    H5F16806   3.203   4.988   3.605 -0.6186 -0.6754 -1.3120
  151OSM    H5G16807   3.083   4.879   3.512 -1.3611 -2.5896  2.4136
  151OSM    C6F16808   3.012   4.921   3.697  0.8624 -0.1669 -0.3517
  151OSM    H6F16809   2.908   4.915   3.656  0.3263 -0.5437  0.9962
  151OSM    H6G16810   3.015   5.004   3.771  0.5988  2.3317 -2.9824
  151OSM    C7F16811   3.063   4.790   3.749  0.5036  0.0577 -0.4488
  151OSM    H7F16812   3.165   4.816   3.783  0.5970  1.4247 -1.6521
  151OSM    H7G16813   3.068   4.715   3.666 -0.2075 -0.7810  0.2430
  151OSM    C8F16814   3.001   4.728   3.876  0.0663 -0.1496  0.7033
  151OSM    H8F16815   2.989   4.814   3.946 -0.7367 -0.2029  0.6383
  151OSM    H8G16816   3.077   4.666   3.927  1.3867  1.9411  1.4304
  151OSM    C9F16817   2.866   4.671   3.836  0.0684  0.8861  0.2428
  151OSM    H9F16818   2.808   4.731   3.764 -2.7637 -0.7374  0.9856
  151OSM   C10F16819   2.798   4.589   3.913  0.1451  0.3082  1.0256
  151OSM   H10F16820   2.696   4.569   3.876  0.0482  1.9098  0.3532
  151OSM   C11F16821   2.849   4.509   4.026  0.0334 -0.6454  0.6563
  151OSM   H11F16822   2.959   4.527   4.034 -0.0327  0.2869 -0.3669
  151OSM   H11G16823   2.831   4.400   4.016 -0.0547 -0.4674 -1.5337
  151OSM   C12F16824   2.794   4.547   4.162 -0.2891 -0.3611 -0.5113
  151OSM   H12F16825   2.764   4.654   4.164 -1.7914 -0.6220 -3.4580
  151OSM   H12G16826   2.875   4.529   4.235 -0.5515 -2.3641 -0.6522
  151OSM   C13F16827   2.659   4.473   4.204 -0.0761  0.1798  0.2710
  151OSM   H13F16828   2.683   4.371   4.241  1.1578  0.6134  0.7574
  151OSM   H13G16829   2.593   4.472   4.116 -0.8016  0.4298  0.8034
  151OSM   C14F16830   2.599   4.543   4.330 -0.0412 -0.0162  0.0565
  151OSM   H14F16831   2.506   4.486   4.351 -0.0476 -0.7460 -1.7943
  151OSM   H14G16832   2.582   4.650   4.304  3.8332  0.3767 -1.6404
  151OSM   C15F16833   2.691   4.525   4.452 -0.7991 -0.0984 -0.0704
  151OSM   H15F16834   2.793   4.561   4.426 -1.0733  0.1743 -0.7873
  151OSM   H15G16835   2.705   4.416   4.472  0.4561  0.0365 -0.1478
  151OSM   C16F16836   2.644   4.593   4.582 -0.3920 -0.0840  0.7018
  151OSM   H16F16837   2.630   4.702   4.567  3.5218  1.1003  3.8544
  151OSM   H16G16838   2.720   4.581   4.662 -2.7934 -2.7629  2.8171
  151OSM   C17F16839   2.520   4.536   4.636 -0.6259  0.6093 -0.0561
  151OSM   H17F16840   2.542   4.439   4.684 -0.7232  0.8436  0.4636
  151OSM   H17G16841   2.444   4.530   4.555  0.3724  0.6764 -1.0310
  151OSM   C18F16842   2.457   4.628   4.746  0.2321  0.4435 -0.3269
  151OSM   H18F16843   2.521   4.631   4.837 -0.2261  0.6329 -0.0045
  151OSM   H18G16844   2.357   4.588   4.770  0.2666  1.4364  1.6793
  151OSM   H18H16845   2.454   4.722   4.686  0.4390  0.4998 -0.2516
  152OSM      N16846   5.320   6.477   2.393  0.1296  0.9189 -0.2532
  152OSM    C1516847   5.265   6.541   2.273 -0.4894 -0.0047  0.8245
  152OSM   H15A16848   5.207   6.470   2.217  0.9781 -1.5751  1.2127
  152OSM   H15B16849   5.350   6.572   2.214 -2.0712 -0.3150 -1.7702
  152OSM   H15C16850   5.214   6.635   2.289 -1.2096 -0.1819 -0.3636
  152OSM    C1416851   5.426   6.381   2.358 -0.2887 -0.3647  0.1760
  152OSM   H14A16852   5.460   6.331   2.447 -2.5749  0.4198  1.5927
  152OSM   H14B16853   5.504   6.422   2.295 -0.6792  2.5340  1.3754
  152OSM   H14C16854   5.389   6.307   2.289 -0.1532  1.4582 -1.9572
  152OSM    C1316855   5.387   6.585   2.479 -0.7709  0.7873 -0.3916
  152OSM   H13A16856   5.487   6.606   2.446 -0.2051 -0.3161  0.5493
  152OSM   H13B16857   5.399   6.557   2.582  0.3444  3.8387  0.4117
  152OSM   H13C16858   5.326   6.674   2.472 -0.4851  1.0386  0.2531
  152OSM    C1216859   5.216   6.390   2.468  0.2790  0.8212 -0.6848
  152OSM   H12A16860   5.171   6.322   2.397  1.1167 -0.8157  0.2822
  152OSM   H12B16861   5.129   6.451   2.487  0.3429  0.6270  0.3251
  152OSM    C1116862   5.257   6.309   2.598  0.3005  0.5129  0.5878
  152OSM   H11A16863   5.165   6.298   2.660 -0.1420  0.1626 -0.1138
  152OSM   H11B16864   5.325   6.373   2.657  2.3531 -1.8576  0.9202
  152OSM      P16865   5.420   6.098   2.632  0.1239  0.2531 -0.4420
  152OSM    O1316866   5.397   5.951   2.606  0.0470  0.2454  0.0996
  152OSM    O1416867   5.549   6.152   2.587 -0.5759  0.3625 -0.1305
  152OSM    O1116868   5.397   6.133   2.787 -0.2709  0.1481 -0.2343
  152OSM    O1216869   5.305   6.176   2.561 -0.2955  0.1470  0.5972
  152OSM    C1S16870   5.277   6.088   2.856 -0.8001  0.3140 -0.0039
  152OSM    H1S16871   5.271   5.978   2.841  0.9231  0.4935 -2.7385
  152OSM    H1T16872   5.194   6.132   2.797  1.6112  0.8093 -3.3370
  152OSM     NF16873   5.150   6.103   3.073 -0.5582  0.0983 -0.4017
  152OSM    HNF16874   5.077   6.170   3.083  0.3089  0.8403  1.2643
  152OSM    C2S16875   5.267   6.150   2.999 -0.1104  0.1565  0.0981
  152OSM    H2S16876   5.351   6.108   3.058 -1.0431  2.3234  3.2213
  152OSM    C3S16877   5.292   6.303   2.983 -0.4275  0.0627 -0.4238
  152OSM    H3S16878   5.216   6.348   2.915  1.4721  2.2211 -1.2454
  152OSM     O316879   5.424   6.339   2.942 -0.2558  0.1334 -0.1881
  152OSM    HO316880   5.447   6.263   2.889  2.1788 -0.0040  0.9593
  152OSM    C4S16881   5.278   6.386   3.113  0.0339  0.5843  0.5930
  152OSM    H4S16882   5.206   6.467   3.097  0.1076  0.4862 -0.2745
  152OSM    C5S16883   5.337   6.371   3.232  0.3937  0.5672  0.2871
  152OSM    H5S16884   5.407   6.289   3.252  0.2652  0.5189  0.5460
  152OSM    C6S16885   5.320   6.465   3.340  0.1213 -0.1923  0.7697
  152OSM    H6S16886   5.271   6.414   3.425 -2.4104 -0.6948 -0.8721
  152OSM    H6T16887   5.253   6.544   3.301  1.3920  0.8253  0.5774
  152OSM    C7S16888   5.443   6.534   3.396 -0.2921 -0.2775  0.4345
  152OSM    H7S16889   5.478   6.602   3.316 -0.5655  0.2848  0.7886
  152OSM    H7T16890   5.534   6.478   3.427  1.4512  1.8024 -0.6229
  152OSM    C8S16891   5.405   6.604   3.519 -0.2492 -0.1574 -0.7689
  152OSM    H8S16892   5.317   6.671   3.507  0.5910  0.9185 -1.2030
  152OSM    H8T16893   5.490   6.673   3.543 -1.4745  1.3901 -0.6980
  152OSM    C9S16894   5.377   6.506   3.642 -0.5603  0.8325  0.0389
  152OSM    H9S16895   5.443   6.418   3.629 -1.1270  0.5759 -1.2937
  152OSM    H9T16896   5.275   6.463   3.642 -0.8716  1.5078  1.4988
  152OSM   C10S16897   5.416   6.576   3.772  0.1429 -0.0551  0.1468
  152OSM   H10S16898   5.370   6.677   3.760  0.9955  0.5979  1.9941
  152OSM   H10T16899   5.525   6.590   3.785 -0.1213  0.9694  1.4126
  152OSM   C11S16900   5.362   6.512   3.893  0.4477  0.6390 -1.1591
  152OSM   H11S16901   5.412   6.414   3.910 -2.2136 -0.8815 -1.5152
  152OSM   H11T16902   5.255   6.490   3.871 -0.2453  0.7935  1.6704
  152OSM   C12S16903   5.388   6.595   4.019 -0.0201  0.4309 -0.5591
  152OSM   H12S16904   5.331   6.690   4.009  0.3713  1.0597  2.2972
  152OSM   H12T16905   5.496   6.620   4.013 -0.1081  1.4384  1.4641
  152OSM   C13S16906   5.360   6.533   4.155  0.3251 -0.7502  0.1117
  152OSM   H13S16907   5.413   6.438   4.179  1.6046  0.5939  2.9368
  152OSM   H13T16908   5.250   6.514   4.159  0.2074  0.1316  2.1915
  152OSM   C14S16909   5.403   6.630   4.265  0.4465  0.4077  0.3732
  152OSM   H14S16910   5.349   6.725   4.244  0.1408  0.6835  2.2143
  152OSM   H14T16911   5.511   6.651   4.251  0.2446  1.9238  0.8655
  152OSM   C15S16912   5.372   6.565   4.401 -0.2168 -0.7285  0.2866
  152OSM   H15S16913   5.418   6.464   4.413  0.4611 -0.2104  2.4956
  152OSM   H15T16914   5.265   6.535   4.399  0.4172 -3.1993  0.2788
  152OSM   C16S16915   5.405   6.653   4.516 -0.4750  0.5220 -0.1302
  152OSM   H16S16916   5.364   6.756   4.505 -1.1464  0.5310  2.0332
  152OSM   H16T16917   5.515   6.659   4.504 -0.2488 -0.3639  1.3660
  152OSM   C17S16918   5.377   6.593   4.662  1.0632  0.3988 -0.0724
  152OSM   H17S16919   5.267   6.591   4.675  0.9287  1.4170 -0.9122
  152OSM   H17T16920   5.414   6.670   4.733  0.9815  0.0481  0.3562
  152OSM   C18S16921   5.440   6.461   4.693  0.0491 -0.4639 -0.0828
  152OSM   H18S16922   5.427   6.432   4.799  1.8376  1.2103  0.6497
  152OSM   H18T16923   5.550   6.476   4.685  0.0475 -0.6135 -0.4397
  152OSM   H18U16924   5.405   6.382   4.623  1.0176 -1.7248  0.8150
  152OSM    C1F16925   5.139   5.971   3.109  0.5083 -0.4934  0.2114
  152OSM     OF16926   5.232   5.892   3.087 -0.2502 -0.4178 -0.0980
  152OSM    C2F16927   5.006   5.923   3.170 -0.3833  0.1270  0.8555
  152OSM    H2F16928   4.991   5.830   3.111  0.3337  0.2874  0.4028
  152OSM    H2G16929   4.929   6.000   3.146 -1.2658 -1.4590 -1.8638
  152OSM    C3F16930   5.023   5.897   3.321  0.0873  0.1285  0.8646
  152OSM    H3F16931   5.110   5.830   3.340 -0.2265 -0.9762 -1.3457
  152OSM    H3G16932   4.940   5.828   3.349  1.6303 -1.6278  1.3455
  152OSM    C4F16933   5.028   6.012   3.422 -0.2286  0.5470  0.4603
  152OSM    H4F16934   4.936   6.074   3.414 -0.5779  0.0718  0.7592
  152OSM    H4G16935   5.114   6.078   3.397  0.1394 -0.2670 -0.4764
  152OSM    C5F16936   5.035   5.956   3.566 -0.1269  0.7166 -0.2062
  152OSM    H5F16937   5.110   5.874   3.571 -0.2933  0.6053  0.5579
  152OSM    H5G16938   4.935   5.923   3.599 -0.5783  1.9478 -0.3039
  152OSM    C6F16939   5.069   6.075   3.664 -0.1158 -0.2503 -0.1595
  152OSM    H6F16940   5.023   6.164   3.614 -0.3371 -1.6209 -2.5579
  152OSM    H6G16941   5.179   6.086   3.663  0.2023 -2.8902  0.5272
  152OSM    C7F16942   5.018   6.072   3.810  1.1227  0.0304 -0.3543
  152OSM    H7F16943   4.928   6.008   3.810  0.1387  1.3608 -1.6007
  152OSM    H7G16944   4.987   6.175   3.839 -1.1232 -0.4953 -0.7382
  152OSM    C8F16945   5.121   6.013   3.914  0.0636  0.1825  0.3724
  152OSM    H8F16946   5.162   5.915   3.880 -0.3610  0.0369  0.2695
  152OSM    H8G16947   5.061   5.984   4.003 -1.3102  0.8602 -0.3094
  152OSM    C9F16948   5.250   6.087   3.961  0.6356 -0.3530 -0.3594
  152OSM    H9F16949   5.337   6.092   3.894  1.8854  1.0787  1.2721
  152OSM   C10F16950   5.243   6.170   4.064 -0.1143 -0.1815 -1.0711
  152OSM   H10F16951   5.338   6.222   4.088  0.8267 -2.1077 -0.4302
  152OSM   C11F16952   5.133   6.200   4.162 -0.1099  0.5233 -0.5627
  152OSM   H11F16953   5.033   6.170   4.124  0.7139  0.5922 -2.9591
  152OSM   H11G16954   5.117   6.309   4.177 -0.7701  0.3860 -0.2131
  152OSM   C12F16955   5.147   6.121   4.294  0.1898 -0.1005  0.9296
  152OSM   H12F16956   5.255   6.123   4.322  0.6629  2.5181 -0.7630
  152OSM   H12G16957   5.112   6.016   4.285  0.0207 -0.0304  0.7539
  152OSM   C13F16958   5.078   6.194   4.412 -0.5212 -0.0334 -0.4016
  152OSM   H13F16959   4.967   6.201   4.402 -0.4167  2.0942 -0.5397
  152OSM   H13G16960   5.124   6.295   4.418 -0.2686 -0.2060  3.4511
  152OSM   C14F16961   5.113   6.135   4.548 -0.0646 -0.0850  0.2204
  152OSM   H14F16962   5.218   6.102   4.543  0.0968  0.5898 -2.4534
  152OSM   H14G16963   5.051   6.044   4.561  1.2982 -1.0698  0.0157
  152OSM   C15F16964   5.094   6.217   4.674  0.3865  0.0270 -0.2963
  152OSM   H15F16965   4.986   6.244   4.677  0.7462  1.4941  0.1355
  152OSM   H15G16966   5.159   6.307   4.679  1.5446 -0.6665 -2.0096
  152OSM   C16F16967   5.131   6.147   4.803 -0.6421 -0.6846 -0.4442
  152OSM   H16F16968   5.238   6.116   4.799 -0.4030  0.1495 -0.6440
  152OSM   H16G16969   5.070   6.055   4.814  0.5710 -1.3176  1.5596
  152OSM   C17F16970   5.111   6.235   4.928  0.3565  0.4242  0.5626
  152OSM   H17F16971   5.009   6.279   4.926  0.3911  0.4893  0.2410
  152OSM   H17G16972   5.188   6.315   4.926 -1.3680  2.1495 -1.3520
  152OSM   C18F16973   5.135   6.151   5.062  0.4619  0.1605  0.1599
  152OSM   H18F16974   5.232   6.097   5.054  1.0186  1.2091 -0.2913
  152OSM   H18G16975   5.055   6.074   5.067 -0.5917  1.2753  1.1657
  152OSM   H18H16976   5.137   6.208   5.157 -2.3868 -0.9027  0.9517
  153OSM      N16977   4.441   0.189   2.576 -0.1748 -0.3812 -1.0737
  153OSM    C1516978   4.532   0.261   2.676  0.2224  0.1750  0.0767
  153OSM   H15A16979   4.588   0.192   2.739  0.8951  3.7757  3.9141
  153OSM   H15B16980   4.472   0.320   2.744  0.2449 -0.3612  0.5723
  153OSM   H15C16981   4.606   0.314   2.619  0.5572 -0.7918 -0.4114
  153OSM    C1416982   4.346   0.292   2.517 -0.4499  0.7066 -0.1036
  153OSM   H14A16983   4.401   0.352   2.446 -0.9294  3.1649  1.4701
  153OSM   H14B16984   4.310   0.364   2.589 -0.6095  1.6166 -1.0618
  153OSM   H14C16985   4.278   0.230   2.461 -1.8648  0.0401  2.1925
  153OSM    C1316986   4.522   0.115   2.479 -0.1621  0.4576  0.6240
  153OSM   H13A16987   4.592   0.053   2.532 -0.8089  0.5885  1.6572
  153OSM   H13B16988   4.567   0.183   2.408  0.6444  0.4848  1.1532
  153OSM   H13C16989   4.465   0.049   2.414  0.4328  0.3341  0.2214
  153OSM    C1216990   4.347   0.092   2.662 -0.7706  0.2783  0.9151
  153OSM   H12A16991   4.271   0.060   2.592 -1.1114  0.4069  1.2274
  153OSM   H12B16992   4.293   0.144   2.740 -2.1939 -4.4813  3.4583
  153OSM    C1116993   4.412  -0.025   2.737  0.2122  0.3530  0.4450
  153OSM   H11A16994   4.330  -0.088   2.779 -1.2863  1.1490 -1.1300
  153OSM   H11B16995   4.469   0.023   2.819  1.2688  0.5078 -0.3601
  153OSM      P16996   4.649  -0.131   2.707 -0.0689 -0.2888  0.4663
  153OSM    O1316997   4.703  -0.249   2.637 -0.7547  0.3069 -0.0595
  153OSM    O1416998   4.730  -0.009   2.692  0.0996 -0.5339 -0.1501
  153OSM    O1116999   4.642  -0.151   2.859  0.2191 -0.5002 -0.1298
  153OSM    O1217000   4.497  -0.110   2.660 -0.1408  0.1555  0.0379
  153OSM    C1S17001   4.589  -0.274   2.915 -0.1649  0.2785 -0.0061
  153OSM    H1S17002   4.637  -0.371   2.890 -3.6517 -1.1900 -1.6724
  153OSM    H1T17003   4.486  -0.283   2.875  0.0060 -1.4245 -0.1430
  153OSM     NF17004   4.520  -0.377   3.131  0.6051  0.3652 -0.0504
  153OSM    HNF17005   4.429  -0.377   3.172  0.9042  0.6961  0.6365
  153OSM    C2S17006   4.578  -0.253   3.077  0.4432 -0.5841  0.9362
  153OSM    H2S17007   4.681  -0.244   3.115  1.4362  3.8682 -2.0316
  153OSM    C3S17008   4.496  -0.125   3.125  0.4038 -0.5855  0.4485
  153OSM    H3S17009   4.396  -0.120   3.076 -1.0879 -1.2680  3.2153
  153OSM     O317010   4.558   0.008   3.100  0.2396  0.5800 -0.5432
  153OSM    HO317011   4.619  -0.010   3.029 -1.2940  1.1147 -2.0678
  153OSM    C4S17012   4.469  -0.140   3.274  0.7354  0.4195  0.8409
  153OSM    H4S17013   4.361  -0.159   3.284  0.5848 -0.5317 -1.7539
  153OSM    C5S17014   4.545  -0.134   3.384 -0.2266 -0.3066 -0.3123
  153OSM    H5S17015   4.652  -0.108   3.376 -0.3446  0.7272  1.1387
  153OSM    C6S17016   4.496  -0.152   3.526 -0.0591  0.4270  0.4517
  153OSM    H6S17017   4.552  -0.231   3.581  1.1296 -0.7212 -2.2020
  153OSM    H6T17018   4.386  -0.164   3.535  0.2164 -1.8949  1.2174
  153OSM    C7S17019   4.521  -0.025   3.610  0.2440  0.4794  0.8949
  153OSM    H7S17020   4.481   0.063   3.555  1.4124 -0.0746 -0.9374
  153OSM    H7T17021   4.631  -0.007   3.610  0.2138  0.7194 -0.2873
  153OSM    C8S17022   4.452  -0.034   3.747  0.0879  0.5641  0.4712
  153OSM    H8S17023   4.477  -0.130   3.796  1.4138  0.8644  0.4029
  153OSM    H8T17024   4.341  -0.022   3.740 -0.4679 -0.9708  4.2392
  153OSM    C9S17025   4.511   0.074   3.837  0.5235  0.0323 -0.3387
  153OSM    H9S17026   4.474   0.171   3.799  0.6337  0.1124 -0.2424
  153OSM    H9T17027   4.621   0.079   3.818  0.3697  1.9243 -0.9748
  153OSM   C10S17028   4.467   0.056   3.978 -0.5557 -0.8683  0.0603
  153OSM   H10S17029   4.530  -0.025   4.021 -1.0635 -0.8459  0.8665
  153OSM   H10T17030   4.360   0.028   3.981 -1.0090  0.5174 -1.3856
  153OSM   C11S17031   4.482   0.192   4.056 -0.0976 -0.2636  0.4078
  153OSM   H11S17032   4.430   0.264   3.989 -0.8573 -1.8158 -0.7210
  153OSM   H11T17033   4.589   0.220   4.062 -0.1186  0.0877 -0.6118
  153OSM   C12S17034   4.410   0.202   4.190 -0.0974  0.2229 -0.7452
  153OSM   H12S17035   4.299   0.195   4.186 -0.1741 -0.7335  1.5008
  153OSM   H12T17036   4.432   0.305   4.223  1.5842 -0.7142  1.3512
  153OSM   C13S17037   4.476   0.119   4.299  0.3756  0.2134 -0.0579
  153OSM   H13S17038   4.587   0.122   4.299  0.4253 -1.0570 -0.5973
  153OSM   H13T17039   4.439   0.016   4.282 -2.5522  1.2732 -0.6886
  153OSM   C14S17040   4.436   0.162   4.446  0.4916 -0.6187  0.3108
  153OSM   H14S17041   4.327   0.141   4.455 -0.3039  3.3276  1.7768
  153OSM   H14T17042   4.447   0.272   4.452  0.7271 -0.6374  0.2473
  153OSM   C15S17043   4.500   0.096   4.569 -0.1751  0.2509  0.0501
  153OSM   H15S17044   4.608   0.081   4.547  0.4099  1.1253  2.0878
  153OSM   H15T17045   4.463  -0.004   4.599  0.6797  0.2017  0.9734
  153OSM   C16S17046   4.491   0.190   4.692  0.3433 -0.6620  0.5316
  153OSM   H16S17047   4.396   0.247   4.687  1.6162  1.6328  1.2253
  153OSM   H16T17048   4.568   0.269   4.698  0.4602 -0.8018  0.8896
  153OSM   C17S17049   4.482   0.117   4.821  0.1556  0.4253  0.6553
  153OSM   H17S17050   4.397   0.048   4.804 -1.3365  2.6209 -1.4702
  153OSM   H17T17051   4.448   0.182   4.905 -1.2498  1.1589 -0.4266
  153OSM   C18S17052   4.608   0.036   4.855  0.0447  0.2565 -0.1233
  153OSM   H18S17053   4.604  -0.072   4.830 -1.4276  0.2442  0.0858
  153OSM   H18T17054   4.609   0.042   4.966 -0.8780  1.3327 -0.1537
  153OSM   H18U17055   4.692   0.089   4.805 -1.1844  0.9761 -1.4933
  153OSM    C1F17056   4.590  -0.489   3.141  0.3522  0.6417 -0.0354
  153OSM     OF17057   4.712  -0.493   3.119 -0.0607  0.0539 -0.0105
  153OSM    C2F17058   4.517  -0.618   3.180 -0.2037 -0.2549  0.0061
  153OSM    H2F17059   4.544  -0.696   3.106 -0.9249 -2.3382  1.8122
  153OSM    H2G17060   4.409  -0.600   3.199  0.2075  1.2576  1.1346
  153OSM    C3F17061   4.579  -0.671   3.310  0.5423 -0.6273  0.2887
  153OSM    H3F17062   4.686  -0.695   3.295  1.0174  0.0927  2.2081
  153OSM    H3G17063   4.529  -0.767   3.335  1.6948 -1.4001 -0.2921
  153OSM    C4F17064   4.559  -0.575   3.433  0.3941  0.1837 -0.1178
  153OSM    H4F17065   4.449  -0.559   3.433  0.0238 -1.8774  1.9878
  153OSM    H4G17066   4.595  -0.472   3.413 -2.3436  1.7358  2.2771
  153OSM    C5F17067   4.598  -0.625   3.574  0.1033 -0.1349 -0.0547
  153OSM    H5F17068   4.708  -0.644   3.579  0.0196 -0.3728  2.1959
  153OSM    H5G17069   4.565  -0.730   3.590  0.7965 -0.1014  1.9212
  153OSM    C6F17070   4.543  -0.544   3.694  0.1054  0.0052  0.0119
  153OSM    H6F17071   4.433  -0.528   3.688 -0.4424 -2.3587  2.0889
  153OSM    H6G17072   4.587  -0.442   3.681 -1.9183  0.6614 -2.4638
  153OSM    C7F17073   4.573  -0.595   3.836 -0.3031  0.3761  0.2794
  153OSM    H7F17074   4.683  -0.603   3.846 -0.1839 -1.1972 -1.8394
  153OSM    H7G17075   4.537  -0.700   3.848  3.7170 -0.9449  2.8160
  153OSM    C8F17076   4.513  -0.504   3.944  0.2880 -0.2618  0.3427
  153OSM    H8F17077   4.404  -0.484   3.930  0.6423  3.2620  1.5925
  153OSM    H8G17078   4.561  -0.405   3.927 -0.4425  0.1071  0.3844
  153OSM    C9F17079   4.531  -0.554   4.088 -0.0081  0.5053  0.0564
  153OSM    H9F17080   4.464  -0.639   4.109  0.6847 -0.3792 -1.1330
  153OSM   C10F17081   4.610  -0.510   4.187 -0.6323  0.1666  0.5977
  153OSM   H10F17082   4.618  -0.554   4.287  0.9075  0.8892  0.8241
  153OSM   C11F17083   4.728  -0.404   4.176  0.0788 -0.4087 -0.0964
  153OSM   H11F17084   4.752  -0.380   4.071  0.9044  1.5310  0.4899
  153OSM   H11G17085   4.814  -0.455   4.224 -1.6419 -4.0518 -0.5860
  153OSM   C12F17086   4.672  -0.275   4.240 -0.0057 -0.0653  0.1634
  153OSM   H12F17087   4.580  -0.228   4.198 -1.3878 -1.8464  1.0179
  153OSM   H12G17088   4.751  -0.202   4.216  0.0075 -0.6825 -1.9398
  153OSM   C13F17089   4.657  -0.275   4.396 -0.0129  0.0669 -0.5290
  153OSM   H13F17090   4.712  -0.192   4.445 -0.5885 -1.0328  2.2021
  153OSM   H13G17091   4.716  -0.362   4.433 -0.9981  0.0641  1.1479
  153OSM   C14F17092   4.515  -0.275   4.449 -0.0197 -0.0006 -0.5474
  153OSM   H14F17093   4.457  -0.357   4.400  0.5499 -0.6763 -0.0993
  153OSM   H14G17094   4.465  -0.179   4.421  1.3933  1.4127  1.4843
  153OSM   C15F17095   4.508  -0.296   4.597 -0.2372  0.0002 -0.4995
  153OSM   H15F17096   4.405  -0.290   4.638  0.4405 -0.6846  1.4285
  153OSM   H15G17097   4.564  -0.215   4.648 -1.5263 -0.2508  1.4468
  153OSM   C16F17098   4.562  -0.429   4.646  0.0025 -0.5114 -0.0901
  153OSM   H16F17099   4.669  -0.449   4.621 -0.3049  0.2897 -2.2266
  153OSM   H16G17100   4.510  -0.507   4.586 -0.3746  1.2640 -2.2248
  153OSM   C17F17101   4.545  -0.443   4.800 -0.0720 -0.1523  0.2531
  153OSM   H17F17102   4.531  -0.552   4.809 -1.6840  0.0165 -0.0349
  153OSM   H17G17103   4.448  -0.394   4.822 -1.2550 -1.6624 -1.3348
  153OSM   C18F17104   4.655  -0.383   4.888 -0.2352 -0.0058 -0.5809
  153OSM   H18F17105   4.627  -0.364   4.994  0.7080  2.0372 -0.6386
  153OSM   H18G17106   4.695  -0.291   4.839  1.0288 -1.1901 -1.8835
  153OSM   H18H17107   4.737  -0.458   4.887 -1.2892 -1.2136  0.1568
  154OSM      N17108   1.809   4.573   2.197  0.1810 -0.1856  0.4316
  154OSM    C1517109   1.788   4.698   2.125 -0.2093 -0.0508 -0.0124
  154OSM   H15A17110   1.683   4.721   2.114 -1.0829 -3.4803 -0.0017
  154OSM   H15B17111   1.827   4.687   2.024  1.1148 -2.2205  0.6583
  154OSM   H15C17112   1.832   4.787   2.168 -1.1135  1.1826 -1.5081
  154OSM    C1417113   1.735   4.467   2.129  0.2216 -0.1387  0.0826
  154OSM   H14A17114   1.628   4.484   2.131  0.0416 -1.2789  1.2118
  154OSM   H14B17115   1.766   4.380   2.184 -0.4583  0.7989  2.0456
  154OSM   H14C17116   1.764   4.444   2.028 -1.4669 -0.6428 -0.3194
  154OSM    C1317117   1.953   4.547   2.188 -0.2094 -0.8060  0.2096
  154OSM   H13A17118   2.010   4.638   2.195  0.1379 -0.8368 -1.8759
  154OSM   H13B17119   1.975   4.490   2.099  0.8909 -1.1754  0.7015
  154OSM   H13C17120   1.990   4.485   2.269 -0.3496 -1.7049 -0.4098
  154OSM    C1217121   1.764   4.592   2.339  0.4302  0.3990  0.8865
  154OSM   H12A17122   1.657   4.608   2.332  0.4301  0.0975  0.1931
  154OSM   H12B17123   1.817   4.675   2.385 -0.7100 -0.1559  3.4066
  154OSM    C1117124   1.788   4.476   2.434  0.5928 -0.2085 -0.7659
  154OSM   H11A17125   1.747   4.377   2.405 -0.9916 -0.4431  1.9171
  154OSM   H11B17126   1.745   4.500   2.533  1.8454 -0.8348 -0.0507
  154OSM      P17127   1.996   4.336   2.509  0.4319 -0.3197 -0.3259
  154OSM    O1317128   1.925   4.219   2.449 -0.4000 -0.3262 -0.0039
  154OSM    O1417129   2.138   4.369   2.477  0.4216  0.3094  0.4306
  154OSM    O1117130   1.985   4.324   2.667  0.2648 -0.0641 -0.3730
  154OSM    O1217131   1.926   4.475   2.471 -0.4809 -0.0072 -0.3078
  154OSM    C1S17132   1.894   4.399   2.749 -0.0691 -0.4614 -0.1311
  154OSM    H1S17133   1.789   4.362   2.749 -1.0053  1.9684 -0.9604
  154OSM    H1T17134   1.886   4.506   2.718  0.3149  0.1371  1.7263
  154OSM     NF17135   1.803   4.401   2.984 -0.7073 -0.0523 -0.2665
  154OSM    HNF17136   1.801   4.493   3.023  1.7007 -0.1705  0.2835
  154OSM    C2S17137   1.922   4.388   2.897  0.1067  0.3129 -0.9667
  154OSM    H2S17138   1.954   4.282   2.912 -0.0579  0.4181  0.2127
  154OSM    C3S17139   2.039   4.485   2.925 -0.4327  0.0254  0.3498
  154OSM    H3S17140   1.996   4.584   2.896  0.7337  0.4594  0.0453
  154OSM     O317141   2.153   4.462   2.838  0.5167 -0.5602 -0.6226
  154OSM    HO317142   2.122   4.413   2.761  1.2625 -0.8711 -0.7322
  154OSM    C4S17143   2.085   4.484   3.068 -0.4034 -0.5531  0.3754
  154OSM    H4S17144   2.018   4.534   3.140  0.4230  0.6745  0.3207
  154OSM    C5S17145   2.179   4.401   3.117 -0.6767 -0.2775  0.1056
  154OSM    H5S17146   2.240   4.338   3.050 -0.7777 -0.1030 -0.1520
  154OSM    C6S17147   2.208   4.389   3.266  0.0956 -0.3063  0.2005
  154OSM    H6S17148   2.238   4.492   3.295  0.6065  0.2046 -1.9935
  154OSM    H6T17149   2.289   4.317   3.292  0.4012  0.2881  0.9413
  154OSM    C7S17150   2.088   4.350   3.352 -0.3416 -0.4591  0.6720
  154OSM    H7S17151   2.044   4.254   3.316 -3.0018  0.7283  0.4672
  154OSM    H7T17152   2.010   4.429   3.348 -0.1658 -0.2266  1.7592
  154OSM    C8S17153   2.118   4.338   3.500  0.0039 -0.7042 -0.4503
  154OSM    H8S17154   2.150   4.439   3.533 -1.3230  0.5042 -2.5710
  154OSM    H8T17155   2.200   4.266   3.520  0.0096 -0.8806 -1.0863
  154OSM    C9S17156   1.992   4.301   3.573  0.5339 -0.3481  0.0599
  154OSM    H9S17157   1.944   4.212   3.526  0.0759  0.1341 -0.3978
  154OSM    H9T17158   1.912   4.376   3.554  1.0904  0.0888 -0.6028
  154OSM   C10S17159   2.019   4.268   3.724  0.2734  0.6913 -0.1331
  154OSM   H10S17160   2.035   4.362   3.781  1.1270  0.6020 -0.2143
  154OSM   H10T17161   2.106   4.199   3.726  0.2655  0.6844 -0.0064
  154OSM   C11S17162   1.903   4.195   3.793  0.0757 -0.1918  0.0108
  154OSM   H11S17163   1.852   4.122   3.727 -1.9659  0.8199  0.3889
  154OSM   H11T17164   1.828   4.274   3.814  1.2398  1.0012 -0.1453
  154OSM   C12S17165   1.947   4.115   3.921  0.9437  0.2222 -0.1571
  154OSM   H12S17166   2.004   4.023   3.893  0.8595 -0.0658  0.6029
  154OSM   H12T17167   1.851   4.083   3.966  2.0747 -2.1043  0.7545
  154OSM   C13S17168   2.023   4.202   4.028  0.0475 -0.3626  0.6160
  154OSM   H13S17169   1.949   4.280   4.056 -0.8045 -0.9081 -0.0446
  154OSM   H13T17170   2.107   4.252   3.976  1.7823 -0.3075  3.2673
  154OSM   C14S17171   2.066   4.125   4.153  0.7657  0.9366  0.8055
  154OSM   H14S17172   2.147   4.052   4.131  0.4736  0.7427  0.3636
  154OSM   H14T17173   1.976   4.067   4.182  0.6690  1.6248  1.9603
  154OSM   C15S17174   2.112   4.223   4.261 -0.9166  0.7453 -0.0651
  154OSM   H15S17175   2.037   4.297   4.298  0.5172  2.5052 -0.5142
  154OSM   H15T17176   2.197   4.282   4.220  2.3524 -2.3353  1.7334
  154OSM   C16S17177   2.164   4.142   4.382 -0.0890  0.5158 -0.1861
  154OSM   H16S17178   2.242   4.070   4.348 -0.5796 -1.0337  1.7982
  154OSM   H16T17179   2.076   4.081   4.411  1.0595 -1.3363 -0.4127
  154OSM   C17S17180   2.223   4.221   4.501  0.3481 -0.2951  0.0709
  154OSM   H17S17181   2.279   4.306   4.456 -0.2039  0.7858  1.3590
  154OSM   H17T17182   2.297   4.157   4.553 -0.2846 -0.1139  1.2171
  154OSM   C18S17183   2.120   4.265   4.601  0.0245  0.2384 -0.1888
  154OSM   H18S17184   2.155   4.314   4.694 -1.5870 -1.1343  1.2119
  154OSM   H18T17185   2.069   4.175   4.642  0.0951 -0.0111 -0.6288
  154OSM   H18U17186   2.044   4.322   4.544  0.1408  1.9942  1.3417
  154OSM    C1F17187   1.707   4.314   2.996 -0.2598  0.4816 -0.0305
  154OSM     OF17188   1.697   4.228   2.911 -0.1473  0.8539 -0.2644
  154OSM    C2F17189   1.609   4.327   3.104  0.6767 -0.1421  0.0076
  154OSM    H2F17190   1.510   4.358   3.064  0.6070 -0.8779 -0.4205
  154OSM    H2G17191   1.646   4.394   3.184  1.2563  1.4446 -1.5183
  154OSM    C3F17192   1.584   4.193   3.184  0.6936 -0.2066  0.6740
  154OSM    H3F17193   1.680   4.139   3.195  0.2132 -0.9613  1.3715
  154OSM    H3G17194   1.508   4.138   3.124  0.0261 -0.3095  1.5815
  154OSM    C4F17195   1.528   4.204   3.327  0.2337 -0.3814  0.8009
  154OSM    H4F17196   1.584   4.263   3.402  0.4254 -0.5971  0.8276
  154OSM    H4G17197   1.529   4.099   3.365 -1.7277 -1.5840 -2.0292
  154OSM    C5F17198   1.387   4.261   3.335 -0.2574  0.0631  0.0593
  154OSM    H5F17199   1.321   4.201   3.270 -0.3386 -0.6094  0.7525
  154OSM    H5G17200   1.389   4.364   3.294 -2.4685 -0.8040 -2.5565
  154OSM    C6F17201   1.334   4.287   3.478  0.4249 -0.1049 -0.2496
  154OSM    H6F17202   1.240   4.341   3.457  0.3705 -0.6238 -1.4126
  154OSM    H6G17203   1.400   4.357   3.534 -0.4828  0.7140 -0.1901
  154OSM    C7F17204   1.310   4.154   3.549 -0.2321  0.8835 -0.2999
  154OSM    H7F17205   1.409   4.116   3.581  0.0473  1.7874 -0.0521
  154OSM    H7G17206   1.263   4.087   3.474  1.1023  0.5739 -0.8921
  154OSM    C8F17207   1.226   4.160   3.679 -0.3960  0.7552 -0.4923
  154OSM    H8F17208   1.248   4.069   3.738  1.9007  1.7256  0.2681
  154OSM    H8G17209   1.120   4.156   3.646 -0.0115  1.0047 -1.8358
  154OSM    C9F17210   1.239   4.283   3.765  0.0050  0.5249 -0.5789
  154OSM    H9F17211   1.148   4.345   3.765 -1.6158 -1.7622 -0.4151
  154OSM   C10F17212   1.332   4.296   3.863  0.4315  0.2032  0.4901
  154OSM   H10F17213   1.315   4.389   3.920 -3.1420  1.1340 -1.7827
  154OSM   C11F17214   1.466   4.229   3.889  0.2743  0.2766 -0.7272
  154OSM   H11F17215   1.543   4.309   3.894 -2.4129  3.0153 -0.1043
  154OSM   H11G17216   1.490   4.151   3.813 -0.8826  0.2052 -1.0357
  154OSM   C12F17217   1.470   4.157   4.028 -0.4547  0.7199  0.2511
  154OSM   H12F17218   1.556   4.087   4.035  0.1717  1.6299  3.1101
  154OSM   H12G17219   1.368   4.113   4.038 -0.7136  0.8073 -1.6489
  154OSM   C13F17220   1.495   4.244   4.150 -0.5788 -0.1656 -0.0685
  154OSM   H13F17221   1.430   4.216   4.236 -1.3466  3.1315  0.5638
  154OSM   H13G17222   1.483   4.350   4.119  1.9164  0.3688  0.5852
  154OSM   C14F17223   1.643   4.228   4.206 -0.1195 -0.2616  0.5124
  154OSM   H14F17224   1.701   4.291   4.136  2.0855 -1.0782  1.5370
  154OSM   H14G17225   1.690   4.128   4.197 -0.0403 -0.0420 -2.9934
  154OSM   C15F17226   1.656   4.289   4.344 -0.6812  0.4268 -0.0305
  154OSM   H15F17227   1.580   4.371   4.340 -1.5160 -0.3414 -0.2531
  154OSM   H15G17228   1.753   4.342   4.356 -0.5291 -0.2453  2.0605
  154OSM   C16F17229   1.627   4.198   4.458 -0.1747 -0.7591  0.0554
  154OSM   H16F17230   1.708   4.121   4.464  1.4061  0.9791  3.0178
  154OSM   H16G17231   1.541   4.132   4.433  0.9999 -3.0401  1.7229
  154OSM   C17F17232   1.613   4.259   4.603 -0.0403 -0.1778 -0.0385
  154OSM   H17F17233   1.546   4.186   4.654  1.1131  0.7110  2.9570
  154OSM   H17G17234   1.556   4.354   4.603  0.7234  0.3037  1.4183
  154OSM   C18F17235   1.745   4.278   4.678  0.1083 -0.4169 -0.6868
  154OSM   H18F17236   1.811   4.189   4.686 -1.4898 -1.6250 -0.3119
  154OSM   H18G17237   1.725   4.317   4.780  1.1184  2.5610 -1.5345
  154OSM   H18H17238   1.798   4.359   4.624 -2.3909  1.1283 -0.9886
  155OSM      N17239   4.354   2.314   2.776 -0.2966  0.6430 -0.3757
  155OSM    C1517240   4.216   2.354   2.735 -0.4477  0.2764 -0.5620
  155OSM   H15A17241   4.172   2.424   2.805  0.4203 -1.5066  1.8872
  155OSM   H15B17242   4.150   2.268   2.724 -0.1873  0.1487 -1.1652
  155OSM   H15C17243   4.227   2.401   2.638 -0.8513  2.1412  0.2517
  155OSM    C1417244   4.354   2.251   2.912  0.5987 -0.2241 -0.1771
  155OSM   H14A17245   4.459   2.244   2.939  0.4255  0.0559  0.5968
  155OSM   H14B17246   4.317   2.150   2.907  0.8262 -0.2804 -3.7703
  155OSM   H14C17247   4.303   2.308   2.988  1.1531 -0.9507  0.7643
  155OSM    C1317248   4.402   2.222   2.675 -0.6106  0.2861  0.2600
  155OSM   H13A17249   4.335   2.137   2.667 -3.0273  2.1182 -0.1277
  155OSM   H13B17250   4.501   2.184   2.693 -0.3494 -0.1059 -1.7503
  155OSM   H13C17251   4.402   2.274   2.581 -1.2072  0.6002  0.4288
  155OSM    C1217252   4.452   2.432   2.786 -0.5626 -0.6278 -0.6981
  155OSM   H12A17253   4.416   2.483   2.874 -1.3783 -2.9973  0.4168
  155OSM   H12B17254   4.424   2.494   2.701 -0.5526 -0.4758 -0.5910
  155OSM    C1117255   4.608   2.406   2.798 -0.5430 -0.7057 -0.1075
  155OSM   H11A17256   4.651   2.509   2.790 -0.1855 -0.8673 -0.3126
  155OSM   H11B17257   4.650   2.354   2.709  0.9987 -0.6045  0.5258
  155OSM      P17258   4.760   2.368   3.001  0.1517  0.1552 -0.0213
  155OSM    O1317259   4.768   2.272   3.113  0.0177 -0.2626  0.5139
  155OSM    O1417260   4.876   2.386   2.908  0.3709  0.1075  0.2688
  155OSM    O1117261   4.722   2.504   3.068 -0.1786  0.3957  0.1515
  155OSM    O1217262   4.636   2.330   2.914  0.4627 -0.0142 -0.6705
  155OSM    C1S17263   4.599   2.511   3.145 -0.2515  0.1761  0.0559
  155OSM    H1S17264   4.536   2.421   3.132 -0.3739  0.4817 -1.7114
  155OSM    H1T17265   4.527   2.585   3.105  0.0656  0.4384 -0.0380
  155OSM     NF17266   4.508   2.567   3.362  0.7287 -0.4315 -1.1417
  155OSM    HNF17267   4.477   2.657   3.391 -0.3511 -1.3168  0.6490
  155OSM    C2S17268   4.630   2.556   3.293  0.0789  0.4125  0.4070
  155OSM    H2S17269   4.693   2.477   3.339 -1.0766 -0.0283  1.2994
  155OSM    C3S17270   4.715   2.690   3.291  0.0042  0.4731 -0.3662
  155OSM    H3S17271   4.670   2.768   3.227 -0.8890  0.1945 -0.0916
  155OSM     O317272   4.851   2.679   3.237 -0.4973 -1.0657 -0.0647
  155OSM    HO317273   4.843   2.602   3.180 -0.1663 -0.2596 -1.2582
  155OSM    C4S17274   4.746   2.737   3.435 -0.7370 -0.9134  0.0200
  155OSM    H4S17275   4.699   2.836   3.447 -0.6424 -1.0070  1.3031
  155OSM    C5S17276   4.820   2.678   3.534  0.9759 -0.2578  0.1894
  155OSM    H5S17277   4.863   2.580   3.508  0.0595 -0.6383  0.0637
  155OSM    C6S17278   4.822   2.718   3.681  0.1869  0.9283 -0.0135
  155OSM    H6S17279   4.757   2.805   3.703 -0.1230  0.4839  0.8372
  155OSM    H6T17280   4.922   2.753   3.715 -0.1166 -1.5119  3.9738
  155OSM    C7S17281   4.790   2.598   3.766 -0.3366  0.2601  0.1526
  155OSM    H7S17282   4.886   2.552   3.795 -0.4917  1.3729  2.6506
  155OSM    H7T17283   4.733   2.518   3.714  2.6737 -1.3952 -0.8699
  155OSM    C8S17284   4.718   2.640   3.894 -0.6846  0.2670  0.7085
  155OSM    H8S17285   4.691   2.552   3.956  1.5909 -0.4759  0.7462
  155OSM    H8T17286   4.624   2.697   3.881  0.2239  2.0830  1.6834
  155OSM    C9S17287   4.811   2.715   3.989 -0.2715  0.1746  0.3775
  155OSM    H9S17288   4.840   2.811   3.941  1.4340  0.0128  1.0023
  155OSM    H9T17289   4.898   2.650   4.015 -0.0205  0.1331 -0.5301
  155OSM   C10S17290   4.735   2.731   4.122  0.1794 -0.5014  0.0051
  155OSM   H10S17291   4.684   2.634   4.137 -1.7801 -0.3234 -4.0514
  155OSM   H10T17292   4.651   2.804   4.116 -0.0734 -0.8435 -0.7546
  155OSM   C11S17293   4.817   2.745   4.252  0.8470 -0.1980 -0.8665
  155OSM   H11S17294   4.893   2.826   4.252  1.2436 -0.5598 -1.0895
  155OSM   H11T17295   4.882   2.655   4.261  0.6765 -0.1159  2.3412
  155OSM   C12S17296   4.724   2.751   4.380 -0.1341  0.2859  0.2805
  155OSM   H12S17297   4.685   2.647   4.376 -3.2537  1.3506  0.3621
  155OSM   H12T17298   4.644   2.826   4.365 -1.8294 -1.5680 -0.4580
  155OSM   C13S17299   4.800   2.768   4.512 -0.3905  0.6777 -0.3479
  155OSM   H13S17300   4.719   2.766   4.588  1.8972  0.8098  2.2436
  155OSM   H13T17301   4.848   2.868   4.518  0.1386  0.5047 -1.4741
  155OSM   C14S17302   4.902   2.657   4.545 -0.6506  0.6755 -0.5231
  155OSM   H14S17303   4.993   2.653   4.482 -1.2131  1.3687 -1.3896
  155OSM   H14T17304   4.861   2.556   4.528  1.0324 -0.3363  1.0205
  155OSM   C15S17305   4.938   2.666   4.691  0.2734  0.3480 -0.6044
  155OSM   H15S17306   4.987   2.763   4.714  1.8866 -0.9746  1.9969
  155OSM   H15T17307   5.023   2.599   4.715 -0.5040 -0.0323  1.1922
  155OSM   C16S17308   4.827   2.634   4.791  0.3982  0.2228  0.6358
  155OSM   H16S17309   4.764   2.547   4.761  1.3584 -0.3508  0.2062
  155OSM   H16T17310   4.755   2.718   4.801 -0.0353  0.0563 -0.8753
  155OSM   C17S17311   4.892   2.604   4.923 -0.4528  0.2710 -0.6353
  155OSM   H17S17312   4.947   2.694   4.959  0.7624  0.2734 -2.3792
  155OSM   H17T17313   4.967   2.522   4.919  1.4319  1.9553 -1.4160
  155OSM   C18S17314   4.782   2.568   5.021  0.0980 -0.0076 -0.7378
  155OSM   H18S17315   4.720   2.658   5.041  0.5208  0.9877 -3.4460
  155OSM   H18T17316   4.821   2.550   5.124 -0.1639 -0.4862 -0.7175
  155OSM   H18U17317   4.710   2.491   4.985 -0.4798 -1.0061  2.2263
  155OSM    C1F17318   4.428   2.460   3.387 -0.7329  0.6483 -0.8085
  155OSM     OF17319   4.452   2.347   3.350  0.2780 -0.0071 -0.4341
  155OSM    C2F17320   4.297   2.497   3.455  0.4592 -0.2823 -0.0260
  155OSM    H2F17321   4.218   2.467   3.383 -0.6883  0.1455  1.0205
  155OSM    H2G17322   4.290   2.606   3.476  0.9665 -0.3152  0.3318
  155OSM    C3F17323   4.284   2.424   3.589  0.2540 -0.5375 -0.9511
  155OSM    H3F17324   4.260   2.317   3.568  1.4109 -0.7748 -1.1243
  155OSM    H3G17325   4.202   2.465   3.653 -0.4024 -0.9134 -1.5415
  155OSM    C4F17326   4.410   2.436   3.666 -0.5920  0.0484  0.1231
  155OSM    H4F17327   4.454   2.538   3.667  1.5020 -0.7818 -1.0024
  155OSM    H4G17328   4.479   2.358   3.629 -0.4820  1.1654 -2.1856
  155OSM    C5F17329   4.390   2.389   3.804  0.6846  0.1071 -0.4690
  155OSM    H5F17330   4.484   2.348   3.845 -0.1377 -2.4370 -0.9268
  155OSM    H5G17331   4.323   2.301   3.796  0.5889 -0.2037  2.5609
  155OSM    C6F17332   4.342   2.493   3.901  0.6927  0.0794 -0.0100
  155OSM    H6F17333   4.271   2.558   3.846 -0.5163 -2.1634 -1.2351
  155OSM    H6G17334   4.418   2.565   3.938  0.7640 -0.5275  1.0559
  155OSM    C7F17335   4.263   2.425   4.013  0.2475 -0.4330  0.3500
  155OSM    H7F17336   4.179   2.370   3.966  0.3506 -0.9163  0.7203
  155OSM    H7G17337   4.213   2.504   4.073  1.2911 -1.3953  2.6121
  155OSM    C8F17338   4.341   2.324   4.108 -0.2536 -0.0049  0.6279
  155OSM    H8F17339   4.391   2.248   4.044 -0.5954  2.2892 -2.5859
  155OSM    H8G17340   4.259   2.274   4.164 -0.0593 -0.8269  0.1899
  155OSM    C9F17341   4.441   2.387   4.204  0.1743 -0.3713  0.0089
  155OSM    H9F17342   4.541   2.398   4.160  0.2039  0.4103  0.2633
  155OSM   C10F17343   4.403   2.438   4.327  0.1389  0.1783  0.3383
  155OSM   H10F17344   4.478   2.486   4.392 -1.9368  1.2736  2.0608
  155OSM   C11F17345   4.270   2.417   4.404  0.3354  0.5875 -0.0988
  155OSM   H11F17346   4.193   2.371   4.338  0.6695  0.7600 -0.6173
  155OSM   H11G17347   4.224   2.516   4.423 -0.7783 -0.0803  0.8169
  155OSM   C12F17348   4.287   2.363   4.545  0.0316  0.6264  0.1285
  155OSM   H12F17349   4.371   2.415   4.596  0.3968 -0.8566  1.0953
  155OSM   H12G17350   4.319   2.257   4.548 -0.1575  0.5748  0.4182
  155OSM   C13F17351   4.156   2.387   4.627 -0.1448 -0.0559  0.6164
  155OSM   H13F17352   4.061   2.371   4.570 -0.6273  2.2660  0.6341
  155OSM   H13G17353   4.141   2.489   4.670 -0.4453 -0.9371  2.6981
  155OSM   C14F17354   4.151   2.312   4.763 -0.1812  0.7308  0.0269
  155OSM   H14F17355   4.089   2.367   4.836 -0.5146  2.5414 -1.5296
  155OSM   H14G17356   4.254   2.313   4.805 -0.0348  0.0080 -0.2965
  155OSM   C15F17357   4.099   2.175   4.737  0.4275 -0.1775 -0.0391
  155OSM   H15F17358   4.182   2.116   4.692 -0.2481 -0.8279 -0.4636
  155OSM   H15G17359   4.016   2.168   4.664 -0.4965 -1.3095  1.0567
  155OSM   C16F17360   4.053   2.102   4.867  0.7041  0.3455 -0.1534
  155OSM   H16F17361   3.967   2.165   4.897 -0.6116 -0.4384 -2.0640
  155OSM   H16G17362   4.141   2.093   4.934  0.4456 -1.5693 -0.0228
  155OSM   C17F17363   4.009   1.953   4.847 -0.4534 -0.8436  0.3578
  155OSM   H17F17364   4.094   1.911   4.789  0.5381  1.6417 -0.1490
  155OSM   H17G17365   3.921   1.945   4.781  0.6979 -2.2763 -1.0721
  155OSM   C18F17366   3.988   1.875   4.983  0.4277 -0.6310  0.0559
  155OSM   H18F17367   3.912   1.933   5.038  0.5631  1.5182 -1.8549
  155OSM   H18G17368   4.083   1.867   5.041  2.4201  1.4406 -2.6646
  155OSM   H18H17369   3.946   1.775   4.957 -1.6876  0.0938  0.5591
  156OSM      N17370   0.444   0.601   2.930 -0.0156  0.1440 -0.3997
  156OSM    C1517371   0.578   0.539   2.900 -0.4958  0.0131 -0.1467
  156OSM   H15A17372   0.566   0.442   2.855 -1.5181 -0.7998  1.7975
  156OSM   H15B17373   0.631   0.520   2.992 -0.8582 -2.5305 -0.3945
  156OSM   H15C17374   0.640   0.602   2.837  0.8877 -0.6292  0.5202
  156OSM    C1417375   0.363   0.600   2.807 -0.4948 -0.2022 -0.5163
  156OSM   H14A17376   0.347   0.495   2.788  0.4638 -0.5317  0.3987
  156OSM   H14B17377   0.416   0.641   2.722  1.0217 -2.6615 -0.8493
  156OSM   H14C17378   0.269   0.651   2.821 -0.1855  0.7208 -1.6202
  156OSM    C1317379   0.382   0.504   3.028  0.2578  0.2488 -0.3595
  156OSM   H13A17380   0.412   0.508   3.132 -0.0342  0.5191 -0.2837
  156OSM   H13B17381   0.417   0.407   2.996 -1.5052 -0.8747  0.8908
  156OSM   H13C17382   0.275   0.515   3.021 -0.0571 -2.3690 -0.4456
  156OSM    C1217383   0.457   0.739   2.990 -0.3568  0.9485 -0.4128
  156OSM   H12A17384   0.511   0.797   2.917 -1.1135  1.6420 -0.4325
  156OSM   H12B17385   0.517   0.725   3.079 -0.2577  1.5523 -0.3823
  156OSM    C1117386   0.325   0.819   3.016  0.2626 -0.1352  0.4479
  156OSM   H11A17387   0.341   0.910   3.078 -3.6999  1.5478 -0.6591
  156OSM   H11B17388   0.256   0.753   3.071 -0.5854  1.1974  1.0286
  156OSM      P17389   0.102   0.893   2.908 -0.2990  0.1251  0.5836
  156OSM    O1317390   0.059   0.973   2.789  0.6158  0.1827  0.1512
  156OSM    O1417391   0.027   0.771   2.943  0.1306  0.5878 -0.3043
  156OSM    O1117392   0.108   0.985   3.031  0.2424 -0.2124 -0.0878
  156OSM    O1217393   0.254   0.846   2.891  0.0917 -0.5339  0.8021
  156OSM    C1S17394   0.000   1.002   3.118  0.3047  0.0386  0.4032
  156OSM    H1S17395  -0.053   0.907   3.138  1.2910 -0.1134  2.6652
  156OSM    H1T17396  -0.071   1.079   3.083  0.3054 -0.1589 -0.0386
  156OSM     NF17397  -0.053   1.023   3.356  0.0218  0.0051 -0.5074
  156OSM    HNF17398  -0.088   1.101   3.407  1.8776 -0.3495  1.4292
  156OSM    C2S17399   0.046   1.045   3.259  0.1219  0.0852 -0.3221
  156OSM    H2S17400   0.129   0.974   3.279 -0.6472 -0.8106 -0.2540
  156OSM    C3S17401   0.100   1.188   3.254 -0.0631 -0.3420  0.1870
  156OSM    H3S17402   0.016   1.260   3.256  0.3495  0.1838  3.2432
  156OSM     O317403   0.174   1.226   3.139  0.2603  0.2379 -0.0567
  156OSM    HO317404   0.159   1.144   3.092 -2.0430  0.3539  0.3598
  156OSM    C4S17405   0.168   1.220   3.384  0.2291  0.3060 -0.6134
  156OSM    H4S17406   0.102   1.258   3.464  1.0593 -0.3278  0.4101
  156OSM    C5S17407   0.300   1.217   3.405 -0.6693  0.1357  0.4212
  156OSM    H5S17408   0.371   1.179   3.330 -0.7928 -0.8197  0.7700
  156OSM    C6S17409   0.358   1.242   3.545 -0.5484  0.2209  0.2781
  156OSM    H6S17410   0.425   1.329   3.550  1.0172 -1.0017  1.5414
  156OSM    H6T17411   0.428   1.156   3.553 -0.4353  0.2035 -0.7872
  156OSM    C7S17412   0.266   1.263   3.663  0.4202 -0.1748 -0.5962
  156OSM    H7S17413   0.199   1.175   3.672 -0.4271  0.6471  2.3972
  156OSM    H7T17414   0.193   1.346   3.650 -0.4890 -1.2945 -3.3468
  156OSM    C8S17415   0.344   1.288   3.795  0.3555  0.0479  0.4002
  156OSM    H8S17416   0.392   1.387   3.777 -0.5149  0.7175  1.5997
  156OSM    H8T17417   0.430   1.218   3.788  0.3149  0.1875 -4.1230
  156OSM    C9S17418   0.266   1.284   3.924 -0.2206 -0.2410 -0.4610
  156OSM    H9S17419   0.198   1.197   3.916 -1.3751  0.5490  0.3740
  156OSM    H9T17420   0.199   1.372   3.937 -1.3926 -0.9655 -1.4355
  156OSM   C10S17421   0.352   1.276   4.057  0.5509  0.3919  0.0571
  156OSM   H10S17422   0.424   1.361   4.052  0.6391  0.5534  2.7302
  156OSM   H10T17423   0.414   1.184   4.054 -2.2335 -1.6217 -0.1718
  156OSM   C11S17424   0.278   1.277   4.194 -0.1984 -0.1372 -0.1170
  156OSM   H11S17425   0.229   1.177   4.203 -0.4152 -0.0252 -0.0442
  156OSM   H11T17426   0.192   1.347   4.192  1.2220  1.7075  0.6879
  156OSM   C12S17427   0.363   1.296   4.320 -0.1264 -0.1626  0.0939
  156OSM   H12S17428   0.421   1.390   4.312  0.9337 -0.8309 -0.3572
  156OSM   H12T17429   0.428   1.218   4.365  0.0747  1.2529  2.4120
  156OSM   C13S17430   0.261   1.304   4.444 -0.5706 -0.0915  0.3772
  156OSM   H13S17431   0.206   1.208   4.444 -0.8027  0.0287 -0.7197
  156OSM   H13T17432   0.194   1.388   4.415 -0.1122 -0.4821 -2.0286
  156OSM   C14S17433   0.326   1.343   4.575 -0.2858 -0.1451 -0.4544
  156OSM   H14S17434   0.381   1.439   4.570 -1.2913  0.4349 -0.5335
  156OSM   H14T17435   0.395   1.258   4.598 -0.5496 -0.4107 -0.6272
  156OSM   C15S17436   0.224   1.357   4.688 -0.7256 -0.6129 -0.1129
  156OSM   H15S17437   0.156   1.268   4.691  1.2326 -2.2760 -1.9311
  156OSM   H15T17438   0.157   1.443   4.666 -1.1807 -0.9783 -0.1708
  156OSM   C16S17439   0.287   1.387   4.823 -0.6746  0.5621  0.3835
  156OSM   H16S17440   0.358   1.471   4.813  1.6004 -1.3588 -0.7273
  156OSM   H16T17441   0.342   1.301   4.866 -1.1605  1.2872  2.5725
  156OSM   C17S17442   0.177   1.422   4.925  0.1986 -0.1128  0.1414
  156OSM   H17S17443   0.109   1.501   4.885 -3.0752 -2.4980  0.5864
  156OSM   H17T17444   0.220   1.464   5.018  0.4668  1.6176 -0.7280
  156OSM   C18S17445   0.098   1.298   4.965 -0.1333  0.5948 -0.8061
  156OSM   H18S17446  -0.001   1.287   4.915 -0.6817 -1.3747  0.5818
  156OSM   H18T17447   0.081   1.306   5.075  3.2584  0.6003 -0.1684
  156OSM   H18U17448   0.156   1.206   4.947  1.4510  1.6796 -1.4393
  156OSM    C1F17449  -0.093   0.901   3.393  0.1559 -0.3421 -0.2554
  156OSM     OF17450  -0.040   0.800   3.355  0.0938  0.1036 -0.2126
  156OSM    C2F17451  -0.198   0.899   3.499 -0.1501 -0.3092 -0.3037
  156OSM    H2F17452  -0.288   0.956   3.466 -1.0076 -0.6768  1.2712
  156OSM    H2G17453  -0.156   0.959   3.582  3.1548 -1.8863 -0.6669
  156OSM    C3F17454  -0.247   0.758   3.545  0.1394  0.8193 -0.2587
  156OSM    H3F17455  -0.194   0.715   3.633  0.2558 -5.9825 -3.0236
  156OSM    H3G17456  -0.219   0.674   3.479  0.1062 -0.0288  0.7694
  156OSM    C4F17457  -0.395   0.761   3.587  0.0199 -0.1601 -0.5822
  156OSM    H4F17458  -0.423   0.661   3.626  0.5384  0.1088  0.5254
  156OSM    H4G17459  -0.460   0.761   3.497  2.2241  0.2083 -2.2826
  156OSM    C5F17460  -0.439   0.868   3.695 -0.5497  0.2858  0.2627
  156OSM    H5F17461  -0.550   0.875   3.697 -0.5322  1.5564 -1.1885
  156OSM    H5G17462  -0.402   0.969   3.666 -0.5517  0.5387  1.1137
  156OSM    C6F17463  -0.365   0.856   3.825 -0.3103  0.7189 -0.6829
  156OSM    H6F17464  -0.358   0.957   3.870 -0.1558  0.7727 -0.8287
  156OSM    H6G17465  -0.262   0.816   3.812  0.5454  2.0509  1.4547
  156OSM    C7F17466  -0.436   0.768   3.931  0.2217  0.6989  0.2783
  156OSM    H7F17467  -0.465   0.669   3.890 -1.3345  1.7303 -1.2294
  156OSM    H7G17468  -0.526   0.826   3.959  0.3665  1.5029 -0.8532
  156OSM    C8F17469  -0.355   0.756   4.062 -0.3420 -0.2256  0.6269
  156OSM    H8F17470  -0.313   0.852   4.099  1.3015 -0.9652  0.7718
  156OSM    H8G17471  -0.262   0.697   4.044  0.7920  2.1124 -1.8988
  156OSM    C9F17472  -0.437   0.683   4.175 -0.0271 -0.0324  0.4561
  156OSM    H9F17473  -0.496   0.597   4.139 -0.4889  0.7079 -0.6010
  156OSM   C10F17474  -0.445   0.728   4.301 -0.0851  0.1954  0.2177
  156OSM   H10F17475  -0.502   0.666   4.371 -0.6959 -0.6856 -1.0047
  156OSM   C11F17476  -0.381   0.856   4.356  0.2109 -0.1021 -0.0486
  156OSM   H11F17477  -0.461   0.891   4.425  0.2728 -0.3380  0.1457
  156OSM   H11G17478  -0.363   0.936   4.282  0.4695  2.4128  2.5634
  156OSM   C12F17479  -0.248   0.835   4.435  0.5870 -0.1567 -0.4557
  156OSM   H12F17480  -0.235   0.934   4.482 -2.6667 -0.6829  1.8784
  156OSM   H12G17481  -0.164   0.824   4.364  1.7067 -0.3470  0.8514
  156OSM   C13F17482  -0.248   0.718   4.537  0.4312  0.9322 -0.1432
  156OSM   H13F17483  -0.260   0.627   4.474 -1.1977  0.2916  1.0422
  156OSM   H13G17484  -0.332   0.729   4.609  0.1516  0.9098 -0.4649
  156OSM   C14F17485  -0.121   0.706   4.617 -0.4484  0.6776  0.0955
  156OSM   H14F17486  -0.035   0.693   4.547 -1.3097  0.3030 -0.9102
  156OSM   H14G17487  -0.104   0.619   4.684 -0.3910 -0.2775 -1.1060
  156OSM   C15F17488  -0.093   0.836   4.687  0.3286 -0.3404 -0.3940
  156OSM   H15F17489  -0.062   0.912   4.611 -0.2133 -1.5562 -1.8909
  156OSM   H15G17490  -0.009   0.814   4.756 -0.9240 -1.5098  0.8147
  156OSM   C16F17491  -0.210   0.897   4.763 -0.2347 -0.7082  0.4188
  156OSM   H16F17492  -0.254   0.826   4.836 -0.2005  0.8074  1.9888
  156OSM   H16G17493  -0.286   0.931   4.690 -1.0539  0.6660  1.8216
  156OSM   C17F17494  -0.165   1.009   4.858  0.7155 -0.3218 -0.0215
  156OSM   H17F17495  -0.265   1.052   4.880 -0.4461 -3.0222  0.2897
  156OSM   H17G17496  -0.108   1.079   4.794 -2.7135  1.1557 -1.6798
  156OSM   C18F17497  -0.103   0.979   4.998  0.2564  0.6128 -0.5568
  156OSM   H18F17498  -0.162   0.920   5.071  2.3868  0.1976  0.9222
  156OSM   H18G17499  -0.069   1.071   5.050 -1.9903  0.8058  0.6599
  156OSM   H18H17500  -0.008   0.924   4.978  0.3654  1.2587 -1.9679
  157OSM      N17501   6.087   2.484   2.636  0.4167 -0.1130 -0.3892
  157OSM    C1517502   5.985   2.518   2.526 -0.3056 -0.3927 -0.0551
  157OSM   H15A17503   6.029   2.587   2.456 -0.7521  1.4568  1.3944
  157OSM   H15B17504   5.897   2.571   2.562 -1.0634 -0.5565 -1.5834
  157OSM   H15C17505   5.949   2.430   2.476  0.4304  0.5470 -2.3517
  157OSM    C1417506   6.193   2.408   2.571  0.1664  0.1576  0.5044
  157OSM   H14A17507   6.150   2.320   2.527  0.0826 -0.1268  1.1451
  157OSM   H14B17508   6.281   2.380   2.628  2.1012  0.9922 -1.8819
  157OSM   H14C17509   6.237   2.460   2.486  0.0085 -0.0503  0.2950
  157OSM    C1317510   6.147   2.610   2.693 -0.8911  0.1917 -0.0189
  157OSM   H13A17511   6.190   2.673   2.617  0.8167 -0.3020  0.4881
  157OSM   H13B17512   6.226   2.596   2.765 -1.7684 -2.1446  0.5846
  157OSM   H13C17513   6.068   2.668   2.738 -1.4835  1.1043 -2.1093
  157OSM    C1217514   6.040   2.394   2.747  0.0288 -0.6221 -0.3495
  157OSM   H12A17515   6.120   2.378   2.817 -0.3765 -0.6458  0.1078
  157OSM   H12B17516   6.018   2.299   2.701  1.3742 -1.2781  0.3133
  157OSM    C1117517   5.918   2.442   2.835 -0.3247  0.4653  0.7469
  157OSM   H11A17518   5.884   2.365   2.908 -1.7279  0.2648 -0.0707
  157OSM   H11B17519   5.828   2.453   2.771  0.7903  1.8551 -0.6659
  157OSM      P17520   5.812   2.643   2.964  0.1672 -0.4558  0.1718
  157OSM    O1317521   5.853   2.745   3.060  0.1503  0.1254  0.0821
  157OSM    O1417522   5.734   2.694   2.853 -0.2828  0.1801  0.1932
  157OSM    O1117523   5.731   2.521   3.038 -0.1043 -0.3730  0.0405
  157OSM    O1217524   5.938   2.564   2.913 -0.4706  0.6124  0.2361
  157OSM    C1S17525   5.779   2.450   3.153 -0.6459  0.2053  0.3067
  157OSM    H1S17526   5.889   2.438   3.139 -1.1269 -2.6214 -2.0332
  157OSM    H1T17527   5.744   2.344   3.149 -0.0889 -0.0801  2.0039
  157OSM     NF17528   5.836   2.415   3.382  0.4592 -0.2815 -0.1375
  157OSM    HNF17529   5.782   2.353   3.439 -0.9146  2.2408  1.4693
  157OSM    C2S17530   5.760   2.502   3.293 -0.9323  0.2891  0.3142
  157OSM    H2S17531   5.805   2.603   3.298 -1.3601  0.4925  0.0912
  157OSM    C3S17532   5.610   2.511   3.322  0.2606 -0.8901  0.2677
  157OSM    H3S17533   5.566   2.410   3.324 -3.2039  0.4911  0.3462
  157OSM     O317534   5.530   2.565   3.212  0.0294 -0.7143 -0.0003
  157OSM    HO317535   5.597   2.583   3.146  0.0276  0.0159  0.1926
  157OSM    C4S17536   5.589   2.576   3.451 -0.5197 -0.2092  0.0109
  157OSM    H4S17537   5.567   2.502   3.530 -1.0487 -0.7057 -0.5868
  157OSM    C5S17538   5.567   2.703   3.484  0.2817 -0.4834 -0.4982
  157OSM    H5S17539   5.563   2.778   3.403  1.4281  0.6903  0.4736
  157OSM    C6S17540   5.568   2.745   3.629 -0.0415  0.7245  0.0441
  157OSM    H6S17541   5.465   2.755   3.670 -1.7645 -1.4417 -3.3580
  157OSM    H6T17542   5.612   2.847   3.633  0.7920  0.3648  0.2094
  157OSM    C7S17543   5.654   2.649   3.715 -0.2884 -0.3204  0.7003
  157OSM    H7S17544   5.749   2.626   3.661  0.3289  2.2040  0.5802
  157OSM    H7T17545   5.600   2.553   3.725  1.0780 -1.4991 -2.1786
  157OSM    C8S17546   5.699   2.706   3.853 -0.1566 -0.5632  0.0395
  157OSM    H8S17547   5.618   2.722   3.926 -0.7264 -2.5418 -0.1227
  157OSM    H8T17548   5.759   2.798   3.834 -1.3546 -0.0271 -1.3163
  157OSM    C9S17549   5.796   2.611   3.913 -0.0421 -0.9310 -0.5154
  157OSM    H9S17550   5.889   2.607   3.852  0.4706  0.2009  0.1529
  157OSM    H9T17551   5.752   2.511   3.932 -1.4646 -0.0101  1.2425
  157OSM   C10S17552   5.841   2.642   4.062  0.0427  1.1303 -0.3536
  157OSM   H10S17553   5.879   2.747   4.058 -3.1158  2.3354 -2.5142
  157OSM   H10T17554   5.916   2.572   4.105 -1.8986 -0.2665  0.9701
  157OSM   C11S17555   5.717   2.634   4.158 -0.2632  0.5227 -1.2805
  157OSM   H11S17556   5.656   2.543   4.140 -2.4267  2.2849 -3.3209
  157OSM   H11T17557   5.655   2.725   4.151  0.2858  0.9809 -0.3716
  157OSM   C12S17558   5.757   2.625   4.308  0.4286 -0.1117  0.2337
  157OSM   H12S17559   5.844   2.689   4.330  1.5451 -1.8587  1.0418
  157OSM   H12T17560   5.799   2.524   4.325  1.8529  0.1500 -1.4731
  157OSM   C13S17561   5.636   2.622   4.404 -0.6081 -0.3592  0.5405
  157OSM   H13S17562   5.559   2.551   4.367 -1.4533  0.6727  0.2891
  157OSM   H13T17563   5.598   2.726   4.397  0.0089 -0.2398 -1.8068
  157OSM   C14S17564   5.678   2.586   4.549 -0.1019  0.3986  0.3927
  157OSM   H14S17565   5.754   2.505   4.545 -0.6280 -0.0603 -0.7159
  157OSM   H14T17566   5.590   2.547   4.605  0.0367  0.5880  0.7493
  157OSM   C15S17567   5.738   2.705   4.625  0.3833  0.0488 -0.0822
  157OSM   H15S17568   5.667   2.790   4.619  1.3469  1.0368  1.8137
  157OSM   H15T17569   5.830   2.729   4.567  0.6851 -1.3044 -0.2020
  157OSM   C16S17570   5.775   2.676   4.774  0.1017 -1.1844 -1.1601
  157OSM   H16S17571   5.845   2.590   4.776 -1.0099 -2.0867  0.2194
  157OSM   H16T17572   5.693   2.638   4.838  0.5710 -2.1509 -1.1210
  157OSM   C17S17573   5.836   2.794   4.856  0.5814  0.0705  0.6534
  157OSM   H17S17574   5.759   2.873   4.849 -0.5781 -1.1522 -1.2895
  157OSM   H17T17575   5.927   2.825   4.801  0.0420 -0.9276 -0.8573
  157OSM   C18S17576   5.867   2.768   5.011  0.0621 -0.0100 -0.1476
  157OSM   H18S17577   5.897   2.860   5.064  1.4763 -1.9150  2.5917
  157OSM   H18T17578   5.946   2.691   5.021  0.7597  0.9682  2.7331
  157OSM   H18U17579   5.783   2.717   5.064  0.7582  0.9007  1.9494
  157OSM    C1F17580   5.971   2.425   3.399  0.6004  0.1686 -0.1623
  157OSM     OF17581   6.040   2.500   3.334 -0.0263 -0.5111  0.1612
  157OSM    C2F17582   6.034   2.334   3.503 -0.5894 -0.5535 -0.0933
  157OSM    H2F17583   6.033   2.226   3.480  1.8301 -1.1903  2.3055
  157OSM    H2G17584   5.978   2.343   3.599 -0.1727 -2.6672  0.3908
  157OSM    C3F17585   6.184   2.372   3.529 -0.0236 -0.2530 -0.6100
  157OSM    H3F17586   6.189   2.482   3.541 -0.0385  0.0059 -2.6329
  157OSM    H3G17587   6.256   2.332   3.454  1.4358  0.1090  0.5449
  157OSM    C4F17588   6.249   2.311   3.660  0.6811  0.0251 -0.6268
  157OSM    H4F17589   6.249   2.201   3.672 -2.4622 -0.1641 -1.3175
  157OSM    H4G17590   6.181   2.333   3.745  0.4997 -2.1962 -0.1588
  157OSM    C5F17591   6.387   2.364   3.689 -0.5718  0.1428 -0.1909
  157OSM    H5F17592   6.399   2.473   3.670 -0.3312  0.3848  1.2350
  157OSM    H5G17593   6.461   2.323   3.617  0.3628  2.0936 -0.3988
  157OSM    C6F17594   6.410   2.327   3.838  0.0566 -0.0087  0.0469
  157OSM    H6F17595   6.368   2.226   3.854  3.0516 -1.4801 -0.7663
  157OSM    H6G17596   6.364   2.411   3.895  0.2135  0.0709  0.0551
  157OSM    C7F17597   6.562   2.319   3.861 -0.2822  0.2990 -0.7718
  157OSM    H7F17598   6.627   2.394   3.811  0.0198  0.1096 -0.6640
  157OSM    H7G17599   6.606   2.224   3.824  0.3092  2.0308 -5.0943
  157OSM    C8F17600   6.590   2.342   4.014 -0.1574  0.1332 -0.0501
  157OSM    H8F17601   6.511   2.291   4.073 -0.6194  2.1720  1.1900
  157OSM    H8G17602   6.572   2.448   4.039 -0.0891 -0.0579  0.8723
  157OSM    C9F17603   6.729   2.300   4.051  0.0351 -0.0509  0.1269
  157OSM    H9F17604   6.800   2.341   3.979  0.3204 -0.4114  0.2009
  157OSM   C10F17605   6.770   2.234   4.164 -0.0370  0.5110  0.0198
  157OSM   H10F17606   6.876   2.207   4.172 -0.6428 -2.2068 -0.2158
  157OSM   C11F17607   6.693   2.196   4.285 -0.0687  0.6756  0.5886
  157OSM   H11F17608   6.688   2.087   4.306  0.5346  0.4864 -0.1946
  157OSM   H11G17609   6.587   2.216   4.259  0.3976 -0.4307 -2.6505
  157OSM   C12F17610   6.734   2.277   4.413  0.2793 -0.8618  0.0294
  157OSM   H12F17611   6.769   2.379   4.386 -2.7429  0.4708  0.7754
  157OSM   H12G17612   6.825   2.229   4.456  1.2327  0.1413 -0.7766
  157OSM   C13F17613   6.634   2.290   4.529 -0.0657 -0.6950 -0.4658
  157OSM   H13F17614   6.537   2.332   4.496  0.9509  1.4364 -0.8700
  157OSM   H13G17615   6.675   2.362   4.603 -3.0243 -1.1198  1.7819
  157OSM   C14F17616   6.593   2.164   4.615 -0.6379 -0.1760 -0.1616
  157OSM   H14F17617   6.693   2.118   4.625  0.0353  1.4787  1.1555
  157OSM   H14G17618   6.527   2.098   4.554 -1.7860 -1.4709  2.3067
  157OSM   C15F17619   6.536   2.194   4.749 -0.5061  0.3609  0.1148
  157OSM   H15F17620   6.468   2.281   4.735  1.2975  2.4242  2.9041
  157OSM   H15G17621   6.618   2.247   4.803  0.9947 -1.7942  0.0526
  157OSM   C16F17622   6.494   2.081   4.836  0.0007 -0.5608 -1.2377
  157OSM   H16F17623   6.570   2.002   4.854 -0.9344 -0.8025  2.6322
  157OSM   H16G17624   6.401   2.031   4.801 -0.3728  0.0925 -1.1958
  157OSM   C17F17625   6.451   2.119   4.985 -0.2559  0.0046 -0.2926
  157OSM   H17F17626   6.543   2.161   5.031 -0.9351  1.3181 -0.0952
  157OSM   H17G17627   6.435   2.025   5.043  2.5788 -0.1804  0.3496
  157OSM   C18F17628   6.328   2.211   5.002 -0.2891 -0.3072 -0.1625
  157OSM   H18F17629   6.289   2.205   5.106  1.1800 -2.7141  0.3176
  157OSM   H18G17630   6.238   2.183   4.944  0.8521 -0.3849 -1.9756
  157OSM   H18H17631   6.353   2.310   4.957  1.0062  0.0773  1.3206
  158OSM      N17632   3.862   6.228   2.510  0.2416  0.0223  0.5458
  158OSM    C1517633   3.848   6.181   2.364  0.4192  0.5126 -0.7532
  158OSM   H15A17634   3.742   6.172   2.343  0.3838 -2.3835  0.2447
  158OSM   H15B17635   3.865   6.077   2.343 -2.6592  0.2260 -2.4308
  158OSM   H15C17636   3.905   6.241   2.295  2.4000 -1.5885 -1.0742
  158OSM    C1417637   3.790   6.125   2.591  0.2634 -0.2034  0.0584
  158OSM   H14A17638   3.684   6.141   2.581 -0.4427 -2.8343  2.1587
  158OSM   H14B17639   3.812   6.136   2.697  0.8908  3.8377 -0.3420
  158OSM   H14C17640   3.798   6.029   2.543 -1.7056 -0.8520  0.9122
  158OSM    C1317641   4.007   6.208   2.552 -0.5750 -0.4275  0.2148
  158OSM   H13A17642   4.018   6.237   2.655 -3.4350  0.6028  0.3097
  158OSM   H13B17643   4.083   6.260   2.496 -0.4927 -0.4714  0.2848
  158OSM   H13C17644   4.040   6.105   2.550  1.5199  0.1972 -1.0884
  158OSM    C1217645   3.816   6.371   2.535 -0.4505 -0.0529 -0.2426
  158OSM   H12A17646   3.721   6.383   2.485  0.0963  0.7878 -1.1105
  158OSM   H12B17647   3.884   6.440   2.488  0.7039 -2.6508 -2.7303
  158OSM    C1117648   3.793   6.419   2.686 -0.3547  0.5707  0.1353
  158OSM   H11A17649   3.741   6.337   2.740 -3.8074  2.4517 -0.0017
  158OSM   H11B17650   3.728   6.509   2.688 -0.9412  0.2881 -2.2460
  158OSM      P17651   4.002   6.579   2.718  0.2285 -0.0812  0.6431
  158OSM    O1317652   4.109   6.561   2.619  0.6203  0.4005  0.4385
  158OSM    O1417653   3.911   6.695   2.697  0.1865  0.4754  0.4654
  158OSM    O1117654   4.079   6.603   2.846 -0.4689 -0.2747 -0.1973
  158OSM    O1217655   3.922   6.439   2.744  0.5753  0.4184 -0.0261
  158OSM    C1S17656   4.003   6.601   2.967 -0.3867  0.6314 -0.3620
  158OSM    H1S17657   3.983   6.496   2.997 -0.9181  0.0312 -2.6559
  158OSM    H1T17658   3.907   6.657   2.969 -1.3928 -0.9695  2.1027
  158OSM     NF17659   4.003   6.662   3.211 -0.0774  0.0862  0.1377
  158OSM    HNF17660   3.949   6.744   3.226 -1.0867 -0.3731 -0.8205
  158OSM    C2S17661   4.078   6.672   3.085 -0.4732 -0.0439 -0.0669
  158OSM    H2S17662   4.166   6.606   3.105  0.3340  0.6171 -1.3193
  158OSM    C3S17663   4.123   6.810   3.036 -0.3480 -0.2796  0.0918
  158OSM    H3S17664   4.032   6.874   3.041  0.3153  0.6629  0.3511
  158OSM     O317665   4.180   6.827   2.908  0.4782  0.2861  0.2061
  158OSM    HO317666   4.159   6.741   2.872  1.9116  0.9295 -2.4305
  158OSM    C4S17667   4.221   6.867   3.136 -0.5652  0.4724 -0.0940
  158OSM    H4S17668   4.322   6.823   3.140 -0.2906  1.1424  0.7426
  158OSM    C5S17669   4.207   6.976   3.220  0.4257 -0.1183  0.3750
  158OSM    H5S17670   4.114   7.035   3.216  1.1225  0.9449 -1.3792
  158OSM    C6S17671   4.311   7.029   3.318  0.6666 -0.1262 -0.2230
  158OSM    H6S17672   4.267   7.026   3.420 -0.3902  1.3471 -0.6050
  158OSM    H6T17673   4.337   7.133   3.290  0.3121  0.4266  1.4035
  158OSM    C7S17674   4.443   6.948   3.322  1.0100 -0.3578  0.5294
  158OSM    H7S17675   4.495   6.946   3.223  1.4537 -2.3584  0.7439
  158OSM    H7T17676   4.428   6.840   3.343  1.2642 -1.2449 -3.1487
  158OSM    C8S17677   4.539   7.010   3.419  0.0999 -0.0427 -0.3487
  158OSM    H8S17678   4.502   7.019   3.523 -0.1321  1.1862 -0.5199
  158OSM    H8T17679   4.566   7.111   3.380 -0.7522  0.9503  1.5112
  158OSM    C9S17680   4.672   6.932   3.419 -0.2742  0.1624 -0.5893
  158OSM    H9S17681   4.713   6.932   3.316 -0.2275 -0.6598 -0.5761
  158OSM    H9T17682   4.665   6.825   3.449  3.2301  0.3605  1.5691
  158OSM   C10S17683   4.791   6.991   3.496  0.3210  0.3550  0.0076
  158OSM   H10S17684   4.816   7.092   3.458 -0.0237  1.8135  3.3200
  158OSM   H10T17685   4.877   6.923   3.479  2.7609  3.2803 -0.1318
  158OSM   C11S17686   4.769   7.008   3.649 -0.0326  0.1320 -0.0342
  158OSM   H11S17687   4.792   6.912   3.700 -0.0909  0.2619  0.2364
  158OSM   H11T17688   4.662   7.036   3.661  0.4682  3.4498 -1.9692
  158OSM   C12S17689   4.858   7.119   3.690 -0.2352  0.5345 -0.2214
  158OSM   H12S17690   4.822   7.214   3.645 -0.0763  0.1751 -1.1271
  158OSM   H12T17691   4.960   7.089   3.655 -1.1690 -1.9781 -0.9890
  158OSM   C13S17692   4.858   7.141   3.844  0.4132  0.0363  0.1015
  158OSM   H13S17693   4.766   7.189   3.882  0.3617 -1.8075  2.5999
  158OSM   H13T17694   4.925   7.225   3.873  1.5810 -1.0981  0.7909
  158OSM   C14S17695   4.879   7.016   3.932  0.0853  0.0193 -0.0631
  158OSM   H14S17696   4.964   6.957   3.889 -0.2040 -0.2285 -0.3081
  158OSM   H14T17697   4.783   6.961   3.941 -1.1157  2.0302 -0.0055
  158OSM   C15S17698   4.921   7.047   4.076  0.0066  0.0856 -0.6700
  158OSM   H15S17699   5.005   7.121   4.077 -1.1712  1.5142  1.4738
  158OSM   H15T17700   4.944   6.960   4.140 -0.1708 -0.4403 -1.3180
  158OSM   C16S17701   4.808   7.105   4.160 -0.3479 -0.4228  0.2361
  158OSM   H16S17702   4.734   7.024   4.176 -0.4920 -1.1545 -3.3517
  158OSM   H16T17703   4.759   7.193   4.115  0.9228  1.1744  1.8280
  158OSM   C17S17704   4.849   7.160   4.299  0.4721  0.0062 -0.1679
  158OSM   H17S17705   4.887   7.262   4.282 -1.5884  0.7258 -0.7017
  158OSM   H17T17706   4.934   7.100   4.340 -1.7430 -2.1230  1.6659
  158OSM   C18S17707   4.730   7.161   4.398 -0.2762 -0.1194  0.5960
  158OSM   H18S17708   4.637   7.208   4.360  2.3450  3.7282 -1.8542
  158OSM   H18T17709   4.744   7.217   4.493 -2.1747  1.8488 -0.2005
  158OSM   H18U17710   4.708   7.054   4.419  1.0573 -0.6709 -0.5639
  158OSM    C1F17711   3.992   6.560   3.289  0.3811 -0.4598 -0.1670
  158OSM     OF17712   4.033   6.452   3.260 -0.2941  0.3129 -0.8591
  158OSM    C2F17713   3.929   6.582   3.422 -0.3715  0.4928  0.2587
  158OSM    H2F17714   3.820   6.560   3.417 -0.1905 -1.0091  1.8810
  158OSM    H2G17715   3.938   6.689   3.451  0.0184  1.0552 -1.8371
  158OSM    C3F17716   3.994   6.494   3.524  0.3291 -0.1417 -0.0256
  158OSM    H3F17717   4.104   6.493   3.510  0.5306 -0.8267  1.4770
  158OSM    H3G17718   3.956   6.390   3.519  0.3797 -0.3910  2.9146
  158OSM    C4F17719   3.978   6.546   3.671 -0.6501  1.3548 -1.0299
  158OSM    H4F17720   3.871   6.539   3.701 -0.1765 -2.5241  0.3127
  158OSM    H4G17721   4.023   6.647   3.682  0.4056  0.8202 -0.3215
  158OSM    C5F17722   4.045   6.446   3.770 -0.6079  0.1947  0.7709
  158OSM    H5F17723   4.148   6.432   3.731 -0.6183 -0.3715  0.9329
  158OSM    H5G17724   4.008   6.342   3.757  2.1622 -0.7462 -0.2901
  158OSM    C6F17725   4.047   6.498   3.913 -0.4175  0.1147 -0.2848
  158OSM    H6F17726   3.940   6.504   3.943 -1.3526 -0.8050 -3.1345
  158OSM    H6G17727   4.085   6.601   3.902 -1.4529  0.4495 -0.8534
  158OSM    C7F17728   4.129   6.404   4.007 -0.0326  0.6078  0.4824
  158OSM    H7F17729   4.231   6.370   3.979 -0.8014 -1.7432  0.3079
  158OSM    H7G17730   4.065   6.313   4.015  0.8205  0.1176  2.4809
  158OSM    C8F17731   4.144   6.472   4.148  0.1144  0.2343 -0.1323
  158OSM    H8F17732   4.092   6.570   4.156  0.9653  0.5702  2.5912
  158OSM    H8G17733   4.251   6.503   4.151  0.8269 -1.9329 -1.0930
  158OSM    C9F17734   4.115   6.390   4.270 -0.2255 -0.3086  0.0796
  158OSM    H9F17735   4.148   6.285   4.282  1.6045  0.2580  0.2741
  158OSM   C10F17736   4.035   6.417   4.376 -0.2082 -0.5408 -0.9090
  158OSM   H10F17737   4.033   6.356   4.468 -3.3717  1.0986  0.2595
  158OSM   C11F17738   3.967   6.552   4.389  0.0846  0.4495  0.6469
  158OSM   H11F17739   3.881   6.565   4.320 -1.0710 -1.2841  1.6701
  158OSM   H11G17740   4.045   6.629   4.370  0.4497  0.1567  0.9547
  158OSM   C12F17741   3.902   6.583   4.526 -0.0777  0.4077  0.6782
  158OSM   H12F17742   3.836   6.501   4.562  1.1316 -0.0905  1.8411
  158OSM   H12G17743   3.830   6.667   4.513  0.0688  0.5822  0.9884
  158OSM   C13F17744   3.996   6.631   4.642  0.1805  0.2114  0.0507
  158OSM   H13F17745   4.053   6.721   4.611  1.3615 -0.3913  0.4145
  158OSM   H13G17746   4.069   6.548   4.640 -1.1051 -1.0192  1.4322
  158OSM   C14F17747   3.933   6.653   4.780  0.0015 -0.7337  0.2009
  158OSM   H14F17748   4.012   6.634   4.855 -0.2186 -0.4001  0.5176
  158OSM   H14G17749   3.857   6.573   4.796 -1.2700  0.7666  2.1080
  158OSM   C15F17750   3.875   6.794   4.806  0.0654  0.8790 -0.2826
  158OSM   H15F17751   3.774   6.815   4.764 -0.1488  0.0034 -0.2289
  158OSM   H15G17752   3.944   6.867   4.760  0.8754  0.6459  0.5308
  158OSM   C16F17753   3.893   6.826   4.953 -0.5303 -0.2231 -0.9364
  158OSM   H16F17754   3.896   6.732   5.013 -1.5763  0.6686  0.6061
  158OSM   H16G17755   3.806   6.890   4.980 -2.7638 -2.4646 -2.3557
  158OSM   C17F17756   4.024   6.899   4.982  0.2979  0.2211 -1.4061
  158OSM   H17F17757   4.032   6.979   4.906 -0.5958  1.0006 -0.7039
  158OSM   H17G17758   4.112   6.833   4.967 -0.1713 -0.5148 -1.0113
  158OSM   C18F17759   4.033   6.974   5.113  0.3990  0.7495  0.0067
  158OSM   H18F17760   3.942   7.036   5.127  0.0059 -0.0157  0.9614
  158OSM   H18G17761   4.126   7.032   5.130 -0.2990  1.6600  0.8556
  158OSM   H18H17762   4.027   6.892   5.188  0.2779 -1.3397 -2.1433
  159OSM      N17763   5.964   1.712   2.845 -0.2496  0.0567  0.6030
  159OSM    C1517764   6.035   1.590   2.793 -0.0817  0.3834  0.1350
  159OSM   H15A17765   5.970   1.503   2.795  0.0486  0.2810 -0.0912
  159OSM   H15B17766   6.113   1.566   2.864  0.3566  1.2784 -0.0331
  159OSM   H15C17767   6.064   1.603   2.690 -0.5273 -3.7644 -0.6885
  159OSM    C1417768   6.037   1.840   2.813 -0.5276  0.1645  0.3217
  159OSM   H14A17769   5.978   1.926   2.842 -1.6624  0.0047 -1.3686
  159OSM   H14B17770   6.068   1.859   2.711  0.6230 -0.5473  0.5257
  159OSM   H14C17771   6.125   1.851   2.874  0.8198  5.6274 -2.0034
  159OSM    C1317772   5.824   1.717   2.789  0.0643  0.9151  0.0473
  159OSM   H13A17773   5.792   1.614   2.786  0.7434  0.6846  0.5105
  159OSM   H13B17774   5.826   1.756   2.689 -1.0031  0.0755 -0.3278
  159OSM   H13C17775   5.756   1.771   2.855 -2.0505 -0.8233 -0.5812
  159OSM    C1217776   5.957   1.691   3.000  0.3845  0.3337 -0.1200
  159OSM   H12A17777   6.056   1.668   3.038  1.1242  1.4315 -1.2891
  159OSM   H12B17778   5.906   1.597   3.013 -1.6068  1.6908  3.3136
  159OSM    C1117779   5.884   1.792   3.090  0.4677  0.1369  0.1597
  159OSM   H11A17780   5.866   1.747   3.190 -1.2068 -1.6707 -0.8667
  159OSM   H11B17781   5.781   1.819   3.057  0.4608 -0.3915 -0.2731
  159OSM      P17782   5.912   2.060   3.076 -0.0074  0.3199  0.2434
  159OSM    O1317783   6.023   2.149   3.118  0.3151  0.0896  0.0169
  159OSM    O1417784   5.871   2.066   2.932  0.2104  0.1066 -0.0136
  159OSM    O1117785   5.792   2.067   3.173  0.1904  0.0711  0.3148
  159OSM    O1217786   5.967   1.913   3.097 -0.1522  0.0944  0.0183
  159OSM    C1S17787   5.802   2.045   3.309  0.4899  0.4959  0.2476
  159OSM    H1S17788   5.849   2.136   3.352 -1.6979  1.0046  1.7226
  159OSM    H1T17789   5.866   1.959   3.338 -0.7168 -1.1327 -1.7016
  159OSM     NF17790   5.681   2.018   3.526 -0.3575  0.0749 -0.3855
  159OSM    HNF17791   5.690   1.925   3.562  0.4732  0.4185  0.3574
  159OSM    C2S17792   5.666   2.029   3.382  0.4214  0.0855 -0.5039
  159OSM    H2S17793   5.616   2.126   3.360  0.6047 -0.3718 -3.2367
  159OSM    C3S17794   5.588   1.907   3.332 -0.0841  0.8301 -0.1708
  159OSM    H3S17795   5.647   1.819   3.366 -1.5594 -0.2127 -0.2570
  159OSM     O317796   5.588   1.888   3.184  0.3325 -0.2647 -0.2914
  159OSM    HO317797   5.643   1.962   3.157  1.2359 -0.9696 -0.4155
  159OSM    C4S17798   5.447   1.909   3.379  0.2965 -0.2721 -0.0978
  159OSM    H4S17799   5.390   2.003   3.388 -1.4252 -1.2134 -0.6634
  159OSM    C5S17800   5.382   1.814   3.445 -0.1387 -0.0449 -0.0705
  159OSM    H5S17801   5.416   1.710   3.438 -1.1940 -0.3612 -0.7957
  159OSM    C6S17802   5.252   1.835   3.521  0.0288  0.6535  0.0427
  159OSM    H6S17803   5.171   1.778   3.471  0.8221  0.4812 -1.0688
  159OSM    H6T17804   5.219   1.941   3.520 -0.2186  0.5971  1.1055
  159OSM    C7S17805   5.257   1.806   3.676 -0.3223  0.2279 -0.2681
  159OSM    H7S17806   5.299   1.703   3.678 -0.4240  0.1896 -0.0462
  159OSM    H7T17807   5.153   1.788   3.710  0.4471 -0.1022  2.0341
  159OSM    C8S17808   5.345   1.904   3.750 -0.4805 -0.5928 -0.4376
  159OSM    H8S17809   5.300   2.001   3.719 -0.2933 -0.7761 -1.3040
  159OSM    H8T17810   5.450   1.900   3.714 -0.4181 -0.5157 -0.2646
  159OSM    C9S17811   5.346   1.896   3.909  0.5015  0.3790 -0.1387
  159OSM    H9S17812   5.394   1.993   3.937 -1.9483  2.1794 -1.7027
  159OSM    H9T17813   5.415   1.817   3.945 -0.2018 -0.0219  0.3539
  159OSM   C10S17814   5.212   1.886   3.977 -0.8435  0.7744  0.5388
  159OSM   H10S17815   5.168   1.786   3.958 -0.3919  0.6141  0.3237
  159OSM   H10T17816   5.134   1.945   3.924  0.8235  0.7981 -2.0584
  159OSM   C11S17817   5.208   1.917   4.126  0.2029 -0.9607 -0.1774
  159OSM   H11S17818   5.184   2.023   4.147  0.8421 -1.0043  0.8421
  159OSM   H11T17819   5.313   1.901   4.159  0.3308 -1.4779 -0.7924
  159OSM   C12S17820   5.108   1.838   4.214  0.3739 -0.2889 -0.0189
  159OSM   H12S17821   5.123   1.729   4.199  2.0784 -0.3618  1.8191
  159OSM   H12T17822   5.006   1.863   4.177 -1.0317 -1.3892  2.7889
  159OSM   C13S17823   5.113   1.868   4.369 -0.8248 -0.0105 -0.4117
  159OSM   H13S17824   5.124   1.978   4.384 -1.7173  0.1377 -0.7606
  159OSM   H13T17825   5.212   1.831   4.402 -0.6806  1.5955  1.1496
  159OSM   C14S17826   5.008   1.791   4.456 -0.0399  0.5277 -0.2002
  159OSM   H14S17827   5.014   1.681   4.447  2.2005  0.5790  0.1645
  159OSM   H14T17828   4.909   1.825   4.417  0.5411 -1.5557 -3.9664
  159OSM   C15S17829   5.033   1.819   4.601 -0.1475  0.3240 -0.4137
  159OSM   H15S17830   5.008   1.926   4.620  0.6011  0.3021  0.8371
  159OSM   H15T17831   5.137   1.805   4.637 -1.0088 -0.3335  1.9961
  159OSM   C16S17832   4.941   1.743   4.695 -0.7656  0.3131 -0.3260
  159OSM   H16S17833   4.966   1.758   4.802  0.8576  1.0647 -0.7781
  159OSM   H16T17834   4.951   1.634   4.674  1.2336 -0.0279  2.0450
  159OSM   C17S17835   4.790   1.774   4.671 -0.5080 -0.3359 -0.0913
  159OSM   H17S17836   4.763   1.731   4.572  0.1976 -2.3782  0.5593
  159OSM   H17T17837   4.784   1.885   4.668  1.8589 -0.1605  0.0053
  159OSM   C18S17838   4.689   1.724   4.774 -0.2479 -0.1959 -0.3695
  159OSM   H18S17839   4.673   1.805   4.849  1.0028  0.4519 -0.7703
  159OSM   H18T17840   4.725   1.627   4.815  1.3446  0.8713  0.8733
  159OSM   H18U17841   4.593   1.692   4.729 -0.4470 -2.0329  1.2165
  159OSM    C1F17842   5.706   2.125   3.606  0.0331 -1.3428  0.5135
  159OSM     OF17843   5.715   2.239   3.562 -0.0081  0.4989 -0.5310
  159OSM    C2F17844   5.743   2.103   3.746 -0.1614 -0.1944 -0.4920
  159OSM    H2F17845   5.840   2.151   3.768  1.0732 -3.1545  1.1170
  159OSM    H2G17846   5.763   2.000   3.782  0.3745  0.3247  0.7558
  159OSM    C3F17847   5.633   2.169   3.833  0.2033 -0.4847 -0.4211
  159OSM    H3F17848   5.528   2.139   3.808 -0.1783 -0.7482  1.3888
  159OSM    H3G17849   5.647   2.279   3.825 -1.2884 -0.2855 -0.7414
  159OSM    C4F17850   5.645   2.145   3.985  0.2424 -0.1550  0.2336
  159OSM    H4F17851   5.639   2.035   3.997 -0.4617 -0.2492 -0.8714
  159OSM    H4G17852   5.559   2.197   4.033 -1.1592  0.8610 -3.0634
  159OSM    C5F17853   5.775   2.197   4.047  0.8862 -0.3794 -0.0779
  159OSM    H5F17854   5.789   2.306   4.033  2.0072 -0.5607 -0.4789
  159OSM    H5G17855   5.857   2.149   3.990  3.3123  1.5355  1.5644
  159OSM    C6F17856   5.797   2.165   4.194 -0.2650  0.4511 -0.4697
  159OSM    H6F17857   5.754   2.064   4.208 -1.2863  0.8065 -0.9505
  159OSM    H6G17858   5.733   2.223   4.264  0.6792  1.8851 -0.7493
  159OSM    C7F17859   5.945   2.181   4.233  0.3638 -0.4037 -0.3697
  159OSM    H7F17860   6.006   2.115   4.169 -0.1333 -0.1278 -1.1397
  159OSM    H7G17861   5.956   2.152   4.340  1.5140 -1.9278 -0.8670
  159OSM    C8F17862   5.988   2.329   4.208  0.1484  0.4492  0.7281
  159OSM    H8F17863   5.946   2.388   4.292 -0.0339  0.5461  0.5702
  159OSM    H8G17864   5.953   2.373   4.112  2.6502 -0.2752 -0.6092
  159OSM    C9F17865   6.140   2.337   4.206 -0.9313  0.4186 -0.5817
  159OSM    H9F17866   6.191   2.355   4.110  0.6557  0.1491  0.1662
  159OSM   C10F17867   6.218   2.339   4.317  0.0344 -0.7930  0.6832
  159OSM   H10F17868   6.328   2.349   4.314  0.0589 -0.1105  2.6681
  159OSM   C11F17869   6.171   2.322   4.461 -0.0856  0.1857  0.0118
  159OSM   H11F17870   6.230   2.237   4.502  1.2579  1.4810  0.8360
  159OSM   H11G17871   6.066   2.287   4.457  0.1104 -0.2975 -1.9050
  159OSM   C12F17872   6.175   2.449   4.537 -0.0323 -0.8940 -0.5776
  159OSM   H12F17873   6.108   2.531   4.505 -1.5195 -2.3620 -1.3846
  159OSM   H12G17874   6.279   2.488   4.528  0.2202 -0.9135  1.6445
  159OSM   C13F17875   6.139   2.427   4.686 -0.7802  0.7130 -0.9707
  159OSM   H13F17876   6.222   2.371   4.733 -1.0468  0.8877 -0.2745
  159OSM   H13G17877   6.046   2.367   4.691  0.1601 -0.8136 -1.2061
  159OSM   C14F17878   6.143   2.548   4.777 -0.2756 -0.5792 -1.0702
  159OSM   H14F17879   6.149   2.501   4.878 -1.5057  0.5843 -0.4143
  159OSM   H14G17880   6.056   2.617   4.774  1.7541  2.0882 -3.5809
  159OSM   C15F17881   6.263   2.644   4.745  0.3446  0.3103  0.0469
  159OSM   H15F17882   6.259   2.689   4.644 -1.4408  1.4887  0.5897
  159OSM   H15G17883   6.362   2.594   4.745 -0.1412 -0.6887 -0.2501
  159OSM   C16F17884   6.271   2.750   4.850 -0.3265 -0.7995 -0.0613
  159OSM   H16F17885   6.340   2.719   4.931 -0.5247 -0.6614  0.1626
  159OSM   H16G17886   6.171   2.765   4.896 -0.2420 -1.4781  0.3632
  159OSM   C17F17887   6.323   2.887   4.810  0.4182 -0.1720  0.0176
  159OSM   H17F17888   6.278   2.914   4.711 -0.2580  1.8464  0.8202
  159OSM   H17G17889   6.433   2.888   4.799  0.3966 -0.3041 -0.2315
  159OSM   C18F17890   6.280   3.011   4.897  0.1269 -0.3967  0.3005
  159OSM   H18F17891   6.310   3.107   4.850 -1.1867 -1.2592 -2.5127
  159OSM   H18G17892   6.331   3.012   4.996  2.2386  0.0563 -0.7435
  159OSM   H18H17893   6.170   3.011   4.915  0.2353 -0.6815  1.0089
  160OSM      N17894   3.491   2.103   2.779 -0.3390  0.2329 -0.0026
  160OSM    C1517895   3.527   2.211   2.676  0.2577  0.4908 -0.2709
  160OSM   H15A17896   3.582   2.288   2.728  2.5164 -0.7907 -0.6494
  160OSM   H15B17897   3.436   2.255   2.637  0.5578 -0.1196 -1.7271
  160OSM   H15C17898   3.586   2.169   2.596 -0.5689  0.3777 -0.8386
  160OSM    C1417899   3.437   1.983   2.715 -0.6941  0.5741 -0.7676
  160OSM   H14A17900   3.504   1.970   2.632  1.7257  1.5717  0.9214
  160OSM   H14B17901   3.337   1.997   2.676 -0.5132  1.9721 -0.7936
  160OSM   H14C17902   3.435   1.902   2.786 -0.7013  1.5238  0.3552
  160OSM    C1317903   3.622   2.082   2.850 -0.5223 -0.0800 -0.3241
  160OSM   H13A17904   3.617   2.029   2.944 -0.8697  1.0801  0.3444
  160OSM   H13B17905   3.652   2.183   2.875  0.8651 -0.4701 -0.3155
  160OSM   H13C17906   3.690   2.036   2.780  0.4831  1.6888 -0.5905
  160OSM    C1217907   3.395   2.149   2.889  0.8165  0.1298 -0.1972
  160OSM   H12A17908   3.437   2.232   2.944 -0.9655 -0.6416  2.4814
  160OSM   H12B17909   3.387   2.072   2.964  2.1900  0.1626  0.0138
  160OSM    C1117910   3.248   2.189   2.838  0.1566 -0.3939  0.2966
  160OSM   H11A17911   3.269   2.258   2.753  0.9413 -2.1052 -0.9744
  160OSM   H11B17912   3.199   2.250   2.916  0.2750  0.8325 -0.5687
  160OSM      P17913   3.103   1.973   2.883  0.0613 -0.3799  0.1079
  160OSM    O1317914   2.958   2.012   2.901  0.3521  0.0407 -0.3552
  160OSM    O1417915   3.135   1.839   2.835  0.2585  0.6423 -0.3177
  160OSM    O1117916   3.179   1.996   3.020  0.1042 -0.1677 -0.1812
  160OSM    O1217917   3.168   2.081   2.786  0.2766  0.2508 -0.5166
  160OSM    C1S17918   3.143   2.049   3.143 -0.4511  0.3650 -0.7826
  160OSM    H1S17919   3.040   2.090   3.133 -0.7791 -0.1846  0.2051
  160OSM    H1T17920   3.206   2.138   3.164 -0.0490 -0.3755  1.4601
  160OSM     NF17921   3.085   2.007   3.377 -0.1685  0.1555  0.3080
  160OSM    HNF17922   3.148   2.036   3.448  3.0679 -2.6520 -1.1284
  160OSM    C2S17923   3.152   1.944   3.260 -0.6165  0.2577  0.2491
  160OSM    H2S17924   3.095   1.855   3.226 -1.0076  0.8907 -0.8129
  160OSM    C3S17925   3.296   1.899   3.285 -0.5358 -0.0035 -0.2103
  160OSM    H3S17926   3.354   1.994   3.290  2.7959 -1.7618 -1.9157
  160OSM     O317927   3.358   1.833   3.174 -0.3502  0.2134 -0.5951
  160OSM    HO317928   3.293   1.852   3.106  2.3244 -0.1040 -3.4982
  160OSM    C4S17929   3.328   1.813   3.408  0.2028  0.4082 -0.2130
  160OSM    H4S17930   3.365   1.867   3.496  1.0428 -0.1182 -0.2338
  160OSM    C5S17931   3.312   1.683   3.420 -0.5035  0.0450  0.2439
  160OSM    H5S17932   3.261   1.629   3.339 -1.7668  1.0772  0.3212
  160OSM    C6S17933   3.348   1.607   3.546  0.1530 -0.3318  0.2221
  160OSM    H6S17934   3.425   1.530   3.522  0.2895  0.5024 -2.3600
  160OSM    H6T17935   3.254   1.565   3.588 -1.8597  3.7692  0.2482
  160OSM    C7S17936   3.407   1.676   3.668  1.2795  0.1554 -0.0662
  160OSM    H7S17937   3.343   1.755   3.714  1.0777 -0.8718  1.5063
  160OSM    H7T17938   3.504   1.729   3.658  1.6251 -0.4371  0.1308
  160OSM    C8S17939   3.433   1.571   3.775  0.6079  0.0094 -0.1356
  160OSM    H8S17940   3.498   1.488   3.743  1.4018  0.8126 -0.6377
  160OSM    H8T17941   3.345   1.515   3.814  0.8026 -1.8168 -2.1591
  160OSM    C9S17942   3.508   1.627   3.894  0.0865 -0.2944 -0.1582
  160OSM    H9S17943   3.598   1.683   3.860  0.5634 -2.7494 -3.4808
  160OSM    H9T17944   3.532   1.532   3.947 -1.9223 -0.9062 -0.2586
  160OSM   C10S17945   3.417   1.712   3.985 -0.4352  0.2596  0.3928
  160OSM   H10S17946   3.331   1.645   4.004 -0.6008  0.3016 -0.1799
  160OSM   H10T17947   3.385   1.801   3.925  1.5201  2.2126  2.0658
  160OSM   C11S17948   3.481   1.769   4.115 -0.0571  0.5752  0.6347
  160OSM   H11S17949   3.568   1.833   4.089  1.3176 -1.7189 -0.7999
  160OSM   H11T17950   3.511   1.680   4.174 -0.1436  0.1057 -0.0094
  160OSM   C12S17951   3.381   1.863   4.194 -0.1551  0.0727  0.1633
  160OSM   H12S17952   3.288   1.807   4.219  0.1239 -0.0136  1.0650
  160OSM   H12T17953   3.355   1.940   4.119  0.0612 -0.9936 -1.0422
  160OSM   C13S17954   3.425   1.915   4.323  0.1507  0.3778 -0.8734
  160OSM   H13S17955   3.359   1.998   4.355 -2.5117 -1.3092 -1.7280
  160OSM   H13T17956   3.525   1.963   4.330  1.6570 -2.7465  0.9933
  160OSM   C14S17957   3.432   1.809   4.437  0.0851  0.7200 -0.0064
  160OSM   H14S17958   3.471   1.712   4.397 -2.5099  0.2698 -1.7488
  160OSM   H14T17959   3.333   1.777   4.477  0.0953 -0.2908 -0.7341
  160OSM   C15S17960   3.522   1.840   4.554  0.5475 -0.2440 -0.5592
  160OSM   H15S17961   3.626   1.858   4.520  0.9235 -2.1225 -0.5258
  160OSM   H15T17962   3.528   1.748   4.616  1.6700  0.8392  0.9779
  160OSM   C16S17963   3.466   1.946   4.650 -0.1472  0.2834 -0.5308
  160OSM   H16S17964   3.373   1.911   4.699  0.7500 -2.0162 -0.3442
  160OSM   H16T17965   3.435   2.038   4.597 -1.3669  1.0878  1.4402
  160OSM   C17S17966   3.566   1.967   4.766  0.0364 -0.3266  0.5244
  160OSM   H17S17967   3.663   2.013   4.737  0.3949 -0.1076  1.9847
  160OSM   H17T17968   3.588   1.867   4.808  1.0048 -0.8349 -1.1380
  160OSM   C18S17969   3.516   2.043   4.881 -0.1015 -0.0886 -0.3963
  160OSM   H18S17970   3.526   2.153   4.869  3.1173 -0.4829 -2.6401
  160OSM   H18T17971   3.573   2.021   4.974 -0.8743  0.3097  0.1814
  160OSM   H18U17972   3.409   2.019   4.902  0.9159 -3.6262  1.6869
  160OSM    C1F17973   2.958   2.042   3.379  0.0590 -0.3976 -0.3821
  160OSM     OF17974   2.880   1.994   3.296  0.2983 -0.1337 -0.5084
  160OSM    C2F17975   2.924   2.150   3.468 -0.4738 -0.2479 -0.2644
  160OSM    H2F17976   2.926   2.240   3.403  0.3290  0.2756  0.4473
  160OSM    H2G17977   3.005   2.165   3.543 -0.7471 -0.0730  0.0009
  160OSM    C3F17978   2.794   2.122   3.553 -0.7069  0.1696 -0.1321
  160OSM    H3F17979   2.808   2.024   3.603  2.0797  1.1866  1.2861
  160OSM    H3G17980   2.703   2.108   3.490 -1.1887 -0.6585  0.7205
  160OSM    C4F17981   2.767   2.230   3.665 -0.4733 -0.0269  0.6214
  160OSM    H4F17982   2.752   2.327   3.613  2.8697  0.0322 -0.4590
  160OSM    H4G17983   2.857   2.245   3.728  1.2047 -1.7615 -1.2164
  160OSM    C5F17984   2.658   2.203   3.765 -0.5400  0.5058  0.5748
  160OSM    H5F17985   2.687   2.108   3.817  0.1267  0.0035 -0.6748
  160OSM    H5G17986   2.562   2.183   3.714 -0.7288 -1.8421  1.7001
  160OSM    C6F17987   2.646   2.319   3.869 -0.1109 -0.0720 -0.0272
  160OSM    H6F17988   2.570   2.278   3.939  0.6606 -3.5849 -1.0278
  160OSM    H6G17989   2.612   2.412   3.818 -0.0563 -0.0819 -0.0822
  160OSM    C7F17990   2.778   2.361   3.947 -0.1706  0.4863  0.1472
  160OSM    H7F17991   2.857   2.386   3.874  1.1890 -2.4861  0.4728
  160OSM    H7G17992   2.797   2.265   3.999 -0.2628 -0.2514 -1.1335
  160OSM    C8F17993   2.772   2.492   4.038 -0.6115  0.0800 -0.2319
  160OSM    H8F17994   2.714   2.568   3.981 -1.1086  1.2080  1.6755
  160OSM    H8G17995   2.876   2.528   4.060 -0.9316 -0.7241  3.1444
  160OSM    C9F17996   2.730   2.460   4.181  0.1750 -0.4628  0.3739
  160OSM    H9F17997   2.752   2.359   4.218  1.4069  0.2410  1.6495
  160OSM   C10F17998   2.674   2.548   4.267 -0.2155 -0.1377 -0.2065
  160OSM   H10F17999   2.656   2.511   4.369  0.9454 -0.8003 -0.2246
  160OSM   C11F18000   2.635   2.696   4.239  0.1284  0.5451 -0.6954
  160OSM   H11F18001   2.640   2.727   4.133  1.7708  1.0143 -0.5058
  160OSM   H11G18002   2.710   2.764   4.285  0.2807 -0.0936  0.0292
  160OSM   C12F18003   2.495   2.731   4.287  0.3469 -0.0979 -0.4166
  160OSM   H12F18004   2.428   2.648   4.255  1.7659 -2.0959  1.4617
  160OSM   H12G18005   2.471   2.827   4.236  3.3496  0.6688 -0.5805
  160OSM   C13F18006   2.482   2.756   4.442 -0.5801  0.0400 -0.5296
  160OSM   H13F18007   2.553   2.835   4.473 -1.5085  1.0781 -0.9641
  160OSM   H13G18008   2.503   2.665   4.502 -0.0503  0.2609 -0.3750
  160OSM   C14F18009   2.333   2.789   4.491 -0.9370  0.3129  0.0761
  160OSM   H14F18010   2.272   2.710   4.443  0.7650 -1.7543  1.1391
  160OSM   H14G18011   2.307   2.890   4.453  1.1927  0.8794 -0.0504
  160OSM   C15F18012   2.320   2.795   4.637  0.0480  0.1262 -0.8592
  160OSM   H15F18013   2.397   2.866   4.672 -0.5098  0.1489  0.3991
  160OSM   H15G18014   2.332   2.694   4.683 -1.1665  0.5543  0.5170
  160OSM   C16F18015   2.182   2.841   4.687  0.9463 -0.2314 -0.1673
  160OSM   H16F18016   2.120   2.750   4.667  0.9655 -0.6444  1.5427
  160OSM   H16G18017   2.139   2.925   4.629  0.5567  1.0674  1.9180
  160OSM   C17F18018   2.163   2.869   4.830  0.5489 -0.2609 -0.0276
  160OSM   H17F18019   2.059   2.897   4.855  0.0798 -1.2990 -0.7437
  160OSM   H17G18020   2.237   2.946   4.862 -1.1489  1.2542  0.4152
  160OSM   C18F18021   2.191   2.752   4.923 -0.5116  0.4900  1.3272
  160OSM   H18F18022   2.124   2.667   4.899  0.8072  0.2425 -1.8831
  160OSM   H18G18023   2.165   2.779   5.028 -0.2979  0.7426  1.3147
  160OSM   H18H18024   2.295   2.722   4.900 -1.2821 -0.7811 -0.7840
  161OSM      N18025   0.609   1.364   2.967  0.3554  0.4344 -0.5280
  161OSM    C1518026   0.735   1.308   2.891  1.2794 -0.7253  0.0589
  161OSM   H15A18027   0.799   1.378   2.841  0.4049 -0.2862 -0.4736
  161OSM   H15B18028   0.707   1.230   2.822  1.3957  0.1651 -1.0113
  161OSM   H15C18029   0.799   1.267   2.968  0.4046 -1.9162  0.1829
  161OSM    C1418030   0.655   1.495   3.038 -0.1994 -0.2766  0.5567
  161OSM   H14A18031   0.731   1.471   3.111 -0.7740 -1.2317  0.8677
  161OSM   H14B18032   0.573   1.546   3.085 -0.8315 -0.5349 -0.2472
  161OSM   H14C18033   0.706   1.556   2.965 -1.8300  1.7189  1.0053
  161OSM    C1318034   0.507   1.398   2.863 -0.4573 -0.1554 -0.0356
  161OSM   H13A18035   0.484   1.309   2.807  1.2745  0.0810 -1.2088
  161OSM   H13B18036   0.543   1.473   2.794 -0.4449  0.3661  0.5240
  161OSM   H13C18037   0.416   1.434   2.908 -0.9851  0.2315 -1.3642
  161OSM    C1218038   0.559   1.268   3.069  0.5829 -0.1128  0.6482
  161OSM   H12A18039   0.479   1.319   3.121 -0.3409 -0.1663 -0.6670
  161OSM   H12B18040   0.635   1.264   3.146 -1.5083  2.6955  3.1441
  161OSM    C1118041   0.516   1.131   3.035 -0.3157  0.5054 -0.0902
  161OSM   H11A18042   0.428   1.160   2.974  1.7009  1.8605 -2.5114
  161OSM   H11B18043   0.474   1.078   3.123 -0.2063  0.4367 -0.0794
  161OSM      P18044   0.724   0.985   3.066 -0.0030 -0.3320 -0.3098
  161OSM    O1318045   0.703   0.841   3.071  0.4322  0.4332 -0.1971
  161OSM    O1418046   0.860   1.031   3.024 -0.0601 -0.7137 -0.6370
  161OSM    O1118047   0.696   1.036   3.209 -0.7065  0.3446  0.3661
  161OSM    O1218048   0.613   1.054   2.970  1.1255  0.5260  0.1051
  161OSM    C1S18049   0.811   1.055   3.290 -0.5144  0.3643  0.0959
  161OSM    H1S18050   0.868   1.143   3.252 -0.7971 -0.5234 -2.5584
  161OSM    H1T18051   0.881   0.969   3.282  1.1116  1.7939 -2.3315
  161OSM     NF18052   0.910   1.083   3.507  0.3966 -0.3171  0.4900
  161OSM    HNF18053   0.940   1.017   3.576 -2.5403  0.6614  2.9298
  161OSM    C2S18054   0.783   1.058   3.442 -0.5035  0.4430  0.5687
  161OSM    H2S18055   0.712   1.140   3.465 -0.0162  1.0327 -0.0358
  161OSM    C3S18056   0.716   0.933   3.494 -0.3001  0.3012 -0.4894
  161OSM    H3S18057   0.788   0.849   3.498  0.2842  0.7533 -1.1981
  161OSM     O318058   0.603   0.904   3.416  0.3963  0.2152  0.3384
  161OSM    HO318059   0.619   0.957   3.338 -1.4310 -0.8632 -0.8521
  161OSM    C4S18060   0.673   0.958   3.632 -0.2093 -0.1859  0.1601
  161OSM    H4S18061   0.583   1.022   3.640 -0.1300 -0.1270  0.6405
  161OSM    C5S18062   0.724   0.893   3.735  0.9407 -0.1614 -0.2609
  161OSM    H5S18063   0.797   0.812   3.717 -0.2533 -0.9963 -1.5618
  161OSM    C6S18064   0.667   0.905   3.874 -0.2588 -0.0957 -0.1742
  161OSM    H6S18065   0.682   0.815   3.938 -1.2350  0.5591  1.0091
  161OSM    H6T18066   0.559   0.930   3.876 -0.1218  0.4921  1.3366
  161OSM    C7S18067   0.730   1.029   3.948 -0.6508  0.5554  1.2451
  161OSM    H7S18068   0.695   1.123   3.901  0.7406  0.6161  0.2607
  161OSM    H7T18069   0.840   1.036   3.934 -0.8491  1.3785 -0.0243
  161OSM    C8S18070   0.703   1.035   4.103  0.1046 -0.2288  0.0771
  161OSM    H8S18071   0.598   1.004   4.122  0.1941  1.0016  3.0714
  161OSM    H8T18072   0.708   1.135   4.150  1.8922  0.2811 -1.0729
  161OSM    C9S18073   0.794   0.942   4.188  0.1439  0.2744 -0.4541
  161OSM    H9S18074   0.886   0.995   4.220  1.5386 -0.8500 -2.3799
  161OSM    H9T18075   0.819   0.863   4.113 -2.1825 -0.8319 -0.1342
  161OSM   C10S18076   0.714   0.886   4.296 -0.8283  0.5860 -0.8596
  161OSM   H10S18077   0.637   0.820   4.251 -2.8716  0.5809  2.4086
  161OSM   H10T18078   0.662   0.962   4.357  3.1621  0.4016  3.3142
  161OSM   C11S18079   0.797   0.809   4.403  0.1621  0.2149 -0.6561
  161OSM   H11S18080   0.823   0.874   4.490 -0.0066  0.1297 -0.5397
  161OSM   H11T18081   0.898   0.781   4.367  0.4586 -0.1676  0.4115
  161OSM   C12S18082   0.721   0.679   4.445 -0.5931 -0.1723  0.0633
  161OSM   H12S18083   0.724   0.617   4.353  2.2815  0.8666 -0.6787
  161OSM   H12T18084   0.614   0.705   4.456 -0.7778  0.6130 -2.7211
  161OSM   C13S18085   0.773   0.599   4.562  0.0771  0.8266 -0.2156
  161OSM   H13S18086   0.751   0.490   4.559  0.2058  0.7656  0.8260
  161OSM   H13T18087   0.731   0.639   4.656 -0.5976 -1.0546  0.3349
  161OSM   C14S18088   0.929   0.598   4.565  0.4027  0.3375 -0.5676
  161OSM   H14S18089   0.970   0.698   4.591  1.9813 -0.2295 -0.7386
  161OSM   H14T18090   0.956   0.595   4.457  0.2414  0.3108 -0.6072
  161OSM   C15S18091   1.000   0.494   4.654 -0.3103  0.4048 -0.0015
  161OSM   H15S18092   1.105   0.493   4.620  0.0435 -3.7374  0.6135
  161OSM   H15T18093   0.971   0.388   4.634 -0.8471  0.6582 -0.6150
  161OSM   C16S18094   0.970   0.522   4.802 -0.9780 -0.3162  0.8480
  161OSM   H16S18095   0.864   0.513   4.831 -0.9949 -0.2439  0.8083
  161OSM   H16T18096   1.002   0.624   4.830 -1.7069  0.0947  0.2087
  161OSM   C17S18097   1.057   0.433   4.892  0.0104  0.0894  0.0723
  161OSM   H17S18098   1.050   0.479   4.993  0.1331  1.4677 -0.5249
  161OSM   H17T18099   1.164   0.436   4.860  0.1011  2.6403  0.4140
  161OSM   C18S18100   1.011   0.285   4.895 -0.1118 -0.1910  0.2054
  161OSM   H18S18101   0.906   0.275   4.930 -0.7730  1.0044 -1.3526
  161OSM   H18T18102   1.078   0.234   4.968  0.0158  0.2036  0.3632
  161OSM   H18U18103   1.005   0.234   4.797 -1.8859 -2.0974  1.2010
  161OSM    C1F18104   0.959   1.207   3.501 -1.0698 -0.5887 -0.2297
  161OSM     OF18105   0.890   1.298   3.459  0.3250  0.2597 -0.7470
  161OSM    C2F18106   1.100   1.232   3.552 -1.1432  1.5270 -0.2706
  161OSM    H2F18107   1.167   1.191   3.474 -2.2488 -1.0525  0.0230
  161OSM    H2G18108   1.120   1.164   3.638 -0.1394 -0.1025 -1.7406
  161OSM    C3F18109   1.130   1.374   3.610  0.4217  0.4753  0.1258
  161OSM    H3F18110   1.116   1.446   3.527 -0.2850 -1.0231 -1.0997
  161OSM    H3G18111   1.237   1.366   3.641  0.4173  0.7889  0.2220
  161OSM    C4F18112   1.057   1.422   3.740 -0.2988 -0.4598  0.0682
  161OSM    H4F18113   0.949   1.427   3.712  0.1283 -0.8187 -1.7538
  161OSM    H4G18114   1.099   1.525   3.752  1.0918 -1.0634  0.5930
  161OSM    C5F18115   1.082   1.331   3.864  0.2677 -0.1863  0.2667
  161OSM    H5F18116   1.191   1.320   3.882  0.0087 -1.3866  1.2918
  161OSM    H5G18117   1.043   1.231   3.835 -0.6195  0.2242 -0.0086
  161OSM    C6F18118   1.010   1.381   3.991  0.1976 -0.4932 -0.8630
  161OSM    H6F18119   0.904   1.401   3.966 -0.0861  0.3163  0.8355
  161OSM    H6G18120   1.038   1.485   4.016  0.7829 -0.9524  0.5025
  161OSM    C7F18121   1.034   1.303   4.119  0.4345  0.3975 -0.1901
  161OSM    H7F18122   1.144   1.289   4.125  0.0590 -3.3360  0.4586
  161OSM    H7G18123   0.992   1.200   4.123  1.2128  0.0757 -0.1821
  161OSM    C8F18124   0.983   1.374   4.240  0.1432 -0.0807 -0.3272
  161OSM    H8F18125   0.873   1.364   4.251 -0.0160 -0.4495 -1.9569
  161OSM    H8G18126   0.998   1.483   4.221  0.0457 -0.0243 -0.0887
  161OSM    C9F18127   1.052   1.328   4.370  0.0002 -0.4638 -0.1255
  161OSM    H9F18128   1.159   1.352   4.383 -0.2715  1.2131 -0.7636
  161OSM   C10F18129   1.006   1.247   4.466 -0.4346 -0.1237  1.1525
  161OSM   H10F18130   1.069   1.221   4.552  1.9610 -2.8444 -1.2347
  161OSM   C11F18131   0.866   1.197   4.481 -0.5999 -0.0667 -0.3999
  161OSM   H11F18132   0.885   1.088   4.484  1.0289  0.2023  1.6946
  161OSM   H11G18133   0.803   1.224   4.393 -1.8867 -0.4930  0.3792
  161OSM   C12F18134   0.789   1.238   4.607  0.3699  0.0737 -0.1886
  161OSM   H12F18135   0.756   1.341   4.586  1.2645 -0.2336 -3.5806
  161OSM   H12G18136   0.862   1.238   4.691  0.8480  1.5020 -0.5860
  161OSM   C13F18137   0.666   1.160   4.658 -0.7732 -0.9852  0.3622
  161OSM   H13F18138   0.686   1.052   4.672  2.9981 -0.4727 -0.0334
  161OSM   H13G18139   0.592   1.167   4.575  1.0659  1.2181 -1.2204
  161OSM   C14F18140   0.599   1.222   4.781  0.4261 -0.6961 -0.3426
  161OSM   H14F18141   0.512   1.160   4.813  0.6611 -1.7797 -1.7196
  161OSM   H14G18142   0.557   1.325   4.773  2.0181 -0.0274 -0.5770
  161OSM   C15F18143   0.686   1.212   4.902 -0.0259  0.0030 -0.7936
  161OSM   H15F18144   0.761   1.293   4.911  2.0248 -1.6192 -2.3886
  161OSM   H15G18145   0.750   1.123   4.886 -0.0326 -0.8800  3.1396
  161OSM   C16F18146   0.615   1.215   5.036 -0.4066 -0.5769  1.0634
  161OSM   H16F18147   0.547   1.127   5.035  0.8550 -1.5759  0.9407
  161OSM   H16G18148   0.551   1.304   5.052 -0.3874 -0.4966  0.7017
  161OSM   C17F18149   0.702   1.215   5.160  0.1610 -0.1930 -0.0767
  161OSM   H17F18150   0.748   1.314   5.179  2.3050 -0.4673 -3.1457
  161OSM   H17G18151   0.783   1.140   5.146  0.2879  0.3256 -2.5473
  161OSM   C18F18152   0.618   1.168   5.279  0.1043 -0.2234 -0.1397
  161OSM   H18F18153   0.546   1.242   5.320 -0.9495 -0.2196 -1.8875
  161OSM   H18G18154   0.682   1.154   5.369 -1.0857 -1.4509  0.5549
  161OSM   H18H18155   0.566   1.071   5.263  1.6105 -1.9187  3.9770
  162OSM      N18156   1.910   1.418   3.040 -0.3966  0.7580  0.1869
  162OSM    C1518157   1.790   1.402   2.954  0.8978 -0.5091 -0.0692
  162OSM   H15A18158   1.716   1.462   3.005  2.1215  1.8563 -0.9222
  162OSM   H15B18159   1.753   1.301   2.956  1.9319 -0.9187  2.7950
  162OSM   H15C18160   1.803   1.440   2.853  0.2017 -2.2180 -0.8383
  162OSM    C1418161   1.884   1.370   3.178  0.1226  0.2501 -0.3709
  162OSM   H14A18162   1.833   1.275   3.182  0.5141  0.0527  0.1292
  162OSM   H14B18163   1.821   1.439   3.233  0.3289  1.0959 -1.1807
  162OSM   H14C18164   1.975   1.353   3.234 -0.7126  0.8556  1.2366
  162OSM    C1318165   2.013   1.335   2.966 -0.0424  0.3203 -0.2502
  162OSM   H13A18166   2.001   1.230   2.988 -2.6847  0.3993 -0.9626
  162OSM   H13B18167   2.113   1.364   2.997 -0.1799  0.1517  0.3623
  162OSM   H13C18168   1.999   1.357   2.861 -1.0642  3.1971  0.3824
  162OSM    C1218169   1.951   1.560   3.051  1.4111 -0.5286  0.1003
  162OSM   H12A18170   1.947   1.615   2.958 -0.0714  0.9454  0.9832
  162OSM   H12B18171   2.057   1.568   3.065  1.6766 -0.0439 -1.8285
  162OSM    C1118172   1.876   1.655   3.145  0.2982  0.0537  0.3568
  162OSM   H11A18173   1.926   1.754   3.147  0.5430 -0.0793  2.7353
  162OSM   H11B18174   1.868   1.614   3.248 -1.6516  1.2488  0.7402
  162OSM      P18175   1.692   1.799   3.020  0.6441  0.3724 -0.2208
  162OSM    O1318176   1.802   1.862   2.952 -0.1463 -0.0179  0.3308
  162OSM    O1418177   1.573   1.760   2.940 -0.2398 -0.2172 -0.3098
  162OSM    O1118178   1.634   1.901   3.132 -0.3025  0.3035  0.4726
  162OSM    O1218179   1.743   1.679   3.099  0.1706  0.1332  0.0103
  162OSM    C1S18180   1.553   1.842   3.237 -0.1365 -0.5490  0.5009
  162OSM    H1S18181   1.616   1.762   3.281  1.7627  0.1795 -0.7330
  162OSM    H1T18182   1.460   1.801   3.194  0.5785 -0.9476 -0.7298
  162OSM     NF18183   1.442   1.898   3.457  0.1825  0.7090 -0.1816
  162OSM    HNF18184   1.352   1.936   3.470  0.9447  1.5096  4.6168
  162OSM    C2S18185   1.523   1.953   3.348  0.0722  1.2242 -0.1758
  162OSM    H2S18186   1.616   1.976   3.403 -1.8040  1.4092  3.2074
  162OSM    C3S18187   1.469   2.091   3.294 -0.3064 -0.1385  0.3341
  162OSM    H3S18188   1.362   2.070   3.270 -0.0810 -1.8178  0.6664
  162OSM     O318189   1.531   2.135   3.175 -0.5981 -0.2057  0.0378
  162OSM    HO318190   1.573   2.051   3.159  1.0806 -0.1184  3.3098
  162OSM    C4S18191   1.489   2.195   3.402  0.6736  0.6853  1.0550
  162OSM    H4S18192   1.596   2.202   3.427  1.3580 -2.0393 -0.6417
  162OSM    C5S18193   1.389   2.262   3.458  0.2495 -0.6267  0.5712
  162OSM    H5S18194   1.288   2.239   3.421  0.6758 -3.4209  0.9520
  162OSM    C6S18195   1.404   2.350   3.576  0.1827 -0.3904  0.2754
  162OSM    H6S18196   1.316   2.331   3.642  0.1908  1.4034  0.8766
  162OSM    H6T18197   1.388   2.457   3.550  0.8553 -0.4411 -0.3628
  162OSM    C7S18198   1.540   2.335   3.650  0.4651  0.6530 -0.0479
  162OSM    H7S18199   1.625   2.389   3.603 -0.1771  1.8381  0.1008
  162OSM    H7T18200   1.567   2.228   3.658 -2.6927 -0.2391  0.0183
  162OSM    C8S18201   1.537   2.380   3.798 -0.0504 -0.2541 -0.0497
  162OSM    H8S18202   1.464   2.463   3.795  0.7691  0.5615  1.7028
  162OSM    H8T18203   1.635   2.423   3.827 -0.7719  0.3368  1.6186
  162OSM    C9S18204   1.492   2.269   3.899  0.1075  0.6392  0.4819
  162OSM    H9S18205   1.572   2.194   3.915 -0.5033  0.0840  0.9826
  162OSM    H9T18206   1.404   2.223   3.848 -1.4215  1.1919  2.4634
  162OSM   C10S18207   1.447   2.328   4.028  0.3352  0.0631 -0.6141
  162OSM   H10S18208   1.392   2.246   4.078  0.5680 -0.0781 -0.5880
  162OSM   H10T18209   1.382   2.415   4.004  1.2209  0.8840 -0.1428
  162OSM   C11S18210   1.566   2.361   4.116  0.5811  0.5910 -0.5448
  162OSM   H11S18211   1.621   2.444   4.067  0.4665  0.8847 -0.1827
  162OSM   H11T18212   1.628   2.271   4.133  2.3281  1.4844 -1.9208
  162OSM   C12S18213   1.520   2.409   4.257 -0.3321 -0.1021 -0.1166
  162OSM   H12S18214   1.464   2.322   4.298  1.7993 -2.3874 -1.8247
  162OSM   H12T18215   1.457   2.499   4.237 -0.7230 -0.5244 -0.7983
  162OSM   C13S18216   1.634   2.442   4.358 -0.6409  0.7431  0.6392
  162OSM   H13S18217   1.692   2.527   4.315  0.5744 -0.9302 -1.1764
  162OSM   H13T18218   1.699   2.353   4.369  1.1951  2.1416  1.8533
  162OSM   C14S18219   1.582   2.468   4.502 -0.4860  0.1122 -0.9338
  162OSM   H14S18220   1.540   2.378   4.552  1.4201 -0.6798 -0.6868
  162OSM   H14T18221   1.509   2.552   4.495 -0.6942 -0.0698 -0.9655
  162OSM   C15S18222   1.697   2.524   4.594 -0.0056 -0.2424 -0.3102
  162OSM   H15S18223   1.792   2.546   4.542 -1.1561  0.4963 -2.1984
  162OSM   H15T18224   1.717   2.465   4.686  1.3572 -1.4023 -1.2940
  162OSM   C16S18225   1.663   2.662   4.652  0.1553  0.1467 -0.5447
  162OSM   H16S18226   1.580   2.651   4.725 -0.1233  1.1695 -0.6920
  162OSM   H16T18227   1.621   2.735   4.578  2.4923  1.2689 -0.8475
  162OSM   C17S18228   1.780   2.738   4.714  0.8030 -0.3424  0.1299
  162OSM   H17S18229   1.865   2.757   4.646  0.6571  1.8867  0.5034
  162OSM   H17T18230   1.817   2.672   4.796 -1.7695 -1.2014  0.7129
  162OSM   C18S18231   1.730   2.863   4.782  0.2056  0.6203 -0.0245
  162OSM   H18S18232   1.802   2.913   4.850  1.3255  0.3828 -1.0193
  162OSM   H18T18233   1.637   2.834   4.835 -0.1334  1.3792 -0.1846
  162OSM   H18U18234   1.694   2.931   4.702 -1.3997 -0.5885 -0.3884
  162OSM    C1F18235   1.476   1.803   3.547 -0.2803 -0.1486 -0.0216
  162OSM     OF18236   1.578   1.741   3.534 -0.4201  0.3557 -0.1952
  162OSM    C2F18237   1.379   1.772   3.658  0.5748  0.3929 -0.8584
  162OSM    H2F18238   1.274   1.766   3.623  0.5256  1.5888 -0.9584
  162OSM    H2G18239   1.367   1.860   3.725 -1.1609 -0.3447 -0.1395
  162OSM    C3F18240   1.423   1.655   3.747  0.2712  0.0215  0.6688
  162OSM    H3F18241   1.533   1.660   3.758  0.1993  1.2829  0.9725
  162OSM    H3G18242   1.401   1.562   3.691  1.2485  0.2006 -0.0333
  162OSM    C4F18243   1.360   1.657   3.891  0.6725  0.1177 -0.7621
  162OSM    H4F18244   1.250   1.667   3.881  0.5920 -2.0661 -2.8825
  162OSM    H4G18245   1.377   1.747   3.955 -0.5799 -0.6999  0.7767
  162OSM    C5F18246   1.405   1.531   3.962  0.3078  0.4333  0.3079
  162OSM    H5F18247   1.516   1.533   3.963  0.3027  1.9739  0.2402
  162OSM    H5G18248   1.356   1.445   3.912 -1.6156  0.4425  2.0028
  162OSM    C6F18249   1.340   1.535   4.104  0.1335  1.4103  0.1869
  162OSM    H6F18250   1.333   1.433   4.148 -1.1922  0.8187 -1.3092
  162OSM    H6G18251   1.233   1.564   4.104 -0.8772 -1.8861  0.9150
  162OSM    C7F18252   1.416   1.625   4.202  0.3193  0.1745 -0.4872
  162OSM    H7F18253   1.388   1.729   4.177 -3.0137 -0.0254  1.8088
  162OSM    H7G18254   1.526   1.610   4.199  0.1045 -1.4922 -3.2441
  162OSM    C8F18255   1.372   1.601   4.349  0.1142 -0.7061  0.1132
  162OSM    H8F18256   1.261   1.604   4.350  0.1208  1.2629  0.1613
  162OSM    H8G18257   1.415   1.689   4.402  0.7189 -1.3991  0.7902
  162OSM    C9F18258   1.425   1.471   4.405 -0.4045 -0.6017 -0.8176
  162OSM    H9F18259   1.444   1.391   4.332  1.2516  0.4156 -1.5812
  162OSM   C10F18260   1.466   1.449   4.528 -1.1818 -0.5237  0.1813
  162OSM   H10F18261   1.521   1.358   4.556  0.2108 -0.0318 -0.8644
  162OSM   C11F18262   1.471   1.546   4.644 -0.0845  0.7451  1.0874
  162OSM   H11F18263   1.367   1.576   4.670  0.4153  2.3909  1.2983
  162OSM   H11G18264   1.522   1.636   4.605 -1.7334  0.3550 -2.3467
  162OSM   C12F18265   1.538   1.486   4.768  0.7053  0.0038  0.3908
  162OSM   H12F18266   1.644   1.465   4.740  0.8140  0.5896  0.3614
  162OSM   H12G18267   1.488   1.389   4.791  0.8383 -0.3407 -0.6624
  162OSM   C13F18268   1.549   1.591   4.879  0.2740 -0.6982 -0.4642
  162OSM   H13F18269   1.529   1.545   4.978 -0.2562  2.5791  1.0804
  162OSM   H13G18270   1.479   1.675   4.859  1.9900  0.1164 -3.6188
  162OSM   C14F18271   1.687   1.655   4.899 -0.6934  0.7427  0.0543
  162OSM   H14F18272   1.703   1.718   4.808  1.2823 -0.8204 -0.7515
  162OSM   H14G18273   1.758   1.570   4.895  3.2866  3.7900 -1.2412
  162OSM   C15F18274   1.703   1.734   5.024  0.6166 -0.5233 -0.3059
  162OSM   H15F18275   1.811   1.740   5.050  0.2197 -1.7190  1.8726
  162OSM   H15G18276   1.657   1.687   5.113  0.2081  1.8876  0.8602
  162OSM   C16F18277   1.643   1.877   5.028 -0.0248  0.2065 -0.0251
  162OSM   H16F18278   1.647   1.904   5.136  0.6122  1.6373 -0.3782
  162OSM   H16G18279   1.539   1.882   4.990 -1.6927 -0.8092  3.8655
  162OSM   C17F18280   1.729   1.969   4.950 -0.1805 -0.5700 -0.1215
  162OSM   H17F18281   1.738   1.953   4.841  1.7098  1.8308 -0.4051
  162OSM   H17G18282   1.829   1.941   4.990 -0.9269 -1.3594  1.2821
  162OSM   C18F18283   1.717   2.122   4.972  0.1749 -0.3374  0.2508
  162OSM   H18F18284   1.797   2.179   4.921 -1.7941  2.1682 -0.2556
  162OSM   H18G18285   1.722   2.136   5.082 -0.4129 -0.5151  0.3068
  162OSM   H18H18286   1.618   2.159   4.939  1.3413  1.4077 -1.4675
  163OSM      N18287   6.559   1.434   2.740 -0.6226 -0.2524 -0.2001
  163OSM    C1518288   6.614   1.296   2.721 -0.4137  0.8227  0.0189
  163OSM   H15A18289   6.720   1.289   2.739 -0.5368 -2.8543  0.0253
  163OSM   H15B18290   6.601   1.277   2.616 -1.2859  2.7703 -0.2730
  163OSM   H15C18291   6.573   1.218   2.783 -0.2245  2.8962  2.9987
  163OSM    C1418292   6.626   1.523   2.628 -0.3983  0.1812 -0.1796
  163OSM   H14A18293   6.619   1.628   2.650  2.4239  0.4257 -0.1332
  163OSM   H14B18294   6.584   1.516   2.528 -1.0624 -0.4934  0.1319
  163OSM   H14C18295   6.731   1.499   2.623 -0.1908  1.1765 -0.9095
  163OSM    C1318296   6.411   1.436   2.711 -1.1514 -0.3308  0.9595
  163OSM   H13A18297   6.392   1.384   2.619 -0.7389  0.5543  0.3626
  163OSM   H13B18298   6.381   1.537   2.688 -1.5816 -0.8836 -1.1131
  163OSM   H13C18299   6.356   1.385   2.789 -0.9381 -2.4812 -0.2278
  163OSM    C1218300   6.588   1.495   2.880 -0.1210  0.0541 -0.9480
  163OSM   H12A18301   6.559   1.599   2.882  1.1674  0.4366 -0.7340
  163OSM   H12B18302   6.696   1.506   2.887 -0.2571  0.4835  0.7252
  163OSM    C1118303   6.529   1.426   3.002 -0.4290  0.2039  0.3395
  163OSM   H11A18304   6.571   1.461   3.098 -0.0689  1.4379 -0.2555
  163OSM   H11B18305   6.539   1.315   3.003 -1.0713  0.1088 -0.9443
  163OSM      P18306   6.339   1.590   3.060 -0.3797  0.2113 -0.1392
  163OSM    O1318307   6.358   1.696   2.957 -0.1193  0.5350 -0.3201
  163OSM    O1418308   6.203   1.582   3.110  0.1602  0.6171  0.1701
  163OSM    O1118309   6.428   1.622   3.189  0.3452  0.4198 -0.2341
  163OSM    O1218310   6.392   1.449   3.002  0.1633 -0.1561  0.2049
  163OSM    C1S18311   6.532   1.718   3.181 -0.4118 -0.7751  0.4047
  163OSM    H1S18312   6.494   1.808   3.128  0.3785 -0.4523  0.3849
  163OSM    H1T18313   6.612   1.685   3.112  0.3594  1.6078  0.0886
  163OSM     NF18314   6.694   1.860   3.310  0.3518  0.6250 -0.4976
  163OSM    HNF18315   6.788   1.835   3.329  0.2285  0.0193 -0.6682
  163OSM    C2S18316   6.601   1.748   3.318  0.1403 -0.0860  0.6513
  163OSM    H2S18317   6.525   1.786   3.390  0.0048  2.2193 -0.5835
  163OSM    C3S18318   6.667   1.618   3.364  0.1779 -0.0445 -0.5131
  163OSM    H3S18319   6.744   1.575   3.296  2.2439  2.5686  0.0077
  163OSM     O318320   6.569   1.516   3.392  0.3102 -0.7082 -0.1863
  163OSM    HO318321   6.489   1.531   3.341 -0.5518 -1.5812  0.8630
  163OSM    C4S18322   6.739   1.645   3.496 -0.1601  0.5809 -0.8342
  163OSM    H4S18323   6.679   1.648   3.588  1.1414 -1.2546  0.1460
  163OSM    C5S18324   6.873   1.662   3.503  0.1883  0.6207 -0.2304
  163OSM    H5S18325   6.933   1.647   3.413 -1.0445 -1.9476 -0.7160
  163OSM    C6S18326   6.959   1.701   3.626 -0.3959 -0.4543  0.6507
  163OSM    H6S18327   6.999   1.805   3.620 -0.5180 -0.4861 -1.5549
  163OSM    H6T18328   7.056   1.646   3.626  0.4158  0.9272  0.5439
  163OSM    C7S18329   6.897   1.675   3.767 -0.7777 -0.0354  0.8228
  163OSM    H7S18330   6.897   1.566   3.787  1.3208 -0.1934  0.1208
  163OSM    H7T18331   6.795   1.717   3.749 -0.9582 -0.6364  0.3800
  163OSM    C8S18332   6.963   1.757   3.879  0.0103 -0.4837 -0.2923
  163OSM    H8S18333   6.957   1.866   3.858  0.1294 -0.7390 -1.7011
  163OSM    H8T18334   7.072   1.736   3.886 -0.1463 -1.1144  0.3285
  163OSM    C9S18335   6.885   1.727   4.006  0.1799  0.1934 -0.4928
  163OSM    H9S18336   6.882   1.616   4.016  0.7241 -0.0615 -2.7106
  163OSM    H9T18337   6.780   1.759   3.990 -0.6327 -0.8323  2.2595
  163OSM   C10S18338   6.945   1.795   4.128 -0.1604 -0.0260  0.4192
  163OSM   H10S18339   6.942   1.905   4.108  0.1274 -0.2300 -0.8609
  163OSM   H10T18340   7.049   1.761   4.141  0.1115 -1.0961 -3.3726
  163OSM   C11S18341   6.875   1.771   4.266  0.8335  0.1927 -0.3470
  163OSM   H11S18342   6.894   1.663   4.284 -0.0846  0.1305  0.3326
  163OSM   H11T18343   6.766   1.792   4.258  0.8233 -0.2393 -1.5182
  163OSM   C12S18344   6.924   1.856   4.380 -0.0929 -0.5899 -0.1344
  163OSM   H12S18345   6.889   1.961   4.367 -4.1447 -1.5327  1.9164
  163OSM   H12T18346   7.035   1.865   4.386 -0.1737 -0.4394  1.3857
  163OSM   C13S18347   6.880   1.800   4.508 -0.2789 -0.3100  0.3188
  163OSM   H13S18348   6.905   1.692   4.506  0.0574 -0.2323 -1.1938
  163OSM   H13T18349   6.769   1.810   4.516 -0.4625 -2.8426  2.0124
  163OSM   C14S18350   6.950   1.862   4.635  0.0799 -0.4239 -0.8060
  163OSM   H14S18351   6.877   1.942   4.660  1.7928  0.4273  1.8026
  163OSM   H14T18352   7.051   1.903   4.610  0.2515 -0.3049  0.0550
  163OSM   C15S18353   6.945   1.764   4.751  0.0689 -0.3596  0.2837
  163OSM   H15S18354   7.009   1.677   4.725 -0.1511 -0.2132 -0.7879
  163OSM   H15T18355   6.842   1.721   4.743 -0.6364  1.2250  0.5287
  163OSM   C16S18356   6.965   1.823   4.890 -0.4442  0.1023  0.0701
  163OSM   H16S18357   7.047   1.899   4.884  0.4554 -0.8767 -0.3009
  163OSM   H16T18358   7.010   1.741   4.949  1.2922 -0.0228 -1.3404
  163OSM   C17S18359   6.836   1.878   4.959  0.0052  0.1838 -0.9543
  163OSM   H17S18360   6.808   1.947   4.877  0.7553  0.0443 -1.3407
  163OSM   H17T18361   6.855   1.947   5.044  0.4558 -0.8489 -0.2033
  163OSM   C18S18362   6.716   1.787   4.993 -0.2791  0.4475 -0.0140
  163OSM   H18S18363   6.700   1.720   4.906  0.1362 -0.5246  0.6388
  163OSM   H18T18364   6.623   1.842   5.019 -0.7636  0.1406 -1.0626
  163OSM   H18U18365   6.724   1.716   5.079  1.8907  0.3798 -0.2371
  163OSM    C1F18366   6.656   1.988   3.306  0.2029  1.3195 -0.5607
  163OSM     OF18367   6.535   2.008   3.295 -0.7340  0.7074  0.1837
  163OSM    C2F18368   6.757   2.093   3.328  0.7939  0.9916 -0.1693
  163OSM    H2F18369   6.760   2.167   3.246  0.1228  1.8710  0.5708
  163OSM    H2G18370   6.855   2.044   3.346 -0.5759 -1.4997  0.9831
  163OSM    C3F18371   6.725   2.183   3.456 -0.3649 -0.1547  0.0518
  163OSM    H3F18372   6.636   2.138   3.505 -0.9867 -0.8947 -1.6807
  163OSM    H3G18373   6.692   2.275   3.402 -0.9650 -0.1999  0.3328
  163OSM    C4F18374   6.840   2.226   3.545  0.3701  0.5118  0.7467
  163OSM    H4F18375   6.816   2.304   3.619 -2.6421  0.4119 -0.0219
  163OSM    H4G18376   6.919   2.261   3.474 -1.8327 -0.5361 -2.4804
  163OSM    C5F18377   6.876   2.104   3.631 -0.6368  0.5568 -0.6175
  163OSM    H5F18378   6.871   2.008   3.576 -0.1368 -1.5825  2.7469
  163OSM    H5G18379   6.791   2.089   3.702 -1.3624 -3.1136 -2.0164
  163OSM    C6F18380   7.017   2.119   3.695  0.2295 -0.0596  0.1235
  163OSM    H6F18381   7.003   2.069   3.793  1.1935 -2.5997 -0.9495
  163OSM    H6G18382   7.039   2.226   3.716  1.2055 -0.4688  1.3385
  163OSM    C7F18383   7.128   2.055   3.618 -1.1192 -0.6914 -0.3298
  163OSM    H7F18384   7.168   2.117   3.535  0.5172 -1.6125 -0.2868
  163OSM    H7G18385   7.094   1.965   3.561 -0.3958  0.0111 -1.9451
  163OSM    C8F18386   7.248   2.012   3.711  0.8194 -0.4911 -0.2790
  163OSM    H8F18387   7.320   1.954   3.649  1.3680  0.2145 -0.3099
  163OSM    H8G18388   7.198   1.939   3.778 -0.8234 -0.9838 -1.9427
  163OSM    C9F18389   7.305   2.121   3.793 -0.4293  0.7416 -0.4600
  163OSM    H9F18390   7.382   2.178   3.740  1.6184 -1.1801  0.2864
  163OSM   C10F18391   7.283   2.152   3.922 -0.0417 -0.6547  0.4373
  163OSM   H10F18392   7.340   2.236   3.964  0.0424 -0.2036 -0.5439
  163OSM   C11F18393   7.197   2.091   4.033 -0.1318  1.1920  0.5546
  163OSM   H11F18394   7.159   1.992   4.000 -1.8449  2.5895 -2.1030
  163OSM   H11G18395   7.118   2.164   4.061 -3.1699 -2.2175  1.5416
  163OSM   C12F18396   7.280   2.057   4.156 -0.2689  0.2534 -0.0922
  163OSM   H12F18397   7.382   2.036   4.119 -0.4766 -0.0131 -0.5163
  163OSM   H12G18398   7.243   1.968   4.211 -1.1719  1.0117  0.5589
  163OSM   C13F18399   7.310   2.167   4.256  0.3077  0.2301 -0.0827
  163OSM   H13F18400   7.267   2.265   4.226  0.2775  0.4580  0.6647
  163OSM   H13G18401   7.418   2.182   4.276  0.7167 -1.0944 -1.1437
  163OSM   C14F18402   7.245   2.144   4.393 -0.1996  0.5886 -0.1579
  163OSM   H14F18403   7.287   2.052   4.437 -1.5175  0.3388  0.6295
  163OSM   H14G18404   7.139   2.119   4.371 -0.1741 -0.7112  1.0970
  163OSM   C15F18405   7.250   2.268   4.475  0.0347  0.7943 -0.8070
  163OSM   H15F18406   7.180   2.342   4.430 -0.9369  0.9064  0.8040
  163OSM   H15G18407   7.354   2.306   4.467  0.2999 -0.1640 -2.1316
  163OSM   C16F18408   7.207   2.262   4.626 -0.7416 -0.1350  0.2857
  163OSM   H16F18409   7.250   2.349   4.680  1.3613 -1.2892  0.5426
  163OSM   H16G18410   7.260   2.172   4.663 -0.3687 -0.7256 -1.5560
  163OSM   C17F18411   7.054   2.245   4.646 -0.7218  0.3005  0.0999
  163OSM   H17F18412   7.035   2.140   4.615 -1.5171  0.3100  0.5284
  163OSM   H17G18413   7.002   2.323   4.587 -2.0208 -0.4499  0.2227
  163OSM   C18F18414   7.029   2.253   4.794  0.3593 -0.0380 -0.5289
  163OSM   H18F18415   7.064   2.351   4.832  1.4733 -0.6176 -0.0478
  163OSM   H18G18416   7.091   2.186   4.857 -0.7874 -0.3514  0.3072
  163OSM   H18H18417   6.923   2.242   4.828  0.8678  1.6682  1.8798
  164OSM      N18418   2.402   1.175   2.695  0.0239  0.1611 -0.0822
  164OSM    C1518419   2.366   1.074   2.598 -0.3329  0.5702 -0.3581
  164OSM   H15A18420   2.380   1.128   2.505  0.0777  1.0283 -0.0330
  164OSM   H15B18421   2.260   1.053   2.597 -0.5688  1.4261 -3.2773
  164OSM   H15C18422   2.426   0.985   2.611  0.9316  1.6656  2.0495
  164OSM    C1418423   2.345   1.304   2.635 -0.9522 -0.5242 -0.3847
  164OSM   H14A18424   2.366   1.382   2.707  1.5800 -0.0730 -1.4846
  164OSM   H14B18425   2.240   1.303   2.612 -0.8286 -1.4389 -0.9511
  164OSM   H14C18426   2.395   1.350   2.551 -3.0143  0.9810 -0.8546
  164OSM    C1318427   2.326   1.141   2.823  0.4134  0.3126 -0.3208
  164OSM   H13A18428   2.222   1.121   2.802  0.4960 -0.2889 -0.1777
  164OSM   H13B18429   2.339   1.223   2.893  2.4348  0.8541 -1.2479
  164OSM   H13C18430   2.376   1.059   2.873  1.9852  1.0457 -0.6323
  164OSM    C1218431   2.554   1.188   2.728 -0.2770 -0.1038  0.3172
  164OSM   H12A18432   2.602   1.223   2.638  2.5360  0.3550  1.8749
  164OSM   H12B18433   2.598   1.093   2.754  0.5495  0.1967  0.0471
  164OSM    C1118434   2.598   1.292   2.835 -0.0726 -0.3858  0.3655
  164OSM   H11A18435   2.709   1.303   2.836 -0.1074  0.7429 -1.7563
  164OSM   H11B18436   2.568   1.259   2.937  0.8594  3.2886  2.0208
  164OSM      P18437   2.584   1.556   2.828  0.2059  0.0675  0.0060
  164OSM    O1318438   2.714   1.562   2.759 -0.0780  0.8347 -0.2791
  164OSM    O1418439   2.485   1.656   2.776  0.0660 -0.2312 -0.6183
  164OSM    O1118440   2.594   1.572   2.984 -0.9295  0.6376  0.1024
  164OSM    O1218441   2.527   1.408   2.823  0.6867 -0.2926  0.1005
  164OSM    C1S18442   2.610   1.706   3.037  0.9274  1.2651  0.3110
  164OSM    H1S18443   2.521   1.764   3.003 -0.7442 -1.4320 -0.2201
  164OSM    H1T18444   2.698   1.759   2.995  3.1147 -0.9681  1.8209
  164OSM     NF18445   2.630   1.849   3.237 -0.4325  0.1731  0.4153
  164OSM    HNF18446   2.714   1.903   3.243 -0.1808  0.3666 -3.1549
  164OSM    C2S18447   2.639   1.708   3.187 -0.0157 -0.6770  0.1076
  164OSM    H2S18448   2.549   1.664   3.235 -0.1171  1.5964  2.1414
  164OSM    C3S18449   2.778   1.640   3.218  0.3672 -0.2336 -0.8588
  164OSM    H3S18450   2.864   1.691   3.169  0.0985 -0.1569 -1.2576
  164OSM     O318451   2.787   1.505   3.178  0.1142  0.1653 -0.1051
  164OSM    HO318452   2.702   1.488   3.138  0.9017 -0.9567 -1.4048
  164OSM    C4S18453   2.817   1.662   3.366  0.2109  0.3679 -0.5364
  164OSM    H4S18454   2.885   1.749   3.365 -0.0911  0.6216  0.3298
  164OSM    C5S18455   2.790   1.580   3.475 -0.0089 -0.3254  0.1771
  164OSM    H5S18456   2.727   1.490   3.472 -0.9919  0.0667  4.0972
  164OSM    C6S18457   2.850   1.594   3.615  0.7244  0.2578 -0.5825
  164OSM    H6S18458   2.905   1.501   3.641  1.6701  0.6722 -1.0668
  164OSM    H6T18459   2.771   1.610   3.692 -0.6389 -0.5954 -1.7453
  164OSM    C7S18460   2.945   1.719   3.645 -0.4372  0.1983  0.1586
  164OSM    H7S18461   2.898   1.820   3.639 -0.8501  0.0683  1.0471
  164OSM    H7T18462   3.015   1.727   3.560 -0.8671  2.8032 -0.0442
  164OSM    C8S18463   3.025   1.696   3.778 -0.1516 -0.8500  0.2606
  164OSM    H8S18464   3.111   1.767   3.781  1.5268 -2.6812 -1.2753
  164OSM    H8T18465   3.071   1.595   3.787  1.8466 -0.1768 -1.4142
  164OSM    C9S18466   2.931   1.724   3.897  0.4721 -0.3968  0.0954
  164OSM    H9S18467   2.848   1.651   3.889  0.7977 -0.7269 -0.3732
  164OSM    H9T18468   2.896   1.827   3.879 -1.3447 -0.3427  3.2877
  164OSM   C10S18469   3.006   1.715   4.027  0.1343 -0.0032  0.4461
  164OSM   H10S18470   3.079   1.799   4.036 -1.6517  1.6932 -0.0890
  164OSM   H10T18471   3.068   1.623   4.035  1.7007  1.1755  4.2145
  164OSM   C11S18472   2.905   1.735   4.145 -0.1735 -0.0091 -0.4763
  164OSM   H11S18473   2.826   1.656   4.146 -0.2523  0.0352  1.6831
  164OSM   H11T18474   2.844   1.828   4.148  0.7253  0.6031  2.7717
  164OSM   C12S18475   2.980   1.728   4.284 -0.6671  0.3891 -0.3411
  164OSM   H12S18476   3.074   1.786   4.298  0.7524 -2.2285  2.0977
  164OSM   H12T18477   3.029   1.629   4.300  1.4219  0.9159 -2.8198
  164OSM   C13S18478   2.886   1.752   4.400 -0.8777 -0.1462 -0.0704
  164OSM   H13S18479   2.801   1.680   4.399  1.2675 -2.8678  0.4483
  164OSM   H13T18480   2.841   1.853   4.394  2.3150  1.4726  0.6691
  164OSM   C14S18481   2.957   1.738   4.535  0.3317  0.0166  0.0371
  164OSM   H14S18482   3.046   1.803   4.546  1.3325 -1.2677 -0.2512
  164OSM   H14T18483   2.990   1.632   4.546 -0.3067 -0.1549  0.3359
  164OSM   C15S18484   2.859   1.765   4.646 -0.8055 -0.6623  0.0358
  164OSM   H15S18485   2.781   1.686   4.642  1.4602 -3.0175 -0.9237
  164OSM   H15T18486   2.814   1.864   4.625 -2.0118 -0.6857  2.2876
  164OSM   C16S18487   2.917   1.764   4.786 -0.4095 -0.5356 -0.4141
  164OSM   H16S18488   2.947   1.659   4.806 -1.7553 -1.0837 -1.1038
  164OSM   H16T18489   2.848   1.812   4.858  0.5030  3.4497 -1.8982
  164OSM   C17S18490   3.039   1.862   4.797  0.8375 -0.2352 -0.3690
  164OSM   H17S18491   3.010   1.955   4.744 -0.1480  1.2140  2.4704
  164OSM   H17T18492   3.123   1.816   4.741  1.0429  1.7049 -1.7487
  164OSM   C18S18493   3.087   1.881   4.944  0.1082  0.3073  0.3157
  164OSM   H18S18494   3.041   1.963   5.003  1.4903 -0.3549  2.4195
  164OSM   H18T18495   3.195   1.907   4.948  0.1067  0.4298 -0.3378
  164OSM   H18U18496   3.075   1.791   5.008 -1.1041 -0.2107 -0.5929
  164OSM    C1F18497   2.516   1.909   3.235 -0.4832 -0.3208 -0.6410
  164OSM     OF18498   2.414   1.847   3.215  0.1351  0.0652 -0.1635
  164OSM    C2F18499   2.522   2.064   3.247  0.4677  0.8535 -0.2813
  164OSM    H2F18500   2.546   2.099   3.144  0.8625 -2.1549 -1.3144
  164OSM    H2G18501   2.610   2.090   3.310 -0.0513 -2.2644  1.9615
  164OSM    C3F18502   2.390   2.135   3.288 -0.0503  0.3193 -0.7175
  164OSM    H3F18503   2.368   2.103   3.392 -1.9646 -0.8603 -1.4161
  164OSM    H3G18504   2.297   2.096   3.239 -1.2605  1.6181  0.4646
  164OSM    C4F18505   2.383   2.286   3.300 -0.4662 -0.3901 -0.4631
  164OSM    H4F18506   2.275   2.312   3.296 -0.2720  0.3537 -1.0023
  164OSM    H4G18507   2.431   2.334   3.213 -0.4648 -0.5585 -0.5547
  164OSM    C5F18508   2.441   2.341   3.431  0.6650 -0.0377 -0.9035
  164OSM    H5F18509   2.550   2.322   3.424  1.1786  2.2105 -0.0790
  164OSM    H5G18510   2.401   2.273   3.509 -0.1601  1.4502  0.0350
  164OSM    C6F18511   2.398   2.483   3.457 -0.1093  0.5528  0.3548
  164OSM    H6F18512   2.290   2.478   3.483  0.1222  1.3995  1.5592
  164OSM    H6G18513   2.406   2.542   3.363  0.0041 -0.7601 -0.4868
  164OSM    C7F18514   2.478   2.543   3.573 -0.0055  0.3604 -0.8896
  164OSM    H7F18515   2.583   2.552   3.539  0.2793  1.0222  0.1152
  164OSM    H7G18516   2.469   2.475   3.660  0.0918  0.4346 -0.8209
  164OSM    C8F18517   2.434   2.689   3.600 -0.4794  0.2021 -0.9141
  164OSM    H8F18518   2.328   2.688   3.631  0.2529 -1.4582  1.9154
  164OSM    H8G18519   2.430   2.745   3.504  3.6791  1.8299 -0.3584
  164OSM    C9F18520   2.511   2.778   3.693 -0.1027  0.6981 -0.6158
  164OSM    H9F18521   2.561   2.869   3.657 -1.2238  2.3813  1.8216
  164OSM   C10F18522   2.497   2.767   3.827 -0.4857  0.2822 -0.4534
  164OSM   H10F18523   2.549   2.835   3.895  1.6310  0.5486 -2.2313
  164OSM   C11F18524   2.414   2.661   3.893  0.9658  0.5709  0.1616
  164OSM   H11F18525   2.470   2.594   3.962  2.1924 -1.6516 -2.7830
  164OSM   H11G18526   2.369   2.601   3.812  2.8592 -1.0111  0.2011
  164OSM   C12F18527   2.287   2.735   3.970 -0.4929  0.6864 -0.1438
  164OSM   H12F18528   2.334   2.789   4.054 -0.8053  0.5991  0.0884
  164OSM   H12G18529   2.227   2.651   4.012  0.4081 -1.0730 -2.1367
  164OSM   C13F18530   2.194   2.808   3.874  0.3500 -0.0958  0.0836
  164OSM   H13F18531   2.143   2.729   3.814  1.3322 -0.1809 -0.6640
  164OSM   H13G18532   2.252   2.879   3.811  0.2689  1.1251  1.3421
  164OSM   C14F18533   2.071   2.881   3.939  0.5663  0.0086  0.8192
  164OSM   H14F18534   1.991   2.894   3.862 -0.5437 -1.2102  1.7362
  164OSM   H14G18535   2.096   2.985   3.967 -2.5787  1.3043 -0.6729
  164OSM   C15F18536   1.992   2.802   4.052 -0.1426  0.0675  0.3813
  164OSM   H15F18537   2.064   2.752   4.121  0.3915  2.7955  1.9312
  164OSM   H15G18538   1.933   2.727   3.995  0.6840 -1.1549  1.0797
  164OSM   C16F18539   1.900   2.892   4.133 -0.0919  0.3103 -0.5305
  164OSM   H16F18540   1.819   2.925   4.065  0.8161 -1.4692 -2.5989
  164OSM   H16G18541   1.951   2.972   4.192  1.6360 -2.0425  1.4009
  164OSM   C17F18542   1.834   2.801   4.246  0.2207 -0.5492  1.2062
  164OSM   H17F18543   1.907   2.722   4.271 -1.3531 -1.7344  2.2354
  164OSM   H17G18544   1.746   2.753   4.198  1.0778 -1.3645  0.4105
  164OSM   C18F18545   1.795   2.890   4.363 -0.4544 -0.0877  0.2929
  164OSM   H18F18546   1.761   2.826   4.448  0.1293 -1.3324 -0.3791
  164OSM   H18G18547   1.708   2.952   4.332 -0.9704 -0.7616  0.3613
  164OSM   H18H18548   1.881   2.956   4.389 -0.0678  0.0268 -1.2100
  165SAPS     N18549   0.092   3.361   7.864  0.4076  0.4114  0.2031
  165SAPS   HN118550   0.177   3.413   7.894 -0.3340  0.2453  2.7627
  165SAPS   HN218551   0.112   3.288   7.791 -1.4869 -0.3345  0.3722
  165SAPS   HN318552   0.026   3.429   7.821  1.5182  1.3514 -0.0599
  165SAPS   C1218553   0.028   3.298   7.974 -0.7121 -0.1585 -1.5767
  165SAPS  H12A18554   0.002   3.384   8.033  0.2599 -0.4656 -0.6879
  165SAPS   C1318555  -0.100   3.217   7.950  0.2372  0.9476  0.7954
  165SAPS  O13A18556  -0.144   3.202   7.828  0.9685 -0.4380  0.2821
  165SAPS  O13B18557  -0.161   3.172   8.047  0.5958 -0.4250 -0.2738
  165SAPS   C1118558   0.131   3.212   8.054  0.5880 -0.2921  0.1822
  165SAPS  H11A18559   0.094   3.166   8.149 -1.8924 -4.2851 -2.3875
  165SAPS  H11B18560   0.227   3.265   8.068 -0.0710  0.5287  1.9203
  165SAPS     P18561   0.274   2.989   8.005 -0.1793 -0.0645 -0.2899
  165SAPS   O1318562   0.411   3.043   8.014 -0.3348 -0.4577 -0.2436
  165SAPS   O1418563   0.219   2.915   8.120 -0.2364 -0.1926  0.1538
  165SAPS   O1218564   0.168   3.101   7.978  0.3645 -0.0718 -0.0064
  165SAPS   O1118565   0.253   2.892   7.883  0.6111 -0.5708 -0.2779
  165SAPS    C118566   0.117   2.878   7.841 -0.0855  0.0938  0.4334
  165SAPS    HA18567   0.071   2.792   7.895 -0.9366  1.7699  2.5376
  165SAPS    HB18568   0.048   2.963   7.857  1.9143  2.4398 -2.3920
  165SAPS    C218569   0.106   2.851   7.684  0.4991  0.3315 -0.3968
  165SAPS    HS18570   0.004   2.815   7.657  0.6269 -0.7877  0.5313
  165SAPS   O2118571   0.207   2.754   7.647 -0.1278  1.1639 -0.0004
  165SAPS   C2118572   0.179   2.628   7.675  0.4465 -0.3723 -0.5341
  165SAPS   O2218573   0.086   2.586   7.740  0.4827 -0.2262 -0.0364
  165SAPS   C2218574   0.272   2.536   7.596 -0.3233  0.2828 -0.9701
  165SAPS   H2R18575   0.377   2.556   7.628 -0.9116 -0.4356  1.6207
  165SAPS   H2S18576   0.247   2.430   7.620 -4.0135  1.0408 -0.9755
  165SAPS    C318577   0.134   2.988   7.618 -0.4675  0.3581 -0.1953
  165SAPS    HX18578   0.241   3.001   7.646 -0.6282 -0.9004  1.0814
  165SAPS    HY18579   0.075   3.061   7.677 -0.3877 -1.3935  2.1885
  165SAPS   O3118580   0.112   2.991   7.475  0.4821  0.9354 -0.2927
  165SAPS   C3118581   0.207   2.944   7.395 -0.5704  0.0517 -0.0475
  165SAPS   O3218582   0.321   2.901   7.425 -0.2889  0.1383  0.1363
  165SAPS   C3218583   0.154   2.929   7.254  0.0023 -0.2776  0.0579
  165SAPS   H2X18584   0.134   3.033   7.220  0.8788  0.0758  0.5671
  165SAPS   H2Y18585   0.062   2.867   7.257 -1.1963  1.4019 -0.7687
  165SAPS   C2318586   0.260   2.549   7.440 -0.4203  0.0696 -0.3343
  165SAPS   H3R18587   0.304   2.464   7.385 -0.8461 -0.0348 -0.5200
  165SAPS   H3S18588   0.323   2.637   7.414  2.9521 -2.0804 -0.0118
  165SAPS   C2418589   0.119   2.566   7.388  0.2723 -0.9253  0.0111
  165SAPS   H4R18590   0.120   2.594   7.281 -0.3882  0.2040  0.2787
  165SAPS   H4S18591   0.074   2.659   7.430 -2.2011 -2.3069  0.5728
  165SAPS   C2518592   0.044   2.440   7.422 -0.3151  0.2824 -0.5349
  165SAPS   H5R18593   0.017   2.430   7.529  0.7162 -0.9622 -0.3624
  165SAPS   C2618594   0.010   2.339   7.338 -1.1902  0.1668  0.1011
  165SAPS   H6R18595  -0.053   2.255   7.372 -1.5725  0.7651  0.8773
  165SAPS   C2718596   0.052   2.350   7.195  0.1042  0.2047  0.1970
  165SAPS   H7R18597   0.157   2.380   7.174 -0.3059 -0.1348 -2.7655
  165SAPS   H7S18598  -0.023   2.418   7.150 -0.4805  0.2019  1.1297
  165SAPS   C2818599   0.053   2.217   7.122 -1.0024 -0.2033  0.4667
  165SAPS   H8R18600   0.083   2.127   7.176  2.7420  1.0278  0.7088
  165SAPS   C2918601   0.045   2.195   6.991 -0.2705  1.1395  0.2489
  165SAPS   H9R18602   0.059   2.095   6.948  3.4753  0.9526  1.5966
  165SAPS  C21018603   0.021   2.305   6.893  0.5123 -0.5735  0.5191
  165SAPS  H10R18604  -0.038   2.392   6.929  2.0199  0.7886 -0.1647
  165SAPS  H10S18605  -0.050   2.265   6.817 -0.4196 -0.0687  1.1195
  165SAPS  C21118606   0.145   2.365   6.843 -0.3229  0.2424 -0.3225
  165SAPS  H11R18607   0.218   2.391   6.921 -1.5781 -1.1007  1.3591
  165SAPS  C21218608   0.192   2.358   6.716  0.5016 -0.6496 -0.4807
  165SAPS  H12R18609   0.296   2.393   6.709  0.2013  0.1984 -0.7858
  165SAPS  C21318610   0.115   2.317   6.592  0.0337 -0.3932 -0.9175
  165SAPS  H13R18611   0.122   2.406   6.526 -1.5213  0.0895 -0.4767
  165SAPS  H13S18612   0.008   2.298   6.617 -0.1261  2.2853  0.8263
  165SAPS  C21418613   0.172   2.189   6.537 -0.1117  0.3729 -0.2117
  165SAPS  H14R18614   0.186   2.107   6.608 -2.0612  1.6962  1.8784
  165SAPS  C21518615   0.194   2.154   6.412  1.1320  0.5808  0.0658
  165SAPS  H15R18616   0.227   2.052   6.385 -0.1315  0.6044 -1.7689
  165SAPS  C21618617   0.162   2.242   6.294 -0.8800 -0.5334 -0.0237
  165SAPS  H16R18618   0.234   2.325   6.280  0.0163 -0.9301  1.8730
  165SAPS  H16S18619   0.060   2.283   6.312 -0.7596  0.3981 -1.3551
  165SAPS  C21718620   0.172   2.166   6.164 -0.4679  0.0786  0.8733
  165SAPS  H17R18621   0.078   2.107   6.158 -0.3179 -0.0489 -0.3899
  165SAPS  H17S18622   0.262   2.101   6.172  1.5005  2.5972  0.3109
  165SAPS  C21818623   0.184   2.266   6.048 -0.4129  0.4748  0.4738
  165SAPS  H18R18624   0.286   2.311   6.053  0.1713 -0.7716  0.2650
  165SAPS  H18S18625   0.105   2.343   6.058 -0.1452  0.7349  0.6018
  165SAPS  C21918626   0.167   2.206   5.906  0.8258  0.7010 -0.4160
  165SAPS  H19R18627   0.074   2.147   5.914  2.6245 -2.2582  0.5147
  165SAPS  H19S18628   0.253   2.138   5.886  1.0906  1.2550 -1.2333
  165SAPS  C22018629   0.157   2.301   5.779 -0.5950 -0.1395 -0.2554
  165SAPS  H20R18630   0.150   2.233   5.691 -2.4919 -0.9896  0.5030
  165SAPS  H20S18631   0.253   2.358   5.776 -0.9274  0.5283  0.9444
  165SAPS  H20T18632   0.077   2.377   5.778  0.2609  0.7974  0.2359
  165SAPS   C3318633   0.258   2.864   7.156  0.9449  0.1025  0.0616
  165SAPS   H3X18634   0.281   2.764   7.199  4.8090  1.0748  0.6990
  165SAPS   H3Y18635   0.360   2.909   7.145 -0.2242  2.4905 -1.9129
  165SAPS   C3418636   0.211   2.844   7.014 -0.5869  0.1504 -0.3340
  165SAPS   H4X18637   0.154   2.935   6.986  1.1422  0.6739 -2.3822
  165SAPS   H4Y18638   0.138   2.760   7.015 -1.2300  0.7042  0.3939
  165SAPS   C3518639   0.319   2.815   6.905  1.1299  0.0793  0.3771
  165SAPS   H5X18640   0.385   2.734   6.941  1.0060  1.2028  3.4253
  165SAPS   H5Y18641   0.384   2.904   6.894 -0.0632  1.0872  1.1855
  165SAPS   C3618642   0.253   2.787   6.771 -0.3424 -0.1014  0.2435
  165SAPS   H6X18643   0.187   2.875   6.752 -1.1127 -0.1110  2.5821
  165SAPS   H6Y18644   0.181   2.702   6.777 -1.6235  0.9931  1.2282
  165SAPS   C3718645   0.347   2.757   6.659  0.3203 -0.4717 -0.0330
  165SAPS   H7X18646   0.392   2.656   6.668  0.0709 -0.5480  0.3570
  165SAPS   H7Y18647   0.435   2.825   6.660 -0.3122  0.4583 -1.8743
  165SAPS   C3818648   0.282   2.763   6.525  0.1315  0.3963 -0.1420
  165SAPS   H8X18649   0.269   2.871   6.504  0.7549  0.8913  1.8294
  165SAPS   H8Y18650   0.186   2.709   6.536 -0.7267  1.7731 -0.6415
  165SAPS   C3918651   0.353   2.688   6.416  0.4022  0.0059 -0.2020
  165SAPS   H9X18652   0.375   2.587   6.456 -1.0594 -0.0302  0.5885
  165SAPS   H9Y18653   0.457   2.725   6.400  0.2293  1.6927  2.0991
  165SAPS  C31018654   0.275   2.684   6.281 -0.2813 -0.1428 -0.1141
  165SAPS  H10X18655   0.240   2.790   6.275  1.8998  0.5496 -1.8025
  165SAPS  H10Y18656   0.190   2.615   6.299 -0.3488  0.4890  2.3656
  165SAPS  C31118657   0.361   2.642   6.165  0.1067  0.4270  0.2753
  165SAPS  H11X18658   0.415   2.546   6.185 -0.8355  0.0538  1.1197
  165SAPS  H11Y18659   0.442   2.717   6.178  0.3144 -0.0659  2.0946
  165SAPS  C31218660   0.301   2.647   6.023 -0.2611  1.0852  0.2817
  165SAPS  H12X18661   0.277   2.753   5.997  0.5456  0.9592 -1.0679
  165SAPS  H12Y18662   0.201   2.600   6.034 -1.4308  3.4975  0.6598
  165SAPS  C31318663   0.392   2.595   5.908  0.3277  0.4398 -0.1188
  165SAPS  H13X18664   0.380   2.485   5.924 -4.5191  0.9914  1.6891
  165SAPS  H13Y18665   0.494   2.629   5.931  0.6103 -1.3613  1.5959
  165SAPS  C31418666   0.341   2.638   5.769  0.1709 -0.3694 -0.0839
  165SAPS  H14X18667   0.330   2.748   5.776  1.3308 -0.3340  1.8647
  165SAPS  H14Y18668   0.239   2.600   5.746  0.3587 -1.4318  0.7393
  165SAPS  C31518669   0.439   2.590   5.659 -0.3319  0.5444  0.0543
  165SAPS  H15X18670   0.461   2.481   5.657 -1.0009  0.3921  0.6750
  165SAPS  H15Y18671   0.535   2.645   5.668  0.7429 -1.4250  1.4330
  165SAPS  C31618672   0.394   2.607   5.510 -0.4515 -0.2558 -0.6823
  165SAPS  H16X18673   0.364   2.710   5.483  0.3529  0.1417 -0.1050
  165SAPS  H16Y18674   0.308   2.537   5.499 -1.3517  0.5146  1.0303
  165SAPS  C31718675   0.508   2.558   5.411 -0.1434 -0.8530 -0.0261
  165SAPS  H17X18676   0.558   2.460   5.422 -1.5473 -1.6013 -0.1770
  165SAPS  H17Y18677   0.580   2.643   5.406 -0.9063 -0.2193 -0.5237
  165SAPS  C31818678   0.439   2.552   5.275  0.2960 -0.1604 -0.4910
  165SAPS  H18X18679   0.386   2.455   5.287  0.1890 -0.1457 -0.8619
  165SAPS  H18Y18680   0.520   2.547   5.199  1.5304 -0.5182  0.7819
  165SAPS  H18Z18681   0.363   2.631   5.259  0.1147 -0.1074  0.5739
  166SAPS     N18682   4.712   3.825   7.231  0.0119 -0.3079 -0.2499
  166SAPS   HN118683   4.679   3.790   7.139 -0.8559  0.1772 -0.1435
  166SAPS   HN218684   4.641   3.888   7.275 -1.4447 -3.6496  2.7166
  166SAPS   HN318685   4.795   3.883   7.206  1.2973 -1.0801  1.9346
  166SAPS   C1218686   4.760   3.725   7.325  0.3715  0.9271 -0.4511
  166SAPS  H12A18687   4.825   3.779   7.393  1.8780  0.3775 -1.4054
  166SAPS   C1318688   4.652   3.664   7.420  0.4708  0.0485  0.8797
  166SAPS  O13A18689   4.529   3.699   7.414  0.3786 -0.3837 -0.1135
  166SAPS  O13B18690   4.701   3.605   7.522  0.3991 -0.0550 -0.2378
  166SAPS   C1118691   4.832   3.604   7.255  0.3963  0.3439 -0.3844
  166SAPS  H11A18692   4.862   3.540   7.340 -0.4200 -3.3872 -2.6767
  166SAPS  H11B18693   4.927   3.638   7.208  2.0608  1.6289  3.5217
  166SAPS     P18694   4.761   3.378   7.136  0.2769  0.0356  0.3291
  166SAPS   O1318695   4.801   3.304   7.251  0.2966  0.0077 -0.0173
  166SAPS   O1418696   4.631   3.338   7.070 -0.4823  0.0762  0.9215
  166SAPS   O1218697   4.754   3.532   7.169 -0.0116  0.8465 -0.2131
  166SAPS   O1118698   4.883   3.370   7.035  0.2899  0.3599 -0.1597
  166SAPS    C118699   4.888   3.439   6.917 -0.5921 -0.0656 -0.3786
  166SAPS    HA18700   4.787   3.479   6.894 -1.2657 -0.3316  1.8586
  166SAPS    HB18701   4.957   3.524   6.936 -0.1560 -0.5645  0.2967
  166SAPS    C218702   4.936   3.356   6.798 -0.6794 -0.4874  0.4859
  166SAPS    HS18703   4.957   3.427   6.715  1.8731 -1.0783  0.5258
  166SAPS   O2118704   4.833   3.272   6.766 -0.0244 -0.3133 -0.2332
  166SAPS   C2118705   4.761   3.289   6.654 -0.0055  0.1898 -0.0470
  166SAPS   O2218706   4.784   3.383   6.577 -0.1038  0.0074  0.2366
  166SAPS   C2218707   4.659   3.181   6.637 -0.5548  0.6747  0.8710
  166SAPS   H2R18708   4.666   3.116   6.726  0.5766 -0.1917  0.1776
  166SAPS   H2S18709   4.558   3.223   6.618 -0.2125  0.9989 -0.2984
  166SAPS    C318710   5.069   3.271   6.806 -0.1250 -0.3051  0.2067
  166SAPS    HX18711   5.077   3.204   6.894 -1.3933 -1.4685 -0.5374
  166SAPS    HY18712   5.151   3.345   6.820 -0.6086  0.1575  0.6401
  166SAPS   O3118713   5.077   3.185   6.690 -0.5683 -0.0977  0.2114
  166SAPS   C3118714   5.152   3.233   6.596 -0.3607  0.3126  0.2575
  166SAPS   O3218715   5.221   3.336   6.606  0.4926 -0.2277  0.5312
  166SAPS   C3218716   5.140   3.130   6.479  0.3274 -0.2528 -1.1317
  166SAPS   H2X18717   5.033   3.103   6.463  1.0849 -3.0165 -2.1383
  166SAPS   H2Y18718   5.196   3.040   6.511 -0.8639 -0.1466  1.4934
  166SAPS   C2318719   4.679   3.097   6.504 -0.2897 -1.3651 -0.3808
  166SAPS   H3R18720   4.597   3.023   6.500 -0.4951 -1.1381 -0.3798
  166SAPS   H3S18721   4.777   3.047   6.523  1.1258  1.1863 -0.3945
  166SAPS   C2418722   4.681   3.179   6.376  0.3871 -0.2505  0.2358
  166SAPS   H4R18723   4.767   3.250   6.379  0.0346  0.1886  0.1003
  166SAPS   H4S18724   4.585   3.234   6.359 -0.6359 -2.1052 -0.2773
  166SAPS   C2518725   4.692   3.096   6.252  0.7726 -0.0505  0.6369
  166SAPS   H5R18726   4.671   2.989   6.267  0.6226 -0.3313 -1.3430
  166SAPS   C2618727   4.729   3.139   6.129 -0.3481 -0.4933 -0.0262
  166SAPS   H6R18728   4.730   3.068   6.045  2.6911 -1.1392  0.4530
  166SAPS   C2718729   4.744   3.289   6.094 -0.0100  0.1463  0.7071
  166SAPS   H7R18730   4.708   3.356   6.175  0.7115  2.3878 -0.7409
  166SAPS   H7S18731   4.674   3.309   6.010 -1.5968  0.5423  2.0712
  166SAPS   C2818732   4.882   3.330   6.057 -1.6689 -0.6351  0.4599
  166SAPS   H8R18733   4.938   3.360   6.147 -1.1091  0.0093 -0.0943
  166SAPS   C2918734   4.950   3.326   5.942 -0.5428 -0.0515 -0.1399
  166SAPS   H9R18735   5.057   3.347   5.955 -1.4293  3.6430  3.1478
  166SAPS  C21018736   4.902   3.264   5.815  0.8495 -0.2349 -0.3786
  166SAPS  H10R18737   4.900   3.342   5.736 -0.5666 -2.3070 -2.5426
  166SAPS  H10S18738   4.798   3.226   5.807  0.6069  0.1517  0.7219
  166SAPS  C21118739   4.992   3.146   5.783  0.3840 -0.5837  0.6843
  166SAPS  H11R18740   5.054   3.098   5.860  0.1015 -0.4812  0.9795
  166SAPS  C21218741   4.998   3.091   5.658 -0.0869 -0.9082  1.0475
  166SAPS  H12R18742   5.061   3.002   5.644 -1.1531 -1.3471 -1.3777
  166SAPS  C21318743   4.924   3.147   5.539  0.0038  0.7648 -0.4834
  166SAPS  H13R18744   4.957   3.094   5.447 -0.2312  1.4534 -0.9725
  166SAPS  H13S18745   4.961   3.250   5.520 -0.4309  1.1179  0.4922
  166SAPS  C21418746   4.773   3.143   5.549  0.5602 -1.0661 -0.2698
  166SAPS  H14R18747   4.736   3.042   5.576 -1.3269 -0.9858 -2.2816
  166SAPS  C21518748   4.682   3.240   5.517  0.2414 -0.2267  0.1339
  166SAPS  H15R18749   4.574   3.220   5.521  0.0619  0.8069  3.5648
  166SAPS  C21618750   4.716   3.376   5.455  0.3357  0.2416  0.0417
  166SAPS  H16R18751   4.808   3.413   5.505  0.7650  0.6241 -1.0166
  166SAPS  H16S18752   4.635   3.450   5.473 -0.0604 -0.3985  0.9687
  166SAPS  C21718753   4.741   3.367   5.303 -0.1540 -0.2832 -0.3795
  166SAPS  H17R18754   4.652   3.313   5.266 -0.7934 -0.4671  1.3279
  166SAPS  H17S18755   4.825   3.295   5.293  2.0611  1.6311  2.6251
  166SAPS  C21818756   4.778   3.510   5.243  0.2019 -0.5090 -0.5960
  166SAPS  H18R18757   4.873   3.553   5.282 -1.1236  4.1513 -1.7816
  166SAPS  H18S18758   4.694   3.570   5.283  2.4104  0.7753  2.5798
  166SAPS  C21918759   4.774   3.517   5.088 -0.7584 -0.2395  0.1506
  166SAPS  H19R18760   4.862   3.467   5.043 -0.2246 -0.9445  1.8905
  166SAPS  H19S18761   4.768   3.623   5.054  1.4031 -0.4442 -1.0218
  166SAPS  C22018762   4.653   3.458   5.012 -0.0138  0.2865 -0.2110
  166SAPS  H20R18763   4.684   3.354   4.992  1.1553  0.2994  1.3593
  166SAPS  H20S18764   4.620   3.521   4.927 -0.7797 -0.5565 -0.5585
  166SAPS  H20T18765   4.568   3.435   5.081  0.1103 -1.2187 -0.5283
  166SAPS   C3318766   5.191   3.202   6.359  0.0731  0.6075 -0.0775
  166SAPS   H3X18767   5.288   3.256   6.374 -0.4907  1.0412  2.4329
  166SAPS   H3Y18768   5.117   3.274   6.319  0.8447  0.8805 -1.0593
  166SAPS   C3418769   5.212   3.093   6.249 -0.5196  0.6064 -0.2112
  166SAPS   H4X18770   5.120   3.030   6.240 -1.2825  1.8409 -1.2465
  166SAPS   H4Y18771   5.298   3.033   6.286  0.1141  0.9119 -1.1612
  166SAPS   C3518772   5.243   3.146   6.110  0.2147  0.1905  0.3550
  166SAPS   H5X18773   5.318   3.227   6.124  1.6153 -0.7000 -1.5460
  166SAPS   H5Y18774   5.150   3.184   6.063 -1.0012 -1.8062  1.0632
  166SAPS   C3618775   5.298   3.040   6.014  0.2885 -0.1981 -0.3743
  166SAPS   H6X18776   5.209   2.977   5.994 -0.2954  0.2197  0.8583
  166SAPS   H6Y18777   5.371   2.974   6.066 -1.8853 -0.9745  1.8750
  166SAPS   C3718778   5.349   3.098   5.879 -0.1903  0.5723 -0.1692
  166SAPS   H7X18779   5.441   3.157   5.895  1.9756 -2.3230 -0.9140
  166SAPS   H7Y18780   5.273   3.169   5.842 -0.3454  0.8506  0.6702
  166SAPS   C3818781   5.391   2.984   5.780  0.4065  0.1742 -0.0682
  166SAPS   H8X18782   5.301   2.919   5.769  0.6490 -0.9554  3.4508
  166SAPS   H8Y18783   5.471   2.933   5.838  0.3219  1.3974  1.1818
  166SAPS   C3918784   5.435   3.030   5.640 -0.1103 -0.3390 -0.0026
  166SAPS   H9X18785   5.485   3.129   5.627 -1.2330  0.0287 -1.8878
  166SAPS   H9Y18786   5.345   3.062   5.584 -1.2638 -0.1696  1.8869
  166SAPS  C31018787   5.513   2.927   5.568 -0.6364 -0.3374  0.0950
  166SAPS  H10X18788   5.486   2.951   5.463 -0.7004  1.3234  0.4545
  166SAPS  H10Y18789   5.462   2.833   5.597  0.3121 -0.1045  2.7959
  166SAPS  C31118790   5.664   2.939   5.567 -0.5346 -0.1590  0.2824
  166SAPS  H11X18791   5.703   2.939   5.671  1.3192  0.3801 -0.3754
  166SAPS  H11Y18792   5.689   3.040   5.528 -1.4446  0.0690  0.2665
  166SAPS  C31218793   5.756   2.842   5.484  1.0546  0.1379  0.5983
  166SAPS  H12X18794   5.862   2.869   5.468  1.2991 -1.0701  0.1459
  166SAPS  H12Y18795   5.705   2.835   5.385  1.6374  0.3866  0.2791
  166SAPS  C31318796   5.738   2.700   5.531  0.4005 -0.9471 -0.8427
  166SAPS  H13X18797   5.633   2.664   5.532  0.0016  0.0670  2.1132
  166SAPS  H13Y18798   5.772   2.696   5.636 -2.2686  1.2418  0.2350
  166SAPS  C31418799   5.816   2.605   5.437 -0.1499  0.1414 -1.0879
  166SAPS  H14X18800   5.798   2.623   5.329 -1.6525  0.2538 -0.8339
  166SAPS  H14Y18801   5.774   2.503   5.444 -2.2434  0.8323 -2.6521
  166SAPS  C31518802   5.964   2.594   5.473 -0.7783 -0.3370  0.3562
  166SAPS  H15X18803   5.966   2.549   5.574 -0.9430 -0.3253  0.3645
  166SAPS  H15Y18804   6.019   2.690   5.489  0.5729 -0.9128 -0.5928
  166SAPS  C31618805   6.044   2.519   5.367 -0.7401  0.1066  0.1279
  166SAPS  H16X18806   6.012   2.547   5.264  0.2916 -0.4907 -0.3715
  166SAPS  H16Y18807   6.018   2.412   5.375  0.4139 -0.1095  1.2048
  166SAPS  C31718808   6.193   2.523   5.379 -0.5610  0.2549 -0.6390
  166SAPS  H17X18809   6.227   2.460   5.464 -1.3503 -1.1692 -1.3410
  166SAPS  H17Y18810   6.236   2.625   5.388  2.0878 -0.7191 -1.3478
  166SAPS  C31818811   6.253   2.464   5.250  0.4042  1.0534 -0.1453
  166SAPS  H18X18812   6.212   2.508   5.156 -0.6653 -3.4745 -2.0317
  166SAPS  H18Y18813   6.224   2.357   5.248 -0.7842  1.3669 -1.1670
  166SAPS  H18Z18814   6.363   2.475   5.250  0.5412 -0.2019  0.5204
  167SAPS     N18815   0.266   3.853   7.939 -0.1883  0.0302  0.1142
  167SAPS   HN118816   0.288   3.942   7.890  0.5247  0.3715  1.0171
  167SAPS   HN218817   0.168   3.855   7.976  0.5538 -1.1436  2.3235
  167SAPS   HN318818   0.325   3.844   8.024 -1.3185  0.6955  1.0077
  167SAPS   C1218819   0.299   3.741   7.850 -0.2831 -0.9421  0.0446
  167SAPS  H12A18820   0.407   3.747   7.842 -0.2818 -1.4715 -0.3297
  167SAPS   C1318821   0.264   3.607   7.903 -0.3318 -0.3046 -0.5404
  167SAPS  O13A18822   0.202   3.594   8.017 -0.0865 -0.6486  0.4020
  167SAPS  O13B18823   0.312   3.512   7.840  0.2920 -0.0703  0.0356
  167SAPS   C1118824   0.239   3.772   7.711  0.2148  0.2906  0.0636
  167SAPS  H11A18825   0.128   3.775   7.717 -0.1903  1.5046 -4.5623
  167SAPS  H11B18826   0.261   3.689   7.642  1.8062  1.3429 -0.7651
  167SAPS     P18827   0.351   3.914   7.514  0.4516  0.4718 -0.3433
  167SAPS   O1318828   0.327   4.059   7.474 -0.2775 -0.3533  0.2003
  167SAPS   O1418829   0.493   3.874   7.534  0.2553 -0.1306  0.1619
  167SAPS   O1218830   0.270   3.894   7.647 -0.4047 -0.1372  0.3626
  167SAPS   O1118831   0.274   3.822   7.409 -0.0658  0.1285 -0.3004
  167SAPS    C118832   0.139   3.854   7.361  0.1298  0.0142 -0.3306
  167SAPS    HA18833   0.069   3.802   7.430 -0.6343 -0.2489 -1.2739
  167SAPS    HB18834   0.119   3.964   7.366  0.5070  0.0585  0.3038
  167SAPS    C218835   0.122   3.803   7.218 -0.6184 -0.7511 -1.0266
  167SAPS    HS18836   0.014   3.791   7.195 -0.9113 -3.4101  1.2021
  167SAPS   O2118837   0.187   3.677   7.200 -0.1181  0.0521 -0.5301
  167SAPS   C2118838   0.155   3.578   7.276 -0.0925 -0.0133  0.4915
  167SAPS   O2218839   0.050   3.578   7.346 -0.0808 -0.3443  0.0210
  167SAPS   C2218840   0.255   3.459   7.259  0.1354 -0.6042  0.5338
  167SAPS   H2R18841   0.344   3.488   7.318 -0.4824  2.4707  0.1601
  167SAPS   H2S18842   0.212   3.364   7.296 -0.5896 -1.0898 -1.4203
  167SAPS    C318843   0.182   3.904   7.114  0.3949  0.1484 -0.4525
  167SAPS    HX18844   0.284   3.931   7.148  1.2702 -0.0441 -2.7296
  167SAPS    HY18845   0.128   4.001   7.118 -0.2907 -0.2102 -0.9377
  167SAPS   O3118846   0.177   3.853   6.977 -0.5367 -0.1088 -0.0598
  167SAPS   C3118847   0.294   3.780   6.948  0.1493 -0.5345  0.0274
  167SAPS   O3218848   0.390   3.773   7.018 -0.0652  0.1688  0.3347
  167SAPS   C3218849   0.280   3.726   6.800 -0.3530  0.2370 -0.0916
  167SAPS   H2X18850   0.248   3.812   6.738  1.2110  0.1133 -1.1029
  167SAPS   H2Y18851   0.194   3.655   6.798  1.5382 -2.1582 -1.2916
  167SAPS   C2318852   0.304   3.429   7.115  0.3322 -0.4138  0.2786
  167SAPS   H3R18853   0.373   3.342   7.124 -0.7513 -1.3728 -0.3429
  167SAPS   H3S18854   0.352   3.515   7.064 -0.4049 -0.6228 -0.8158
  167SAPS   C2418855   0.190   3.395   7.019 -0.4404 -0.7070 -0.6630
  167SAPS   H4R18856   0.234   3.369   6.920  1.5977 -0.7648  0.2240
  167SAPS   H4S18857   0.150   3.497   7.004  1.2992  0.9563  4.1005
  167SAPS   C2518858   0.089   3.293   7.068  0.0499  0.3784  0.3287
  167SAPS   H5R18859   0.052   3.308   7.171  1.9997 -0.3052  1.1809
  167SAPS   C2618860   0.036   3.194   6.997 -0.4329  0.0422 -0.8504
  167SAPS   H6R18861  -0.026   3.121   7.052  0.8987 -0.7810 -0.3707
  167SAPS   C2718862   0.063   3.143   6.856 -0.2770 -0.5075  0.1011
  167SAPS   H7R18863   0.059   3.033   6.842 -1.1853 -0.5159  0.3615
  167SAPS   H7S18864   0.170   3.160   6.832  0.3151 -1.7811  1.6503
  167SAPS   C2818865  -0.017   3.216   6.746 -0.7680 -0.5394 -1.2166
  167SAPS   H8R18866  -0.099   3.274   6.792 -0.3909 -1.6975  1.0236
  167SAPS   C2918867   0.007   3.198   6.617  0.5802 -0.3330 -0.7895
  167SAPS   H9R18868  -0.061   3.251   6.547 -0.1361 -0.4083 -0.1631
  167SAPS  C21018869   0.113   3.122   6.543  1.3224 -0.0435  0.3115
  167SAPS  H10R18870   0.064   3.035   6.494  2.6249 -1.0649  0.7580
  167SAPS  H10S18871   0.194   3.084   6.610  0.9313 -1.5943 -0.0498
  167SAPS  C21118872   0.174   3.212   6.443 -0.1943  0.2587  1.0485
  167SAPS  H11R18873   0.251   3.268   6.496 -0.4320  0.3068  1.3431
  167SAPS  C21218874   0.161   3.220   6.307 -0.4926  0.0902 -0.1537
  167SAPS  H12R18875   0.218   3.294   6.251  0.9742 -1.2042 -0.4425
  167SAPS  C21318876   0.062   3.149   6.219 -1.2387 -0.0379 -0.5614
  167SAPS  H13R18877  -0.006   3.213   6.159 -0.7635  0.6055 -0.4231
  167SAPS  H13S18878  -0.007   3.091   6.285  0.4699  0.8093  2.1326
  167SAPS  C21418879   0.137   3.056   6.126 -0.1949 -0.0572 -0.0273
  167SAPS  H14R18880   0.186   2.970   6.173  1.1941  1.7447  2.0227
  167SAPS  C21518881   0.141   3.058   5.995 -0.2160  0.2944  1.1297
  167SAPS  H15R18882   0.213   2.988   5.952 -2.6701 -0.8529 -1.4349
  167SAPS  C21618883   0.085   3.160   5.895 -0.2688  0.2043  0.1030
  167SAPS  H16R18884   0.110   3.258   5.940  1.0331 -1.0915  2.4097
  167SAPS  H16S18885  -0.026   3.156   5.885 -0.2202  0.7679 -0.7606
  167SAPS  C21718886   0.141   3.153   5.754 -0.4834 -0.2653  0.0792
  167SAPS  H17R18887   0.249   3.137   5.771 -0.2626 -0.0867 -1.0224
  167SAPS  H17S18888   0.128   3.256   5.714 -0.8941  0.3968  1.8228
  167SAPS  C21818889   0.085   3.033   5.678  0.1196 -0.4044  0.1996
  167SAPS  H18R18890  -0.024   3.054   5.676 -0.2241 -1.5663  2.7961
  167SAPS  H18S18891   0.090   2.950   5.752 -1.0229 -1.7920 -1.2135
  167SAPS  C21918892   0.144   2.988   5.545 -0.0461  0.8684  0.6705
  167SAPS  H19R18893   0.255   2.983   5.550  0.3106  1.7430 -3.1476
  167SAPS  H19S18894   0.113   3.059   5.466 -0.4263 -0.6195 -0.5666
  167SAPS  C22018895   0.101   2.848   5.501  0.1590 -0.2141  0.2214
  167SAPS  H20R18896  -0.008   2.824   5.502  0.0779 -0.0818 -1.5789
  167SAPS  H20S18897   0.152   2.761   5.547 -1.5948 -2.3155 -1.5535
  167SAPS  H20T18898   0.132   2.833   5.395 -0.6682  0.1476 -0.0804
  167SAPS   C3318899   0.413   3.654   6.749  0.3094 -0.9005  0.4966
  167SAPS   H3X18900   0.430   3.575   6.826 -0.4754 -1.1176  0.4579
  167SAPS   H3Y18901   0.495   3.729   6.756 -1.7717  1.5108  0.5196
  167SAPS   C3418902   0.405   3.594   6.608  0.4942 -0.6568  0.3781
  167SAPS   H4X18903   0.313   3.537   6.582  0.7340 -1.0083  0.2938
  167SAPS   H4Y18904   0.489   3.522   6.601  0.2880 -0.8828  0.2300
  167SAPS   C3518905   0.441   3.690   6.492  1.1118  0.1805 -0.6783
  167SAPS   H5X18906   0.532   3.747   6.522  1.3961 -0.2729 -0.6756
  167SAPS   H5Y18907   0.362   3.764   6.468  1.3573 -0.1097 -2.5295
  167SAPS   C3618908   0.461   3.610   6.366 -0.5122 -0.2379 -0.8041
  167SAPS   H6X18909   0.361   3.561   6.356 -1.2423  1.1067 -0.3626
  167SAPS   H6Y18910   0.533   3.529   6.393 -1.1192 -0.0190  1.7542
  167SAPS   C3718911   0.493   3.696   6.250 -0.0171  0.0724  0.5568
  167SAPS   H7X18912   0.586   3.751   6.277 -0.7816  1.3501  0.6936
  167SAPS   H7Y18913   0.408   3.766   6.234  0.4671  0.6319  0.3913
  167SAPS   C3818914   0.521   3.612   6.126 -0.5504 -0.1161  0.3828
  167SAPS   H8X18915   0.611   3.548   6.141  1.0449  2.1008  0.6519
  167SAPS   H8Y18916   0.550   3.673   6.039  0.2176  2.4330  2.3077
  167SAPS   C3918917   0.417   3.503   6.099  0.3863  0.0850 -0.3210
  167SAPS   H9X18918   0.313   3.542   6.104  1.2313  2.3988  1.6783
  167SAPS   H9Y18919   0.419   3.415   6.166  1.3632 -1.0133 -1.7373
  167SAPS  C31018920   0.434   3.432   5.962 -0.8546 -0.0234 -0.9117
  167SAPS  H10X18921   0.372   3.341   5.948 -1.4976  0.4905 -1.4409
  167SAPS  H10Y18922   0.541   3.400   5.963 -0.5126  1.0714 -0.3504
  167SAPS  C31118923   0.396   3.526   5.850 -0.4512 -0.4100  0.3479
  167SAPS  H11X18924   0.350   3.614   5.898 -0.2837  0.6102 -1.2760
  167SAPS  H11Y18925   0.322   3.485   5.779  1.7855 -1.7259 -1.3849
  167SAPS  C31218926   0.510   3.576   5.760  0.8367  0.3877 -0.3005
  167SAPS  H12X18927   0.607   3.594   5.811  1.5029  2.1130 -2.0369
  167SAPS  H12Y18928   0.466   3.670   5.720  0.9583  0.9834  0.9322
  167SAPS  C31318929   0.527   3.493   5.635 -0.4351 -0.0854  0.0655
  167SAPS  H13X18930   0.447   3.523   5.564  1.4334 -2.2059 -3.1993
  167SAPS  H13Y18931   0.511   3.384   5.648  0.4241 -0.1101  1.1090
  167SAPS  C31418932   0.666   3.504   5.572 -0.5349 -0.0611  0.2951
  167SAPS  H14X18933   0.738   3.475   5.652  1.0972  0.4394 -0.9373
  167SAPS  H14Y18934   0.687   3.602   5.525 -0.7717 -1.0045 -1.8802
  167SAPS  C31518935   0.693   3.408   5.458 -0.2296 -0.1434  0.2841
  167SAPS  H15X18936   0.611   3.405   5.382 -0.8610  1.9353  0.7994
  167SAPS  H15Y18937   0.707   3.308   5.503  1.8687 -1.0480 -2.1420
  167SAPS  C31618938   0.821   3.428   5.378  0.0912  0.2194  0.0219
  167SAPS  H16X18939   0.913   3.396   5.432  1.2352  1.0486 -1.3481
  167SAPS  H16Y18940   0.835   3.538   5.368  0.6251  0.1377 -0.2090
  167SAPS  C31718941   0.838   3.361   5.236 -0.3928  1.0986  0.4227
  167SAPS  H17X18942   0.762   3.406   5.169 -1.0495 -1.5128 -0.7301
  167SAPS  H17Y18943   0.826   3.252   5.252  0.9898  0.5618 -1.7247
  167SAPS  C31818944   0.971   3.395   5.178  0.3166  0.5039 -0.8211
  167SAPS  H18X18945   0.991   3.503   5.161  0.3676  0.9599  1.7824
  167SAPS  H18Y18946   0.983   3.344   5.080  0.8608  2.2033 -1.7016
  167SAPS  H18Z18947   1.048   3.349   5.243  0.7489  1.2201 -0.8120
  168SAPS     N18948   6.512   3.485   7.481 -0.1940 -0.3585 -0.9113
  168SAPS   HN118949   6.615   3.503   7.482  0.1774 -2.2328  0.1349
  168SAPS   HN218950   6.496   3.394   7.530  1.9742  0.1358  0.9411
  168SAPS   HN318951   6.485   3.486   7.381  0.3467 -1.4604 -1.0821
  168SAPS   C1218952   6.451   3.602   7.561 -0.1818  0.2358 -0.4701
  168SAPS  H12A18953   6.352   3.574   7.592 -0.2641  0.5546 -0.4414
  168SAPS   C1318954   6.525   3.640   7.687  0.4029  0.5618 -0.1799
  168SAPS  O13A18955   6.626   3.575   7.722 -0.6701  0.2550  0.5263
  168SAPS  O13B18956   6.485   3.739   7.753  0.4370 -0.5695 -0.6676
  168SAPS   C1118957   6.437   3.717   7.459  0.6462 -0.5950 -0.3208
  168SAPS  H11A18958   6.536   3.750   7.421 -0.3095  0.4851 -1.9775
  168SAPS  H11B18959   6.383   3.793   7.520 -1.8633 -1.9665 -0.7146
  168SAPS     P18960   6.290   3.806   7.267  0.1332  0.1508  0.6557
  168SAPS   O1318961   6.160   3.764   7.216 -0.2974  0.6549 -0.0064
  168SAPS   O1418962   6.298   3.936   7.332 -0.4614  0.4583 -0.1530
  168SAPS   O1218963   6.341   3.682   7.356 -0.3225  0.1739  0.2417
  168SAPS   O1118964   6.384   3.814   7.139  0.1306  0.1897 -0.1527
  168SAPS    C118965   6.402   3.695   7.060  0.5231 -0.5038  0.4259
  168SAPS    HA18966   6.421   3.603   7.121  2.7432 -0.8528 -0.7063
  168SAPS    HB18967   6.304   3.673   7.013 -0.9615  1.6026  2.3005
  168SAPS    C218968   6.509   3.712   6.950 -0.3413 -0.1919  0.5297
  168SAPS    HS18969   6.596   3.758   7.001  0.0288  0.1911 -0.4225
  168SAPS   O2118970   6.466   3.790   6.835 -0.4362 -0.4432 -0.6221
  168SAPS   C2118971   6.449   3.917   6.850  0.6359 -0.1786 -0.0339
  168SAPS   O2218972   6.464   3.984   6.948  0.3267  0.3854  0.3786
  168SAPS   C2218973   6.408   3.971   6.720  0.3954 -0.0130  0.1816
  168SAPS   H2R18974   6.416   3.903   6.632  0.2230  2.5005 -1.8939
  168SAPS   H2S18975   6.304   4.007   6.728  0.8660  1.6811 -0.7674
  168SAPS    C318976   6.548   3.573   6.893  0.5158  0.3071  0.4383
  168SAPS    HX18977   6.449   3.532   6.863  0.7692  1.3655 -2.0813
  168SAPS    HY18978   6.591   3.510   6.975  0.9543  0.4095  0.2885
  168SAPS   O3118979   6.642   3.589   6.779  1.2681  0.8878 -0.0445
  168SAPS   C3118980   6.592   3.587   6.661 -0.5193  0.8157  0.1902
  168SAPS   O3218981   6.481   3.562   6.620 -0.2040  0.0942  0.5537
  168SAPS   C3218982   6.714   3.593   6.557  0.4857  0.5010  0.2338
  168SAPS   H2X18983   6.778   3.503   6.566 -0.8530 -0.4078  1.0704
  168SAPS   H2Y18984   6.778   3.679   6.585  1.7532 -0.2382 -0.2999
  168SAPS   C2318985   6.506   4.095   6.701  0.2025  0.1825 -0.0226
  168SAPS   H3R18986   6.481   4.166   6.783 -1.6784  0.7813 -1.0696
  168SAPS   H3S18987   6.464   4.130   6.605 -1.4576 -1.2825  0.1174
  168SAPS   C2418988   6.653   4.073   6.691  0.7180  0.1580  0.1614
  168SAPS   H4R18989   6.688   4.040   6.792 -1.5313 -0.5838  0.7681
  168SAPS   H4S18990   6.698   4.173   6.673 -0.1260  0.5715  0.3083
  168SAPS   C2518991   6.692   3.965   6.593  0.0095 -0.1297  0.1428
  168SAPS   H5R18992   6.722   3.867   6.632  0.9284 -0.6937 -1.8514
  168SAPS   C2618993   6.697   3.981   6.459 -0.2447  0.5603 -0.9122
  168SAPS   H6R18994   6.729   3.893   6.401  0.3677  1.5118 -2.0522
  168SAPS   C2718995   6.657   4.099   6.378 -0.5562 -0.3293  0.1837
  168SAPS   H7R18996   6.731   4.115   6.297  1.3865 -0.1510  1.9283
  168SAPS   H7S18997   6.643   4.196   6.431 -2.5500  1.2044 -2.7921
  168SAPS   C2818998   6.527   4.073   6.313  1.0153 -0.7888  0.5066
  168SAPS   H8R18999   6.448   4.063   6.389  0.3618  0.1158 -0.0402
  168SAPS   C2919000   6.498   4.042   6.183 -0.2158  0.7392  0.5218
  168SAPS   H9R19001   6.392   4.026   6.156  0.0997 -0.0215 -0.3034
  168SAPS  C21019002   6.592   4.037   6.060 -0.5326  0.4497 -0.6158
  168SAPS  H10R19003   6.528   4.002   5.976  0.6993 -0.5947 -1.1589
  168SAPS  H10S19004   6.672   3.960   6.059 -0.1086  0.7923 -4.0908
  168SAPS  C21119005   6.647   4.174   6.027  0.0997  0.2129 -0.5317
  168SAPS  H11R19006   6.644   4.247   6.109  1.3448  0.7136 -0.9099
  168SAPS  C21219007   6.690   4.215   5.908 -0.1107 -0.6774 -0.1030
  168SAPS  H12R19008   6.701   4.323   5.892 -1.9144 -0.7140 -1.9441
  168SAPS  C21319009   6.686   4.128   5.782 -0.6840 -0.1753  0.3431
  168SAPS  H13R19010   6.582   4.104   5.751 -0.2053 -1.7496 -0.1594
  168SAPS  H13S19011   6.740   4.033   5.803  0.2186 -0.3060 -2.2489
  168SAPS  C21419012   6.757   4.182   5.660 -0.9477  0.0231 -0.3854
  168SAPS  H14R19013   6.856   4.224   5.685  0.9175 -3.0203 -2.0942
  168SAPS  C21519014   6.722   4.185   5.526 -0.0563 -0.2590  0.0065
  168SAPS  H15R19015   6.788   4.235   5.453  0.2414  0.3406  0.6681
  168SAPS  C21619016   6.597   4.124   5.479  0.3970 -0.2750 -0.0474
  168SAPS  H16R19017   6.526   4.161   5.556  2.4865 -0.6867  2.1984
  168SAPS  H16S19018   6.590   4.016   5.502 -1.0356 -0.4929 -1.2947
  168SAPS  C21719019   6.570   4.159   5.329  0.0140  0.5807 -0.4384
  168SAPS  H17R19020   6.492   4.090   5.290  0.4364  0.1148 -0.4659
  168SAPS  H17S19021   6.669   4.164   5.280 -0.1379  1.3134 -0.6853
  168SAPS  C21819022   6.514   4.304   5.314 -0.3883 -0.1865  0.2620
  168SAPS  H18R19023   6.593   4.376   5.342 -0.6411 -0.2616  1.1994
  168SAPS  H18S19024   6.440   4.323   5.395  0.6315  2.1021  0.7027
  168SAPS  C21919025   6.451   4.327   5.173 -0.3886  0.2045  0.8364
  168SAPS  H19R19026   6.393   4.422   5.170 -0.1010  0.3948  1.1104
  168SAPS  H19S19027   6.383   4.244   5.146  0.2486  0.2220 -0.9905
  168SAPS  C22019028   6.570   4.308   5.069 -0.4044 -0.4392 -0.6998
  168SAPS  H20R19029   6.538   4.353   4.972 -2.9660 -0.9489 -0.1636
  168SAPS  H20S19030   6.617   4.207   5.065  0.5930 -0.0369  0.5054
  168SAPS  H20T19031   6.654   4.369   5.106 -1.2428  1.1107 -1.2607
  168SAPS   C3319032   6.669   3.612   6.408  0.0319 -0.1033 -0.0012
  168SAPS   H3X19033   6.607   3.704   6.404 -0.8622 -0.7351 -1.2785
  168SAPS   H3Y19034   6.598   3.532   6.380 -0.5159 -0.1968  1.5842
  168SAPS   C3419035   6.787   3.627   6.309  0.2239 -0.5898  0.0297
  168SAPS   H4X19036   6.834   3.532   6.275  1.7030  0.0829  0.1342
  168SAPS   H4Y19037   6.866   3.683   6.363 -0.3233  2.3436 -1.9752
  168SAPS   C3519038   6.763   3.716   6.193 -0.2110 -0.4273 -0.0321
  168SAPS   H5X19039   6.851   3.779   6.171  0.4239 -0.1900  2.7801
  168SAPS   H5Y19040   6.692   3.796   6.223  0.8662  1.3631 -2.0399
  168SAPS   C3619041   6.699   3.632   6.077 -0.0538 -0.0698  0.4638
  168SAPS   H6X19042   6.593   3.598   6.084 -0.7659  1.4586 -1.8435
  168SAPS   H6Y19043   6.755   3.538   6.062 -0.0502 -0.2408  1.4580
  168SAPS   C3719044   6.699   3.710   5.942 -0.1206  0.3287 -0.2894
  168SAPS   H7X19045   6.793   3.770   5.938 -0.8711  1.6414  0.6678
  168SAPS   H7Y19046   6.610   3.776   5.956 -0.0547  0.3386  0.1008
  168SAPS   C3819047   6.672   3.634   5.811  0.4223 -0.2296  0.0119
  168SAPS   H8X19048   6.573   3.585   5.816  0.7763 -0.8885  0.9101
  168SAPS   H8Y19049   6.764   3.572   5.802  1.4038  0.8518  1.8718
  168SAPS   C3919050   6.674   3.720   5.681  0.0047  0.0194  0.6218
  168SAPS   H9X19051   6.709   3.819   5.717 -0.0080  0.8375 -1.4772
  168SAPS   H9Y19052   6.575   3.746   5.639  0.0716  2.1595  1.6572
  168SAPS  C31019053   6.779   3.672   5.577 -0.2672 -0.2402 -0.8670
  168SAPS  H10X19054   6.874   3.678   5.634  0.6080  1.3257 -2.4075
  168SAPS  H10Y19055   6.775   3.747   5.495 -1.0704 -0.4734 -1.0580
  168SAPS  C31119056   6.745   3.544   5.512 -0.7102 -0.0709  0.1173
  168SAPS  H11X19057   6.648   3.552   5.458 -0.8554  0.2292  0.4218
  168SAPS  H11Y19058   6.735   3.463   5.588 -0.4455 -1.9910 -1.7871
  168SAPS  C31219059   6.856   3.499   5.416  0.1277 -0.0870  0.2616
  168SAPS  H12X19060   6.955   3.515   5.464 -0.5850 -0.0591  1.7690
  168SAPS  H12Y19061   6.864   3.570   5.331  0.3188  0.9970  1.1736
  168SAPS  C31319062   6.833   3.349   5.380  0.5548 -0.5609 -0.0617
  168SAPS  H13X19063   6.755   3.343   5.302  2.2570 -2.2222 -1.7208
  168SAPS  H13Y19064   6.819   3.277   5.464 -0.0394 -0.3272  0.0406
  168SAPS  C31419065   6.966   3.299   5.302  0.7019 -0.2666 -1.1004
  168SAPS  H14X19066   6.945   3.193   5.278 -1.8108 -0.1825  0.3954
  168SAPS  H14Y19067   7.050   3.309   5.374  0.3621  1.7707 -0.9189
  168SAPS  C31519068   6.999   3.355   5.166 -0.0333 -0.2019 -0.0954
  168SAPS  H15X19069   7.003   3.466   5.172 -0.2968 -0.1809 -0.3125
  168SAPS  H15Y19070   6.928   3.316   5.091 -2.7232 -0.5055  2.4266
  168SAPS  C31619071   7.141   3.317   5.121  0.2452  0.0538 -0.1172
  168SAPS  H16X19072   7.154   3.207   5.127 -1.5683 -0.3440 -2.3071
  168SAPS  H16Y19073   7.214   3.358   5.194  1.0316 -1.4324 -0.0231
  168SAPS  C31719074   7.177   3.371   4.979 -0.2887  0.2833 -0.1523
  168SAPS  H17X19075   7.187   3.482   4.988  4.0358  0.0982 -0.7978
  168SAPS  H17Y19076   7.101   3.349   4.901  1.0264  0.8236 -1.6423
  168SAPS  C31819077   7.316   3.337   4.909 -0.0361 -0.1515 -0.8768
  168SAPS  H18X19078   7.317   3.406   4.822 -1.3085  3.2400  1.5963
  168SAPS  H18Y19079   7.318   3.234   4.867  2.3034 -0.0036 -1.2858
  168SAPS  H18Z19080   7.400   3.348   4.981  0.9806 -2.3878 -1.6396
  169SAPS     N19081   1.459   6.352   7.918 -0.4384 -0.0779  0.0312
  169SAPS   HN119082   1.506   6.303   7.997  0.6369  0.9223  0.0348
  169SAPS   HN219083   1.462   6.278   7.846 -0.1330 -0.0313 -0.0013
  169SAPS   HN319084   1.517   6.432   7.888 -0.4969  1.0506  2.6312
  169SAPS   C1219085   1.325   6.411   7.931 -0.1555  0.0985  0.8835
  169SAPS  H12A19086   1.261   6.336   7.975 -0.9249 -0.2723 -0.7793
  169SAPS   C1319087   1.328   6.523   8.026  0.4955 -0.1033 -0.2695
  169SAPS  O13A19088   1.437   6.564   8.079  0.0648  0.1428 -0.3828
  169SAPS  O13B19089   1.220   6.589   8.039  0.3785  0.1672 -0.2118
  169SAPS   C1119090   1.269   6.446   7.786  0.3989 -0.4351  0.0403
  169SAPS  H11A19091   1.322   6.540   7.759 -1.8530  1.5889  2.1388
  169SAPS  H11B19092   1.162   6.471   7.804  0.3918  0.4111 -1.1001
  169SAPS     P19093   1.186   6.264   7.622 -0.2303 -0.0380  0.5401
  169SAPS   O1319094   1.236   6.158   7.528  0.4712 -0.8285 -0.2465
  169SAPS   O1419095   1.107   6.203   7.728  0.1459 -0.7179 -0.6655
  169SAPS   O1219096   1.309   6.346   7.685  0.5763  0.4399 -0.4023
  169SAPS   O1119097   1.104   6.378   7.547  0.3907  0.0204  0.0605
  169SAPS    C119098   1.171   6.443   7.440 -1.2324  0.3263 -0.0932
  169SAPS    HA19099   1.257   6.502   7.478 -1.2098  1.0874 -1.2795
  169SAPS    HB19100   1.215   6.368   7.371 -0.9093  1.1403 -0.7854
  169SAPS    C219101   1.077   6.514   7.354  0.2512  0.3589 -0.3746
  169SAPS    HS19102   0.998   6.564   7.413 -1.8751 -2.1724 -0.8722
  169SAPS   O2119103   1.017   6.419   7.268 -0.4827 -0.2947  0.0463
  169SAPS   C2119104   0.901   6.449   7.200 -0.2358 -0.2176 -0.5429
  169SAPS   O2219105   0.825   6.538   7.222 -0.2029  0.2305  0.6414
  169SAPS   C2219106   0.881   6.343   7.089  0.2953  0.7057  0.7077
  169SAPS   H2R19107   0.973   6.281   7.082  1.7651  2.9325 -1.2337
  169SAPS   H2S19108   0.789   6.285   7.110 -0.3622  2.0179  1.5920
  169SAPS    C319109   1.136   6.618   7.263 -0.6663  0.1884 -0.0467
  169SAPS    HX19110   1.193   6.689   7.326 -1.4516 -1.6584  2.9853
  169SAPS    HY19111   1.055   6.674   7.213 -1.6241 -0.8201  0.3373
  169SAPS   O3119112   1.220   6.567   7.163  0.1483 -0.5250  0.0384
  169SAPS   C3119113   1.349   6.560   7.171 -0.5502  0.2109 -0.2485
  169SAPS   O3219114   1.419   6.613   7.259  0.2049  0.0174  0.1194
  169SAPS   C3219115   1.401   6.482   7.050 -0.1537  0.8059  0.2962
  169SAPS   H2X19116   1.357   6.535   6.963  0.4874  1.9083  0.6162
  169SAPS   H2Y19117   1.361   6.378   7.056 -1.5620  1.3654  1.5789
  169SAPS   C2319118   0.862   6.398   6.948 -0.5270 -0.3703 -0.1908
  169SAPS   H3R19119   0.774   6.466   6.948  0.0782  0.5456  2.4307
  169SAPS   H3S19120   0.842   6.314   6.878  1.8918 -1.6564  0.5611
  169SAPS   C2419121   0.983   6.477   6.890 -0.0293 -0.1911  0.0041
  169SAPS   H4R19122   1.005   6.569   6.950 -2.3232  0.4301 -0.0138
  169SAPS   H4S19123   0.949   6.505   6.788  0.2061  0.9061  0.2097
  169SAPS   C2519124   1.108   6.399   6.867  0.6002  0.5619  1.1748
  169SAPS   H5R19125   1.131   6.325   6.945 -0.0341  1.2433  2.0366
  169SAPS   C2619126   1.182   6.390   6.754 -0.0238  0.4390  0.6858
  169SAPS   H6R19127   1.268   6.322   6.754  0.2120  0.6874  2.4838
  169SAPS   C2719128   1.153   6.453   6.622  0.0445  1.0599  0.4862
  169SAPS   H7R19129   1.060   6.514   6.623 -0.0109  0.9738  1.7839
  169SAPS   H7S19130   1.151   6.360   6.561  1.1401  0.8125  0.8018
  169SAPS   C2819131   1.262   6.545   6.562  0.1005 -0.4264  0.2033
  169SAPS   H8R19132   1.312   6.615   6.631 -0.3085  0.0781 -0.0005
  169SAPS   C2919133   1.325   6.523   6.446  0.4417  0.0627  0.1991
  169SAPS   H9R19134   1.400   6.597   6.413  2.2051 -1.6554  0.1680
  169SAPS  C21019135   1.293   6.418   6.329 -0.1701  0.0670  0.5553
  169SAPS  H10R19136   1.317   6.312   6.355 -0.7001  0.6277  3.6628
  169SAPS  H10S19137   1.358   6.445   6.243  1.4186 -0.8211  1.4121
  169SAPS  C21119138   1.150   6.437   6.289  0.6487 -0.0083  0.6448
  169SAPS  H11R19139   1.089   6.516   6.335 -0.4942  0.2787 -1.2297
  169SAPS  C21219140   1.092   6.346   6.205  0.7474  0.4980  0.3179
  169SAPS  H12R19141   0.995   6.370   6.160  1.2427 -0.3286 -1.2718
  169SAPS  C21319142   1.177   6.240   6.138 -0.0664 -0.3854  0.0123
  169SAPS  H13R19143   1.195   6.150   6.200 -0.9479  1.0248  2.4505
  169SAPS  H13S19144   1.272   6.287   6.104 -0.8531 -0.0311 -1.8622
  169SAPS  C21419145   1.110   6.191   6.013  0.3346  0.3645 -0.5412
  169SAPS  H14R19146   1.036   6.261   5.972  1.9813  1.4279 -1.8358
  169SAPS  C21519147   1.109   6.069   5.962 -0.3188 -0.1772  0.2232
  169SAPS  H15R19148   1.051   6.050   5.871 -1.1797 -0.3692  0.8070
  169SAPS  C21619149   1.194   5.946   5.986 -0.0033  0.5996 -0.2521
  169SAPS  H16R19150   1.130   5.860   6.014  2.0470 -1.1864 -0.8169
  169SAPS  H16S19151   1.264   5.966   6.070  0.4135 -1.6061 -0.0250
  169SAPS  C21719152   1.267   5.905   5.860  0.2091  0.3490  0.4689
  169SAPS  H17R19153   1.295   5.991   5.796 -1.1693 -0.0802 -0.7509
  169SAPS  H17S19154   1.202   5.841   5.798  0.9412  0.6197 -0.6170
  169SAPS  C21819155   1.394   5.816   5.893  0.7322 -0.8520  0.6154
  169SAPS  H18R19156   1.458   5.887   5.948 -1.0208  0.0864  1.5249
  169SAPS  H18S19157   1.447   5.785   5.800 -1.5048  0.6690 -1.2897
  169SAPS  C21919158   1.364   5.686   5.974 -0.7804  0.2709 -0.1568
  169SAPS  H19R19159   1.300   5.628   5.905  0.5585 -0.8734 -0.5034
  169SAPS  H19S19160   1.302   5.700   6.065  1.3994 -0.5489  1.5808
  169SAPS  C22019161   1.489   5.607   6.012 -0.7788 -0.1031 -0.1399
  169SAPS  H20R19162   1.532   5.646   6.107 -0.4615  2.4404 -1.2533
  169SAPS  H20S19163   1.566   5.609   5.932 -1.0742  0.4641 -0.4151
  169SAPS  H20T19164   1.456   5.503   6.035 -0.9305 -0.4892 -1.9887
  169SAPS   C3319165   1.553   6.484   7.018 -0.2032  0.5524 -0.5094
  169SAPS   H3X19166   1.621   6.441   7.095  1.5388  0.8500 -1.8082
  169SAPS   H3Y19167   1.584   6.590   7.007  0.6640  0.0317 -4.2117
  169SAPS   C3419168   1.594   6.407   6.903  0.6667 -0.2423  1.0641
  169SAPS   H4X19169   1.704   6.415   6.896  0.5405  0.2141 -1.1072
  169SAPS   H4Y19170   1.557   6.445   6.805 -0.7584 -0.0253  1.6591
  169SAPS   C3519171   1.555   6.256   6.898  0.0104 -0.6041  0.4700
  169SAPS   H5X19172   1.445   6.244   6.889  0.0557 -1.0210  0.4599
  169SAPS   H5Y19173   1.592   6.214   6.994  0.8451 -0.9515  0.0057
  169SAPS   C3619174   1.621   6.176   6.787 -0.6802 -0.1495  0.2945
  169SAPS   H6X19175   1.730   6.166   6.807  0.3318  4.3813 -1.7187
  169SAPS   H6Y19176   1.597   6.204   6.682  1.4361  0.6804 -0.0142
  169SAPS   C3719177   1.564   6.032   6.790  0.3460 -0.8265  0.7110
  169SAPS   H7X19178   1.459   6.053   6.762  0.9903  0.7248 -0.6650
  169SAPS   H7Y19179   1.564   5.997   6.895 -0.0048  2.3954  1.8842
  169SAPS   C3819180   1.637   5.924   6.707 -0.6112 -0.7580  0.3462
  169SAPS   H8X19181   1.593   5.824   6.725 -2.7339 -0.5214 -2.7119
  169SAPS   H8Y19182   1.744   5.923   6.737 -0.3835 -1.0972 -0.4583
  169SAPS   C3919183   1.635   5.966   6.564 -0.2060 -0.4833  0.5982
  169SAPS   H9X19184   1.692   6.062   6.568 -0.8609 -0.0958  0.6671
  169SAPS   H9Y19185   1.538   5.992   6.517  0.1732 -1.6753 -0.9525
  169SAPS  C31019186   1.717   5.878   6.468  0.6811  0.2098  0.1897
  169SAPS  H10X19187   1.678   5.774   6.479 -1.3497  0.7650 -1.3303
  169SAPS  H10Y19188   1.820   5.895   6.505  0.2039  2.1235  0.7529
  169SAPS  C31119189   1.700   5.924   6.313 -0.1788  0.5045 -0.2089
  169SAPS  H11X19190   1.716   6.033   6.298 -1.8632  1.0372  1.5026
  169SAPS  H11Y19191   1.596   5.907   6.277 -0.1706 -0.9700  0.4090
  169SAPS  C31219192   1.808   5.856   6.228 -0.3680  0.3974  0.5981
  169SAPS  H12X19193   1.816   5.746   6.240 -0.1866  0.5307  1.8278
  169SAPS  H12Y19194   1.908   5.885   6.267 -0.5528 -0.3021  1.6310
  169SAPS  C31319195   1.785   5.883   6.081  0.8546 -1.0639 -0.8316
  169SAPS  H13X19196   1.797   5.991   6.057  3.1496 -0.9696  0.4617
  169SAPS  H13Y19197   1.682   5.860   6.047  1.2615 -2.2234 -1.3116
  169SAPS  C31419198   1.874   5.809   5.995  0.4017  1.2249  0.6404
  169SAPS  H14X19199   1.882   5.701   6.020 -0.4630  0.7681 -0.8965
  169SAPS  H14Y19200   1.975   5.852   6.012  2.2734 -2.5022  0.0046
  169SAPS  C31519201   1.834   5.824   5.845  0.9844 -0.0812 -0.0925
  169SAPS  H15X19202   1.813   5.930   5.823 -0.3483 -0.4657 -0.8093
  169SAPS  H15Y19203   1.744   5.768   5.809 -1.0499  1.9467  1.5158
  169SAPS  C31619204   1.950   5.809   5.751 -0.6908  0.2990 -0.3589
  169SAPS  H16X19205   1.997   5.714   5.785 -0.4971 -0.0658 -1.5760
  169SAPS  H16Y19206   2.029   5.884   5.769 -1.2974  0.9736 -0.4835
  169SAPS  C31719207   1.909   5.811   5.601 -0.4862  0.0236  0.3093
  169SAPS  H17X19208   1.990   5.853   5.537 -1.4739  2.9329  0.8304
  169SAPS  H17Y19209   1.828   5.884   5.579  0.9446  1.1491 -1.4984
  169SAPS  C31819210   1.872   5.671   5.545  0.5855 -0.1099 -0.0544
  169SAPS  H18X19211   1.964   5.610   5.538  0.7435  0.0929  0.2449
  169SAPS  H18Y19212   1.837   5.683   5.440  1.4086 -1.6933 -0.5438
  169SAPS  H18Z19213   1.803   5.619   5.614 -0.6760 -0.0729 -1.2329
  170SAPS     N19214   1.825   5.435   7.488  0.3402  0.0327 -0.4573
  170SAPS   HN119215   1.846   5.339   7.455  1.8864  0.8031 -1.8331
  170SAPS   HN219216   1.722   5.437   7.500  0.3350  0.3696 -0.5393
  170SAPS   HN319217   1.848   5.500   7.410  0.9825 -1.6649 -1.7453
  170SAPS   C1219218   1.897   5.473   7.610 -0.1717  0.3445  0.3046
  170SAPS  H12A19219   1.877   5.575   7.640 -0.0117  1.3552 -2.6566
  170SAPS   C1319220   1.879   5.386   7.731  0.0475 -0.0866 -0.3299
  170SAPS  O13A19221   1.829   5.270   7.725 -0.2099  0.0299  0.0769
  170SAPS  O13B19222   1.939   5.425   7.835  0.5731 -0.5093 -0.3223
  170SAPS   C1119223   2.048   5.476   7.572  0.0697  0.6659 -0.2870
  170SAPS  H11A19224   2.113   5.491   7.661  0.4284  1.6261 -0.6977
  170SAPS  H11B19225   2.070   5.559   7.501  2.3538  2.1288  1.9652
  170SAPS     P19226   2.220   5.324   7.443 -0.0735  0.0448  0.0016
  170SAPS   O1319227   2.332   5.342   7.538 -0.2113 -0.1763 -0.7052
  170SAPS   O1419228   2.214   5.193   7.373 -0.7800  0.1028  0.8790
  170SAPS   O1219229   2.079   5.345   7.512 -0.0398 -0.0614 -0.0747
  170SAPS   O1119230   2.232   5.435   7.331  0.4311 -0.2474  0.3419
  170SAPS    C119231   2.138   5.459   7.227 -0.4509 -0.6061  0.5590
  170SAPS    HA19232   2.034   5.458   7.266  0.5333 -2.0112  3.4377
  170SAPS    HB19233   2.144   5.564   7.191 -2.2930 -0.3246  0.9691
  170SAPS    C219234   2.159   5.373   7.100 -0.1028 -0.1015 -0.5756
  170SAPS    HS19235   2.140   5.268   7.132 -1.0974  0.4771  0.8832
  170SAPS   O2119236   2.288   5.388   7.054 -0.5242  0.0791 -0.3810
  170SAPS   C2119237   2.338   5.288   6.983  0.4656  0.8877 -0.2517
  170SAPS   O2219238   2.287   5.176   6.969 -0.6439 -0.1176 -0.3833
  170SAPS   C2219239   2.465   5.336   6.915  0.2369 -0.1915  0.2194
  170SAPS   H2R19240   2.453   5.443   6.889 -0.8306 -0.0645  1.1529
  170SAPS   H2S19241   2.548   5.332   6.988 -1.1965  2.1122  2.1319
  170SAPS    C319242   2.052   5.406   6.988  0.3430  0.0978  0.0183
  170SAPS    HX19243   2.076   5.507   6.950 -0.1782  0.7454  1.3317
  170SAPS    HY19244   1.950   5.418   7.032  0.8502  0.8134  1.0394
  170SAPS   O3119245   2.053   5.307   6.880  0.0759  0.4631 -0.2596
  170SAPS   C3119246   1.968   5.208   6.869  0.3130 -0.0014 -0.1484
  170SAPS   O3219247   1.866   5.190   6.937 -0.0498  0.2397  0.0347
  170SAPS   C3219248   2.021   5.127   6.751  0.4762 -0.2869 -0.6960
  170SAPS   H2X19249   2.125   5.107   6.783  0.4548  0.9360  0.2092
  170SAPS   H2Y19250   2.021   5.186   6.657  1.4913 -0.4588 -0.8071
  170SAPS   C2319251   2.513   5.249   6.806  0.6318 -0.4599  0.6967
  170SAPS   H3R19252   2.434   5.235   6.729  1.8060 -2.0014 -0.2525
  170SAPS   H3S19253   2.534   5.146   6.842  0.3251 -0.6393  0.3702
  170SAPS   C2419254   2.641   5.314   6.755  0.3977 -0.1750  1.0200
  170SAPS   H4R19255   2.698   5.241   6.693 -1.9718 -2.0683  0.9019
  170SAPS   H4S19256   2.713   5.342   6.835  0.3752 -2.1873  1.8101
  170SAPS   C2519257   2.610   5.439   6.673  0.2722  0.6743 -1.0852
  170SAPS   H5R19258   2.595   5.524   6.741 -0.0872 -0.0787 -0.1772
  170SAPS   C2619259   2.607   5.452   6.539 -0.7756 -0.1133  0.4724
  170SAPS   H6R19260   2.584   5.553   6.501 -0.9732 -1.0499 -2.1138
  170SAPS   C2719261   2.639   5.351   6.434  0.1109  0.0679  0.5736
  170SAPS   H7R19262   2.602   5.251   6.467 -0.1870 -0.0269 -0.0494
  170SAPS   H7S19263   2.750   5.340   6.428  0.1686 -0.0572  1.6519
  170SAPS   C2819264   2.567   5.383   6.303  0.3548  0.3992 -1.5281
  170SAPS   H8R19265   2.459   5.364   6.296  0.6148 -1.2376 -1.5618
  170SAPS   C2919266   2.630   5.413   6.188 -0.2895  0.4359 -0.0561
  170SAPS   H9R19267   2.560   5.431   6.105 -0.3228  0.7057  0.0276
  170SAPS  C21019268   2.779   5.430   6.144  0.1929 -0.3036 -0.2083
  170SAPS  H10R19269   2.839   5.411   6.235 -0.9073 -0.5234  0.4926
  170SAPS  H10S19270   2.797   5.538   6.127  0.2989 -0.2064  0.5066
  170SAPS  C21119271   2.826   5.347   6.023 -0.5654 -0.1108  0.1702
  170SAPS  H11R19272   2.862   5.245   6.043  2.1184  0.9909  1.5284
  170SAPS  C21219273   2.848   5.397   5.897 -0.1786  0.1134 -0.0229
  170SAPS  H12R19274   2.900   5.328   5.829 -0.0665  0.5277 -0.3644
  170SAPS  C21319275   2.817   5.534   5.835 -0.1014 -0.1945  0.9670
  170SAPS  H13R19276   2.910   5.577   5.792 -0.0845 -1.4636 -0.3262
  170SAPS  H13S19277   2.768   5.596   5.913  0.9840  0.8334  0.8504
  170SAPS  C21419278   2.716   5.531   5.718 -0.4909  0.0161  0.1349
  170SAPS  H14R19279   2.628   5.466   5.727 -0.8837  0.4272 -0.7181
  170SAPS  C21519280   2.726   5.609   5.611 -0.2362 -0.0132 -0.2384
  170SAPS  H15R19281   2.651   5.593   5.532  0.7614 -1.6392 -0.9053
  170SAPS  C21619282   2.829   5.713   5.570 -0.1039 -0.3559 -0.6268
  170SAPS  H16R19283   2.906   5.734   5.648  0.0248 -0.3927 -0.7428
  170SAPS  H16S19284   2.777   5.810   5.560  0.9589  0.2160 -0.7386
  170SAPS  C21719285   2.915   5.679   5.434 -0.4248 -0.3815  0.1409
  170SAPS  H17R19286   2.964   5.580   5.444  1.6865  0.4758 -1.0227
  170SAPS  H17S19287   2.991   5.760   5.425 -0.1039 -0.6593  0.3234
  170SAPS  C21819288   2.820   5.675   5.310 -0.2684  0.2198  0.0994
  170SAPS  H18R19289   2.743   5.600   5.337  0.4748 -0.2588  0.9640
  170SAPS  H18S19290   2.865   5.635   5.216 -0.0587  2.1092 -0.6476
  170SAPS  C21919291   2.761   5.817   5.282  0.1464  0.4853  0.1436
  170SAPS  H19R19292   2.832   5.876   5.219  0.1173 -1.0836 -1.4265
  170SAPS  H19S19293   2.744   5.865   5.381  2.1946 -0.0425  0.7992
  170SAPS  C22019294   2.622   5.819   5.216 -0.4633 -0.0743 -0.2762
  170SAPS  H20R19295   2.553   5.742   5.256  0.1379  0.2456  1.4297
  170SAPS  H20S19296   2.641   5.789   5.111 -0.4790 -1.2656  0.0546
  170SAPS  H20T19297   2.563   5.913   5.225  1.3818  1.0471  0.6938
  170SAPS   C3319298   1.953   4.989   6.745  0.2408  0.3823 -0.5447
  170SAPS   H3X19299   1.905   4.956   6.840  0.1719  2.0380  0.0197
  170SAPS   H3Y19300   2.025   4.904   6.739 -1.0620 -0.6929 -1.7665
  170SAPS   C3419301   1.861   4.974   6.629 -0.2286  0.4419  0.0141
  170SAPS   H4X19302   1.794   5.062   6.612 -1.8829 -0.5409  1.1979
  170SAPS   H4Y19303   1.800   4.887   6.661 -0.9195  0.8935 -0.0292
  170SAPS   C3519304   1.922   4.949   6.487  0.1633 -0.4754 -0.9442
  170SAPS   H5X19305   1.961   4.846   6.472 -1.1809 -0.8945 -1.7805
  170SAPS   H5Y19306   1.998   5.029   6.473 -0.2087 -0.1708 -1.2480
  170SAPS   C3619307   1.813   4.934   6.372  0.1631 -0.1782  0.3942
  170SAPS   H6X19308   1.746   5.022   6.361 -0.8365 -0.6846  2.0585
  170SAPS   H6Y19309   1.750   4.858   6.423  0.0291  0.7400  1.6189
  170SAPS   C3719310   1.863   4.877   6.237  0.1386  0.2413 -0.2327
  170SAPS   H7X19311   1.936   4.798   6.264  1.1086  0.3565 -2.3169
  170SAPS   H7Y19312   1.925   4.957   6.191  1.2232  1.2469  2.7396
  170SAPS   C3819313   1.748   4.829   6.151  0.5388  0.2634  0.6884
  170SAPS   H8X19314   1.669   4.907   6.151 -0.6152 -0.8559  1.8000
  170SAPS   H8Y19315   1.702   4.737   6.193  0.7663 -0.0043  0.3558
  170SAPS   C3919316   1.805   4.811   6.000 -0.1441  0.1403 -0.2908
  170SAPS   H9X19317   1.905   4.763   6.000 -1.1385 -2.0128  0.0186
  170SAPS   H9Y19318   1.831   4.910   5.955  2.8805  0.5361  1.9765
  170SAPS  C31019319   1.713   4.735   5.901  0.4254  0.3021 -0.0405
  170SAPS  H10X19320   1.608   4.773   5.902 -0.7891 -2.6437 -2.0490
  170SAPS  H10Y19321   1.700   4.630   5.935 -1.5989  0.9647  1.4213
  170SAPS  C31119322   1.762   4.746   5.760  0.7047 -0.1253 -0.0889
  170SAPS  H11X19323   1.710   4.679   5.689  1.3952  1.4678 -2.2001
  170SAPS  H11Y19324   1.866   4.707   5.750  0.6112 -0.0027 -1.8311
  170SAPS  C31219325   1.756   4.888   5.702  0.5644 -0.3570  0.8848
  170SAPS  H12X19326   1.834   4.943   5.758  3.5290 -1.2234 -2.1165
  170SAPS  H12Y19327   1.657   4.936   5.722  0.4048 -0.2024 -0.2431
  170SAPS  C31319328   1.789   4.901   5.551 -0.4860  0.3351 -0.0590
  170SAPS  H13X19329   1.878   4.841   5.525 -1.8123 -0.9390 -1.8397
  170SAPS  H13Y19330   1.811   5.010   5.541  1.5783  0.0044  0.4080
  170SAPS  C31419331   1.673   4.858   5.453 -1.3027  0.1381 -0.8390
  170SAPS  H14X19332   1.600   4.938   5.473 -0.4127  0.4538  1.4300
  170SAPS  H14Y19333   1.649   4.752   5.476  1.4142 -0.5523 -0.8507
  170SAPS  C31519334   1.713   4.858   5.304  0.4190 -0.4489 -0.0524
  170SAPS  H15X19335   1.629   4.811   5.249  1.5879 -3.1410  0.3003
  170SAPS  H15Y19336   1.809   4.803   5.302  0.5429 -0.2468  0.3062
  170SAPS  C31619337   1.731   5.006   5.260  0.0874 -0.4040  0.7203
  170SAPS  H16X19338   1.782   4.998   5.161 -2.1116 -0.1951 -0.5175
  170SAPS  H16Y19339   1.798   5.058   5.330  0.5563 -0.9330  0.6692
  170SAPS  C31719340   1.608   5.089   5.235  0.3800  0.4391  0.5869
  170SAPS  H17X19341   1.551   5.113   5.328 -0.5932  0.8565 -0.1064
  170SAPS  H17Y19342   1.540   5.031   5.170 -3.2163  3.1180  1.6111
  170SAPS  C31819343   1.635   5.229   5.175 -0.5184  0.3283  0.2346
  170SAPS  H18X19344   1.675   5.292   5.257  0.9136 -1.1246  0.7128
  170SAPS  H18Y19345   1.546   5.281   5.133 -0.3990  0.4122  0.0882
  170SAPS  H18Z19346   1.715   5.211   5.101 -0.8499  0.9536 -0.2831
  171SAPS     N19347   0.933   5.367   7.468 -0.2456  0.0755 -0.0137
  171SAPS   HN119348   0.920   5.464   7.433 -0.4863  1.0245  2.5385
  171SAPS   HN219349   0.937   5.313   7.379  0.4953  1.7563 -1.0654
  171SAPS   HN319350   0.855   5.331   7.525  0.7256 -1.0401  0.6626
  171SAPS   C1219351   1.053   5.346   7.552 -0.5738  0.1071 -0.0176
  171SAPS  H12A19352   1.027   5.379   7.652 -1.4614  0.1008 -0.2369
  171SAPS   C1319353   1.109   5.199   7.559 -0.1882  0.6054  0.1625
  171SAPS  O13A19354   1.042   5.104   7.503  0.0579 -0.3991 -0.4302
  171SAPS  O13B19355   1.207   5.181   7.634 -0.1041 -0.3528 -0.2515
  171SAPS   C1119356   1.171   5.440   7.514  0.5567 -0.6951 -0.4966
  171SAPS  H11A19357   1.212   5.414   7.414 -0.3730 -1.4404 -0.7065
  171SAPS  H11B19358   1.254   5.434   7.587  0.2321  2.3707  0.2300
  171SAPS     P19359   1.217   5.695   7.445  0.0932 -0.2633  0.0107
  171SAPS   O1319360   1.132   5.817   7.455 -0.1646 -0.3847 -0.0214
  171SAPS   O1419361   1.352   5.708   7.510  0.0567  0.0457  0.0442
  171SAPS   O1219362   1.129   5.578   7.519 -0.4062 -0.3018 -0.6283
  171SAPS   O1119363   1.223   5.651   7.291 -0.3030 -0.3518 -0.6038
  171SAPS    C119364   1.119   5.585   7.223 -1.1720  0.9613 -0.8169
  171SAPS    HA19365   1.103   5.486   7.270 -2.3229  1.3111 -0.4423
  171SAPS    HB19366   1.028   5.648   7.233  0.2936  3.1723 -0.6784
  171SAPS    C219367   1.128   5.584   7.064 -0.1714  0.2976 -0.2629
  171SAPS    HS19368   1.031   5.565   7.014 -0.0969  0.0131 -0.2990
  171SAPS   O2119369   1.232   5.490   7.029  0.3584 -0.2562 -0.5248
  171SAPS   C2119370   1.182   5.370   7.008 -0.1330  0.1917 -0.1372
  171SAPS   O2219371   1.065   5.345   6.991  0.3751  0.1467  0.0479
  171SAPS   C2219372   1.294   5.265   7.014 -0.0326 -0.3192  0.8609
  171SAPS   H2R19373   1.389   5.296   6.964  1.1247 -1.7094  2.1296
  171SAPS   H2S19374   1.320   5.232   7.117  0.0081  0.0038  0.9555
  171SAPS    C319375   1.174   5.730   7.017  0.1787  0.1672 -0.3782
  171SAPS    HX19376   1.270   5.751   7.067 -0.2592  0.0191  0.5439
  171SAPS    HY19377   1.103   5.805   7.059 -1.1258  0.2003 -2.4791
  171SAPS   O3119378   1.187   5.730   6.871  0.4732 -0.4107 -0.8111
  171SAPS   C3119379   1.212   5.846   6.829  0.4833 -0.5603  1.0534
  171SAPS   O3219380   1.235   5.949   6.896 -0.3517  0.1027  0.2029
  171SAPS   C3219381   1.200   5.846   6.672 -0.6690  0.6685 -0.3908
  171SAPS   H2X19382   1.138   5.758   6.645 -1.6142  1.4340 -0.7915
  171SAPS   H2Y19383   1.306   5.833   6.641 -0.7475 -1.3634  0.0643
  171SAPS   C2319384   1.246   5.136   6.945 -0.3312  0.2090  0.7082
  171SAPS   H3R19385   1.232   5.148   6.836 -2.1475 -3.2152  0.4477
  171SAPS   H3S19386   1.148   5.108   6.990 -1.0826  2.1260  0.3612
  171SAPS   C2419387   1.335   5.013   6.966 -0.2456  0.4698  0.2330
  171SAPS   H4R19388   1.286   4.929   6.913  0.4653 -0.7693  1.4645
  171SAPS   H4S19389   1.344   4.980   7.072  0.6984 -0.6454 -0.1742
  171SAPS   C2519390   1.469   5.047   6.908 -0.2937 -0.9331  0.2408
  171SAPS   H5R19391   1.535   5.099   6.979 -0.1854  2.1175 -1.9111
  171SAPS   C2619392   1.514   5.026   6.782  0.3788  0.0803 -0.0986
  171SAPS   H6R19393   1.613   5.063   6.748  0.0051 -0.4182 -1.8624
  171SAPS   C2719394   1.438   4.962   6.669  0.7193 -0.2487  0.4069
  171SAPS   H7R19395   1.329   4.971   6.691  0.5976  0.3271 -0.3706
  171SAPS   H7S19396   1.460   4.853   6.672  0.1265 -0.4633 -1.3625
  171SAPS   C2819397   1.451   5.015   6.523  0.2384  0.2615 -0.2696
  171SAPS   H8R19398   1.463   5.123   6.509  0.4333  0.1438 -1.0992
  171SAPS   C2919399   1.463   4.933   6.420  0.7281  0.1318  0.1944
  171SAPS   H9R19400   1.460   4.980   6.321  2.0875 -0.2387 -0.0487
  171SAPS  C21019401   1.451   4.781   6.416 -0.4396 -0.7340  0.0062
  171SAPS  H10R19402   1.546   4.743   6.458 -0.7612 -0.5440  0.9173
  171SAPS  H10S19403   1.450   4.760   6.307  0.9586  1.6257 -0.5311
  171SAPS  C21119404   1.344   4.703   6.482 -0.3107 -0.0367 -0.0333
  171SAPS  H11R19405   1.351   4.716   6.591  0.5474  1.7674 -0.2486
  171SAPS  C21219406   1.262   4.609   6.420 -0.2740  0.8410  0.1577
  171SAPS  H12R19407   1.191   4.544   6.473  0.2372 -0.9216 -1.2065
  171SAPS  C21319408   1.233   4.582   6.277  0.0076 -0.1560 -0.0137
  171SAPS  H13R19409   1.222   4.670   6.210 -0.9220 -0.8055 -0.7361
  171SAPS  H13S19410   1.136   4.532   6.260  0.3271 -0.3416 -1.3739
  171SAPS  C21419411   1.360   4.504   6.237  0.1825  0.5873 -0.6148
  171SAPS  H14R19412   1.407   4.441   6.313 -2.3841  0.7880  1.2830
  171SAPS  C21519413   1.407   4.488   6.116 -0.0436 -0.1030  0.2753
  171SAPS  H15R19414   1.499   4.429   6.102 -0.4429 -0.9893  1.2494
  171SAPS  C21619415   1.346   4.543   5.994 -0.1693 -0.6150  0.1504
  171SAPS  H16R19416   1.416   4.611   5.941  0.8475 -2.0956 -0.4638
  171SAPS  H16S19417   1.252   4.598   6.016 -0.5323 -1.5157  0.9220
  171SAPS  C21719418   1.296   4.435   5.897 -0.4348 -0.1308 -0.4931
  171SAPS  H17R19419   1.193   4.416   5.935 -0.2427  0.4324  0.3214
  171SAPS  H17S19420   1.367   4.352   5.916 -0.8123  0.1724  2.8077
  171SAPS  C21819421   1.291   4.474   5.751  0.1736 -0.8501 -0.4661
  171SAPS  H18R19422   1.238   4.572   5.740 -0.0500 -0.7780  1.0791
  171SAPS  H18S19423   1.231   4.400   5.694 -1.0439 -0.1419 -0.1448
  171SAPS  C21919424   1.433   4.500   5.698  0.1406 -0.5488 -0.0124
  171SAPS  H19R19425   1.493   4.407   5.708  0.2642 -0.7313 -2.0229
  171SAPS  H19S19426   1.489   4.576   5.757  0.0313 -0.0841 -0.5040
  171SAPS  C22019427   1.436   4.536   5.547 -0.4227 -0.8937  0.0387
  171SAPS  H20R19428   1.539   4.527   5.505  0.0864 -1.1455  1.2908
  171SAPS  H20S19429   1.403   4.640   5.531 -0.4095 -1.1554 -2.0415
  171SAPS  H20T19430   1.377   4.461   5.489  1.7898 -0.1631 -3.5022
  171SAPS   C3319431   1.129   5.976   6.629  0.0773  0.8367  0.3816
  171SAPS   H3X19432   1.175   6.066   6.675  2.8912 -0.3512  0.1046
  171SAPS   H3Y19433   1.027   5.967   6.670  0.6262 -1.0057  1.4572
  171SAPS   C3419434   1.139   5.997   6.485  0.0585 -0.8309  0.2234
  171SAPS   H4X19435   1.246   6.007   6.459  0.0852 -1.3001  0.1372
  171SAPS   H4Y19436   1.090   6.090   6.448 -0.1959 -0.8256  0.5722
  171SAPS   C3519437   1.078   5.899   6.390  0.2346  0.4425  1.0030
  171SAPS   H5X19438   1.120   5.803   6.428  2.6455  1.0349  0.0488
  171SAPS   H5Y19439   1.119   5.918   6.289 -1.3975  3.0558  0.7362
  171SAPS   C3619440   0.935   5.889   6.385  0.0045  0.1063  0.1647
  171SAPS   H6X19441   0.874   5.980   6.365 -1.4077 -0.8498  0.0136
  171SAPS   H6Y19442   0.904   5.840   6.480  1.5334  0.3021  0.8004
  171SAPS   C3719443   0.894   5.783   6.282  0.0416  0.5605  0.2201
  171SAPS   H7X19444   0.812   5.720   6.324 -1.4755  0.6964 -2.2902
  171SAPS   H7Y19445   0.978   5.721   6.243  0.3499  0.9462  0.2754
  171SAPS   C3819446   0.818   5.855   6.169  0.1819  0.0634 -0.0412
  171SAPS   H8X19447   0.881   5.936   6.127  0.3287 -0.3386 -0.6154
  171SAPS   H8Y19448   0.740   5.918   6.217  0.5608  0.2008  0.3990
  171SAPS   C3919449   0.770   5.766   6.051 -0.1341  0.1700 -0.2760
  171SAPS   H9X19450   0.670   5.797   6.014 -0.2675 -0.4581 -0.4457
  171SAPS   H9Y19451   0.749   5.667   6.096  1.2730 -0.7550 -1.5882
  171SAPS  C31019452   0.867   5.767   5.925 -0.2694  0.0967 -0.0135
  171SAPS  H10X19453   0.943   5.685   5.925 -1.3797 -0.9626  0.7855
  171SAPS  H10Y19454   0.920   5.864   5.915  0.4095 -0.3790 -1.3646
  171SAPS  C31119455   0.787   5.736   5.789 -1.1841  0.1244 -0.9269
  171SAPS  H11X19456   0.705   5.810   5.781  0.1134  1.4322 -3.0356
  171SAPS  H11Y19457   0.749   5.632   5.793 -0.8587  0.0328  2.2116
  171SAPS  C31219458   0.883   5.743   5.671 -0.8184  0.1406  1.3342
  171SAPS  H12X19459   0.963   5.673   5.702 -0.4633  1.5878  3.9171
  171SAPS  H12Y19460   0.928   5.845   5.663 -2.3421  0.9055  2.2549
  171SAPS  C31319461   0.811   5.696   5.537  0.1335 -0.0069 -0.2411
  171SAPS  H13X19462   0.759   5.599   5.549 -0.3951  0.2265 -0.6280
  171SAPS  H13Y19463   0.887   5.669   5.460  0.1060 -1.1844  0.1287
  171SAPS  C31419464   0.736   5.812   5.474  0.4130 -0.0164  0.2421
  171SAPS  H14X19465   0.808   5.885   5.431  0.2391 -0.0519 -0.1101
  171SAPS  H14Y19466   0.674   5.870   5.546  0.8342 -0.6014  1.0977
  171SAPS  C31519467   0.650   5.771   5.351  0.7236 -0.9303 -0.0884
  171SAPS  H15X19468   0.604   5.862   5.308 -0.7736 -2.4492 -1.8502
  171SAPS  H15Y19469   0.574   5.698   5.384 -0.1333 -0.4672 -1.0075
  171SAPS  C31619470   0.727   5.712   5.230 -0.0182  0.3669 -0.3567
  171SAPS  H16X19471   0.767   5.612   5.260  0.6222  0.5492 -0.5840
  171SAPS  H16Y19472   0.818   5.775   5.219  0.0522  0.1667 -0.9715
  171SAPS  C31719473   0.641   5.703   5.107 -0.3050  0.0229 -0.7044
  171SAPS  H17X19474   0.685   5.636   5.030  0.1123  0.2687 -0.6788
  171SAPS  H17Y19475   0.624   5.803   5.061  0.4793 -0.5850 -2.3749
  171SAPS  C31819476   0.503   5.651   5.133 -0.1389 -0.2231 -0.3822
  171SAPS  H18X19477   0.468   5.615   5.034  0.7288  0.5141 -0.9770
  171SAPS  H18Y19478   0.431   5.719   5.182  1.3681  1.2024 -0.0440
  171SAPS  H18Z19479   0.528   5.571   5.207  1.5170  0.5577 -0.0540
  172SAPS     N19480   4.123   3.767   7.714 -0.8565 -0.0589  0.0123
  172SAPS   HN119481   4.116   3.674   7.760 -1.9359  0.8879  1.8524
  172SAPS   HN219482   4.136   3.759   7.611  1.0159 -0.0516  0.2159
  172SAPS   HN319483   4.200   3.820   7.759 -0.1152 -1.4106  0.3913
  172SAPS   C1219484   3.995   3.836   7.729  0.6304 -0.0882  0.3444
  172SAPS  H12A19485   3.927   3.794   7.656  0.6400  0.3996  0.0481
  172SAPS   C1319486   3.928   3.809   7.862 -0.1732  0.6427  0.1864
  172SAPS  O13A19487   3.975   3.728   7.947  0.7293  0.5109  0.2819
  172SAPS  O13B19488   3.805   3.849   7.876 -0.1711 -0.0929 -0.0996
  172SAPS   C1119489   4.011   3.984   7.708  0.0665 -0.3741 -0.0354
  172SAPS  H11A19490   4.070   4.034   7.788 -1.1876  0.0477  0.6627
  172SAPS  H11B19491   3.906   4.020   7.705 -0.1709 -1.0622  0.0228
  172SAPS     P19492   4.054   4.139   7.509 -0.1739  0.1386  0.0784
  172SAPS   O1319493   4.018   4.242   7.607  0.6232  0.2311  0.8334
  172SAPS   O1419494   4.180   4.148   7.422 -0.8585  0.8404  0.7270
  172SAPS   O1219495   4.071   4.007   7.586 -0.4484 -0.1806  0.8386
  172SAPS   O1119496   3.927   4.102   7.422 -0.5105  0.3314 -0.4544
  172SAPS    C119497   3.906   3.976   7.361 -0.6072 -0.1842  0.2653
  172SAPS    HA19498   4.001   3.919   7.349  0.0804  0.6501  1.5156
  172SAPS    HB19499   3.842   3.915   7.428 -0.0397  0.9617  1.8959
  172SAPS    C219500   3.823   3.981   7.228 -0.2692 -0.5913 -0.3537
  172SAPS    HS19501   3.821   3.886   7.170  2.1195 -1.3250  0.6397
  172SAPS   O2119502   3.882   4.084   7.145  0.4780  0.2551  0.3763
  172SAPS   C2119503   4.001   4.044   7.089 -0.1631 -0.5492 -0.0487
  172SAPS   O2219504   4.051   3.934   7.086 -0.1736  0.2971 -0.3338
  172SAPS   C2219505   4.070   4.162   7.025 -0.0484 -0.2222 -0.4419
  172SAPS   H2R19506   4.010   4.255   7.035  0.6326  0.6473 -3.4691
  172SAPS   H2S19507   4.162   4.186   7.083  0.0069 -2.1454  0.3298
  172SAPS    C319508   3.667   4.006   7.254  0.8360 -0.0474  0.3579
  172SAPS    HX19509   3.657   4.108   7.296 -0.9608  0.5156 -1.2757
  172SAPS    HY19510   3.623   3.933   7.325 -0.5087 -1.1286 -1.5029
  172SAPS   O3119511   3.588   3.996   7.133  0.1529  0.5030 -0.1370
  172SAPS   C3119512   3.558   4.103   7.069 -1.2770 -0.4247 -0.6122
  172SAPS   O3219513   3.610   4.210   7.084 -0.4951  0.1540 -0.2093
  172SAPS   C3219514   3.460   4.071   6.960 -0.4219 -0.1423 -0.0818
  172SAPS   H2X19515   3.366   4.127   6.982 -0.9676 -1.0055 -0.1675
  172SAPS   H2Y19516   3.434   3.963   6.961 -0.5894 -0.1030  0.9959
  172SAPS   C2319517   4.120   4.148   6.875 -0.0603  1.1010  0.7034
  172SAPS   H3R19518   4.169   4.048   6.869 -1.9261  0.2335 -1.7810
  172SAPS   H3S19519   4.190   4.230   6.850  0.6729  1.3736  3.3118
  172SAPS   C2419520   4.010   4.136   6.777 -0.5352  0.2950 -0.0390
  172SAPS   H4R19521   3.956   4.042   6.802 -3.9798  1.0077 -3.7430
  172SAPS   H4S19522   4.041   4.114   6.673 -2.7507 -2.4475 -0.2411
  172SAPS   C2519523   3.915   4.252   6.755  0.3384  0.2324 -0.2840
  172SAPS   H5R19524   3.918   4.336   6.826 -0.8425  2.1471 -2.3305
  172SAPS   C2619525   3.849   4.273   6.644 -0.5749  0.3894  0.2688
  172SAPS   H6R19526   3.778   4.357   6.640 -1.3816 -0.3098 -1.1628
  172SAPS   C2719527   3.839   4.179   6.530  0.5783  0.0300 -0.0989
  172SAPS   H7R19528   3.735   4.151   6.501  0.1032  1.4473  0.1492
  172SAPS   H7S19529   3.901   4.088   6.544  2.0385  1.1078  0.8073
  172SAPS   C2819530   3.910   4.250   6.415  0.1572  0.4113 -0.4124
  172SAPS   H8R19531   4.012   4.283   6.440 -0.0190  1.2241 -0.7298
  172SAPS   C2919532   3.851   4.275   6.291 -0.3431  1.2669 -0.6108
  172SAPS   H9R19533   3.903   4.340   6.219 -0.6338  2.6688  0.3966
  172SAPS  C21019534   3.720   4.215   6.258 -0.3981 -0.2806  0.2800
  172SAPS  H10R19535   3.650   4.235   6.342  0.1546  0.9713  0.4559
  172SAPS  H10S19536   3.730   4.105   6.246 -1.3000 -0.1223 -2.7408
  172SAPS  C21119537   3.649   4.282   6.139  0.2762 -0.4653 -0.2803
  172SAPS  H11R19538   3.593   4.371   6.173 -0.4098 -1.1168  0.3205
  172SAPS  C21219539   3.668   4.240   6.019  0.6747 -0.3918  0.5181
  172SAPS  H12R19540   3.625   4.299   5.937 -0.8571 -0.6088  1.1233
  172SAPS  C21319541   3.750   4.123   5.965 -0.4211  0.2655  0.1300
  172SAPS  H13R19542   3.694   4.047   5.906 -0.5790 -0.5692  1.3152
  172SAPS  H13S19543   3.785   4.055   6.046  0.6669 -2.0026 -2.1065
  172SAPS  C21419544   3.880   4.161   5.904  0.3517 -0.2730 -0.5758
  172SAPS  H14R19545   3.972   4.136   5.958 -0.0055 -1.2676 -0.4052
  172SAPS  C21519546   3.893   4.225   5.790  0.0594  0.1758 -0.1829
  172SAPS  H15R19547   3.992   4.246   5.747  0.7074 -2.0332  0.1055
  172SAPS  C21619548   3.773   4.258   5.709 -0.0048  0.4180  0.2402
  172SAPS  H16R19549   3.708   4.338   5.751 -0.0464  0.3536  0.2998
  172SAPS  H16S19550   3.700   4.174   5.707  0.3457  0.1009  0.6188
  172SAPS  C21719551   3.818   4.295   5.561 -0.0779 -0.1355 -0.2768
  172SAPS  H17R19552   3.890   4.216   5.531 -0.0042 -0.0961 -0.2039
  172SAPS  H17S19553   3.870   4.393   5.560 -1.9952  1.0076  1.7947
  172SAPS  C21819554   3.705   4.302   5.455 -0.7535 -0.9364 -0.4520
  172SAPS  H18R19555   3.622   4.370   5.484 -1.8144 -2.8619  1.3533
  172SAPS  H18S19556   3.677   4.195   5.440 -3.3072 -0.4598  0.4487
  172SAPS  C21919557   3.749   4.369   5.323 -0.0189 -0.7100  0.6272
  172SAPS  H19R19558   3.775   4.475   5.347 -3.9185  0.1988  1.4556
  172SAPS  H19S19559   3.668   4.374   5.248 -0.2199  0.5020  0.8955
  172SAPS  C22019560   3.869   4.301   5.250 -0.1026  0.1884  0.4203
  172SAPS  H20R19561   3.857   4.191   5.233 -0.0675  0.4785 -1.7777
  172SAPS  H20S19562   3.962   4.310   5.310 -2.1422  1.4908  3.6385
  172SAPS  H20T19563   3.883   4.349   5.151 -1.4493 -2.1314 -0.9970
  172SAPS   C3319564   3.510   4.099   6.818  0.1488  0.0576  0.1767
  172SAPS   H3X19565   3.610   4.057   6.791  1.8147  1.9520  2.9707
  172SAPS   H3Y19566   3.530   4.208   6.809  1.8866 -0.0474  2.0577
  172SAPS   C3419567   3.403   4.059   6.717 -0.3946 -0.0073  0.3941
  172SAPS   H4X19568   3.312   4.115   6.746 -1.0402  0.0821 -1.6545
  172SAPS   H4Y19569   3.371   3.953   6.720 -1.6315  0.1811 -2.8363
  172SAPS   C3519570   3.443   4.117   6.573  0.4331  0.3316 -0.1593
  172SAPS   H5X19571   3.549   4.096   6.547  1.2616  3.0557  0.6328
  172SAPS   H5Y19572   3.435   4.227   6.587 -1.7769  0.2202 -0.2062
  172SAPS   C3619573   3.345   4.071   6.463 -0.6076  0.6088  0.4282
  172SAPS   H6X19574   3.239   4.077   6.495 -0.4158 -0.9986  1.4591
  172SAPS   H6Y19575   3.350   3.962   6.442 -0.5360  0.5972  0.5068
  172SAPS   C3719576   3.360   4.155   6.337  1.1784 -0.1896 -0.3793
  172SAPS   H7X19577   3.466   4.166   6.304  1.1307  1.4293 -0.0873
  172SAPS   H7Y19578   3.320   4.257   6.352  0.5699 -0.5760  0.7382
  172SAPS   C3819579   3.292   4.094   6.217 -0.1744  0.1723 -0.6025
  172SAPS   H8X19580   3.184   4.112   6.235 -0.1343 -1.0005  1.0496
  172SAPS   H8Y19581   3.313   3.985   6.210  2.2714  0.5084  0.4541
  172SAPS   C3919582   3.329   4.154   6.076  0.1871  0.2784 -0.0829
  172SAPS   H9X19583   3.424   4.211   6.082  1.3574 -1.3908 -1.5803
  172SAPS   H9Y19584   3.246   4.223   6.053 -1.2584 -1.0232  1.0036
  172SAPS  C31019585   3.339   4.054   5.957 -0.1242  0.7007  0.4073
  172SAPS  H10X19586   3.249   3.989   5.961 -0.7100  1.5444  2.2005
  172SAPS  H10Y19587   3.431   3.999   5.988 -0.3810  0.4812  0.7898
  172SAPS  C31119588   3.366   4.112   5.818 -0.1950  0.2182 -0.3015
  172SAPS  H11X19589   3.453   4.177   5.838  0.0393 -0.3878  0.7575
  172SAPS  H11Y19590   3.278   4.176   5.793 -1.3932 -1.2646 -0.0551
  172SAPS  C31219591   3.390   4.007   5.709 -0.4812 -0.3133 -0.8099
  172SAPS  H12X19592   3.301   3.943   5.690 -0.6835 -0.2012 -0.2701
  172SAPS  H12Y19593   3.465   3.937   5.752 -0.4611  1.3616  2.1772
  172SAPS  C31319594   3.445   4.057   5.578  0.0567  0.0218 -0.5835
  172SAPS  H13X19595   3.551   4.030   5.561  1.0847  1.5912  2.5361
  172SAPS  H13Y19596   3.444   4.168   5.587  1.8637  0.0432 -0.3810
  172SAPS  C31419597   3.352   4.033   5.454 -0.1930  0.3138  0.3267
  172SAPS  H14X19598   3.252   4.063   5.492 -1.3085 -2.6601  0.0407
  172SAPS  H14Y19599   3.343   3.923   5.439  0.3514  0.1194  1.3089
  172SAPS  C31519600   3.411   4.104   5.331 -0.0598  0.3763  0.2129
  172SAPS  H15X19601   3.514   4.067   5.311 -1.0083 -1.6070 -1.3238
  172SAPS  H15Y19602   3.405   4.211   5.361  2.1669  1.5269 -2.8384
  172SAPS  C31619603   3.326   4.097   5.210 -1.0806  0.1647  0.0304
  172SAPS  H16X19604   3.223   4.131   5.232 -0.2666  1.5818  1.8892
  172SAPS  H16Y19605   3.374   4.155   5.128  2.1128 -0.1585  1.5061
  172SAPS  C31719606   3.305   3.954   5.159 -0.3595  0.1185 -0.7203
  172SAPS  H17X19607   3.236   3.900   5.228  1.6622 -1.6194  0.0346
  172SAPS  H17Y19608   3.400   3.897   5.164 -0.7103 -0.3925  2.2372
  172SAPS  C31819609   3.244   3.935   5.017 -0.1570  0.1542 -0.0712
  172SAPS  H18X19610   3.147   3.988   5.021 -1.6237 -2.4294  1.0244
  172SAPS  H18Y19611   3.221   3.826   5.006  2.7044 -0.6155  0.6033
  172SAPS  H18Z19612   3.313   3.958   4.933  1.9230  1.8465  1.9715
  173SAPS     N19613   0.355   0.147   2.585  0.4949  0.3687 -0.2847
  173SAPS   HN119614   0.305   0.168   2.496  0.0481  0.6056  0.0197
  173SAPS   HN219615   0.287   0.179   2.656  1.0275  1.8816 -0.4257
  173SAPS   HN319616   0.435   0.211   2.602  0.9378 -0.5942  1.4232
  173SAPS   C1219617   0.403   0.007   2.626 -0.5943  0.1273  0.4225
  173SAPS  H12A19618   0.313  -0.053   2.625 -0.5133  0.0057  0.4615
  173SAPS   C1319619   0.503  -0.052   2.528  0.4575  0.3579  0.3071
  173SAPS  O13A19620   0.562   0.022   2.440 -0.0457 -0.1064  0.1866
  173SAPS  O13B19621   0.548  -0.166   2.548  0.6666  0.3803  0.7224
  173SAPS   C1119622   0.468   0.020   2.772  0.3329  0.1439 -0.6349
  173SAPS  H11A19623   0.521   0.117   2.782  0.8648 -0.1807 -0.2654
  173SAPS  H11B19624   0.541  -0.064   2.776 -0.0946 -0.2766 -1.4369
  173SAPS     P19625   0.303   0.116   2.950  0.2580  0.6986  0.7007
  173SAPS   O1319626   0.290   0.219   2.847  0.6720 -0.1372  0.6634
  173SAPS   O1419627   0.181   0.069   3.015  0.3237  0.3953  0.5014
  173SAPS   O1219628   0.374  -0.008   2.877  0.5312  0.3879 -0.1063
  173SAPS   O1119629   0.415   0.153   3.061  0.1392  0.0802  0.3120
  173SAPS    C119630   0.478   0.042   3.126  0.6931 -0.4852 -0.6525
  173SAPS    HA19631   0.409  -0.044   3.143  1.1139 -0.7706 -0.3487
  173SAPS    HB19632   0.564  -0.006   3.075  1.3638 -0.7956  0.7132
  173SAPS    C219633   0.510   0.093   3.271 -0.0438 -0.4353  0.1526
  173SAPS    HS19634   0.556   0.010   3.329  2.3384  0.5568 -0.1718
  173SAPS   O2119635   0.384   0.135   3.333 -0.7222  0.0965  0.2811
  173SAPS   C2119636   0.301   0.043   3.373  0.2852  0.5779 -0.7699
  173SAPS   O2219637   0.331  -0.076   3.381  0.2066  0.8993  0.4873
  173SAPS   C2219638   0.176   0.100   3.435  0.1291 -0.1224 -0.0342
  173SAPS   H2R19639   0.118   0.157   3.359 -2.2570 -0.4997  1.4095
  173SAPS   H2S19640   0.112   0.016   3.470  0.4852 -0.3256  0.1405
  173SAPS    C319641   0.603   0.215   3.273  0.4120 -0.4333  0.5001
  173SAPS    HX19642   0.546   0.285   3.208  0.3476 -0.7043  0.2627
  173SAPS    HY19643   0.702   0.188   3.231  0.7971 -0.9882  1.7120
  173SAPS   O3119644   0.602   0.281   3.405 -0.0948  0.3813 -0.4313
  173SAPS   C3119645   0.715   0.332   3.444  0.3513 -0.0348  0.4423
  173SAPS   O3219646   0.821   0.320   3.385  0.2678 -0.7030  1.1074
  173SAPS   C3219647   0.679   0.409   3.568 -0.4307  0.1697 -0.1888
  173SAPS   H2X19648   0.598   0.481   3.542  0.0717  0.8800  0.1593
  173SAPS   H2Y19649   0.765   0.475   3.594  0.0094 -0.0386 -1.0765
  173SAPS   C2319650   0.213   0.194   3.557  0.7376  0.1548 -0.2176
  173SAPS   H3R19651   0.132   0.269   3.567 -0.0434 -0.8026  1.0436
  173SAPS   H3S19652   0.304   0.257   3.550 -0.8584  3.0382  2.3831
  173SAPS   C2419653   0.205   0.127   3.697  0.4985  0.2671  0.3054
  173SAPS   H4R19654   0.111   0.070   3.711  0.9788 -1.0931 -1.5445
  173SAPS   H4S19655   0.204   0.211   3.769 -1.1949 -0.4415  1.1402
  173SAPS   C2519656   0.317   0.026   3.712 -0.3231  0.0489 -0.0602
  173SAPS   H5R19657   0.335  -0.038   3.625 -1.4762 -1.0044  0.4555
  173SAPS   C2619658   0.412   0.017   3.813  0.4109  0.2851  0.9983
  173SAPS   H6R19659   0.498  -0.049   3.799 -0.3302 -0.5662  0.3854
  173SAPS   C2719660   0.421   0.108   3.936 -0.7654  0.1229 -0.3257
  173SAPS   H7R19661   0.334   0.102   4.005 -0.5980  0.8971 -0.0316
  173SAPS   H7S19662   0.417   0.216   3.909 -0.8174  0.0841 -0.4770
  173SAPS   C2819663   0.544   0.080   4.009  0.2457  0.2936  0.0482
  173SAPS   H8R19664   0.633   0.064   3.946  0.7094 -0.6610  0.9079
  173SAPS   C2919665   0.561   0.065   4.142 -0.4047  0.0884  0.1352
  173SAPS   H9R19666   0.663   0.048   4.180 -1.0672 -0.5912  1.7111
  173SAPS  C21019667   0.462   0.079   4.251  0.4279 -0.1837  0.3146
  173SAPS  H10R19668   0.473   0.008   4.336  0.4321 -0.2263  0.2789
  173SAPS  H10S19669   0.362   0.062   4.206  0.4697 -0.1780  0.2205
  173SAPS  C21119670   0.484   0.215   4.318  0.4001 -0.0745 -0.5024
  173SAPS  H11R19671   0.490   0.294   4.242  2.0436  2.0329  1.6550
  173SAPS  C21219672   0.503   0.255   4.445  0.8435 -0.4520 -0.4092
  173SAPS  H12R19673   0.512   0.363   4.466  2.2552 -0.6060 -0.1059
  173SAPS  C21319674   0.492   0.162   4.567 -0.4335  0.2302 -0.1749
  173SAPS  H13R19675   0.507   0.058   4.531 -0.3927  0.8896 -2.1871
  173SAPS  H13S19676   0.390   0.166   4.610  0.4028 -0.1426  1.9552
  173SAPS  C21419677   0.608   0.197   4.664 -0.2336  0.0397 -0.2895
  173SAPS  H14R19678   0.710   0.162   4.642  0.9935  3.5506 -0.7927
  173SAPS  C21519679   0.604   0.272   4.772  0.2289 -0.5227  0.0443
  173SAPS  H15R19680   0.700   0.289   4.823  0.6220 -0.7798 -0.5937
  173SAPS  C21619681   0.483   0.353   4.814 -0.0704  0.1907 -0.5322
  173SAPS  H16R19682   0.409   0.361   4.732  0.8509  2.0810 -1.2411
  173SAPS  H16S19683   0.520   0.455   4.836 -0.5057  0.1644  0.3484
  173SAPS  C21719684   0.419   0.285   4.935  0.5469  0.9066 -0.0032
  173SAPS  H17R19685   0.372   0.190   4.903  4.0696 -0.4886 -1.5312
  173SAPS  H17S19686   0.334   0.350   4.964 -1.3152 -1.7757  0.9541
  173SAPS  C21819687   0.509   0.266   5.057 -0.5199  0.6117  0.1189
  173SAPS  H18R19688   0.552   0.366   5.082  0.3153  0.5809 -1.1316
  173SAPS  H18S19689   0.593   0.196   5.039 -1.4643 -0.6128  0.3415
  173SAPS  C21919690   0.444   0.198   5.179  0.1919  0.4730 -0.3093
  173SAPS  H19R19691   0.430   0.089   5.160  1.0691  0.2784  0.0898
  173SAPS  H19S19692   0.342   0.238   5.194  1.4730  3.7338  0.4785
  173SAPS  C22019693   0.526   0.212   5.307  0.2330 -0.0894  0.4765
  173SAPS  H20R19694   0.552   0.315   5.339 -0.3110 -0.8064  3.5530
  173SAPS  H20S19695   0.619   0.151   5.303  0.6052  0.5198 -0.2826
  173SAPS  H20T19696   0.475   0.156   5.389 -1.8181  0.8357 -0.1087
  173SAPS   C3319697   0.646   0.323   3.694 -0.0977  0.0203 -0.0189
  173SAPS   H3X19698   0.733   0.262   3.728  0.1624 -0.0464 -0.7706
  173SAPS   H3Y19699   0.566   0.252   3.667 -0.8557  1.2974 -1.2575
  173SAPS   C3419700   0.602   0.418   3.806 -0.2679  0.0088 -0.1062
  173SAPS   H4X19701   0.561   0.348   3.882 -0.0957  0.5280  0.4673
  173SAPS   H4Y19702   0.529   0.492   3.769  2.1677  1.9956 -1.2161
  173SAPS   C3519703   0.712   0.498   3.891  0.1241  0.1342  0.7185
  173SAPS   H5X19704   0.645   0.553   3.960 -2.4252 -0.6574 -0.9649
  173SAPS   H5Y19705   0.757   0.582   3.834  2.2981 -0.8609  0.8480
  173SAPS   C3619706   0.814   0.413   3.967 -0.5422  0.5271 -0.0458
  173SAPS   H6X19707   0.879   0.359   3.894  0.0484  1.7743 -0.4830
  173SAPS   H6Y19708   0.756   0.335   4.021  0.5967 -0.6535 -0.4613
  173SAPS   C3719709   0.907   0.497   4.057  0.8112  0.1748  1.1549
  173SAPS   H7X19710   0.847   0.558   4.128  0.5776  0.6825  0.5235
  173SAPS   H7Y19711   0.956   0.568   3.988 -0.3781  0.4737  0.5878
  173SAPS   C3819712   1.006   0.416   4.141  0.0127 -0.1136  0.2507
  173SAPS   H8X19713   1.074   0.489   4.190  1.0048 -0.9787  0.2003
  173SAPS   H8Y19714   1.066   0.353   4.071  0.1954 -0.5496  0.7954
  173SAPS   C3919715   0.935   0.320   4.247  0.3562  0.0582  0.6092
  173SAPS   H9X19716   0.860   0.253   4.201 -1.1574  1.6150  0.7459
  173SAPS   H9Y19717   0.870   0.382   4.312  1.4605  1.7232  0.1774
  173SAPS  C31019718   1.037   0.244   4.336 -0.4004 -0.1173  0.7780
  173SAPS  H10X19719   1.093   0.321   4.395  1.3630 -0.9021  0.1667
  173SAPS  H10Y19720   1.106   0.189   4.270 -2.1619  1.2967 -2.4575
  173SAPS  C31119721   0.978   0.140   4.434  0.0941 -0.4593 -0.0335
  173SAPS  H11X19722   0.915   0.073   4.372  0.8559 -1.1600 -0.0687
  173SAPS  H11Y19723   0.920   0.199   4.508 -4.1295 -0.6369 -2.8721
  173SAPS  C31219724   1.096   0.056   4.488 -0.0919  0.1300  0.6049
  173SAPS  H12X19725   1.169   0.131   4.524  0.0861  0.0903  0.3298
  173SAPS  H12Y19726   1.149  -0.011   4.418  0.4748  0.7319  0.4464
  173SAPS  C31319727   1.046  -0.027   4.604 -0.6033  1.1113 -0.4013
  173SAPS  H13X19728   0.987  -0.116   4.572  1.6269 -0.8291  0.5363
  173SAPS  H13Y19729   0.999   0.040   4.680  0.5335  2.1148 -0.5621
  173SAPS  C31419730   1.155  -0.111   4.678 -0.1243  0.2765  0.0455
  173SAPS  H14X19731   1.244  -0.046   4.694  1.1369 -1.6968  1.4300
  173SAPS  H14Y19732   1.177  -0.186   4.599 -3.6551 -0.4134 -0.4687
  173SAPS  C31519733   1.104  -0.187   4.804 -0.0832 -0.1299  0.3418
  173SAPS  H15X19734   1.166  -0.276   4.830 -0.1699 -0.7405 -1.3806
  173SAPS  H15Y19735   1.003  -0.224   4.776 -0.6689 -0.1986  2.4067
  173SAPS  C31619736   1.092  -0.101   4.931 -0.4119  0.2362  0.1161
  173SAPS  H16X19737   1.051  -0.006   4.893 -2.0090 -0.8095 -0.8983
  173SAPS  H16Y19738   1.187  -0.068   4.979 -0.3400  0.2696 -0.0477
  173SAPS  C31719739   1.000  -0.153   5.047  0.0941  0.1512  0.2011
  173SAPS  H17X19740   1.043  -0.118   5.143 -0.5620  1.8279 -0.0860
  173SAPS  H17Y19741   1.008  -0.263   5.061  2.2491 -0.0126 -1.6720
  173SAPS  C31819742   0.860  -0.110   5.029 -0.1050 -0.0079 -0.0068
  173SAPS  H18X19743   0.806  -0.130   5.125  0.9098  1.1740  0.8466
  173SAPS  H18Y19744   0.808  -0.154   4.942  0.2992  1.6959 -1.1668
  173SAPS  H18Z19745   0.850  -0.001   5.010  1.5762 -0.1156 -1.7150
  174SAPS     N19746   3.707   4.493   2.696  0.8525  0.2681 -0.0087
  174SAPS   HN119747   3.696   4.409   2.756  2.5954 -0.9750 -1.3071
  174SAPS   HN219748   3.807   4.520   2.686  0.8358 -0.2356 -2.0244
  174SAPS   HN319749   3.658   4.574   2.738  0.1518 -0.0429 -0.2137
  174SAPS   C1219750   3.659   4.473   2.558 -0.0798 -0.3570  0.6913
  174SAPS  H12A19751   3.653   4.571   2.513  1.0710 -0.8127 -0.5323
  174SAPS   C1319752   3.765   4.407   2.469 -0.0965 -0.0101  0.0845
  174SAPS  O13A19753   3.880   4.366   2.517  0.0871 -0.0983  0.3770
  174SAPS  O13B19754   3.730   4.380   2.355 -0.6892  0.1828  0.0153
  174SAPS   C1119755   3.522   4.400   2.558  0.4377 -0.7313  0.3431
  174SAPS  H11A19756   3.537   4.301   2.607  0.4515  0.1339  2.1427
  174SAPS  H11B19757   3.488   4.391   2.452  0.7609 -1.8096  0.3143
  174SAPS     P19758   3.271   4.497   2.590  0.1884  0.1229  0.0366
  174SAPS   O1319759   3.244   4.638   2.621 -0.8066  0.5940  0.1447
  174SAPS   O1419760   3.261   4.452   2.448 -0.2545 -0.7212  0.2667
  174SAPS   O1219761   3.421   4.465   2.634 -0.0630 -0.7046 -0.1141
  174SAPS   O1119762   3.190   4.399   2.674  0.2756 -0.4181 -0.2566
  174SAPS    C119763   3.206   4.395   2.816 -0.2541 -0.1076  0.7763
  174SAPS    HA19764   3.203   4.294   2.863 -0.3900  0.8857  3.0330
  174SAPS    HB19765   3.297   4.452   2.845  0.1609 -0.3331 -0.0705
  174SAPS    C219766   3.085   4.472   2.881 -0.6289 -0.4046  0.0513
  174SAPS    HS19767   3.072   4.425   2.981  1.5271 -0.4256  0.3774
  174SAPS   O2119768   2.969   4.464   2.797  0.0248  0.0659  0.3010
  174SAPS   C2119769   2.900   4.347   2.818 -0.0443 -0.3293 -0.3645
  174SAPS   O2219770   2.940   4.247   2.870 -0.6169  0.4001 -0.1614
  174SAPS   C2219771   2.758   4.357   2.763 -0.2730  0.0326 -0.0146
  174SAPS   H2R19772   2.719   4.459   2.785 -1.8413 -0.6478  0.4688
  174SAPS   H2S19773   2.774   4.339   2.655  0.4196 -1.8842  0.3780
  174SAPS    C319774   3.112   4.622   2.915  0.2175  0.1613 -0.1715
  174SAPS    HX19775   3.030   4.659   2.980  0.2879  2.2753 -1.1824
  174SAPS    HY19776   3.099   4.679   2.820  2.2134 -0.6191 -0.9765
  174SAPS   O3119777   3.239   4.647   2.984  0.2734  0.1251  0.2369
  174SAPS   C3119778   3.245   4.757   3.068  0.0999  0.8723  0.0913
  174SAPS   O3219779   3.157   4.830   3.090  0.4623  0.3323 -0.2150
  174SAPS   C3219780   3.393   4.768   3.110 -0.1597 -0.2974  0.4629
  174SAPS   H2X19781   3.450   4.809   3.024 -0.3095  1.9649  1.3473
  174SAPS   H2Y19782   3.434   4.667   3.130 -0.3094 -0.2735  0.9123
  174SAPS   C2319783   2.654   4.251   2.826 -0.5351 -0.4315  0.9372
  174SAPS   H3R19784   2.699   4.152   2.848 -1.0489 -0.4779  1.8739
  174SAPS   H3S19785   2.569   4.241   2.756  2.1892 -2.6876 -2.3385
  174SAPS   C2419786   2.587   4.306   2.960  0.0722  0.5370  0.6549
  174SAPS   H4R19787   2.668   4.304   3.037  1.7664 -2.4073 -1.0104
  174SAPS   H4S19788   2.524   4.222   2.997  1.5651 -1.7720 -1.7358
  174SAPS   C2519789   2.501   4.431   2.957 -0.2935 -0.4384 -0.5637
  174SAPS   H5R19790   2.436   4.431   2.868  0.7745 -0.5538 -1.3677
  174SAPS   C2619791   2.497   4.536   3.042  0.3137 -0.5117 -0.1732
  174SAPS   H6R19792   2.438   4.625   3.017  0.6394  0.1617  1.3547
  174SAPS   C2719793   2.585   4.552   3.171  0.5303 -1.1277  0.1252
  174SAPS   H7R19794   2.580   4.463   3.237  0.8076 -0.2078  1.4212
  174SAPS   H7S19795   2.538   4.632   3.232 -0.6201 -2.5062  1.1321
  174SAPS   C2819796   2.728   4.584   3.144  0.4510  0.1345 -0.4093
  174SAPS   H8R19797   2.760   4.595   3.039  0.0470  1.7473 -0.3926
  174SAPS   C2919798   2.817   4.641   3.230 -0.0745  0.0490 -0.2605
  174SAPS   H9R19799   2.923   4.628   3.204 -0.6719 -1.7230 -2.0779
  174SAPS  C21019800   2.810   4.673   3.378  0.8822 -0.3400  0.2638
  174SAPS  H10R19801   2.908   4.713   3.412  0.1536  1.5621  0.2465
  174SAPS  H10S19802   2.781   4.580   3.431 -0.2896  0.6123  1.3753
  174SAPS  C21119803   2.705   4.776   3.407  0.4930  0.1472  0.2637
  174SAPS  H11R19804   2.705   4.867   3.345 -1.9106  0.1029  0.0820
  174SAPS  C21219805   2.607   4.757   3.499  0.0894 -0.9784 -0.0292
  174SAPS  H12R19806   2.548   4.847   3.519  3.0474  1.0294  0.1816
  174SAPS  C21319807   2.581   4.635   3.587  0.1506 -0.0357 -0.0104
  174SAPS  H13R19808   2.535   4.677   3.680  2.4181 -1.4627  1.8638
  174SAPS  H13S19809   2.679   4.597   3.623  0.8931  2.8848  1.3977
  174SAPS  C21419810   2.487   4.522   3.534  0.6033 -0.0271 -0.1153
  174SAPS  H14R19811   2.417   4.569   3.464  0.1062  0.2406  0.5557
  174SAPS  C21519812   2.473   4.391   3.567 -0.4341 -0.7739 -0.3780
  174SAPS  H15R19813   2.408   4.331   3.502  0.2154 -1.2754 -0.5808
  174SAPS  C21619814   2.569   4.321   3.661 -0.4616 -0.1175  0.2491
  174SAPS  H16R19815   2.641   4.383   3.718 -0.7430 -0.0459  0.5332
  174SAPS  H16S19816   2.637   4.255   3.602 -1.0286  0.2394 -0.8434
  174SAPS  C21719817   2.501   4.228   3.764 -0.2636  0.4326 -0.2305
  174SAPS  H17R19818   2.469   4.130   3.723 -2.1602  1.3954 -1.1557
  174SAPS  H17S19819   2.407   4.273   3.802 -0.5233  1.2597 -1.7404
  174SAPS  C21819820   2.599   4.203   3.874 -0.6934  0.3292 -0.1164
  174SAPS  H18R19821   2.634   4.292   3.930 -1.1047 -0.1492  0.9325
  174SAPS  H18S19822   2.689   4.161   3.826  0.6297  1.7184  1.0472
  174SAPS  C21919823   2.554   4.095   3.975  0.3204  0.8226  0.7263
  174SAPS  H19R19824   2.642   4.064   4.036  0.0602 -2.1698 -0.2358
  174SAPS  H19S19825   2.534   3.999   3.922  2.7710 -0.0190  1.2021
  174SAPS  C22019826   2.430   4.128   4.065 -0.7910 -0.1311 -1.2154
  174SAPS  H20R19827   2.335   4.152   4.014 -2.2437 -3.1515 -0.1617
  174SAPS  H20S19828   2.458   4.205   4.141  1.0956 -2.1587  0.2829
  174SAPS  H20T19829   2.409   4.039   4.129 -1.0056  1.2777  0.7699
  174SAPS   C3319830   3.404   4.866   3.232 -0.6658  0.5896  0.6249
  174SAPS   H3X19831   3.334   4.846   3.316 -0.5268  0.7934  0.7856
  174SAPS   H3Y19832   3.375   4.970   3.206 -0.6433  0.0436 -1.8919
  174SAPS   C3419833   3.544   4.867   3.300  0.3358 -0.2172  0.8560
  174SAPS   H4X19834   3.616   4.885   3.217 -1.7440 -0.5987 -1.1190
  174SAPS   H4Y19835   3.579   4.774   3.348 -0.0542 -2.5775 -3.0267
  174SAPS   C3519836   3.575   4.998   3.380 -0.1738 -0.1188  0.9444
  174SAPS   H5X19837   3.540   5.078   3.312 -0.3564  0.1723  1.3767
  174SAPS   H5Y19838   3.685   5.005   3.390 -0.0521 -0.3265 -0.0985
  174SAPS   C3619839   3.509   5.002   3.520 -0.3947  0.0009  0.3397
  174SAPS   H6X19840   3.513   4.898   3.558 -2.2077 -0.1139  0.2891
  174SAPS   H6Y19841   3.406   5.041   3.507  0.8215  2.8538 -2.0744
  174SAPS   C3719842   3.590   5.089   3.620  0.4280  0.3454  0.1292
  174SAPS   H7X19843   3.599   5.190   3.575 -0.2684  0.8408  1.0610
  174SAPS   H7Y19844   3.687   5.038   3.637  0.4461  0.7346  1.3156
  174SAPS   C3819845   3.530   5.091   3.761  0.3177  0.0054  0.4180
  174SAPS   H8X19846   3.451   5.169   3.750 -0.5798 -1.2178 -4.1212
  174SAPS   H8Y19847   3.617   5.120   3.823  1.3031  1.3572 -1.4904
  174SAPS   C3919848   3.485   4.958   3.822 -0.3697  0.2938 -0.0341
  174SAPS   H9X19849   3.572   4.893   3.846 -2.0774 -2.2249 -0.2189
  174SAPS   H9Y19850   3.425   4.906   3.744  0.3372  2.2711 -2.0035
  174SAPS  C31019851   3.407   4.965   3.951 -0.2791  0.0972 -0.5114
  174SAPS  H10X19852   3.314   5.011   3.913 -0.0703 -0.3118 -1.5894
  174SAPS  H10Y19853   3.458   5.039   4.016 -1.1390  0.4401 -0.2267
  174SAPS  C31119854   3.368   4.837   4.024 -0.8326  0.8950 -0.5400
  174SAPS  H11X19855   3.458   4.792   4.070  0.1307  0.2488 -2.8759
  174SAPS  H11Y19856   3.328   4.763   3.950 -2.9232 -0.7151  2.0125
  174SAPS  C31219857   3.253   4.883   4.110 -0.0956 -0.1961  0.0550
  174SAPS  H12X19858   3.163   4.908   4.049 -2.2408 -0.6787  2.7984
  174SAPS  H12Y19859   3.280   4.974   4.167 -1.6049  0.6457 -0.5170
  174SAPS  C31319860   3.222   4.777   4.215 -0.5370  0.1472  0.9618
  174SAPS  H13X19861   3.305   4.780   4.289 -1.1235  0.2953  1.6144
  174SAPS  H13Y19862   3.208   4.678   4.167 -0.3971 -1.2090  3.5617
  174SAPS  C31419863   3.098   4.817   4.298 -0.6238  0.5472  0.1379
  174SAPS  H14X19864   3.013   4.788   4.232  0.0981 -0.9757 -0.1608
  174SAPS  H14Y19865   3.101   4.928   4.302 -0.0803  0.6036 -1.3049
  174SAPS  C31519866   3.096   4.756   4.442 -0.0131 -0.1980  0.0362
  174SAPS  H15X19867   3.189   4.795   4.489  0.2690 -0.0434 -0.6390
  174SAPS  H15Y19868   3.094   4.645   4.448 -0.1954 -0.1394  1.2853
  174SAPS  C31619869   2.980   4.809   4.524 -0.7676  0.4381 -0.2849
  174SAPS  H16X19870   2.890   4.744   4.516 -0.4452  0.0116 -0.5531
  174SAPS  H16Y19871   2.960   4.914   4.496 -1.6481  0.6609  1.0803
  174SAPS  C31719872   3.008   4.818   4.672 -0.0954  0.2775 -0.4933
  174SAPS  H17X19873   3.086   4.895   4.693 -1.3430  1.8992 -1.5311
  174SAPS  H17Y19874   3.055   4.721   4.698  3.4710  1.1742 -2.8503
  174SAPS  C31819875   2.889   4.850   4.759  0.0785  0.2195 -0.1403
  174SAPS  H18X19876   2.922   4.838   4.864  0.7202 -0.7487 -0.4401
  174SAPS  H18Y19877   2.808   4.776   4.739  0.4246 -0.3875  0.6431
  174SAPS  H18Z19878   2.851   4.954   4.745  2.2434  0.6675 -4.0224
  175SAPS     N19879   0.027   3.354   2.562 -0.1198  0.1681 -0.0300
  175SAPS   HN119880  -0.053   3.412   2.593 -0.1350  0.0576  0.1384
  175SAPS   HN219881   0.109   3.407   2.598 -0.7476  0.8229  0.4574
  175SAPS   HN319882   0.029   3.370   2.459 -3.2906  2.9658  0.1832
  175SAPS   C1219883   0.008   3.212   2.602  0.5141 -0.4293 -0.6834
  175SAPS  H12A19884  -0.097   3.190   2.587  0.7902 -0.9863 -1.9026
  175SAPS   C1319885   0.089   3.106   2.531 -0.6862  0.0218  0.4648
  175SAPS  O13A19886   0.165   3.133   2.435 -0.2198  0.1329 -0.5845
  175SAPS  O13B19887   0.073   2.984   2.564  0.2054 -0.3091 -0.3069
  175SAPS   C1119888   0.043   3.192   2.760 -0.0786 -0.7362  0.1660
  175SAPS  H11A19889   0.128   3.254   2.796 -0.0140 -1.2801  0.9566
  175SAPS  H11B19890   0.074   3.088   2.783  3.5444  0.5500  1.7993
  175SAPS     P19891  -0.189   3.137   2.875  0.2731 -0.1561 -0.2331
  175SAPS   O1319892  -0.294   3.167   2.780  0.4535 -0.4312  0.2064
  175SAPS   O1419893  -0.140   2.998   2.875  0.0872  0.6795 -0.4414
  175SAPS   O1219894  -0.068   3.236   2.841 -0.3808  0.1227  0.1217
  175SAPS   O1119895  -0.235   3.186   3.015 -0.1662  0.3265 -0.9678
  175SAPS    C119896  -0.121   3.219   3.107  0.1071  0.3713  1.1944
  175SAPS    HA19897  -0.062   3.126   3.125 -0.0154 -0.5172 -2.2097
  175SAPS    HB19898  -0.053   3.295   3.064  1.9279 -1.5516  0.4812
  175SAPS    C219899  -0.173   3.279   3.239 -0.2078 -0.0258 -0.5101
  175SAPS    HS19900  -0.090   3.337   3.286  0.7849 -0.3050 -1.8523
  175SAPS   O2119901  -0.219   3.165   3.315  0.9315 -0.1733  0.4707
  175SAPS   C2119902  -0.172   3.160   3.443  0.6879  0.9255  0.2798
  175SAPS   O2219903  -0.087   3.234   3.485  0.3233  0.2736 -0.5649
  175SAPS   C2219904  -0.233   3.041   3.519  0.0020  0.4988 -0.4683
  175SAPS   H2R19905  -0.343   3.048   3.507 -0.2216  0.7916  1.5212
  175SAPS   H2S19906  -0.208   2.946   3.467  0.2532  0.7306 -0.7825
  175SAPS    C319907  -0.286   3.378   3.210  0.3751 -0.2152  0.3278
  175SAPS    HX19908  -0.348   3.332   3.130  0.6186 -0.2695  0.1691
  175SAPS    HY19909  -0.241   3.470   3.167 -0.5418  0.9518  1.7950
  175SAPS   O3119910  -0.356   3.410   3.337 -0.2096 -0.2043  0.3636
  175SAPS   C3119911  -0.485   3.424   3.322  0.1979  0.5291 -0.5515
  175SAPS   O3219912  -0.551   3.390   3.223 -0.3336  0.1187  0.3875
  175SAPS   C3219913  -0.557   3.474   3.453  0.3975 -0.3902 -0.0597
  175SAPS   H2X19914  -0.665   3.475   3.427  0.9133  0.3929 -2.4294
  175SAPS   H2Y19915  -0.528   3.580   3.467 -0.0928 -0.5437  2.4956
  175SAPS   C2319916  -0.199   3.052   3.670 -0.7796  0.4572 -0.6377
  175SAPS   H3R19917  -0.089   3.069   3.677 -0.5207 -0.7018 -1.6874
  175SAPS   H3S19918  -0.231   2.958   3.721 -2.3865  1.2047 -0.1990
  175SAPS   C2419919  -0.273   3.165   3.749  0.8920  0.8077 -0.2155
  175SAPS   H4R19920  -0.381   3.141   3.753  1.2953 -1.0988  2.8962
  175SAPS   H4S19921  -0.257   3.259   3.692  1.7320  0.5033 -0.5051
  175SAPS   C2519922  -0.220   3.179   3.887 -0.3473  0.7232  0.6651
  175SAPS   H5R19923  -0.110   3.175   3.890 -0.3622  0.6253  1.7818
  175SAPS   C2619924  -0.291   3.198   4.000 -0.6680 -0.1711  0.0924
  175SAPS   H6R19925  -0.234   3.205   4.093 -0.8487 -1.1269  0.2884
  175SAPS   C2719926  -0.443   3.216   4.017 -0.5365  0.0005 -0.3562
  175SAPS   H7R19927  -0.453   3.166   4.116  3.5031  0.7753  0.6662
  175SAPS   H7S19928  -0.499   3.152   3.946 -0.6187  1.6028 -1.8011
  175SAPS   C2819929  -0.491   3.357   4.000 -0.1122 -0.6790 -0.2885
  175SAPS   H8R19930  -0.500   3.394   3.896  1.2125  1.6514  0.3585
  175SAPS   C2919931  -0.555   3.430   4.097 -1.1326  0.5361  0.6264
  175SAPS   H9R19932  -0.588   3.527   4.059 -2.8911 -0.3344 -0.2221
  175SAPS  C21019933  -0.565   3.400   4.246 -0.0733 -0.2408  0.2453
  175SAPS  H10R19934  -0.557   3.292   4.270 -2.9115 -0.4854  0.4826
  175SAPS  H10S19935  -0.668   3.429   4.279 -0.0190  1.2053 -0.7787
  175SAPS  C21119936  -0.453   3.473   4.317 -0.2188  0.8533  0.3999
  175SAPS  H11R19937  -0.354   3.444   4.278 -1.3400  0.6447 -2.5780
  175SAPS  C21219938  -0.464   3.577   4.404 -0.5817 -1.0346  0.1457
  175SAPS  H12R19939  -0.373   3.632   4.432 -0.8987 -0.3673 -0.1178
  175SAPS  C21319940  -0.590   3.635   4.462  0.2686  0.5341  0.5675
  175SAPS  H13R19941  -0.668   3.556   4.473  0.3806  0.4874  1.0638
  175SAPS  H13S19942  -0.624   3.694   4.375  0.4624 -0.7512 -0.4155
  175SAPS  C21419943  -0.564   3.723   4.577 -0.3696 -0.7188 -0.4208
  175SAPS  H14R19944  -0.548   3.824   4.537 -3.9579 -0.0888 -0.6037
  175SAPS  C21519945  -0.571   3.698   4.710 -0.2936 -0.7941  0.3348
  175SAPS  H15R19946  -0.549   3.781   4.778 -2.4198 -1.1354  1.5515
  175SAPS  C21619947  -0.615   3.568   4.764  0.2863 -0.1747  0.3891
  175SAPS  H16R19948  -0.618   3.498   4.678 -0.1334  1.4975 -0.9915
  175SAPS  H16S19949  -0.722   3.565   4.791 -0.1763  0.7878 -1.2161
  175SAPS  C21719950  -0.537   3.503   4.881  0.1609  0.2068 -0.4069
  175SAPS  H17R19951  -0.531   3.550   4.982  0.8642 -0.3333 -0.1876
  175SAPS  H17S19952  -0.433   3.505   4.842 -0.0499  0.9424 -0.9492
  175SAPS  C21819953  -0.574   3.358   4.917 -0.6302  0.4089 -0.1493
  175SAPS  H18R19954  -0.509   3.311   4.994 -0.4926  1.3600  0.3428
  175SAPS  H18S19955  -0.582   3.295   4.826 -0.2455  0.3302 -0.1285
  175SAPS  C21919956  -0.708   3.345   4.990 -0.4134 -0.5379 -0.1757
  175SAPS  H19R19957  -0.792   3.410   4.958  0.9834  2.1779  1.2372
  175SAPS  H19S19958  -0.695   3.387   5.092  1.1082  0.7678 -0.8592
  175SAPS  C22019959  -0.738   3.197   5.017 -0.3095  0.0244  0.3953
  175SAPS  H20R19960  -0.758   3.150   4.918 -4.2479  1.9712  0.0794
  175SAPS  H20S19961  -0.838   3.189   5.064 -0.2127 -0.7645  0.4864
  175SAPS  H20T19962  -0.656   3.143   5.069  1.5348  2.8072  0.5918
  175SAPS   C3319963  -0.527   3.392   3.583 -0.5083 -0.3895 -0.4191
  175SAPS   H3X19964  -0.531   3.466   3.665 -0.1663  0.5487 -1.2257
  175SAPS   H3Y19965  -0.423   3.355   3.573 -0.8999 -0.9723 -3.0192
  175SAPS   C3419966  -0.633   3.283   3.617 -0.1860 -0.0978  0.0150
  175SAPS   H4X19967  -0.731   3.324   3.651  0.7275 -0.4269  3.4331
  175SAPS   H4Y19968  -0.598   3.229   3.707  0.3664 -0.8356 -0.6333
  175SAPS   C3519969  -0.658   3.185   3.499  0.5120 -0.6135  0.0531
  175SAPS   H5X19970  -0.571   3.119   3.477  0.5310 -0.6869  0.3411
  175SAPS   H5Y19971  -0.681   3.246   3.409  1.0174  0.2989  0.5284
  175SAPS   C3619972  -0.771   3.083   3.535 -0.3372  0.1758 -1.0572
  175SAPS   H6X19973  -0.817   3.042   3.442 -1.4189  0.2940 -0.5885
  175SAPS   H6Y19974  -0.851   3.138   3.589 -0.6077 -0.0417 -1.2294
  175SAPS   C3719975  -0.719   2.969   3.618  0.4619  0.0258  0.1470
  175SAPS   H7X19976  -0.807   2.902   3.631  1.5600 -0.9774  3.3986
  175SAPS   H7Y19977  -0.696   3.005   3.720  0.5232  0.3550  0.0165
  175SAPS   C3819978  -0.605   2.894   3.548 -0.1596  0.1330  0.3455
  175SAPS   H8X19979  -0.502   2.937   3.560  0.8526 -2.5562  2.3852
  175SAPS   H8Y19980  -0.627   2.892   3.440  1.4192 -0.2862 -0.0008
  175SAPS   C3919981  -0.606   2.752   3.600  0.4539  0.2977  0.9514
  175SAPS   H9X19982  -0.528   2.704   3.538  0.6044  0.3965  1.0660
  175SAPS   H9Y19983  -0.706   2.706   3.581  0.4627 -0.5964  2.8150
  175SAPS  C31019984  -0.569   2.726   3.747 -0.5526 -0.3756 -0.7588
  175SAPS  H10X19985  -0.558   2.618   3.770  0.4210 -0.1689 -0.1911
  175SAPS  H10Y19986  -0.652   2.761   3.811  0.8899  2.0962 -0.0840
  175SAPS  C31119987  -0.444   2.795   3.798 -0.6033 -0.9652 -0.3143
  175SAPS  H11X19988  -0.455   2.905   3.794  0.0014 -0.8242  1.4666
  175SAPS  H11Y19989  -0.364   2.760   3.728 -0.3117  0.3527 -0.6688
  175SAPS  C31219990  -0.404   2.759   3.942 -0.4044  0.1522  0.4321
  175SAPS  H12X19991  -0.308   2.812   3.962 -0.5210  0.1818  0.9180
  175SAPS  H12Y19992  -0.388   2.649   3.946  1.9530  0.3902 -0.7238
  175SAPS  C31319993  -0.498   2.803   4.057  0.0087  0.9451  0.1978
  175SAPS  H13X19994  -0.603   2.781   4.026  0.1841  0.8450 -0.3337
  175SAPS  H13Y19995  -0.488   2.910   4.085  1.3595 -0.1152  4.6099
  175SAPS  C31419996  -0.466   2.719   4.188  0.4136  0.0035  0.2644
  175SAPS  H14X19997  -0.356   2.723   4.202  0.2624 -0.7727  1.9724
  175SAPS  H14Y19998  -0.491   2.613   4.169  0.9356 -0.0840  0.0626
  175SAPS  C31519999  -0.525   2.759   4.322 -0.0239 -0.1598  0.5550
  175SAPS  H15X20000  -0.476   2.688   4.392 -0.4166 -0.0544  0.9388
  175SAPS  H15Y20001  -0.635   2.744   4.325 -0.1938  1.0525  1.4658
  175SAPS  C31620002  -0.501   2.904   4.365 -0.7853 -0.1610  0.4018
  175SAPS  H16X20003  -0.544   2.911   4.467  1.6371  0.8775  1.4527
  175SAPS  H16Y20004  -0.552   2.980   4.302 -1.2151 -0.5565  0.2689
  175SAPS  C31720005  -0.358   2.950   4.392  0.1703  0.0764  0.3578
  175SAPS  H17X20006  -0.298   2.926   4.302  1.2918 -1.4263  1.4574
  175SAPS  H17Y20007  -0.317   2.884   4.471  0.1032 -0.1319  0.2167
  175SAPS  C31820008  -0.337   3.103   4.430  0.1088  0.6057  0.2569
  175SAPS  H18X20009  -0.231   3.131   4.410 -0.3244  0.6034 -2.3966
  175SAPS  H18Y20010  -0.345   3.135   4.536 -0.7705  2.4271 -0.3020
  175SAPS  H18Z20011  -0.397   3.171   4.366  1.2866 -0.1845 -1.7681
  176SAPS     N20012   4.975   1.894   2.748 -0.3733  0.0793  0.9654
  176SAPS   HN120013   4.938   1.921   2.654  2.3669  3.4833  0.6545
  176SAPS   HN220014   4.904   1.917   2.820 -2.4146 -0.7347 -0.6736
  176SAPS   HN320015   5.064   1.947   2.759  0.3228 -0.9961  0.6565
  176SAPS   C1220016   5.006   1.749   2.756 -0.2059  0.4339  0.5214
  176SAPS  H12A20017   4.923   1.695   2.714 -0.5915  0.5297  1.1408
  176SAPS   C1320018   5.143   1.710   2.693 -0.1739  0.1018  0.5990
  176SAPS  O13A20019   5.209   1.796   2.633  0.5495 -0.4978 -0.2291
  176SAPS  O13B20020   5.172   1.588   2.704 -0.6767  0.2225 -0.6182
  176SAPS   C1120021   5.007   1.704   2.905  0.3811 -1.0196  0.3289
  176SAPS  H11A20022   5.092   1.753   2.958  0.5231  0.7470 -1.3794
  176SAPS  H11B20023   5.025   1.595   2.915 -2.4540 -1.4863  0.9508
  176SAPS     P20024   4.757   1.655   2.978  0.1206  0.4373 -0.2329
  176SAPS   O1320025   4.684   1.659   2.852 -0.5960  0.1628  0.5808
  176SAPS   O1420026   4.793   1.519   3.016  0.4864  0.2149 -0.0285
  176SAPS   O1220027   4.884   1.747   2.969  0.0518  0.6242  0.0904
  176SAPS   O1120028   4.676   1.722   3.087  0.4237 -0.8873 -0.0454
  176SAPS    C120029   4.707   1.689   3.228 -0.0536 -0.3322  0.5236
  176SAPS    HA20030   4.788   1.615   3.243  0.9681  1.2187  3.2702
  176SAPS    HB20031   4.755   1.780   3.271  3.5215 -2.1927  0.8374
  176SAPS    C220032   4.576   1.664   3.313  0.2793 -0.3368  0.0429
  176SAPS    HS20033   4.503   1.614   3.245  0.6983 -1.6207  0.4971
  176SAPS   O2120034   4.531   1.794   3.363  0.4868  0.0296 -0.0696
  176SAPS   C2120035   4.397   1.787   3.390  0.3514  0.1406  0.0890
  176SAPS   O2220036   4.332   1.679   3.392  0.0618  0.3982 -0.3823
  176SAPS   C2220037   4.345   1.929   3.419 -0.1264  0.0491  0.2053
  176SAPS   H2R20038   4.431   1.997   3.399 -1.1877  1.8766  1.5583
  176SAPS   H2S20039   4.262   1.944   3.347  0.6685 -0.3017 -0.8133
  176SAPS    C320040   4.603   1.562   3.430 -0.1985  0.0314 -0.2546
  176SAPS    HX20041   4.619   1.459   3.391 -0.2703 -1.7726  3.9228
  176SAPS    HY20042   4.509   1.549   3.488 -0.2180  1.1404 -0.0192
  176SAPS   O3120043   4.708   1.599   3.521 -0.1783  0.3938  0.6254
  176SAPS   C3120044   4.781   1.507   3.577 -0.3090  0.4135 -0.5000
  176SAPS   O3220045   4.767   1.387   3.569 -0.1360  0.1910  0.2223
  176SAPS   C3220046   4.896   1.575   3.651  0.1080  0.0977 -0.2395
  176SAPS   H2X20047   4.951   1.645   3.584 -0.1075 -1.1025 -1.7536
  176SAPS   H2Y20048   4.968   1.494   3.678  0.0062 -0.0866 -0.5134
  176SAPS   C2320049   4.308   1.953   3.567  0.8133  0.3760 -0.2198
  176SAPS   H3R20050   4.244   1.866   3.593  3.0247 -0.9172  1.1182
  176SAPS   H3S20051   4.252   2.050   3.563  1.0254  0.5425  0.7625
  176SAPS   C2420052   4.428   1.982   3.663 -0.0782 -0.2466 -0.2951
  176SAPS   H4R20053   4.382   2.042   3.744  2.5003  1.0130  0.3338
  176SAPS   H4S20054   4.494   2.060   3.618 -2.3860 -0.2338 -4.1213
  176SAPS   C2520055   4.513   1.876   3.726  0.0125  0.0223 -0.2037
  176SAPS   H5R20056   4.592   1.834   3.662 -4.1610 -4.0591 -3.4372
  176SAPS   C2620057   4.502   1.825   3.848 -0.0076  0.5033 -0.3914
  176SAPS   H6R20058   4.563   1.735   3.865 -0.5215  0.6928  3.3088
  176SAPS   C2720059   4.392   1.854   3.955  0.1819 -0.5073 -0.0605
  176SAPS   H7R20060   4.299   1.889   3.907 -0.7603 -1.2067  1.1913
  176SAPS   H7S20061   4.428   1.940   4.015 -2.0413  0.2696  0.2402
  176SAPS   C2820062   4.369   1.753   4.066  0.2247 -0.2625 -0.1989
  176SAPS   H8R20063   4.356   1.650   4.029 -1.2344 -0.4516  0.7743
  176SAPS   C2920064   4.364   1.770   4.198  0.4510 -0.1547  0.7040
  176SAPS   H9R20065   4.361   1.675   4.252 -2.1701 -0.9656 -0.7154
  176SAPS  C21020066   4.384   1.901   4.274 -0.6757  0.2992  0.0402
  176SAPS  H10R20067   4.421   1.982   4.207 -2.3533 -0.8480 -2.4543
  176SAPS  H10S20068   4.481   1.892   4.327  2.2729 -0.0894 -4.7868
  176SAPS  C21120069   4.268   1.936   4.363 -0.2879  0.1227 -0.7429
  176SAPS  H11R20070   4.192   1.998   4.314  0.0990  0.2164 -1.2367
  176SAPS  C21220071   4.266   1.910   4.498 -0.4330  0.4462  0.5290
  176SAPS  H12R20072   4.176   1.929   4.558  0.6691  0.7968  2.1354
  176SAPS  C21320073   4.368   1.839   4.580 -0.1134  0.0221  0.3809
  176SAPS  H13R20074   4.342   1.873   4.682 -1.1694 -0.5980  0.3315
  176SAPS  H13S20075   4.469   1.878   4.555  0.1695 -1.7530 -1.5399
  176SAPS  C21420076   4.374   1.686   4.571  0.0363  0.0604  0.0782
  176SAPS  H14R20077   4.406   1.655   4.470 -2.4017 -0.2912 -0.6587
  176SAPS  C21520078   4.341   1.599   4.671 -0.4587 -0.6152 -0.4545
  176SAPS  H15R20079   4.341   1.491   4.651  2.2345 -0.9367  0.8086
  176SAPS  C21620080   4.274   1.638   4.805 -0.4192 -0.0478  0.4634
  176SAPS  H16R20081   4.170   1.598   4.795 -0.3157 -0.0990 -0.4423
  176SAPS  H16S20082   4.262   1.746   4.828 -1.0542 -0.3144  1.4894
  176SAPS  C21720083   4.327   1.583   4.936  0.0180 -0.4351  0.1860
  176SAPS  H17R20084   4.433   1.614   4.951 -0.9813  2.3804  2.2807
  176SAPS  H17S20085   4.323   1.473   4.950  1.3612 -0.4055  0.9410
  176SAPS  C21820086   4.235   1.638   5.049 -0.3972 -0.2434  1.1100
  176SAPS  H18R20087   4.132   1.598   5.039 -0.4729  0.2097  0.0318
  176SAPS  H18S20088   4.243   1.748   5.053 -4.0366  0.3066 -1.9515
  176SAPS  C21920089   4.285   1.590   5.188 -0.3034 -0.7073  0.3466
  176SAPS  H19R20090   4.395   1.599   5.195 -0.2794 -0.7833  0.0863
  176SAPS  H19S20091   4.260   1.482   5.193  0.0419 -0.8651 -0.9312
  176SAPS  C22020092   4.240   1.665   5.318 -1.0179 -0.1256  0.7191
  176SAPS  H20R20093   4.312   1.630   5.395  3.3188  1.7772 -2.1305
  176SAPS  H20S20094   4.130   1.659   5.334 -1.0844 -0.3219  0.2263
  176SAPS  H20T20095   4.258   1.771   5.293 -3.5888  0.3287  0.5391
  176SAPS   C3320096   4.858   1.636   3.782  0.2409  0.1001  0.1661
  176SAPS   H3X20097   4.761   1.690   3.778 -0.1940 -0.6965 -0.3711
  176SAPS   H3Y20098   4.934   1.709   3.816  2.0091 -2.8692  3.1572
  176SAPS   C3420099   4.857   1.538   3.901  0.0990  0.2164 -0.0299
  176SAPS   H4X20100   4.955   1.487   3.895 -0.9939 -2.2466  1.1927
  176SAPS   H4Y20101   4.785   1.455   3.882  0.6838  0.5449 -4.8329
  176SAPS   C3520102   4.841   1.602   4.038  0.4437  0.0042 -0.1579
  176SAPS   H5X20103   4.752   1.669   4.041  1.3281  1.2112  2.2016
  176SAPS   H5Y20104   4.928   1.668   4.057  1.7025 -1.3168 -1.1142
  176SAPS   C3620105   4.812   1.518   4.164 -0.0568  0.1109  0.4366
  176SAPS   H6X20106   4.732   1.443   4.141  1.3471 -1.4597  0.4933
  176SAPS   H6Y20107   4.779   1.589   4.242 -1.1228  1.3399 -1.0785
  176SAPS   C3720108   4.936   1.438   4.204 -0.7256 -0.0768 -0.1279
  176SAPS   H7X20109   5.008   1.515   4.239  0.6488 -1.0126 -0.8182
  176SAPS   H7Y20110   4.985   1.386   4.119 -0.0865 -0.9036  0.7146
  176SAPS   C3820111   4.924   1.330   4.317  0.7935  0.3759 -0.1101
  176SAPS   H8X20112   5.025   1.294   4.348  0.4310 -0.1018  0.5409
  176SAPS   H8Y20113   4.869   1.238   4.287 -0.8556  1.2007  0.3003
  176SAPS   C3920114   4.852   1.375   4.450 -0.2994 -0.3588 -0.4129
  176SAPS   H9X20115   4.748   1.399   4.417 -1.3005 -2.8601  0.6698
  176SAPS   H9Y20116   4.907   1.465   4.485  0.4131 -0.7001 -0.6401
  176SAPS  C31020117   4.854   1.269   4.564  0.1725 -0.1918 -0.2636
  176SAPS  H10X20118   4.950   1.214   4.576 -0.9404 -2.2382 -0.1700
  176SAPS  H10Y20119   4.786   1.184   4.538  1.3494 -0.9554 -0.9634
  176SAPS  C31120120   4.820   1.332   4.701  0.2172  0.4476  0.0878
  176SAPS  H11X20121   4.751   1.417   4.684  1.6051  2.0161  1.9459
  176SAPS  H11Y20122   4.911   1.389   4.726 -0.3632  1.3215  0.2286
  176SAPS  C31220123   4.782   1.219   4.800 -0.1047 -0.6436  0.4530
  176SAPS  H12X20124   4.876   1.161   4.809  2.0582  2.5073 -0.1585
  176SAPS  H12Y20125   4.708   1.151   4.754  0.1975  0.4304 -1.7556
  176SAPS  C31320126   4.727   1.275   4.927 -0.7637  0.2653 -0.5990
  176SAPS  H13X20127   4.697   1.192   4.994  1.4961 -2.0585 -2.2697
  176SAPS  H13Y20128   4.633   1.328   4.901 -0.7246  0.9500  0.5727
  176SAPS  C31420129   4.810   1.384   5.001 -0.4825  0.1202 -0.6220
  176SAPS  H14X20130   4.741   1.430   5.075 -2.0690 -3.7717  0.5430
  176SAPS  H14Y20131   4.832   1.463   4.926  2.3967  1.3495  1.3223
  176SAPS  C31520132   4.932   1.324   5.065  0.3204 -0.1307 -0.4249
  176SAPS  H15X20133   4.982   1.276   4.977 -1.1331 -0.8087 -0.9064
  176SAPS  H15Y20134   4.911   1.242   5.137  1.2727 -0.1107 -0.1121
  176SAPS  C31620135   5.020   1.430   5.142  0.4017  0.1023  0.6494
  176SAPS  H16X20136   5.106   1.374   5.186  0.8505  0.9595  0.8838
  176SAPS  H16Y20137   4.955   1.479   5.217 -1.1295 -1.4673  0.3946
  176SAPS  C31720138   5.078   1.540   5.059 -0.2169 -0.0342  0.3860
  176SAPS  H17X20139   4.995   1.606   5.028 -1.8624 -1.0744  2.3019
  176SAPS  H17Y20140   5.124   1.502   4.965 -0.0999 -1.0264  0.8298
  176SAPS  C31820141   5.186   1.621   5.132 -0.3677  0.1086 -0.7190
  176SAPS  H18X20142   5.155   1.687   5.216  0.7319  0.0491 -0.2492
  176SAPS  H18Y20143   5.248   1.680   5.062 -0.8078 -0.7958 -1.9042
  176SAPS  H18Z20144   5.251   1.554   5.192  0.0265  0.5307 -0.6724
  177SAPS     N20145   2.089   5.915   2.407 -0.3390  0.0374  0.0280
  177SAPS   HN120146   2.153   5.942   2.485  0.4963 -1.1259 -0.2250
  177SAPS   HN220147   2.102   6.005   2.356  1.8080  0.6096  1.4236
  177SAPS   HN320148   1.990   5.915   2.440 -0.2712  0.6306  0.2532
  177SAPS   C1220149   2.133   5.808   2.322  0.5822  0.5711  0.3624
  177SAPS  H12A20150   2.065   5.818   2.238  0.0892 -0.6266  0.6011
  177SAPS   C1320151   2.277   5.831   2.257  0.0707  0.6209 -0.2946
  177SAPS  O13A20152   2.322   5.945   2.245  0.3881  0.6057 -0.0852
  177SAPS  O13B20153   2.315   5.732   2.183  0.0705 -0.8229 -0.0481
  177SAPS   C1120154   2.111   5.679   2.399  0.6167 -0.0359 -0.2689
  177SAPS  H11A20155   2.165   5.675   2.496 -0.6712  0.7709  0.5188
  177SAPS  H11B20156   2.130   5.593   2.331  0.8565 -0.3529  0.1941
  177SAPS     P20157   1.919   5.531   2.507  0.5104 -0.6371  0.0390
  177SAPS   O1320158   1.770   5.546   2.495 -0.2289  0.5321 -0.0106
  177SAPS   O1420159   1.990   5.403   2.466  0.2030 -0.2910 -0.8824
  177SAPS   O1220160   1.980   5.660   2.435  0.3140 -0.6234 -0.5428
  177SAPS   O1120161   1.962   5.546   2.661  0.1514 -0.3593  0.5860
  177SAPS    C120162   1.874   5.614   2.749  0.6438 -0.2093 -0.0732
  177SAPS    HA20163   1.938   5.669   2.821 -0.2059  0.7131  0.0031
  177SAPS    HB20164   1.806   5.687   2.700  0.7363 -0.0224  0.0763
  177SAPS    C220165   1.796   5.513   2.834  0.2852 -0.3476  0.1764
  177SAPS    HS20166   1.700   5.499   2.781 -0.2860  2.4607  0.3582
  177SAPS   O2120167   1.768   5.585   2.957  0.1606  0.8573  0.0546
  177SAPS   C2120168   1.676   5.685   2.953 -1.1771 -0.0999 -0.2890
  177SAPS   O2220169   1.625   5.730   2.855  0.0528 -0.1580  0.6780
  177SAPS   C2220170   1.656   5.728   3.096 -0.1285 -0.1444 -0.2844
  177SAPS   H2R20171   1.736   5.802   3.114  0.4708 -0.7187 -0.5587
  177SAPS   H2S20172   1.558   5.780   3.104  0.3525  0.7304 -0.0036
  177SAPS    C320173   1.865   5.378   2.874  0.4784 -0.2711  0.4789
  177SAPS    HX20174   1.973   5.400   2.866  0.8130 -2.2311 -1.3302
  177SAPS    HY20175   1.829   5.316   2.788 -2.7756  0.5830  1.0688
  177SAPS   O3120176   1.831   5.320   2.996  0.1426 -0.2838 -0.6810
  177SAPS   C3120177   1.706   5.287   3.027 -0.2419  0.5043  0.3081
  177SAPS   O3220178   1.608   5.315   2.963  0.7362  0.3388 -0.3268
  177SAPS   C3220179   1.707   5.200   3.153  0.4153  0.6848 -0.1513
  177SAPS   H2X20180   1.812   5.170   3.177  0.6524 -0.3518 -2.2680
  177SAPS   H2Y20181   1.640   5.111   3.151  0.9085  0.2375  1.6072
  177SAPS   C2320182   1.672   5.614   3.203  0.3784 -0.8845 -0.1792
  177SAPS   H3R20183   1.775   5.576   3.217  0.0029 -1.5296  0.8945
  177SAPS   H3S20184   1.604   5.534   3.166  0.2316 -1.6921  1.7393
  177SAPS   C2420185   1.622   5.653   3.341  0.2067  0.3446 -0.6852
  177SAPS   H4R20186   1.624   5.565   3.409  0.5993  0.7396 -0.1682
  177SAPS   H4S20187   1.512   5.663   3.334  0.0984  2.8031  2.4168
  177SAPS   C2520188   1.679   5.775   3.408  0.5143  0.5309 -0.1454
  177SAPS   H5R20189   1.675   5.858   3.336 -0.7469 -0.3808 -1.1861
  177SAPS   C2620190   1.745   5.792   3.526 -0.1657  0.0176  0.4316
  177SAPS   H6R20191   1.791   5.892   3.536  2.3699 -0.8113 -1.6790
  177SAPS   C2720192   1.779   5.696   3.636 -0.3776  0.0557 -0.2610
  177SAPS   H7R20193   1.888   5.707   3.659  0.3592  0.3093 -3.3380
  177SAPS   H7S20194   1.764   5.596   3.591  3.3110  0.1630 -2.1498
  177SAPS   C2820195   1.702   5.711   3.762 -0.7944  0.5082  0.6616
  177SAPS   H8R20196   1.600   5.748   3.745 -2.1193 -2.8162  0.5239
  177SAPS   C2920197   1.738   5.683   3.893 -0.9160  0.3207  0.1977
  177SAPS   H9R20198   1.653   5.694   3.961 -2.6380  1.4122 -1.9899
  177SAPS  C21020199   1.866   5.618   3.944  0.3664  0.4248 -0.3305
  177SAPS  H10R20200   1.927   5.686   4.008 -1.4569  2.4381 -0.5964
  177SAPS  H10S20201   1.931   5.601   3.856 -0.1783 -2.2324 -0.3124
  177SAPS  C21120202   1.844   5.491   4.016 -0.2322 -0.0999 -1.1713
  177SAPS  H11R20203   1.750   5.438   4.001 -0.0557 -1.0396  0.8095
  177SAPS  C21220204   1.927   5.422   4.102 -0.9867  0.1108 -0.0808
  177SAPS  H12R20205   1.883   5.337   4.156 -1.6283 -0.0634 -0.8580
  177SAPS  C21320206   2.063   5.472   4.155  0.5095  0.6092 -0.3448
  177SAPS  H13R20207   2.046   5.515   4.256  1.9875  0.5003 -0.0223
  177SAPS  H13S20208   2.094   5.558   4.091 -0.3544  2.4784  1.6119
  177SAPS  C21420209   2.178   5.371   4.159  0.0367 -0.4393 -1.2033
  177SAPS  H14R20210   2.224   5.359   4.060  1.8453  1.7030 -0.6957
  177SAPS  C21520211   2.245   5.320   4.262 -0.3518  0.2934 -0.2508
  177SAPS  H15R20212   2.314   5.237   4.243  0.8526  1.1226  0.3602
  177SAPS  C21620213   2.202   5.330   4.404 -0.1012  0.1695  0.0746
  177SAPS  H16R20214   2.187   5.227   4.443  0.6493 -1.0823 -2.7012
  177SAPS  H16S20215   2.102   5.379   4.403 -0.2666 -0.1737 -0.6061
  177SAPS  C21720216   2.304   5.404   4.489 -0.0958 -0.2636  0.0283
  177SAPS  H17R20217   2.262   5.422   4.590 -0.9432  0.0829 -0.3792
  177SAPS  H17S20218   2.325   5.499   4.434  1.0910 -0.2700  0.4454
  177SAPS  C21820219   2.433   5.321   4.484 -0.0995 -0.1824 -0.8042
  177SAPS  H18R20220   2.483   5.330   4.386  2.0853  0.7339  0.3349
  177SAPS  H18S20221   2.402   5.218   4.511 -1.3661  0.6096  1.0068
  177SAPS  C21920222   2.539   5.370   4.592 -0.2041  0.1613  0.4109
  177SAPS  H19R20223   2.486   5.391   4.688  0.4748 -0.9816  1.0608
  177SAPS  H19S20224   2.576   5.467   4.552 -1.3249  0.6582  0.5451
  177SAPS  C22020225   2.656   5.277   4.614  0.3489 -0.4151  0.2265
  177SAPS  H20R20226   2.699   5.254   4.514 -1.4191 -2.3632 -0.1462
  177SAPS  H20S20227   2.622   5.178   4.650 -1.5299 -0.0002 -0.2941
  177SAPS  H20T20228   2.743   5.318   4.670  0.7789  0.1575 -0.8387
  177SAPS   C3320229   1.655   5.258   3.284 -0.2006  0.1492 -0.0768
  177SAPS   H3X20230   1.550   5.292   3.270 -0.0486 -0.0130 -1.7429
  177SAPS   H3Y20231   1.718   5.341   3.323  1.5555 -0.5987 -1.1974
  177SAPS   C3420232   1.665   5.159   3.400 -0.1087  0.0409 -0.1019
  177SAPS   H4X20233   1.765   5.114   3.417 -0.7950 -1.6534 -0.3687
  177SAPS   H4Y20234   1.592   5.077   3.382  2.7010 -2.4208 -0.9068
  177SAPS   C3520235   1.630   5.224   3.533 -0.2481  0.0945  0.1219
  177SAPS   H5X20236   1.531   5.272   3.515 -0.5752 -0.1167  1.2886
  177SAPS   H5Y20237   1.700   5.307   3.558 -0.4907  1.1500 -2.3803
  177SAPS   C3620238   1.600   5.131   3.652  0.0805 -0.0149  0.2975
  177SAPS   H6X20239   1.686   5.065   3.678  0.3180  0.7635  1.5411
  177SAPS   H6Y20240   1.517   5.064   3.619 -2.2915  1.9533  1.9548
  177SAPS   C3720241   1.553   5.196   3.782  0.1061  0.5593  0.3701
  177SAPS   H7X20242   1.458   5.252   3.766  0.1502  1.0363  1.6707
  177SAPS   H7Y20243   1.634   5.266   3.810 -0.0536  0.5180  0.9480
  177SAPS   C3820244   1.534   5.103   3.899  0.3508  0.0724 -0.1862
  177SAPS   H8X20245   1.636   5.076   3.933  0.7966 -0.5185 -1.9048
  177SAPS   H8Y20246   1.490   5.007   3.866 -1.0488  0.0743  1.5365
  177SAPS   C3920247   1.455   5.163   4.020 -0.0087 -0.0579  0.0640
  177SAPS   H9X20248   1.361   5.212   3.984  0.2922  1.8697  1.6951
  177SAPS   H9Y20249   1.511   5.240   4.077 -0.7561 -1.7128  3.3009
  177SAPS  C31020250   1.420   5.058   4.126 -0.0767  0.5469  0.2919
  177SAPS  H10X20251   1.509   4.993   4.141 -0.0697  0.4314 -0.2513
  177SAPS  H10Y20252   1.339   4.995   4.083  2.9991 -2.3212 -1.7893
  177SAPS  C31120253   1.386   5.115   4.262  0.1195 -0.0466 -0.6081
  177SAPS  H11X20254   1.302   5.184   4.237  1.8384  3.4582  2.4879
  177SAPS  H11Y20255   1.461   5.188   4.298 -0.3396  0.9873 -1.6821
  177SAPS  C31220256   1.327   5.006   4.361  0.3360 -0.8690  0.1339
  177SAPS  H12X20257   1.254   4.942   4.307  0.9598 -0.7078 -0.9091
  177SAPS  H12Y20258   1.261   5.058   4.434  1.0772  2.0741 -1.1609
  177SAPS  C31320259   1.428   4.921   4.436  0.2833  0.0451 -0.2072
  177SAPS  H13X20260   1.502   4.877   4.366 -1.5842 -1.8652 -1.0869
  177SAPS  H13Y20261   1.375   4.834   4.479 -1.3631  0.0362 -2.0932
  177SAPS  C31420262   1.501   4.987   4.550  0.2683 -1.2084  0.5074
  177SAPS  H14X20263   1.570   5.057   4.498 -0.3652 -0.3911  0.7532
  177SAPS  H14Y20264   1.579   4.917   4.589 -0.6842 -0.5811  3.8303
  177SAPS  C31520265   1.420   5.047   4.668 -0.2232  0.1862 -0.0725
  177SAPS  H15X20266   1.340   4.974   4.694 -2.3670  1.9515 -1.2571
  177SAPS  H15Y20267   1.357   5.129   4.625 -0.7073 -0.9945 -1.7211
  177SAPS  C31620268   1.502   5.080   4.792 -0.2144 -0.5111 -0.1086
  177SAPS  H16X20269   1.457   5.152   4.864  3.1740  2.6519 -0.8651
  177SAPS  H16Y20270   1.587   5.144   4.759  0.3853 -1.1731  0.1281
  177SAPS  C31720271   1.540   4.954   4.876  0.5930 -0.3462  0.2596
  177SAPS  H17X20272   1.627   4.981   4.939 -1.5206  1.8492  2.4496
  177SAPS  H17Y20273   1.571   4.884   4.795  0.0534 -0.1207 -0.1461
  177SAPS  C31820274   1.422   4.896   4.946  0.0719  0.2933 -0.1647
  177SAPS  H18X20275   1.324   4.900   4.894  1.2206  0.6878 -2.4442
  177SAPS  H18Y20276   1.402   4.956   5.037 -1.2359 -0.2977 -0.0495
  177SAPS  H18Z20277   1.434   4.789   4.975  0.4948 -0.0924 -1.6799
  178SAPS     N20278   6.172   0.229   2.926  0.3191 -0.4561  0.2134
  178SAPS   HN120279   6.251   0.161   2.933  2.4666  1.4026 -2.9546
  178SAPS   HN220280   6.208   0.327   2.929 -0.4834 -0.0855 -1.4393
  178SAPS   HN320281   6.116   0.227   3.013 -2.6304  1.6311 -1.4744
  178SAPS   C1220282   6.084   0.194   2.816 -0.5034 -0.4337  0.6908
  178SAPS  H12A20283   6.006   0.269   2.817 -0.3468 -0.1923 -1.4039
  178SAPS   C1320284   6.131   0.200   2.672  0.0677 -0.1627  0.3812
  178SAPS  O13A20285   6.244   0.253   2.657  0.2771 -0.2188  0.2588
  178SAPS  O13B20286   6.061   0.153   2.577 -0.9525  0.2140 -0.3928
  178SAPS   C1120287   6.010   0.060   2.840 -0.0995 -0.8000  0.0639
  178SAPS  H11A20288   6.078  -0.026   2.823  1.6640  0.6550 -0.6744
  178SAPS  H11B20289   5.934   0.054   2.761 -0.2670 -2.7011  0.3321
  178SAPS     P20290   5.833   0.151   3.016 -0.0688  0.0770 -0.1170
  178SAPS   O1320291   5.884   0.291   3.041 -0.2971  0.1679  0.7899
  178SAPS   O1420292   5.724   0.143   2.917  0.8348  0.7168  0.1691
  178SAPS   O1220293   5.952   0.059   2.970  0.4709 -0.3556  0.2220
  178SAPS   O1120294   5.774   0.079   3.142 -0.3457 -0.5540  0.2141
  178SAPS    C120295   5.850   0.003   3.233  0.4629  0.1495  0.0952
  178SAPS    HA20296   5.818  -0.103   3.227  3.2817 -0.7436 -1.1878
  178SAPS    HB20297   5.960   0.006   3.213  1.4295 -1.1417  4.1453
  178SAPS    C220298   5.841   0.063   3.377  0.0050 -0.8228  0.1417
  178SAPS    HS20299   5.736   0.060   3.413 -0.1444  2.1703  0.1825
  178SAPS   O2120300   5.888   0.198   3.371 -0.1625  0.0776 -0.1876
  178SAPS   C2120301   5.840   0.293   3.462 -0.1142 -0.5023  0.0778
  178SAPS   O2220302   5.770   0.266   3.555  0.3627 -0.0025 -0.1680
  178SAPS   C2220303   5.902   0.424   3.423  0.3265 -0.3972  0.1787
  178SAPS   H2R20304   6.009   0.417   3.395 -0.5743 -1.1962 -3.7618
  178SAPS   H2S20305   5.850   0.441   3.326  0.8129 -2.9754 -0.6076
  178SAPS    C320306   5.932  -0.013   3.480  0.2969  0.7360 -0.3542
  178SAPS    HX20307   6.034  -0.012   3.437 -0.0792 -3.1526 -1.6382
  178SAPS    HY20308   5.900  -0.119   3.476  0.1610  0.6029  2.2139
  178SAPS   O3120309   5.933   0.040   3.613  0.7163 -0.2380  0.2909
  178SAPS   C3120310   5.833   0.004   3.697 -1.0450  0.0239 -0.2565
  178SAPS   O3220311   5.744  -0.076   3.671  0.0246  0.0326  0.1987
  178SAPS   C3220312   5.848   0.078   3.828 -0.4117  0.0508 -0.0821
  178SAPS   H2X20313   5.865   0.186   3.812  0.1191  0.5323  3.1571
  178SAPS   H2Y20314   5.937   0.030   3.874  1.4590  3.7353  0.4586
  178SAPS   C2320315   5.859   0.547   3.514 -0.2518  0.6570 -0.8018
  178SAPS   H3R20316   5.756   0.523   3.549 -0.4505  0.9055 -1.2101
  178SAPS   H3S20317   5.851   0.638   3.451 -1.1278  0.5034 -0.9215
  178SAPS   C2420318   5.942   0.568   3.640  0.0786  0.4565  0.5912
  178SAPS   H4R20319   6.041   0.608   3.608  0.6345 -1.7014 -0.5837
  178SAPS   H4S20320   5.958   0.471   3.691 -0.4182  0.5332  0.8944
  178SAPS   C2520321   5.890   0.674   3.726  0.4289  0.1845 -0.9158
  178SAPS   H5R20322   5.908   0.781   3.708 -2.0855  1.0171  0.9904
  178SAPS   C2620323   5.810   0.658   3.837 -0.0640  0.2552  0.0814
  178SAPS   H6R20324   5.772   0.747   3.888  0.5324  0.8930 -0.5654
  178SAPS   C2720325   5.772   0.520   3.893  0.1497 -0.1362 -0.2553
  178SAPS   H7R20326   5.779   0.439   3.817  0.9576  1.8288 -2.3949
  178SAPS   H7S20327   5.668   0.528   3.929 -0.6223 -1.6616 -1.9572
  178SAPS   C2820328   5.872   0.501   4.004 -0.0135 -0.4137  1.0195
  178SAPS   H8R20329   5.974   0.483   3.966  0.6512 -0.2004  2.6601
  178SAPS   C2920330   5.861   0.503   4.138 -0.0493  0.0227 -0.1061
  178SAPS   H9R20331   5.951   0.490   4.199 -0.1217  1.1141  0.2585
  178SAPS  C21020332   5.737   0.525   4.222 -0.1048 -0.0515  0.0109
  178SAPS  H10R20333   5.636   0.542   4.179 -1.3853 -1.1147  2.3867
  178SAPS  H10S20334   5.749   0.628   4.262  2.6356 -0.8013  1.3734
  178SAPS  C21120335   5.711   0.434   4.343  0.9760 -0.5261 -0.3765
  178SAPS  H11R20336   5.691   0.328   4.321 -0.9289 -0.8739  2.3980
  178SAPS  C21220337   5.724   0.462   4.471  0.5635 -0.0571 -0.3259
  178SAPS  H12R20338   5.703   0.376   4.537 -0.6749  0.9321  0.6151
  178SAPS  C21320339   5.770   0.589   4.539 -0.0481  0.3453 -0.8002
  178SAPS  H13R20340   5.707   0.606   4.629  1.3677  0.5389  0.1764
  178SAPS  H13S20341   5.754   0.688   4.492 -1.7663 -0.6280 -2.3934
  178SAPS  C21420342   5.918   0.595   4.557  0.0275 -0.3860  0.0149
  178SAPS  H14R20343   5.962   0.556   4.464 -1.3931 -1.7032 -0.1236
  178SAPS  C21520344   6.003   0.637   4.650 -0.3834  0.0564  0.0747
  178SAPS  H15R20345   6.106   0.625   4.614 -1.4049 -2.8903 -2.3091
  178SAPS  C21620346   5.977   0.696   4.787  0.3506 -0.5804  0.5790
  178SAPS  H16R20347   5.869   0.715   4.804 -0.3330 -0.7658 -2.8600
  178SAPS  H16S20348   6.010   0.802   4.789 -1.8532  0.1609  0.4191
  178SAPS  C21720349   6.037   0.615   4.903  0.8306  0.0053 -0.3181
  178SAPS  H17R20350   5.996   0.512   4.899  1.1419 -0.1654  0.6012
  178SAPS  H17S20351   6.004   0.664   4.997  2.6371 -1.4787  1.1588
  178SAPS  C21820352   6.187   0.620   4.892 -0.0283 -0.1173 -0.6609
  178SAPS  H18R20353   6.219   0.722   4.862  0.8571 -0.1433  0.1407
  178SAPS  H18S20354   6.230   0.561   4.809  1.5458  1.3907 -0.9838
  178SAPS  C21920355   6.244   0.567   5.027  0.4424 -0.6388 -0.1175
  178SAPS  H19R20356   6.183   0.476   5.049  0.9903 -0.4188  2.5863
  178SAPS  H19S20357   6.206   0.631   5.109 -1.7363 -2.5490  0.4898
  178SAPS  C22020358   6.393   0.550   5.048 -0.6543  0.8578 -0.0448
  178SAPS  H20R20359   6.426   0.469   4.978  1.5932  1.6864 -0.0412
  178SAPS  H20S20360   6.427   0.515   5.147 -1.8858  2.6775  1.0675
  178SAPS  H20T20361   6.456   0.639   5.028 -0.9691  1.1874  0.4332
  178SAPS   C3320362   5.717   0.068   3.910 -0.0713  0.2279  0.7002
  178SAPS   H3X20363   5.685  -0.038   3.902  1.9408 -0.2921 -1.4563
  178SAPS   H3Y20364   5.640   0.130   3.858  0.8550 -0.4508 -1.5907
  178SAPS   C3420365   5.738   0.113   4.060  0.7301 -0.1236  0.3090
  178SAPS   H4X20366   5.640   0.095   4.110  0.1165  1.3667 -0.3024
  178SAPS   H4Y20367   5.767   0.220   4.070  0.8918  0.2335 -3.0497
  178SAPS   C3520368   5.848   0.041   4.127  0.1484 -0.2511 -0.0544
  178SAPS   H5X20369   5.944   0.082   4.091  0.6520  0.3359  1.8854
  178SAPS   H5Y20370   5.832  -0.067   4.103 -1.7563  0.1870 -1.0170
  178SAPS   C3620371   5.826   0.050   4.280  0.0873  0.0591 -0.0222
  178SAPS   H6X20372   5.725   0.010   4.305  0.6616  0.4245  3.2782
  178SAPS   H6Y20373   5.833   0.158   4.305  2.0500  0.5470 -2.2663
  178SAPS   C3720374   5.934  -0.020   4.359 -0.2529 -0.0400 -0.4915
  178SAPS   H7X20375   6.027   0.039   4.348  0.0898 -0.6789 -1.0863
  178SAPS   H7Y20376   5.947  -0.120   4.312  1.2921 -2.2319  4.0173
  178SAPS   C3820377   5.907  -0.045   4.513  0.4064 -0.2677 -0.3027
  178SAPS   H8X20378   5.978  -0.113   4.565 -2.0861 -1.7931  1.2838
  178SAPS   H8Y20379   5.812  -0.101   4.507  0.9725 -1.1630 -1.0741
  178SAPS   C3920380   5.865   0.081   4.586 -0.4389 -0.2760  0.4067
  178SAPS   H9X20381   5.786   0.141   4.537  0.0216 -1.4772 -1.9798
  178SAPS   H9Y20382   5.954   0.148   4.594 -0.2135 -0.3156 -1.2872
  178SAPS  C31020383   5.813   0.053   4.727  0.1753 -0.8766 -0.2412
  178SAPS  H10X20384   5.885  -0.015   4.777  0.9034 -0.2806 -0.4584
  178SAPS  H10Y20385   5.717  -0.002   4.726  0.2964 -1.1783  1.5075
  178SAPS  C31120386   5.791   0.189   4.802 -0.0021 -0.0627  0.1431
  178SAPS  H11X20387   5.712   0.260   4.770  0.0434 -0.2031 -0.2767
  178SAPS  H11Y20388   5.888   0.243   4.789  1.1579 -2.3325 -1.2105
  178SAPS  C31220389   5.760   0.175   4.952  0.0326  0.1914  0.2497
  178SAPS  H12X20390   5.842   0.113   4.994  0.0853  0.8715  1.1930
  178SAPS  H12Y20391   5.658   0.135   4.973  0.8305 -1.3636  1.4097
  178SAPS  C31320392   5.778   0.305   5.038  0.3827  0.2641 -0.3179
  178SAPS  H13X20393   5.877   0.353   5.023  0.9777 -0.8924 -0.1751
  178SAPS  H13Y20394   5.752   0.285   5.144 -1.8915 -0.2986 -0.9173
  178SAPS  C31420395   5.671   0.406   4.998 -0.3439 -0.3871  0.6116
  178SAPS  H14X20396   5.571   0.363   4.978  0.2657 -1.6184  0.1311
  178SAPS  H14Y20397   5.710   0.458   4.908 -3.8379  1.5489  0.0247
  178SAPS  C31520398   5.638   0.514   5.102 -0.0217  0.6513 -0.2994
  178SAPS  H15X20399   5.585   0.463   5.185 -0.9125  1.2033 -0.5154
  178SAPS  H15Y20400   5.567   0.585   5.054  2.7383  1.7087 -3.2143
  178SAPS  C31620401   5.761   0.596   5.144 -0.0373  0.6313 -0.4528
  178SAPS  H16X20402   5.782   0.667   5.062  2.0784 -1.7954 -2.1838
  178SAPS  H16Y20403   5.850   0.533   5.164 -1.0338 -1.4431 -2.1414
  178SAPS  C31720404   5.741   0.676   5.270  0.3220 -0.4782 -0.0087
  178SAPS  H17X20405   5.824   0.743   5.302 -1.6227  0.9936  2.2771
  178SAPS  H17Y20406   5.742   0.611   5.361  2.5401 -1.0174 -0.3497
  178SAPS  C31820407   5.607   0.757   5.285  0.3589  0.2078  0.1026
  178SAPS  H18X20408   5.528   0.680   5.268  1.9406 -1.3900 -0.2238
  178SAPS  H18Y20409   5.587   0.836   5.209  0.9170  0.6813  0.4359
  178SAPS  H18Z20410   5.599   0.795   5.389 -0.4061 -2.7923  1.2419
  179SAPS     N20411   0.336   2.891   2.439  0.2813  0.0954  0.6507
  179SAPS   HN120412   0.408   2.965   2.435 -1.0785  1.4423 -0.7425
  179SAPS   HN220413   0.332   2.837   2.350  2.3420  2.4901 -1.0368
  179SAPS   HN320414   0.250   2.945   2.460  0.0571  1.1988 -2.5756
  179SAPS   C1220415   0.356   2.800   2.552 -0.0037  0.1119  0.4170
  179SAPS  H12A20416   0.258   2.755   2.566 -0.6778  1.1431 -0.7518
  179SAPS   C1320417   0.456   2.687   2.523  0.2589  0.5769  0.8985
  179SAPS  O13A20418   0.507   2.673   2.409  0.2622 -0.3636 -0.0400
  179SAPS  O13B20419   0.486   2.611   2.613  0.0919  0.3489 -0.1623
  179SAPS   C1120420   0.408   2.902   2.660 -0.1266 -0.0583 -0.8782
  179SAPS  H11A20421   0.437   2.834   2.743  0.9495  0.3855 -0.8773
  179SAPS  H11B20422   0.332   2.966   2.710  0.9222  0.5023  0.0430
  179SAPS     P20423   0.607   3.062   2.714 -0.1055  0.3318 -0.4370
  179SAPS   O1320424   0.732   2.986   2.721  0.6114  0.8538  0.9385
  179SAPS   O1420425   0.621   3.204   2.668 -0.6417 -0.2959 -0.5396
  179SAPS   O1220426   0.511   2.987   2.614 -0.3844  0.8290 -0.4387
  179SAPS   O1120427   0.530   3.054   2.853  0.5649 -0.8491  0.2375
  179SAPS    C120428   0.503   3.180   2.917 -0.6369 -0.3763  0.1161
  179SAPS    HA20429   0.590   3.247   2.925  0.2296 -1.2894 -1.2186
  179SAPS    HB20430   0.440   3.237   2.845 -1.1038 -0.6093  0.3358
  179SAPS    C220431   0.443   3.168   3.066 -0.1988 -0.6357  0.4953
  179SAPS    HS20432   0.509   3.104   3.128 -1.3031 -3.1650 -0.8056
  179SAPS   O2120433   0.317   3.110   3.057 -0.2773  0.0123  0.2320
  179SAPS   C2120434   0.308   2.975   3.049 -0.6345 -0.7113 -0.5552
  179SAPS   O2220435   0.402   2.901   3.052 -0.5718  0.3939 -0.3496
  179SAPS   C2220436   0.164   2.934   3.071  0.3647  0.5261 -0.0295
  179SAPS   H2R20437   0.097   3.000   3.012 -2.0507  0.0622  2.0045
  179SAPS   H2S20438   0.166   2.828   3.037  1.1443  0.7604 -0.7456
  179SAPS    C320439   0.424   3.309   3.141 -0.2169  0.1459 -0.8803
  179SAPS    HX20440   0.357   3.366   3.074 -0.0813  0.5178 -0.6992
  179SAPS    HY20441   0.527   3.345   3.158 -0.9526  1.6089  0.8015
  179SAPS   O3120442   0.366   3.284   3.271 -0.4237  0.1837 -0.2855
  179SAPS   C3120443   0.237   3.306   3.299  0.4410 -0.1390  0.1912
  179SAPS   O3220444   0.156   3.342   3.220  0.4157  0.0163  0.1441
  179SAPS   C3220445   0.208   3.272   3.439 -0.2156 -0.2020 -0.2591
  179SAPS   H2X20446   0.177   3.167   3.457 -0.9341 -0.0044 -0.3211
  179SAPS   H2Y20447   0.134   3.345   3.480  1.0997  0.3416  1.2881
  179SAPS   C2320448   0.133   2.936   3.218  0.9871 -0.5340 -0.9777
  179SAPS   H3R20449   0.105   3.043   3.226 -2.2774 -1.3244 -0.1354
  179SAPS   H3S20450   0.223   2.919   3.280  1.7088  1.3173 -1.4521
  179SAPS   C2420451   0.012   2.852   3.257 -0.0432  0.2540  0.4934
  179SAPS   H4R20452  -0.067   2.848   3.179  1.2512 -1.6749 -0.7999
  179SAPS   H4S20453  -0.037   2.899   3.345 -1.1697 -1.7820  1.0141
  179SAPS   C2520454   0.057   2.715   3.285  0.0557 -0.5751 -0.1495
  179SAPS   H5R20455   0.090   2.644   3.207 -2.3912 -1.4513 -0.4794
  179SAPS   C2620456   0.038   2.653   3.402 -0.1782 -0.2824  0.0493
  179SAPS   H6R20457   0.072   2.548   3.409 -0.2502 -0.3063  0.0487
  179SAPS   C2720458  -0.034   2.706   3.517  0.0866 -0.7587 -0.0580
  179SAPS   H7R20459  -0.139   2.703   3.479  0.1443  0.4145 -0.3489
  179SAPS   H7S20460  -0.006   2.811   3.541 -2.9549  0.1382  0.0413
  179SAPS   C2820461  -0.020   2.616   3.634  0.4989 -0.0554  0.2457
  179SAPS   H8R20462  -0.054   2.512   3.623  0.6225  0.1456 -3.1058
  179SAPS   C2920463   0.033   2.652   3.755  0.6615 -0.0268  0.6674
  179SAPS   H9R20464   0.022   2.575   3.833 -3.6499 -0.7022 -0.3090
  179SAPS  C21020465   0.094   2.783   3.789 -0.2735  0.5302 -0.3111
  179SAPS  H10R20466   0.114   2.850   3.703  0.8598  0.4073 -0.1687
  179SAPS  H10S20467   0.188   2.757   3.844 -0.9397 -1.1831  0.0602
  179SAPS  C21120468   0.013   2.871   3.880  0.3063 -0.0151  0.2126
  179SAPS  H11R20469  -0.038   2.954   3.830  0.7921  0.1614  0.0048
  179SAPS  C21220470   0.013   2.866   4.014 -0.5282  0.5900 -0.0584
  179SAPS  H12R20471  -0.046   2.941   4.069 -1.0589  0.5614 -0.5794
  179SAPS  C21320472   0.071   2.760   4.099  0.3849 -0.4373 -0.2950
  179SAPS  H13R20473   0.160   2.798   4.154 -1.1281  0.7446  1.4806
  179SAPS  H13S20474   0.112   2.672   4.046  2.2288 -0.1647  0.5925
  179SAPS  C21420475  -0.033   2.715   4.196 -0.0070 -0.2642 -0.5422
  179SAPS  H14R20476  -0.116   2.674   4.135  1.2603 -1.1270 -1.7556
  179SAPS  C21520477  -0.049   2.726   4.330 -0.0962 -0.9614  0.7391
  179SAPS  H15R20478  -0.134   2.688   4.388 -0.9446 -1.4020 -0.7397
  179SAPS  C21620479   0.049   2.797   4.412 -0.2973 -0.1282  0.0481
  179SAPS  H16R20480   0.024   2.904   4.429  1.0795  0.0274  1.2740
  179SAPS  H16S20481   0.145   2.817   4.361 -0.5756 -1.2884 -0.9921
  179SAPS  C21720482   0.087   2.730   4.550 -0.1247  0.2044  0.4582
  179SAPS  H17R20483   0.145   2.804   4.609 -0.3286  0.5280  0.2571
  179SAPS  H17S20484   0.156   2.645   4.528 -1.3739 -0.4598 -1.0729
  179SAPS  C21820485  -0.029   2.687   4.636  0.0259  0.1231 -0.7186
  179SAPS  H18R20486  -0.096   2.617   4.582 -0.3516  0.4009 -0.6152
  179SAPS  H18S20487  -0.094   2.773   4.661 -1.5565 -1.3480  0.4174
  179SAPS  C21920488   0.032   2.634   4.764  0.7661  0.1843  0.0864
  179SAPS  H19R20489   0.097   2.707   4.817  0.3738  0.3283  0.3738
  179SAPS  H19S20490   0.096   2.550   4.729 -0.2764 -0.0056 -1.4476
  179SAPS  C22020491  -0.074   2.577   4.866 -0.1475 -0.9277 -0.2958
  179SAPS  H20R20492  -0.027   2.512   4.943 -0.4407 -0.7959 -0.0013
  179SAPS  H20S20493  -0.151   2.518   4.813  0.7976 -1.1825 -1.4207
  179SAPS  H20T20494  -0.119   2.665   4.917  1.5187  0.9562 -1.8884
  179SAPS   C3320495   0.330   3.296   3.537  0.5435  0.7799 -0.6132
  179SAPS   H3X20496   0.347   3.406   3.545  0.8027  0.7974 -1.3558
  179SAPS   H3Y20497   0.422   3.252   3.493 -0.9678 -0.6630 -2.5008
  179SAPS   C3420498   0.310   3.241   3.674 -0.2719  0.5192  0.1331
  179SAPS   H4X20499   0.370   3.305   3.743 -2.1670  0.4809  1.9032
  179SAPS   H4Y20500   0.351   3.138   3.665 -0.0281  0.6192  0.0909
  179SAPS   C3520501   0.179   3.222   3.735  0.4314 -0.2427  0.6040
  179SAPS   H5X20502   0.107   3.165   3.673 -0.8692  1.5278  0.3957
  179SAPS   H5Y20503   0.136   3.324   3.749  0.8125  0.0799 -0.4588
  179SAPS   C3620504   0.195   3.164   3.872  0.1446  0.3181 -0.2135
  179SAPS   H6X20505   0.255   3.072   3.857 -0.7558 -0.0872 -1.4567
  179SAPS   H6Y20506   0.095   3.128   3.905 -0.3166  1.8902  0.2332
  179SAPS   C3720507   0.248   3.261   3.980 -0.0962  0.4667  0.4511
  179SAPS   H7X20508   0.159   3.322   4.002 -0.9719 -1.5318  2.9173
  179SAPS   H7Y20509   0.328   3.327   3.939  0.2824 -0.0943  0.2732
  179SAPS   C3820510   0.313   3.205   4.107  0.8555 -0.4026  0.2514
  179SAPS   H8X20511   0.351   3.286   4.173  2.2307 -0.6006 -0.2746
  179SAPS   H8Y20512   0.402   3.151   4.068 -1.3866 -2.8765 -1.8459
  179SAPS   C3920513   0.229   3.105   4.190  0.1554  0.1607 -0.5623
  179SAPS   H9X20514   0.285   3.051   4.269  0.2953  1.1846  0.0616
  179SAPS   H9Y20515   0.208   3.028   4.113  0.1154 -1.6060  1.1267
  179SAPS  C31020516   0.095   3.157   4.250 -0.5371  0.2510  0.2683
  179SAPS  H10X20517   0.033   3.066   4.258  0.8161 -0.6689  0.6751
  179SAPS  H10Y20518   0.041   3.232   4.189  0.4414  1.0128  0.3076
  179SAPS  C31120519   0.123   3.240   4.378  0.0446 -0.1591 -0.0407
  179SAPS  H11X20520   0.020   3.279   4.392 -0.4503 -1.1427 -0.8068
  179SAPS  H11Y20521   0.191   3.323   4.352  1.5194 -1.4181 -0.3187
  179SAPS  C31220522   0.174   3.164   4.499  0.7130 -0.8001  0.2033
  179SAPS  H12X20523   0.282   3.146   4.481  1.4631  1.4192  1.9789
  179SAPS  H12Y20524   0.121   3.069   4.518  1.0051 -0.9143  0.4683
  179SAPS  C31320525   0.159   3.246   4.623  0.6723 -0.6312  0.0858
  179SAPS  H13X20526   0.054   3.280   4.635  1.3379  1.2367  1.0474
  179SAPS  H13Y20527   0.223   3.337   4.613  0.1041 -0.2343  0.0051
  179SAPS  C31420528   0.191   3.176   4.756  0.3653  0.1087  0.3416
  179SAPS  H14X20529   0.212   3.259   4.826 -0.4580  0.2746  0.3971
  179SAPS  H14Y20530   0.276   3.106   4.739 -0.8219 -1.7049  1.4317
  179SAPS  C31520531   0.074   3.096   4.812 -0.0565  0.5783 -0.1501
  179SAPS  H15X20532   0.057   2.992   4.775 -0.0971 -0.5908  2.8842
  179SAPS  H15Y20533  -0.016   3.159   4.796  0.8547  1.7673 -0.7063
  179SAPS  C31620534   0.095   3.070   4.957  0.3458 -0.5178  0.1887
  179SAPS  H16X20535   0.114   3.167   5.009  0.0693 -0.3658  0.0121
  179SAPS  H16Y20536   0.190   3.015   4.974  0.4241 -0.2536  0.6391
  179SAPS  C31720537  -0.012   2.978   5.018  0.8860  0.6146  0.0642
  179SAPS  H17X20538  -0.020   2.882   4.962  2.2740 -0.1934  1.2077
  179SAPS  H17Y20539  -0.104   3.039   5.033  0.4739 -0.3312  1.5796
  179SAPS  C31820540   0.004   2.925   5.158  0.1623 -0.7247 -0.5873
  179SAPS  H18X20541   0.091   2.858   5.170  1.2663  0.5740 -1.1391
  179SAPS  H18Y20542  -0.080   2.872   5.208 -0.8351  0.3503 -1.0667
  179SAPS  H18Z20543   0.036   3.006   5.228 -0.3899 -1.1678  0.1999
  180SAPS     N20544   1.325   1.871   2.859  0.4361 -0.2400  0.2441
  180SAPS   HN120545   1.414   1.831   2.894 -0.2748 -2.1098  0.0176
  180SAPS   HN220546   1.330   1.911   2.763  0.3467  1.7047  0.9941
  180SAPS   HN320547   1.296   1.955   2.913 -0.6430 -0.2020 -0.3671
  180SAPS   C1220548   1.217   1.777   2.876 -0.4479  0.1625  1.0208
  180SAPS  H12A20549   1.128   1.818   2.831  0.1309 -0.2264 -0.5375
  180SAPS   C1320550   1.241   1.633   2.809 -0.3123 -0.1897  0.1177
  180SAPS  O13A20551   1.346   1.607   2.754  0.3859  0.4457  0.5604
  180SAPS  O13B20552   1.153   1.546   2.837  0.3155 -0.1732  0.2118
  180SAPS   C1120553   1.209   1.749   3.023 -0.6451  1.0793 -0.6121
  180SAPS  H11A20554   1.300   1.696   3.059  0.0961  1.2323 -2.2119
  180SAPS  H11B20555   1.127   1.676   3.045  0.7894 -0.1585  0.8487
  180SAPS     P20556   1.061   1.912   3.163  0.2633 -0.1390  0.0707
  180SAPS   O1320557   1.085   2.005   3.276  0.4044  0.4124 -0.3898
  180SAPS   O1420558   0.967   1.945   3.059 -0.6240  0.3146  0.4439
  180SAPS   O1220559   1.199   1.871   3.092 -0.4257 -0.1711  0.6978
  180SAPS   O1120560   1.009   1.784   3.227  0.5321  0.1853 -0.1767
  180SAPS    C120561   0.872   1.772   3.265  0.1341  0.2521 -0.4291
  180SAPS    HA20562   0.801   1.846   3.222 -1.1785  0.1992  1.5086
  180SAPS    HB20563   0.831   1.672   3.238  0.0238  0.0458  0.4664
  180SAPS    C220564   0.851   1.787   3.421 -0.6625 -0.7205  0.1192
  180SAPS    HS20565   0.750   1.765   3.462 -0.5365 -0.8314  0.3690
  180SAPS   O2120566   0.893   1.920   3.458 -0.4395  0.0295  0.0256
  180SAPS   C2120567   0.810   2.024   3.440 -0.1795  0.5210  0.2213
  180SAPS   O2220568   0.702   2.011   3.385 -0.0965  1.0606  0.2184
  180SAPS   C2220569   0.867   2.154   3.495 -0.2839 -0.3922  0.1065
  180SAPS   H2R20570   0.892   2.132   3.601  2.0235 -1.9565 -0.6789
  180SAPS   H2S20571   0.971   2.155   3.456 -0.2611 -3.0148 -0.0316
  180SAPS    C320572   0.930   1.695   3.504 -0.0845  0.2252 -0.1624
  180SAPS    HX20573   1.035   1.705   3.470 -0.0982  5.5466  0.4475
  180SAPS    HY20574   0.906   1.591   3.472 -0.6966  0.4313 -0.3941
  180SAPS   O3120575   0.937   1.727   3.646  0.2917 -0.2304 -0.1688
  180SAPS   C3120576   0.826   1.678   3.710 -0.2155 -0.7229  0.6731
  180SAPS   O3220577   0.738   1.620   3.652 -0.1008  0.8017 -0.1087
  180SAPS   C3220578   0.837   1.714   3.861  0.2789 -0.0093  0.9620
  180SAPS   H2X20579   0.843   1.825   3.858 -0.2566  0.0175 -1.1011
  180SAPS   H2Y20580   0.931   1.672   3.901  2.3194  2.6277 -0.6855
  180SAPS   C2320581   0.798   2.281   3.445 -0.7361  0.4227 -0.2456
  180SAPS   H3R20582   0.688   2.276   3.432 -0.6699 -0.4239 -0.5105
  180SAPS   H3S20583   0.824   2.301   3.339  0.7646 -0.2957 -0.0417
  180SAPS   C2420584   0.821   2.400   3.545  0.0875  0.0021  0.6458
  180SAPS   H4R20585   0.783   2.374   3.646 -0.2061 -1.8953  0.0864
  180SAPS   H4S20586   0.755   2.483   3.512 -0.1939 -0.4978 -0.0738
  180SAPS   C2520587   0.964   2.454   3.550 -0.0311  0.1971  0.3649
  180SAPS   H5R20588   0.997   2.490   3.451 -1.3738  2.0304  0.5129
  180SAPS   C2620589   1.041   2.468   3.664 -0.1696 -0.2651  0.3194
  180SAPS   H6R20590   1.144   2.504   3.655 -1.5644  4.6318  1.2001
  180SAPS   C2720591   1.002   2.423   3.795 -0.5903  0.2208  0.3536
  180SAPS   H7R20592   0.993   2.313   3.805  1.9564  0.1030  2.6128
  180SAPS   H7S20593   0.904   2.464   3.826 -2.8309 -1.8365 -3.3536
  180SAPS   C2820594   1.116   2.460   3.891  0.2624  0.5330 -0.0361
  180SAPS   H8R20595   1.208   2.402   3.873 -0.6707 -1.8579  2.1689
  180SAPS   C2920596   1.113   2.526   4.006  0.0394  0.3874 -0.6167
  180SAPS   H9R20597   1.207   2.554   4.055  0.7884 -0.9038 -1.2666
  180SAPS  C21020598   1.001   2.595   4.075  0.1278  0.4599 -0.5865
  180SAPS  H10R20599   0.923   2.628   4.003  0.5536  1.0625 -0.7725
  180SAPS  H10S20600   1.042   2.685   4.124  0.3649 -0.5211  1.1180
  180SAPS  C21120601   0.928   2.505   4.168  0.0373  0.1157  0.2480
  180SAPS  H11R20602   0.879   2.417   4.125  0.3656 -1.3080  2.5908
  180SAPS  C21220603   0.921   2.505   4.303  0.9054 -0.5685 -0.0431
  180SAPS  H12R20604   0.881   2.418   4.357  2.3532 -1.3530 -0.1678
  180SAPS  C21320605   0.983   2.608   4.392  0.6626  0.4745 -0.1870
  180SAPS  H13R20606   0.908   2.642   4.466  0.5424 -1.7182  0.7943
  180SAPS  H13S20607   1.007   2.698   4.332  0.5674  0.2010 -0.6375
  180SAPS  C21420608   1.103   2.541   4.462 -0.3987 -0.6256  0.0082
  180SAPS  H14R20609   1.162   2.473   4.397 -0.9204 -0.4509 -0.6523
  180SAPS  C21520610   1.142   2.546   4.587  0.1156 -0.7960  0.1296
  180SAPS  H15R20611   1.242   2.509   4.616 -0.6461 -2.2973  0.9100
  180SAPS  C21620612   1.068   2.627   4.696 -0.9497  0.2633 -0.1805
  180SAPS  H16R20613   0.994   2.691   4.645  1.1801  1.2372 -2.2769
  180SAPS  H16S20614   1.126   2.701   4.755 -0.0102 -0.5794  0.0001
  180SAPS  C21720615   0.998   2.524   4.787  0.7332  0.2596 -0.1093
  180SAPS  H17R20616   1.069   2.457   4.842  2.5122  1.3114 -1.0150
  180SAPS  H17S20617   0.942   2.452   4.723  3.1119 -1.8444 -0.0058
  180SAPS  C21820618   0.902   2.600   4.883  0.5423  0.3045 -0.4189
  180SAPS  H18R20619   0.832   2.665   4.827 -0.4322  0.7214  1.2548
  180SAPS  H18S20620   0.960   2.677   4.938  1.7939 -0.4933 -0.5648
  180SAPS  C21920621   0.828   2.509   4.972 -0.1578 -0.9167  0.2093
  180SAPS  H19R20622   0.777   2.434   4.908  1.3549 -1.7697 -0.0429
  180SAPS  H19S20623   0.749   2.566   5.027  1.4114  2.4426 -0.7471
  180SAPS  C22020624   0.922   2.442   5.067  0.0002 -0.6356 -0.1554
  180SAPS  H20R20625   0.982   2.518   5.122 -1.8039 -1.5386  3.3535
  180SAPS  H20S20626   0.861   2.385   5.140  0.6925 -1.8566 -0.5125
  180SAPS  H20T20627   0.983   2.373   5.005 -0.8805 -1.0717 -0.5516
  180SAPS   C3320628   0.717   1.652   3.934  0.4331  0.8735  0.1438
  180SAPS   H3X20629   0.701   1.544   3.916  0.0443  1.1947 -1.6555
  180SAPS   H3Y20630   0.621   1.693   3.895 -0.6820 -1.3631  0.3799
  180SAPS   C3420631   0.741   1.667   4.084  0.7069 -0.2928  0.3999
  180SAPS   H4X20632   0.736   1.775   4.109  0.9170  0.0967 -1.1454
  180SAPS   H4Y20633   0.838   1.618   4.106  1.0877  0.4047  0.2971
  180SAPS   C3520634   0.621   1.600   4.159 -0.3749  0.2239 -0.0231
  180SAPS   H5X20635   0.597   1.496   4.127  2.6219 -0.0528 -1.6665
  180SAPS   H5Y20636   0.532   1.667   4.153  1.1533  2.4649  1.0719
  180SAPS   C3620637   0.647   1.590   4.312 -0.6764 -0.5826  0.3379
  180SAPS   H6X20638   0.706   1.500   4.341 -0.6351 -0.7941 -0.3877
  180SAPS   H6Y20639   0.554   1.572   4.371  0.2819 -1.6678  1.5721
  180SAPS   C3720640   0.719   1.711   4.374 -0.2540 -0.2164  0.6465
  180SAPS   H7X20641   0.671   1.803   4.334  2.4715  0.8999 -0.2573
  180SAPS   H7Y20642   0.825   1.708   4.343 -0.2055 -0.0135  0.7941
  180SAPS   C3820643   0.704   1.712   4.528 -0.3011  0.0643 -0.5812
  180SAPS   H8X20644   0.729   1.612   4.571  0.6494  0.9514  1.0592
  180SAPS   H8Y20645   0.606   1.745   4.567 -0.0953 -2.2331  2.1378
  180SAPS   C3920646   0.789   1.826   4.593 -0.0106  0.0994 -0.0666
  180SAPS   H9X20647   0.746   1.925   4.564 -0.0079 -0.6660 -2.9714
  180SAPS   H9Y20648   0.892   1.830   4.551 -0.0353 -1.1782 -0.2738
  180SAPS  C31020649   0.782   1.821   4.747  0.1513  0.9190 -0.5205
  180SAPS  H10X20650   0.860   1.758   4.794 -1.1894  0.5407  1.2734
  180SAPS  H10Y20651   0.682   1.776   4.761  0.9772 -1.0751 -0.6593
  180SAPS  C31120652   0.815   1.966   4.818  0.5413  0.2004  0.1998
  180SAPS  H11X20653   0.856   2.037   4.742 -1.1309 -0.5569 -1.5164
  180SAPS  H11Y20654   0.893   1.943   4.893  0.2133 -0.2116  0.4186
  180SAPS  C31220655   0.700   2.036   4.893  0.2539  0.2180  0.1345
  180SAPS  H12X20656   0.611   2.036   4.827  0.3912 -0.3793 -0.0556
  180SAPS  H12Y20657   0.723   2.134   4.941  1.4158 -0.6138  1.3567
  180SAPS  C31320658   0.648   1.948   5.004 -0.0879  0.6095  0.7714
  180SAPS  H13X20659   0.730   1.888   5.049  0.1193 -0.9487 -1.4778
  180SAPS  H13Y20660   0.575   1.874   4.964 -0.4992  1.5350 -0.2394
  180SAPS  C31420661   0.566   2.025   5.107  0.4379 -0.2348 -0.3603
  180SAPS  H14X20662   0.497   1.958   5.162  0.8741  2.7452  4.3378
  180SAPS  H14Y20663   0.504   2.104   5.059 -0.6707 -0.6287  0.3867
  180SAPS  C31520664   0.645   2.106   5.210 -0.1017  0.1559  0.2003
  180SAPS  H15X20665   0.708   2.179   5.155  0.2610 -0.3003 -0.0011
  180SAPS  H15Y20666   0.719   2.040   5.260  1.7565  1.4989 -0.6623
  180SAPS  C31620667   0.571   2.176   5.323 -0.3704 -0.0445 -0.3547
  180SAPS  H16X20668   0.484   2.228   5.278  0.0116  2.6180  1.6801
  180SAPS  H16Y20669   0.632   2.263   5.356 -2.2205  1.4848 -0.8247
  180SAPS  C31720670   0.525   2.077   5.433  0.0007 -0.0565 -0.2581
  180SAPS  H17X20671   0.611   2.050   5.498 -0.7745 -1.9622  0.0498
  180SAPS  H17Y20672   0.487   1.983   5.389 -1.5251  0.8212 -0.8913
  180SAPS  C31820673   0.414   2.137   5.534 -0.3202 -0.5541  0.3742
  180SAPS  H18X20674   0.441   2.241   5.561 -0.7964 -0.2586 -0.2576
  180SAPS  H18Y20675   0.398   2.076   5.625  1.1841 -0.9495  0.4065
  180SAPS  H18Z20676   0.320   2.146   5.476 -0.0691  0.0235  0.0424
  181POPC     N20677   5.222   0.971   7.884  0.5736  0.4986  0.2915
  181POPC   C1220678   5.234   0.979   7.732  0.0570 -0.0973 -0.3393
  181POPC  H12A20679   5.141   0.939   7.694 -1.5723  0.3248  2.8295
  181POPC  H12B20680   5.318   0.912   7.718  1.5418  1.5779  0.2224
  181POPC   C1320681   5.240   0.836   7.934 -0.4032  0.4638  0.3519
  181POPC  H13A20682   5.158   0.773   7.904  0.6934 -0.7721 -0.1304
  181POPC  H13B20683   5.329   0.787   7.897 -0.5211 -1.5264  2.4569
  181POPC  H13C20684   5.233   0.841   8.042 -2.0237  2.6471  0.2101
  181POPC   C1420685   5.333   1.059   7.940  0.4379  0.0256  0.2890
  181POPC  H14A20686   5.312   1.070   8.045 -1.0323 -1.5529  0.1917
  181POPC  H14B20687   5.435   1.025   7.929  0.0159 -1.2394  0.1278
  181POPC  H14C20688   5.315   1.157   7.898 -0.8934  0.0178  0.7724
  181POPC   C1520689   5.090   1.025   7.934 -0.6184  0.6429  0.3924
  181POPC  H15A20690   5.071   1.111   7.872 -2.1045 -0.0763 -0.1927
  181POPC  H15B20691   5.096   1.069   8.032 -3.4780  3.5267 -0.5505
  181POPC  H15C20692   5.012   0.951   7.922  2.4874 -2.6677 -1.3093
  181POPC   C1120693   5.246   1.115   7.659 -0.0123 -0.5809 -0.2868
  181POPC  H11A20694   5.239   1.091   7.551  1.1258 -0.8535 -0.3175
  181POPC  H11B20695   5.347   1.159   7.677  0.1689 -1.2885  0.4738
  181POPC     P20696   5.165   1.358   7.741  0.3393  0.2497 -0.0756
  181POPC   O1320697   5.264   1.362   7.850 -0.1150 -0.2899  0.2769
  181POPC   O1420698   5.033   1.424   7.768  0.2081  0.2564  0.3020
  181POPC   O1220699   5.141   1.204   7.693  0.5077  0.3066  0.4703
  181POPC   O1120700   5.230   1.431   7.622 -0.3780 -0.6762 -0.3195
  181POPC    C120701   5.163   1.454   7.501 -0.0661 -0.3756  0.0178
  181POPC    HA20702   5.142   1.563   7.497  1.1218 -0.0530  1.5379
  181POPC    HB20703   5.064   1.404   7.500  0.2565 -1.0855  1.3725
  181POPC    C220704   5.251   1.418   7.377 -0.5700  0.4300 -0.5700
  181POPC    HS20705   5.280   1.310   7.380  1.0189  0.8423 -0.0031
  181POPC   O2120706   5.366   1.504   7.378 -0.0249 -0.1781  0.2339
  181POPC   C2120707   5.483   1.449   7.332  0.1521 -0.0365 -0.0567
  181POPC   O2220708   5.494   1.326   7.306 -0.8240  0.1376  0.1187
  181POPC   C2220709   5.591   1.561   7.344 -0.3583  0.3799  0.1581
  181POPC   H2R20710   5.589   1.587   7.452 -1.7706  1.1442 -0.0141
  181POPC   H2S20711   5.543   1.645   7.290 -1.0440 -0.1197 -0.0308
  181POPC    C320712   5.175   1.439   7.239  0.3708 -0.0229  0.5526
  181POPC    HX20713   5.162   1.549   7.226  0.5907 -0.0073  0.4638
  181POPC    HY20714   5.079   1.384   7.227  1.7722 -2.2021 -1.4645
  181POPC   O3120715   5.260   1.396   7.127  0.2666 -0.5948  0.5087
  181POPC   C3120716   5.279   1.266   7.113 -0.2717 -0.1977  0.1558
  181POPC   O3220717   5.229   1.183   7.189 -0.0790 -0.1818 -0.1472
  181POPC   C3220718   5.377   1.238   7.003 -0.3040 -0.7285 -0.4339
  181POPC   H2X20719   5.435   1.150   7.037  3.5486  1.5655 -0.4826
  181POPC   H2Y20720   5.450   1.320   6.985 -0.1413 -0.5868  0.8250
  181POPC   C2320721   5.727   1.533   7.284  0.5752 -0.2582 -0.2422
  181POPC   H3R20722   5.787   1.458   7.342  0.8379  1.1747  1.4209
  181POPC   H3S20723   5.781   1.629   7.297 -0.3605  0.5086 -1.7359
  181POPC   C2420724   5.724   1.484   7.136 -0.2270 -0.2860  0.3330
  181POPC   H4R20725   5.652   1.402   7.119 -2.2979  1.5288 -0.1584
  181POPC   H4S20726   5.827   1.454   7.109 -0.3436 -0.1252 -0.3169
  181POPC   C2520727   5.680   1.598   7.042  0.8731 -0.4109  0.6063
  181POPC   H5R20728   5.748   1.686   7.047 -1.5392  1.8200 -2.5194
  181POPC   H5S20729   5.582   1.646   7.064  0.6372  0.0972 -1.3935
  181POPC   C2620730   5.670   1.548   6.896 -0.4456 -0.7863 -0.1442
  181POPC   H6R20731   5.596   1.466   6.903  0.5268 -1.6886 -0.1066
  181POPC   H6S20732   5.768   1.497   6.881 -0.4744 -0.5289 -1.2560
  181POPC   C2720733   5.639   1.663   6.798 -0.4840 -0.2294 -0.5141
  181POPC   H7R20734   5.730   1.721   6.769 -1.5191  1.0760 -1.2800
  181POPC   H7S20735   5.566   1.727   6.851  0.5092 -0.4588  1.2074
  181POPC   C2820736   5.567   1.623   6.676 -0.7255  0.1104  0.5380
  181POPC   H8R20737   5.529   1.714   6.625  2.2738  1.4417  0.4832
  181POPC   H8S20738   5.484   1.554   6.702  1.1856 -1.4945  2.7545
  181POPC   C2920739   5.653   1.538   6.586 -0.0598 -0.2381  0.1435
  181POPC   H9120740   5.687   1.443   6.629  1.8538 -1.2281 -3.2224
  181POPC  C21020741   5.705   1.575   6.464 -0.0110 -0.0651  0.2550
  181POPC  H10120742   5.770   1.511   6.403 -0.9259 -1.1319  0.3631
  181POPC  C21120743   5.648   1.703   6.395 -0.4764 -0.5118 -0.4244
  181POPC  H11R20744   5.691   1.793   6.444  0.8940 -1.7320  0.7120
  181POPC  H11S20745   5.538   1.710   6.411 -0.6575 -0.2697 -1.7230
  181POPC  C21220746   5.666   1.720   6.239  0.1613 -0.2561 -0.1769
  181POPC  H12R20747   5.773   1.740   6.217  0.2294  0.7447  0.9108
  181POPC  H12S20748   5.611   1.813   6.212  0.0906 -0.4571 -0.7215
  181POPC  C21320749   5.615   1.612   6.154  0.0378 -0.3426  0.4022
  181POPC  H13R20750   5.505   1.610   6.148  0.0507  0.7312 -0.5910
  181POPC  H13S20751   5.641   1.507   6.177 -0.6227 -0.3540  1.1094
  181POPC  C21420752   5.655   1.642   6.000  0.2829  0.3056 -0.0240
  181POPC  H14R20753   5.764   1.661   6.006  0.6046 -1.1193 -1.0809
  181POPC  H14S20754   5.617   1.742   5.970  0.7018  0.6185  0.4628
  181POPC  C21520755   5.617   1.530   5.902 -0.0632  0.4188  0.5817
  181POPC  H15R20756   5.510   1.504   5.919  0.0400 -1.0474 -0.7820
  181POPC  H15S20757   5.673   1.439   5.932 -2.0879 -1.3242 -0.6269
  181POPC  C21620758   5.636   1.578   5.755 -0.1335 -0.1269  0.9960
  181POPC  H16R20759   5.735   1.594   5.706 -1.4081  1.1606 -1.3871
  181POPC  H16S20760   5.584   1.676   5.745  1.7626  0.8002 -0.6559
  181POPC  C21720761   5.568   1.488   5.651  0.5371  0.8840  0.6464
  181POPC  H17R20762   5.459   1.484   5.675  0.5702  0.3374  0.7117
  181POPC  H17S20763   5.604   1.384   5.664 -0.0743  0.6334  0.3858
  181POPC  C21820764   5.583   1.547   5.509  0.9540  0.2324 -0.3222
  181POPC  H18R20765   5.519   1.492   5.437  0.8356  0.0013 -0.0432
  181POPC  H18S20766   5.689   1.542   5.476  1.0035 -0.8146 -0.0439
  181POPC  H18T20767   5.552   1.654   5.502 -2.5547 -0.6451 -0.0275
  181POPC   C3320768   5.311   1.212   6.865 -0.0011  0.3740 -0.2076
  181POPC   H3X20769   5.246   1.301   6.854 -0.8734  0.2690  3.1722
  181POPC   H3Y20770   5.240   1.127   6.866  1.0675 -0.6038  2.7738
  181POPC   C3420771   5.408   1.198   6.746 -0.5394  0.0904 -0.3615
  181POPC   H4X20772   5.468   1.107   6.771 -0.7834  0.2628  0.9355
  181POPC   H4Y20773   5.475   1.285   6.730  0.5337 -0.8993 -1.5286
  181POPC   C3520774   5.338   1.175   6.613  0.1465  0.1174  0.1396
  181POPC   H5X20775   5.273   1.260   6.585  0.2732 -0.6232 -2.6863
  181POPC   H5Y20776   5.278   1.082   6.619 -0.1156  0.1457 -1.5810
  181POPC   C3620777   5.443   1.155   6.503  0.1217  0.5075  0.8824
  181POPC   H6X20778   5.494   1.061   6.532 -0.0407  0.3406  0.6298
  181POPC   H6Y20779   5.515   1.239   6.513  1.0887 -0.0981 -0.7894
  181POPC   C3720780   5.384   1.141   6.360 -0.2857  0.0840 -0.3240
  181POPC   H7X20781   5.316   1.227   6.348  0.0771  0.8101  2.1822
  181POPC   H7Y20782   5.340   1.039   6.353 -1.0913  0.3007  1.1747
  181POPC   C3820783   5.489   1.166   6.248  0.5375  0.2715 -0.4646
  181POPC   H8X20784   5.544   1.071   6.230  0.9059 -0.1891  2.5040
  181POPC   H8Y20785   5.573   1.237   6.267  0.9505 -0.1666 -0.6090
  181POPC   C3920786   5.427   1.197   6.114 -0.3379  0.2495 -0.1620
  181POPC   H9X20787   5.394   1.303   6.110  1.0739  0.8716  2.3085
  181POPC   H9Y20788   5.340   1.128   6.105 -1.4843  1.2276  2.3001
  181POPC  C31020789   5.524   1.144   6.007  0.0906  0.6218 -0.1435
  181POPC  H10X20790   5.548   1.036   6.014  1.9650  0.7404 -3.1331
  181POPC  H10Y20791   5.621   1.196   6.022  0.7501 -0.2861 -1.1233
  181POPC  C31120792   5.477   1.163   5.864 -0.6935  0.5326 -0.1445
  181POPC  H11X20793   5.448   1.269   5.847  0.8288  0.9586 -0.1484
  181POPC  H11Y20794   5.385   1.099   5.858 -1.1212  1.1824 -0.6685
  181POPC  C31220795   5.581   1.114   5.760  0.0509  0.3623 -0.3275
  181POPC  H12X20796   5.598   1.006   5.777 -1.5573  0.5273  3.3231
  181POPC  H12Y20797   5.671   1.179   5.761  0.0478  0.3573  0.6590
  181POPC  C31320798   5.523   1.129   5.613 -0.7827  0.0331 -0.3730
  181POPC  H13X20799   5.450   1.211   5.599 -0.1440  0.8440  0.8720
  181POPC  H13Y20800   5.466   1.034   5.605 -1.3500  0.3675 -0.2916
  181POPC  C31420801   5.625   1.126   5.503 -0.7620  0.0996 -0.0572
  181POPC  H14X20802   5.683   1.032   5.507  0.6266  0.8340 -1.7330
  181POPC  H14Y20803   5.695   1.209   5.527 -0.6992 -0.3686  1.4982
  181POPC  C31520804   5.573   1.143   5.363 -0.3448  0.1432  0.9456
  181POPC  H15X20805   5.528   1.245   5.352 -1.0640 -0.1697  0.9157
  181POPC  H15Y20806   5.488   1.074   5.345  1.5326 -1.3086 -3.9194
  181POPC  C31620807   5.690   1.131   5.265 -0.6227  0.1962  0.4260
  181POPC  H16X20808   5.653   1.109   5.163  0.2690  0.8425 -0.0466
  181POPC  H16Y20809   5.754   1.042   5.282 -0.8475 -0.5157 -2.0763
  181POPC  H16Z20810   5.757   1.220   5.269 -0.5131  0.2174 -1.2645
  182POPC     N20811   4.267   6.331   7.548  0.1726  0.4435  0.7155
  182POPC   C1220812   4.354   6.338   7.421  0.2500 -0.7023 -0.1626
  182POPC  H12A20813   4.424   6.256   7.426  2.1441  0.8714  1.0098
  182POPC  H12B20814   4.424   6.420   7.424 -0.1131 -0.3976  2.7220
  182POPC   C1320815   4.177   6.215   7.537  0.1496  0.0494 -0.6290
  182POPC  H13A20816   4.126   6.202   7.443 -0.5202 -2.8678  0.0473
  182POPC  H13B20817   4.229   6.120   7.546  1.3142  0.7063 -0.1743
  182POPC  H13C20818   4.112   6.211   7.622  1.8703 -1.8536  0.7069
  182POPC   C1420819   4.349   6.313   7.672 -0.3189 -0.2790 -0.5955
  182POPC  H14A20820   4.405   6.402   7.696 -0.3478 -0.5762  0.6419
  182POPC  H14B20821   4.288   6.280   7.754  0.9414  0.2100  0.5627
  182POPC  H14C20822   4.424   6.238   7.656  0.8659  0.9331 -0.8457
  182POPC   C1520823   4.186   6.460   7.561 -0.5935 -0.2007  0.0031
  182POPC  H15A20824   4.248   6.547   7.540  0.0929 -1.1175 -2.0556
  182POPC  H15B20825   4.146   6.472   7.660 -0.7772  0.7389 -0.1772
  182POPC  H15C20826   4.109   6.468   7.486 -0.8887  0.8375  0.3931
  182POPC   C1120827   4.276   6.345   7.293  0.5202  0.2887  0.7686
  182POPC  H11A20828   4.211   6.256   7.278  0.6148  0.3256  0.1049
  182POPC  H11B20829   4.348   6.334   7.209  1.5043  0.9262  1.5101
  182POPC     P20830   4.051   6.450   7.187  0.1222 -0.3712 -0.0991
  182POPC   O1320831   4.004   6.578   7.142 -0.2488  0.1591  0.0566
  182POPC   O1420832   3.962   6.367   7.273  0.1085  0.1207 -0.2963
  182POPC   O1220833   4.200   6.467   7.260  0.3345 -0.0997  0.2520
  182POPC   O1120834   4.084   6.365   7.059 -0.0330 -0.4081 -0.2165
  182POPC    C120835   4.174   6.408   6.960  0.3082  0.0442  0.3354
  182POPC    HA20836   4.255   6.333   6.946  1.5319  1.8353 -4.1707
  182POPC    HB20837   4.231   6.496   6.998 -0.3095 -0.0128  1.4033
  182POPC    C220838   4.102   6.434   6.821 -0.6058 -0.2736 -0.0496
  182POPC    HS20839   4.172   6.463   6.740 -0.9276 -2.9160 -1.3621
  182POPC   O2120840   4.003   6.536   6.835 -0.0760 -0.2164 -0.2324
  182POPC   C2120841   4.047   6.656   6.859 -0.2348  0.4774 -0.2274
  182POPC   O2220842   4.166   6.686   6.863  0.7129 -0.0814  0.5493
  182POPC   C2220843   3.923   6.748   6.864  0.1720  0.4434 -0.3064
  182POPC   H2R20844   3.920   6.781   6.970  1.3744  1.7508 -0.6524
  182POPC   H2S20845   3.831   6.703   6.820  1.4656 -2.9187  0.1617
  182POPC    C320846   4.028   6.306   6.761  0.1677 -0.1601  0.4576
  182POPC    HX20847   3.935   6.297   6.821  0.2601 -0.8482  0.4966
  182POPC    HY20848   4.087   6.213   6.761 -0.0491 -0.4486 -3.1634
  182POPC   O3120849   3.996   6.335   6.620 -0.3897  0.0510 -0.0685
  182POPC   C3120850   3.952   6.238   6.552 -0.1225  0.4351 -0.1962
  182POPC   O3220851   3.930   6.127   6.582 -0.3470  0.3812 -0.2644
  182POPC   C3220852   3.943   6.290   6.409  0.5941 -0.0783  0.0873
  182POPC   H2X20853   4.033   6.253   6.356  1.5936  1.3599  0.7082
  182POPC   H2Y20854   3.961   6.400   6.405 -1.4509  0.4219  1.9953
  182POPC   C2320855   3.946   6.871   6.771  0.8226 -0.3636 -0.2557
  182POPC   H3R20856   4.049   6.913   6.783  1.6539 -2.0570 -1.1373
  182POPC   H3S20857   3.883   6.953   6.811 -0.9329 -2.3350  1.2475
  182POPC   C2420858   3.924   6.854   6.623  0.2327  0.5471 -0.4149
  182POPC   H4R20859   3.931   6.957   6.582 -0.9887  0.5785 -0.5985
  182POPC   H4S20860   3.818   6.836   6.596  0.1242  0.1262  0.2685
  182POPC   C2520861   4.028   6.768   6.548  0.6690  0.1981 -0.1518
  182POPC   H5R20862   4.027   6.659   6.565  1.3727  0.3751  1.1275
  182POPC   H5S20863   4.124   6.796   6.595  1.4496 -3.2371  0.5340
  182POPC   C2620864   4.030   6.801   6.403 -0.3027 -0.9810 -0.3169
  182POPC   H6R20865   4.117   6.743   6.366  0.5278 -1.2701  1.9363
  182POPC   H6S20866   4.077   6.901   6.387  0.9754 -1.3409  0.9110
  182POPC   C2720867   3.904   6.794   6.328 -0.2769  0.5983 -0.1576
  182POPC   H7R20868   3.822   6.855   6.371 -1.2291 -0.2796 -0.6894
  182POPC   H7S20869   3.872   6.688   6.339 -2.3910  1.2709  0.6800
  182POPC   C2820870   3.920   6.844   6.189 -0.2769  0.1921 -0.0023
  182POPC   H8R20871   4.008   6.792   6.147  2.0710  3.0376  1.0530
  182POPC   H8S20872   3.932   6.954   6.182 -1.1547  0.2008 -2.2904
  182POPC   C2920873   3.794   6.798   6.111 -0.1345  0.1870 -0.3970
  182POPC   H9120874   3.695   6.824   6.150 -1.0612 -2.5129 -0.7189
  182POPC  C21020875   3.793   6.731   5.995  0.5198 -0.2826 -0.1038
  182POPC  H10120876   3.694   6.720   5.947  1.2802 -1.5811 -1.4799
  182POPC  C21120877   3.914   6.689   5.922 -0.2262  0.3891 -0.2803
  182POPC  H11R20878   3.936   6.580   5.931 -1.1362  0.2351  0.2206
  182POPC  H11S20879   4.006   6.749   5.939 -0.6801  1.3590 -1.1638
  182POPC  C21220880   3.883   6.735   5.772 -0.7707 -0.1054  0.4382
  182POPC  H12R20881   3.787   6.691   5.738  0.2428 -1.7382 -0.4861
  182POPC  H12S20882   3.958   6.684   5.708 -0.9558  0.7464 -0.4835
  182POPC  C21320883   3.885   6.889   5.746 -0.0507  0.1605  0.3563
  182POPC  H13R20884   3.986   6.917   5.783  1.3936 -2.8430 -0.9819
  182POPC  H13S20885   3.811   6.941   5.811  0.7272 -1.6236  2.8377
  182POPC  C21420886   3.891   6.935   5.599 -0.2538  0.8777 -0.5788
  182POPC  H14R20887   3.790   6.901   5.566  0.0194 -0.3074 -0.2539
  182POPC  H14S20888   3.970   6.875   5.550 -0.1133 -1.1424  1.9046
  182POPC  C21520889   3.910   7.091   5.594 -0.3176  0.1972 -0.3284
  182POPC  H15R20890   4.019   7.115   5.595  0.3859 -2.6014  1.2003
  182POPC  H15S20891   3.874   7.130   5.692 -0.6662  0.2033 -0.4574
  182POPC  C21620892   3.848   7.159   5.474 -0.6612  0.2518  0.1179
  182POPC  H16R20893   3.751   7.108   5.457 -0.3287 -0.2257 -0.3811
  182POPC  H16S20894   3.911   7.144   5.384 -2.3466  2.6392 -1.5877
  182POPC  C21720895   3.829   7.304   5.495  0.4177 -0.3630 -0.2653
  182POPC  H17R20896   3.921   7.355   5.527  1.0280 -0.6433 -1.5055
  182POPC  H17S20897   3.751   7.306   5.574 -1.8668 -1.0776 -2.3351
  182POPC  C21820898   3.761   7.374   5.379 -0.0828 -0.2289  0.4341
  182POPC  H18R20899   3.826   7.379   5.289  0.1491  0.5007  0.6367
  182POPC  H18S20900   3.760   7.480   5.413  1.7235  0.4328 -1.3515
  182POPC  H18T20901   3.660   7.337   5.353 -0.2634 -0.4497  1.4117
  182POPC   C3320902   3.817   6.241   6.335 -0.1608 -0.3123  0.0877
  182POPC   H3X20903   3.730   6.275   6.396  0.2993  0.1635  0.4913
  182POPC   H3Y20904   3.821   6.130   6.338  0.3990 -0.2816  0.5980
  182POPC   C3420905   3.816   6.293   6.192 -0.1394  0.2712  0.1190
  182POPC   H4X20906   3.913   6.261   6.147 -0.2875 -0.2004  0.1271
  182POPC   H4Y20907   3.818   6.404   6.196  0.7504  0.4572 -2.7651
  182POPC   C3520908   3.698   6.246   6.105  0.0043  0.1308  0.7158
  182POPC   H5X20909   3.605   6.273   6.160  0.8668  2.4945  1.1510
  182POPC   H5Y20910   3.686   6.137   6.089 -2.9816  0.3861  0.6120
  182POPC   C3620911   3.705   6.320   5.968 -0.1104  0.6964  0.0709
  182POPC   H6X20912   3.705   6.430   5.976  3.6780  1.2593 -3.6044
  182POPC   H6Y20913   3.616   6.283   5.914 -0.1857  0.4592  0.3525
  182POPC   C3720914   3.821   6.279   5.879 -0.1955 -0.8124  0.6306
  182POPC   H7X20915   3.823   6.168   5.878  0.2887 -0.8668 -2.4354
  182POPC   H7Y20916   3.920   6.317   5.912  0.8745 -0.4344 -2.6437
  182POPC   C3820917   3.802   6.336   5.740  0.1642 -0.4882  0.0740
  182POPC   H8X20918   3.830   6.443   5.734 -0.2242 -0.1806  2.5453
  182POPC   H8Y20919   3.694   6.332   5.713  0.3132  2.1572 -1.1616
  182POPC   C3920920   3.893   6.277   5.628  0.7398 -0.2031  0.3781
  182POPC   H9X20921   3.894   6.167   5.643 -0.3720 -0.5422 -1.5885
  182POPC   H9Y20922   3.995   6.321   5.635  0.5912  0.9841 -3.0781
  182POPC  C31020923   3.828   6.296   5.491 -0.0021  0.3323  0.2267
  182POPC  H10X20924   3.726   6.252   5.486 -1.2147  3.0155 -0.7870
  182POPC  H10Y20925   3.894   6.247   5.417 -2.1772 -1.8598 -0.3795
  182POPC  C31120926   3.817   6.446   5.447 -0.6068  0.2112 -0.0913
  182POPC  H11X20927   3.919   6.490   5.446 -0.4209  0.0120  2.5005
  182POPC  H11Y20928   3.762   6.510   5.519 -1.4546 -0.0779 -0.4647
  182POPC  C31220929   3.754   6.466   5.310  0.1136  0.5307  0.0236
  182POPC  H12X20930   3.671   6.393   5.304  0.3525  0.2226  0.4050
  182POPC  H12Y20931   3.820   6.450   5.222  0.8211  0.2625  0.6012
  182POPC  C31320932   3.695   6.604   5.318  0.3795  0.2914 -0.1190
  182POPC  H13X20933   3.779   6.672   5.344  1.3306 -1.4151  1.4329
  182POPC  H13Y20934   3.620   6.607   5.400  1.5165  1.8008  0.9165
  182POPC  C31420935   3.621   6.653   5.192 -0.3858 -0.6483  1.0263
  182POPC  H14X20936   3.536   6.584   5.176 -0.3866 -1.2557  3.3486
  182POPC  H14Y20937   3.688   6.649   5.103 -1.2860 -0.0694  0.3063
  182POPC  C31520938   3.554   6.788   5.214 -0.1671  0.5604  0.0604
  182POPC  H15X20939   3.635   6.855   5.252 -1.0937  1.4967  0.4311
  182POPC  H15Y20940   3.474   6.779   5.291  1.2783 -1.4283  1.4290
  182POPC  C31620941   3.504   6.835   5.076 -0.2065 -0.4339  0.3272
  182POPC  H16X20942   3.592   6.848   5.009  0.0735  0.5941  0.8622
  182POPC  H16Y20943   3.448   6.931   5.080 -0.1268 -0.1413 -2.8548
  182POPC  H16Z20944   3.441   6.751   5.039 -0.1479 -0.8903  1.2415
  183POPC     N20945   5.777   4.005   7.250 -0.7324  1.0345 -0.2352
  183POPC   C1220946   5.919   4.058   7.200  0.3648 -0.4533 -0.5929
  183POPC  H12A20947   5.997   3.987   7.179  1.0573 -0.6723  2.2112
  183POPC  H12B20948   5.957   4.122   7.279  1.1728 -0.9506 -0.5748
  183POPC   C1320949   5.669   4.095   7.298 -0.6448 -0.0775 -0.3092
  183POPC  H13A20950   5.709   4.158   7.376 -0.7771 -0.6857  0.2649
  183POPC  H13B20951   5.634   4.155   7.216  3.0412  1.3115 -1.0451
  183POPC  H13C20952   5.585   4.042   7.341 -0.5077  0.7292  0.9997
  183POPC   C1420953   5.729   3.926   7.136 -0.7733 -0.6520  0.0114
  183POPC  H14A20954   5.802   3.855   7.100  0.0386  0.9273 -1.6153
  183POPC  H14B20955   5.642   3.866   7.159 -0.5148 -1.2340 -0.5195
  183POPC  H14C20956   5.697   3.978   7.047  0.4297  0.1352  0.0099
  183POPC   C1520957   5.807   3.910   7.362  0.1576  0.0105  0.1838
  183POPC  H15A20958   5.731   3.839   7.390 -0.3700  0.4530 -0.1252
  183POPC  H15B20959   5.833   3.971   7.447  1.3336 -0.4889  0.2146
  183POPC  H15C20960   5.896   3.853   7.339  1.0491  1.9559 -1.4155
  183POPC   C1120961   5.910   4.144   7.075  0.2885  1.2869 -0.4754
  183POPC  H11A20962   5.878   4.077   6.993  1.6139 -0.9835  0.7505
  183POPC  H11B20963   6.013   4.168   7.040  0.9793 -1.1432 -0.3284
  183POPC     P20964   5.891   4.386   7.163  0.1401 -0.0893  0.0277
  183POPC   O1320965   5.924   4.352   7.305  0.4274  0.3518  0.3054
  183POPC   O1420966   5.802   4.502   7.148  0.0171 -0.2551  0.0427
  183POPC   O1220967   5.824   4.256   7.098 -0.3554  0.5089  0.1714
  183POPC   O1120968   6.034   4.415   7.103 -0.5172  0.5215 -0.3780
  183POPC    C120969   6.051   4.525   7.021 -0.9781  0.1641  0.4976
  183POPC    HA20970   6.162   4.530   7.014 -0.8189  0.2849  2.4703
  183POPC    HB20971   6.010   4.618   7.065  0.5715  0.9921  0.2935
  183POPC    C220972   5.985   4.489   6.874 -0.5370  0.5380 -1.0480
  183POPC    HS20973   5.875   4.481   6.886 -0.8034  1.6955 -2.5122
  183POPC   O2120974   6.051   4.368   6.836  0.4558  0.2346  0.3486
  183POPC   C2120975   5.988   4.294   6.746 -0.3164  0.3546  0.4679
  183POPC   O2220976   5.877   4.316   6.696  0.1576 -0.5089 -0.2614
  183POPC   C2220977   6.083   4.190   6.710 -0.5699 -0.5215  0.2582
  183POPC   H2R20978   6.054   4.111   6.782  0.1396  0.4630  1.6759
  183POPC   H2S20979   6.188   4.221   6.728 -0.2896  0.8022 -2.9893
  183POPC    C320980   6.006   4.605   6.770 -0.8198  0.4840  0.6034
  183POPC    HX20981   6.115   4.593   6.752 -1.2362 -0.7150 -1.5662
  183POPC    HY20982   5.990   4.703   6.819 -0.5538  2.0322 -2.2166
  183POPC   O3120983   5.930   4.586   6.650 -0.6242 -0.0873 -0.4240
  183POPC   C3120984   6.001   4.609   6.535  1.1369 -0.7292 -0.1198
  183POPC   O3220985   6.117   4.655   6.528 -0.2055  0.0007  0.0743
  183POPC   C3220986   5.907   4.579   6.417 -0.6575  0.3473  0.1248
  183POPC   H2X20987   5.824   4.653   6.412 -1.5397 -0.6591 -4.6907
  183POPC   H2Y20988   5.873   4.474   6.423  0.2385  0.0437  0.1195
  183POPC   C2320989   6.078   4.121   6.568  0.3804  0.1630 -0.3766
  183POPC   H3R20990   5.976   4.078   6.557  0.9752 -1.3784 -0.0863
  183POPC   H3S20991   6.146   4.033   6.572  1.3646  0.9430  0.5873
  183POPC   C2420992   6.103   4.223   6.459  0.4677  0.1865 -0.4924
  183POPC   H4R20993   6.190   4.283   6.493  1.4873 -2.6930  2.5409
  183POPC   H4S20994   6.012   4.285   6.451  1.2623  1.3719 -0.7050
  183POPC   C2520995   6.142   4.152   6.326  0.5981  0.1675 -0.1249
  183POPC   H5R20996   6.072   4.066   6.312  0.5521  0.1968 -0.0736
  183POPC   H5S20997   6.247   4.118   6.334  0.3466 -0.8116 -0.8007
  183POPC   C2620998   6.122   4.242   6.198 -0.5955 -0.1983  0.0995
  183POPC   H6R20999   6.154   4.340   6.240  0.2533 -1.1195  1.7394
  183POPC   H6S21000   6.014   4.241   6.175 -0.2919  1.0817 -1.5902
  183POPC   C2721001   6.197   4.205   6.069  0.1833 -0.0604  0.1172
  183POPC   H7R21002   6.186   4.099   6.036  0.4306 -0.1472  0.3130
  183POPC   H7S21003   6.304   4.223   6.091  0.8726  1.5793 -3.6778
  183POPC   C2821004   6.156   4.292   5.952  0.5890  0.0540  0.4250
  183POPC   H8R21005   6.171   4.398   5.983 -0.9314  0.7944 -1.1586
  183POPC   H8S21006   6.050   4.279   5.922  0.6194 -2.1050  1.0997
  183POPC   C2921007   6.250   4.266   5.838 -0.5214  0.2426  0.5613
  183POPC   H9121008   6.351   4.282   5.878 -0.4195  2.3140 -0.3723
  183POPC  C21021009   6.235   4.237   5.710  0.5112  0.8401  0.6411
  183POPC  H10121010   6.320   4.230   5.641 -0.8120  1.0268 -1.0713
  183POPC  C21121011   6.106   4.218   5.637  0.1197  0.3586  0.5691
  183POPC  H11R21012   6.023   4.225   5.710 -0.2212  0.3655  0.1841
  183POPC  H11S21013   6.104   4.117   5.590 -0.5608 -0.8386  3.0192
  183POPC  C21221014   6.088   4.314   5.519  0.0899  0.5622  0.2617
  183POPC  H12R21015   6.160   4.292   5.438  1.1369 -1.4332  1.6441
  183POPC  H12S21016   6.116   4.413   5.561 -0.8962  0.1443  2.0386
  183POPC  C21321017   5.939   4.323   5.464  0.3742  0.6089  0.6756
  183POPC  H13R21018   5.876   4.358   5.548  0.6048  0.1145  1.0584
  183POPC  H13S21019   5.912   4.235   5.402  0.5913  0.8334  0.2496
  183POPC  C21421020   5.941   4.437   5.363 -0.0452 -0.5694  0.4794
  183POPC  H14R21021   5.970   4.528   5.419  2.6819 -0.9932 -0.0638
  183POPC  H14S21022   5.835   4.443   5.331  0.3012  0.5172 -0.5326
  183POPC  C21521023   6.026   4.436   5.232  0.0889  0.2697  0.3351
  183POPC  H15R21024   5.990   4.351   5.170  0.8851 -2.4525  3.3355
  183POPC  H15S21025   6.135   4.427   5.247  0.0130  0.9667  1.3652
  183POPC  C21621026   6.008   4.579   5.170  0.2847 -0.0512 -0.1804
  183POPC  H16R21027   6.054   4.653   5.239 -3.1420  1.6321  0.4851
  183POPC  H16S21028   5.900   4.605   5.170  0.2623 -0.1405  0.4832
  183POPC  C21721029   6.046   4.602   5.025  0.5174  0.6562 -0.0496
  183POPC  H17R21030   6.012   4.705   4.998  1.5066  0.3188 -2.8805
  183POPC  H17S21031   5.979   4.529   4.975 -0.5518  2.3000 -1.1360
  183POPC  C21821032   6.197   4.580   4.984 -0.2002  0.5003  0.2879
  183POPC  H18R21033   6.229   4.474   4.994  1.6513  0.8215 -1.6547
  183POPC  H18S21034   6.260   4.641   5.052  1.9263 -0.8682 -0.3610
  183POPC  H18T21035   6.211   4.615   4.880  0.7701  0.4507  0.3916
  183POPC   C3321036   5.986   4.593   6.282  0.1450 -0.1851  0.4538
  183POPC   H3X21037   6.088   4.548   6.292  0.0728  0.0101  2.4176
  183POPC   H3Y21038   6.003   4.700   6.257  0.5224 -0.9715 -3.2395
  183POPC   C3421039   5.900   4.533   6.161 -0.1877 -0.4115 -0.6349
  183POPC   H4X21040   5.851   4.446   6.210 -1.2628  0.2178 -0.5763
  183POPC   H4Y21041   5.954   4.506   6.068  2.0471 -1.1319  0.7840
  183POPC   C3521042   5.787   4.629   6.129  0.3764 -0.4217  0.0153
  183POPC   H5X21043   5.754   4.693   6.214 -0.2071  1.1660 -1.3651
  183POPC   H5Y21044   5.696   4.572   6.102 -0.4315  0.8454 -0.0207
  183POPC   C3621045   5.828   4.724   6.016 -0.1702 -0.5796 -0.0145
  183POPC   H6X21046   5.939   4.726   6.009 -0.2080  2.9455 -1.7534
  183POPC   H6Y21047   5.782   4.823   6.035  0.0232 -0.7406  1.4046
  183POPC   C3721048   5.784   4.688   5.873  0.4309  0.1161 -1.1633
  183POPC   H7X21049   5.673   4.686   5.864 -0.0765  0.7618  2.9807
  183POPC   H7Y21050   5.819   4.584   5.854 -1.5244 -1.0632  1.0840
  183POPC   C3821051   5.851   4.773   5.768 -0.0178 -0.0892  0.2955
  183POPC   H8X21052   5.962   4.772   5.773 -0.0188  1.3123  1.2936
  183POPC   H8Y21053   5.824   4.878   5.789  0.9587 -0.0505  1.4772
  183POPC   C3921054   5.815   4.741   5.622  0.0965  0.1467 -0.0428
  183POPC   H9X21055   5.832   4.634   5.598 -1.8299  0.2767 -2.3700
  183POPC   H9Y21056   5.882   4.798   5.555  0.0390 -0.6066 -0.7621
  183POPC  C31021057   5.668   4.763   5.587 -0.0576  0.4587 -0.2001
  183POPC  H10X21058   5.643   4.871   5.577  0.7397  0.5982 -0.7805
  183POPC  H10Y21059   5.606   4.714   5.665 -0.7787  1.1912 -0.2998
  183POPC  C31121060   5.614   4.704   5.449  0.1407  0.5041  0.0150
  183POPC  H11X21061   5.515   4.753   5.430 -1.1143 -1.5436  0.9399
  183POPC  H11Y21062   5.607   4.593   5.455  1.3093  0.3023 -1.8475
  183POPC  C31221063   5.708   4.742   5.330 -0.4511 -0.4111  0.1122
  183POPC  H12X21064   5.682   4.685   5.238 -0.7012 -0.7502  0.3904
  183POPC  H12Y21065   5.815   4.715   5.343 -0.2030  1.0429  1.2406
  183POPC  C31321066   5.705   4.897   5.308  0.5720  0.4067 -0.0103
  183POPC  H13X21067   5.721   4.949   5.405 -1.7964 -1.1277  1.3203
  183POPC  H13Y21068   5.612   4.934   5.259  0.6507  0.5005 -0.0891
  183POPC  C31421069   5.820   4.945   5.211  0.0006 -0.5160 -0.0593
  183POPC  H14X21070   5.917   4.899   5.239  0.0691 -0.4071 -0.1184
  183POPC  H14Y21071   5.826   5.056   5.210 -0.8379 -0.4615  0.1339
  183POPC  C31521072   5.792   4.913   5.061 -0.1366  0.0403  0.2143
  183POPC  H15X21073   5.813   4.807   5.037 -0.0992  0.6186 -2.6082
  183POPC  H15Y21074   5.860   4.973   4.997 -0.1642 -1.3184 -1.1515
  183POPC  C31621075   5.655   4.968   5.008 -0.5488 -0.0827  0.2890
  183POPC  H16X21076   5.651   5.078   5.021  1.2294 -0.2314  2.7341
  183POPC  H16Y21077   5.568   4.921   5.059 -2.0739  2.9578  0.7223
  183POPC  H16Z21078   5.653   4.948   4.899  0.6677  2.1045 -0.1823
  184POPC     N21079   6.073   4.626   7.495 -0.2164 -0.2083 -0.3251
  184POPC   C1221080   6.154   4.518   7.433 -0.3334 -0.3507 -0.5852
  184POPC  H12A21081   6.086   4.461   7.371 -0.2796 -0.3595 -0.6353
  184POPC  H12B21082   6.191   4.464   7.519 -1.0412 -0.3198 -0.2520
  184POPC   C1321083   6.147   4.699   7.609  0.0164  0.6096  0.5183
  184POPC  H13A21084   6.072   4.758   7.659  0.2986  0.9782  0.5058
  184POPC  H13B21085   6.204   4.631   7.671  0.4688  0.5355  0.0339
  184POPC  H13C21086   6.217   4.761   7.556  0.2618  0.1729  0.3203
  184POPC   C1421087   6.028   4.721   7.384 -0.4660 -0.2111  0.5180
  184POPC  H14A21088   5.975   4.670   7.305  1.1972  0.7637 -1.3110
  184POPC  H14B21089   5.965   4.802   7.418  0.0881 -0.1349  1.3758
  184POPC  H14C21090   6.111   4.760   7.328 -0.0070 -3.5184 -1.3762
  184POPC   C1521091   5.951   4.558   7.561 -0.6390 -0.1781  0.2221
  184POPC  H15A21092   5.976   4.485   7.636  0.7072 -0.0673 -0.0969
  184POPC  H15B21093   5.889   4.512   7.486  0.2074  0.9181 -1.2031
  184POPC  H15C21094   5.888   4.630   7.612 -1.7515 -0.9033 -0.0990
  184POPC   C1121095   6.281   4.557   7.342 -0.1574 -0.9129 -0.1960
  184POPC  H11A21096   6.236   4.597   7.249 -1.3847  0.7376  1.0615
  184POPC  H11B21097   6.343   4.469   7.311  0.8924 -0.5089  0.6661
  184POPC     P21098   6.485   4.622   7.487 -0.1920 -0.3017  0.0943
  184POPC   O1321099   6.443   4.508   7.572  0.2910  0.3379 -0.3136
  184POPC   O1421100   6.527   4.749   7.555 -0.0105 -0.4205 -0.3015
  184POPC   O1221101   6.366   4.665   7.388 -0.3699 -0.1913  0.2317
  184POPC   O1121102   6.603   4.580   7.393  0.1726  0.2161  0.4344
  184POPC    C121103   6.619   4.677   7.286 -0.3730 -0.4021  0.0327
  184POPC    HA21104   6.729   4.672   7.277 -0.4363 -0.6835 -0.7026
  184POPC    HB21105   6.593   4.783   7.308 -1.2565 -0.6218  0.0935
  184POPC    C221106   6.571   4.636   7.152 -0.7592 -0.9409 -0.5752
  184POPC    HS21107   6.460   4.622   7.157 -0.7282 -1.5215 -1.4141
  184POPC   O2121108   6.636   4.513   7.117  0.6727 -0.1309 -0.4329
  184POPC   C2121109   6.573   4.424   7.041  0.0328 -0.7639  0.0170
  184POPC   O2221110   6.459   4.440   6.999  0.2749 -0.2210  0.1229
  184POPC   C2221111   6.660   4.304   7.019  0.6468  0.2136  0.2680
  184POPC   H2R21112   6.604   4.226   6.963  0.5741  0.5518 -0.1367
  184POPC   H2S21113   6.697   4.260   7.114 -0.2639  0.1999  0.6204
  184POPC    C321114   6.586   4.744   7.049  0.1571 -0.7167  0.4709
  184POPC    HX21115   6.695   4.763   7.034  0.5812 -2.7485  0.6573
  184POPC    HY21116   6.536   4.832   7.093 -0.6145 -1.1410  0.4654
  184POPC   O3121117   6.537   4.705   6.918  0.4178  0.0566  0.3036
  184POPC   C3121118   6.417   4.753   6.875  0.1031  0.5346 -0.4910
  184POPC   O3221119   6.333   4.796   6.946 -0.9201  0.0011  0.5812
  184POPC   C3221120   6.403   4.748   6.724 -0.6336  1.0495 -0.6514
  184POPC   H2X21121   6.450   4.835   6.675  1.7989 -0.3884 -1.0020
  184POPC   H2Y21122   6.294   4.757   6.706 -1.3704 -1.8474  1.5287
  184POPC   C2321123   6.785   4.351   6.938  0.5392 -0.1001 -0.7864
  184POPC   H3R21124   6.853   4.265   6.922 -2.0398 -2.4910  0.2695
  184POPC   H3S21125   6.844   4.433   6.985 -1.9261  0.8963  0.7733
  184POPC   C2421126   6.743   4.414   6.802  0.3503 -0.8665  0.0843
  184POPC   H4R21127   6.714   4.516   6.834  2.2826 -0.9671  2.3815
  184POPC   H4S21128   6.661   4.351   6.762  0.1864 -1.0862  0.7571
  184POPC   C2521129   6.864   4.413   6.711  0.2186  0.0758 -0.2899
  184POPC   H5R21130   6.864   4.310   6.669 -4.3883 -0.2973  0.1478
  184POPC   H5S21131   6.952   4.435   6.774 -1.4095  2.2511  1.3876
  184POPC   C2621132   6.859   4.521   6.599 -0.0117 -0.7559 -0.1193
  184POPC   H6R21133   6.835   4.617   6.649 -2.3441 -0.0514 -2.3867
  184POPC   H6S21134   6.780   4.497   6.525  0.9342  2.0908 -2.2671
  184POPC   C2721135   6.993   4.530   6.515  0.4222  0.2784  0.2153
  184POPC   H7R21136   7.040   4.432   6.493 -0.3540 -0.4443  1.6371
  184POPC   H7S21137   7.065   4.571   6.589  0.8427 -0.7955  0.4204
  184POPC   C2821138   6.982   4.601   6.382 -0.5848  0.7213 -0.0136
  184POPC   H8R21139   7.086   4.625   6.351 -0.3151 -0.8482 -0.4333
  184POPC   H8S21140   6.925   4.694   6.403  0.4045  0.8620  2.3215
  184POPC   C2921141   6.921   4.519   6.271  0.2728  0.7176  0.1138
  184POPC   H9121142   6.826   4.469   6.295 -0.4601  1.5247 -0.9857
  184POPC  C21021143   6.947   4.518   6.142 -0.3045  0.6267  0.0413
  184POPC  H10121144   6.893   4.444   6.082 -2.1356  1.0343  1.1113
  184POPC  C21121145   7.059   4.592   6.071  0.7374 -0.0776 -0.3893
  184POPC  H11R21146   7.133   4.617   6.150  0.0967  2.9557 -0.6451
  184POPC  H11S21147   7.025   4.687   6.026 -0.4265 -1.0813 -1.7157
  184POPC  C21221148   7.102   4.509   5.953 -0.0587 -0.3386  0.3657
  184POPC  H12R21149   7.015   4.472   5.894 -0.2001 -0.8128  0.8708
  184POPC  H12S21150   7.162   4.422   5.988  0.1862 -0.4811 -0.3825
  184POPC  C21321151   7.188   4.589   5.850  0.1122  0.0242 -0.2197
  184POPC  H13R21152   7.273   4.640   5.902 -0.9735  1.8178 -0.1012
  184POPC  H13S21153   7.121   4.671   5.818 -2.3014 -2.7017 -2.7175
  184POPC  C21421154   7.237   4.513   5.722 -0.0122  0.3979  0.0398
  184POPC  H14R21155   7.302   4.431   5.759  1.5679  1.8153  0.5015
  184POPC  H14S21156   7.302   4.579   5.661 -0.7305  0.6311 -0.4901
  184POPC  C21521157   7.133   4.446   5.641 -0.2197  0.7119  0.0014
  184POPC  H15R21158   7.062   4.516   5.592 -0.7634 -0.2631 -0.6354
  184POPC  H15S21159   7.075   4.387   5.716 -0.5343  2.1854  0.9536
  184POPC  C21621160   7.198   4.350   5.538  0.6401 -0.7130 -0.1281
  184POPC  H16R21161   7.247   4.265   5.591  0.9387 -0.0970  0.5983
  184POPC  H16S21162   7.283   4.411   5.502  0.2963  1.8234  2.9826
  184POPC  C21721163   7.104   4.315   5.424 -0.0433 -0.0686  0.1644
  184POPC  H17R21164   7.051   4.405   5.386  0.0958  0.3191  0.8872
  184POPC  H17S21165   7.027   4.239   5.448  0.6333 -1.3605 -1.4956
  184POPC  C21821166   7.179   4.253   5.305  0.3885 -0.0627 -0.0173
  184POPC  H18R21167   7.218   4.154   5.338  0.9685  0.7748  1.9925
  184POPC  H18S21168   7.272   4.310   5.284  0.7447 -0.4482  0.4939
  184POPC  H18T21169   7.130   4.248   5.206 -0.5241  1.6639  0.3086
  184POPC   C3321170   6.437   4.619   6.656 -0.3438 -0.2991 -0.1576
  184POPC   H3X21171   6.361   4.538   6.666  0.2570 -1.0794 -1.7040
  184POPC   H3Y21172   6.523   4.577   6.712 -0.1807  1.2834  0.8554
  184POPC   C3421173   6.469   4.631   6.507 -0.6261 -0.4447 -0.7639
  184POPC   H4X21174   6.557   4.698   6.500  1.1547 -2.7423 -1.5185
  184POPC   H4Y21175   6.385   4.678   6.452 -1.1061  0.8617  0.9974
  184POPC   C3521176   6.491   4.494   6.452 -0.2186  0.0447  0.0934
  184POPC   H5X21177   6.396   4.439   6.468 -0.5073  0.0590 -1.3912
  184POPC   H5Y21178   6.570   4.442   6.510  2.0440 -0.2989 -3.0748
  184POPC   C3621179   6.547   4.495   6.306 -0.2503 -0.1941  0.0356
  184POPC   H6X21180   6.586   4.393   6.287 -0.9119 -0.5567  0.5664
  184POPC   H6Y21181   6.628   4.571   6.307  0.1969 -0.5648  3.3262
  184POPC   C3721182   6.444   4.507   6.195  0.5852 -0.0679  0.2105
  184POPC   H7X21183   6.362   4.434   6.205  0.2118  0.2508 -0.5024
  184POPC   H7Y21184   6.491   4.501   6.095 -0.1386  2.8218 -0.4063
  184POPC   C3821185   6.384   4.652   6.181  0.0924 -0.7904  0.3181
  184POPC   H8X21186   6.470   4.722   6.182 -1.3713  1.1782 -1.7974
  184POPC   H8Y21187   6.317   4.670   6.268  1.0591 -0.3935  0.9981
  184POPC   C3921188   6.300   4.678   6.052  0.4452  0.2861 -0.3089
  184POPC   H9X21189   6.255   4.779   6.050 -0.1705  0.0313  0.3659
  184POPC   H9Y21190   6.220   4.601   6.053  0.8352 -0.1216  1.0323
  184POPC  C31021191   6.378   4.668   5.921  0.1303  0.2473 -0.2292
  184POPC  H10X21192   6.418   4.565   5.911 -0.4939 -0.1599  1.1416
  184POPC  H10Y21193   6.451   4.752   5.918 -0.1579  0.5749  1.0520
  184POPC  C31121194   6.278   4.688   5.810 -0.3773 -0.7080  0.3827
  184POPC  H11X21195   6.218   4.778   5.835 -0.2801 -0.0500 -1.6487
  184POPC  H11Y21196   6.201   4.608   5.807 -2.8606  1.5770 -0.0004
  184POPC  C31221197   6.333   4.696   5.667 -0.4135 -0.2753 -0.6570
  184POPC  H12X21198   6.400   4.611   5.641  0.2506 -0.5185  1.6474
  184POPC  H12Y21199   6.392   4.789   5.679 -0.3604 -0.5401  1.4884
  184POPC  C31321200   6.226   4.724   5.559  0.1985  0.2201 -0.0009
  184POPC  H13X21201   6.152   4.793   5.605 -1.5038 -0.8678 -1.0203
  184POPC  H13Y21202   6.158   4.644   5.523 -0.3643  0.2812  0.8834
  184POPC  C31421203   6.285   4.790   5.441  0.2852  0.2101 -0.2041
  184POPC  H14X21204   6.355   4.871   5.474  1.2202 -0.9788  0.8190
  184POPC  H14Y21205   6.199   4.834   5.386  0.1161  1.6543  1.1324
  184POPC  C31521206   6.362   4.702   5.341 -0.0191  0.2057  0.4827
  184POPC  H15X21207   6.294   4.621   5.307 -0.5835  0.8114  0.1432
  184POPC  H15Y21208   6.438   4.654   5.406 -0.8329 -0.0463  1.2766
  184POPC  C31621209   6.424   4.770   5.220  0.8700  0.6721  0.0363
  184POPC  H16X21210   6.492   4.846   5.263  0.1039  0.3100  1.9710
  184POPC  H16Y21211   6.342   4.816   5.160  0.2773 -1.7203 -1.1268
  184POPC  H16Z21212   6.482   4.711   5.146 -0.4993 -0.8950  0.1466
  185POPC     N21213   5.634   3.009   2.372  0.8676  0.6581 -0.1458
  185POPC   C1221214   5.550   3.068   2.479 -0.1892  0.7905 -0.0769
  185POPC  H12A21215   5.567   3.172   2.500  1.6761  0.4450  0.2782
  185POPC  H12B21216   5.580   3.013   2.567  0.2869  2.2030  0.6700
  185POPC   C1321217   5.600   3.071   2.247  0.1988 -0.2618  0.4266
  185POPC  H13A21218   5.495   3.048   2.230  0.2479 -0.7110  0.7090
  185POPC  H13B21219   5.611   3.178   2.256  1.3799 -0.3465  0.0432
  185POPC  H13C21220   5.666   3.030   2.173  2.1942  2.2690  0.6843
  185POPC   C1421221   5.777   3.038   2.415 -0.5066 -0.4128  0.7248
  185POPC  H14A21222   5.784   3.144   2.429 -0.8478 -0.4518  1.2340
  185POPC  H14B21223   5.805   2.998   2.511  0.4048  1.1096  1.1253
  185POPC  H14C21224   5.847   3.003   2.340 -0.7429 -0.5311  0.5560
  185POPC   C1521225   5.627   2.860   2.355  0.4199  0.2985  0.1855
  185POPC  H15A21226   5.704   2.826   2.287  1.4017  2.5074  0.1034
  185POPC  H15B21227   5.525   2.837   2.329  0.2828  0.4211  0.5979
  185POPC  H15C21228   5.648   2.816   2.451  0.7755 -0.8927 -0.4187
  185POPC   C1121229   5.399   3.058   2.451 -0.2973 -0.0079 -0.0994
  185POPC  H11A21230   5.355   3.059   2.553  0.9601 -0.3896  0.4738
  185POPC  H11B21231   5.371   2.963   2.400  0.6191  1.2185 -3.1236
  185POPC     P21232   5.326   3.317   2.426 -0.2987  0.1251  0.5387
  185POPC   O1321233   5.268   3.407   2.327  0.1687  0.2429  0.2759
  185POPC   O1421234   5.454   3.358   2.489 -0.5545  0.4811 -0.0661
  185POPC   O1221235   5.351   3.170   2.368  0.6833 -0.1505 -0.2622
  185POPC   O1121236   5.219   3.282   2.534  0.2858  0.2716  0.6636
  185POPC    C121237   5.091   3.229   2.503  0.2358  0.4518  0.0983
  185POPC    HA21238   5.103   3.144   2.433 -1.8880  0.0327  0.1641
  185POPC    HB21239   5.029   3.309   2.457 -1.9078 -0.2144  1.6766
  185POPC    C221240   5.022   3.165   2.628  0.5113  0.0900  0.7615
  185POPC    HS21241   4.949   3.084   2.604  1.0121 -0.4538  1.0472
  185POPC   O2121242   4.959   3.264   2.709 -0.0864  0.1502  0.4604
  185POPC   C2121243   4.847   3.313   2.659  0.7042 -0.3300 -0.3621
  185POPC   O2221244   4.777   3.260   2.570 -0.4672  0.2486  0.3688
  185POPC   C2221245   4.816   3.439   2.736  0.3105 -0.4476 -0.3420
  185POPC   H2R21246   4.730   3.488   2.685 -0.4695  0.1214  1.4587
  185POPC   H2S21247   4.905   3.503   2.725 -1.4020  1.9658 -0.9122
  185POPC    C321248   5.113   3.099   2.730 -0.4395 -0.5066  0.1453
  185POPC    HX21249   5.200   3.164   2.755 -0.8485  1.8368 -3.8186
  185POPC    HY21250   5.171   3.024   2.672  1.0976  0.1909  0.7236
  185POPC   O3121251   5.042   3.037   2.841 -0.0881  0.2046  0.4165
  185POPC   C3121252   5.039   3.115   2.948  0.0835  0.0837 -0.7902
  185POPC   O3221253   5.100   3.221   2.967  0.0572 -1.2445 -0.7237
  185POPC   C3221254   4.951   3.061   3.061  0.1754  0.1262 -0.0091
  185POPC   H2X21255   5.000   2.966   3.091 -1.1861 -0.4620  0.4235
  185POPC   H2Y21256   4.850   3.036   3.022 -0.9152  0.3649  2.4961
  185POPC   C2321257   4.758   3.414   2.875  0.1793  0.1615 -0.1918
  185POPC   H3R21258   4.815   3.347   2.943  0.0258  1.6381  1.4263
  185POPC   H3S21259   4.659   3.368   2.855  0.9878 -3.5727  3.0152
  185POPC   C2421260   4.729   3.543   2.944  0.2485 -0.5301 -0.5349
  185POPC   H4R21261   4.670   3.519   3.034  0.5434 -0.3915 -0.3034
  185POPC   H4S21262   4.685   3.625   2.883 -0.2067  0.1853  0.7317
  185POPC   C2521263   4.867   3.602   2.992 -0.6680  0.6409 -0.8297
  185POPC   H5R21264   4.834   3.699   3.037 -0.7581  0.5293 -0.6530
  185POPC   H5S21265   4.937   3.614   2.907  0.4826 -0.7921 -0.1297
  185POPC   C2621266   4.926   3.522   3.109  0.5682 -0.2957 -0.1873
  185POPC   H6R21267   4.978   3.431   3.072  1.8623  0.6757 -0.8853
  185POPC   H6S21268   4.838   3.498   3.171 -0.2413  1.3806 -0.6193
  185POPC   C2721269   5.029   3.608   3.185  0.3589  0.7470 -0.2127
  185POPC   H7R21270   4.982   3.666   3.267  1.5060 -0.5429  1.4405
  185POPC   H7S21271   5.078   3.681   3.117 -0.7207  0.4975 -1.2919
  185POPC   C2821272   5.130   3.510   3.245 -0.1145  0.2583  0.2192
  185POPC   H8R21273   5.205   3.473   3.171 -2.3076 -0.8409 -1.5449
  185POPC   H8S21274   5.086   3.415   3.282  0.0039  0.2281  0.2854
  185POPC   C2921275   5.208   3.591   3.347 -0.7978  0.3227 -0.0687
  185POPC   H9121276   5.296   3.645   3.311  0.1653 -1.6522 -0.8371
  185POPC  C21021277   5.182   3.588   3.478 -0.5677  0.6537  0.4995
  185POPC  H10121278   5.236   3.655   3.546  2.0365 -1.6453  0.8634
  185POPC  C21121279   5.062   3.520   3.544  0.8121  0.2013  0.8909
  185POPC  H11R21280   5.077   3.417   3.582  1.5673 -0.1078 -0.2045
  185POPC  H11S21281   4.988   3.525   3.462  4.4276 -0.8753 -2.8027
  185POPC  C21221282   5.003   3.583   3.668  0.2351 -0.1402 -0.9083
  185POPC  H12R21283   4.895   3.564   3.682  0.7776 -1.5317  1.9874
  185POPC  H12S21284   5.013   3.693   3.655  0.3132 -0.2239 -1.6394
  185POPC  C21321285   5.058   3.526   3.799  0.4916 -1.0045  0.2874
  185POPC  H13R21286   5.112   3.429   3.794  0.7210 -1.0686  2.7710
  185POPC  H13S21287   4.973   3.504   3.867  2.0923  0.0182  2.7816
  185POPC  C21421288   5.138   3.634   3.870 -0.9389 -0.3899  0.0980
  185POPC  H14R21289   5.084   3.728   3.847  0.3561  0.4835  0.5056
  185POPC  H14S21290   5.241   3.643   3.828  0.0930 -0.6890  2.3855
  185POPC  C21521291   5.140   3.616   4.023  0.5008 -0.1927 -0.1117
  185POPC  H15R21292   5.034   3.617   4.056  0.6522  1.8765  0.4744
  185POPC  H15S21293   5.191   3.705   4.066 -0.4912  1.5503 -2.3387
  185POPC  C21621294   5.217   3.489   4.070  0.3693  0.2882 -0.1594
  185POPC  H16R21295   5.319   3.495   4.024 -1.0033  1.2870 -3.3761
  185POPC  H16S21296   5.168   3.397   4.033 -0.3455  0.7162 -0.2965
  185POPC  C21721297   5.236   3.484   4.222  0.1357  0.3442 -0.8817
  185POPC  H17R21298   5.139   3.502   4.274  0.2210 -0.4611 -0.4233
  185POPC  H17S21299   5.302   3.569   4.250  0.9798 -0.3848 -0.5959
  185POPC  C21821300   5.300   3.343   4.263 -0.0960  0.0346 -0.0766
  185POPC  H18R21301   5.335   3.345   4.369 -2.0687 -0.9275  0.6332
  185POPC  H18S21302   5.381   3.311   4.193  0.7202 -0.5142  1.0753
  185POPC  H18T21303   5.225   3.262   4.258  0.4187 -0.4350 -0.3991
  185POPC   C3321304   4.942   3.154   3.182  0.3447 -0.0140 -0.0554
  185POPC   H3X21305   4.868   3.233   3.160  0.3549 -0.8265 -3.6239
  185POPC   H3Y21306   5.036   3.211   3.202  0.8343 -0.5068 -0.8776
  185POPC   C3421307   4.884   3.086   3.305  0.9834 -0.1167 -0.4207
  185POPC   H4X21308   4.958   3.007   3.329 -1.5102 -2.2827  0.5756
  185POPC   H4Y21309   4.785   3.040   3.292  0.3881  1.2846 -1.1241
  185POPC   C3521310   4.881   3.172   3.432  0.1694 -0.2043  0.2177
  185POPC   H5X21311   4.807   3.254   3.428 -2.2272 -2.2017  0.7198
  185POPC   H5Y21312   4.977   3.226   3.440 -0.3316  0.5878  1.0453
  185POPC   C3621313   4.849   3.102   3.568  0.2699  0.4860 -0.0577
  185POPC   H6X21314   4.916   3.016   3.590 -0.1714  0.5495  1.7529
  185POPC   H6Y21315   4.745   3.063   3.577  0.9242 -1.3193  0.0768
  185POPC   C3721316   4.868   3.202   3.686  0.0252  0.1738  0.4476
  185POPC   H7X21317   4.811   3.296   3.669  0.3655  0.5313  1.2178
  185POPC   H7Y21318   4.978   3.215   3.676  0.1920  0.7006  2.4695
  185POPC   C3821319   4.832   3.146   3.823  0.7861  0.7964 -0.2722
  185POPC   H8X21320   4.873   3.043   3.828 -0.2169  0.2980 -1.5854
  185POPC   H8Y21321   4.722   3.133   3.820  1.1328 -3.4991 -0.1007
  185POPC   C3921322   4.892   3.231   3.931 -0.0307 -0.5718 -0.7076
  185POPC   H9X21323   4.843   3.331   3.936  0.8002 -0.2300  1.6679
  185POPC   H9Y21324   5.000   3.257   3.918 -0.5581  1.1906 -2.0275
  185POPC  C31021325   4.852   3.174   4.075 -0.0675  0.2278  0.3989
  185POPC  H10X21326   4.874   3.065   4.067  1.5194  0.4833  1.1126
  185POPC  H10Y21327   4.742   3.189   4.083  0.2467  3.7330 -0.3076
  185POPC  C31121328   4.923   3.242   4.186  0.2543  0.3916 -0.0537
  185POPC  H11X21329   4.872   3.338   4.208  0.9162  0.3198  2.0048
  185POPC  H11Y21330   5.022   3.274   4.150 -0.3219  0.5098 -1.6075
  185POPC  C31221331   4.921   3.150   4.304 -0.3554  0.2074 -0.0042
  185POPC  H12X21332   4.974   3.056   4.278 -1.8186 -0.6042 -0.1511
  185POPC  H12Y21333   4.816   3.130   4.334 -0.5910 -0.4827 -1.2305
  185POPC  C31321334   4.987   3.207   4.430  0.3516 -0.6915 -0.5848
  185POPC  H13X21335   4.927   3.294   4.464  1.3355 -0.9147  1.9345
  185POPC  H13Y21336   5.090   3.247   4.420  0.8413 -1.7448  0.0905
  185POPC  C31421337   4.984   3.109   4.545  0.1334  0.1979 -0.4215
  185POPC  H14X21338   5.036   3.013   4.523 -0.4267 -0.0740 -0.5712
  185POPC  H14Y21339   4.880   3.076   4.568 -0.0026 -0.1792 -1.5217
  185POPC  C31521340   5.033   3.172   4.678  0.0667  0.6105 -0.2333
  185POPC  H15X21341   4.968   3.247   4.729 -1.2976 -0.5934 -0.1179
  185POPC  H15Y21342   5.133   3.216   4.659  1.0389 -1.2790  0.3140
  185POPC  C31621343   5.064   3.063   4.780  0.0491 -0.6236  0.3389
  185POPC  H16X21344   5.151   3.006   4.741  0.1826 -1.3176  1.5932
  185POPC  H16Y21345   4.978   2.994   4.770 -0.4247  0.3257 -4.1052
  185POPC  H16Z21346   5.067   3.096   4.886 -0.9867 -0.6620  0.3960
  186POPC     N21347   1.443   6.501   2.747  0.3253 -0.1814  0.1697
  186POPC   C1221348   1.420   6.355   2.720  0.5121  0.4135  0.1288
  186POPC  H12A21349   1.402   6.341   2.614 -1.9492  0.1854  0.5196
  186POPC  H12B21350   1.329   6.313   2.760 -1.5633  1.6369 -2.9493
  186POPC   C1321351   1.327   6.591   2.720 -0.1478 -0.0114  0.1023
  186POPC  H13A21352   1.254   6.597   2.799 -0.3405 -0.9313 -0.0033
  186POPC  H13B21353   1.375   6.688   2.712 -0.0915  0.1077  1.5709
  186POPC  H13C21354   1.279   6.554   2.631  2.0542 -0.9486 -0.7828
  186POPC   C1421355   1.487   6.519   2.893  0.3809 -0.5374 -0.4426
  186POPC  H14A21356   1.406   6.494   2.959 -0.2437  0.9383 -0.6079
  186POPC  H14B21357   1.564   6.445   2.907 -0.6305 -1.1094  3.1341
  186POPC  H14C21358   1.524   6.619   2.913 -0.2391 -0.5554  0.9379
  186POPC   C1521359   1.548   6.557   2.657  0.3032  0.3828  0.6583
  186POPC  H15A21360   1.636   6.494   2.661  0.8977  1.2636  3.2056
  186POPC  H15B21361   1.580   6.653   2.694 -1.5037  0.9115  0.9492
  186POPC  H15C21362   1.521   6.552   2.552  0.5389 -0.5151  0.6253
  186POPC   C1121363   1.521   6.250   2.772  0.0491  0.2882  0.2656
  186POPC  H11A21364   1.623   6.293   2.762 -0.8087  2.6432  1.0792
  186POPC  H11B21365   1.537   6.159   2.710 -0.0504 -0.4516  1.3014
  186POPC     P21366   1.582   6.118   2.995 -0.0810  0.0549 -0.3031
  186POPC   O1321367   1.706   6.081   2.927 -0.1991  0.0467  0.5999
  186POPC   O1421368   1.499   6.000   3.033 -0.0305  0.3317 -0.3625
  186POPC   O1221369   1.490   6.211   2.904 -0.6737  0.1467  0.2315
  186POPC   O1121370   1.612   6.210   3.116 -0.3446  0.3224 -0.0797
  186POPC    C121371   1.515   6.238   3.216  0.3636 -0.1475  0.0088
  186POPC    HA21372   1.427   6.170   3.217  0.2492 -0.0207  1.6882
  186POPC    HB21373   1.482   6.343   3.217 -1.3495 -0.6599 -0.2857
  186POPC    C221374   1.573   6.202   3.362  0.0125  0.3509  0.0871
  186POPC    HS21375   1.617   6.100   3.363  1.4945  0.9610 -0.1854
  186POPC   O2121376   1.473   6.221   3.464 -0.2458  0.4850 -0.4891
  186POPC   C2121377   1.400   6.111   3.492 -0.5883 -0.1137 -0.0753
  186POPC   O2221378   1.418   6.000   3.450  0.2463 -0.1306  0.1878
  186POPC   C2221379   1.296   6.161   3.585  0.2827  0.3684  0.2297
  186POPC   H2R21380   1.199   6.162   3.531  2.2010 -1.1735 -3.6618
  186POPC   H2S21381   1.311   6.266   3.617 -1.2789  0.8088 -0.4311
  186POPC    C321382   1.697   6.293   3.386  1.0148 -1.1758  0.1388
  186POPC    HX21383   1.670   6.398   3.414  0.0386 -1.2856 -0.3797
  186POPC    HY21384   1.757   6.291   3.293 -0.3064 -3.2045 -0.7452
  186POPC   O3121385   1.772   6.247   3.497 -0.1127  0.1165 -0.0691
  186POPC   C3121386   1.740   6.281   3.623  0.2739 -0.3557  0.3393
  186POPC   O3221387   1.662   6.372   3.647  0.0044  0.0387 -0.1186
  186POPC   C3221388   1.819   6.197   3.725 -0.2560 -0.0105  0.4571
  186POPC   H2X21389   1.927   6.209   3.701 -0.4801  2.7119  0.4579
  186POPC   H2Y21390   1.781   6.093   3.726  0.1630 -0.1718 -0.2221
  186POPC   C2321391   1.287   6.056   3.702  0.2281 -0.0944  0.5604
  186POPC   H3R21392   1.272   5.956   3.655  1.1312  0.0359 -0.0247
  186POPC   H3S21393   1.201   6.068   3.771  1.8055  1.1647  2.4083
  186POPC   C2421394   1.405   6.067   3.805 -0.4526 -0.9792  1.2671
  186POPC   H4R21395   1.393   6.174   3.832 -0.6192 -0.7631  0.3955
  186POPC   H4S21396   1.499   6.038   3.754 -2.0286 -1.6531 -1.4994
  186POPC   C2521397   1.388   5.985   3.923  0.6203 -0.6600 -0.2340
  186POPC   H5R21398   1.373   5.883   3.880  0.6907 -0.1442 -1.5432
  186POPC   H5S21399   1.295   6.009   3.978  0.5566 -0.1430 -0.5640
  186POPC   C2621400   1.494   6.010   4.029  0.4107 -0.2918  0.1742
  186POPC   H6R21401   1.507   6.118   4.047 -1.8700 -0.3031  2.3785
  186POPC   H6S21402   1.586   5.983   3.972  0.1979  0.2137 -0.4177
  186POPC   C2721403   1.489   5.927   4.164  0.6798  0.3825 -0.2981
  186POPC   H7R21404   1.503   5.819   4.141 -0.4412  0.6259 -2.3425
  186POPC   H7S21405   1.392   5.940   4.216  0.3527  3.0178 -1.4001
  186POPC   C2821406   1.592   5.969   4.271  0.1694 -0.2918 -0.0163
  186POPC   H8R21407   1.568   6.070   4.310  2.4875  0.1823  0.3173
  186POPC   H8S21408   1.694   5.986   4.228  1.5661 -0.9361  2.8179
  186POPC   C2921409   1.589   5.868   4.390  0.1793 -1.0606  0.5870
  186POPC   H9121410   1.511   5.884   4.466  0.3671 -0.3048  0.6272
  186POPC  C21021411   1.682   5.764   4.403  0.4527  0.0341  0.0289
  186POPC  H10121412   1.675   5.700   4.492 -1.6986 -0.4769 -0.4445
  186POPC  C21121413   1.797   5.727   4.308 -0.0943 -0.1041  0.0046
  186POPC  H11R21414   1.778   5.777   4.211 -0.5463  1.3593  0.8188
  186POPC  H11S21415   1.795   5.617   4.291 -0.4414  0.0268 -0.8379
  186POPC  C21221416   1.932   5.776   4.362  0.1704 -0.1474 -0.1185
  186POPC  H12R21417   1.937   5.884   4.387 -1.2615 -0.2515  0.7238
  186POPC  H12S21418   2.004   5.763   4.279  0.0406 -0.4836 -0.1810
  186POPC  C21321419   1.985   5.704   4.487  0.1367 -0.0574 -0.7604
  186POPC  H13R21420   1.997   5.593   4.480  0.0205 -0.1527  0.2953
  186POPC  H13S21421   1.912   5.713   4.570  0.9593 -0.1813 -0.0068
  186POPC  C21421422   2.122   5.760   4.526  0.4378  0.0532 -0.5893
  186POPC  H14R21423   2.119   5.871   4.525  0.8665  0.0651 -0.7298
  186POPC  H14S21424   2.201   5.727   4.455  0.6821  0.9591 -0.7482
  186POPC  C21521425   2.167   5.718   4.673  1.0128 -0.5365  0.1602
  186POPC  H15R21426   2.166   5.607   4.667 -1.0175 -0.4973 -0.9469
  186POPC  H15S21427   2.092   5.740   4.752  2.1790  1.3717  0.8057
  186POPC  C21621428   2.300   5.773   4.704 -0.2019 -0.2372  0.2377
  186POPC  H16R21429   2.319   5.881   4.688 -2.6680  0.1436 -0.5049
  186POPC  H16S21430   2.363   5.725   4.626  0.1142 -1.2231  1.0741
  186POPC  C21721431   2.362   5.695   4.826 -0.5797 -0.1352  0.5672
  186POPC  H17R21432   2.361   5.589   4.794  1.9204  0.0209 -0.2468
  186POPC  H17S21433   2.306   5.715   4.919  0.0765 -0.4602  1.0451
  186POPC  C21821434   2.513   5.720   4.853  0.2109  0.5759  0.6597
  186POPC  H18R21435   2.556   5.653   4.931  2.8274  2.7864  1.3028
  186POPC  H18S21436   2.577   5.704   4.764 -0.5479 -1.8742  0.4892
  186POPC  H18T21437   2.520   5.826   4.888 -0.6520  1.7287 -2.3675
  186POPC   C3321438   1.805   6.249   3.871  0.3910  0.3975  0.0373
  186POPC   H3X21439   1.702   6.237   3.909 -0.1791 -1.0687 -1.8179
  186POPC   H3Y21440   1.810   6.359   3.865  1.8724  0.4764  1.8279
  186POPC   C3421441   1.900   6.187   3.969 -0.1838 -0.6423 -0.0185
  186POPC   H4X21442   1.999   6.223   3.933 -0.6379  0.2718 -0.3615
  186POPC   H4Y21443   1.905   6.076   3.970  2.7471 -0.5991  0.8343
  186POPC   C3521444   1.871   6.236   4.116  0.3307 -0.2795  0.3291
  186POPC   H5X21445   1.769   6.201   4.140  0.0749 -0.4751 -0.9840
  186POPC   H5Y21446   1.865   6.347   4.123  0.5796 -0.2638  0.3010
  186POPC   C3621447   1.950   6.186   4.236 -0.6159  0.2015 -0.7524
  186POPC   H6X21448   2.056   6.219   4.238  0.0206 -1.1528  4.6468
  186POPC   H6Y21449   1.953   6.075   4.230  0.2149  0.2522 -1.5016
  186POPC   C3721450   1.904   6.230   4.374  1.0022 -0.2571 -0.0632
  186POPC   H7X21451   1.804   6.195   4.408 -0.0078  1.7629 -0.7700
  186POPC   H7Y21452   1.895   6.341   4.370  0.0908 -0.3083  0.2465
  186POPC   C3821453   2.009   6.203   4.483 -0.1416 -0.6153  0.5287
  186POPC   H8X21454   2.110   6.242   4.460 -0.8358  3.1088  2.9192
  186POPC   H8Y21455   2.025   6.095   4.498  1.0737 -0.4403  0.5904
  186POPC   C3921456   1.982   6.259   4.620  0.0449 -0.8633 -0.0824
  186POPC   H9X21457   1.879   6.225   4.644 -0.9983  0.5100 -2.3182
  186POPC   H9Y21458   1.972   6.370   4.617 -2.1064 -0.9077  2.1306
  186POPC  C31021459   2.087   6.217   4.730  0.7198  0.3782 -0.2437
  186POPC  H10X21460   2.094   6.303   4.800 -1.4571  1.5100 -1.3048
  186POPC  H10Y21461   2.185   6.204   4.680  0.9788  0.2509  0.2939
  186POPC  C31121462   2.061   6.088   4.809  1.0060 -0.2306 -0.4442
  186POPC  H11X21463   2.069   6.004   4.738 -0.0373  0.5027 -1.4754
  186POPC  H11Y21464   1.953   6.105   4.830  0.9001  0.0125 -1.1691
  186POPC  C31221465   2.145   6.067   4.941  0.4541  0.4250 -0.6360
  186POPC  H12X21466   2.139   6.162   4.998  5.0668  0.5633  0.0334
  186POPC  H12Y21467   2.250   6.046   4.911  0.3125 -2.6671  0.6505
  186POPC  C31321468   2.115   5.945   5.027 -0.2541 -0.2440 -0.1718
  186POPC  H13X21469   2.210   5.913   5.075  0.1487  1.1139 -0.0449
  186POPC  H13Y21470   2.080   5.868   4.954 -1.7537  1.1849 -1.0120
  186POPC  C31421471   2.014   5.978   5.140 -0.0980  0.2188 -0.5486
  186POPC  H14X21472   1.931   6.037   5.096 -0.2305 -0.0768 -0.6956
  186POPC  H14Y21473   2.063   6.035   5.222 -2.8682  0.1288  1.3161
  186POPC  C31521474   1.948   5.861   5.207  0.8330  0.3543  0.3246
  186POPC  H15X21475   1.879   5.906   5.281 -1.7413  2.0815 -2.8772
  186POPC  H15Y21476   2.031   5.797   5.245  2.6186  1.3487 -1.6966
  186POPC  C31621477   1.848   5.783   5.118 -0.0856 -0.5632 -0.2970
  186POPC  H16X21478   1.814   5.694   5.176  1.8076 -0.5580  0.9260
  186POPC  H16Y21479   1.896   5.737   5.029  0.2164  0.0256 -0.4450
  186POPC  H16Z21480   1.754   5.836   5.093  1.2976  2.5854  0.6030
  187POPC     N21481   6.523   5.178   2.066  0.5012 -0.1204 -0.2508
  187POPC   C1221482   6.612   5.128   2.179  0.0281 -0.9332  0.8663
  187POPC  H12A21483   6.656   5.222   2.210  0.0897  0.2441 -2.3248
  187POPC  H12B21484   6.689   5.070   2.131 -0.5020 -0.0874 -1.1321
  187POPC   C1321485   6.610   5.247   1.963  0.1626 -0.4025 -0.4800
  187POPC  H13A21486   6.660   5.334   2.003  0.8621 -0.9064 -0.2237
  187POPC  H13B21487   6.691   5.180   1.937  0.2704 -1.0393  1.3341
  187POPC  H13C21488   6.558   5.275   1.873 -0.6910  2.0766  0.7228
  187POPC   C1421489   6.459   5.057   2.009  0.4210 -0.2545 -0.2727
  187POPC  H14A21490   6.417   5.079   1.912 -0.1325 -0.7582 -0.1537
  187POPC  H14B21491   6.530   4.976   2.004  0.1310 -0.5906  0.7337
  187POPC  H14C21492   6.384   5.020   2.078  2.4095 -1.6826  1.2359
  187POPC   C1521493   6.422   5.283   2.116 -0.5318  0.2841 -0.5336
  187POPC  H15A21494   6.339   5.247   2.174 -1.0923  0.9760 -0.8895
  187POPC  H15B21495   6.377   5.331   2.030  0.6636  1.1629 -0.7043
  187POPC  H15C21496   6.475   5.359   2.172  0.2046 -1.6299  1.4996
  187POPC   C1121497   6.563   5.046   2.302 -0.4251  0.3818 -0.0678
  187POPC  H11A21498   6.651   5.010   2.359 -1.3690 -0.0738  1.1604
  187POPC  H11B21499   6.507   4.955   2.271 -3.8767  2.0011  0.8647
  187POPC     P21500   6.546   5.221   2.490 -0.1681 -0.2274  0.5078
  187POPC   O1321501   6.457   5.330   2.543  0.5462  0.4537  0.3111
  187POPC   O1421502   6.678   5.261   2.427  0.1344 -0.2119  0.2969
  187POPC   O1221503   6.476   5.132   2.376 -0.7917  0.2024 -0.5970
  187POPC   O1121504   6.578   5.111   2.605 -0.0633  0.5486 -0.1697
  187POPC    C121505   6.481   5.011   2.650 -0.2348 -0.1327 -0.3991
  187POPC    HA21506   6.537   4.929   2.700 -0.7775 -0.4099 -0.2255
  187POPC    HB21507   6.432   4.962   2.563 -0.1294  1.6714 -1.5195
  187POPC    C221508   6.390   5.071   2.762 -0.1741 -0.1563 -0.0379
  187POPC    HS21509   6.338   5.160   2.721 -0.8859 -0.5293  0.0516
  187POPC   O2121510   6.469   5.106   2.876  0.1001 -0.1369 -0.0983
  187POPC   C2121511   6.420   5.199   2.959  0.4484 -0.3345 -0.1970
  187POPC   O2221512   6.315   5.263   2.951 -0.1403 -0.0188 -0.2055
  187POPC   C2221513   6.519   5.199   3.075 -0.4393  0.3486  0.1603
  187POPC   H2R21514   6.489   5.283   3.142 -3.4084  0.7840 -1.5243
  187POPC   H2S21515   6.620   5.218   3.035 -1.0381 -0.3084 -1.7759
  187POPC    C321516   6.279   4.969   2.808  0.6466 -1.1130 -0.6748
  187POPC    HX21517   6.340   4.883   2.842  1.3257  0.4875  2.5753
  187POPC    HY21518   6.209   4.929   2.731  0.3312  0.6680 -1.3554
  187POPC   O3121519   6.205   5.018   2.915 -0.1556 -0.1943 -0.6433
  187POPC   C3121520   6.083   5.071   2.896 -0.1061 -0.0920  0.1475
  187POPC   O3221521   6.041   5.116   2.791 -0.2469  0.0589 -0.0943
  187POPC   C3221522   6.019   5.080   3.039 -0.0796  0.0369  0.5172
  187POPC   H2X21523   6.044   5.171   3.097 -1.8356  0.9053 -0.0262
  187POPC   H2Y21524   6.061   4.994   3.096 -3.3958 -0.8196  1.8959
  187POPC   C2321525   6.513   5.064   3.154  0.0352 -0.2527  0.4726
  187POPC   H3R21526   6.598   5.065   3.226 -0.2565  1.0173  0.8138
  187POPC   H3S21527   6.536   4.978   3.087  0.3608  0.7718 -0.7736
  187POPC   C2421528   6.381   5.061   3.226  0.2910  0.0867 -0.2403
  187POPC   H4R21529   6.299   5.082   3.155 -0.6301 -2.8286 -0.1554
  187POPC   H4S21530   6.387   5.145   3.299 -1.6322  0.0288  0.0388
  187POPC   C2521531   6.343   4.919   3.283 -1.0109 -0.2256  0.2234
  187POPC   H5R21532   6.440   4.880   3.320 -0.4024  1.1370  0.1367
  187POPC   H5S21533   6.310   4.837   3.216  3.0809 -1.5595 -0.4137
  187POPC   C2621534   6.235   4.933   3.391  0.5696 -0.1255  0.0972
  187POPC   H6R21535   6.144   4.973   3.342  0.0521 -0.5060  0.7244
  187POPC   H6S21536   6.262   5.011   3.466  0.1221  0.3058 -0.1820
  187POPC   C2721537   6.197   4.796   3.455  0.2587 -0.2010  0.2030
  187POPC   H7R21538   6.186   4.718   3.376  2.3779  0.0647 -0.4443
  187POPC   H7S21539   6.096   4.816   3.496  0.3878  0.9680  0.0020
  187POPC   C2821540   6.285   4.750   3.566  0.4873  0.1527  0.1409
  187POPC   H8R21541   6.281   4.827   3.647 -0.8066  0.9294 -0.6292
  187POPC   H8S21542   6.388   4.755   3.525  0.7233  1.4649  0.8256
  187POPC   C2921543   6.245   4.605   3.606  0.6077 -0.6025  0.0080
  187POPC   H9121544   6.254   4.533   3.524  3.9558  0.8032 -1.0575
  187POPC  C21021545   6.227   4.566   3.736 -0.1555 -0.1625  0.6019
  187POPC  H10121546   6.207   4.460   3.758  2.0832 -0.6818  0.3754
  187POPC  C21121547   6.243   4.644   3.862 -0.4530  0.2370  0.1574
  187POPC  H11R21548   6.253   4.752   3.839  2.7287  0.0021 -0.0614
  187POPC  H11S21549   6.335   4.621   3.920 -0.3668  3.3422  1.4044
  187POPC  C21221550   6.125   4.621   3.968 -0.1348 -0.2927  0.9032
  187POPC  H12R21551   6.121   4.510   3.974 -2.0109 -0.5171 -2.0446
  187POPC  H12S21552   6.029   4.670   3.938 -0.2944  0.6242  2.7586
  187POPC  C21321553   6.160   4.681   4.108 -0.8018  0.5923 -0.4114
  187POPC  H13R21554   6.157   4.792   4.106  0.5500  0.6839  0.8305
  187POPC  H13S21555   6.263   4.642   4.126 -1.5348 -2.8823 -2.7117
  187POPC  C21421556   6.077   4.617   4.219  0.3321 -0.2307  0.9062
  187POPC  H14R21557   6.072   4.508   4.197  0.7101 -1.0081  4.1227
  187POPC  H14S21558   5.973   4.656   4.216 -0.0974 -0.7732  4.1263
  187POPC  C21521559   6.129   4.642   4.363 -0.6012  0.4389 -0.1020
  187POPC  H15R21560   6.153   4.747   4.391 -0.1129  1.0541 -2.5855
  187POPC  H15S21561   6.224   4.586   4.368 -0.8889 -0.2117 -1.5009
  187POPC  C21621562   6.034   4.577   4.461  0.1127 -0.5167 -0.1141
  187POPC  H16R21563   5.993   4.483   4.419  2.7372 -1.0021 -1.8052
  187POPC  H16S21564   5.949   4.649   4.456  1.6712  1.3618 -0.5698
  187POPC  C21721565   6.079   4.549   4.607 -0.3892 -0.6620 -0.3481
  187POPC  H17R21566   5.999   4.517   4.677  0.8296 -1.4037  0.7554
  187POPC  H17S21567   6.127   4.645   4.636 -1.3960 -0.2599 -0.0049
  187POPC  C21821568   6.198   4.447   4.619  0.0059  0.4022  0.8411
  187POPC  H18R21569   6.247   4.475   4.714 -1.8170  1.9016  1.3901
  187POPC  H18S21570   6.267   4.455   4.532 -1.3999  2.0962 -0.2042
  187POPC  H18T21571   6.152   4.346   4.625 -0.7296  0.6797  0.0961
  187POPC   C3321572   5.863   5.066   3.053 -1.2032  0.4803 -0.1650
  187POPC   H3X21573   5.838   4.969   3.005  4.1949 -1.3418 -0.0072
  187POPC   H3Y21574   5.826   5.157   3.001  0.9376  2.0745  0.9508
  187POPC   C3421575   5.803   5.079   3.195 -0.9864 -0.4225  0.1119
  187POPC   H4X21576   5.695   5.102   3.181 -0.8674 -0.0665 -0.2513
  187POPC   H4Y21577   5.844   5.171   3.241  0.8571 -1.4711  0.6217
  187POPC   C3521578   5.815   4.944   3.263 -0.1431  0.8547 -0.3440
  187POPC   H5X21579   5.921   4.913   3.273 -0.2432  0.4573 -0.4986
  187POPC   H5Y21580   5.757   4.869   3.205  1.6775 -2.6128  1.9444
  187POPC   C3621581   5.739   4.937   3.399  0.1666  0.3430 -0.4492
  187POPC   H6X21582   5.741   4.833   3.439 -0.1372  1.5515  3.0696
  187POPC   H6Y21583   5.635   4.973   3.385 -0.7058 -1.7107  0.3379
  187POPC   C3721584   5.809   5.032   3.504 -0.2009 -0.3082 -0.8624
  187POPC   H7X21585   5.818   5.141   3.484  3.0504 -0.2756  0.0874
  187POPC   H7Y21586   5.915   5.001   3.520 -0.6274 -1.5234 -0.3082
  187POPC   C3821587   5.738   5.027   3.633 -0.6128  0.3712 -0.0756
  187POPC   H8X21588   5.694   4.926   3.648 -0.5992  0.0499 -1.9934
  187POPC   H8Y21589   5.652   5.097   3.623 -2.0403 -1.1046  1.2540
  187POPC   C3921590   5.830   5.051   3.759  0.0749  0.0904 -0.0039
  187POPC   H9X21591   5.869   5.154   3.754  1.4900 -0.3245  1.5663
  187POPC   H9Y21592   5.922   4.988   3.753  0.0507 -0.1231  1.4500
  187POPC  C31021593   5.750   5.039   3.888  0.0440 -0.3115  0.5580
  187POPC  H10X21594   5.721   4.933   3.909 -0.3821 -0.2915  0.0818
  187POPC  H10Y21595   5.664   5.109   3.882 -0.0661 -0.5467 -0.9201
  187POPC  C31121596   5.856   5.076   4.000  0.0877 -0.2976 -0.0572
  187POPC  H11X21597   5.862   5.187   4.001  1.6121 -0.3569 -0.3619
  187POPC  H11Y21598   5.949   5.026   3.964  1.4021  2.3749 -0.6952
  187POPC  C31221599   5.822   5.022   4.140  0.6398  0.6037  0.3834
  187POPC  H12X21600   5.809   4.912   4.129 -0.6771  0.7059  0.7735
  187POPC  H12Y21601   5.730   5.069   4.180 -0.8498 -1.3443 -0.6052
  187POPC  C31321602   5.940   5.038   4.237 -0.7377 -0.8850  0.2913
  187POPC  H13X21603   5.960   5.147   4.248 -2.4093 -0.2638 -1.9914
  187POPC  H13Y21604   6.034   5.013   4.183 -1.0027 -0.0988 -0.5561
  187POPC  C31421605   5.922   4.962   4.368  0.2986 -0.5277 -0.2077
  187POPC  H14X21606   5.907   4.855   4.342 -2.7341 -0.2050 -0.2088
  187POPC  H14Y21607   5.822   4.995   4.405 -0.4994  1.1729 -3.4788
  187POPC  C31521608   6.030   5.001   4.462  0.4169  0.4481  0.3005
  187POPC  H15X21609   6.124   5.031   4.411  0.0152 -1.6716 -1.9193
  187POPC  H15Y21610   6.056   4.918   4.531  0.0088  1.2947  1.5035
  187POPC  C31621611   5.991   5.122   4.553 -0.0212 -0.5527 -0.1657
  187POPC  H16X21612   5.909   5.094   4.623 -0.5018  2.6010  0.6750
  187POPC  H16Y21613   5.959   5.218   4.508  0.5588  0.0560  0.6950
  187POPC  H16Z21614   6.075   5.141   4.623 -0.0722 -2.3240  0.4316
  188POPC     N21615   1.032   4.698   2.557  0.0933 -0.0927 -0.0510
  188POPC   C1221616   1.117   4.633   2.662 -0.3873 -0.1304 -1.2819
  188POPC  H12A21617   1.077   4.534   2.679 -1.1702  0.6483  2.1377
  188POPC  H12B21618   1.110   4.687   2.755  1.6515 -1.5843 -0.2182
  188POPC   C1321619   0.897   4.724   2.617  0.2531  0.7056  0.6507
  188POPC  H13A21620   0.876   4.642   2.683 -1.5406  0.8955  0.3602
  188POPC  H13B21621   0.899   4.807   2.687 -0.3995  1.9819 -0.7740
  188POPC  H13C21622   0.816   4.725   2.545 -0.5100 -0.5401  1.4716
  188POPC   C1421623   1.074   4.828   2.502 -0.9514 -0.6054 -0.1023
  188POPC  H14A21624   1.008   4.863   2.424 -0.4512 -0.8549 -0.6357
  188POPC  H14B21625   1.073   4.901   2.582 -2.0020 -0.9141  0.1931
  188POPC  H14C21626   1.174   4.820   2.463 -0.4723  3.1786 -0.0328
  188POPC   C1521627   1.021   4.600   2.445 -0.4828 -0.1200  0.6880
  188POPC  H15A21628   0.957   4.515   2.459  0.7273 -0.9509  1.3731
  188POPC  H15B21629   1.119   4.561   2.423 -1.2141 -1.7774  0.2542
  188POPC  H15C21630   0.984   4.653   2.359  0.8078  0.6240  0.5502
  188POPC   C1121631   1.271   4.616   2.633 -0.1439 -0.3404  0.1280
  188POPC  H11A21632   1.299   4.586   2.529 -1.9044 -0.3367 -0.3707
  188POPC  H11B21633   1.309   4.535   2.698  1.7461 -1.5308 -2.2914
  188POPC     P21634   1.489   4.755   2.639  0.2615 -0.3126  0.1242
  188POPC   O1321635   1.509   4.883   2.571  0.1495 -0.1853  0.4878
  188POPC   O1421636   1.542   4.630   2.577  0.4559 -0.6532  0.0308
  188POPC   O1221637   1.339   4.736   2.673  0.4594  0.0350 -0.1237
  188POPC   O1121638   1.542   4.777   2.788 -0.1206  0.3858 -0.6761
  188POPC    C121639   1.669   4.717   2.821 -0.4015  0.2823 -0.3383
  188POPC    HA21640   1.734   4.692   2.735  3.7710 -0.2503  2.6590
  188POPC    HB21641   1.651   4.622   2.877 -5.1630  0.4082 -1.1851
  188POPC    C221642   1.766   4.817   2.904  0.2862  0.5839 -0.1239
  188POPC    HS21643   1.852   4.749   2.923 -1.7058 -1.4952  2.0197
  188POPC   O2121644   1.704   4.853   3.027 -0.3014  0.9711  0.1944
  188POPC   C2121645   1.716   4.760   3.121  0.3331 -0.8043  0.3358
  188POPC   O2221646   1.778   4.654   3.113 -0.1329  0.2784 -0.1458
  188POPC   C2221647   1.658   4.810   3.253 -0.6592 -0.3088  0.2082
  188POPC   H2R21648   1.596   4.900   3.235 -0.2002 -0.0356 -0.0288
  188POPC   H2S21649   1.750   4.835   3.311  1.2624 -2.1625 -1.8704
  188POPC    C321650   1.809   4.943   2.824  0.3383 -0.0968  0.8154
  188POPC    HX21651   1.714   4.998   2.812  1.1241  0.9235 -1.1982
  188POPC    HY21652   1.834   4.929   2.716  0.3108 -0.4197  0.8504
  188POPC   O3121653   1.892   5.042   2.887 -0.4257  0.0547  0.0898
  188POPC   C3121654   2.025   5.015   2.876 -0.9645  0.4203  0.0143
  188POPC   O3221655   2.080   4.917   2.822 -0.1853  0.0183 -0.2644
  188POPC   C3221656   2.099   5.124   2.951 -0.1933  0.4036 -0.0129
  188POPC   H2X21657   2.036   5.195   3.008  1.3034  1.5407  0.3036
  188POPC   H2Y21658   2.141   5.183   2.867  0.4564  0.8943  0.6387
  188POPC   C2321659   1.566   4.715   3.322  0.3110  0.0481  0.1884
  188POPC   H3R21660   1.624   4.620   3.325 -1.1208 -0.8343  0.8250
  188POPC   H3S21661   1.474   4.689   3.265 -1.7384  1.8477  2.4637
  188POPC   C2421662   1.523   4.761   3.465  0.1141 -0.5711 -0.0023
  188POPC   H4R21663   1.447   4.694   3.510  1.2140 -0.3170  2.3768
  188POPC   H4S21664   1.471   4.856   3.441 -0.1243 -0.8597 -0.6542
  188POPC   C2521665   1.642   4.772   3.559  0.0004  0.2679  0.6738
  188POPC   H5R21666   1.623   4.845   3.640 -0.8525 -1.0527  1.7193
  188POPC   H5S21667   1.738   4.804   3.514 -0.1689  2.2077  1.5929
  188POPC   C2621668   1.673   4.641   3.630 -0.3906  1.2858 -0.1940
  188POPC   H6R21669   1.704   4.561   3.559 -0.7580  2.8508 -2.2096
  188POPC   H6S21670   1.577   4.597   3.666  0.0862  0.6149  0.2852
  188POPC   C2721671   1.766   4.647   3.754 -0.6925  0.0697  0.5457
  188POPC   H7R21672   1.858   4.699   3.723 -0.5001 -0.5418  0.0660
  188POPC   H7S21673   1.781   4.540   3.782  0.3689  0.1472  0.2947
  188POPC   C2821674   1.712   4.704   3.897 -0.4684 -0.1495  0.2928
  188POPC   H8R21675   1.658   4.797   3.871  1.4186  0.9706  0.2010
  188POPC   H8S21676   1.807   4.740   3.943 -0.0849 -1.0720  0.2514
  188POPC   C2921677   1.639   4.616   3.995  0.1318  0.0452  0.6048
  188POPC   H9121678   1.554   4.570   3.943 -0.1646  1.5592 -0.3133
  188POPC  C21021679   1.661   4.575   4.124 -0.0544 -0.2172  0.4264
  188POPC  H10121680   1.597   4.492   4.156 -2.4422  0.0381 -3.0549
  188POPC  C21121681   1.778   4.610   4.220  0.6421 -0.4153  0.7076
  188POPC  H11R21682   1.841   4.684   4.166 -0.5237 -1.4621 -2.3334
  188POPC  H11S21683   1.846   4.525   4.241  0.2366 -0.6636  1.0195
  188POPC  C21221684   1.727   4.654   4.357 -0.0498 -0.5225 -0.1497
  188POPC  H12R21685   1.659   4.580   4.404 -0.4819  0.0155  0.0840
  188POPC  H12S21686   1.667   4.747   4.345 -0.0924 -0.7873 -2.3024
  188POPC  C21321687   1.843   4.678   4.456  0.4201 -0.0053 -0.1209
  188POPC  H13R21688   1.901   4.766   4.423  0.0985 -0.0825 -0.9036
  188POPC  H13S21689   1.903   4.585   4.469 -2.4392 -1.7275  2.0149
  188POPC  C21421690   1.805   4.698   4.605  0.2020  0.3822 -0.0321
  188POPC  H14R21691   1.727   4.628   4.641  2.0188 -1.0919  1.2068
  188POPC  H14S21692   1.765   4.802   4.608  2.7104  1.4015  0.8542
  188POPC  C21521693   1.929   4.701   4.691  0.1636  0.7948  0.5876
  188POPC  H15R21694   2.004   4.772   4.651 -0.2951  0.2480 -1.4090
  188POPC  H15S21695   1.975   4.600   4.691 -1.3562  0.0706  1.2559
  188POPC  C21621696   1.890   4.744   4.830  1.6010 -0.2709 -0.0526
  188POPC  H16R21697   1.820   4.669   4.872 -1.8830  1.6708 -1.9322
  188POPC  H16S21698   1.834   4.839   4.826  1.5219 -0.1841  2.0398
  188POPC  C21721699   2.012   4.761   4.914 -0.6193  0.5510  0.6308
  188POPC  H17R21700   2.072   4.836   4.857  1.4063 -2.7942 -2.0209
  188POPC  H17S21701   2.054   4.658   4.920 -0.6135  0.5539  0.6378
  188POPC  C21821702   1.984   4.806   5.057  0.0902 -0.3377 -0.6080
  188POPC  H18R21703   1.907   4.749   5.114 -1.0846  2.4306  0.7484
  188POPC  H18S21704   1.958   4.913   5.052 -0.4606 -0.4510 -0.3159
  188POPC  H18T21705   2.076   4.799   5.119 -0.7010  0.5163  0.7100
  188POPC   C3321706   2.223   5.077   3.027  0.0464  0.6413  0.4667
  188POPC   H3X21707   2.297   5.157   3.051  1.3123 -0.1814 -0.5467
  188POPC   H3Y21708   2.278   5.009   2.959 -0.0068  2.4623 -1.5249
  188POPC   C3421709   2.197   4.982   3.150  0.6018 -0.2220 -0.0974
  188POPC   H4X21710   2.287   4.948   3.205  0.3292 -0.6737  0.0778
  188POPC   H4Y21711   2.147   4.890   3.110  0.8350 -1.1544  1.6839
  188POPC   C3521712   2.097   5.046   3.248  0.4702  0.1887 -0.4766
  188POPC   H5X21713   1.998   5.063   3.202 -0.1755  3.1612  1.7356
  188POPC   H5Y21714   2.117   5.148   3.287 -1.6642  0.3862  0.2497
  188POPC   C3621715   2.050   4.952   3.363 -0.1430 -0.2639 -0.2153
  188POPC   H6X21716   2.000   4.863   3.319 -2.7592  0.3696  1.2903
  188POPC   H6Y21717   1.967   5.002   3.418 -0.3248 -1.9545  1.1268
  188POPC   C3721718   2.162   4.902   3.459  0.4803  0.2537  0.9065
  188POPC   H7X21719   2.198   4.988   3.520  1.1971 -0.3077  1.2800
  188POPC   H7Y21720   2.239   4.864   3.388 -1.7848  0.0905 -1.6468
  188POPC   C3821721   2.116   4.783   3.544  0.2490 -0.0023  0.0381
  188POPC   H8X21722   2.091   4.694   3.483 -0.7563 -0.5876  1.2671
  188POPC   H8Y21723   2.021   4.821   3.589 -0.2081 -0.9855 -0.0766
  188POPC   C3921724   2.210   4.764   3.655 -0.2158 -0.4785 -0.1014
  188POPC   H9X21725   2.197   4.848   3.726  1.5921 -0.7550  0.6098
  188POPC   H9Y21726   2.318   4.775   3.633 -0.7882 -0.1094 -3.3332
  188POPC  C31021727   2.189   4.631   3.735  0.3745 -0.5213  0.2928
  188POPC  H10X21728   2.242   4.550   3.681  0.0254  0.0696 -0.9631
  188POPC  H10Y21729   2.082   4.607   3.755 -0.1964  0.6443 -1.2000
  188POPC  C31121730   2.260   4.629   3.878 -0.1693 -0.3186  0.1221
  188POPC  H11X21731   2.360   4.677   3.869 -1.7101  2.8644 -1.9797
  188POPC  H11Y21732   2.276   4.522   3.903  0.6344 -0.0161  0.9569
  188POPC  C31221733   2.188   4.695   3.993  0.2674 -0.6367  0.0177
  188POPC  H12X21734   2.094   4.637   4.007  0.7514 -1.3089  0.5638
  188POPC  H12Y21735   2.166   4.800   3.967  0.3057 -0.2696  1.3984
  188POPC  C31321736   2.270   4.696   4.120 -0.7750  0.5968  0.3946
  188POPC  H13X21737   2.367   4.743   4.093 -1.6234  1.6669 -0.9541
  188POPC  H13Y21738   2.294   4.590   4.141  0.7709  0.9303  0.4388
  188POPC  C31421739   2.197   4.770   4.241 -0.5036  0.5007  0.1753
  188POPC  H14X21740   2.104   4.717   4.269  0.5805 -2.0160 -0.6953
  188POPC  H14Y21741   2.166   4.870   4.203  0.7550  0.5496 -0.8028
  188POPC  C31521742   2.299   4.775   4.355 -0.9070  0.4964  0.9665
  188POPC  H15X21743   2.398   4.816   4.326  0.2478 -0.8317  2.8092
  188POPC  H15Y21744   2.325   4.672   4.386  0.2519  0.3823 -0.2557
  188POPC  C31621745   2.255   4.859   4.471 -0.1038 -0.7744  0.5298
  188POPC  H16X21746   2.181   4.803   4.531 -1.4649 -1.0251 -1.3153
  188POPC  H16Y21747   2.198   4.952   4.451  0.4897  0.0969  2.5806
  188POPC  H16Z21748   2.350   4.896   4.516  1.6174 -1.7701 -2.0139
  189SAPI   C1221749   4.815   6.604   7.426 -0.5292  0.4389  0.7957
  189SAPI    H221750   4.776   6.698   7.469 -0.8594  1.4122 -1.4666
  189SAPI    O221751   4.890   6.527   7.526 -0.2560 -0.4547  0.2402
  189SAPI   HO221752   4.984   6.543   7.516 -0.2887 -1.0484 -1.1610
  189SAPI   C1321753   4.701   6.512   7.371  0.4021 -0.6084 -0.0668
  189SAPI    H321754   4.653   6.566   7.287 -0.0402  2.5861  2.0296
  189SAPI    O321755   4.599   6.498   7.474  0.0841 -0.1338  0.3825
  189SAPI   HO321756   4.632   6.426   7.529 -1.4974 -0.9573  0.3189
  189SAPI   C1421757   4.750   6.382   7.320 -0.0446  0.6248  1.1300
  189SAPI    H421758   4.786   6.321   7.405 -2.9061 -1.0321  1.2775
  189SAPI    O421759   4.642   6.307   7.265  0.2761 -0.2250 -0.2486
  189SAPI   HO421760   4.624   6.228   7.316  1.9259 -1.0970 -0.9342
  189SAPI   C1521761   4.868   6.391   7.217 -0.3101 -0.4037 -0.8745
  189SAPI    H521762   4.812   6.402   7.122 -2.5339  0.3279  0.4443
  189SAPI    O521763   4.938   6.272   7.207 -0.3562  0.5806 -0.3559
  189SAPI   HO521764   4.926   6.231   7.121 -0.8286 -1.5765  0.6735
  189SAPI   C1621765   4.957   6.520   7.233  0.1119 -0.0218  0.5505
  189SAPI    H621766   5.039   6.495   7.303 -0.0421  2.0787  1.5467
  189SAPI    O621767   5.015   6.552   7.103 -0.0864 -0.7350 -0.5876
  189SAPI   HO621768   5.058   6.470   7.076 -0.6049 -2.1129  2.4157
  189SAPI   C1121769   4.904   6.649   7.307  0.1529  0.4014 -0.0666
  189SAPI    H121770   4.840   6.696   7.229 -3.1627 -2.2283  0.8281
  189SAPI     P21771   4.979   6.887   7.401 -0.3484 -0.2605  0.3418
  189SAPI   O1321772   5.044   6.908   7.534  0.5163  0.4694  0.2730
  189SAPI   O1421773   4.839   6.929   7.391 -0.3635 -0.0674 -0.1908
  189SAPI   O1221774   5.003   6.734   7.356 -0.1976 -0.1147 -0.1034
  189SAPI   O1121775   5.065   6.972   7.292 -0.5296  0.6230  0.2838
  189SAPI    C121776   5.187   6.928   7.241  0.1897  0.0551  0.5433
  189SAPI    HA21777   5.268   6.960   7.310  0.9620 -0.0310 -0.3067
  189SAPI    HB21778   5.193   6.818   7.227  2.0854 -0.0563  1.8579
  189SAPI    C221779   5.216   6.991   7.100  0.3745  0.5255  0.5271
  189SAPI    HS21780   5.307   6.942   7.059 -0.2186  0.0502 -0.2437
  189SAPI   O2121781   5.249   7.130   7.133 -0.3813  0.1780  0.2620
  189SAPI   C2121782   5.318   7.197   7.047 -0.5645 -0.3535 -0.1447
  189SAPI   O2221783   5.358   7.152   6.942  0.2600 -0.0506  0.4512
  189SAPI   C2221784   5.379   7.319   7.123 -0.4711 -0.3359  0.1546
  189SAPI   H2R21785   5.412   7.277   7.221 -0.8355  2.3392  1.5219
  189SAPI   H2S21786   5.464   7.353   7.059  0.4267  0.2520  1.6022
  189SAPI    C321787   5.095   6.974   7.010  0.3099 -0.6160 -0.2585
  189SAPI    HX21788   4.998   7.010   7.050  0.2547  0.0321 -0.9568
  189SAPI    HY21789   5.067   6.866   7.000 -2.6827 -0.1563  1.8339
  189SAPI   O3121790   5.121   7.027   6.879  0.0720  0.2441 -0.1908
  189SAPI   C3121791   5.065   7.139   6.845 -0.6112  0.7220 -0.9685
  189SAPI   O3221792   4.995   7.209   6.918 -0.5019 -0.4768 -0.4231
  189SAPI   C3221793   5.072   7.159   6.696  0.3590  0.5434  0.3037
  189SAPI   H2X21794   5.070   7.061   6.646  0.0553  0.0166  1.3274
  189SAPI   H2Y21795   5.178   7.190   6.682  1.4001 -1.5245  2.7369
  189SAPI   C2321796   5.279   7.434   7.156 -0.0409 -1.3203  0.2875
  189SAPI   H3R21797   5.304   7.478   7.255  2.3344  0.6502 -1.0758
  189SAPI   H3S21798   5.180   7.388   7.176  0.0682 -1.4118  0.6351
  189SAPI   C2421799   5.274   7.549   7.052  0.3340  0.7264  0.8769
  189SAPI   H4R21800   5.369   7.605   7.040  0.2275  1.4154  2.9322
  189SAPI   H4S21801   5.215   7.621   7.112  1.3473  1.4408  1.0365
  189SAPI   C2521802   5.206   7.500   6.924  0.1023  0.1730 -0.2184
  189SAPI   H5R21803   5.096   7.504   6.918  0.0599 -0.6525 -0.1473
  189SAPI   C2621804   5.262   7.470   6.806  1.4967 -0.3859 -0.0234
  189SAPI   H6R21805   5.195   7.425   6.732  1.4474 -3.2044  1.5857
  189SAPI   C2721806   5.406   7.465   6.769 -0.3008  0.3767 -0.3380
  189SAPI   H7R21807   5.465   7.450   6.862  0.2999 -0.5700 -0.8516
  189SAPI   H7S21808   5.434   7.561   6.721 -0.2614  1.1675  1.2044
  189SAPI   C2821809   5.434   7.354   6.677 -0.2318 -0.4414  0.3328
  189SAPI   H8R21810   5.476   7.268   6.732  0.7534  0.0960  0.4380
  189SAPI   C2921811   5.431   7.351   6.539 -0.2578  0.7385  0.2185
  189SAPI   H9R21812   5.459   7.259   6.487 -0.3257  0.7543  0.1551
  189SAPI  C21021813   5.391   7.465   6.446 -0.0608  0.3176 -0.1662
  189SAPI  H10R21814   5.488   7.508   6.413 -0.1902  0.9645  0.2807
  189SAPI  H10S21815   5.349   7.550   6.505  1.3487  1.1132 -0.2583
  189SAPI  C21121816   5.299   7.412   6.344  0.7237  0.3155  0.6909
  189SAPI  H11R21817   5.200   7.381   6.379 -1.3078  3.7336 -1.4542
  189SAPI  C21221818   5.315   7.380   6.213 -0.0152 -1.1460  0.7265
  189SAPI  H12R21819   5.231   7.331   6.162 -0.0007 -0.5520  0.1133
  189SAPI  C21321820   5.440   7.399   6.129  0.3129  1.1013  0.1423
  189SAPI  H13R21821   5.476   7.299   6.097 -5.8984 -0.7213 -2.8255
  189SAPI  H13S21822   5.523   7.447   6.185  1.1660 -1.1776  0.9199
  189SAPI  C21421823   5.405   7.487   6.009  0.9739  0.2859 -0.0143
  189SAPI  H14R21824   5.362   7.585   6.035  2.5038  0.7057  1.1048
  189SAPI  C21521825   5.394   7.443   5.884 -0.0819 -0.2054 -0.4797
  189SAPI  H15R21826   5.354   7.505   5.802  1.9208  3.4035  1.0472
  189SAPI  C21621827   5.447   7.304   5.839  0.0843  0.3890 -0.5879
  189SAPI  H16R21828   5.372   7.224   5.855 -0.5558  0.9698 -0.6348
  189SAPI  H16S21829   5.532   7.268   5.901 -0.7153 -2.7513 -1.1201
  189SAPI  C21721830   5.491   7.299   5.695 -0.3119 -0.3636 -1.0388
  189SAPI  H17R21831   5.590   7.347   5.681  0.6184 -0.7322  3.0064
  189SAPI  H17S21832   5.411   7.361   5.648 -2.8237  0.3573  3.4877
  189SAPI  C21821833   5.482   7.157   5.644  0.1917  0.6192  0.2250
  189SAPI  H18R21834   5.377   7.121   5.639  0.5674 -0.4713 -0.0184
  189SAPI  H18S21835   5.532   7.082   5.709 -1.4763  0.1515  1.0524
  189SAPI  C21921836   5.532   7.143   5.507 -0.3558  0.6192 -0.5611
  189SAPI  H19R21837   5.638   7.172   5.522 -0.8127  1.4387  1.4234
  189SAPI  H19S21838   5.486   7.224   5.446 -0.5919  0.7941 -0.1555
  189SAPI  C22021839   5.536   6.997   5.449 -0.1313 -0.6690  0.5026
  189SAPI  H20R21840   5.441   6.940   5.437  0.0884 -0.8881 -0.2543
  189SAPI  H20S21841   5.594   6.932   5.518 -0.4377 -0.4185  1.0072
  189SAPI  H20T21842   5.583   6.988   5.349  0.6510 -1.7997  0.9568
  189SAPI   C3321843   4.964   7.250   6.638 -0.0282  0.3550 -0.1373
  189SAPI   H3X21844   4.977   7.354   6.676  1.4826 -0.0381  0.5234
  189SAPI   H3Y21845   4.866   7.220   6.681  0.0584 -0.0057 -0.1877
  189SAPI   C3421846   4.957   7.235   6.486  0.0363 -0.0375  0.3265
  189SAPI   H4X21847   4.943   7.129   6.456 -1.0038  0.3769 -0.7491
  189SAPI   H4Y21848   5.051   7.264   6.435 -0.5726 -0.4781 -1.1008
  189SAPI   C3521849   4.844   7.318   6.432 -0.2812  0.7363 -0.0378
  189SAPI   H5X21850   4.865   7.427   6.443  0.5373  0.4737  1.2392
  189SAPI   H5Y21851   4.755   7.287   6.490  0.0805 -0.6914 -0.2118
  189SAPI   C3621852   4.810   7.281   6.291  0.1442  1.0374  0.5907
  189SAPI   H6X21853   4.712   7.321   6.258 -1.7880 -2.1133  1.9833
  189SAPI   H6Y21854   4.798   7.170   6.288  0.5354  1.0089 -1.1759
  189SAPI   C3721855   4.915   7.323   6.185 -0.7856  0.4213  0.8593
  189SAPI   H7X21856   5.012   7.270   6.200 -1.3871 -0.5168  1.5209
  189SAPI   H7Y21857   4.932   7.433   6.179 -1.5920  0.4675 -1.9429
  189SAPI   C3821858   4.870   7.288   6.040 -0.0591  0.4827  0.1427
  189SAPI   H8X21859   4.782   7.353   6.023  1.5596  3.0892  1.1274
  189SAPI   H8Y21860   4.835   7.183   6.035  0.4466  0.3008  0.4466
  189SAPI   C3921861   4.992   7.320   5.947  0.8366  0.4839 -0.5926
  189SAPI   H9X21862   5.065   7.241   5.975 -0.6315 -1.0639 -0.9105
  189SAPI   H9Y21863   5.037   7.415   5.981  2.6495 -0.3166 -0.6504
  189SAPI  C31021864   4.959   7.311   5.799  0.2983 -0.2071 -0.1208
  189SAPI  H10X21865   4.884   7.387   5.767  0.0982 -0.2912  0.1479
  189SAPI  H10Y21866   4.903   7.217   5.779  0.2826 -0.2908  0.3159
  189SAPI  C31121867   5.084   7.309   5.715  0.0293  0.3841  0.9195
  189SAPI  H11X21868   5.148   7.224   5.748 -1.7209 -1.0153  0.9053
  189SAPI  H11Y21869   5.148   7.399   5.728  0.9813 -0.3972  1.8395
  189SAPI  C31221870   5.036   7.286   5.573  0.7132  0.1420 -0.1506
  189SAPI  H12X21871   4.980   7.374   5.535  0.8028  0.7320  1.0257
  189SAPI  H12Y21872   4.971   7.196   5.567  1.5128 -0.6370  1.9022
  189SAPI  C31321873   5.154   7.273   5.467  0.1759  1.1806 -0.3306
  189SAPI  H13X21874   5.192   7.169   5.472  0.5489  1.2831 -0.9407
  189SAPI  H13Y21875   5.227   7.352   5.495  0.6926 -0.3437  3.1604
  189SAPI  C31421876   5.106   7.304   5.321  0.4030  0.0880 -0.1762
  189SAPI  H14X21877   5.030   7.383   5.335  2.4097  2.0615  0.0743
  189SAPI  H14Y21878   5.060   7.216   5.270 -0.8372  1.0498 -0.7785
  189SAPI  C31521879   5.212   7.367   5.221 -0.1611  0.2076 -0.0753
  189SAPI  H15X21880   5.280   7.282   5.199  0.1319 -0.0014  1.5308
  189SAPI  H15Y21881   5.268   7.449   5.270  1.3002 -0.3976 -0.6803
  189SAPI  C31621882   5.156   7.416   5.083  0.4927  0.1342  0.4172
  189SAPI  H16X21883   5.121   7.341   5.009  1.9112  2.3294 -2.7115
  189SAPI  H16Y21884   5.241   7.460   5.027  0.6325  0.6713  1.0343
  189SAPI  C31721885   5.036   7.510   5.098  0.3507 -0.4664 -0.3773
  189SAPI  H17X21886   5.058   7.582   5.180  0.1954  1.6605 -2.1142
  189SAPI  H17Y21887   4.948   7.446   5.123  0.1157 -0.6575 -1.6021
  189SAPI  C31821888   5.013   7.583   4.968  0.9372  0.0993  0.0264
  189SAPI  H18X21889   5.036   7.518   4.880  0.5327  1.8051 -1.4073
  189SAPI  H18Y21890   5.090   7.662   4.957  0.8993  0.0583 -0.6159
  189SAPI  H18Z21891   4.907   7.615   4.975  1.0277 -0.0319  2.5999
  190SAPI   C1221892   5.914   5.875   7.795 -0.0308 -0.1633  0.1714
  190SAPI    H221893   5.818   5.821   7.780  0.2069 -0.4584 -0.2982
  190SAPI    O221894   5.892   6.012   7.770  0.0662  0.3211  0.2436
  190SAPI   HO221895   5.930   6.043   7.687  1.0495  0.7300  0.8225
  190SAPI   C1321896   5.959   5.852   7.939 -0.0400  0.6020  0.2402
  190SAPI    H321897   5.974   5.742   7.942  1.8920  0.7860  4.2691
  190SAPI    O321898   5.856   5.889   8.032 -0.4243 -0.0180  0.3172
  190SAPI   HO321899   5.835   5.982   8.024 -1.5825 -0.2045  0.9429
  190SAPI   C1421900   6.090   5.930   7.965 -0.0412  0.1722 -0.0027
  190SAPI    H421901   6.044   6.031   7.961 -1.4937 -0.5151 -1.7414
  190SAPI    O421902   6.144   5.907   8.099 -0.2645  0.1431  0.1024
  190SAPI   HO421903   6.071   5.870   8.149 -1.3140  1.5684 -0.3408
  190SAPI   C1521904   6.198   5.916   7.866  0.5056 -0.8180 -0.5478
  190SAPI    H521905   6.250   5.821   7.892  1.0573 -0.0715  1.2152
  190SAPI    O521906   6.298   6.015   7.876 -0.2926  0.0629  0.2702
  190SAPI   HO521907   6.354   5.988   7.949  2.4435  1.0893 -1.3110
  190SAPI   C1621908   6.155   5.897   7.715 -0.0503 -0.0167 -0.3808
  190SAPI    H621909   6.140   6.000   7.676 -1.0756 -0.3344 -0.8571
  190SAPI    O621910   6.253   5.830   7.637  0.5818  0.0950  0.0287
  190SAPI   HO621911   6.226   5.844   7.546 -0.5946 -2.2557 -0.0776
  190SAPI   C1121912   6.023   5.829   7.696 -0.1596 -0.2709  0.0019
  190SAPI    H121913   6.031   5.721   7.719  2.9857  0.3646  2.6423
  190SAPI     P21914   6.009   5.734   7.439  0.1884 -0.5058 -0.0678
  190SAPI   O1321915   5.903   5.721   7.336  0.3184  0.0483  0.2176
  190SAPI   O1421916   6.061   5.613   7.504  0.3231  0.3024 -0.0253
  190SAPI   O1221917   5.968   5.846   7.557  0.2075 -0.0694 -0.2948
  190SAPI   O1121918   6.127   5.817   7.378 -0.7042 -0.5722  0.4464
  190SAPI    C121919   6.119   5.958   7.349  0.9713 -0.3710  0.5020
  190SAPI    HA21920   6.017   6.002   7.346  0.8088 -0.7487  0.4869
  190SAPI    HB21921   6.178   6.019   7.421  1.5176 -0.3992  0.0919
  190SAPI    C221922   6.177   5.983   7.205  0.4393 -0.1996 -0.1289
  190SAPI    HS21923   6.185   6.092   7.181 -0.0226 -0.1216  0.0704
  190SAPI   O2121924   6.104   5.902   7.107 -0.3133  0.4962  0.3898
  190SAPI   C2121925   5.997   5.967   7.061 -0.1887  0.4066 -0.0563
  190SAPI   O2221926   5.962   6.076   7.098  0.1969 -0.2262  0.0037
  190SAPI   C2221927   5.923   5.877   6.962 -0.0124 -0.3835 -0.1156
  190SAPI   H2R21928   5.926   5.773   7.003  1.5826  0.0480  0.9380
  190SAPI   H2S21929   5.818   5.911   6.972 -0.3336 -0.8942 -1.4902
  190SAPI    C321930   6.324   5.941   7.204 -0.8466 -0.0398 -0.9157
  190SAPI    HX21931   6.339   5.838   7.241  1.5403  1.2796  2.2840
  190SAPI    HY21932   6.372   6.013   7.274 -0.7494  0.7489 -1.7657
  190SAPI   O3121933   6.372   5.973   7.070 -0.1736 -0.0452  0.2128
  190SAPI   C3121934   6.497   5.953   7.052 -0.0467  0.7419  0.4630
  190SAPI   O3221935   6.581   5.915   7.131  0.3497 -0.5069 -0.1246
  190SAPI   C3221936   6.518   5.965   6.900 -0.8597  0.6105  0.4977
  190SAPI   H2X21937   6.534   6.070   6.867 -2.0740  0.2871 -1.2437
  190SAPI   H2Y21938   6.431   5.915   6.852 -0.2693  1.3945 -1.4704
  190SAPI   C2321939   5.971   5.895   6.815 -0.2122  0.3903 -0.3271
  190SAPI   H3R21940   6.075   5.860   6.798 -0.2675  0.1038 -0.0722
  190SAPI   H3S21941   5.961   6.004   6.795  1.5744  0.8376  0.9209
  190SAPI   C2421942   5.891   5.805   6.726  0.0053  0.3870 -1.0120
  190SAPI   H4R21943   5.791   5.822   6.770  0.1530 -0.0274 -0.4973
  190SAPI   H4S21944   5.919   5.699   6.746  0.3282  0.5870 -0.3727
  190SAPI   C2521945   5.899   5.850   6.583 -0.6552 -0.3292 -0.0194
  190SAPI   H5R21946   5.832   5.930   6.548  0.4102 -0.8602 -3.6783
  190SAPI   C2621947   5.980   5.793   6.485 -0.0042 -0.0780  0.2524
  190SAPI   H6R21948   5.971   5.821   6.379 -1.2570  2.5260  0.9520
  190SAPI   C2721949   6.071   5.677   6.498  0.3867 -0.7040  0.3554
  190SAPI   H7R21950   6.005   5.588   6.500  2.0335 -1.9601  0.5551
  190SAPI   H7S21951   6.125   5.671   6.595  1.7434  0.9444 -0.2280
  190SAPI   C2821952   6.163   5.656   6.378  0.0793 -0.4812  0.5618
  190SAPI   H8R21953   6.272   5.661   6.394  0.2665 -1.7744 -0.1724
  190SAPI   C2921954   6.122   5.615   6.255 -0.3043  0.1813 -0.0528
  190SAPI   H9R21955   6.200   5.609   6.178 -0.2610  1.5484 -0.1437
  190SAPI  C21021956   5.984   5.591   6.197  0.0608  0.1197 -0.3574
  190SAPI  H10R21957   5.910   5.581   6.280  1.4742  1.2570  1.1109
  190SAPI  H10S21958   5.983   5.509   6.123  0.3455  1.1441 -1.5349
  190SAPI  C21121959   5.944   5.712   6.109  0.1876  0.2244 -0.1481
  190SAPI  H11R21960   5.856   5.764   6.150 -1.1147  0.5533 -3.1368
  190SAPI  C21221961   5.988   5.754   5.983 -0.5027  0.0658 -0.1052
  190SAPI  H12R21962   5.935   5.829   5.922 -0.6937  0.8689  1.0296
  190SAPI  C21321963   6.103   5.691   5.904  0.5354  0.0903 -0.8883
  190SAPI  H13R21964   6.151   5.606   5.957  0.1386  1.0873  1.1770
  190SAPI  H13S21965   6.184   5.765   5.892  0.9604 -0.1848  0.1319
  190SAPI  C21421966   6.056   5.655   5.766 -0.2424  0.3602  0.2961
  190SAPI  H14R21967   5.959   5.605   5.758 -1.4058  2.5739 -0.1894
  190SAPI  C21521968   6.118   5.689   5.648  0.0200  0.5991 -0.3614
  190SAPI  H15R21969   6.067   5.667   5.553 -1.6308  1.6420  0.2230
  190SAPI  C21621970   6.250   5.762   5.635 -0.0306  0.6006  0.5392
  190SAPI  H16R21971   6.319   5.724   5.714  0.2097  0.9150  0.4823
  190SAPI  H16S21972   6.243   5.872   5.643  1.4538  0.7683 -0.1096
  190SAPI  C21721973   6.337   5.726   5.519  0.2492  0.6276  0.0656
  190SAPI  H17R21974   6.382   5.625   5.537 -1.8980 -0.5690 -0.9011
  190SAPI  H17S21975   6.417   5.803   5.517 -0.1325  1.0480  0.8259
  190SAPI  C21821976   6.277   5.750   5.373 -0.4175 -0.4748 -0.1846
  190SAPI  H18R21977   6.234   5.852   5.380 -1.6293 -0.9652 -0.2134
  190SAPI  H18S21978   6.198   5.675   5.352 -1.4801 -0.2098  2.4614
  190SAPI  C21921979   6.382   5.754   5.260 -0.5568 -0.3362  0.7458
  190SAPI  H19R21980   6.463   5.826   5.284  0.1602 -0.1389 -2.0001
  190SAPI  H19S21981   6.339   5.791   5.164  1.9422  1.9003  0.3693
  190SAPI  C22021982   6.434   5.614   5.214  0.1157  0.3568  0.4728
  190SAPI  H20R21983   6.351   5.543   5.194  1.1066 -0.2940 -1.7521
  190SAPI  H20S21984   6.495   5.569   5.295 -0.4456 -0.4854  0.4383
  190SAPI  H20T21985   6.498   5.620   5.123  0.6394  1.0192  0.8795
  190SAPI   C3321986   6.648   5.890   6.858 -0.0710 -0.1612  0.4272
  190SAPI   H3X21987   6.625   5.781   6.856  3.1104 -0.9561  0.8037
  190SAPI   H3Y21988   6.727   5.908   6.935 -1.0282  1.8361  0.9957
  190SAPI   C3421989   6.698   5.920   6.710 -0.5799  0.6724 -0.2597
  190SAPI   H4X21990   6.804   5.892   6.690  0.0128  2.5936 -0.0192
  190SAPI   H4Y21991   6.693   6.031   6.705  0.8576  0.9116  2.1196
  190SAPI   C3521992   6.601   5.849   6.604  0.2326 -0.0464 -0.7077
  190SAPI   H5X21993   6.497   5.868   6.639  0.0608 -0.0242 -1.2218
  190SAPI   H5Y21994   6.628   5.741   6.603  1.6365  0.2878 -0.5111
  190SAPI   C3621995   6.619   5.910   6.463  0.5417  0.1732 -0.3085
  190SAPI   H6X21996   6.721   5.889   6.425  1.2097  0.7977  1.0646
  190SAPI   H6Y21997   6.599   6.019   6.473 -1.6917 -0.1051 -1.2305
  190SAPI   C3721998   6.511   5.860   6.369 -0.0889 -0.3797 -0.0136
  190SAPI   H7X21999   6.413   5.872   6.421  0.0134 -2.2375  0.6841
  190SAPI   H7Y22000   6.523   5.752   6.348 -0.6388 -0.7716  1.5833
  190SAPI   C3822001   6.508   5.935   6.233  0.6557  0.2188 -0.2070
  190SAPI   H8X22002   6.600   5.910   6.176  0.5731  3.0063 -1.7067
  190SAPI   H8Y22003   6.493   6.042   6.257 -0.3740 -0.1222  0.8057
  190SAPI   C3922004   6.392   5.894   6.142  0.3488 -0.3687  0.0928
  190SAPI   H9X22005   6.295   5.894   6.195 -1.1910 -1.3555 -2.5619
  190SAPI   H9Y22006   6.412   5.797   6.092  3.1521  0.3353 -0.3316
  190SAPI  C31022007   6.376   6.002   6.031 -0.0246 -0.3204  0.2252
  190SAPI  H10X22008   6.363   6.106   6.066 -1.0477 -0.8821  1.5774
  190SAPI  H10Y22009   6.282   5.964   5.985  0.2040 -0.4770 -0.1212
  190SAPI  C31122010   6.484   5.996   5.927  0.4979  0.6288  0.0810
  190SAPI  H11X22011   6.477   5.890   5.896 -0.0010  0.5530  0.4423
  190SAPI  H11Y22012   6.583   6.017   5.973 -0.6504  0.3540  2.9041
  190SAPI  C31222013   6.462   6.089   5.807 -0.2475 -0.2473  0.3458
  190SAPI  H12X22014   6.472   6.195   5.837 -2.1284  0.9500 -2.7785
  190SAPI  H12Y22015   6.363   6.084   5.756 -0.3792 -2.7226  0.6944
  190SAPI  C31322016   6.556   6.050   5.694 -0.0452  1.1696  0.1090
  190SAPI  H13X22017   6.588   5.944   5.700 -0.3827  0.9571 -1.5426
  190SAPI  H13Y22018   6.648   6.107   5.720 -0.2944  1.1594  1.0576
  190SAPI  C31422019   6.521   6.085   5.545  1.0242  0.3001 -0.0883
  190SAPI  H14X22020   6.411   6.096   5.534  0.9648  0.5137  0.6765
  190SAPI  H14Y22021   6.545   6.000   5.478 -0.9303 -0.1766 -0.2567
  190SAPI  C31522022   6.589   6.215   5.495  0.4926 -0.6555  0.4681
  190SAPI  H15X22023   6.696   6.201   5.522  0.5761 -0.3710  0.2908
  190SAPI  H15Y22024   6.550   6.309   5.539 -1.2961 -0.5829 -1.1694
  190SAPI  C31622025   6.575   6.233   5.343 -0.1846  0.3095  0.1731
  190SAPI  H16X22026   6.472   6.232   5.301 -0.0459 -0.9489 -0.1774
  190SAPI  H16Y22027   6.622   6.146   5.293  0.2795  0.2365  0.7283
  190SAPI  C31722028   6.632   6.361   5.294  0.0498  0.0709  0.1975
  190SAPI  H17X22029   6.738   6.363   5.327 -0.2357 -1.1101  1.2966
  190SAPI  H17Y22030   6.581   6.441   5.352  0.5421 -0.4193  1.3391
  190SAPI  C31822031   6.593   6.396   5.141  0.2457  0.1404 -0.4088
  190SAPI  H18X22032   6.612   6.505   5.126  0.5040  0.3516  1.2525
  190SAPI  H18Y22033   6.483   6.383   5.133  0.2938  0.0261 -0.9017
  190SAPI  H18Z22034   6.645   6.325   5.074 -2.6040 -2.4338 -0.1198
  191SAPI   C1222035   2.682   0.842   2.945  0.0670 -0.7843  0.2618
  191SAPI    H222036   2.640   0.858   3.046  0.6144  1.8687  0.1440
  191SAPI    O222037   2.723   0.976   2.903  0.5073 -0.2235 -0.5501
  191SAPI   HO222038   2.794   1.011   2.957  1.0359 -0.2280 -1.2199
  191SAPI   C1322039   2.803   0.764   2.940  0.0179  0.1357 -0.8259
  191SAPI    H322040   2.785   0.657   2.965 -2.1360  0.7832  0.6587
  191SAPI    O322041   2.902   0.800   3.042 -0.3972  0.1484  0.1393
  191SAPI   HO322042   2.930   0.892   3.032  0.9306 -0.2256  0.2560
  191SAPI   C1422043   2.860   0.762   2.798 -0.4625  0.1511 -0.0400
  191SAPI    H422044   2.895   0.867   2.791  2.7309 -0.5386  2.8208
  191SAPI    O422045   2.973   0.677   2.781  0.2260  0.1874  0.1431
  191SAPI   HO422046   2.956   0.585   2.761  2.2135 -1.1567  3.5961
  191SAPI   C1522047   2.754   0.739   2.686 -1.0996 -0.5028  0.1190
  191SAPI    H522048   2.748   0.628   2.676  1.7305 -1.1250  3.3594
  191SAPI    O522049   2.815   0.786   2.562  0.9513  0.3911 -0.0444
  191SAPI   HO522050   2.827   0.879   2.580  1.4704  0.7541 -2.0460
  191SAPI   C1622051   2.615   0.785   2.707 -0.4695  0.6285 -1.0459
  191SAPI    H622052   2.608   0.891   2.675 -1.0111  1.5253  1.7865
  191SAPI    O622053   2.519   0.708   2.634 -0.6512  0.0786  0.5344
  191SAPI   HO622054   2.538   0.705   2.540 -1.9496  0.8613  0.2365
  191SAPI   C1122055   2.578   0.785   2.853 -0.3622  0.4531  0.9149
  191SAPI    H122056   2.567   0.677   2.879  0.9369  0.4043  1.3436
  191SAPI     P22057   2.341   0.824   2.980  0.2004 -0.2192  0.0026
  191SAPI   O1322058   2.356   0.680   3.013  0.0716 -0.1420  0.1757
  191SAPI   O1422059   2.209   0.875   2.943 -0.1568  0.3121  0.2870
  191SAPI   O1222060   2.456   0.847   2.863  0.7698  0.3463  0.1605
  191SAPI   O1122061   2.390   0.898   3.106 -0.2195  0.4463  0.6639
  191SAPI    C122062   2.411   1.030   3.135  0.0390  0.5084  0.5159
  191SAPI    HA22063   2.457   1.086   3.050  1.0705 -0.0051  0.7279
  191SAPI    HB22064   2.309   1.071   3.148 -0.8888 -0.8388 -1.8397
  191SAPI    C222065   2.496   1.051   3.266  0.6810 -0.1965  0.4191
  191SAPI    HS22066   2.598   1.013   3.246  0.0912 -1.3790 -0.4843
  191SAPI   O2122067   2.434   0.969   3.370 -0.2434  0.2500 -0.3370
  191SAPI   C2122068   2.476   0.841   3.383  0.8374 -0.2394  0.2181
  191SAPI   O2222069   2.560   0.785   3.323 -0.5777 -0.0091 -0.3765
  191SAPI   C2222070   2.400   0.785   3.503 -0.2944 -0.4680 -0.3264
  191SAPI   H2R22071   2.355   0.869   3.560  1.8956  0.2224  0.5054
  191SAPI   H2S22072   2.320   0.716   3.468  1.0613 -1.3251 -1.8736
  191SAPI    C322073   2.497   1.200   3.315  0.5550 -0.3646 -0.1380
  191SAPI    HX22074   2.392   1.236   3.324  0.0018 -0.5305 -4.2617
  191SAPI    HY22075   2.531   1.261   3.229 -0.9091  0.4771 -0.1472
  191SAPI   O3122076   2.577   1.224   3.432 -0.5621  0.7044  0.0078
  191SAPI   C3122077   2.517   1.263   3.543  0.1174  0.9403  0.2188
  191SAPI   O3222078   2.402   1.277   3.563  0.4060 -0.6263  0.8102
  191SAPI   C3222079   2.622   1.274   3.652 -0.5058  0.0496  0.4568
  191SAPI   H2X22080   2.683   1.363   3.625  0.3362 -0.7385 -0.2876
  191SAPI   H2Y22081   2.690   1.188   3.638  1.1361  1.4553 -0.7040
  191SAPI   C2322082   2.510   0.716   3.589  0.2496  0.1552  0.1805
  191SAPI   H3R22083   2.615   0.745   3.566 -0.2578 -0.0465 -2.8067
  191SAPI   H3S22084   2.497   0.608   3.566 -0.8165 -0.0941  1.8023
  191SAPI   C2422085   2.477   0.723   3.742 -0.8086 -0.2749  0.0357
  191SAPI   H4R22086   2.542   0.655   3.801  3.6759  1.3189 -2.5707
  191SAPI   H4S22087   2.371   0.700   3.768 -0.8951  0.0333 -0.0303
  191SAPI   C2522088   2.509   0.865   3.793  0.6946  0.2316 -0.2430
  191SAPI   H5R22089   2.530   0.944   3.720 -2.3709  2.9453  1.5391
  191SAPI   C2622090   2.496   0.909   3.920  0.2145  0.3042  0.6526
  191SAPI   H6R22091   2.511   1.017   3.935 -1.6440  0.8525 -1.0399
  191SAPI   C2722092   2.465   0.834   4.045  0.4570  0.1580 -0.0916
  191SAPI   H7R22093   2.433   0.730   4.023 -1.0432  0.2481  1.4704
  191SAPI   H7S22094   2.378   0.885   4.092  0.3194 -0.7371  0.6514
  191SAPI   C2822095   2.585   0.838   4.139 -0.0142 -0.4602  0.1646
  191SAPI   H8R22096   2.664   0.774   4.097 -0.9216 -1.5385  0.0625
  191SAPI   C2922097   2.602   0.914   4.245 -0.0385  0.4972  0.0853
  191SAPI   H9R22098   2.698   0.904   4.298  0.8650  0.1039 -1.5501
  191SAPI  C21022099   2.502   1.012   4.311  0.3923  0.6037  0.7514
  191SAPI  H10R22100   2.460   1.087   4.241 -0.4368 -1.8194 -1.5298
  191SAPI  H10S22101   2.552   1.082   4.381  1.5502  0.7645 -0.1961
  191SAPI  C21122102   2.393   0.924   4.377 -0.0507  0.2532 -0.2957
  191SAPI  H11R22103   2.333   0.868   4.304 -0.5789 -0.4053  0.6302
  191SAPI  C21222104   2.398   0.897   4.510  0.1229  0.0924  0.1045
  191SAPI  H12R22105   2.317   0.833   4.548  0.7840 -0.5481  0.4439
  191SAPI  C21322106   2.496   0.955   4.608  0.4314 -0.1601 -0.2285
  191SAPI  H13R22107   2.428   1.021   4.666  0.3412  0.0791 -0.6046
  191SAPI  H13S22108   2.579   1.016   4.566  0.5129 -0.1677 -0.0800
  191SAPI  C21422109   2.550   0.843   4.697  0.1166 -0.1048 -1.0101
  191SAPI  H14R22110   2.587   0.754   4.645 -1.6624 -0.8786 -1.0095
  191SAPI  C21522111   2.580   0.860   4.829  0.4125  0.2710 -0.0978
  191SAPI  H15R22112   2.634   0.776   4.875  0.5931 -0.0579 -0.8958
  191SAPI  C21622113   2.545   0.982   4.909 -0.5697 -0.3020 -0.4321
  191SAPI  H16R22114   2.511   1.064   4.843  0.8130  1.1139  0.5436
  191SAPI  H16S22115   2.641   1.026   4.944 -0.3045  2.2610 -3.8661
  191SAPI  C21722116   2.451   0.943   5.015 -0.1782 -0.4145  0.1194
  191SAPI  H17R22117   2.476   0.849   5.070  0.5229 -0.0637  0.4135
  191SAPI  H17S22118   2.355   0.931   4.960 -1.6575  0.3318  2.4042
  191SAPI  C21822119   2.436   1.067   5.110 -0.6719  0.2746  0.4257
  191SAPI  H18R22120   2.411   1.153   5.044 -0.2938 -0.8966 -1.2977
  191SAPI  H18S22121   2.535   1.087   5.156  0.1839  0.3061 -1.3710
  191SAPI  C21922122   2.332   1.051   5.218  0.6683  0.2460  0.5469
  191SAPI  H19R22123   2.346   0.955   5.271  2.8543  0.6566  0.8017
  191SAPI  H19S22124   2.231   1.048   5.172  1.1594 -0.9223 -0.5042
  191SAPI  C22022125   2.328   1.165   5.323 -0.4758 -0.4128  0.0694
  191SAPI  H20R22126   2.420   1.155   5.384  0.3523 -0.0968 -1.0783
  191SAPI  H20S22127   2.234   1.158   5.382 -2.2827  0.5854 -2.4739
  191SAPI  H20T22128   2.341   1.260   5.268 -1.3287  0.2935  1.0471
  191SAPI   C3322129   2.576   1.285   3.802 -0.0692  0.0600 -0.3176
  191SAPI   H3X22130   2.532   1.185   3.821 -0.5882  0.0559 -1.4610
  191SAPI   H3Y22131   2.499   1.363   3.824  0.4706  0.8248 -1.0724
  191SAPI   C3422132   2.694   1.305   3.895  0.1437  0.4569  0.4305
  191SAPI   H4X22133   2.765   1.377   3.849  2.1875 -0.9156  1.3431
  191SAPI   H4Y22134   2.756   1.214   3.902  0.5798  0.6959 -0.2431
  191SAPI   C3522135   2.655   1.351   4.033 -0.5721 -0.2304 -0.1917
  191SAPI   H5X22136   2.593   1.267   4.069 -0.6212 -1.6234 -3.1751
  191SAPI   H5Y22137   2.604   1.449   4.045  3.9258  2.3050  0.4308
  191SAPI   C3622138   2.782   1.343   4.123  0.0629 -0.6388 -0.3991
  191SAPI   H6X22139   2.829   1.444   4.116  0.8397 -0.9247  0.5205
  191SAPI   H6Y22140   2.852   1.264   4.090  1.0361 -0.5875  1.4140
  191SAPI   C3722141   2.744   1.344   4.277 -0.3300 -0.0762 -0.0106
  191SAPI   H7X22142   2.684   1.253   4.296 -0.9404  0.6259  1.6568
  191SAPI   H7Y22143   2.688   1.440   4.276  0.4911  0.4171  0.2994
  191SAPI   C3822144   2.869   1.357   4.361 -0.0760 -0.4749 -0.2359
  191SAPI   H8X22145   2.935   1.430   4.310 -1.1941 -1.1377 -2.7920
  191SAPI   H8Y22146   2.909   1.253   4.356  1.4093  0.1080 -0.9689
  191SAPI   C3922147   2.838   1.408   4.507  0.6703 -0.5284 -0.4997
  191SAPI   H9X22148   2.768   1.492   4.490 -0.3358 -1.8013 -3.4069
  191SAPI   H9Y22149   2.930   1.442   4.559 -0.4856 -0.1227  1.3502
  191SAPI  C31022150   2.748   1.310   4.583  0.0340  0.2449 -0.1009
  191SAPI  H10X22151   2.802   1.217   4.609 -1.4466 -0.6877 -0.2143
  191SAPI  H10Y22152   2.655   1.290   4.526  0.5056 -0.0195 -0.7784
  191SAPI  C31122153   2.698   1.374   4.711  0.6914 -0.1799 -0.2540
  191SAPI  H11X22154   2.628   1.301   4.756 -0.0394  2.0193  2.4569
  191SAPI  H11Y22155   2.648   1.472   4.692  1.6783  0.7256  1.4802
  191SAPI  C31222156   2.796   1.371   4.834  0.0598  0.0547 -0.4107
  191SAPI  H12X22157   2.879   1.438   4.803  0.3217  0.5919  1.3035
  191SAPI  H12Y22158   2.817   1.268   4.868 -0.1569 -0.5670 -2.1007
  191SAPI  C31322159   2.726   1.432   4.955 -0.4235  0.1929 -0.6135
  191SAPI  H13X22160   2.640   1.367   4.981 -0.7763  1.1818  0.7680
  191SAPI  H13Y22161   2.677   1.527   4.924 -0.2538  0.3495 -0.4033
  191SAPI  C31422162   2.819   1.446   5.078  0.2604  1.0007  0.2236
  191SAPI  H14X22163   2.919   1.487   5.053  0.0307  0.3583 -2.0152
  191SAPI  H14Y22164   2.842   1.344   5.114 -3.1600 -0.6637 -1.7531
  191SAPI  C31522165   2.762   1.534   5.189  0.3321 -0.5468 -0.7394
  191SAPI  H15X22166   2.748   1.638   5.153  1.5747 -0.7302 -1.8284
  191SAPI  H15Y22167   2.829   1.546   5.278 -1.4034 -2.8453  1.0219
  191SAPI  C31622168   2.631   1.481   5.255  0.1038  0.4383  0.2036
  191SAPI  H16X22169   2.633   1.372   5.275 -1.1219 -0.0383 -1.9495
  191SAPI  H16Y22170   2.549   1.485   5.180 -0.4106 -2.9969  0.4456
  191SAPI  C31722171   2.583   1.550   5.380  0.2981  0.2709  0.4130
  191SAPI  H17X22172   2.573   1.658   5.357 -0.6835 -0.0217 -0.6490
  191SAPI  H17Y22173   2.658   1.528   5.459 -0.6665 -2.3513  0.6942
  191SAPI  C31822174   2.446   1.506   5.434  0.0942  0.2643 -0.2633
  191SAPI  H18X22175   2.437   1.404   5.479  0.4591  0.3863  0.0817
  191SAPI  H18Y22176   2.366   1.513   5.357  0.3811 -1.5233 -0.7842
  191SAPI  H18Z22177   2.419   1.570   5.521  1.0234 -1.1143  1.0910
  192SAPI   C1222178   3.857   0.825   2.694 -0.4309 -0.5267 -0.2062
  192SAPI    H222179   3.839   0.827   2.804 -0.5920  1.1969 -0.2372
  192SAPI    O222180   3.737   0.856   2.626  0.4814 -0.1418 -0.6544
  192SAPI   HO222181   3.677   0.782   2.637  1.4084 -1.0586 -1.6029
  192SAPI   C1322182   3.960   0.931   2.663  0.0897  0.0446  0.2311
  192SAPI    H322183   4.053   0.900   2.716  0.6874  0.5035 -0.5280
  192SAPI    O322184   3.917   1.049   2.731 -0.0808  0.1474  0.2768
  192SAPI   HO322185   3.834   1.074   2.688  0.2061 -1.2243 -1.1410
  192SAPI   C1422186   3.996   0.945   2.512 -0.0168  0.1675 -0.4445
  192SAPI    H422187   3.906   1.002   2.479  0.0222  0.8563  0.5758
  192SAPI    O422188   4.108   1.030   2.485  0.4097  0.1429 -0.1688
  192SAPI   HO422189   4.084   1.067   2.400  1.1283  0.4757 -0.2391
  192SAPI   C1522190   3.997   0.815   2.430  0.8537 -0.6462  0.0290
  192SAPI    H522191   4.106   0.794   2.432  0.8850 -0.4519  0.9575
  192SAPI    O522192   3.965   0.833   2.294  0.4516  0.0580 -0.2352
  192SAPI   HO522193   3.874   0.863   2.291 -0.2543 -1.9942 -1.6632
  192SAPI   C1622194   3.930   0.695   2.491 -0.6874 -0.3471 -0.2102
  192SAPI    H622195   3.828   0.695   2.448 -1.3752 -2.6767  1.2470
  192SAPI    O622196   4.006   0.575   2.453  0.1197 -0.1045  0.1812
  192SAPI   HO622197   4.010   0.526   2.535 -0.0336  3.0774  2.2750
  192SAPI   C1122198   3.921   0.697   2.646 -0.0640 -0.2368  0.3769
  192SAPI    H122199   4.020   0.680   2.693  0.0807  1.7480  0.8860
  192SAPI     P22200   3.872   0.473   2.762  0.0435  0.0261 -0.1727
  192SAPI   O1322201   4.003   0.431   2.713  0.8668 -0.1506  0.2593
  192SAPI   O1422202   3.771   0.371   2.760  0.3322 -0.1448 -0.2253
  192SAPI   O1222203   3.826   0.601   2.679  0.1400  0.1875 -0.3629
  192SAPI   O1122204   3.892   0.524   2.905  0.1494  0.5507 -0.6226
  192SAPI    C122205   3.790   0.586   2.986  0.4142  0.9391 -0.4204
  192SAPI    HA22206   3.831   0.681   3.027  0.1622  0.3576  1.2825
  192SAPI    HB22207   3.695   0.598   2.930 -1.4060  2.0136  2.6421
  192SAPI    C222208   3.746   0.499   3.109  0.1405 -0.0370  0.0709
  192SAPI    HS22209   3.651   0.534   3.154  0.4921 -1.8672  2.4765
  192SAPI   O2122210   3.848   0.490   3.210 -0.5143 -0.5356  0.1494
  192SAPI   C2122211   3.871   0.595   3.281  0.3195  0.1109 -0.2507
  192SAPI   O2222212   3.830   0.709   3.262 -0.3621  0.2815  0.0918
  192SAPI   C2222213   3.969   0.555   3.382  0.4988 -0.2783  1.3864
  192SAPI   H2R22214   3.920   0.475   3.441 -1.1669 -0.2829  0.0423
  192SAPI   H2S22215   4.064   0.526   3.331  0.3233 -0.0887  0.9563
  192SAPI    C322216   3.701   0.356   3.073 -0.6356 -0.1720 -0.3250
  192SAPI    HX22217   3.786   0.290   3.042 -1.2033 -0.6935 -0.7965
  192SAPI    HY22218   3.641   0.354   2.979 -1.2298 -0.8057  0.0600
  192SAPI   O3122219   3.625   0.290   3.174 -0.2597  0.3418 -0.0628
  192SAPI   C3122220   3.675   0.195   3.253 -0.0340  0.7039 -0.2351
  192SAPI   O3222221   3.776   0.137   3.246  0.4184 -0.6767  0.0758
  192SAPI   C3222222   3.553   0.164   3.357 -1.3220 -0.0786  0.1749
  192SAPI   H2X22223   3.473   0.121   3.293 -1.0699 -0.8117  0.3490
  192SAPI   H2Y22224   3.521   0.263   3.398  0.7247 -0.5775  3.3369
  192SAPI   C2322225   4.021   0.659   3.489 -0.1079  1.3078 -0.2927
  192SAPI   H3R22226   3.946   0.656   3.571 -0.2952  2.4139 -0.4046
  192SAPI   H3S22227   4.005   0.756   3.437 -0.5498  1.0518 -0.6458
  192SAPI   C2422228   4.166   0.654   3.527 -1.0434 -1.0326  0.1108
  192SAPI   H4R22229   4.219   0.683   3.434 -0.9732 -0.3954  0.3451
  192SAPI   H4S22230   4.194   0.548   3.543 -1.2014 -1.0985 -0.0489
  192SAPI   C2522231   4.208   0.758   3.628 -0.4348  0.2376  0.4080
  192SAPI   H5R22232   4.195   0.864   3.601 -1.1151  0.5268  1.7733
  192SAPI   C2622233   4.245   0.731   3.756  0.1807 -0.3801 -0.8996
  192SAPI   H6R22234   4.252   0.815   3.827  1.3864 -0.6932 -0.6285
  192SAPI   C2722235   4.278   0.596   3.822  0.8290  0.8496 -0.0020
  192SAPI   H7R22236   4.254   0.514   3.750  0.1365  0.3148  0.8191
  192SAPI   H7S22237   4.215   0.568   3.909 -0.0921 -1.0445 -1.2048
  192SAPI   C2822238   4.431   0.581   3.828  0.5559  0.5051 -0.8685
  192SAPI   H8R22239   4.471   0.505   3.759  2.3879  0.8996 -0.2901
  192SAPI   C2922240   4.501   0.649   3.923  0.4340  0.2359  0.1214
  192SAPI   H9R22241   4.609   0.626   3.927  0.4161  0.3305  2.3446
  192SAPI  C21022242   4.458   0.754   4.019  0.6075  0.7398 -0.1577
  192SAPI  H10R22243   4.348   0.756   4.032  0.6045 -0.8738  0.2573
  192SAPI  H10S22244   4.483   0.850   3.969  1.1914  0.0353 -1.2839
  192SAPI  C21122245   4.537   0.736   4.146  0.2776 -0.2978  0.6578
  192SAPI  H11R22246   4.647   0.729   4.144  0.2487 -0.6223  0.0558
  192SAPI  C21222247   4.490   0.735   4.276  0.0105 -0.1286  1.2580
  192SAPI  H12R22248   4.556   0.728   4.364  0.0772 -2.8937  1.0734
  192SAPI  C21322249   4.347   0.723   4.320 -0.3004  0.2472 -0.6654
  192SAPI  H13R22250   4.282   0.738   4.231 -0.3971  2.6964 -0.2461
  192SAPI  H13S22251   4.318   0.810   4.382 -0.4478 -1.8983  2.4752
  192SAPI  C21422252   4.310   0.597   4.391 -0.1298  0.0528 -0.2252
  192SAPI  H14R22253   4.291   0.507   4.330  0.6035  0.6051 -1.3070
  192SAPI  C21522254   4.318   0.579   4.522 -1.1908  0.3763  0.5131
  192SAPI  H15R22255   4.287   0.481   4.561  1.9806 -0.7057  0.5957
  192SAPI  C21622256   4.340   0.674   4.635 -0.0019 -0.7378  0.7308
  192SAPI  H16R22257   4.390   0.763   4.591  0.7193 -0.9559  1.0946
  192SAPI  H16S22258   4.415   0.634   4.706  1.2226  0.5922  0.2177
  192SAPI  C21722259   4.204   0.697   4.714 -0.5426  0.2181  0.3178
  192SAPI  H17R22260   4.156   0.605   4.754  0.2068  0.7757  2.6884
  192SAPI  H17S22261   4.131   0.740   4.642 -0.7593 -0.9618 -0.1899
  192SAPI  C21822262   4.217   0.798   4.830  0.0092 -0.2936 -0.5341
  192SAPI  H18R22263   4.274   0.890   4.805 -1.8236  1.4487  1.3445
  192SAPI  H18S22264   4.252   0.742   4.920 -0.5201 -1.0868 -0.8127
  192SAPI  C21922265   4.082   0.856   4.872 -0.1925 -0.1778  0.3983
  192SAPI  H19R22266   4.038   0.918   4.791 -1.3740  0.3474  1.4157
  192SAPI  H19S22267   4.081   0.920   4.962  0.0404 -0.0499  0.3108
  192SAPI  C22022268   3.972   0.753   4.895  0.4182  0.3386  0.9096
  192SAPI  H20R22269   3.967   0.688   4.805  1.3100  1.1787  0.2387
  192SAPI  H20S22270   3.873   0.805   4.901  0.1526 -0.2233  1.5445
  192SAPI  H20T22271   3.996   0.692   4.985  1.3500 -0.9297 -0.1697
  192SAPI   C3322272   3.597   0.066   3.464  0.9281  0.6077 -0.7486
  192SAPI   H3X22273   3.636  -0.029   3.422 -0.1513 -1.1211  1.9066
  192SAPI   H3Y22274   3.507   0.042   3.524 -0.4348  0.5557 -2.7180
  192SAPI   C3422275   3.696   0.136   3.560  1.0579 -0.3176  0.5516
  192SAPI   H4X22276   3.672   0.244   3.559  0.3669 -0.4685 -0.0834
  192SAPI   H4Y22277   3.799   0.139   3.518  0.5646  0.3687 -0.6547
  192SAPI   C3522278   3.680   0.088   3.707 -0.0196  0.0453  0.2432
  192SAPI   H5X22279   3.727  -0.011   3.730  0.5745  0.2859  0.0910
  192SAPI   H5Y22280   3.571   0.083   3.725 -0.4632  0.9756 -1.8754
  192SAPI   C3622281   3.746   0.179   3.816 -0.3720  0.3022 -0.6186
  192SAPI   H6X22282   3.687   0.140   3.902 -1.3617 -4.7285 -3.2082
  192SAPI   H6Y22283   3.711   0.285   3.810 -0.9291  0.2560  1.2795
  192SAPI   C3722284   3.894   0.168   3.841 -0.9888  0.0744  0.5468
  192SAPI   H7X22285   3.945   0.180   3.743  0.1740  0.2681  1.1537
  192SAPI   H7Y22286   3.935   0.069   3.872  1.3103  0.3068 -1.4200
  192SAPI   C3822287   3.930   0.280   3.942 -0.0682  1.0634 -0.4359
  192SAPI   H8X22288   3.852   0.277   4.021 -0.2401  1.6462 -0.5827
  192SAPI   H8Y22289   3.923   0.374   3.884  1.0409  0.8548 -0.9473
  192SAPI   C3922290   4.064   0.267   4.015  0.1663 -0.4281 -0.5895
  192SAPI   H9X22291   4.138   0.290   3.935 -0.5211  0.1962 -1.0588
  192SAPI   H9Y22292   4.079   0.163   4.051  0.5476 -0.4273 -0.7455
  192SAPI  C31022293   4.074   0.354   4.140 -0.0183 -0.0156  0.0629
  192SAPI  H10X22294   4.039   0.458   4.120  0.3397  0.3835  1.4026
  192SAPI  H10Y22295   4.180   0.359   4.173  0.4584 -0.0654 -1.4028
  192SAPI  C31122296   3.996   0.314   4.269  0.0320 -0.1419  0.1318
  192SAPI  H11X22297   4.052   0.227   4.310 -0.6378  0.6689  3.0104
  192SAPI  H11Y22298   3.896   0.281   4.234  0.5793 -0.4370 -1.2273
  192SAPI  C31222299   3.981   0.416   4.383 -0.1825  1.0473 -0.4078
  192SAPI  H12X22300   3.926   0.505   4.345  0.2078  1.4108 -0.1325
  192SAPI  H12Y22301   4.077   0.452   4.424 -0.2073  0.4512  0.1911
  192SAPI  C31322302   3.895   0.359   4.501  0.0310  0.0579  0.4140
  192SAPI  H13X22303   3.925   0.255   4.528  0.8171  0.0601 -0.4152
  192SAPI  H13Y22304   3.794   0.340   4.458  0.2337  0.0848 -0.0701
  192SAPI  C31422305   3.883   0.455   4.620  0.0719  0.0683  0.2605
  192SAPI  H14X22306   3.859   0.561   4.596 -3.2615 -1.0062 -2.0402
  192SAPI  H14Y22307   3.971   0.447   4.687  1.0464  0.0511 -0.9831
  192SAPI  C31522308   3.755   0.426   4.701  0.4057 -0.5228 -0.0630
  192SAPI  H15X22309   3.762   0.320   4.731 -4.7479 -0.0543  4.4634
  192SAPI  H15Y22310   3.666   0.431   4.634  1.0132 -1.1208 -0.9258
  192SAPI  C31622311   3.758   0.508   4.830 -0.2200  1.0695  0.4389
  192SAPI  H16X22312   3.731   0.610   4.797 -0.9132  1.2092  1.3977
  192SAPI  H16Y22313   3.860   0.510   4.875 -0.2680  2.2136  0.5148
  192SAPI  C31722314   3.665   0.462   4.948  0.2588 -0.4221  0.7288
  192SAPI  H17X22315   3.682   0.353   4.962  0.1989 -0.4496  0.5826
  192SAPI  H17Y22316   3.556   0.481   4.932  0.0931  1.6021  3.4173
  192SAPI  C31822317   3.686   0.538   5.078 -0.3503  0.6537  0.3639
  192SAPI  H18X22318   3.629   0.633   5.083  1.3864  1.7329  0.4209
  192SAPI  H18Y22319   3.791   0.570   5.095 -1.4244  4.1671  1.1606
  192SAPI  H18Z22320   3.648   0.469   5.157  0.2080  1.1195  1.0572
  193SOD    SOD22321   5.246   3.818   2.502 -0.3134 -0.2605 -0.2649
  194SOD    SOD22322   4.239   1.544   8.188  0.1728  0.1293  0.0255
  195SOD    SOD22323   1.710   5.856   1.765  0.5518  0.0460  0.0345
  196SOD    SOD22324   5.610   1.116   3.019  0.1709  0.2158  0.0131
  197SOD    SOD22325   2.453   3.604   2.254 -0.4021 -0.3914  0.3441
  198SOD    SOD22326   2.036   3.392   8.929  0.1350  0.1560  0.0317
  199SOD    SOD22327   3.440   1.362   8.129  0.0035 -0.2973 -0.1004
  200SOD    SOD22328   6.574   2.472   7.783  0.0337 -0.4645 -0.2257
  201SOD    SOD22329   1.249   0.497   7.498 -0.0799  0.0398 -0.2359
  202SOD    SOD22330   1.872   6.651   3.159 -0.1259  0.5619  0.3946
  203SOD    SOD22331   0.542   5.985   8.512  0.3024 -0.0819  0.6283
  204SOD    SOD22332   1.556   4.205   1.869  0.1753 -0.4414 -0.2690
  205SOD    SOD22333   5.651   6.394   2.964  0.2317  0.1307 -0.1089
  206SOD    SOD22334   6.244   2.795   3.078  0.2362  0.0722 -0.0714
  207SOD    SOD22335   4.665   3.004   2.195  0.4031  0.0156 -0.0886
  208SOD    SOD22336   6.454   4.250   7.568 -0.1125  0.1856 -0.3986
  209SOD    SOD22337   4.462   4.542   3.170 -0.3221 -0.1724 -0.1166
  210SOD    SOD22338   3.204   0.411   2.491 -0.4708  0.1397 -0.0368
  211SOD    SOD22339   4.344   5.139   8.520 -0.0944  0.3408 -0.0751
  212SOD    SOD22340   5.988   2.755   8.508  0.3791 -0.2132  0.3447
  213SOD    SOD22341   3.747   2.868   0.423 -0.0396 -0.0291  0.1657
  214SOD    SOD22342   0.585   6.541   7.289  0.1121 -0.2842  0.3291
  215SOD    SOD22343   2.294   5.139   2.444  0.1172  0.2157  0.1020
  216SOD    SOD22344   5.025   6.649   9.000  0.3740 -0.2909  0.1759
  217SOD    SOD22345   4.233   3.794   7.096 -0.0734 -0.9460  0.2165
  218SOD    SOD22346   0.241   2.326   8.933 -0.3528  0.1468  0.1523
  219SOD    SOD22347   1.554   4.161   2.751  0.6898 -0.5746  0.3046
  220SOD    SOD22348   5.247   2.770   2.183  0.0905  0.2608 -0.3884
  221SOD    SOD22349   0.563   3.728   8.564 -0.2560  0.1670 -0.2818
  222SOD    SOD22350   0.685   5.145   8.130  0.7998 -0.1004  0.0190
  223SOD    SOD22351   2.195   0.143   0.396 -0.4546  0.0686  0.2337
  224SOD    SOD22352   2.285   5.491   8.011 -0.3371 -0.3355  0.1479
  225SOD    SOD22353   2.120   3.598   1.177 -0.3805  0.4736 -0.1009
  226SOD    SOD22354   0.750   6.593   7.837  0.1790  0.3212  0.1955
  227SOD    SOD22355   1.395   4.593   7.286  0.0301 -0.3539 -0.1881
  228SOD    SOD22356   4.998   0.286   0.714 -0.3402 -0.1899  0.1108
  229SOD    SOD22357   0.778   1.010   1.355  0.0746  0.3747  0.1093
  230CLA    CLA22358   3.770   3.311   0.199  0.0989 -0.0603  0.1915
  231CLA    CLA22359   0.372   0.911   8.886  0.1712  0.1410 -0.1434
  232CLA    CLA22360   3.689   0.471   8.806  0.2749 -0.3159  0.2343
  233CLA    CLA22361   3.238   2.548   2.158  0.2565  0.0887 -0.1835
  234CLA    CLA22362   1.518   1.733   1.348 -0.2466  0.0341 -0.1028
  235CLA    CLA22363   3.263   4.475   0.519  0.1552 -0.0468 -0.4839
  236CLA    CLA22364   1.062   1.717   2.016  0.3005 -0.2625 -0.5541
  237CLA    CLA22365   5.341   2.961   9.179  0.3609 -0.1882  0.1635
  238CLA    CLA22366   0.040   4.772   0.764 -0.4688 -0.3469  0.0497
  239CLA    CLA22367   2.841   2.426   1.836  0.1686 -0.3668 -0.2503
  240CLA    CLA22368   3.894   5.719   0.985  0.5790 -0.1380  0.1079
  241CLA    CLA22369   0.771   5.081   1.216  0.1475 -0.4325 -0.0845
  242CLA    CLA22370   2.318   3.354   0.765  0.0833 -0.3799  0.4577
  243CLA    CLA22371   1.709   6.141   0.204  0.0689 -0.3608 -0.5596
  244CLA    CLA22372   4.033   1.594   8.893  0.2426  0.2780 -0.2329
  245CLA    CLA22373   1.296   4.385   8.201  0.2503 -0.0150  0.3361
  246CLA    CLA22374   5.234   3.770   0.673  0.0967 -0.2198 -0.0605
  247TIP3   OH222375   4.862   6.078   2.388 -0.6193  0.5889  0.1501
  247TIP3    H122376   4.951   6.046   2.402 -0.7480 -0.3758 -1.0370
  247TIP3    H222377   4.873   6.153   2.329 -0.7029 -0.8621 -1.8027
  248TIP3   OH222378   4.739   0.225   1.747 -0.2532  0.3333  0.3485
  248TIP3    H122379   4.785   0.274   1.816 -2.8610  0.9316  1.7883
  248TIP3    H222380   4.713   0.144   1.790  1.1679 -0.9264 -1.0616
  249TIP3   OH222381   3.242   0.632   0.726 -0.2796  0.8761  0.5736
  249TIP3    H122382   3.330   0.666   0.707 -0.7390  0.7398 -2.3272
  249TIP3    H222383   3.252   0.584   0.808  1.6066  3.4904  2.0310
  250TIP3   OH222384   6.582   2.024   2.271 -0.7015  0.0575  0.0728
  250TIP3    H122385   6.583   2.012   2.366 -0.2295  1.0547  0.2053
  250TIP3    H222386   6.673   2.009   2.245 -0.7969 -0.0467 -0.1973
  251TIP3   OH222387   2.752   1.340   1.355 -0.2662  0.3597 -0.2675
  251TIP3    H122388   2.728   1.432   1.365 -1.5646  0.1422 -1.2190
  251TIP3    H222389   2.745   1.304   1.443 -1.2683  0.8263 -0.1440
  252TIP3   OH222390   5.721   1.455   7.794 -0.2885 -0.2568 -0.1823
  252TIP3    H122391   5.710   1.549   7.785  1.2705  0.0542  0.6935
  252TIP3    H222392   5.802   1.435   7.746 -0.8919 -1.2474 -0.8289
  253TIP3   OH222393   0.881   0.848   0.417 -0.0804  0.2341  0.3395
  253TIP3    H122394   0.837   0.933   0.415 -1.2197 -0.3378 -0.5689
  253TIP3    H222395   0.916   0.837   0.328  0.9877  0.2067  0.7529
  254TIP3   OH222396   2.342   5.365   9.014 -0.3086  0.2065  0.0040
  254TIP3    H122397   2.424   5.316   9.007 -1.2946 -1.4077 -0.7063
  254TIP3    H222398   2.357   5.425   9.088  1.2236 -0.6045  0.3972
  255TIP3   OH222399   3.510   1.630   1.355  0.0377 -0.1196  0.1835
  255TIP3    H122400   3.515   1.561   1.289 -0.5949  0.7318 -0.8017
  255TIP3    H222401   3.429   1.611   1.403 -0.1051 -0.1115 -0.0480
  256TIP3   OH222402   1.413   2.951   7.886  0.7481 -0.0449 -0.3974
  256TIP3    H122403   1.449   2.923   7.802 -0.5622  0.4822 -1.1701
  256TIP3    H222404   1.321   2.924   7.883  0.6383  0.1183  0.8143
  257TIP3   OH222405   5.688   0.346   1.067 -0.3555 -0.4334  0.6664
  257TIP3    H122406   5.622   0.411   1.089  0.1399  0.4400 -0.3003
  257TIP3    H222407   5.658   0.308   0.984  0.4615  0.1646  0.0758
  258TIP3   OH222408   5.910   2.880   0.910  0.2970  0.2374 -0.0689
  258TIP3    H122409   5.871   2.929   0.982 -3.1850  0.0454 -1.6163
  258TIP3    H222410   5.940   2.946   0.849  1.5448  0.3855  0.6732
  259TIP3   OH222411   4.889   4.994   0.636 -0.1288  0.0020  0.8276
  259TIP3    H122412   4.976   5.034   0.632 -1.5108  3.2900 -0.4257
  259TIP3    H222413   4.845   5.039   0.708 -1.2690 -0.4907  0.4603
  260TIP3   OH222414   6.189   6.497   9.129 -0.2656 -0.1409  0.3117
  260TIP3    H122415   6.239   6.513   9.209  0.3449 -0.2010 -0.0502
  260TIP3    H222416   6.240   6.540   9.060 -0.0146 -1.3138 -0.2611
  261TIP3   OH222417   1.568   5.064   9.159 -0.0331  0.3887  0.3249
  261TIP3    H122418   1.637   5.129   9.172  0.4630 -0.3527  1.6486
  261TIP3    H222419   1.549   5.032   9.247 -0.8416 -0.6693 -0.2165
  262TIP3   OH222420   3.581   3.876   1.682  0.0786 -0.1945 -0.2551
  262TIP3    H122421   3.516   3.813   1.716 -2.7672  1.7180 -1.7329
  262TIP3    H222422   3.558   3.887   1.590  2.6359  0.5781 -0.8814
  263TIP3   OH222423   2.689   0.469   1.915 -0.3748  0.7198  0.3072
  263TIP3    H122424   2.612   0.485   1.968 -1.9165 -3.0956 -0.4729
  263TIP3    H222425   2.655   0.436   1.832  2.0516 -0.8235 -0.1712
  264TIP3   OH222426   1.448   4.794   8.884 -0.1185 -0.0423  0.3894
  264TIP3    H122427   1.522   4.779   8.943  0.1879  0.7656  0.2210
  264TIP3    H222428   1.388   4.722   8.902  0.8206 -0.8588  0.3500
  265TIP3   OH222429   1.883   5.525   1.313 -0.1181 -0.0878 -0.0788
  265TIP3    H122430   1.912   5.440   1.278  1.7039  0.8642 -1.0573
  265TIP3    H222431   1.864   5.577   1.235 -1.4663  0.3427  0.5211
  266TIP3   OH222432   4.078   3.279   2.961 -0.2965  0.1265  0.1403
  266TIP3    H122433   4.056   3.372   2.962 -1.0110 -0.0342  1.3412
  266TIP3    H222434   3.996   3.235   2.937 -0.7569 -0.3358  2.3443
  267TIP3   OH222435   1.296   6.032   0.595  0.2498 -0.4079 -0.5070
  267TIP3    H122436   1.357   5.961   0.616  1.0422  0.2811 -0.4598
  267TIP3    H222437   1.328   6.106   0.646 -0.2251  0.1518 -1.0218
  268TIP3   OH222438   4.352   3.340   2.034  0.3929  0.2229  0.1506
  268TIP3    H122439   4.268   3.343   1.988  0.6104 -0.9690 -0.3571
  268TIP3    H222440   4.358   3.425   2.078  0.5343  1.8185 -2.6538
  269TIP3   OH222441   4.928   4.593   0.431 -0.6886 -0.1036  0.0862
  269TIP3    H122442   5.007   4.554   0.395 -0.8974 -1.2547  0.8181
  269TIP3    H222443   4.858   4.567   0.371 -0.2800  2.7376 -1.8105
  270TIP3   OH222444   1.417   1.668   7.671  0.6359  0.8732  0.6100
  270TIP3    H122445   1.394   1.701   7.585 -0.1667 -1.8226 -0.2910
  270TIP3    H222446   1.488   1.726   7.700  1.7512  1.1534 -2.3509
  271TIP3   OH222447   2.581   6.223   0.327  0.6743  0.1353  0.3632
  271TIP3    H122448   2.634   6.167   0.384  1.2715  1.0424  0.7164
  271TIP3    H222449   2.644   6.263   0.267  0.3284  0.8825  0.4956
  272TIP3   OH222450   0.279   5.452   0.133  0.6897  0.2265 -0.3437
  272TIP3    H122451   0.291   5.398   0.055 -0.5552  0.5675 -0.7947
  272TIP3    H222452   0.242   5.392   0.198  0.0681  0.3357 -0.5881
  273TIP3   OH222453   0.715   5.478   2.145 -0.0663 -0.1852  0.5530
  273TIP3    H122454   0.640   5.511   2.193 -0.5659 -1.2921  0.5617
  273TIP3    H222455   0.702   5.508   2.055 -1.5853 -2.0322  0.1083
  274TIP3   OH222456   3.943   4.033   1.787  0.1260  0.7709  0.2272
  274TIP3    H122457   3.909   3.946   1.803  2.7256 -0.2091  0.9387
  274TIP3    H222458   3.933   4.079   1.871 -1.0624  1.1121 -0.0915
  275TIP3   OH222459   0.786   3.150   7.874  0.5045 -0.1917 -0.3716
  275TIP3    H122460   0.851   3.094   7.831  0.0830 -0.7069 -0.3453
  275TIP3    H222461   0.703   3.126   7.834  0.1277 -0.5386  0.5757
  276TIP3   OH222462   6.040   0.893   0.161 -0.3933 -0.1145  0.9774
  276TIP3    H122463   6.037   0.808   0.116 -1.0025  0.0173  0.7628
  276TIP3    H222464   6.002   0.875   0.248 -2.9720  0.4572  0.0522
  277TIP3   OH222465   2.913   2.345   9.127  0.3236 -0.2743 -0.0895
  277TIP3    H122466   2.989   2.328   9.182  0.6395  0.4282 -0.3002
  277TIP3    H222467   2.922   2.437   9.102 -1.5048  0.3272  1.2861
  278TIP3   OH222468   0.733   3.853   8.657  0.4803  0.3695 -0.7702
  278TIP3    H122469   0.772   3.841   8.744  0.4019 -1.1364 -0.9073
  278TIP3    H222470   0.704   3.944   8.656 -0.8534  0.0679  1.3525
  279TIP3   OH222471   1.098   3.422   8.096  0.2198 -0.1984 -0.3252
  279TIP3    H122472   1.141   3.507   8.096  1.5282 -0.8026 -1.6486
  279TIP3    H222473   1.039   3.425   8.021 -0.1591 -0.2625 -0.0322
  280TIP3   OH222474   4.599   6.152   8.696  0.0400  0.1278  0.0298
  280TIP3    H122475   4.625   6.242   8.676  0.2327  0.4240  1.4679
  280TIP3    H222476   4.610   6.145   8.791 -2.2312 -0.6799  0.2960
  281TIP3   OH222477   4.807   3.086   2.008 -0.9006  0.3525  0.5332
  281TIP3    H122478   4.767   3.106   1.924 -0.1359 -1.7162 -0.3914
  281TIP3    H222479   4.897   3.115   1.999 -0.6648 -0.3948  0.3986
  282TIP3   OH222480   4.750   5.537   0.679 -0.3752  0.1681 -0.0455
  282TIP3    H122481   4.749   5.601   0.750  0.5699 -1.7394  1.8151
  282TIP3    H222482   4.843   5.522   0.662 -0.4888 -2.0101  0.9062
  283TIP3   OH222483   1.774   1.961   8.429 -0.3895  0.2205 -0.1092
  283TIP3    H122484   1.745   1.896   8.493 -0.2637 -0.0873 -0.3626
  283TIP3    H222485   1.815   2.030   8.481  0.8110 -0.6039  0.0559
  284TIP3   OH222486   3.801   0.791   1.343 -0.4398 -0.0304 -0.0047
  284TIP3    H122487   3.732   0.760   1.285 -2.1116 -0.3401  1.9959
  284TIP3    H222488   3.758   0.857   1.397  1.2949  0.9524  0.2480
  285TIP3   OH222489   4.977   0.522   7.199 -0.1027 -0.2232 -0.3584
  285TIP3    H122490   4.948   0.518   7.108  1.3640 -0.0093 -0.8675
  285TIP3    H222491   5.052   0.464   7.202 -0.0054 -0.0554  0.6688
  286TIP3   OH222492   0.783   4.514   9.044 -0.0907  1.1769 -0.0386
  286TIP3    H122493   0.817   4.590   9.090  0.0929  1.5392 -0.7607
  286TIP3    H222494   0.701   4.493   9.090 -0.1209  1.7840  0.1927
  287TIP3   OH222495   3.544   4.222   8.697  0.3153  0.0753 -0.2312
  287TIP3    H122496   3.534   4.293   8.760 -3.6235 -0.4654 -0.0155
  287TIP3    H222497   3.581   4.150   8.747  3.8488  1.6184 -0.3264
  288TIP3   OH222498   2.875   3.111   7.762 -0.0993 -0.7951  0.4595
  288TIP3    H122499   2.846   3.097   7.672  1.2609  0.0712 -0.1422
  288TIP3    H222500   2.795   3.099   7.815 -1.0378 -0.7410 -0.8892
  289TIP3   OH222501   4.966   3.369   1.751 -0.4388  0.5538 -0.3351
  289TIP3    H122502   4.903   3.440   1.745  0.8638  1.9660  1.7188
  289TIP3    H222503   5.051   3.410   1.735  0.1159 -1.1678 -2.2792
  290TIP3   OH222504   0.688   3.745   8.368  0.4454 -0.3586 -0.4445
  290TIP3    H122505   0.736   3.819   8.329  0.7275 -0.1874  0.2234
  290TIP3    H222506   0.694   3.676   8.302  0.5245  0.0809 -0.9046
  291TIP3   OH222507   5.082   1.122   2.830  0.1153 -0.1228  0.6940
  291TIP3    H122508   5.146   1.189   2.855 -0.7733  0.5782  1.1848
  291TIP3    H222509   5.059   1.079   2.912 -1.1259  0.6451  0.7806
  292TIP3   OH222510   4.433   3.999   1.803 -0.5055  0.1622  0.4056
  292TIP3    H122511   4.395   4.063   1.743 -1.9952 -0.5557  0.5498
  292TIP3    H222512   4.395   4.020   1.888  0.3852  0.1897  0.8094
  293TIP3   OH222513   0.223   0.166   8.924  0.6229 -0.0087  0.2927
  293TIP3    H122514   0.307   0.209   8.911  0.5816  0.1156  0.4394
  293TIP3    H222515   0.219   0.149   9.018  0.4978 -0.0455  0.2810
  294TIP3   OH222516   2.928   5.610   0.267 -0.7335  1.0358  0.6107
  294TIP3    H122517   2.937   5.522   0.304 -0.4197  1.3064  1.1856
  294TIP3    H222518   2.835   5.630   0.277 -0.9686  0.4430 -0.2868
  295TIP3   OH222519   5.668   3.832   2.579  0.5723 -0.6480  0.3985
  295TIP3    H122520   5.597   3.860   2.637  0.0524  1.0995 -0.9931
  295TIP3    H222521   5.747   3.836   2.633 -0.0180  0.0591  1.2170
  296TIP3   OH222522   0.352   5.713   8.158  0.3451 -0.5921  0.1004
  296TIP3    H122523   0.299   5.701   8.079  0.5353 -2.0818  0.1596
  296TIP3    H222524   0.385   5.625   8.178  1.9856  0.1095  0.6675
  297TIP3   OH222525   3.483   1.144   7.214 -0.1077  0.2083 -0.3518
  297TIP3    H122526   3.500   1.234   7.242 -0.0066  1.0167 -2.7972
  297TIP3    H222527   3.570   1.105   7.208 -0.1601 -0.1393  0.8548
  298TIP3   OH222528   2.784   1.182   7.652 -0.8050  0.3354 -0.8917
  298TIP3    H122529   2.731   1.115   7.609  0.0182 -0.3607 -0.8700
  298TIP3    H222530   2.771   1.261   7.600 -1.3716  0.0162 -1.2416
  299TIP3   OH222531   1.063   0.754   1.266 -0.1074 -0.1290  0.0245
  299TIP3    H122532   0.971   0.777   1.276 -0.0713  0.6070 -1.0842
  299TIP3    H222533   1.069   0.664   1.298 -1.2624 -0.2695 -0.1092
  300TIP3   OH222534   3.492   5.078   2.922  0.7089 -0.4758 -0.6117
  300TIP3    H122535   3.436   5.120   2.988  3.0798  2.1330 -0.0555
  300TIP3    H222536   3.444   5.089   2.840  0.1691  1.3026 -0.1138
  301TIP3   OH222537   4.441   6.601   1.112  0.0151 -0.2392  0.7252
  301TIP3    H122538   4.384   6.563   1.046  1.1215 -0.8748  0.1041
  301TIP3    H222539   4.392   6.676   1.146  0.4990  1.9969 -2.9043
  302TIP3   OH222540   4.137   3.367   2.719 -0.2532  0.6849  0.6963
  302TIP3    H122541   4.207   3.429   2.737 -0.2331  0.6619  0.6978
  302TIP3    H222542   4.128   3.316   2.799 -1.1167  1.5112  1.1492
  303TIP3   OH222543   1.712   4.872   8.937  0.0080  0.0161  0.3357
  303TIP3    H122544   1.651   4.943   8.956  0.5402  0.1603  1.5675
  303TIP3    H222545   1.794   4.917   8.915 -0.0214 -0.2027 -0.2492
  304TIP3   OH222546   2.857   4.389   0.465 -0.1515 -0.3089  0.0061
  304TIP3    H122547   2.853   4.323   0.395  0.0441  0.6182 -0.9059
  304TIP3    H222548   2.918   4.455   0.432 -0.0624  0.1542  1.0602
  305TIP3   OH222549   1.880   3.137   8.614  0.4302 -0.2054 -0.4756
  305TIP3    H122550   1.909   3.057   8.657 -0.9481  0.0129  0.9625
  305TIP3    H222551   1.811   3.109   8.554  0.2662 -0.1595 -0.3099
  306TIP3   OH222552   5.196   5.142   1.656 -0.1129 -0.0906  0.3997
  306TIP3    H122553   5.269   5.138   1.594 -1.7996 -0.6116 -1.7002
  306TIP3    H222554   5.236   5.168   1.739  2.4910 -0.7669 -0.5334
  307TIP3   OH222555   4.356   0.794   7.892  0.1518 -0.2535 -0.2278
  307TIP3    H122556   4.338   0.760   7.804  2.5832 -1.4132 -0.3726
  307TIP3    H222557   4.271   0.792   7.936 -1.1290  0.3287 -2.5062
  308TIP3   OH222558   6.259   3.609   2.172 -0.6895  0.1191 -0.1049
  308TIP3    H122559   6.164   3.599   2.166 -0.5324 -0.9323 -1.3670
  308TIP3    H222560   6.283   3.656   2.092 -0.1155  0.0819  0.0426
  309TIP3   OH222561   1.617   1.844   0.418  0.4455  0.1075  0.0685
  309TIP3    H122562   1.629   1.834   0.512  0.2421 -0.3563  0.0482
  309TIP3    H222563   1.527   1.816   0.402 -0.4661  2.6681  0.0960
  310TIP3   OH222564   3.947   1.173   8.629 -0.0510  0.3658  0.1817
  310TIP3    H122565   3.901   1.117   8.692  0.0598 -0.9214 -0.8452
  310TIP3    H222566   3.878   1.224   8.588 -0.4892 -0.7933 -0.5930
  311TIP3   OH222567   0.872   5.492   8.336  0.6112 -0.0012 -0.2888
  311TIP3    H122568   0.941   5.431   8.312  0.6027 -0.7216  1.4101
  311TIP3    H222569   0.907   5.541   8.410 -0.2201  0.4969 -0.2089
  312TIP3   OH222570   1.651   6.522   1.265 -0.4782  0.3312  0.3518
  312TIP3    H122571   1.725   6.489   1.316  0.8340  0.5969 -1.2836
  312TIP3    H222572   1.679   6.512   1.174 -1.7504  2.0656 -0.2822
  313TIP3   OH222573   3.642   6.649   1.667 -0.3890 -0.1736  0.0427
  313TIP3    H122574   3.624   6.657   1.761  0.8254 -2.1123  0.5029
  313TIP3    H222575   3.556   6.637   1.627 -0.7329 -2.9063  1.3844
  314TIP3   OH222576   6.083   0.076   7.444  0.0097  0.6216 -0.2403
  314TIP3    H122577   6.159   0.042   7.397  0.5060 -0.4541  1.2921
  314TIP3    H222578   6.110   0.163   7.473  0.3871  0.5323 -0.3164
  315TIP3   OH222579   5.563   5.223   0.177 -0.2483  0.9167 -0.6009
  315TIP3    H122580   5.580   5.189   0.265  0.0868 -0.0315 -1.0222
  315TIP3    H222581   5.535   5.313   0.192  1.5310  1.3518  0.3732
  316TIP3   OH222582   5.606   2.186   2.551 -0.1899  0.1322 -0.2021
  316TIP3    H122583   5.697   2.161   2.563  0.3157  1.3230 -1.2281
  316TIP3    H222584   5.555   2.112   2.582  1.1336 -0.5293  0.4240
  317TIP3   OH222585   2.944   4.373   8.126  0.1060  0.1137  1.0498
  317TIP3    H122586   3.000   4.433   8.076  1.2372 -0.6087  1.4019
  317TIP3    H222587   2.858   4.415   8.127  1.0268  2.1187  1.9642
  318TIP3   OH222588   3.561   4.885   0.432  0.0288 -0.0389  0.0695
  318TIP3    H122589   3.603   4.838   0.504 -0.2185 -0.8040 -0.2767
  318TIP3    H222590   3.467   4.868   0.444  0.0977 -2.2467 -1.8020
  319TIP3   OH222591   4.070   1.019   8.362 -0.0393  0.0445 -0.1516
  319TIP3    H122592   4.004   0.952   8.344 -1.0856  0.6447  1.2596
  319TIP3    H222593   4.040   1.061   8.443  2.3836 -0.0388  0.8548
  320TIP3   OH222594   5.449   4.665   2.949 -0.4002 -0.6044 -0.2788
  320TIP3    H122595   5.356   4.687   2.956 -0.2553 -0.0239 -0.1255
  320TIP3    H222596   5.458   4.582   2.997 -0.8735 -0.7721 -0.4783
  321TIP3   OH222597   0.291   2.502   9.067 -0.3251  0.2362  0.3513
  321TIP3    H122598   0.376   2.546   9.072 -1.1617  2.3068 -1.6819
  321TIP3    H222599   0.237   2.547   9.132 -0.0832 -0.5795  1.1261
  322TIP3   OH222600   6.599   5.783   2.285  0.4381 -0.6194 -0.0211
  322TIP3    H122601   6.571   5.698   2.318  0.9930 -0.9230 -0.3278
  322TIP3    H222602   6.536   5.845   2.323  0.1468 -1.1381  0.3566
  323TIP3   OH222603   4.659   0.622   8.428  0.8129  0.2324 -0.1910
  323TIP3    H122604   4.603   0.560   8.381  0.0904 -0.3832  1.3991
  323TIP3    H222605   4.626   0.708   8.404 -0.9580 -0.1171  0.8161
  324TIP3   OH222606   3.079   5.741   0.585  0.6464 -0.6324 -0.5996
  324TIP3    H122607   2.990   5.724   0.556 -0.0627 -0.2207  1.1858
  324TIP3    H222608   3.131   5.745   0.505 -0.7470 -1.9052 -1.6189
  325TIP3   OH222609   3.848   5.262   8.065 -0.2878  0.1210  0.6501
  325TIP3    H122610   3.787   5.330   8.095 -1.4706 -0.8535  0.5459
  325TIP3    H222611   3.817   5.182   8.107 -0.8829 -0.9527 -1.6789
  326TIP3   OH222612   5.643   5.665   7.686  0.3600  0.1405 -0.2146
  326TIP3    H122613   5.651   5.602   7.614 -1.4409  0.0710 -0.4045
  326TIP3    H222614   5.571   5.630   7.740  0.5020  1.1205  0.6375
  327TIP3   OH222615   1.503   5.011   0.211  0.2358 -0.3589 -0.4363
  327TIP3    H122616   1.524   5.003   0.303 -1.2756  1.5763  0.1441
  327TIP3    H222617   1.409   4.993   0.206  0.3777 -0.9012 -1.6800
  328TIP3   OH222618   2.536   1.272   9.113  0.0190 -0.0065 -0.0442
  328TIP3    H122619   2.599   1.320   9.058  1.0934 -1.2594  0.0379
  328TIP3    H222620   2.453   1.282   9.067  0.1997  1.8461 -0.0642
  329TIP3   OH222621   4.640   4.041   7.803 -0.5030 -0.0128 -0.1519
  329TIP3    H122622   4.664   3.949   7.803 -0.5008 -0.0157  0.2271
  329TIP3    H222623   4.546   4.041   7.783  0.1201  0.1128 -3.5880
  330TIP3   OH222624   2.671   2.796   0.003 -0.4885 -0.4604 -0.3889
  330TIP3    H122625   2.655   2.755   0.088 -0.0354  0.3380  0.0992
  330TIP3    H222626   2.733   2.866   0.022 -2.0453  1.1522 -0.9807
  331TIP3   OH222627   3.485   2.862   0.856 -0.2120 -0.3386 -0.6267
  331TIP3    H122628   3.503   2.951   0.826 -1.1747 -0.9093 -3.1546
  331TIP3    H222629   3.555   2.843   0.919  0.6213  1.7982 -0.8307
  332TIP3   OH222630   5.151   5.905   0.466 -0.7881 -0.6166 -0.2996
  332TIP3    H122631   5.140   5.840   0.397 -0.6411  0.7582 -1.6792
  332TIP3    H222632   5.102   5.981   0.435  2.0655  1.2662 -0.5712
  333TIP3   OH222633   3.234   6.108   1.870  0.2967 -0.8871  0.7428
  333TIP3    H122634   3.219   6.110   1.964  1.4609 -5.0467  1.1924
  333TIP3    H222635   3.176   6.176   1.835 -1.0391  0.0140  4.3057
  334TIP3   OH222636   2.255   5.013   0.155  0.1245 -0.2561 -0.2383
  334TIP3    H122637   2.308   4.981   0.082 -0.3748 -0.1687 -0.6537
  334TIP3    H222638   2.201   5.083   0.116 -0.0339 -0.0999  0.2506
  335TIP3   OH222639   1.540   4.596   1.465  0.3977  0.3884 -0.6342
  335TIP3    H122640   1.635   4.604   1.476  0.2411  1.3531  0.1458
  335TIP3    H222641   1.504   4.623   1.549 -0.5306 -1.3705 -0.4400
  336TIP3   OH222642   4.335   3.859   8.728 -0.7660  0.4813  0.6384
  336TIP3    H122643   4.267   3.904   8.778 -1.4339  0.1617  0.0192
  336TIP3    H222644   4.338   3.771   8.766  0.1561  0.8565  1.4768
  337TIP3   OH222645   5.804   3.923   7.860  0.1991  0.8537 -0.7712
  337TIP3    H122646   5.767   3.966   7.937  0.0281 -1.3805  0.4679
  337TIP3    H222647   5.830   3.995   7.803 -1.1578  2.5676  0.6483
  338TIP3   OH222648   6.681   0.651   2.685 -0.4972  0.5832  0.4315
  338TIP3    H122649   6.702   0.558   2.694 -0.5041  0.6565  1.2866
  338TIP3    H222650   6.678   0.684   2.775  1.8354  1.9234  0.1056
  339TIP3   OH222651   2.962   4.147   1.729  0.1365  0.3408 -0.5089
  339TIP3    H122652   2.945   4.211   1.799  1.1639 -3.0182  3.1744
  339TIP3    H222653   2.903   4.074   1.748  0.9859 -1.0464 -2.7717
  340TIP3   OH222654   0.115   3.260   0.534 -0.2245 -0.0278 -0.0586
  340TIP3    H122655   0.146   3.185   0.585 -1.2947  1.0024  2.2805
  340TIP3    H222656   0.111   3.228   0.444  3.0239 -1.5583  0.2247
  341TIP3   OH222657   4.328   2.107   0.787  0.3693 -0.1416 -0.3932
  341TIP3    H122658   4.408   2.070   0.823  0.4739  1.0959  0.7179
  341TIP3    H222659   4.355   2.152   0.708  0.8655  0.6617  0.2206
  342TIP3   OH222660   3.576   6.671   8.291  0.0166  0.4103 -0.6854
  342TIP3    H122661   3.650   6.732   8.291  1.8146 -1.6179 -0.7521
  342TIP3    H222662   3.594   6.611   8.218 -0.3440 -1.6070  0.7830
  343TIP3   OH222663   1.971   0.739   2.388 -0.4687 -0.2937  0.0380
  343TIP3    H122664   1.877   0.724   2.398 -0.4845  0.9286  2.8091
  343TIP3    H222665   2.012   0.675   2.446  0.2598  0.4820  0.4085
  344TIP3   OH222666   2.738   0.106   1.696 -0.5990  0.1845  0.0264
  344TIP3    H122667   2.808   0.167   1.720 -0.6889  0.9609 -1.5393
  344TIP3    H222668   2.704   0.074   1.779  0.7311  0.8087  0.8451
  345TIP3   OH222669   2.874   2.652   8.047 -0.5956  0.5237 -0.7447
  345TIP3    H122670   2.846   2.662   8.138  5.3813 -1.0000  1.6931
  345TIP3    H222671   2.874   2.558   8.032 -0.6147  0.7069 -2.0377
  346TIP3   OH222672   5.161   0.342   2.904 -0.1018  0.3209 -0.3501
  346TIP3    H122673   5.205   0.332   2.820 -0.5174 -0.0191 -0.5328
  346TIP3    H222674   5.229   0.373   2.964  0.0635  1.1443 -0.9487
  347TIP3   OH222675   1.706   6.150   0.779  0.7666  0.5313  0.2528
  347TIP3    H122676   1.725   6.194   0.696 -1.0861  0.0408 -0.4693
  347TIP3    H222677   1.630   6.095   0.760  1.2698 -0.7775  1.8919
  348TIP3   OH222678   4.929   0.384   9.031 -0.2772 -0.0963  0.1405
  348TIP3    H122679   4.944   0.472   9.067 -0.5841  0.5485 -1.2237
  348TIP3    H222680   4.886   0.400   8.947  0.5919 -1.5101 -0.6074
  349TIP3   OH222681   3.031   2.857   8.876 -0.3020 -0.1209 -0.0504
  349TIP3    H122682   3.125   2.856   8.897 -0.5930 -1.1021  1.4170
  349TIP3    H222683   3.021   2.793   8.806 -0.0495 -1.0668  0.7605
  350TIP3   OH222684   6.093   5.697   8.772  0.3652  0.1826 -0.5033
  350TIP3    H122685   6.176   5.730   8.737  1.2653 -1.9489 -0.5473
  350TIP3    H222686   6.119   5.633   8.839 -1.2778  0.5388  0.5492
  351TIP3   OH222687   6.205   4.769   1.353 -0.5380 -0.4454 -0.2231
  351TIP3    H122688   6.183   4.725   1.435  0.9104 -0.7752  0.0187
  351TIP3    H222689   6.149   4.847   1.351 -0.6092 -0.4428  1.0677
  352TIP3   OH222690   2.458   5.642   1.311  0.1392  0.3895 -0.3629
  352TIP3    H122691   2.377   5.598   1.286  1.1040 -1.6387 -0.1338
  352TIP3    H222692   2.510   5.645   1.231  0.1943  0.8744 -0.3108
  353TIP3   OH222693   6.289   0.473   2.502  0.1215 -0.4686  0.0399
  353TIP3    H122694   6.310   0.534   2.573 -1.4540  0.8414 -0.5520
  353TIP3    H222695   6.270   0.390   2.546  3.8226 -1.0811  0.7552
  354TIP3   OH222696   0.755   0.556   3.166 -1.1084  0.0847 -0.6412
  354TIP3    H122697   0.826   0.612   3.136  0.7173 -0.4333  2.2949
  354TIP3    H222698   0.684   0.616   3.190 -1.7929  0.6037 -3.6536
  355TIP3   OH222699   5.269   0.100   8.229 -0.2243  0.2910 -0.0865
  355TIP3    H122700   5.213   0.031   8.192  1.8028 -1.5873  0.0742
  355TIP3    H222701   5.255   0.176   8.173 -2.7507 -0.1333 -0.1282
  356TIP3   OH222702   0.647   5.887   2.541 -0.2375 -0.2333 -0.1837
  356TIP3    H122703   0.643   5.863   2.634  0.4981 -1.0831 -0.3474
  356TIP3    H222704   0.721   5.946   2.535 -1.0392  0.8181 -0.0506
  357TIP3   OH222705   4.647   5.793   1.608  0.5726  0.3641  0.5809
  357TIP3    H122706   4.663   5.883   1.636 -0.4683  0.2996  1.4733
  357TIP3    H222707   4.584   5.759   1.671 -0.3486 -0.4480 -0.7103
  358TIP3   OH222708   6.219   2.536   8.767  0.9690 -0.1634 -0.3018
  358TIP3    H122709   6.215   2.605   8.701 -0.2006 -0.5498 -0.6488
  358TIP3    H222710   6.230   2.455   8.717 -1.9209 -0.7107 -0.2444
  359TIP3   OH222711   0.718   6.417   8.371 -0.3745  0.1861 -0.1876
  359TIP3    H122712   0.644   6.473   8.348 -1.6837 -0.3315  2.4658
  359TIP3    H222713   0.795   6.465   8.339 -1.6548  2.0127 -0.6543
  360TIP3   OH222714   6.066   2.595   9.008 -0.1281 -0.3071  0.6104
  360TIP3    H122715   6.118   2.574   8.930  0.3037 -2.2358  1.3755
  360TIP3    H222716   6.084   2.688   9.024 -0.1408  0.1164 -1.4982
  361TIP3   OH222717   3.515   2.906   8.698 -0.5954  0.3113  0.2239
  361TIP3    H122718   3.547   2.937   8.782 -0.2976 -0.2758  0.3337
  361TIP3    H222719   3.576   2.837   8.672  1.0160  2.3375 -1.8409
  362TIP3   OH222720   2.080   0.667   7.487 -0.6368 -0.1922 -0.2394
  362TIP3    H122721   2.064   0.666   7.393 -0.7468 -0.5141 -0.2175
  362TIP3    H222722   2.080   0.575   7.513  0.5566 -0.1751 -0.1220
  363TIP3   OH222723   4.192   1.278   8.597 -0.0995 -0.0462  0.0260
  363TIP3    H122724   4.105   1.253   8.629 -0.2967  1.2341  0.5446
  363TIP3    H222725   4.239   1.307   8.676  0.7470 -0.5641 -0.2724
  364TIP3   OH222726   1.292   2.979   1.391  0.4440 -0.2685  0.8760
  364TIP3    H122727   1.367   3.035   1.370 -0.3056  1.3243  2.1187
  364TIP3    H222728   1.329   2.910   1.447  1.2572 -0.5604  0.0052
  365TIP3   OH222729   3.230   4.466   1.613 -0.5813 -0.1561  0.0437
  365TIP3    H122730   3.316   4.467   1.654 -1.0196 -1.8591  1.1249
  365TIP3    H222731   3.196   4.555   1.623  0.1845 -0.0150  1.5374
  366TIP3   OH222732   3.507   6.396   8.641  0.7175 -0.4778 -0.8204
  366TIP3    H122733   3.506   6.300   8.650 -0.5835 -0.3011  1.5451
  366TIP3    H222734   3.584   6.423   8.692  0.0015 -0.1678  0.1124
  367TIP3   OH222735   4.459   4.291   3.085  0.1227 -0.2590 -0.1047
  367TIP3    H122736   4.453   4.244   3.002  1.4931 -0.3785 -0.1564
  367TIP3    H222737   4.409   4.238   3.147  0.7868 -1.2334 -0.3943
  368TIP3   OH222738   0.640   4.101   1.582 -0.6491 -0.2243 -0.1507
  368TIP3    H122739   0.709   4.064   1.527  0.0523  0.9396 -0.0987
  368TIP3    H222740   0.638   4.194   1.558 -2.1405 -0.2158 -0.0795
  369TIP3   OH222741   2.200   6.170   0.851 -0.3310 -0.4393 -0.3930
  369TIP3    H122742   2.173   6.124   0.931 -1.6041 -0.0667 -0.5759
  369TIP3    H222743   2.294   6.159   0.847  0.0461  1.0254  2.1317
  370TIP3   OH222744   3.903   0.304   1.330  0.4113  0.6858  0.4643
  370TIP3    H122745   3.884   0.257   1.411  1.4564 -0.3178  0.1549
  370TIP3    H222746   3.941   0.387   1.359 -0.5005  0.9232  1.0065
  371TIP3   OH222747   5.820   2.825   8.049  0.4195 -0.2328  0.5447
  371TIP3    H122748   5.842   2.733   8.035 -0.8827 -0.2187 -2.2534
  371TIP3    H222749   5.724   2.829   8.041  0.6236  1.7314 -2.9039
  372TIP3   OH222750   0.718   2.165   3.089  0.3988  0.4869 -0.3821
  372TIP3    H122751   0.767   2.244   3.063 -0.3264  1.3216  0.7119
  372TIP3    H222752   0.784   2.096   3.091  1.0716  1.0668 -1.2847
  373TIP3   OH222753   3.551   6.614   7.309  0.2249  0.7760 -0.1055
  373TIP3    H122754   3.540   6.529   7.268  0.0235  0.9227 -0.3532
  373TIP3    H222755   3.544   6.677   7.238  2.4397  0.9064 -0.3044
  374TIP3   OH222756   2.477   2.094   7.305 -0.4862  0.2142  0.5250
  374TIP3    H122757   2.525   2.154   7.362  1.7591 -0.5548 -0.4251
  374TIP3    H222758   2.407   2.147   7.267  2.1374  2.6879 -1.2519
  375TIP3   OH222759   2.599   0.835   0.041  0.0967  0.2949  0.1914
  375TIP3    H122760   2.634   0.922   0.058  0.1018  0.0621  1.4182
  375TIP3    H222761   2.669   0.775   0.065  0.1483 -0.0614 -0.7898
  376TIP3   OH222762   5.876   6.593   9.026 -0.1914  0.1491  1.0204
  376TIP3    H122763   5.809   6.531   8.997  0.9991 -0.4247 -0.6335
  376TIP3    H222764   5.842   6.679   9.001 -1.8964  0.2813  3.4122
  377TIP3   OH222765   5.633   2.911   2.784  0.5225 -0.4777 -0.2503
  377TIP3    H122766   5.713   2.937   2.738  0.1461 -0.3782 -0.8570
  377TIP3    H222767   5.650   2.821   2.812  0.7177 -0.5752 -0.6716
  378TIP3   OH222768   5.183   1.307   3.056 -0.8420 -0.5886  0.5503
  378TIP3    H122769   5.122   1.373   3.090 -0.3314  0.0808  0.2011
  378TIP3    H222770   5.141   1.223   3.075 -1.7320 -0.1503  0.5796
  379TIP3   OH222771   3.866   4.872   7.985 -0.2179 -0.1580 -0.2431
  379TIP3    H122772   3.904   4.929   7.918 -3.6195 -0.0138 -2.3390
  379TIP3    H222773   3.850   4.929   8.060 -0.4936  0.8571 -1.0561
  380TIP3   OH222774   4.556   1.190   1.025 -0.0228 -0.2623 -0.3301
  380TIP3    H122775   4.638   1.219   0.986  0.1512  0.6102  0.6478
  380TIP3    H222776   4.489   1.212   0.960  0.5278 -1.2640 -1.2673
  381TIP3   OH222777   3.046   3.625   6.888 -0.4529 -0.4489  0.1244
  381TIP3    H122778   2.986   3.580   6.948 -0.4926 -1.4018 -0.6025
  381TIP3    H222779   3.108   3.670   6.946  0.2599 -2.3291  0.9248
  382TIP3   OH222780   1.387   1.460   8.113  0.0716  0.0001 -0.1956
  382TIP3    H122781   1.457   1.401   8.142 -0.3991  0.1595  1.3646
  382TIP3    H222782   1.357   1.422   8.031  1.6501 -0.3460 -0.6487
  383TIP3   OH222783   3.702   2.968   2.513 -0.3770 -0.0389 -0.7901
  383TIP3    H122784   3.766   2.919   2.563 -2.1688  0.4125  2.2076
  383TIP3    H222785   3.743   2.981   2.427  3.5051  0.2624  0.9068
  384TIP3   OH222786   1.831   1.710   0.614  0.6027 -0.4219  0.6177
  384TIP3    H122787   1.871   1.770   0.678 -0.2876  0.3982  0.4422
  384TIP3    H222788   1.743   1.694   0.649  0.4778 -0.8073  0.1290
  385TIP3   OH222789   4.585   6.339   1.567  0.2510  0.2107  0.3389
  385TIP3    H122790   4.500   6.364   1.531 -0.1728  1.0032  1.7956
  385TIP3    H222791   4.636   6.420   1.564  0.9778 -0.2679 -0.5463
  386TIP3   OH222792   2.789   4.460   7.707  0.3343 -0.7846  0.5750
  386TIP3    H122793   2.859   4.524   7.697  0.4379 -1.0921 -0.9414
  386TIP3    H222794   2.820   4.383   7.660 -0.7131 -1.1590  0.4580
  387TIP3   OH222795   4.373   5.462   0.839 -0.0903 -0.0108 -0.8853
  387TIP3    H122796   4.398   5.487   0.750  0.5650  0.6759 -0.5133
  387TIP3    H222797   4.364   5.544   0.886 -1.0388 -0.3419 -0.4647
  388TIP3   OH222798   0.655   2.485   0.660 -0.3462 -0.4022  0.1835
  388TIP3    H122799   0.595   2.512   0.590 -1.0407 -2.1918  0.0330
  388TIP3    H222800   0.742   2.501   0.625 -0.6941 -0.9127 -0.9570
  389TIP3   OH222801   6.507   0.266   0.387  0.2349  0.3359  0.0346
  389TIP3    H122802   6.532   0.357   0.403  0.7107  0.0332  1.0988
  389TIP3    H222803   6.445   0.246   0.457  0.4451 -0.2824  0.0474
  390TIP3   OH222804   6.144   4.231   2.191 -0.0181  0.3071 -0.0481
  390TIP3    H122805   6.220   4.218   2.135 -0.7313  1.2277 -1.2873
  390TIP3    H222806   6.175   4.286   2.263  0.8395 -0.6674  0.3585
  391TIP3   OH222807   5.300   1.882   0.592  0.0629  0.1695  0.2514
  391TIP3    H122808   5.271   1.804   0.545  0.4826  0.0581  0.1690
  391TIP3    H222809   5.227   1.905   0.650  0.1233 -0.5627  0.6260
  392TIP3   OH222810   2.247   6.037   2.001  0.0821  0.0709 -0.4520
  392TIP3    H122811   2.274   6.002   2.087  1.2133 -0.0330 -0.8273
  392TIP3    H222812   2.327   6.036   1.949 -0.0817  2.2116 -0.8374
  393TIP3   OH222813   6.678   3.556   3.093  0.4781  0.1040 -0.0284
  393TIP3    H122814   6.668   3.618   3.165 -0.4895 -0.6403  0.4998
  393TIP3    H222815   6.768   3.524   3.101  0.8140  1.0435  0.0066
  394TIP3   OH222816   6.059   2.711   1.163 -0.1429 -0.0974 -0.2425
  394TIP3    H122817   6.128   2.707   1.229 -0.4760 -1.0139  0.0621
  394TIP3    H222818   6.024   2.800   1.170  0.1625 -0.0296  0.4719
  395TIP3   OH222819   2.605   2.150   2.868 -0.5742  0.1963  0.2915
  395TIP3    H122820   2.671   2.171   2.935  2.7537  0.7209 -2.8464
  395TIP3    H222821   2.596   2.055   2.874 -1.2795  0.3243  2.1673
  396TIP3   OH222822   0.856   5.823   2.275 -0.4921 -0.0643  0.3232
  396TIP3    H122823   0.822   5.737   2.248 -1.8384  0.5916 -0.1625
  396TIP3    H222824   0.928   5.802   2.334  1.0272 -1.5285 -1.9160
  397TIP3   OH222825   3.872   0.446   8.357  0.7433  0.4263 -0.0874
  397TIP3    H122826   3.790   0.466   8.312  0.6856  0.4003  0.0051
  397TIP3    H222827   3.882   0.351   8.347  0.7026  0.4128  0.0015
  398TIP3   OH222828   2.221   4.097   0.179  0.1024 -0.7957  0.3049
  398TIP3    H122829   2.211   4.027   0.244  1.7579 -1.4536 -0.0865
  398TIP3    H222830   2.248   4.051   0.099  0.6657  0.2372 -0.1168
  399TIP3   OH222831   1.635   2.097   8.237  0.3249 -0.3367 -0.1206
  399TIP3    H122832   1.555   2.047   8.221  0.1344 -0.1249  0.1728
  399TIP3    H222833   1.674   2.056   8.314 -0.5370  0.8053  0.9771
  400TIP3   OH222834   2.518   6.547   0.423 -0.6610 -0.3722  0.5434
  400TIP3    H122835   2.573   6.511   0.493 -0.2672 -0.1872  0.3392
  400TIP3    H222836   2.447   6.484   0.414 -1.6532  0.4420  2.2490
  401TIP3   OH222837   1.418   5.787   9.032  0.4373  0.0231 -0.0626
  401TIP3    H122838   1.360   5.857   9.061  2.0826  0.9465  1.1835
  401TIP3    H222839   1.421   5.725   9.105  2.5891  1.0536  0.8158
  402TIP3   OH222840   1.348   0.757   1.543 -0.0502  0.1180  0.5279
  402TIP3    H122841   1.299   0.773   1.624 -1.3506  1.0049 -0.4037
  402TIP3    H222842   1.398   0.838   1.530  0.4614 -0.1731  0.6201
  403TIP3   OH222843   2.280   1.472   8.517  0.1539  0.5529  0.4466
  403TIP3    H122844   2.326   1.395   8.551  0.4900  1.1249  1.3258
  403TIP3    H222845   2.344   1.516   8.460  0.2829  0.6871  0.6936
  404TIP3   OH222846   5.070   1.233   8.222  0.1526 -0.2664  0.2527
  404TIP3    H122847   5.079   1.328   8.222  1.7891 -0.3799  2.0620
  404TIP3    H222848   4.984   1.217   8.262  0.0589  0.4101  0.3253
  405TIP3   OH222849   4.381   6.011   0.815 -0.0190 -0.0573  0.3247
  405TIP3    H122850   4.300   5.973   0.849 -0.2795 -0.3401 -0.5956
  405TIP3    H222851   4.375   6.104   0.837  1.2933 -0.6289  3.9708
  406TIP3   OH222852   3.697   6.178   0.997 -0.2610 -0.2148 -0.0940
  406TIP3    H122853   3.635   6.198   0.927  1.2367  0.5105 -1.2937
  406TIP3    H222854   3.748   6.104   0.965 -0.2464 -0.5658  0.7025
  407TIP3   OH222855   5.334   0.234   1.157  0.0856 -0.5024 -0.1772
  407TIP3    H122856   5.259   0.252   1.214  0.2310 -0.3199 -0.0420
  407TIP3    H222857   5.371   0.153   1.192  0.1256 -0.4350 -0.0638
  408TIP3   OH222858   3.828   1.278   8.077 -0.0893  0.5620 -0.2515
  408TIP3    H122859   3.851   1.185   8.072 -0.6842  0.4302 -0.5777
  408TIP3    H222860   3.812   1.304   7.986  0.6729  1.1433 -0.2285
  409TIP3   OH222861   4.799   0.070   0.395  0.1919 -0.4993  0.1533
  409TIP3    H122862   4.726   0.106   0.345  1.2709  2.3649  0.4458
  409TIP3    H222863   4.759   0.035   0.474 -0.9395  0.4670  0.0417
  410TIP3   OH222864   0.976   6.425   1.104 -0.4093  0.0546  0.0148
  410TIP3    H122865   0.903   6.483   1.087 -0.2005  0.0697 -0.8892
  410TIP3    H222866   1.040   6.479   1.150 -0.2873  0.4932 -0.6666
  411TIP3   OH222867   6.479   3.484   1.789  0.0143 -0.0736 -0.5422
  411TIP3    H122868   6.393   3.506   1.754 -0.2228 -0.7224 -0.3711
  411TIP3    H222869   6.466   3.403   1.838  0.3723  0.7001  0.8984
  412TIP3   OH222870   3.000   1.202   8.773 -0.3218 -0.1712 -0.0897
  412TIP3    H122871   2.962   1.153   8.700 -3.5422 -1.0706  1.9739
  412TIP3    H222872   3.042   1.135   8.827  1.3649  0.3863 -0.6481
  413TIP3   OH222873   1.305   2.457   1.211  0.5583 -0.4623  1.0376
  413TIP3    H122874   1.278   2.540   1.251  1.1637 -0.1919  0.9054
  413TIP3    H222875   1.400   2.465   1.202  0.3534 -0.0241 -1.5099
  414TIP3   OH222876   1.581   5.091   1.994  0.5184  0.1797  0.1950
  414TIP3    H122877   1.499   5.123   2.032  0.7610 -0.4072  1.2424
  414TIP3    H222878   1.621   5.169   1.955 -0.6709  0.4121 -0.6052
  415TIP3   OH222879   3.991   3.335   8.539 -0.1830 -0.4217 -0.1482
  415TIP3    H122880   3.903   3.308   8.514  0.0371  0.2224 -1.7371
  415TIP3    H222881   4.040   3.253   8.549 -0.5113 -0.7391 -1.0373
  416TIP3   OH222882   4.183   3.220   9.021 -0.7162  0.4268  0.4251
  416TIP3    H122883   4.154   3.179   8.940 -1.3511  1.4815  0.1078
  416TIP3    H222884   4.103   3.231   9.072 -0.2904 -0.4856  1.3340
  417TIP3   OH222885   1.568   1.276   2.477 -0.4694  0.5014  0.0123
  417TIP3    H122886   1.515   1.296   2.555  0.7746 -1.0301  1.3141
  417TIP3    H222887   1.503   1.262   2.408 -1.6895  0.4479  1.1165
  418TIP3   OH222888   3.432   4.287   2.032  0.0578 -0.1602 -0.5974
  418TIP3    H122889   3.484   4.358   2.070  1.6294 -0.9729 -1.1362
  418TIP3    H222890   3.369   4.331   1.976 -0.3636  0.8984  0.6551
  419TIP3   OH222891   5.593   1.265   9.162 -0.1716 -0.7740  0.0105
  419TIP3    H122892   5.653   1.337   9.140 -1.7705  0.4514 -0.4759
  419TIP3    H222893   5.554   1.240   9.079  0.3404 -2.2474  0.1738
  420TIP3   OH222894   0.946   0.540   0.183 -0.3186 -0.8360 -0.1267
  420TIP3    H122895   0.886   0.583   0.245 -0.5175  0.0897 -0.9315
  420TIP3    H222896   0.904   0.552   0.098  1.7271  1.2398 -0.9411
  421TIP3   OH222897   3.675   1.287   0.981  0.0113 -0.4630 -0.0789
  421TIP3    H122898   3.602   1.290   0.918  0.5122  0.0046 -0.6471
  421TIP3    H222899   3.749   1.325   0.934  0.4011 -0.1076  0.7957
  422TIP3   OH222900   2.189   3.097   7.796  0.5950  0.0364  0.2151
  422TIP3    H122901   2.121   3.034   7.772  1.2343 -0.6015  0.0377
  422TIP3    H222902   2.247   3.049   7.854 -0.2892  1.2210  2.2162
  423TIP3   OH222903   4.453   5.589   0.003 -0.2166  0.0640  0.0643
  423TIP3    H122904   4.500   5.506  -0.008  0.0006  0.0729  0.8659
  423TIP3    H222905   4.518   5.649   0.040  0.0345  1.0295 -1.8060
  424TIP3   OH222906   2.091   5.400   0.254  0.6630 -0.0318 -0.1311
  424TIP3    H122907   2.037   5.452   0.314  0.0441  0.4605 -1.0961
  424TIP3    H222908   2.089   5.311   0.292  1.8121  0.6168  1.5827
  425TIP3   OH222909   3.728   6.561   7.973  0.7392 -0.2436 -0.1071
  425TIP3    H122910   3.669   6.637   7.976  0.5065 -0.4332  2.3565
  425TIP3    H222911   3.678   6.491   8.014  2.1004 -0.8404  0.5836
  426TIP3   OH222912   4.637   1.444   1.167  0.5376  0.5418  0.0172
  426TIP3    H122913   4.731   1.459   1.160  0.4705  0.6923 -0.6497
  426TIP3    H222914   4.625   1.354   1.136  0.3728  0.8012 -0.6940
  427TIP3   OH222915   3.977   4.398   1.670 -0.1887  0.3183  0.4695
  427TIP3    H122916   4.000   4.306   1.655 -1.6987 -0.0798  0.5109
  427TIP3    H222917   3.884   4.404   1.651 -0.1537  1.8273  0.6026
  428TIP3   OH222918   2.931   0.109   0.119 -0.0446 -0.6469  0.9103
  428TIP3    H122919   2.866   0.155   0.173 -0.0813  2.4792 -1.5687
  428TIP3    H222920   3.001   0.172   0.107  0.8605 -1.9582 -1.0618
  429TIP3   OH222921   5.581   2.718   8.533 -0.0822 -0.6448  0.0876
  429TIP3    H122922   5.498   2.690   8.570  0.5838 -1.5635  0.9528
  429TIP3    H222923   5.569   2.811   8.513 -1.2066 -0.6962  0.4772
  430TIP3   OH222924   1.386   3.228   0.780  0.1890 -0.0216  0.3964
  430TIP3    H122925   1.449   3.265   0.718  0.3192 -1.0220 -0.0964
  430TIP3    H222926   1.307   3.280   0.768  0.8579  1.1595  0.9154
  431TIP3   OH222927   0.744   6.026   8.590 -0.6240  0.2532  0.9284
  431TIP3    H122928   0.801   6.074   8.530 -0.9982  1.8040  1.7603
  431TIP3    H222929   0.790   6.029   8.674  0.2768 -2.5562  0.6501
  432TIP3   OH222930   1.976   3.468   1.663 -0.3347 -0.5528 -0.1976
  432TIP3    H122931   1.983   3.506   1.575  0.9519 -0.8901 -0.2567
  432TIP3    H222932   1.883   3.449   1.673 -0.3390 -1.7579 -2.0228
  433TIP3   OH222933   2.429   3.688   8.507 -0.0757  0.2143 -0.4421
  433TIP3    H122934   2.442   3.624   8.577 -1.6255  1.8544  1.4720
  433TIP3    H222935   2.479   3.654   8.433  1.0535 -1.9698  1.2285
  434TIP3   OH222936   0.136   0.095   8.682 -0.9795 -0.1553  0.2654
  434TIP3    H122937   0.151   0.116   8.774 -1.5733 -1.8937  0.8049
  434TIP3    H222938   0.055   0.141   8.660 -0.3511  1.0161  0.3063
  435TIP3   OH222939   0.877   6.662   1.426  0.0329 -0.0996 -0.0312
  435TIP3    H122940   0.795   6.683   1.472  0.0647 -1.4752  0.7113
  435TIP3    H222941   0.946   6.678   1.491  0.4321  1.3625 -0.7507
  436TIP3   OH222942   2.952   6.417   8.751 -0.5895  0.1785 -0.7606
  436TIP3    H122943   2.910   6.498   8.783 -0.0022  0.4187 -0.5894
  436TIP3    H222944   3.045   6.432   8.764 -0.4342 -0.2700 -1.3435
  437TIP3   OH222945   4.686   5.898   8.971 -0.5378 -0.4046 -0.0923
  437TIP3    H122946   4.713   5.854   8.890  3.0090 -1.2681  1.3459
  437TIP3    H222947   4.701   5.833   9.040  0.4201  1.5116  1.6331
  438TIP3   OH222948   0.046   4.908   7.541  0.2257 -0.7478  0.1788
  438TIP3    H122949  -0.024   4.847   7.563 -0.1658  0.5300  2.7127
  438TIP3    H222950   0.119   4.883   7.598  0.5898  0.1994  0.1434
  439TIP3   OH222951   1.991   5.844   7.357 -0.5169  0.5466  0.0601
  439TIP3    H122952   1.960   5.756   7.336 -1.1099  0.6758  0.3824
  439TIP3    H222953   2.081   5.831   7.386 -1.2944 -0.2437  2.2638
  440TIP3   OH222954   3.586   5.554   7.589  0.5995  0.1392  0.9334
  440TIP3    H122955   3.594   5.645   7.616 -2.2978  1.3301 -1.5844
  440TIP3    H222956   3.657   5.540   7.527  0.3345  1.1690  0.3649
  441TIP3   OH222957   6.010   5.016   7.628  0.2185 -0.4681 -0.2985
  441TIP3    H122958   5.931   4.993   7.579 -1.0798  0.9056  1.0455
  441TIP3    H222959   6.072   5.047   7.562 -0.7412 -0.5424 -1.2580
  442TIP3   OH222960   1.468   3.219   3.056 -0.6858 -0.0713 -0.5414
  442TIP3    H122961   1.534   3.262   3.109  0.3249 -0.8542 -1.1194
  442TIP3    H222962   1.446   3.139   3.104 -0.5436 -0.2603 -0.7888
  443TIP3   OH222963   0.394   5.980   8.118 -0.4659  0.9518 -0.5889
  443TIP3    H122964   0.391   5.997   8.211  2.3373 -1.4699  0.1251
  443TIP3    H222965   0.373   5.886   8.110  2.0894  0.3850 -1.9347
  444TIP3   OH222966   2.805   3.374   2.557  0.0959  0.4104 -0.7965
  444TIP3    H122967   2.802   3.297   2.613 -0.1230  1.7795  1.1751
  444TIP3    H222968   2.718   3.413   2.565  0.2136  0.9008 -1.7324
  445TIP3   OH222969   3.759   1.015   0.707 -0.7046  0.0683  0.3035
  445TIP3    H122970   3.793   1.021   0.797  0.7410 -1.0437 -0.1429
  445TIP3    H222971   3.740   1.106   0.683 -0.9616  0.4037  1.6584
  446TIP3   OH222972   5.559   3.816   1.825 -0.1099 -0.1040 -0.3885
  446TIP3    H122973   5.519   3.731   1.805 -0.8508  0.4048 -1.1396
  446TIP3    H222974   5.645   3.813   1.784  0.5938 -1.1261  1.0510
  447TIP3   OH222975   3.364   3.092   0.553  0.8139 -0.0459 -0.0386
  447TIP3    H122976   3.312   3.012   0.561 -1.0225  0.9258 -1.3337
  447TIP3    H222977   3.426   3.074   0.483  0.4869 -0.3847 -0.2427
  448TIP3   OH222978   2.378   3.635   1.824  0.3449  0.6366  0.0837
  448TIP3    H122979   2.398   3.710   1.768 -0.5546  0.5319 -0.4019
  448TIP3    H222980   2.348   3.675   1.906  0.5813  0.7998  0.0915
  449TIP3   OH222981   2.962   0.605   8.578 -0.5711 -0.3325 -0.3328
  449TIP3    H122982   2.905   0.681   8.582  0.0678  0.0990  1.3991
  449TIP3    H222983   3.036   0.634   8.524  0.4461  0.8945  1.5861
  450TIP3   OH222984   2.774   6.495   2.342 -0.0660 -0.1365 -0.5235
  450TIP3    H122985   2.844   6.447   2.386 -0.9901 -1.0135  0.0691
  450TIP3    H222986   2.720   6.530   2.413 -1.2747 -1.0971 -0.9166
  451TIP3   OH222987   5.462   1.536   7.654 -0.3325 -0.3886 -0.0611
  451TIP3    H122988   5.375   1.499   7.634 -0.1760  0.0849 -1.8119
  451TIP3    H222989   5.443   1.612   7.709 -0.9244 -1.0368  0.6521
  452TIP3   OH222990   2.994   1.111   2.284  0.1925  0.1031 -0.1749
  452TIP3    H122991   2.999   1.100   2.379  0.5576 -3.1944 -0.4612
  452TIP3    H222992   2.905   1.083   2.261 -0.1951  1.7123 -0.7820
  453TIP3   OH222993   6.308   2.021   1.432  0.2314  0.5584  0.4192
  453TIP3    H122994   6.365   2.066   1.494 -2.0599  0.4608  2.7338
  453TIP3    H222995   6.220   2.052   1.453 -0.9764 -1.8138 -0.7262
  454TIP3   OH222996   2.180   2.783   9.032  0.4230  0.2205 -0.3973
  454TIP3    H122997   2.108   2.840   9.062 -0.9586 -2.0501  0.9812
  454TIP3    H222998   2.255   2.810   9.084 -0.0928  1.0470 -0.0639
  455TIP3   OH222999   2.437   2.597   8.800 -0.0266 -0.0136 -0.5611
  455TIP3    H123000   2.368   2.582   8.866  1.3153  0.2112  0.9424
  455TIP3    H223001   2.411   2.542   8.726 -1.5254 -0.3647  0.1845
  456TIP3   OH223002   5.028   0.276   1.663 -0.5305  0.1825 -0.5664
  456TIP3    H123003   4.955   0.215   1.674  0.4943 -1.0664 -0.3404
  456TIP3    H223004   5.032   0.323   1.746 -0.4876 -0.4413 -0.2042
  457TIP3   OH223005   6.137   0.379   0.661  0.7907 -0.2728  0.0012
  457TIP3    H123006   6.043   0.368   0.646  1.1076 -2.9675 -0.4349
  457TIP3    H223007   6.145   0.383   0.756  0.1233  1.9928  0.0279
  458TIP3   OH223008   3.703   4.979   1.201 -0.3054 -0.0734  0.1891
  458TIP3    H123009   3.758   5.055   1.220 -0.1270 -0.8610  3.4014
  458TIP3    H223010   3.624   4.992   1.255 -2.5548  0.0852 -2.8465
  459TIP3   OH223011   1.206   4.913   7.670  0.0232  0.7133 -0.3383
  459TIP3    H123012   1.198   4.996   7.624  1.4565  0.9920 -0.1247
  459TIP3    H223013   1.291   4.917   7.713  1.9679 -2.4112 -3.4204
  460TIP3   OH223014   1.007   0.998   7.237 -0.1315  0.1228  0.4427
  460TIP3    H123015   1.024   0.909   7.206 -0.3260 -0.7105  2.5258
  460TIP3    H223016   0.918   0.994   7.273  0.2430  0.8544  1.4960
  461TIP3   OH223017   1.490   3.440   2.872  0.4290 -0.3439 -0.0899
  461TIP3    H123018   1.494   3.524   2.918  0.8471  0.4516 -1.5176
  461TIP3    H223019   1.481   3.375   2.941 -0.0520  0.8859  1.0400
  462TIP3   OH223020   6.425   1.383   7.711 -0.3036 -0.2540  0.4663
  462TIP3    H123021   6.347   1.435   7.732  1.2472  1.4222  2.6344
  462TIP3    H223022   6.423   1.375   7.616 -2.5236  0.6740  0.3486
  463TIP3   OH223023   4.892   1.739   1.159  0.0781 -0.1552  0.0027
  463TIP3    H123024   4.960   1.801   1.183 -0.1452  0.1448 -0.1251
  463TIP3    H223025   4.816   1.765   1.212 -0.3248  0.3228 -0.7778
  464TIP3   OH223026   4.158   2.572   2.375 -0.3893  0.3432  0.0763
  464TIP3    H123027   4.168   2.605   2.286 -0.5033  0.2317  0.0228
  464TIP3    H223028   4.247   2.571   2.411 -0.2179 -0.5023 -0.3465
  465TIP3   OH223029   3.353   6.511   1.292 -0.3851  0.1301 -0.3952
  465TIP3    H123030   3.305   6.486   1.213  1.6035 -0.4012 -1.5116
  465TIP3    H223031   3.423   6.446   1.299 -1.0157 -0.3783  2.3628
  466TIP3   OH223032   5.388   6.609   0.314 -0.0010 -0.0793  0.1161
  466TIP3    H123033   5.323   6.540   0.329 -2.8757  2.2898 -0.6053
  466TIP3    H223034   5.454   6.567   0.259 -1.1171 -2.5116  0.4852
  467TIP3   OH223035   1.165   3.728   0.639 -0.4098  0.3218 -0.4185
  467TIP3    H123036   1.155   3.807   0.692  0.6888 -0.0575  0.3996
  467TIP3    H223037   1.091   3.672   0.664 -1.4348  1.2304 -1.3161
  468TIP3   OH223038   1.438   5.799   1.173 -0.3783 -0.2761  0.1010
  468TIP3    H123039   1.406   5.839   1.254 -0.7486  1.5835 -0.8897
  468TIP3    H223040   1.397   5.851   1.104  0.0169 -1.7462 -1.2827
  469TIP3   OH223041   6.564   0.867   1.068 -0.0154 -0.5307  0.6407
  469TIP3    H123042   6.474   0.836   1.075 -0.0675 -0.7892 -0.9484
  469TIP3    H223043   6.561   0.937   1.004  0.9167 -0.5479  0.5599
  470TIP3   OH223044   5.752   4.940   7.957  0.0776 -0.3983 -0.2600
  470TIP3    H123045   5.734   5.029   7.928 -1.3616  0.2620  2.3780
  470TIP3    H223046   5.718   4.936   8.046  0.7647 -3.3886 -0.0218
  471TIP3   OH223047   2.598   4.193   0.232 -0.1058  0.2504  0.5200
  471TIP3    H123048   2.564   4.108   0.205  1.0487  0.4324 -1.7775
  471TIP3    H223049   2.689   4.193   0.205  0.1830  1.8832  1.3189
  472TIP3   OH223050   3.494   1.516   8.869  0.3109  0.2500  0.8317
  472TIP3    H123051   3.546   1.452   8.820 -0.9702 -1.4260  1.5883
  472TIP3    H223052   3.544   1.531   8.949  1.0269  0.8760  0.2876
  473TIP3   OH223053   3.114   3.798   2.357  0.1752  0.3220 -0.6782
  473TIP3    H123054   3.058   3.727   2.389  0.4842 -0.1454 -1.1584
  473TIP3    H223055   3.130   3.776   2.265  2.0583 -0.1610 -0.2647
  474TIP3   OH223056   3.318   5.421   7.978 -0.1468  1.1549 -0.0516
  474TIP3    H123057   3.409   5.434   7.949  0.2131 -0.1168  0.4079
  474TIP3    H223058   3.297   5.331   7.950 -1.7285  1.8723 -1.2936
  475TIP3   OH223059   5.278   2.507   1.798  0.4873  0.4477 -0.8059
  475TIP3    H123060   5.224   2.579   1.765  2.2290  2.1551 -0.0817
  475TIP3    H223061   5.248   2.430   1.748 -2.1886  1.3993 -0.8036
  476TIP3   OH223062   0.447   1.199   1.535  0.0127 -0.4660  0.3758
  476TIP3    H123063   0.498   1.237   1.607 -0.8864  0.8367  0.3415
  476TIP3    H223064   0.356   1.204   1.565 -0.2330 -1.4286 -0.1813
  477TIP3   OH223065   3.595   6.330   1.231  0.0669  0.2169  0.5492
  477TIP3    H123066   3.656   6.311   1.160  2.0944  1.1987  1.8970
  477TIP3    H223067   3.652   6.352   1.305 -1.8650 -2.1130  2.9142
  478TIP3   OH223068   0.237   6.435   3.190  0.1658 -0.5434 -0.6857
  478TIP3    H123069   0.264   6.488   3.265  1.4998 -0.0877 -1.4615
  478TIP3    H223070   0.205   6.354   3.228 -0.2860  0.1280  0.4301
  479TIP3   OH223071   1.469   4.242   2.093  0.0730 -0.2671  0.1099
  479TIP3    H123072   1.486   4.197   2.176  1.7511 -0.1290 -0.1171
  479TIP3    H223073   1.398   4.303   2.112 -0.5664 -1.2880  1.0549
  480TIP3   OH223074   1.459   1.568   2.394  0.1617  0.1103 -0.0562
  480TIP3    H123075   1.456   1.473   2.394  0.5798  0.0885  0.6134
  480TIP3    H223076   1.378   1.595   2.351 -0.9254 -0.5441  1.4798
  481TIP3   OH223077   0.568   3.626   2.154  0.8671 -1.0199  0.6110
  481TIP3    H123078   0.632   3.555   2.161  0.6441 -1.3801 -0.6649
  481TIP3    H223079   0.612   3.692   2.100 -0.7294 -2.4581 -2.7245
  482TIP3   OH223080   5.144   2.379   1.585  0.5715  0.2388 -0.5520
  482TIP3    H123081   5.192   2.305   1.546 -1.8913 -1.5820 -0.4130
  482TIP3    H223082   5.123   2.435   1.511 -0.2703 -0.9098 -1.2266
  483TIP3   OH223083   1.026   0.483   1.357  0.4693  0.1466  0.0497
  483TIP3    H123084   0.986   0.425   1.422 -0.4815  0.7626  0.0399
  483TIP3    H223085   0.987   0.455   1.273  0.9317  0.0074 -0.1207
  484TIP3   OH223086   5.090   3.379   2.122 -0.3953 -0.2058 -0.3709
  484TIP3    H123087   5.044   3.462   2.128  0.7989  0.4825 -0.3684
  484TIP3    H223088   5.145   3.376   2.201  2.9095  1.1323 -2.4405
  485TIP3   OH223089   5.626   3.457   1.957 -0.5472 -0.1945 -0.6818
  485TIP3    H123090   5.562   3.483   2.023 -0.2747  1.1454 -0.9174
  485TIP3    H223091   5.587   3.485   1.874 -0.7229 -1.5418 -1.0674
  486TIP3   OH223092   2.382   0.106   2.573 -0.2123  0.0058 -0.0120
  486TIP3    H123093   2.380   0.021   2.529  1.6699 -0.3739  0.5428
  486TIP3    H223094   2.476   0.126   2.583 -0.5043  0.3295  3.2459
  487TIP3   OH223095   1.541   5.440   7.456 -0.0246  0.6040 -0.4177
  487TIP3    H123096   1.497   5.399   7.530 -0.3708 -1.5176 -1.7052
  487TIP3    H223097   1.522   5.533   7.466 -1.3885  0.2065  1.2773
  488TIP3   OH223098   1.844   3.629   3.079 -0.2599  0.2960  0.2315
  488TIP3    H123099   1.853   3.534   3.093 -0.5985 -0.3106 -2.8726
  488TIP3    H223100   1.932   3.664   3.093 -0.2697 -0.3342  2.0809
  489TIP3   OH223101   3.885   1.680   2.352 -0.1034 -0.5718  0.4509
  489TIP3    H123102   3.885   1.591   2.387 -0.8144 -0.1519  1.5550
  489TIP3    H223103   3.843   1.733   2.420 -1.7232  0.2510 -1.0917
  490TIP3   OH223104   5.841   5.420   1.473  0.3308 -0.6767 -0.5696
  490TIP3    H123105   5.800   5.338   1.504 -2.5519  0.4012 -1.1752
  490TIP3    H223106   5.883   5.456   1.551 -1.3813 -1.0751  0.6017
  491TIP3   OH223107   6.373   0.959   1.609  0.0163  0.6123 -0.1524
  491TIP3    H123108   6.310   1.004   1.552 -0.1147 -0.6083 -1.0203
  491TIP3    H223109   6.327   0.949   1.692 -0.6353  0.4396 -0.5287
  492TIP3   OH223110   5.663   3.599   0.903 -0.3050 -0.4636 -0.1905
  492TIP3    H123111   5.605   3.623   0.975 -0.5456  1.1170 -0.8698
  492TIP3    H223112   5.750   3.627   0.932 -0.2134 -0.8759 -0.0571
  493TIP3   OH223113   4.446   1.879   3.081  0.4416 -0.2935 -0.5980
  493TIP3    H123114   4.480   1.795   3.112  2.1554  0.9224  1.0436
  493TIP3    H223115   4.510   1.944   3.112 -1.9162  1.8472  0.0767
  494TIP3   OH223116   6.057   0.584   2.751  0.0150 -0.2851 -0.1496
  494TIP3    H123117   6.065   0.625   2.665  1.5548 -1.7268 -0.7488
  494TIP3    H223118   6.147   0.580   2.784 -0.4500 -0.5298  1.1683
  495TIP3   OH223119   6.180   0.932   2.176 -0.1706  0.5466 -0.0526
  495TIP3    H123120   6.131   0.885   2.243 -0.1246  1.9995  1.0529
  495TIP3    H223121   6.224   0.864   2.126 -0.4105 -0.5996  1.2356
  496TIP3   OH223122   6.567   5.322   1.194  0.0588  0.1457  0.5894
  496TIP3    H123123   6.628   5.249   1.206  0.8131  0.6371 -0.1940
  496TIP3    H223124   6.498   5.285   1.139  0.6950  0.1487 -0.2309
  497TIP3   OH223125   3.828   6.572   9.014 -0.3880  0.0900  0.6168
  497TIP3    H123126   3.834   6.643   8.951  1.5844 -0.5103  0.0354
  497TIP3    H223127   3.812   6.615   9.098 -0.6891  1.0817  0.0575
  498TIP3   OH223128   0.084   1.932   7.662  0.5791 -0.0356  0.1790
  498TIP3    H123129   0.003   1.968   7.697  1.6002  2.7396 -0.1045
  498TIP3    H223130   0.062   1.908   7.572  0.0817  0.7050  0.0965
  499TIP3   OH223131   2.223   4.913   1.314  0.2197  0.0648 -0.5517
  499TIP3    H123132   2.178   4.934   1.395  1.3311 -0.0349  0.1170
  499TIP3    H223133   2.260   4.826   1.329  1.5147  0.5713 -0.6685
  500TIP3   OH223134   5.997   4.364   7.799 -0.3779 -0.2294  0.6288
  500TIP3    H123135   5.920   4.317   7.833 -0.2716  0.2756  1.5779
  500TIP3    H223136   6.023   4.423   7.870 -0.1512  0.8493 -0.3194
  501TIP3   OH223137   2.311   6.521   8.111 -0.3541  0.2539 -0.7940
  501TIP3    H123138   2.358   6.454   8.060 -0.0056 -0.5641  0.5466
  501TIP3    H223139   2.378   6.561   8.166 -0.7587  0.9862 -0.8179
  502TIP3   OH223140   3.906   3.686   0.555 -0.8713  0.2051  0.6544
  502TIP3    H123141   3.945   3.773   0.547 -1.3206  0.2745 -1.3323
  502TIP3    H223142   3.938   3.638   0.479 -1.1558 -1.1790  1.3656
  503TIP3   OH223143   5.298   3.931   9.184  0.2057 -0.5764 -0.0197
  503TIP3    H123144   5.378   3.983   9.194 -0.5965  0.3975  1.8992
  503TIP3    H223145   5.236   3.992   9.143  0.3097 -1.1953 -1.1167
  504TIP3   OH223146   0.920   0.231   7.530 -0.1403 -0.0712  0.0414
  504TIP3    H123147   0.861   0.276   7.590 -0.5439 -0.5033 -0.0326
  504TIP3    H223148   0.865   0.168   7.484 -0.1159  1.0491 -1.6367
  505TIP3   OH223149   0.653   2.436   8.744 -0.1392  0.5062  0.0777
  505TIP3    H123150   0.723   2.372   8.755 -1.2316 -1.2201 -2.2462
  505TIP3    H223151   0.693   2.507   8.693  0.0271 -0.3353 -0.9878
  506TIP3   OH223152   3.729   4.194   8.093 -0.3049  0.3744 -0.4133
  506TIP3    H123153   3.659   4.143   8.132 -1.2769  1.2582 -0.9733
  506TIP3    H223154   3.715   4.283   8.124  0.0918  0.7101 -1.1592
  507TIP3   OH223155   0.935   2.576   2.557  0.3588 -0.1764  0.0201
  507TIP3    H123156   0.941   2.616   2.471  0.2180  1.8914  0.9024
  507TIP3    H223157   0.890   2.493   2.543 -1.7868  1.1702 -1.6061
  508TIP3   OH223158   4.168   1.853   0.793  0.4983  0.4054  0.4551
  508TIP3    H123159   4.203   1.819   0.710 -1.6228  1.3128 -0.9291
  508TIP3    H223160   4.236   1.835   0.858  2.7365  0.6197 -1.6729
  509TIP3   OH223161   3.001   2.743   1.901  0.2618 -0.5301 -0.0871
  509TIP3    H123162   2.932   2.743   1.835  0.3391  1.8079 -0.2445
  509TIP3    H223163   3.016   2.650   1.921 -1.1698 -1.1820 -1.8521
  510TIP3   OH223164   0.689   4.220   0.059 -0.1264 -0.1415  0.0166
  510TIP3    H123165   0.618   4.156   0.067  0.0020 -0.2549  0.2675
  510TIP3    H223166   0.644   4.304   0.049 -0.3002 -0.1955  0.3200
  511TIP3   OH223167   5.332   6.661   2.815 -0.2567 -0.5030 -0.0948
  511TIP3    H123168   5.363   6.572   2.832 -0.0552 -0.4854 -0.3568
  511TIP3    H223169   5.308   6.695   2.901  1.5498 -0.1144  0.2894
  512TIP3   OH223170   4.333   0.264   0.360  0.2711 -0.1948 -0.8753
  512TIP3    H123171   4.388   0.312   0.422  1.8093 -1.0998 -1.4959
  512TIP3    H223172   4.276   0.331   0.322  1.3246  0.8809 -0.6172
  513TIP3   OH223173   3.378   4.777   7.931  0.6633  0.0118  0.1837
  513TIP3    H123174   3.339   4.779   7.843 -1.1149  1.4973  0.9600
  513TIP3    H223175   3.436   4.701   7.929 -0.3100 -0.7486 -1.8721
  514TIP3   OH223176   0.022   5.418   1.464 -0.4157  0.2919 -0.3815
  514TIP3    H123177  -0.024   5.396   1.383 -0.9808  0.5092 -0.1265
  514TIP3    H223178   0.081   5.489   1.440 -0.7448  0.5090 -0.5532
  515TIP3   OH223179   3.699   5.256   1.884  0.4412 -0.0526  0.9507
  515TIP3    H123180   3.680   5.208   1.965 -1.4995  0.1895  0.6856
  515TIP3    H223181   3.615   5.294   1.859  1.5941  2.3168  0.3792
  516TIP3   OH223182   3.084   3.753   2.865  0.5686  0.0642 -0.5460
  516TIP3    H123183   2.993   3.754   2.896  0.1818  0.8872 -1.6465
  516TIP3    H223184   3.096   3.839   2.825  2.4164  0.6586  1.1807
  517TIP3   OH223185   0.255   5.152   1.819 -0.1225 -0.0064 -0.0190
  517TIP3    H123186   0.268   5.223   1.882  1.5354 -0.1767 -0.1194
  517TIP3    H223187   0.252   5.195   1.734 -2.3665  0.2235  0.1234
  518TIP3   OH223188   0.165   4.173   1.274 -0.2353 -0.0740 -0.3943
  518TIP3    H123189   0.252   4.152   1.308 -0.0559  0.8411 -0.2578
  518TIP3    H223190   0.176   4.258   1.231 -1.1204  0.1868 -0.1265
  519TIP3   OH223191   5.276   0.927   0.353  0.4347  0.0003  0.2000
  519TIP3    H123192   5.252   0.931   0.445  0.3188  0.9923  0.1387
  519TIP3    H223193   5.269   1.018   0.322  0.0248 -0.3821 -0.8946
  520TIP3   OH223194   0.147   5.013   8.233  0.1250  0.3503 -0.2231
  520TIP3    H123195   0.117   5.024   8.143 -0.6879  0.9256  0.1134
  520TIP3    H223196   0.222   4.953   8.226 -0.1801  0.0718 -1.2326
  521TIP3   OH223197   6.415   1.430   8.983 -0.1656  0.1407  0.5132
  521TIP3    H123198   6.352   1.407   8.915 -0.6308  2.7169 -0.0260
  521TIP3    H223199   6.362   1.471   9.052  0.6643  0.3124  1.0710
  522TIP3   OH223200   1.451   4.600   7.772 -0.7541  0.5925 -0.0768
  522TIP3    H123201   1.496   4.550   7.840 -1.5961 -0.0468  0.0263
  522TIP3    H223202   1.482   4.690   7.783  1.2624  0.0237 -0.6560
  523TIP3   OH223203   1.369   5.626   1.759  0.3594  0.3044 -0.1147
  523TIP3    H123204   1.434   5.668   1.703 -0.6906  0.2404 -1.4157
  523TIP3    H223205   1.421   5.571   1.819  1.4499 -1.7633 -2.7658
  524TIP3   OH223206   4.470   0.514   2.920 -0.6782  0.0650  0.2909
  524TIP3    H123207   4.385   0.475   2.896 -1.6907  1.3322  1.6611
  524TIP3    H223208   4.524   0.439   2.945 -1.6603 -0.7085  0.1538
  525TIP3   OH223209   4.781   6.550   1.215 -0.4322 -0.1555 -0.1513
  525TIP3    H123210   4.829   6.477   1.175  1.4337 -0.5320  2.5077
  525TIP3    H223211   4.753   6.516   1.300 -1.3218  1.5844  0.2962
  526TIP3   OH223212   1.955   1.125   7.826 -0.6878 -0.0823 -0.1257
  526TIP3    H123213   1.894   1.084   7.765 -0.2290  0.2748 -0.8449
  526TIP3    H223214   2.007   1.185   7.771  0.4074 -0.4913  0.4305
  527TIP3   OH223215   3.269   5.940   2.484 -0.0369  0.4815 -0.3211
  527TIP3    H123216   3.327   5.972   2.553 -1.2921 -0.3378  1.1761
  527TIP3    H223217   3.319   5.869   2.442  0.2594  0.1369  0.5890
  528TIP3   OH223218   1.666   4.946   0.842  0.8427 -0.3514  0.3139
  528TIP3    H123219   1.685   4.993   0.761 -0.6376  0.8689  0.6355
  528TIP3    H223220   1.691   5.008   0.911 -1.8109  0.3482  0.7492
  529TIP3   OH223221   4.073   4.498   2.407  0.2866  0.2787  0.0620
  529TIP3    H123222   3.992   4.460   2.441  0.4149 -1.0523 -1.0290
  529TIP3    H223223   4.138   4.477   2.473  0.2365 -0.9495 -0.2500
  530TIP3   OH223224   3.735   5.019   8.178  0.0887  0.3632  0.4127
  530TIP3    H123225   3.656   4.970   8.155  1.8354 -2.1094 -0.7323
  530TIP3    H223226   3.735   5.021   8.274 -0.6989 -0.7648  0.4485
  531TIP3   OH223227   4.503   3.520   7.699  0.1436 -0.4026  0.1821
  531TIP3    H123228   4.572   3.471   7.743  0.6713 -0.3444 -0.5615
  531TIP3    H223229   4.547   3.564   7.627 -0.7134 -0.5968 -0.4855
  532TIP3   OH223230   5.803   4.462   2.451  0.1235  0.4208  0.2941
  532TIP3    H123231   5.724   4.409   2.441  0.3228 -0.1264  1.4417
  532TIP3    H223232   5.771   4.550   2.470 -0.2014  0.4995 -0.5544
  533TIP3   OH223233   1.921   1.044   0.710  0.3079  0.6485  0.1501
  533TIP3    H123234   1.940   1.040   0.804  1.4899  1.1991 -0.0387
  533TIP3    H223235   2.005   1.025   0.668 -0.0790  0.9474 -0.7873
  534TIP3   OH223236   3.944   4.898   1.284 -0.1783 -0.3963 -0.1250
  534TIP3    H123237   3.853   4.910   1.255 -0.6788 -3.5025 -0.1124
  534TIP3    H223238   3.994   4.961   1.232 -2.0009 -0.4989 -2.1143
  535TIP3   OH223239   3.148   5.665   8.038 -0.7228 -0.4250 -0.0778
  535TIP3    H123240   3.169   5.573   8.047 -1.8874 -0.5942  1.2062
  535TIP3    H223241   3.079   5.681   8.102 -1.0210  1.1865 -0.7357
  536TIP3   OH223242   4.702   4.108   1.837 -0.2182  0.6521  0.3553
  536TIP3    H123243   4.615   4.091   1.801 -0.6139  1.0577  1.1057
  536TIP3    H223244   4.746   4.023   1.835 -0.4314  0.5503 -0.5368
  537TIP3   OH223245   1.824   0.288   1.657 -0.3605  0.1030 -0.1816
  537TIP3    H123246   1.910   0.258   1.685 -0.2083 -0.2107 -0.9671
  537TIP3    H223247   1.842   0.357   1.594 -0.5939 -1.8571 -2.5257
  538TIP3   OH223248   2.373   2.027   1.293  0.4020 -0.1257  0.4891
  538TIP3    H123249   2.440   1.961   1.310 -0.6283 -1.3010  0.1374
  538TIP3    H223250   2.376   2.084   1.370  0.2960 -1.4897  1.5495
  539TIP3   OH223251   3.191   4.867   0.763  0.1213 -0.5070  0.8911
  539TIP3    H123252   3.238   4.920   0.827  2.6789 -0.7345 -0.6568
  539TIP3    H223253   3.218   4.777   0.780  1.5848 -0.4892 -0.9628
  540TIP3   OH223254   5.699   2.609   2.097 -0.0651 -0.2630 -0.3576
  540TIP3    H123255   5.697   2.521   2.135 -0.4446 -0.9258 -1.8562
  540TIP3    H223256   5.792   2.627   2.083  0.2777  0.8020  2.5760
  541TIP3   OH223257   3.230   2.181   2.194  0.5183 -0.4436 -0.4407
  541TIP3    H123258   3.200   2.094   2.220  0.3687 -0.7243 -1.5203
  541TIP3    H223259   3.159   2.240   2.221  0.5400 -0.6679  0.1229
  542TIP3   OH223260   3.323   5.362   1.539 -0.3228 -0.1014  0.3812
  542TIP3    H123261   3.359   5.416   1.469  0.7820  0.8906  1.6471
  542TIP3    H223262   3.228   5.373   1.532 -0.4114 -1.8143 -2.2930
  543TIP3   OH223263   1.108   4.738   8.978 -0.0270 -0.5468  0.5011
  543TIP3    H123264   1.157   4.803   8.926 -0.4308  0.5295  1.4195
  543TIP3    H223265   1.050   4.791   9.033 -1.1678 -1.7520  0.4856
  544TIP3   OH223266   1.984   1.179   0.994  0.1493  0.0659  0.3006
  544TIP3    H123267   2.045   1.251   0.977 -0.1710  0.5541  1.1567
  544TIP3    H223268   1.907   1.221   1.032  0.3282 -0.8071  1.7208
  545TIP3   OH223269   0.642   6.279   1.469  0.2962 -0.0449  0.2494
  545TIP3    H123270   0.716   6.307   1.522 -0.0205  1.3236 -0.0037
  545TIP3    H223271   0.649   6.330   1.388 -1.0087  0.2362  0.2868
  546TIP3   OH223272   1.927   2.892   9.052  0.0116  0.0933  0.5304
  546TIP3    H123273   1.942   2.855   9.139  2.2991  0.2341  0.2663
  546TIP3    H223274   1.849   2.947   9.062 -0.4905 -0.8563  2.1637
  547TIP3   OH223275   2.034   2.758   1.347  0.3095  0.0069  0.5335
  547TIP3    H123276   2.016   2.772   1.254  0.6785 -0.2974  0.4169
  547TIP3    H223277   2.113   2.809   1.364  1.2397 -1.3180  0.2769
  548TIP3   OH223278   0.220   4.948   0.453  0.3612 -0.4483  0.1868
  548TIP3    H123279   0.127   4.969   0.460  0.4852 -0.3894  1.8739
  548TIP3    H223280   0.261   4.994   0.526  1.8908  0.3703 -1.1064
  549TIP3   OH223281   0.358   2.180   1.117  0.5029  0.1024 -0.4634
  549TIP3    H123282   0.432   2.119   1.121  1.2325  1.0081  0.9847
  549TIP3    H223283   0.357   2.221   1.203 -1.5536  0.3154 -0.5421
  550TIP3   OH223284   2.369   3.234   8.712 -0.0302  0.3700 -0.5119
  550TIP3    H123285   2.368   3.244   8.617  0.9149  0.4329 -0.5253
  550TIP3    H223286   2.291   3.280   8.742 -0.5233  0.0449 -1.2806
  551TIP3   OH223287   5.307   2.891   7.948  0.7276  0.2792 -0.3117
  551TIP3    H123288   5.248   2.818   7.960  2.0301 -0.7621  0.0034
  551TIP3    H223289   5.252   2.969   7.957 -0.4813 -0.6348  0.4468
  552TIP3   OH223290   1.763   1.704   1.144 -0.1571 -0.1385 -0.8586
  552TIP3    H123291   1.692   1.714   1.207  0.6425  1.1685 -0.1029
  552TIP3    H223292   1.830   1.654   1.191 -0.7688 -1.8616 -1.7570
  553TIP3   OH223293   0.335   6.579   1.402 -0.4401  0.4708 -0.0722
  553TIP3    H123294   0.333   6.617   1.491  1.4860  0.0488  0.1881
  553TIP3    H223295   0.364   6.651   1.346 -1.1356  0.5883 -0.2895
  554TIP3   OH223296   6.047   1.669   1.145 -0.0756 -0.1684  0.2653
  554TIP3    H123297   6.086   1.683   1.059  0.3623 -0.4945  0.4085
  554TIP3    H223298   6.010   1.581   1.142 -2.3682  0.7639 -0.4543
  555TIP3   OH223299   1.152   6.407   8.614  0.2071  0.5621  0.1387
  555TIP3    H123300   1.149   6.369   8.527  1.0526 -2.1312  1.1666
  555TIP3    H223301   1.090   6.355   8.665  0.8191  1.0862  1.4680
  556TIP3   OH223302   0.724   6.456   0.782 -0.1103 -0.0881 -0.8705
  556TIP3    H123303   0.635   6.421   0.788 -0.2380 -0.0120 -2.0840
  556TIP3    H223304   0.780   6.380   0.798 -0.3937 -0.5858 -2.1172
  557TIP3   OH223305   3.513   3.524   9.003  0.0752 -0.0248 -0.6011
  557TIP3    H123306   3.451   3.589   9.036 -0.2729 -0.6618  0.0485
  557TIP3    H223307   3.463   3.472   8.940 -0.5835 -1.5613  1.0911
  558TIP3   OH223308   5.894   0.790   9.108 -0.0732  0.2833 -0.2227
  558TIP3    H123309   5.884   0.885   9.117 -0.8729  0.2003 -0.1278
  558TIP3    H223310   5.899   0.776   9.013 -0.3959  0.3829 -0.2565
  559TIP3   OH223311   1.915   6.275   7.140 -0.5901  0.0201  0.0828
  559TIP3    H123312   1.885   6.192   7.104 -1.5711 -0.9835  2.9314
  559TIP3    H223313   1.844   6.304   7.197  0.5012  1.8828  0.5972
  560TIP3   OH223314   0.783   1.282   8.444 -0.1323 -0.0165  0.2006
  560TIP3    H123315   0.691   1.275   8.420  0.1457  1.3888 -1.5470
  560TIP3    H223316   0.801   1.376   8.443  2.0109 -0.3114 -2.6840
  561TIP3   OH223317   2.253   4.897   7.020 -0.0356  0.0855  0.6745
  561TIP3    H123318   2.196   4.852   6.958  0.6226  0.5899 -0.3243
  561TIP3    H223319   2.266   4.984   6.983  0.8051  0.2181  1.2426
  562TIP3   OH223320   4.287   3.533   8.738 -0.6356  0.3733  0.5915
  562TIP3    H123321   4.376   3.566   8.745 -0.2673 -0.6429  1.0457
  562TIP3    H223322   4.295   3.438   8.753 -1.5050 -0.1102 -1.5460
  563TIP3   OH223323   3.976   0.499   2.172  0.4827  0.3278 -0.2720
  563TIP3    H123324   3.963   0.561   2.243 -1.4691  0.4211 -0.6664
  563TIP3    H223325   3.922   0.424   2.195 -1.1244  0.8203 -2.1673
  564TIP3   OH223326   0.404   1.539   2.045  0.6258  0.2434  0.5557
  564TIP3    H123327   0.357   1.478   1.989  1.4268 -1.0904  1.2756
  564TIP3    H223328   0.336   1.591   2.088 -0.0607  0.0081 -0.2344
  565TIP3   OH223329   4.930   2.853   1.793 -0.0224 -0.2956 -0.7017
  565TIP3    H123330   4.899   2.940   1.767  0.8082  0.2889  0.1705
  565TIP3    H223331   4.851   2.800   1.800 -0.6717  0.7313 -0.0175
  566TIP3   OH223332   2.158   5.126   0.548 -0.2730  0.3888 -0.0949
  566TIP3    H123333   2.173   5.038   0.513 -0.7954 -0.4377  1.6539
  566TIP3    H223334   2.064   5.140   0.539 -0.7701 -0.6325  2.5613
  567TIP3   OH223335   6.282   0.052   8.110  0.6261  0.1947 -0.3436
  567TIP3    H123336   6.348  -0.016   8.102 -0.4532 -1.2731  2.1614
  567TIP3    H223337   6.267   0.061   8.204 -2.4403  0.7534 -0.7688
  568TIP3   OH223338   1.900   1.489   8.323 -0.8432  0.3687 -0.9387
  568TIP3    H123339   1.963   1.417   8.324 -0.4802  0.6896 -0.2750
  568TIP3    H223340   1.947   1.560   8.280 -0.8971  0.4805 -0.8114
  569TIP3   OH223341   1.519   2.851   8.840  0.3230  0.3102 -0.4577
  569TIP3    H123342   1.518   2.946   8.827 -0.0161 -0.0324 -3.5423
  569TIP3    H223343   1.437   2.833   8.887 -0.0076  1.4380 -0.5635
  570TIP3   OH223344   2.854   1.228   7.369  0.1469  0.3932 -0.9903
  570TIP3    H123345   2.945   1.252   7.349 -0.6385  2.7261 -2.0994
  570TIP3    H223346   2.811   1.311   7.386 -1.4459 -0.8079  1.2245
  571TIP3   OH223347   1.793   0.846   8.896 -0.0910  0.0598 -0.6461
  571TIP3    H123348   1.832   0.915   8.842  0.8551  0.7990  0.9191
  571TIP3    H223349   1.736   0.893   8.957 -0.3779 -0.6693 -0.3455
  572TIP3   OH223350   0.365   1.327   7.553  0.0494 -0.0571 -0.5211
  572TIP3    H123351   0.305   1.322   7.628 -1.2445 -0.4193 -1.5484
  572TIP3    H223352   0.362   1.418   7.525  1.3624  0.3254  0.4935
  573TIP3   OH223353   2.861   3.325   1.552  0.2736 -0.0921 -0.1504
  573TIP3    H123354   2.773   3.345   1.518 -0.6703 -2.1016  0.9273
  573TIP3    H223355   2.914   3.312   1.474 -0.4348  0.9040 -0.8247
  574TIP3   OH223356   5.004   2.764   8.290 -0.0152 -0.2839 -0.1464
  574TIP3    H123357   5.026   2.821   8.216 -0.2551 -0.1489 -0.1133
  574TIP3    H223358   5.073   2.697   8.290 -0.3742 -0.6757 -0.9053
  575TIP3   OH223359   4.785   5.676   0.377  0.5887  0.6184  0.2483
  575TIP3    H123360   4.853   5.658   0.443 -0.0606  0.1822  0.8158
  575TIP3    H223361   4.752   5.763   0.400 -0.6300 -0.1099  1.4221
  576TIP3   OH223362   1.427   2.678   8.087  0.1608 -0.0898  0.0710
  576TIP3    H123363   1.443   2.748   8.150  1.3139 -1.3088  1.2072
  576TIP3    H223364   1.478   2.703   8.010 -1.5121  1.5740 -0.5897
  577TIP3   OH223365   2.053   4.810   8.753  0.7308  0.1930 -0.1724
  577TIP3    H123366   1.996   4.856   8.690  1.4878  0.2816 -0.8078
  577TIP3    H223367   2.017   4.721   8.757 -1.1383  0.9581  1.5541
  578TIP3   OH223368   3.259   2.795   0.437  0.2047  0.6700 -0.5158
  578TIP3    H123369   3.256   2.819   0.530 -0.8709 -0.8363 -0.1241
  578TIP3    H223370   3.186   2.843   0.398 -1.2417 -1.0014  0.0436
  579TIP3   OH223371   2.225   4.260   0.646  0.3971 -0.1619  0.4552
  579TIP3    H123372   2.319   4.245   0.641  0.1767 -1.2305 -1.4260
  579TIP3    H223373   2.217   4.345   0.690  2.1530 -0.6592  1.8653
  580TIP3   OH223374   3.994   2.156   2.892  0.2719  0.0125 -0.0306
  580TIP3    H123375   4.050   2.081   2.873 -0.7013 -0.8906  0.5537
  580TIP3    H223376   3.950   2.134   2.975  0.6634  1.6443  0.6585
  581TIP3   OH223377   5.809   3.472   0.523 -0.6945  0.4826 -0.0467
  581TIP3    H123378   5.858   3.536   0.471  0.2465  0.4095  0.7140
  581TIP3    H223379   5.747   3.433   0.461  1.0445 -0.3036 -1.3903
  582TIP3   OH223380   3.888   4.089   2.059 -0.2519 -0.5366 -0.4514
  582TIP3    H123381   3.966   4.078   2.113 -0.9312 -0.5652  0.5610
  582TIP3    H223382   3.839   4.160   2.102 -2.3128 -2.6117  0.8486
  583TIP3   OH223383   0.961   3.119   8.430  0.4592 -0.4880  0.2024
  583TIP3    H123384   1.025   3.078   8.487  0.9828 -2.9507 -1.9793
  583TIP3    H223385   1.013   3.169   8.367  0.2600 -1.8309 -1.0762
  584TIP3   OH223386   6.378   1.982   3.515 -0.1558 -0.3788 -0.5013
  584TIP3    H123387   6.317   2.054   3.501  0.9701  1.6081  3.4480
  584TIP3    H223388   6.444   1.992   3.447 -1.9394  0.0065 -2.2394
  585TIP3   OH223389   3.261   0.501   1.331  0.2987 -0.4337 -0.0185
  585TIP3    H123390   3.332   0.488   1.268  1.6655  0.0764  1.3480
  585TIP3    H223391   3.305   0.535   1.409 -1.2041 -1.8953  1.5391
  586TIP3   OH223392   4.706   3.448   2.403 -0.5130 -0.4450  0.1667
  586TIP3    H123393   4.640   3.433   2.336 -0.6670 -1.0485  0.4492
  586TIP3    H223394   4.712   3.365   2.450 -1.5122  0.4083  1.8992
  587TIP3   OH223395   3.085   2.666   0.872  0.1227  0.0278 -0.4597
  587TIP3    H123396   3.140   2.611   0.928  0.1091  0.6463  0.1818
  587TIP3    H223397   2.995   2.648   0.900  0.1446  0.6784  0.0370
  588TIP3   OH223398   5.078   5.118   8.450  0.6039  0.0799 -0.4385
  588TIP3    H123399   5.146   5.122   8.383  2.1745 -0.0685  1.0876
  588TIP3    H223400   5.126   5.112   8.533 -1.1251  4.0842  1.1091
  589TIP3   OH223401   4.265   1.373   8.342 -0.0347  0.2602  0.0878
  589TIP3    H123402   4.223   1.326   8.414  0.3552 -0.2659 -0.0317
  589TIP3    H223403   4.357   1.377   8.365  0.1630 -0.2781 -0.5828
  590TIP3   OH223404   0.890   6.273   0.900 -0.6812  0.3866  0.0569
  590TIP3    H123405   0.914   6.321   0.979  2.4655  0.5062 -0.8121
  590TIP3    H223406   0.911   6.182   0.921  1.6758  0.6058 -1.0296
  591TIP3   OH223407   5.934   6.513   7.981  0.0754 -0.4076  0.4821
  591TIP3    H123408   5.975   6.450   8.039  1.5953 -1.1344 -1.2599
  591TIP3    H223409   5.849   6.475   7.959 -0.3779 -0.2708  1.9306
  592TIP3   OH223410   0.413   1.649   7.694  0.7847  0.1787  0.0118
  592TIP3    H123411   0.411   1.723   7.755  0.4580 -1.4116  2.0035
  592TIP3    H223412   0.457   1.579   7.741 -1.2719 -1.7759 -0.7642
  593TIP3   OH223413   2.174   2.233   1.875  0.0924 -0.0828 -0.1649
  593TIP3    H123414   2.162   2.143   1.844 -1.5545  0.2415 -0.5854
  593TIP3    H223415   2.200   2.224   1.966  1.1379 -0.9957 -0.5270
  594TIP3   OH223416   3.710   5.152   7.458  0.0637 -0.3072  0.3156
  594TIP3    H123417   3.758   5.232   7.439  0.7604 -0.6545  0.5752
  594TIP3    H223418   3.710   5.104   7.375 -0.6489  0.1053  0.0696
  595TIP3   OH223419   4.055   3.349   1.086  0.6462 -0.0817  0.7129
  595TIP3    H123420   3.966   3.356   1.052  0.7394 -0.6533  0.3359
  595TIP3    H223421   4.088   3.439   1.085  0.6138 -0.0582 -0.6517
  596TIP3   OH223422   6.000   0.215   0.863  0.2478  0.0251 -0.7074
  596TIP3    H123423   5.959   0.132   0.836 -0.8577  0.2464  0.1983
  596TIP3    H223424   6.053   0.192   0.939 -2.3344  0.5450  1.4044
  597TIP3   OH223425   2.281   6.086   1.188  0.3421 -0.5395  0.8813
  597TIP3    H123426   2.353   6.065   1.247  1.2800 -3.0209 -0.9307
  597TIP3    H223427   2.206   6.037   1.222  0.4885 -0.7903  0.8467
  598TIP3   OH223428   1.195   3.086   0.211 -0.1007 -0.0772 -0.1945
  598TIP3    H123429   1.189   2.992   0.227 -0.9983 -0.0916 -0.5404
  598TIP3    H223430   1.121   3.123   0.259 -0.6242  0.2770 -1.2251
  599TIP3   OH223431   5.528   3.467   1.193 -0.1473 -0.8942 -0.4097
  599TIP3    H123432   5.436   3.486   1.174 -0.9715 -1.8308  2.3188
  599TIP3    H223433   5.557   3.413   1.119 -2.0856 -1.4882 -0.7855
  600TIP3   OH223434   4.666   2.388   7.734  0.1286  0.2601  0.3933
  600TIP3    H123435   4.665   2.294   7.713  4.4590 -0.0528  0.7260
  600TIP3    H223436   4.658   2.390   7.830  0.1160  0.2224  0.3933
  601TIP3   OH223437   5.647   1.127   0.325  0.1856  0.0368  0.6097
  601TIP3    H123438   5.740   1.117   0.304  0.0031 -0.2207 -0.1031
  601TIP3    H223439   5.619   1.038   0.348 -0.0075  0.0091  0.2785
  602TIP3   OH223440   6.463   3.240   7.591  0.2708  0.2976  0.1699
  602TIP3    H123441   6.413   3.160   7.575  1.7807 -0.5415 -0.4980
  602TIP3    H223442   6.524   3.217   7.661 -1.3136  1.8030  2.1777
  603TIP3   OH223443   1.129   5.789   1.819 -0.4062  0.5498  0.6508
  603TIP3    H123444   1.049   5.747   1.852  0.5502  0.2385  2.8051
  603TIP3    H223445   1.181   5.716   1.785 -0.5897  0.6005  0.2626
  604TIP3   OH223446   3.071   5.901   1.213  0.0322  0.5310  0.3570
  604TIP3    H123447   3.000   5.843   1.239  0.0228  1.4931  2.8709
  604TIP3    H223448   3.031   5.963   1.152 -0.0187 -1.8095 -2.1309
  605TIP3   OH223449   4.182   3.587   0.590 -0.1091 -0.3922  0.1515
  605TIP3    H123450   4.168   3.630   0.506  0.2166 -0.3897  0.0971
  605TIP3    H223451   4.256   3.528   0.575  0.4516  0.1670  0.6320
  606TIP3   OH223452   1.916   6.679   2.504 -0.0168  0.5832 -0.0819
  606TIP3    H123453   1.894   6.598   2.550 -0.2507  1.1460  0.8359
  606TIP3    H223454   1.847   6.688   2.438 -1.4623  1.2701  1.4269
  607TIP3   OH223455   4.713   1.198   8.062  0.2628  0.4136  0.5981
  607TIP3    H123456   4.760   1.228   7.984 -1.3911  2.6114  0.3544
  607TIP3    H223457   4.746   1.110   8.077 -0.3940 -0.7412 -3.5051
  608TIP3   OH223458   2.255   1.361   0.793  0.6252 -0.3561  0.4762
  608TIP3    H123459   2.308   1.441   0.788  0.7773 -0.4009  1.2412
  608TIP3    H223460   2.238   1.338   0.701  0.0692  0.8859  0.2530
  609TIP3   OH223461   4.433   4.995   2.820 -0.3178 -0.1093 -0.4804
  609TIP3    H123462   4.528   4.983   2.817 -0.2780  0.0998 -3.5956
  609TIP3    H223463   4.420   5.086   2.794 -1.3841  0.2765  1.2541
  610TIP3   OH223464   6.568   3.987   2.011  0.1122  0.6580  0.0669
  610TIP3    H123465   6.605   3.906   2.046  1.9346  2.1533  1.7623
  610TIP3    H223466   6.582   3.981   1.916 -0.5826 -1.3552  0.0522
  611TIP3   OH223467   0.958   5.258   7.222 -0.3509 -0.6400 -0.1221
  611TIP3    H123468   0.935   5.165   7.227  0.7840 -1.0438 -1.4276
  611TIP3    H223469   0.986   5.270   7.131  1.3767  0.5132  0.5173
  612TIP3   OH223470   5.028   2.259   7.624 -0.4268 -0.2672 -0.0179
  612TIP3    H123471   5.007   2.184   7.569 -0.1329 -0.8813  0.6830
  612TIP3    H223472   4.976   2.331   7.588 -1.6875 -1.1052  0.0639
  613TIP3   OH223473   1.549   4.455   8.008 -0.0179 -0.1652 -0.2332
  613TIP3    H123474   1.483   4.414   8.063  0.6851 -2.1144 -0.7865
  613TIP3    H223475   1.623   4.470   8.067  0.9734 -2.8245 -0.6658
  614TIP3   OH223476   5.104   0.102   2.742 -0.2741 -0.4836 -0.4942
  614TIP3    H123477   5.157   0.167   2.696  0.7588  0.6831  2.1872
  614TIP3    H223478   5.166   0.034   2.769  0.4302  1.6088  3.9723
  615TIP3   OH223479   1.139   2.025   1.937 -0.6598  0.5750  0.2788
  615TIP3    H123480   1.077   1.952   1.945  0.3421 -0.3220  0.1113
  615TIP3    H223481   1.200   1.997   1.869  1.1389  0.4905  1.8340
  616TIP3   OH223482   1.836   5.911   0.875 -0.4138 -0.1488 -0.3470
  616TIP3    H123483   1.778   5.985   0.860 -0.1063  0.8128  2.5558
  616TIP3    H223484   1.922   5.940   0.844 -0.8525 -0.4995 -1.9961
  617TIP3   OH223485   1.793   3.520   2.362  0.0224 -0.3903  0.3575
  617TIP3    H123486   1.730   3.499   2.293  0.8263 -0.0263 -0.5076
  617TIP3    H223487   1.879   3.509   2.320  0.5467  3.0086  0.2668
  618TIP3   OH223488   0.979   2.889   0.400 -0.2443  0.0166  0.0319
  618TIP3    H123489   1.035   2.961   0.430 -0.3087 -0.8010  2.3459
  618TIP3    H223490   1.021   2.811   0.435 -0.9315 -0.9641 -1.2533
  619TIP3   OH223491   5.814   3.687   0.349  0.0205 -0.0981 -0.0367
  619TIP3    H123492   5.798   3.768   0.396 -1.3580 -0.4800  0.1986
  619TIP3    H223493   5.750   3.687   0.278  2.4648  0.7777 -2.3968
  620TIP3   OH223494   5.664   6.399   2.732 -0.1676 -0.2667 -0.6983
  620TIP3    H123495   5.655   6.494   2.737  0.0550 -0.2865  0.3120
  620TIP3    H223496   5.691   6.382   2.641  2.3458  0.8759 -0.2562
  621TIP3   OH223497   5.900   5.088   8.687  0.1666 -0.3594  0.2575
  621TIP3    H123498   5.878   5.033   8.762  1.4861  0.2611  1.1565
  621TIP3    H223499   5.988   5.060   8.661  0.0251 -0.0560 -0.5905
  622TIP3   OH223500   6.643   4.708   9.109 -0.9730  0.6264 -0.2548
  622TIP3    H123501   6.557   4.747   9.124 -0.9088  0.4936  0.4984
  622TIP3    H223502   6.676   4.752   9.030 -2.3657 -0.4391 -1.4910
  623TIP3   OH223503   3.322   3.360   0.583 -0.4879 -0.1812 -0.0866
  623TIP3    H123504   3.339   3.272   0.551  0.7854  0.0711 -0.1802
  623TIP3    H223505   3.377   3.417   0.528 -0.5919  0.5668  0.5545
  624TIP3   OH223506   2.307   2.903   1.392  0.3174  0.2912  0.7677
  624TIP3    H123507   2.377   2.840   1.407  2.0792  2.0591  0.3884
  624TIP3    H223508   2.352   2.987   1.382 -1.9672  1.7611  1.9509
  625TIP3   OH223509   4.887   4.102   7.724 -0.1435  0.3019  0.9766
  625TIP3    H123510   4.837   4.107   7.643  1.6432 -0.6144 -0.2580
  625TIP3    H223511   4.822   4.083   7.791 -1.7819  1.8681 -0.0809
  626TIP3   OH223512   5.977   1.513   2.018  0.2294 -0.5851 -0.2836
  626TIP3    H123513   5.905   1.501   2.080  0.6908 -2.1364  0.0035
  626TIP3    H223514   5.992   1.607   2.017 -1.5762 -0.2648 -0.1117
  627TIP3   OH223515   5.092   0.867   0.138  0.4402 -0.0575 -0.4296
  627TIP3    H123516   5.055   0.865   0.226  0.9288  0.5669 -0.2071
  627TIP3    H223517   5.171   0.919   0.146  0.0153  0.7823 -1.4155
  628TIP3   OH223518   5.995   2.795   8.736 -0.4981  0.5258 -0.4922
  628TIP3    H123519   5.914   2.755   8.769 -0.0268 -1.5308 -1.6240
  628TIP3    H223520   6.055   2.792   8.811 -0.9242  0.4325 -0.1468
  629TIP3   OH223521   0.703   3.823   0.818  0.8291 -0.6872  0.0464
  629TIP3    H123522   0.694   3.731   0.795 -1.3654 -0.8123  1.1371
  629TIP3    H223523   0.615   3.860   0.806  1.6831  1.3331 -0.5427
  630TIP3   OH223524   2.021   0.384   7.337  0.0024  0.1843 -0.0362
  630TIP3    H123525   2.076   0.358   7.411 -0.7419 -0.1446  0.4104
  630TIP3    H223526   2.001   0.302   7.292  0.1710  0.3445 -0.4087
  631TIP3   OH223527   3.956   2.477   0.105 -0.1521 -0.0515  0.1756
  631TIP3    H123528   3.944   2.396   0.056  0.2939  0.8351 -1.4926
  631TIP3    H223529   3.897   2.470   0.179  1.4993 -2.8747  1.3802
  632TIP3   OH223530   0.315   1.550   1.428 -0.0522  0.0605 -0.7883
  632TIP3    H123531   0.293   1.633   1.387 -0.7932 -1.1386 -3.0013
  632TIP3    H223532   0.273   1.554   1.514 -1.5911  1.2853 -1.5406
  633TIP3   OH223533   3.859   1.333   8.895  0.5689 -0.2815 -0.4615
  633TIP3    H123534   3.915   1.256   8.890  0.7682 -0.1364 -0.4548
  633TIP3    H223535   3.917   1.403   8.922  0.2711 -0.2532  0.1165
  634TIP3   OH223536   3.285   4.500   2.206 -0.6490  0.5694  0.0304
  634TIP3    H123537   3.373   4.499   2.168 -0.3855 -1.6937  0.5238
  634TIP3    H223538   3.299   4.475   2.297 -1.8607 -0.6056 -0.0832
  635TIP3   OH223539   1.945   1.634   8.656  0.2982  0.3263  0.3262
  635TIP3    H123540   1.995   1.674   8.728  0.5604 -0.2590  0.4760
  635TIP3    H223541   1.975   1.543   8.654 -1.2833 -0.2314  0.8984
  636TIP3   OH223542   6.427   4.362   9.184 -0.8530 -0.1156  0.5860
  636TIP3    H123543   6.357   4.426   9.175 -1.0741 -0.4755 -0.4719
  636TIP3    H223544   6.381   4.280   9.203 -0.7293 -0.3292  0.0011
  637TIP3   OH223545   6.384   2.070   0.406 -0.2677  0.0485  0.1448
  637TIP3    H123546   6.436   2.079   0.326 -2.2681 -2.4537 -1.5884
  637TIP3    H223547   6.437   2.012   0.462 -0.1386 -0.6134 -0.6443
  638TIP3   OH223548   2.904   4.474   1.215  0.0818 -0.3184 -0.0021
  638TIP3    H123549   2.989   4.437   1.239  1.6754  3.8197  1.5683
  638TIP3    H223550   2.912   4.496   1.122  0.7187 -0.0371  0.1178
  639TIP3   OH223551   1.008   2.841   1.394  0.4101  0.3227 -0.2075
  639TIP3    H123552   1.070   2.897   1.442 -0.4707  1.3211 -0.2143
  639TIP3    H223553   0.929   2.841   1.448  0.8134 -2.0482  0.5042
  640TIP3   OH223554   6.466   2.940   7.812 -0.2128 -0.4378  0.0729
  640TIP3    H123555   6.394   2.956   7.751 -0.8963 -0.5349  0.8398
  640TIP3    H223556   6.507   3.025   7.824  2.7082 -1.0095 -3.8257
  641TIP3   OH223557   1.495   3.393   0.581 -0.0121 -0.5490  0.2685
  641TIP3    H123558   1.566   3.351   0.532 -0.3156 -0.4336 -0.2693
  641TIP3    H223559   1.466   3.465   0.525 -0.6054 -0.6383  0.4589
  642TIP3   OH223560   0.772   0.195   0.524 -0.4012  0.7705  0.0384
  642TIP3    H123561   0.824   0.117   0.545 -1.5141 -0.4267 -1.4245
  642TIP3    H223562   0.833   0.254   0.480 -0.0950 -0.3395 -1.0805
  643TIP3   OH223563   6.172   3.446   7.228 -0.4980  0.4928 -0.3832
  643TIP3    H123564   6.106   3.419   7.164  0.4017  2.0844 -2.1002
  643TIP3    H223565   6.151   3.538   7.246  0.8074  0.8213 -0.4385
  644TIP3   OH223566   5.380   2.929   6.613 -0.0519  0.3580 -0.3324
  644TIP3    H123567   5.394   2.840   6.644 -0.9014 -0.4359 -2.1103
  644TIP3    H223568   5.369   2.981   6.693  1.1187 -0.9773  0.7590
  645TIP3   OH223569   3.132   6.402   1.945  0.2761 -0.1815  0.2900
  645TIP3    H123570   3.049   6.357   1.929  0.2700  0.2039 -0.8300
  645TIP3    H223571   3.107   6.490   1.970  0.3295  0.8459 -2.8952
  646TIP3   OH223572   6.312   4.195   7.370  0.2458  0.1124 -0.2139
  646TIP3    H123573   6.298   4.221   7.279 -1.1049  1.6093  0.3532
  646TIP3    H223574   6.308   4.100   7.370  3.2861 -0.1527 -2.1270
  647TIP3   OH223575   4.029   4.428   0.592  0.1026  0.6464  0.2209
  647TIP3    H123576   4.041   4.460   0.503  1.2381 -1.0465 -0.2765
  647TIP3    H223577   4.028   4.332   0.584 -1.9756  0.4441  1.7765
  648TIP3   OH223578   6.588   4.026   7.182  0.6628  0.3627 -0.1360
  648TIP3    H123579   6.548   4.021   7.095  0.7313  0.9881 -0.2059
  648TIP3    H223580   6.545   3.957   7.232  2.2764 -1.6192 -1.3227
  649TIP3   OH223581   4.518   1.892   1.953  0.6130 -0.8766 -0.1156
  649TIP3    H123582   4.481   1.879   2.040  0.7579  0.5152  0.1657
  649TIP3    H223583   4.612   1.873   1.964  0.5175 -1.3602 -0.1246
  650TIP3   OH223584   5.271   0.253   7.715  0.2409 -0.3625  0.1866
  650TIP3    H123585   5.202   0.264   7.650  1.6241  0.7376 -1.1882
  650TIP3    H223586   5.230   0.206   7.787 -2.1374  0.9377 -0.2231
  651TIP3   OH223587   1.790   2.716   7.564 -0.0981  0.0761  0.0196
  651TIP3    H123588   1.749   2.790   7.520  0.3567  0.3645  0.0747
  651TIP3    H223589   1.752   2.639   7.522 -1.1567  0.3243  0.4927
  652TIP3   OH223590   3.334   3.160   1.393 -0.0969 -0.2624 -0.4169
  652TIP3    H123591   3.354   3.248   1.426 -1.2725 -0.0927 -0.1070
  652TIP3    H223592   3.409   3.138   1.337 -0.4922  1.6139 -1.8150
  653TIP3   OH223593   6.426   5.971   2.383  0.4493  0.6679 -0.0446
  653TIP3    H123594   6.433   6.023   2.462  0.4170 -0.5674  0.8022
  653TIP3    H223595   6.392   6.032   2.317 -1.3823  1.2825  1.3669
  654TIP3   OH223596   5.834   0.841   7.749  0.6150 -0.0469  0.5828
  654TIP3    H123597   5.877   0.909   7.801 -0.7666  0.8228  0.6553
  654TIP3    H223598   5.781   0.890   7.686 -0.0091 -1.0714  0.2948
  655TIP3   OH223599   3.969   6.487   8.527  0.8839  0.2314  0.4849
  655TIP3    H123600   4.024   6.496   8.605  0.5344  0.3352  0.7244
  655TIP3    H223601   3.881   6.513   8.557  0.8538  0.8105 -0.0759
  656TIP3   OH223602   3.006   4.495   2.207 -0.2911  0.0139 -0.0525
  656TIP3    H123603   3.102   4.490   2.209 -0.3680 -1.8290  0.6158
  656TIP3    H223604   2.979   4.467   2.295 -1.4384  1.5127  0.1154
  657TIP3   OH223605   1.375   0.309   3.385 -0.0241 -0.2258  0.0182
  657TIP3    H123606   1.284   0.336   3.375  0.4195  1.0005 -0.9720
  657TIP3    H223607   1.374   0.214   3.371 -0.8834  0.0352 -1.8722
  658TIP3   OH223608   4.066   2.102   0.713 -0.4882 -0.3295  0.4699
  658TIP3    H123609   4.076   2.010   0.739 -0.9629 -0.3503  0.6047
  658TIP3    H223610   4.144   2.146   0.748 -0.2877 -0.6716  0.4540
  659TIP3   OH223611   5.976   1.431   0.463  0.3690 -0.4771 -0.3105
  659TIP3    H123612   6.046   1.494   0.480  0.6621 -1.0882  0.9282
  659TIP3    H223613   5.993   1.360   0.525 -0.8098 -1.0765 -0.6452
  660TIP3   OH223614   3.728   4.338   1.850  0.5928  0.2378 -0.3320
  660TIP3    H123615   3.652   4.283   1.833 -1.4071  1.9339  2.2431
  660TIP3    H223616   3.742   4.331   1.945  3.4132  0.3550 -0.6430
  661TIP3   OH223617   5.979   5.855   1.537 -0.7181 -0.1286 -0.2210
  661TIP3    H123618   6.011   5.843   1.626  1.0574  2.8997 -0.3235
  661TIP3    H223619   6.029   5.792   1.484  0.8954  0.5628  0.4471
  662TIP3   OH223620   4.224   3.892   1.438 -0.2013  0.1609 -0.2002
  662TIP3    H123621   4.255   3.872   1.526  2.0227 -0.2040 -0.9966
  662TIP3    H223622   4.172   3.971   1.447 -1.1590 -0.6346  1.6237
  663TIP3   OH223623   6.053   2.082   1.595  0.0065 -0.2265  0.0220
  663TIP3    H123624   6.120   2.078   1.663 -0.9518 -1.0534  0.9544
  663TIP3    H223625   5.970   2.073   1.642 -0.8351  1.4676 -1.0207
  664TIP3   OH223626   0.119   2.313   1.332 -0.3479  0.6906  0.2397
  664TIP3    H123627   0.097   2.228   1.294 -0.7189 -0.0943  2.0965
  664TIP3    H223628   0.213   2.309   1.349 -0.3081  0.7745  0.0401
  665TIP3   OH223629   4.525   5.510   8.570  0.4525 -0.0838 -0.6113
  665TIP3    H123630   4.480   5.499   8.486  0.3333  3.2588 -1.1404
  665TIP3    H223631   4.466   5.566   8.622  0.9953 -1.2247  1.3315
  666TIP3   OH223632   4.877   1.171   1.539 -0.8451 -0.3861  0.0615
  666TIP3    H123633   4.800   1.177   1.483 -0.6443 -1.3020 -0.3283
  666TIP3    H223634   4.951   1.178   1.479 -0.6255 -1.8164  0.1200
  667TIP3   OH223635   3.336   0.688   7.556  0.0533 -0.1226  0.4396
  667TIP3    H123636   3.311   0.602   7.523 -1.8997  0.6085 -0.1610
  667TIP3    H223637   3.397   0.670   7.627 -1.4673 -2.1178  1.3429
  668TIP3   OH223638   6.161   2.450   2.010 -0.3003 -0.3661 -0.6336
  668TIP3    H123639   6.100   2.488   2.073 -0.8502 -0.6610 -0.9755
  668TIP3    H223640   6.233   2.514   2.004  0.4185 -0.9306  1.2516
  669TIP3   OH223641   4.403   5.398   1.957 -0.1834  0.3395 -0.2029
  669TIP3    H123642   4.468   5.460   1.927  1.7024  0.4939  3.6085
  669TIP3    H223643   4.441   5.312   1.939 -0.0827  0.3963 -0.2565
  670TIP3   OH223644   2.913   3.997   0.886  0.2428 -0.2207 -0.7920
  670TIP3    H123645   2.825   4.004   0.923  0.9061 -0.4088  0.9516
  670TIP3    H223646   2.899   3.988   0.792 -1.4964  1.7384 -0.7921
  671TIP3   OH223647   2.774   4.661   7.039  0.0186 -0.1600  0.2814
  671TIP3    H123648   2.725   4.737   7.071 -0.2873 -0.3865  0.3548
  671TIP3    H223649   2.866   4.685   7.051 -0.0535  0.5800 -0.5620
  672TIP3   OH223650   1.221   5.236   9.190 -0.0561 -0.1257  0.3013
  672TIP3    H123651   1.247   5.325   9.164  0.3255 -0.3608 -0.1417
  672TIP3    H223652   1.294   5.181   9.162 -1.5052 -0.9839 -2.1160
  673TIP3   OH223653   1.559   2.455   8.186  0.2211 -0.0209 -0.3139
  673TIP3    H123654   1.625   2.495   8.242 -0.1711 -0.1841  0.2781
  673TIP3    H223655   1.509   2.530   8.152  0.2445  0.0612 -0.1702
  674TIP3   OH223656   1.164   0.652   2.484  0.3797  0.1110 -0.3077
  674TIP3    H123657   1.126   0.687   2.403  0.9470  0.7773 -0.2983
  674TIP3    H223658   1.257   0.673   2.479  0.7370 -1.3400 -0.2418
  675TIP3   OH223659   2.614   4.404   1.578 -0.0750 -0.0536 -0.0076
  675TIP3    H123660   2.521   4.406   1.601  0.3408  0.8475  1.7404
  675TIP3    H223661   2.616   4.366   1.490 -2.1975  1.2022 -0.6628
  676TIP3   OH223662   2.142   6.674   2.298  0.6701 -0.7837  0.2287
  676TIP3    H123663   2.212   6.637   2.350  1.1370 -2.2726 -1.3282
  676TIP3    H223664   2.074   6.606   2.297  0.1713 -0.2990 -0.1091
  677TIP3   OH223665   0.121   1.068   1.785  0.0343 -0.3001 -0.2851
  677TIP3    H123666   0.042   1.075   1.731 -1.1121 -1.1646  1.2121
  677TIP3    H223667   0.094   1.100   1.871  1.8797  1.2361 -0.2177
  678TIP3   OH223668   4.587   3.024   9.123 -0.4958 -0.2265 -0.3623
  678TIP3    H123669   4.677   3.004   9.098 -0.6323 -0.5755 -0.5912
  678TIP3    H223670   4.593   3.105   9.173  0.2174 -1.4204  1.6050
  679TIP3   OH223671   5.099   0.055   7.900  0.0434 -0.1993  0.1021
  679TIP3    H123672   5.095   0.008   7.983  1.6067 -0.1963  0.2047
  679TIP3    H223673   5.147  -0.004   7.841  0.5076  0.5364 -0.2739
  680TIP3   OH223674   1.568   6.635   3.617  0.1937 -0.7420  0.7499
  680TIP3    H123675   1.499   6.609   3.555  0.1706  0.0755  0.4314
  680TIP3    H223676   1.618   6.554   3.631  1.2780 -0.5770 -1.6952
  681TIP3   OH223677   0.435   1.822   2.007 -0.4361 -0.2286  0.1865
  681TIP3    H123678   0.486   1.753   2.049 -0.9714  0.7611  2.5916
  681TIP3    H223679   0.429   1.794   1.915  1.7199 -1.9336  0.4784
  682TIP3   OH223680   4.608   0.379   0.172  0.2772  0.4454 -0.5083
  682TIP3    H123681   4.610   0.353   0.080  1.9587 -1.8642  0.0727
  682TIP3    H223682   4.612   0.296   0.220  1.5244  1.6433  1.6198
  683TIP3   OH223683   5.608   3.293   0.691 -0.4909 -0.2308  0.4340
  683TIP3    H123684   5.539   3.359   0.696 -0.0306  0.1959  1.1843
  683TIP3    H223685   5.593   3.250   0.606  0.3252  2.0537 -0.9495
  684TIP3   OH223686   2.246   5.814   1.580 -0.2302 -0.2017 -0.5815
  684TIP3    H123687   2.305   5.786   1.649 -2.5499  0.1378  1.7100
  684TIP3    H223688   2.204   5.734   1.550  0.0767 -0.2367 -0.9239
  685TIP3   OH223689   4.178   2.883   0.693 -0.2481 -0.0208 -0.4576
  685TIP3    H123690   4.106   2.831   0.658 -0.8731  0.5286  0.0081
  685TIP3    H223691   4.160   2.972   0.664  0.1326  0.1583 -0.1501
  686TIP3   OH223692   5.529   1.327   1.935 -0.3086 -0.0673 -0.0982
  686TIP3    H123693   5.531   1.305   2.028 -0.1565 -1.4490 -0.4116
  686TIP3    H223694   5.568   1.251   1.891  0.6720  1.0297 -1.2140
  687TIP3   OH223695   6.520   2.060   3.021 -0.5258 -0.8265 -0.2517
  687TIP3    H123696   6.510   2.037   3.113  0.5900  0.6878  0.2884
  687TIP3    H223697   6.488   2.150   3.014 -0.2571 -0.7889 -1.2652
  688TIP3   OH223698   6.691   5.274   0.908  0.4800  0.3579 -0.3304
  688TIP3    H123699   6.778   5.279   0.949  0.4191  2.2203 -0.3523
  688TIP3    H223700   6.709   5.246   0.818  0.6844 -2.9103  0.5801
  689TIP3   OH223701   3.400   3.119   0.270  0.3240 -0.1701  1.3630
  689TIP3    H123702   3.410   3.204   0.228  0.3207 -0.8277 -0.0287
  689TIP3    H223703   3.306   3.102   0.269  0.4828 -1.2365 -0.6264
  690TIP3   OH223704   5.663   6.247   3.144 -0.3563 -0.1215  0.3745
  690TIP3    H123705   5.706   6.282   3.222  1.6248  0.0341 -0.7238
  690TIP3    H223706   5.623   6.165   3.173  1.1598 -0.5519  1.3530
  691TIP3   OH223707   5.025   6.281   1.488 -0.0346 -0.3073  0.2304
  691TIP3    H123708   4.987   6.278   1.576  0.4625  0.3513  0.4810
  691TIP3    H223709   4.959   6.242   1.431 -1.0168  0.6770  0.6710
  692TIP3   OH223710   5.023   5.562   0.594  0.1374 -0.0060  0.8838
  692TIP3    H123711   5.005   5.473   0.563 -1.5668  0.0049  1.7278
  692TIP3    H223712   5.110   5.582   0.559  0.9541 -2.3154  1.3665
  693TIP3   OH223713   6.600   4.308   7.754 -0.6516  0.0107  0.4041
  693TIP3    H123714   6.647   4.264   7.824  1.9047 -1.1870 -1.8729
  693TIP3    H223715   6.630   4.399   7.758  0.4131 -0.3198  0.1558
  694TIP3   OH223716   5.555   0.692   1.579  0.1419  0.0132  0.1593
  694TIP3    H123717   5.618   0.626   1.550  1.6538 -0.0997  3.2840
  694TIP3    H223718   5.546   0.750   1.503 -0.1466 -2.8604 -2.2143
  695TIP3   OH223719   5.030   2.816   8.793  0.3614 -0.3723  0.4518
  695TIP3    H123720   4.996   2.825   8.882 -0.3399  2.0208 -0.0114
  695TIP3    H223721   5.122   2.844   8.800  0.0903  0.5758  0.2940
  696TIP3   OH223722   1.595   3.585   7.063  0.0592  0.3337 -0.8114
  696TIP3    H123723   1.520   3.644   7.075 -1.7527 -0.9306 -4.4859
  696TIP3    H223724   1.648   3.628   6.997  2.1894  0.7285  1.0438
  697TIP3   OH223725   1.229   4.938   8.081 -1.2000 -0.1541  0.2511
  697TIP3    H123726   1.230   4.983   8.166 -0.3339  0.6099 -0.1462
  697TIP3    H223727   1.284   4.860   8.094 -0.0338  0.6075  0.0788
  698TIP3   OH223728   3.047   2.416   2.598 -0.6530  0.0781  0.2383
  698TIP3    H123729   3.079   2.452   2.680 -2.5214  2.5562 -0.0176
  698TIP3    H223730   2.988   2.345   2.624  0.1630 -0.3557  0.9328
  699TIP3   OH223731   0.092   1.649   1.603 -0.7053 -0.2944  0.0622
  699TIP3    H123732   0.017   1.626   1.548 -1.4523 -0.3560  1.0833
  699TIP3    H223733   0.126   1.730   1.565 -1.3972 -0.1704 -0.3012
  700TIP3   OH223734   6.199   4.411   8.864  0.6171 -0.4043  0.1902
  700TIP3    H123735   6.147   4.412   8.784 -0.8374 -0.4749  1.1051
  700TIP3    H223736   6.285   4.380   8.836  0.1737 -0.3172 -1.3579
  701TIP3   OH223737   3.475   0.439   2.809  0.4957 -0.0292 -0.6259
  701TIP3    H123738   3.566   0.470   2.809  0.5632 -0.2144 -0.2607
  701TIP3    H223739   3.429   0.501   2.866  0.8078 -1.0778  0.8075
  702TIP3   OH223740   6.339   1.010   8.836 -0.1265 -0.3326  0.1748
  702TIP3    H123741   6.368   0.919   8.825  1.4406  0.0431  0.8638
  702TIP3    H223742   6.407   1.062   8.793  0.2996  0.6065  1.8933
  703TIP3   OH223743   5.269   5.568   8.047  0.2200 -0.3600 -0.6354
  703TIP3    H123744   5.241   5.594   8.134  0.0130  0.2587 -0.8833
  703TIP3    H223745   5.188   5.542   8.003  0.1274  0.6906 -1.1025
  704TIP3   OH223746   2.668   6.476   2.101  0.0630 -0.5939 -0.6060
  704TIP3    H123747   2.579   6.508   2.114 -0.5102 -1.6071 -1.7477
  704TIP3    H223748   2.711   6.488   2.185 -1.5305 -1.2180  0.3371
  705TIP3   OH223749   2.964   0.755   2.114  0.5964 -1.4602 -0.5228
  705TIP3    H123750   2.898   0.804   2.066 -0.8165 -2.8246 -0.0434
  705TIP3    H223751   3.035   0.818   2.129  0.1428 -0.4198 -2.4817
  706TIP3   OH223752   6.365   3.812   1.540 -0.6824  0.6307  0.2327
  706TIP3    H123753   6.386   3.854   1.623  0.2118  1.4074 -0.3637
  706TIP3    H223754   6.388   3.878   1.474  1.5051 -1.0335 -0.7951
  707TIP3   OH223755   4.990   2.892   2.401  0.2271 -0.0145  0.5938
  707TIP3    H123756   4.989   2.835   2.477 -2.2065 -1.9951 -0.7557
  707TIP3    H223757   4.912   2.946   2.410  0.3332  0.2699 -0.0897
  708TIP3   OH223758   1.227   5.978   9.094  0.1812  0.1164  0.1590
  708TIP3    H123759   1.200   6.044   9.030 -1.3380 -1.2501 -0.6888
  708TIP3    H223760   1.175   5.997   9.172 -1.2344 -0.8024 -0.5216
  709TIP3   OH223761   2.083   5.481   8.183 -0.7200  0.4984 -0.4097
  709TIP3    H123762   2.051   5.488   8.273  0.3396  1.0444 -0.0618
  709TIP3    H223763   2.021   5.422   8.140 -0.0630 -1.5380  1.2475
  710TIP3   OH223764   5.272   1.502   1.036 -0.1183 -0.9554  0.0424
  710TIP3    H123765   5.273   1.558   1.113  0.3410 -1.6191  0.5362
  710TIP3    H223766   5.329   1.428   1.060 -0.4084 -1.4378 -0.7231
  711TIP3   OH223767   0.441   3.576   0.926 -0.3078  0.3435  0.4403
  711TIP3    H123768   0.454   3.555   0.833  1.8988 -0.9420  0.9838
  711TIP3    H223769   0.377   3.510   0.956 -0.0038 -0.1005  0.1331
  712TIP3   OH223770   1.265   3.759   1.090  0.1163 -0.2421  0.0710
  712TIP3    H123771   1.189   3.818   1.085 -0.1622 -0.6771 -1.2059
  712TIP3    H223772   1.305   3.764   1.003  0.3484 -1.5781  0.0849
  713TIP3   OH223773   6.607   1.058   0.862 -0.2679  0.0616  0.7782
  713TIP3    H123774   6.516   1.079   0.843 -0.1079  1.8490  1.7460
  713TIP3    H223775   6.641   1.024   0.779 -1.4679  0.6089  0.0311
  714TIP3   OH223776   1.147   0.574   7.697 -0.2405  0.1973 -0.1114
  714TIP3    H123777   1.158   0.564   7.792  0.1678 -1.3932 -0.3012
  714TIP3    H223778   1.054   0.593   7.686 -0.3805 -0.0371  0.5918
  715TIP3   OH223779   4.285   6.142   8.099  0.6456  0.4098 -0.3455
  715TIP3    H123780   4.259   6.234   8.104 -0.9913  0.0203 -0.8499
  715TIP3    H223781   4.267   6.107   8.186 -0.3751  0.2058 -0.6172
  716TIP3   OH223782   5.386   3.435   8.047 -0.6920  0.2596 -0.1271
  716TIP3    H123783   5.385   3.510   7.988  0.3411 -0.1520 -0.7092
  716TIP3    H223784   5.407   3.472   8.133  0.4341  0.5811 -0.5230
  717TIP3   OH223785   3.581   0.758   2.324 -0.3138 -0.3721 -0.0300
  717TIP3    H123786   3.508   0.780   2.381  1.9587  0.0741  2.9655
  717TIP3    H223787   3.633   0.838   2.319 -0.5572 -0.3005 -3.1171
  718TIP3   OH223788   6.111   4.292   0.315 -0.7876  0.2671 -0.2153
  718TIP3    H123789   6.097   4.384   0.293 -1.7786 -0.3337 -2.4638
  718TIP3    H223790   6.148   4.253   0.236  1.3736 -0.9634  1.2827
  719TIP3   OH223791   2.655   0.773   2.133 -0.2148  0.4403 -0.0908
  719TIP3    H123792   2.669   0.717   2.209 -0.9568 -0.4389 -0.5833
  719TIP3    H223793   2.576   0.739   2.092  1.8623 -1.2344 -3.1136
  720TIP3   OH223794   0.336   0.914   0.352 -0.2523  0.4262 -0.3914
  720TIP3    H123795   0.335   0.865   0.434  0.2828  0.0253 -0.6136
  720TIP3    H223796   0.382   0.995   0.372 -0.3851  0.4614 -0.2279
  721TIP3   OH223797   1.586   2.999   0.751  0.3740 -0.2267  0.1291
  721TIP3    H123798   1.513   3.026   0.695  0.1477  1.8889  1.3126
  721TIP3    H223799   1.549   2.935   0.811  0.4462 -1.9618 -1.5672
  722TIP3   OH223800   4.832   1.673   1.722  0.1499  0.0551 -0.2238
  722TIP3    H123801   4.798   1.588   1.748  0.6722 -0.7487 -2.0175
  722TIP3    H223802   4.797   1.688   1.634  0.2334  1.6052 -0.0346
  723TIP3   OH223803   1.105   6.070   0.115  0.0199 -0.0727 -0.0157
  723TIP3    H123804   1.070   6.156   0.140 -0.1930 -0.4643  1.0690
  723TIP3    H223805   1.100   6.018   0.195  1.8157 -0.5648 -0.1953
  724TIP3   OH223806   4.842   6.509   8.002  0.0001 -0.0198  0.2658
  724TIP3    H123807   4.933   6.535   7.988  0.4834  0.1631  3.1205
  724TIP3    H223808   4.795   6.546   7.928  2.2224 -0.0367 -1.2438
  725TIP3   OH223809   5.723   6.477   1.009  0.1388  0.0327  0.5354
  725TIP3    H123810   5.690   6.396   0.970  1.2389 -0.7054  1.0741
  725TIP3    H223811   5.759   6.450   1.093  1.8192  0.8146  0.1194
  726TIP3   OH223812   1.783   6.256   2.151 -0.1945 -0.0986 -0.3098
  726TIP3    H123813   1.697   6.233   2.116 -0.6807  0.8231  0.2150
  726TIP3    H223814   1.846   6.209   2.096 -1.0579 -1.5504 -0.1003
  727TIP3   OH223815   6.127   1.444   0.213  0.3383  0.1759  0.3719
  727TIP3    H123816   6.035   1.442   0.239  0.0730  0.9244 -0.4190
  727TIP3    H223817   6.165   1.365   0.250 -0.8216 -0.5694  0.0344
  728TIP3   OH223818   0.408   6.542   7.958  0.3331  0.4343  0.1303
  728TIP3    H123819   0.443   6.464   7.915 -0.1293  0.4175 -0.2243
  728TIP3    H223820   0.345   6.578   7.896 -1.6401 -0.5376  1.4358
  729TIP3   OH223821   2.927   4.419   0.733 -0.3497 -0.6962 -0.3477
  729TIP3    H123822   3.019   4.431   0.709  0.0653  0.1052  1.4815
  729TIP3    H223823   2.880   4.422   0.649  1.0064  1.8746 -1.1227
  730TIP3   OH223824   3.993   6.189   3.319 -0.3248 -0.1308  0.0007
  730TIP3    H123825   4.023   6.280   3.317 -0.6813 -0.0039 -1.7728
  730TIP3    H223826   4.066   6.140   3.357  1.0750  0.5251 -1.7110
  731TIP3   OH223827   1.954   3.578   8.831 -0.3870 -0.7496  0.1250
  731TIP3    H123828   1.995   3.662   8.810 -0.4789 -0.9303 -0.8509
  731TIP3    H223829   1.953   3.531   8.747  1.0089 -2.3277  0.9319
  732TIP3   OH223830   3.136   4.951   7.696 -0.7003 -0.5922 -0.2273
  732TIP3    H123831   3.075   4.969   7.624 -0.3626  1.7880  0.0001
  732TIP3    H223832   3.104   4.870   7.735 -1.5737 -1.3203 -2.3194
  733TIP3   OH223833   5.665   1.146   2.519 -0.0336  0.3026  0.4918
  733TIP3    H123834   5.594   1.129   2.457  0.4672  2.4815 -0.7580
  733TIP3    H223835   5.733   1.082   2.495 -1.3879 -1.6657  1.5731
  734TIP3   OH223836   0.520   5.113   7.323 -0.1056  0.3963 -0.3216
  734TIP3    H123837   0.542   5.109   7.230  2.6947  3.8418 -0.0120
  734TIP3    H223838   0.601   5.085   7.368 -1.3027 -0.9254  1.1626
  735TIP3   OH223839   4.304   3.884   7.894  0.0333 -0.2953 -0.2577
  735TIP3    H123840   4.267   3.922   7.973 -0.0167 -0.9583  0.0393
  735TIP3    H223841   4.375   3.828   7.924  0.7477  0.3059 -0.7643
  736TIP3   OH223842   4.179   5.490   0.321 -0.1456  0.4329 -0.2158
  736TIP3    H123843   4.233   5.416   0.294  0.3693  0.6015  0.3395
  736TIP3    H223844   4.165   5.477   0.415  0.4315  1.3457  0.0046
  737TIP3   OH223845   0.058   6.605   8.124 -0.4266  0.2699  0.2342
  737TIP3    H123846   0.090   6.611   8.214 -1.0165 -0.2713  0.4841
  737TIP3    H223847   0.080   6.516   8.097  0.0635  0.5407 -0.2854
  738TIP3   OH223848   4.109   1.814   2.036  0.5752 -0.5814  0.2081
  738TIP3    H123849   4.125   1.839   2.127  2.2656  1.0644 -0.4606
  738TIP3    H223850   4.015   1.824   2.025  0.3927 -0.4168  1.6618
  739TIP3   OH223851   0.797   4.592   0.426 -0.1046  0.0636  0.1685
  739TIP3    H123852   0.782   4.509   0.471  1.1159 -1.0036 -1.2905
  739TIP3    H223853   0.793   4.658   0.495 -0.3647 -1.2769  1.4799
  740TIP3   OH223854   0.379   5.747   2.497 -0.3201  0.2737  0.1627
  740TIP3    H123855   0.335   5.820   2.541 -0.5420  0.9464 -1.1246
  740TIP3    H223856   0.461   5.784   2.465  0.9394 -0.8171  1.9927
  741TIP3   OH223857   5.157   5.063   2.177  0.4018  0.1580 -0.5608
  741TIP3    H123858   5.072   5.083   2.136  0.6198  1.3645 -0.4532
  741TIP3    H223859   5.196   4.997   2.119 -0.5931 -0.4035 -0.6199
  742TIP3   OH223860   4.849   3.929   8.189 -0.5592 -0.0502  0.5284
  742TIP3    H123861   4.861   3.834   8.196 -0.9281  0.0043  2.5833
  742TIP3    H223862   4.759   3.939   8.155  0.5298 -0.3704 -2.8420
  743TIP3   OH223863   1.501   4.116   0.761 -0.0728 -0.4173 -0.3381
  743TIP3    H123864   1.542   4.159   0.686  1.4305 -1.3223 -0.0741
  743TIP3    H223865   1.511   4.022   0.744  1.0643 -0.6554  1.3578
  744TIP3   OH223866   0.360   6.641   0.974 -0.5211  0.3384  0.1622
  744TIP3    H123867   0.422   6.569   0.963 -0.7779  0.4742 -2.9158
  744TIP3    H223868   0.404   6.702   1.033  1.8796 -0.0298 -1.1274
  745TIP3   OH223869   4.957   0.284   1.217  0.2299  0.1593  0.0932
  745TIP3    H123870   5.027   0.223   1.239 -0.8584 -0.8669  0.8836
  745TIP3    H223871   4.882   0.228   1.197  0.1026  1.1676 -2.6301
  746TIP3   OH223872   3.284   2.815   7.815  0.3171  0.2279 -0.2081
  746TIP3    H123873   3.366   2.777   7.847 -0.3036 -0.4104  0.6639
  746TIP3    H223874   3.281   2.790   7.723  0.0680 -1.6471  0.2704
  747TIP3   OH223875   3.447   5.883   1.023  0.4454  0.0493 -0.2656
  747TIP3    H123876   3.506   5.810   1.042 -1.5176 -1.8386 -0.9579
  747TIP3    H223877   3.381   5.880   1.093 -0.3393  0.3497 -0.9691
  748TIP3   OH223878   6.104   5.972   0.524  0.3780 -0.1100 -0.1219
  748TIP3    H123879   6.135   5.918   0.597  0.5122  0.7598  0.4888
  748TIP3    H223880   6.175   5.968   0.460 -0.2032 -1.7613 -0.7062
  749TIP3   OH223881   3.201   6.331   2.335  0.1786 -0.2235  0.2278
  749TIP3    H123882   3.271   6.302   2.393  0.4317  0.8007  0.4550
  749TIP3    H223883   3.219   6.424   2.319 -1.3777  0.1956  0.6858
  750TIP3   OH223884   6.351   5.434   0.227 -0.2230  0.2344 -0.0589
  750TIP3    H123885   6.320   5.348   0.198  1.1300 -0.1906 -0.3377
  750TIP3    H223886   6.294   5.457   0.300 -1.0384 -0.5855 -0.4140
  751TIP3   OH223887   0.742   2.840   1.573 -0.4401  0.2696  0.0689
  751TIP3    H123888   0.763   2.778   1.643 -1.9558 -0.6244 -0.2274
  751TIP3    H223889   0.659   2.880   1.601  0.6239  2.3899  0.3770
  752TIP3   OH223890   0.428   5.185   8.845  0.1065 -1.1261  0.8822
  752TIP3    H123891   0.365   5.133   8.895  0.3278 -1.4879  0.7847
  752TIP3    H223892   0.495   5.210   8.908 -0.8172  0.4384  1.3265
  753TIP3   OH223893   5.753   4.798   7.200  0.4255  0.0669  0.2194
  753TIP3    H123894   5.772   4.715   7.156 -0.4920 -1.2374  2.1135
  753TIP3    H223895   5.659   4.794   7.219  0.1211  2.0789 -0.6362
  754TIP3   OH223896   6.060   6.086   8.328  0.0272 -0.3249  0.1818
  754TIP3    H123897   6.154   6.070   8.323 -0.0630 -0.6489 -0.7782
  754TIP3    H223898   6.035   6.056   8.416  0.6304 -1.3612  0.0203
  755TIP3   OH223899   1.422   6.483   2.327  0.3663 -0.0983 -0.0415
  755TIP3    H123900   1.380   6.398   2.338  0.3366 -0.1127 -0.2466
  755TIP3    H223901   1.428   6.494   2.232 -2.6656  1.5960 -0.1431
  756TIP3   OH223902   3.859   3.962   1.284  0.5312  0.3936  0.1300
  756TIP3    H123903   3.833   4.007   1.365 -0.5562  0.3707 -0.1973
  756TIP3    H223904   3.854   4.030   1.217  1.3178  0.3821  0.0471
  757TIP3   OH223905   3.032   3.416   1.790  0.0422  0.4693 -0.1951
  757TIP3    H123906   3.122   3.388   1.773 -0.2532 -1.7690  1.4280
  757TIP3    H223907   2.988   3.407   1.706  1.1870  1.1036 -0.8949
  758TIP3   OH223908   1.395   3.796   8.189 -0.0425  0.2426  0.2624
  758TIP3    H123909   1.375   3.890   8.196  0.6452  0.4176 -0.0669
  758TIP3    H223910   1.451   3.778   8.265 -1.9584 -0.4067  1.5945
  759TIP3   OH223911   3.163   6.135   0.922 -0.3598 -0.1907  0.3432
  759TIP3    H123912   3.217   6.188   0.864  1.5693 -2.6662 -0.2966
  759TIP3    H223913   3.220   6.114   0.996 -1.3798 -0.5587  1.0495
  760TIP3   OH223914   0.545   5.882   9.013 -0.9690 -0.5805 -0.2684
  760TIP3    H123915   0.476   5.865   8.949 -0.1508  1.0050 -1.6539
  760TIP3    H223916   0.507   5.947   9.072 -0.6459  0.3912 -1.1087
  761TIP3   OH223917   4.251   2.974   8.808 -0.2690  0.2020 -0.2135
  761TIP3    H123918   4.316   2.919   8.766 -1.8174 -1.8564 -0.0906
  761TIP3    H223919   4.238   2.933   8.894 -0.4095  1.6609  0.4830
  762TIP3   OH223920   3.068   6.196   1.262  0.0110  0.3335 -0.0013
  762TIP3    H123921   3.133   6.138   1.301  1.6041  3.5864  2.7494
  762TIP3    H223922   3.119   6.257   1.210 -1.3019  0.7415 -0.8589
  763TIP3   OH223923   3.543   5.635   9.200  0.8973  0.3739  0.6061
  763TIP3    H123924   3.468   5.586   9.167 -1.8962  3.0322  2.4057
  763TIP3    H223925   3.583   5.578   9.264 -1.8529  0.0492  2.1932
  764TIP3   OH223926   3.273   4.136   7.822 -0.0286  0.3787 -0.0729
  764TIP3    H123927   3.344   4.085   7.784  1.0755  0.8839  1.2443
  764TIP3    H223928   3.287   4.226   7.791 -0.6817  0.3143 -0.5934
  765TIP3   OH223929   1.995   5.994   0.244 -0.0770 -0.4610  0.2800
  765TIP3    H123930   1.911   6.039   0.255  0.0221  0.1976 -1.3173
  765TIP3    H223931   2.057   6.064   0.225  0.8501 -0.9484  1.3792
  766TIP3   OH223932   0.873   1.472   2.180  0.3458  0.3073 -0.4154
  766TIP3    H123933   0.826   1.436   2.105 -1.5821  2.3685 -0.3019
  766TIP3    H223934   0.914   1.552   2.146  1.4810 -0.0009  0.1817
  767TIP3   OH223935   5.186   6.628   1.857  0.2528 -0.4372  0.2946
  767TIP3    H123936   5.216   6.717   1.876  1.4494 -0.8764  0.5074
  767TIP3    H223937   5.117   6.612   1.922 -0.2519  0.4657  0.0029
  768TIP3   OH223938   6.214   3.424   9.130 -0.1091  0.8934  0.0279
  768TIP3    H123939   6.257   3.357   9.078  1.0989  1.7726 -0.1626
  768TIP3    H223940   6.269   3.502   9.119 -0.7370  1.5514  1.2936
  769TIP3   OH223941   2.577   3.914   0.204 -0.5587 -0.3328  0.1988
  769TIP3    H123942   2.611   3.826   0.187 -0.1296 -0.0169 -0.6883
  769TIP3    H223943   2.493   3.900   0.247 -0.4035 -1.1731  0.2425
  770TIP3   OH223944   3.850   2.586   8.977  0.2379  0.4343 -0.2137
  770TIP3    H123945   3.916   2.637   9.024  1.9803 -0.0166 -2.0198
  770TIP3    H223946   3.884   2.496   8.978 -1.9605 -0.4809  1.4919
  771TIP3   OH223947   3.125   4.201   0.444  0.1232 -0.1218 -0.0603
  771TIP3    H123948   3.142   4.293   0.463 -0.0730  0.1613 -1.2156
  771TIP3    H223949   3.190   4.176   0.378 -0.9423 -0.3002 -1.0758
  772TIP3   OH223950   6.617   5.796   7.599  0.2195 -0.8671  0.1465
  772TIP3    H123951   6.640   5.704   7.594  0.8802 -0.6713 -0.7040
  772TIP3    H223952   6.664   5.837   7.526 -0.9905 -0.0478 -0.2101
  773TIP3   OH223953   1.301   6.013   1.339 -0.3223 -0.0092 -0.6755
  773TIP3    H123954   1.383   6.048   1.375  0.6291 -1.7412 -1.0229
  773TIP3    H223955   1.269   5.952   1.406 -0.6275 -0.3064 -1.0844
  774TIP3   OH223956   1.739   1.215   8.190 -0.2421  0.2164 -0.2143
  774TIP3    H123957   1.646   1.229   8.173 -0.2351  1.1240  0.3903
  774TIP3    H223958   1.761   1.282   8.255  0.3437 -1.3538  1.2854
  775TIP3   OH223959   0.092   4.052   0.110  0.0256 -0.2211 -0.3438
  775TIP3    H123960   0.150   3.987   0.148 -1.1537 -0.7489  0.6377
  775TIP3    H223961   0.140   4.134   0.115  0.4833 -0.5505  0.9275
  776TIP3   OH223962   2.005   6.052   1.044  0.2374 -0.1218 -0.2684
  776TIP3    H123963   2.037   6.035   1.133 -0.0814 -0.1672 -0.1580
  776TIP3    H223964   1.915   6.081   1.057  0.4306  0.6083 -0.5306
  777TIP3   OH223965   1.196   1.495   7.515 -0.4269 -0.0742  0.3981
  777TIP3    H123966   1.228   1.574   7.472 -0.6368 -0.4179 -0.4202
  777TIP3    H223967   1.171   1.524   7.603  0.1475  0.6193  0.3447
  778TIP3   OH223968   5.083   4.491   0.208  0.2168 -0.4635 -0.0690
  778TIP3    H123969   5.028   4.430   0.159  1.6903 -0.9026 -1.2340
  778TIP3    H223970   5.157   4.509   0.151 -0.2518  2.6672  0.1141
  779TIP3   OH223971   6.323   0.607   0.591 -0.1989 -0.6134  0.7134
  779TIP3    H123972   6.298   0.636   0.503  0.8234 -0.8804  0.3225
  779TIP3    H223973   6.247   0.557   0.622  0.0911 -2.0372 -0.7411
  780TIP3   OH223974   1.525   0.857   2.219 -0.2466  0.9485  0.3006
  780TIP3    H123975   1.473   0.782   2.192  1.1345 -0.5295  1.5444
  780TIP3    H223976   1.594   0.863   2.153  1.0093 -0.3922  1.4377
  781TIP3   OH223977   0.605   4.840   0.589  0.1147 -0.1718  0.0711
  781TIP3    H123978   0.610   4.753   0.627 -2.2323 -0.7025 -0.6383
  781TIP3    H223979   0.554   4.828   0.508  1.3397  1.5646 -1.0377
  782TIP3   OH223980   3.255   3.451   8.388  0.5399 -0.3565 -0.1532
  782TIP3    H123981   3.266   3.468   8.482 -0.0671 -0.4129 -0.0644
  782TIP3    H223982   3.287   3.362   8.376 -3.0888 -1.9771  0.7995
  783TIP3   OH223983   3.004   2.974   8.152  0.3682  0.1408  0.4405
  783TIP3    H123984   3.039   2.891   8.183 -1.2739 -0.3094  1.1810
  783TIP3    H223985   2.981   3.022   8.231  0.1462  0.7824  0.0003
  784TIP3   OH223986   4.699   0.917   0.714 -0.3525  0.0797 -0.1923
  784TIP3    H123987   4.785   0.958   0.701  0.1911 -1.1232 -0.4733
  784TIP3    H223988   4.702   0.881   0.803  0.9143 -3.2867 -1.4611
  785TIP3   OH223989   1.766   2.718   0.618  0.5181  0.4671 -0.1731
  785TIP3    H123990   1.735   2.763   0.697 -0.3228 -0.2289 -0.0885
  785TIP3    H223991   1.751   2.625   0.636 -1.1106  0.3690 -1.7258
  786TIP3   OH223992   6.600   4.406   1.360 -0.2233 -0.0923 -0.0011
  786TIP3    H123993   6.522   4.462   1.364 -1.7729 -2.0963 -0.6734
  786TIP3    H223994   6.617   4.396   1.267  0.6428  0.0276  0.1383
  787TIP3   OH223995   6.222   5.287   9.083 -0.2543 -0.0397  0.3841
  787TIP3    H123996   6.211   5.307   9.176  0.0027 -0.0051  0.4073
  787TIP3    H223997   6.170   5.208   9.069  0.2620 -0.4370  0.7046
  788TIP3   OH223998   4.174   2.875   8.493 -0.6343  0.2551  0.4335
  788TIP3    H123999   4.120   2.944   8.531  1.1287  0.9476  1.8261
  788TIP3    H224000   4.236   2.922   8.437  1.2181 -0.0095  2.1512
  789TIP3   OH224001   1.992   5.586   8.524 -0.0670  0.1829 -0.5646
  789TIP3    H124002   1.908   5.621   8.553 -0.3605 -1.8812  1.3059
  789TIP3    H224003   1.970   5.523   8.455  0.2610  1.8087 -2.2275
  790TIP3   OH224004   5.305   1.469   2.513  0.0988 -0.3427  0.3753
  790TIP3    H124005   5.262   1.526   2.577 -0.7450 -0.5833  0.0226
  790TIP3    H224006   5.305   1.382   2.554 -1.5160 -0.7515 -0.4240
  791TIP3   OH224007   2.385   3.311   1.075  0.2712  0.0820 -0.1809
  791TIP3    H124008   2.440   3.236   1.049 -0.4734 -0.5840  0.1143
  791TIP3    H224009   2.334   3.330   0.996  1.0846  0.8613 -0.5332
  792TIP3   OH224010   5.497   2.816   2.103  0.3868  0.1796 -0.0778
  792TIP3    H124011   5.546   2.734   2.100 -1.2305 -0.8168 -1.1556
  792TIP3    H224012   5.519   2.860   2.021 -0.7270 -0.4408 -0.7380
  793TIP3   OH224013   5.969   3.289   0.905  0.0170  0.3714  0.3578
  793TIP3    H124014   5.973   3.217   0.842  0.1863 -0.4347  1.2611
  793TIP3    H224015   5.991   3.367   0.854  1.5896 -0.4454 -0.2890
  794TIP3   OH224016   3.251   1.154   7.828 -0.4893  0.1827  0.1434
  794TIP3    H124017   3.189   1.183   7.761  0.1998 -0.7335 -0.9315
  794TIP3    H224018   3.335   1.153   7.782  0.0237 -0.2861  1.0889
  795TIP3   OH224019   4.142   4.784   8.383  0.5118 -0.1952  0.2246
  795TIP3    H124020   4.191   4.730   8.321  1.3834  1.8926 -1.0047
  795TIP3    H224021   4.050   4.760   8.369  0.8064 -0.7033 -0.9421
  796TIP3   OH224022   2.955   4.975   0.165 -0.4351  0.0574 -0.2993
  796TIP3    H124023   3.009   4.896   0.159  2.7789  2.1200 -1.1226
  796TIP3    H224024   2.951   5.009   0.076 -0.8580  1.3628  0.1857
  797TIP3   OH224025   2.477   5.577   0.489  0.1289 -0.2973  0.3303
  797TIP3    H124026   2.431   5.501   0.524  0.4270 -0.4431  0.4066
  797TIP3    H224027   2.468   5.568   0.394  1.7366 -1.4307  0.2493
  798TIP3   OH224028   5.852   0.077   8.182 -0.2027  0.7927 -0.1804
  798TIP3    H124029   5.891   0.139   8.244  1.1277 -0.4005  0.2206
  798TIP3    H224030   5.891  -0.007   8.205 -0.5564  0.1296 -1.9135
  799TIP3   OH224031   4.751   0.865   1.441  0.0441  0.2395  0.6176
  799TIP3    H124032   4.677   0.804   1.437  0.7672 -0.6477  0.5891
  799TIP3    H224033   4.712   0.948   1.471 -0.7598 -0.5249  1.7504
  800TIP3   OH224034   1.220   3.803   8.971  0.5122  0.7456  0.3568
  800TIP3    H124035   1.157   3.785   9.040  0.4816 -0.6442 -0.0013
  800TIP3    H224036   1.302   3.764   9.002  0.9718  1.7009  0.3959
  801TIP3   OH224037   2.404   3.177   2.534  0.4042  0.1699  0.6341
  801TIP3    H124038   2.379   3.147   2.446  1.6706 -1.1142  0.6788
  801TIP3    H224039   2.324   3.167   2.586  0.4027 -2.0080  0.3297
  802TIP3   OH224040   3.635   1.838   1.775  0.5562 -0.5146 -0.3395
  802TIP3    H124041   3.541   1.859   1.771  1.0127  1.5703 -1.9124
  802TIP3    H224042   3.641   1.749   1.740 -0.9143 -1.0481  0.6725
  803TIP3   OH224043   5.007   1.607   8.580  0.2612  0.0038  0.4860
  803TIP3    H124044   4.961   1.646   8.505 -0.1210 -0.7080  0.3465
  803TIP3    H224045   5.008   1.677   8.646  0.1137  0.4529  0.0201
  804TIP3   OH224046   3.598   5.009   2.446 -0.8006  0.2161  0.1520
  804TIP3    H124047   3.626   4.998   2.537  0.1610 -1.0979 -0.2613
  804TIP3    H224048   3.645   4.940   2.399 -0.3949  1.5623 -1.5205
  805TIP3   OH224049   0.212   3.016   8.506 -0.1133  0.0953 -0.2105
  805TIP3    H124050   0.186   3.090   8.451 -0.0124 -0.2560 -0.7360
  805TIP3    H224051   0.285   2.976   8.459 -0.7147 -0.8517 -0.3595
  806TIP3   OH224052   6.498   6.051   1.299 -0.6768 -0.7528  0.0069
  806TIP3    H124053   6.567   6.116   1.314 -0.7471 -0.9100  1.0577
  806TIP3    H224054   6.486   6.052   1.204  0.9194 -0.8760 -0.2328
  807TIP3   OH224055   2.860   5.227   2.151 -0.2021  0.2093 -0.7515
  807TIP3    H124056   2.856   5.309   2.200 -0.6300  0.0724 -0.5569
  807TIP3    H224057   2.944   5.231   2.105  1.4402 -0.7758  1.9764
  808TIP3   OH224058   4.481   6.690   9.179  0.1068  0.0605  0.2823
  808TIP3    H124059   4.539   6.614   9.184  1.6604  1.0631 -1.4020
  808TIP3    H224060   4.524   6.756   9.233 -0.2259  0.3564  0.1856
  809TIP3   OH224061   1.467   6.593   0.878 -0.6430  0.0403  0.5028
  809TIP3    H124062   1.509   6.654   0.816 -1.5736 -0.3025 -0.4877
  809TIP3    H224063   1.389   6.640   0.908 -2.4567 -1.2922 -1.7328
  810TIP3   OH224064   5.028   1.790   0.002 -0.0537 -0.0019  0.7777
  810TIP3    H124065   4.992   1.856   0.061 -1.0897 -1.0698  1.3855
  810TIP3    H224066   5.041   1.713   0.057  2.2709  0.0073  0.3526
  811TIP3   OH224067   0.266   2.189   8.578  0.3234  0.3264  0.2652
  811TIP3    H124068   0.304   2.113   8.622  0.4304  0.8229  1.0517
  811TIP3    H224069   0.264   2.165   8.486  0.7944 -0.4472  0.4481
  812TIP3   OH224070   2.740   0.667   0.185  0.0654  0.2346  0.0914
  812TIP3    H124071   2.677   0.632   0.247 -0.9532 -1.0564 -1.5800
  812TIP3    H224072   2.821   0.677   0.235 -1.0447  0.5250  1.9141
  813TIP3   OH224073   2.773   4.708   1.973 -0.2251 -0.1671  0.2188
  813TIP3    H124074   2.785   4.620   1.939  0.3689  0.5583 -1.6065
  813TIP3    H224075   2.695   4.740   1.928  0.0462  0.5014  0.2101
  814TIP3   OH224076   6.605   3.417   0.447  0.1039 -0.2821 -0.3803
  814TIP3    H124077   6.515   3.390   0.465 -0.1688  1.3378  0.9191
  814TIP3    H224078   6.655   3.382   0.521  0.3081 -0.1002 -0.4322
  815TIP3   OH224079   6.450   3.828   8.623  0.3761 -0.6231  0.3706
  815TIP3    H124080   6.405   3.747   8.645 -2.4902  0.5801 -0.6500
  815TIP3    H224081   6.438   3.838   8.528  1.0790  0.7594  0.3898
  816TIP3   OH224082   5.926   6.451   1.659  0.4618 -0.0635  0.4275
  816TIP3    H124083   5.961   6.452   1.570  1.1940  0.9146  0.7080
  816TIP3    H224084   5.954   6.367   1.695 -0.8696 -1.0099 -0.6382
  817TIP3   OH224085   6.110   3.545   1.413  0.1481 -0.5265 -0.1156
  817TIP3    H124086   6.101   3.461   1.458  1.7858 -0.4528  0.3900
  817TIP3    H224087   6.204   3.556   1.399 -0.0895  0.8814 -0.8403
  818TIP3   OH224088   0.473   2.638   0.191 -0.2604 -0.0210 -0.4142
  818TIP3    H124089   0.395   2.588   0.213 -1.0530  1.2775 -0.1957
  818TIP3    H224090   0.543   2.573   0.190 -1.1332 -1.0222  0.5478
  819TIP3   OH224091   2.024   4.244   1.675 -0.1131 -0.2951 -0.3132
  819TIP3    H124092   2.085   4.278   1.610  0.4881 -0.7860 -0.0128
  819TIP3    H224093   2.047   4.151   1.684  1.2118  0.1809  2.0856
  820TIP3   OH224094   6.620   4.185   7.408  0.0044 -0.2069 -0.1261
  820TIP3    H124095   6.613   4.129   7.331  0.1465 -0.3753 -0.0168
  820TIP3    H224096   6.688   4.248   7.385 -0.7750  0.4885 -0.6006
  821TIP3   OH224097   4.628   1.882   8.671 -0.2423  0.1909  0.5433
  821TIP3    H124098   4.554   1.941   8.656  1.6629  3.1304  1.8738
  821TIP3    H224099   4.628   1.867   8.766  0.7429  0.1155  0.5415
  822TIP3   OH224100   2.433   2.497   8.516 -0.3760  0.1771 -0.4352
  822TIP3    H124101   2.469   2.410   8.533  0.1924  0.3040 -0.9454
  822TIP3    H224102   2.372   2.484   8.443 -1.4597 -0.0539  0.4886
  823TIP3   OH224103   2.573   1.406   8.109 -0.5974 -0.2627 -0.3776
  823TIP3    H124104   2.619   1.474   8.159 -2.1152  1.2613 -0.9451
  823TIP3    H224105   2.567   1.441   8.020 -3.0116 -0.2204 -0.2838
  824TIP3   OH224106   0.736   5.559   1.666  0.4858 -0.1024  0.0261
  824TIP3    H124107   0.724   5.631   1.604  0.9132  0.2548  0.3518
  824TIP3    H224108   0.649   5.520   1.674  0.3758 -0.0031 -0.6137
  825TIP3   OH224109   1.146   1.924   2.435  0.0475  0.0670  0.3805
  825TIP3    H124110   1.170   1.979   2.360 -0.5460 -0.3543 -0.1372
  825TIP3    H224111   1.204   1.952   2.505  0.1383  0.9630 -0.0341
  826TIP3   OH224112   1.790   3.982   0.309 -0.1963  0.1117  0.3708
  826TIP3    H124113   1.827   4.054   0.258 -0.2300  0.0938  0.3205
  826TIP3    H224114   1.813   4.002   0.400  0.3000 -0.1106  0.2996
  827TIP3   OH224115   6.150   5.005   8.832 -0.1249  0.2009  0.0204
  827TIP3    H124116   6.184   4.915   8.825 -0.4618  0.1628 -1.5308
  827TIP3    H224117   6.117   5.011   8.922 -0.9405 -1.5468 -0.1089
  828TIP3   OH224118   2.330   1.374   8.902  0.0739 -0.1373 -0.2018
  828TIP3    H124119   2.235   1.371   8.907  0.0494  0.1920 -0.4327
  828TIP3    H224120   2.358   1.283   8.902 -0.3110 -0.2753 -1.4693
  829TIP3   OH224121   6.155   0.703   0.362 -0.5832  0.2863  0.1119
  829TIP3    H124122   6.127   0.668   0.277  0.3095 -1.3439  0.4336
  829TIP3    H224123   6.076   0.744   0.398 -1.3736 -0.3147 -0.8674
  830TIP3   OH224124   0.736   6.553   2.301  0.5432 -0.2851  0.1379
  830TIP3    H124125   0.826   6.550   2.334  1.5051  3.2930 -1.6777
  830TIP3    H224126   0.687   6.599   2.369  1.1038  1.3847 -0.5176
  831TIP3   OH224127   4.837   2.604   1.072  0.1625 -0.4008  0.7594
  831TIP3    H124128   4.771   2.584   1.139  0.7903 -0.1193  1.4800
  831TIP3    H224129   4.792   2.663   1.011 -0.5012 -0.8833  0.7791
  832TIP3   OH224130   3.875   5.527   0.495 -0.2566  0.1828  0.5407
  832TIP3    H124131   3.819   5.554   0.568 -1.5008  0.6652 -0.5451
  832TIP3    H224132   3.954   5.494   0.536 -0.3587  1.7106  2.0701
  833TIP3   OH224133   3.876   5.664   8.519 -0.4679  0.0446 -0.6964
  833TIP3    H124134   3.835   5.690   8.436 -1.6143  0.6637  0.0415
  833TIP3    H224135   3.914   5.745   8.553 -1.3977  0.1290  0.1509
  834TIP3   OH224136   0.276   5.277   1.051 -0.3127 -0.5941  0.6478
  834TIP3    H124137   0.314   5.242   1.132  1.5303 -0.4624 -0.0958
  834TIP3    H224138   0.314   5.365   1.043  0.2909 -0.9498 -0.8069
  835TIP3   OH224139   3.335   3.472   2.389  0.4640  0.1709 -0.0027
  835TIP3    H124140   3.272   3.500   2.455  1.9013  1.7806  0.7601
  835TIP3    H224141   3.329   3.376   2.389 -0.9432  0.2249  1.0343
  836TIP3   OH224142   1.293   5.366   8.092 -0.0806  0.2991 -0.4191
  836TIP3    H124143   1.312   5.345   8.000  1.8027 -0.8011  0.1672
  836TIP3    H224144   1.378   5.360   8.136 -1.1369 -0.3773  1.6305
  837TIP3   OH224145   2.325   5.459   2.121 -0.0685  0.1945 -0.1670
  837TIP3    H124146   2.299   5.540   2.164  2.8618  0.2047  1.9071
  837TIP3    H224147   2.413   5.477   2.088 -0.8244 -0.9935 -3.2200
  838TIP3   OH224148   3.637   0.106   2.054  0.0393 -0.0436  0.3179
  838TIP3    H124149   3.691   0.138   1.982  0.6081 -0.2040  0.6647
  838TIP3    H224150   3.605   0.020   2.024  0.2848 -0.1162  0.2637
  839TIP3   OH224151   6.180   5.074   2.389 -0.0724 -0.3103 -0.3415
  839TIP3    H124152   6.151   5.135   2.457  0.4219 -1.0818  0.5861
  839TIP3    H224153   6.273   5.091   2.380 -0.3742  0.7000 -1.7988
  840TIP3   OH224154   4.641   6.591   8.749 -0.4989 -0.3931 -0.6737
  840TIP3    H124155   4.581   6.626   8.814  0.1131 -1.3522  0.4496
  840TIP3    H224156   4.689   6.667   8.717  0.2588 -0.0640  1.1222
  841TIP3   OH224157   5.286   5.584   0.513  0.2503 -0.0027 -0.0874
  841TIP3    H124158   5.312   5.612   0.601  0.3828 -2.3049  0.6922
  841TIP3    H224159   5.361   5.534   0.481 -0.2008 -0.0683 -1.1011
  842TIP3   OH224160   2.502   1.396   0.159 -0.3932 -0.0189  0.5161
  842TIP3    H124161   2.519   1.337   0.085 -1.2044 -1.1492  1.2074
  842TIP3    H224162   2.438   1.458   0.126  1.1112  1.0804 -0.4971
  843TIP3   OH224163   6.685   0.050   0.986 -0.0983 -0.5403 -0.0154
  843TIP3    H124164   6.644  -0.010   1.049 -1.6267 -0.3236 -0.7599
  843TIP3    H224165   6.706  -0.006   0.911 -1.8826 -0.1221 -0.8694
  844TIP3   OH224166   0.766   3.525   0.790 -0.1174 -0.0481  0.6389
  844TIP3    H124167   0.686   3.473   0.790  0.3363 -0.7908  1.7939
  844TIP3    H224168   0.831   3.467   0.750 -0.1711  0.6031 -0.4212
  845TIP3   OH224169   0.281   3.198   1.247  0.0229  0.1274 -0.3760
  845TIP3    H124170   0.307   3.239   1.165 -1.8031  2.3478  0.0647
  845TIP3    H224171   0.245   3.113   1.222 -1.4655  1.1830 -2.0435
  846TIP3   OH224172   2.095   0.406   1.373  0.0429  0.3778  0.3479
  846TIP3    H124173   2.122   0.473   1.310  1.1345 -0.5168 -0.1793
  846TIP3    H224174   2.034   0.350   1.324  1.9667 -1.1552 -0.4584
  847TIP3   OH224175   5.125   5.480   1.226 -0.0205 -0.8254 -0.3187
  847TIP3    H124176   5.169   5.415   1.280  1.5453  0.3166 -0.1510
  847TIP3    H224177   5.041   5.494   1.269  1.5734  0.8367  2.5611
  848TIP3   OH224178   3.679   1.277   8.511  0.4339 -0.2279  0.5106
  848TIP3    H124179   3.668   1.237   8.424 -0.7823 -2.2131  1.4988
  848TIP3    H224180   3.611   1.344   8.515  1.6423  1.1276 -0.6874
  849TIP3   OH224181   4.461   3.223   2.712 -0.1248 -0.4455  0.0481
  849TIP3    H124182   4.488   3.187   2.797  1.2084  0.8847  0.2383
  849TIP3    H224183   4.434   3.313   2.733  1.0993  0.2070 -1.0317
  850TIP3   OH224184   0.313   3.062   0.872  0.8321 -0.1276  0.3546
  850TIP3    H124185   0.318   2.969   0.891  4.4008 -0.2690 -0.5487
  850TIP3    H224186   0.248   3.069   0.802  1.2420 -2.1290 -0.2877
  851TIP3   OH224187   1.447   3.972   1.857 -0.1500  0.4880  0.0301
  851TIP3    H124188   1.380   3.925   1.807  0.8736  1.0061 -1.9271
  851TIP3    H224189   1.524   3.915   1.852  0.8061  1.8422 -1.5010
  852TIP3   OH224190   1.381   0.164   1.036 -0.1376 -0.4546 -0.1855
  852TIP3    H124191   1.387   0.079   1.081 -0.3722 -1.0865 -1.3313
  852TIP3    H224192   1.339   0.221   1.100  3.2692 -0.1406  2.0920
  853TIP3   OH224193   1.422   1.060   3.502  0.0788 -0.5848  0.0710
  853TIP3    H124194   1.425   1.113   3.423 -0.4977 -0.1858  0.3065
  853TIP3    H224195   1.478   1.106   3.565 -0.6895 -0.0371  0.3871
  854TIP3   OH224196   0.501   6.141   0.828 -0.0558  0.1561 -0.4922
  854TIP3    H124197   0.533   6.141   0.918 -1.8851 -0.8891  0.2137
  854TIP3    H224198   0.423   6.085   0.830 -1.9050  2.4862 -2.0979
  855TIP3   OH224199   3.949   5.294   2.098  0.3203  0.3643  0.5766
  855TIP3    H124200   3.871   5.239   2.094  1.1052 -0.9523  2.2190
  855TIP3    H224201   4.013   5.250   2.041  0.3558  0.5857  0.4451
  856TIP3   OH224202   0.541   0.968   1.785  0.2107  0.1909  0.4735
  856TIP3    H124203   0.476   1.026   1.746  0.6532 -0.1199 -0.7814
  856TIP3    H224204   0.577   1.018   1.858 -1.3434  0.4014  1.1236
  857TIP3   OH224205   4.032   0.418   0.572  0.3345 -0.3038  0.4199
  857TIP3    H124206   4.054   0.390   0.484 -0.5211  1.1549 -0.2989
  857TIP3    H224207   3.948   0.377   0.591 -0.5204  1.0100 -0.3160
  858TIP3   OH224208   1.648   2.037   0.917  0.6487  0.1784  0.4967
  858TIP3    H124209   1.610   2.124   0.922  0.6963  0.3351 -1.2888
  858TIP3    H224210   1.581   1.980   0.956  0.3900  0.9218  1.1766
  859TIP3   OH224211   2.552   0.155   7.503  0.2664 -0.3157 -0.7735
  859TIP3    H124212   2.617   0.207   7.551 -0.6473 -0.8816  1.1418
  859TIP3    H224213   2.480   0.217   7.486  0.8244  0.0384 -2.0023
  860TIP3   OH224214   4.171   2.145   2.094  0.0612  0.1963  0.0983
  860TIP3    H124215   4.107   2.131   2.164 -1.2399 -1.4412 -1.3419
  860TIP3    H224216   4.185   2.059   2.055  1.0450  0.9860 -1.4260
  861TIP3   OH224217   0.309   3.948   0.329 -0.1060 -0.1219  0.7468
  861TIP3    H124218   0.344   3.863   0.357  0.7885 -0.3252 -0.8907
  861TIP3    H224219   0.220   3.950   0.364 -1.1979 -2.9944 -1.4833
  862TIP3   OH224220   6.491   0.089   3.301  0.2234 -0.1256  0.2762
  862TIP3    H124221   6.451   0.175   3.315  0.1955 -0.1693  0.4731
  862TIP3    H224222   6.436   0.048   3.235 -0.1892 -0.2671  0.6990
  863TIP3   OH224223   5.929   3.316   2.474  0.1586  0.2687 -0.2979
  863TIP3    H124224   5.941   3.315   2.569 -0.5989 -0.5323 -0.1916
  863TIP3    H224225   6.017   3.321   2.438  0.4959 -0.1208  0.4486
  864TIP3   OH224226   4.077   1.988   1.784 -0.3730  0.3017  0.2420
  864TIP3    H124227   4.021   1.936   1.842  0.5185 -1.7089 -0.5805
  864TIP3    H224228   4.065   1.948   1.698  3.1907 -1.0937  0.2294
  865TIP3   OH224229   3.379   5.501   0.515 -0.2422 -0.1167  0.3778
  865TIP3    H124230   3.425   5.419   0.493 -1.5905 -0.9151  0.4259
  865TIP3    H224231   3.406   5.520   0.604 -1.5343 -1.7112  1.1661
  866TIP3   OH224232   0.270   0.866   0.686 -0.4173 -0.6799 -0.1322
  866TIP3    H124233   0.305   0.927   0.752  1.7760 -1.8738 -0.0927
  866TIP3    H224234   0.265   0.782   0.731  0.4809 -1.3786 -1.2812
  867TIP3   OH224235   5.882   2.938   1.963 -0.0110  0.3804  0.2830
  867TIP3    H124236   5.849   3.019   1.925  2.8593  1.3749 -0.3017
  867TIP3    H224237   5.922   2.965   2.045  4.2080  0.3420 -1.5461
  868TIP3   OH224238   6.182   4.128   8.991 -0.5550  0.3274 -0.1615
  868TIP3    H124239   6.259   4.145   8.936 -1.3563 -0.2761 -1.5188
  868TIP3    H224240   6.113   4.184   8.953 -0.8694  0.6666  0.8736
  869TIP3   OH224241   2.122   5.720   9.204  0.0350 -0.1836 -0.0930
  869TIP3    H124242   2.180   5.763   9.141 -1.0829 -0.5438 -1.4401
  869TIP3    H224243   2.039   5.711   9.157 -1.5677  1.4811  2.1764
  870TIP3   OH224244   1.697   2.663   8.337 -0.0774 -0.3099  0.2085
  870TIP3    H124245   1.648   2.729   8.386 -1.0282 -0.7180 -0.1800
  870TIP3    H224246   1.756   2.714   8.281 -2.4937  0.3445 -1.9112
  871TIP3   OH224247   0.238   1.591   9.165 -0.4494  0.3079  0.3329
  871TIP3    H124248   0.236   1.529   9.092  0.7560 -0.4008  0.8779
  871TIP3    H224249   0.225   1.536   9.242  2.5777  0.3917  0.9988
  872TIP3   OH224250   3.017   1.533   7.987  0.2632 -0.2244  0.1816
  872TIP3    H124251   2.984   1.518   8.076  0.9829  0.3016  0.5498
  872TIP3    H224252   2.941   1.560   7.937 -0.3246 -1.3663  0.4167
  873TIP3   OH224253   0.548   6.174   2.296 -0.1309  0.3779  0.1779
  873TIP3    H124254   0.580   6.239   2.234 -2.6471  1.7567  0.1732
  873TIP3    H224255   0.585   6.200   2.380 -0.0543  1.0102 -0.0489
  874TIP3   OH224256   5.628   5.502   0.267 -0.0694  0.2819  0.2034
  874TIP3    H124257   5.610   5.458   0.350  1.2276 -0.6445  0.0274
  874TIP3    H224258   5.721   5.523   0.270 -0.1132  0.7070 -0.8017
  875TIP3   OH224259   6.035   4.953   0.238 -0.7209 -0.0782  0.6588
  875TIP3    H124260   5.948   4.925   0.209 -0.7444 -1.2947  1.8433
  875TIP3    H224261   6.025   5.047   0.253 -1.6398 -0.0721  0.1078
  876TIP3   OH224262   3.015   2.469   8.892  0.3583  0.2915  0.2551
  876TIP3    H124263   3.095   2.480   8.841  0.6653  0.7908  0.8432
  876TIP3    H224264   3.014   2.376   8.914  0.1756  0.0502 -0.7289
  877TIP3   OH224265   4.476   2.449   1.540  0.1555 -0.4961  0.0569
  877TIP3    H124266   4.412   2.388   1.503 -1.3066  1.0060 -0.0369
  877TIP3    H224267   4.440   2.471   1.626  1.0551 -0.3423  0.4020
  878TIP3   OH224268   1.733   5.129   0.625 -0.2692  0.0631  0.1344
  878TIP3    H124269   1.724   5.214   0.669  0.5526  0.5745 -0.6512
  878TIP3    H224270   1.790   5.147   0.551 -0.0264 -1.2045 -0.0012
  879TIP3   OH224271   1.836   1.301   1.513 -0.7340  0.6034  0.6119
  879TIP3    H124272   1.794   1.302   1.598  1.4665  0.7649  1.7692
  879TIP3    H224273   1.773   1.341   1.454 -1.9534  1.3361  2.3411
  880TIP3   OH224274   6.530   4.335   1.894 -0.3947 -0.1864 -0.1371
  880TIP3    H124275   6.619   4.363   1.913 -0.7198 -0.4163  1.9721
  880TIP3    H224276   6.539   4.272   1.823  1.0997 -0.0303 -0.1015
  881TIP3   OH224277   5.496   2.147   1.146 -0.0904 -0.3236  0.0924
  881TIP3    H124278   5.530   2.150   1.056 -0.2050 -1.1256  0.0162
  881TIP3    H224279   5.563   2.193   1.198  0.8181 -1.3139 -0.1556
  882TIP3   OH224280   6.543   0.474   7.662 -0.1533  0.7894  0.2302
  882TIP3    H124281   6.627   0.496   7.624  0.6934 -0.7644  1.0772
  882TIP3    H224282   6.487   0.453   7.587  0.8804 -0.2566 -0.2919
  883TIP3   OH224283   0.619   0.616   1.574 -0.0104 -0.6868  0.1270
  883TIP3    H124284   0.643   0.552   1.507  0.5124  0.0094 -0.3655
  883TIP3    H224285   0.555   0.672   1.530  2.2395  1.3800 -0.7192
  884TIP3   OH224286   0.715   3.935   7.725  0.1191 -0.0214  0.3135
  884TIP3    H124287   0.645   3.902   7.669 -0.1501  0.7007  0.2136
  884TIP3    H224288   0.790   3.944   7.667 -0.0574  0.3794  0.1457
  885TIP3   OH224289   2.761   3.361   7.503 -0.1590 -0.2713  0.1164
  885TIP3    H124290   2.802   3.275   7.498 -1.7609 -1.0937  0.3505
  885TIP3    H224291   2.735   3.381   7.413  0.6496  0.2285 -0.0236
  886TIP3   OH224292   1.491   3.042   0.082  0.0603  0.2806 -0.1131
  886TIP3    H124293   1.542   3.038   0.163  0.7051  0.9298 -0.4769
  886TIP3    H224294   1.399   3.042   0.111  0.2886  1.2657  0.6572
  887TIP3   OH224295   2.239   0.681   8.981  0.1601  0.0631 -0.2387
  887TIP3    H124296   2.261   0.593   9.013 -1.4363 -0.7966 -1.3280
  887TIP3    H224297   2.169   0.711   9.040 -0.4740 -0.1369 -0.8699
  888TIP3   OH224298   0.154   6.348   9.078 -0.2410 -0.1901 -0.7542
  888TIP3    H124299   0.108   6.398   9.146  0.7176  1.3880 -1.2126
  888TIP3    H224300   0.242   6.386   9.077 -0.1615 -0.3556 -2.6872
  889TIP3   OH224301   1.744   6.497   0.955  0.4353 -0.5634  0.5204
  889TIP3    H124302   1.655   6.485   0.921 -0.4557  0.0485  2.4584
  889TIP3    H224303   1.765   6.588   0.936 -0.2298 -0.1001  1.8602
  890TIP3   OH224304   4.468   5.011   0.940 -0.4635  0.1712  0.3023
  890TIP3    H124305   4.492   5.000   1.032 -0.8685  1.1887  0.5440
  890TIP3    H224306   4.386   4.962   0.932 -2.0922  2.5432  1.2940
  891TIP3   OH224307   6.518   3.232   1.907  0.0563 -0.5653  0.0078
  891TIP3    H124308   6.564   3.173   1.967 -1.4920 -0.5151  1.3063
  891TIP3    H224309   6.486   3.175   1.837  2.8497 -0.4658 -1.5105
  892TIP3   OH224310   2.342   3.403   2.286 -0.3921 -0.1293  0.0269
  892TIP3    H124311   2.315   3.325   2.237  1.4422  0.4071 -2.0075
  892TIP3    H224312   2.339   3.376   2.378 -0.9271 -2.2233 -0.5499
  893TIP3   OH224313   1.026   1.050   2.695  0.0999 -0.1592 -0.1131
  893TIP3    H124314   0.941   1.012   2.715 -0.3768  0.3484 -1.0835
  893TIP3    H224315   1.088   0.978   2.708 -0.4636 -0.5128  0.6811
  894TIP3   OH224316   4.922   4.553   2.096  0.0199  0.1065  0.6932
  894TIP3    H124317   4.887   4.578   2.181 -0.2769 -0.5633  0.7651
  894TIP3    H224318   4.848   4.518   2.047  0.4857 -0.9157  0.6953
  895TIP3   OH224319   5.502   3.898   0.587 -0.2814 -0.0619  0.1108
  895TIP3    H124320   5.560   3.856   0.651 -1.5114 -1.5677  0.2917
  895TIP3    H224321   5.420   3.850   0.594 -1.3753  1.6414 -0.5637
  896TIP3   OH224322   6.367   5.215   0.819 -0.2114 -0.0085  0.0747
  896TIP3    H124323   6.436   5.275   0.790 -0.1694 -0.6075 -1.1572
  896TIP3    H224324   6.409   5.129   0.821 -0.3235 -0.0499  1.6297
  897TIP3   OH224325   0.426   6.052   0.013  0.7095 -0.8665 -0.6347
  897TIP3    H124326   0.502   6.044   0.070  1.1266 -0.6894 -1.1536
  897TIP3    H224327   0.357   6.003   0.057  1.1252 -1.0275 -0.1577
  898TIP3   OH224328   3.483   1.396   1.146 -0.3849  0.0123  0.1068
  898TIP3    H124329   3.444   1.442   1.072 -0.4674  0.4406  0.4129
  898TIP3    H224330   3.538   1.329   1.106 -0.5408  0.1491 -0.3418
  899TIP3   OH224331   3.924   6.390   0.208  0.0870 -0.1638 -0.5249
  899TIP3    H124332   3.857   6.323   0.222  0.6397 -0.6762 -0.2924
  899TIP3    H224333   3.882   6.454   0.151 -1.1981  0.4133  0.9903
  900TIP3   OH224334   3.709   3.350   0.505 -0.3435  0.4367  0.3955
  900TIP3    H124335   3.662   3.273   0.536 -0.8554  0.8985  0.7957
  900TIP3    H224336   3.742   3.326   0.419 -0.6942 -0.1473  0.4248
  901TIP3   OH224337   1.227   3.577   0.245 -0.2792 -0.2384 -0.2518
  901TIP3    H124338   1.273   3.648   0.199  0.2635 -0.8648 -0.6908
  901TIP3    H224339   1.134   3.599   0.236 -0.0910  1.0068  0.5765
  902TIP3   OH224340   6.018   6.225   1.782  0.4716  0.1092  0.5791
  902TIP3    H124341   6.052   6.147   1.739 -0.4878  0.0958 -0.1855
  902TIP3    H224342   6.034   6.210   1.875  2.0780 -0.1073  0.2923
  903TIP3   OH224343   2.878   5.318   7.763 -0.1453 -0.1626 -0.2631
  903TIP3    H124344   2.958   5.367   7.781  0.8212 -2.2234  1.6310
  903TIP3    H224345   2.900   5.262   7.689 -0.0248 -0.3110 -0.1155
  904TIP3   OH224346   2.115   3.852   8.802 -0.0127  0.5541  0.1934
  904TIP3    H124347   2.199   3.812   8.826  0.7378  2.7960  1.6141
  904TIP3    H224348   2.118   3.857   8.707  0.0685 -2.1648 -0.0251
  905TIP3   OH224349   5.706   4.963   6.902  0.9227  0.4910 -0.5873
  905TIP3    H124350   5.757   4.990   6.978  1.2930  1.6537 -1.2244
  905TIP3    H224351   5.770   4.925   6.842  0.3636 -2.3988  0.4617
  906TIP3   OH224352   0.568   5.596   1.932 -0.1481 -0.0066 -0.5972
  906TIP3    H124353   0.501   5.658   1.960 -0.8308 -0.8391 -0.3510
  906TIP3    H224354   0.527   5.546   1.861  0.0852 -0.7298 -0.2415
  907TIP3   OH224355   4.709   2.354   8.955 -0.8438  0.1033 -0.5403
  907TIP3    H124356   4.781   2.303   8.993 -2.5124 -2.6039 -0.7651
  907TIP3    H224357   4.678   2.409   9.028 -0.9825 -1.5551  0.7224
  908TIP3   OH224358   5.004   0.293   0.098 -0.1638 -0.7138  0.0427
  908TIP3    H124359   4.998   0.343   0.016 -0.5658 -0.0721  0.4548
  908TIP3    H224360   5.085   0.243   0.089  2.6859  3.1815  1.3135
  909TIP3   OH224361   6.276   4.286   7.707 -0.1311  0.4003  0.5616
  909TIP3    H124362   6.181   4.287   7.706 -0.2334 -1.9928  1.1737
  909TIP3    H224363   6.300   4.348   7.776 -1.3725 -0.7418  2.0878
  910TIP3   OH224364   3.709   1.066   1.439 -0.4844 -0.0016 -0.3634
  910TIP3    H124365   3.650   1.123   1.391 -0.7509  0.3417  0.3507
  910TIP3    H224366   3.651   1.008   1.488 -0.2445 -1.9331 -2.2282
  911TIP3   OH224367   0.349   4.186   1.039 -0.0446 -0.6527  0.8574
  911TIP3    H124368   0.363   4.150   1.127  0.1263  1.1457  1.6139
  911TIP3    H224369   0.287   4.257   1.052  2.4007  1.7896  0.1049
  912TIP3   OH224370   1.835   0.727   7.202 -0.7258  0.3041 -0.3954
  912TIP3    H124371   1.813   0.694   7.115  0.0796 -0.6411 -0.2514
  912TIP3    H224372   1.774   0.683   7.261 -0.1683 -0.3442 -0.2948
  913TIP3   OH224373   2.600   5.739   7.806 -0.4993 -0.4668  0.2628
  913TIP3    H124374   2.550   5.778   7.734 -2.4850  0.5665  2.0928
  913TIP3    H224375   2.655   5.674   7.763 -1.8806 -0.1898 -2.1538
  914TIP3   OH224376   0.182   0.271   0.982 -0.2595  0.4015  0.1077
  914TIP3    H124377   0.128   0.192   0.992  1.9203 -1.1944  0.0970
  914TIP3    H224378   0.164   0.302   0.893 -1.7630  0.4386  0.4003
  915TIP3   OH224379   2.626   3.220   8.294  0.1373 -0.1313  0.0259
  915TIP3    H124380   2.692   3.272   8.248 -1.8949  1.6111 -1.1487
  915TIP3    H224381   2.619   3.139   8.243 -0.2740  0.6923 -1.2689
  916TIP3   OH224382   3.754   5.084   8.449 -0.3698 -0.0916  0.1051
  916TIP3    H124383   3.825   5.127   8.401 -0.5284  1.1291  0.9367
  916TIP3    H224384   3.798   5.037   8.520 -0.4154  1.4115  1.1794
  917TIP3   OH224385   1.686   0.468   2.065 -0.1720  0.6626 -0.0887
  917TIP3    H124386   1.739   0.422   2.000 -0.6773 -1.1830  0.7346
  917TIP3    H224387   1.748   0.493   2.133 -0.1374 -0.3376  0.2606
  918TIP3   OH224388   5.457   3.399   0.112 -0.3301  0.9044 -0.1598
  918TIP3    H124389   5.400   3.423   0.039 -0.2075  0.3884 -0.4279
  918TIP3    H224390   5.488   3.311   0.091 -1.2489  0.2345  1.0941
  919TIP3   OH224391   3.742   5.685   1.845 -0.9164  0.0454  0.1891
  919TIP3    H124392   3.791   5.731   1.777  0.2811  0.1104  1.0738
  919TIP3    H224393   3.802   5.617   1.876 -1.7802 -0.5675  0.5654
  920TIP3   OH224394   4.391   2.482   9.044 -0.4962 -0.3359  0.4286
  920TIP3    H124395   4.395   2.470   8.949  3.1035 -0.4147  0.4326
  920TIP3    H224396   4.355   2.570   9.056  0.5967  0.3794 -1.1666
  921TIP3   OH224397   1.022   0.105   8.959  0.9748  0.5391 -0.4701
  921TIP3    H124398   1.052   0.068   9.042 -1.7641 -0.9705 -0.0320
  921TIP3    H224399   1.032   0.034   8.896 -2.7139 -0.6320  0.0140
  922TIP3   OH224400   5.481   5.489   1.232  0.2189  0.0850 -0.6158
  922TIP3    H124401   5.577   5.487   1.234  0.2672 -0.4740 -1.9989
  922TIP3    H224402   5.457   5.562   1.289  1.4635  0.1822 -0.1878
  923TIP3   OH224403   2.840   3.313   0.420  0.0950  0.2650 -0.8069
  923TIP3    H124404   2.753   3.284   0.445 -0.2061  0.0213 -2.0290
  923TIP3    H224405   2.855   3.394   0.469 -0.8826  0.3898 -0.7080
  924TIP3   OH224406   1.949   0.180   2.694  0.2176  0.4613  0.2730
  924TIP3    H124407   1.943   0.128   2.614 -2.6825  0.5647  0.3338
  924TIP3    H224408   1.957   0.271   2.663  1.5746  0.3140  0.1485
  925TIP3   OH224409   2.008   0.879   8.561 -0.0497 -0.1066  0.4742
  925TIP3    H124410   2.085   0.829   8.590 -0.2821 -0.8729 -0.2012
  925TIP3    H224411   1.958   0.817   8.508 -0.4290  0.8094 -0.2501
  926TIP3   OH224412   6.141   0.224   3.217  0.2605  0.2390 -0.4129
  926TIP3    H124413   6.063   0.198   3.266  0.2779  0.3351 -0.3351
  926TIP3    H224414   6.204   0.250   3.284 -0.2324  1.8273 -0.5349
  927TIP3   OH224415   4.631   1.105   2.568  0.5951  0.5220  0.4973
  927TIP3    H124416   4.670   1.170   2.510 -1.4469  0.8515 -0.6395
  927TIP3    H224417   4.609   1.032   2.510  2.9305 -1.3285  1.7605
  928TIP3   OH224418   3.851   1.586   2.098  0.0064 -0.3431  0.1446
  928TIP3    H124419   3.939   1.565   2.066 -0.3542  0.6442 -1.6002
  928TIP3    H224420   3.864   1.609   2.190  1.1902 -2.6352  0.6196
  929TIP3   OH224421   5.225   2.062   2.564 -0.1695 -0.7853 -0.0909
  929TIP3    H124422   5.233   2.071   2.659  1.3456 -1.3175 -0.1364
  929TIP3    H224423   5.215   1.968   2.549 -1.4543 -0.6110 -0.4162
  930TIP3   OH224424   6.291   5.650   8.579 -0.3167 -0.3007 -0.1798
  930TIP3    H124425   6.364   5.609   8.626 -0.6366 -1.4634 -0.6427
  930TIP3    H224426   6.262   5.583   8.517 -1.1800  0.4782 -0.6530
  931TIP3   OH224427   1.146   6.450   1.715 -0.0256  0.6505 -0.6157
  931TIP3    H124428   1.201   6.528   1.707  1.3768 -0.3336 -1.0642
  931TIP3    H224429   1.196   6.381   1.671 -1.3039 -0.4651 -0.3888
  932TIP3   OH224430   4.684   2.095   2.757 -0.4743  0.2410 -0.4273
  932TIP3    H124431   4.705   2.180   2.717 -0.7769  0.5839  0.1390
  932TIP3    H224432   4.738   2.092   2.836 -0.6781  0.0293 -0.2961
  933TIP3   OH224433   1.352   2.266   8.185 -0.0180  0.0465  0.3280
  933TIP3    H124434   1.354   2.230   8.097 -0.4677  2.5651 -0.7995
  933TIP3    H224435   1.438   2.306   8.197  0.5895 -1.4953  1.6768
  934TIP3   OH224436   2.367   4.008   7.048  0.4438 -0.1669 -0.0958
  934TIP3    H124437   2.455   3.970   7.044  0.5834  0.2447 -1.4467
  934TIP3    H224438   2.320   3.967   6.976 -0.5073 -0.4183  0.6458
  935TIP3   OH224439   6.600   1.829   1.333 -0.3929 -0.1038  0.7084
  935TIP3    H124440   6.580   1.758   1.393 -0.4110 -0.8658 -0.1774
  935TIP3    H224441   6.551   1.808   1.254  0.4990  0.2891  0.0350
  936TIP3   OH224442   6.307   0.965   3.231  0.6078  0.0413 -0.3542
  936TIP3    H124443   6.286   1.025   3.160 -0.7077  0.6718  0.5157
  936TIP3    H224444   6.313   1.021   3.308 -0.0471 -0.8466  0.3738
  937TIP3   OH224445   6.514   5.294   0.417 -0.0786 -0.0035 -0.0804
  937TIP3    H124446   6.458   5.357   0.463 -0.4404 -0.1818 -0.2729
  937TIP3    H224447   6.502   5.314   0.324 -1.0138 -1.0081 -0.2120
  938TIP3   OH224448   5.179   1.064   0.584  0.0326 -0.5419 -0.5555
  938TIP3    H124449   5.180   1.125   0.510  0.6417  0.0213 -0.0933
  938TIP3    H224450   5.231   1.107   0.651 -1.3222 -0.5971  0.5753
  939TIP3   OH224451   0.090   3.384   1.111 -0.0593 -0.1081 -0.0478
  939TIP3    H124452   0.162   3.374   1.173 -0.0277 -2.7719 -0.4166
  939TIP3    H224453   0.072   3.478   1.111  1.4341  0.2659  2.2577
  940TIP3   OH224454   4.431   5.291   2.808 -0.9495 -0.2273 -0.8545
  940TIP3    H124455   4.525   5.303   2.793 -0.7469 -0.6509 -0.0000
  940TIP3    H224456   4.401   5.376   2.838 -1.1144  0.2775 -2.3647
  941TIP3   OH224457   1.330   4.209   7.908  0.7417  0.0376 -0.1691
  941TIP3    H124458   1.241   4.175   7.908  0.7184  0.0625 -1.0774
  941TIP3    H224459   1.341   4.251   7.993  0.1515 -0.6386  0.2499
  942TIP3   OH224460   2.864   0.498   2.127  0.3693 -0.1165  0.1769
  942TIP3    H124461   2.805   0.491   2.052  0.5030 -2.6257  0.2317
  942TIP3    H224462   2.872   0.592   2.142 -2.8121  0.3898 -0.4698
  943TIP3   OH224463   5.602   3.156   8.772  0.4659 -0.2058  0.2276
  943TIP3    H124464   5.641   3.070   8.784  1.6334  0.2081 -0.4078
  943TIP3    H224465   5.672   3.209   8.734 -0.2331  1.0197  0.5840
  944TIP3   OH224466   1.550   1.341   8.361  0.7075 -0.6311 -0.2145
  944TIP3    H124467   1.562   1.283   8.436  2.1265 -0.3444 -0.1929
  944TIP3    H224468   1.565   1.429   8.395  0.1199 -0.3858 -0.5725
  945TIP3   OH224469   2.254   2.513   0.069 -0.5217 -0.1646  0.7129
  945TIP3    H124470   2.259   2.420   0.092  1.1329 -0.1122  0.6631
  945TIP3    H224471   2.328   2.527   0.009 -0.0834  1.4153  1.5800
  946TIP3   OH224472   0.699   1.464   8.977 -0.3184  0.5895  0.1523
  946TIP3    H124473   0.706   1.382   9.025  1.0814  1.2351  1.1071
  946TIP3    H224474   0.766   1.458   8.909 -0.1785  0.9494  0.2556
  947TIP3   OH224475   3.264   1.203   8.569  0.0049 -0.7459 -0.8926
  947TIP3    H124476   3.350   1.217   8.610 -0.7098  2.6668 -0.2725
  947TIP3    H224477   3.218   1.144   8.629  0.3731  1.0415  1.2820
  948TIP3   OH224478   3.789   4.052   1.519 -0.0758  0.3727 -0.2699
  948TIP3    H124479   3.813   4.037   1.611 -1.6792  1.8242  0.4450
  948TIP3    H224480   3.767   4.145   1.515 -1.8866 -0.0629 -1.6729
  949TIP3   OH224481   4.567   3.786   1.725  0.4369  0.0504 -0.4424
  949TIP3    H124482   4.571   3.795   1.630 -0.8765  1.3926 -0.4151
  949TIP3    H224483   4.513   3.859   1.753  0.0331 -0.8533  1.2576
  950TIP3   OH224484   6.124   3.684   7.579 -0.1948 -0.0210 -0.6587
  950TIP3    H124485   6.080   3.672   7.496  1.3372 -1.2402 -1.3494
  950TIP3    H224486   6.130   3.779   7.590 -2.6301  0.1885 -0.6585
  951TIP3   OH224487   3.326   3.506   1.268 -0.0680 -0.4982 -0.4539
  951TIP3    H124488   3.373   3.436   1.221 -0.0520 -0.3800 -0.6166
  951TIP3    H224489   3.265   3.541   1.203 -0.5634 -0.8221 -0.1643
  952TIP3   OH224490   4.699   4.891   1.423 -0.3136  0.9438 -0.6892
  952TIP3    H124491   4.772   4.870   1.364 -1.4358 -1.3018 -1.3689
  952TIP3    H224492   4.740   4.942   1.493  2.3703 -1.8379 -0.0112
  953TIP3   OH224493   3.673   2.077   2.308  0.1790  0.1501 -0.0231
  953TIP3    H124494   3.623   2.120   2.238 -0.3579 -0.4074 -0.0010
  953TIP3    H224495   3.760   2.063   2.270 -0.2836 -0.7060 -0.8324
  954TIP3   OH224496   1.962   1.649   8.075  0.2268  0.4000 -0.0547
  954TIP3    H124497   1.952   1.708   8.149  2.7322  0.2845  0.4612
  954TIP3    H224498   1.991   1.705   8.003  0.7790  0.0736 -0.0890
  955TIP3   OH224499   2.139   3.979   0.484 -0.4753 -0.5490  0.8364
  955TIP3    H124500   2.221   4.005   0.525 -0.8866 -0.1620  1.4449
  955TIP3    H224501   2.130   3.886   0.504  0.7015 -1.0624 -0.8192
  956TIP3   OH224502   2.029   5.944   8.640 -0.9329 -0.3489 -1.0206
  956TIP3    H124503   1.988   5.973   8.558 -0.3055  1.1014 -0.8505
  956TIP3    H224504   2.031   6.023   8.694  0.8980 -0.6918 -0.5395
  957TIP3   OH224505   0.432   3.170   2.377 -0.0909 -0.1024  0.0261
  957TIP3    H124506   0.438   3.235   2.447  0.7457  0.4502 -0.5417
  957TIP3    H224507   0.338   3.149   2.372 -0.2014  0.0881  1.0809
  958TIP3   OH224508   3.141   3.764   2.088  0.1194  0.3663  0.3636
  958TIP3    H124509   3.115   3.776   1.997  1.2542  0.5564  0.0454
  958TIP3    H224510   3.217   3.706   2.084 -0.3567 -0.3520  1.2636
  959TIP3   OH224511   3.569   4.050   0.979  0.3353 -0.2379 -1.0939
  959TIP3    H124512   3.563   3.998   0.899 -0.5863  2.2557 -2.7475
  959TIP3    H224513   3.641   4.111   0.962 -0.2826  0.7378 -0.2991
  960TIP3   OH224514   3.697   0.865   7.445 -0.0773 -0.0677 -0.0732
  960TIP3    H124515   3.766   0.889   7.384  0.0881  2.9654  1.1578
  960TIP3    H224516   3.742   0.823   7.518  0.3591  0.9953  0.2745
  961TIP3   OH224517   2.284   4.291   8.257  0.3500  0.0279  0.1271
  961TIP3    H124518   2.365   4.268   8.303  0.9457 -1.7016 -1.6620
  961TIP3    H224519   2.215   4.251   8.309  0.7985 -0.0059  0.7126
  962TIP3   OH224520   1.421   4.694   7.033  0.0897  0.3864  0.1449
  962TIP3    H124521   1.401   4.760   6.967  0.2424  0.8297  0.5313
  962TIP3    H224522   1.456   4.744   7.107  1.1189 -0.2202  0.0847
  963TIP3   OH224523   2.443   3.071   0.804 -0.7741 -0.1938 -0.2376
  963TIP3    H124524   2.396   3.152   0.784 -1.7029 -0.4711  0.8099
  963TIP3    H224525   2.509   3.097   0.868  0.7977  0.2613 -1.9384
  964TIP3   OH224526   6.240   4.162   0.548  0.0763  0.0564  0.4004
  964TIP3    H124527   6.257   4.068   0.540 -1.1305 -0.0927 -0.7510
  964TIP3    H224528   6.190   4.184   0.469  0.0993  1.6185  0.7907
  965TIP3   OH224529   0.753   3.052   8.664 -0.0869 -0.1383  0.2506
  965TIP3    H124530   0.760   3.040   8.569  0.1405  1.1722  0.0974
  965TIP3    H224531   0.775   2.966   8.700 -0.6643 -0.7947 -0.8951
  966TIP3   OH224532   0.655   2.929   8.141  0.0034 -0.3133  0.3897
  966TIP3    H124533   0.635   2.839   8.116  0.4230 -0.1972 -0.3888
  966TIP3    H224534   0.603   2.983   8.082  1.9899 -0.0142 -1.2287
  967TIP3   OH224535   0.845   1.063   8.882  0.4520  0.0665  0.6922
  967TIP3    H124536   0.878   1.121   8.813 -0.9821  0.4612  0.3206
  967TIP3    H224537   0.864   0.975   8.851 -0.5614  0.2251 -0.4311
  968TIP3   OH224538   3.397   6.495   0.517 -0.2838  0.0005  0.1562
  968TIP3    H124539   3.378   6.423   0.458 -0.0150  0.6063 -0.7005
  968TIP3    H224540   3.492   6.491   0.529 -0.0300  1.1324 -1.1768
  969TIP3   OH224541   3.459   3.540   0.441  0.1560 -0.4900  0.7506
  969TIP3    H124542   3.449   3.627   0.404  1.1017 -0.7890 -0.2800
  969TIP3    H224543   3.546   3.512   0.412  0.2769 -1.3758  1.9061
  970TIP3   OH224544   1.761   4.305   8.726 -0.1831 -0.0004 -0.0795
  970TIP3    H124545   1.701   4.331   8.796 -0.9591 -2.3386  0.2129
  970TIP3    H224546   1.709   4.248   8.670  1.0880 -0.0588 -1.2503
  971TIP3   OH224547   4.160   5.216   1.319  0.0507 -0.1982  0.4587
  971TIP3    H124548   4.247   5.233   1.282 -0.9291 -3.2296 -4.0135
  971TIP3    H224549   4.168   5.130   1.360 -0.8527 -0.5989 -0.1807
  972TIP3   OH224550   6.583   6.570   1.171  0.2689  0.3143 -0.1616
  972TIP3    H124551   6.637   6.528   1.238  1.0099  0.7057 -0.5081
  972TIP3    H224552   6.525   6.500   1.140  0.5779 -0.1089  0.2023
  973TIP3   OH224553   3.598   0.532   1.501  0.5759 -0.1938  0.5440
  973TIP3    H124554   3.614   0.479   1.579 -0.6842 -2.0620 -0.3781
  973TIP3    H224555   3.646   0.488   1.431 -1.0678 -0.5823 -0.3898
  974TIP3   OH224556   3.732   5.317   0.786  0.0922 -0.4026  0.1364
  974TIP3    H124557   3.758   5.408   0.770  1.5230 -0.2951  2.6237
  974TIP3    H224558   3.651   5.323   0.836  0.5865 -0.4354  0.9636
  975TIP3   OH224559   1.861   5.218   7.332  0.2788  0.3060  0.3374
  975TIP3    H124560   1.779   5.236   7.287  0.0324  0.6319  0.9042
  975TIP3    H224561   1.908   5.158   7.274 -0.1588  0.4834 -0.2037
  976TIP3   OH224562   6.593   1.304   0.559  0.1097  0.0432  0.0954
  976TIP3    H124563   6.653   1.374   0.588  2.4832 -0.6655 -2.6104
  976TIP3    H224564   6.506   1.344   0.564  1.0147  2.0369  1.7645
  977TIP3   OH224565   5.418   3.496   2.108  0.4341  0.5388 -0.3160
  977TIP3    H124566   5.357   3.566   2.084  1.3770  1.2795 -0.5826
  977TIP3    H224567   5.385   3.464   2.191 -0.5736  0.6350 -0.6626
  978TIP3   OH224568   1.906   0.100   8.575  0.1402  0.0394 -0.0511
  978TIP3    H124569   1.922   0.152   8.654 -0.3608  0.1827 -0.0410
  978TIP3    H224570   1.902   0.010   8.606 -1.0719  0.1807  0.2471
  979TIP3   OH224571   5.163   0.723   8.998 -0.1411  0.7275 -0.0843
  979TIP3    H124572   5.126   0.695   8.914 -0.8263 -0.5618  0.6242
  979TIP3    H224573   5.256   0.701   8.991 -0.4569 -0.7229  0.0192
  980TIP3   OH224574   3.291   0.225   0.980  0.1137  0.4070 -0.1687
  980TIP3    H124575   3.324   0.206   1.068  1.5106  1.7288 -0.3707
  980TIP3    H224576   3.327   0.155   0.925 -0.8756 -0.5023  0.2836
  981TIP3   OH224577   4.637   4.405   7.462 -0.1102 -0.0290  0.0505
  981TIP3    H124578   4.571   4.360   7.514  0.1576  0.5073  0.8798
  981TIP3    H224579   4.628   4.369   7.374  1.0962 -2.8306  0.9720
  982TIP3   OH224580   5.091   3.557   0.050  0.1117  0.0029 -0.6083
  982TIP3    H124581   5.156   3.622   0.024  0.3696  1.0420  2.2609
  982TIP3    H224582   5.124   3.523   0.133 -1.2899 -2.0263 -0.8227
  983TIP3   OH224583   4.003   0.212   2.552 -0.0478  0.2499  0.0521
  983TIP3    H124584   4.017   0.288   2.608  0.8959 -0.3506  0.6753
  983TIP3    H224585   4.007   0.137   2.612 -1.4077 -0.2750 -0.4773
  984TIP3   OH224586   4.550   6.430   1.814  0.1139  0.4846 -0.1359
  984TIP3    H124587   4.544   6.377   1.735 -1.1736  0.9580 -0.3684
  984TIP3    H224588   4.469   6.481   1.816  0.6951  1.4156  0.8204
  985TIP3   OH224589   1.459   1.207   8.979 -0.1258  0.1650  0.7685
  985TIP3    H124590   1.419   1.161   8.906 -0.1934  0.7644  0.4209
  985TIP3    H224591   1.389   1.263   9.014  0.7059  2.2186 -0.6648
  986TIP3   OH224592   5.451   3.746   2.399 -0.3910  0.0298  0.2339
  986TIP3    H124593   5.489   3.807   2.336 -0.4085 -0.7696 -0.5835
  986TIP3    H224594   5.516   3.736   2.468  0.0088  0.2376 -0.1163
  987TIP3   OH224595   1.221   5.217   0.421 -0.4932  0.1261 -0.9184
  987TIP3    H124596   1.275   5.172   0.486  0.0073 -0.1215 -1.4942
  987TIP3    H224597   1.254   5.306   0.420 -0.8307  0.2614 -0.4849
  988TIP3   OH224598   2.275   1.614   3.126  0.0150  0.2461  0.3060
  988TIP3    H124599   2.289   1.706   3.145 -3.4549  1.2698 -1.2573
  988TIP3    H224600   2.234   1.579   3.205 -0.9914  0.7712  0.0430
  989TIP3   OH224601   5.831   6.319   2.102  0.1334  0.2109  0.2974
  989TIP3    H124602   5.786   6.252   2.050  0.5080 -2.3161  2.9862
  989TIP3    H224603   5.924   6.306   2.082  0.1819  0.1184  0.5734
  990TIP3   OH224604   1.486   2.208   1.249 -0.2875 -0.4127  0.3940
  990TIP3    H124605   1.580   2.197   1.266 -0.3250 -1.5569 -0.0516
  990TIP3    H224606   1.443   2.158   1.318 -0.5210 -1.3512 -0.4104
  991TIP3   OH224607   5.808   5.129   0.075  0.6608  0.7153 -0.2780
  991TIP3    H124608   5.721   5.150   0.111  0.9191  0.8512  0.2785
  991TIP3    H224609   5.867   5.192   0.117  1.1429  0.1494 -0.0961
  992TIP3   OH224610   1.600   5.844   0.385  0.1999  0.0680 -0.4468
  992TIP3    H124611   1.665   5.778   0.360 -0.8826 -0.1456 -3.0591
  992TIP3    H224612   1.624   5.921   0.332 -0.0562  0.9283  0.6588
  993TIP3   OH224613   1.005   3.467   1.706 -0.3992 -0.4804 -0.3209
  993TIP3    H124614   1.015   3.503   1.618  2.5391  1.5772  0.7095
  993TIP3    H224615   1.016   3.372   1.694 -1.0344 -0.3545 -2.2541
  994TIP3   OH224616   4.138   2.084   9.011  0.1925 -0.0308 -0.1009
  994TIP3    H124617   4.212   2.059   8.955  0.1491 -1.5004  0.4635
  994TIP3    H224618   4.061   2.065   8.958  0.1847  0.5754 -0.3173
  995TIP3   OH224619   2.385   2.559   0.892  0.2294 -0.3229  0.5830
  995TIP3    H124620   2.374   2.648   0.926 -0.8232  0.2953 -1.2357
  995TIP3    H224621   2.418   2.571   0.803  0.2071 -1.7680  0.3550
  996TIP3   OH224622   6.376   2.908   1.318  0.0710 -0.2281 -0.5442
  996TIP3    H124623   6.324   2.834   1.349 -1.3014  1.2511  0.8750
  996TIP3    H224624   6.386   2.892   1.224 -1.2078 -1.5952 -0.4901
  997TIP3   OH224625   4.518   5.305   1.513  0.1596 -0.4240  0.2908
  997TIP3    H124626   4.603   5.294   1.471  0.7999  0.0638  1.4353
  997TIP3    H224627   4.490   5.393   1.488 -1.2523 -1.4578 -2.2095
  998TIP3   OH224628   0.596   1.120   7.530  0.2459 -0.9697 -0.3026
  998TIP3    H124629   0.609   1.215   7.527  2.6667 -1.1978  0.7218
  998TIP3    H224630   0.506   1.107   7.499 -1.1054  1.8403  1.9501
  999TIP3   OH224631   0.109   1.883   1.838 -0.1979 -0.4303 -0.2014
  999TIP3    H124632   0.182   1.842   1.792  0.9015  2.4976 -1.2481
  999TIP3    H224633   0.037   1.882   1.774  0.2026  0.3655 -0.6680
 1000TIP3   OH224634   3.522   2.041   8.404 -0.1813  0.1210  0.4538
 1000TIP3    H124635   3.446   2.096   8.385 -0.0108 -0.2849 -1.7246
 1000TIP3    H224636   3.528   1.982   8.328  1.4663 -0.7984  1.2489
 1001TIP3   OH224637   2.109   1.680   7.496 -0.0709  0.6034  0.5301
 1001TIP3    H124638   2.018   1.676   7.527 -0.2182 -0.7465  0.0022
 1001TIP3    H224639   2.159   1.635   7.564  0.4374  2.5262  1.4921
 1002TIP3   OH224640   3.920   2.321   8.994  0.3792 -0.4954 -0.1415
 1002TIP3    H124641   3.992   2.260   9.012 -0.3967 -1.0980  1.0262
 1002TIP3    H224642   3.854   2.268   8.951  0.5745  0.0461 -1.1544
 1003TIP3   OH224643   3.543   0.578   2.093  0.4822 -0.2706 -0.0788
 1003TIP3    H124644   3.486   0.503   2.083  1.3054 -1.0595  0.9358
 1003TIP3    H224645   3.493   0.640   2.147  1.1153 -1.6069  2.1652
 1004TIP3   OH224646   1.276   1.084   0.877 -0.0926  0.1260  0.3244
 1004TIP3    H124647   1.275   1.032   0.797  0.7936  0.7468 -0.1042
 1004TIP3    H224648   1.191   1.128   0.878 -0.4458 -0.5454  0.1755
 1005TIP3   OH224649   0.474   4.439   0.883  0.0244  0.2391  0.0714
 1005TIP3    H124650   0.462   4.346   0.901  0.2840  0.1633 -0.1432
 1005TIP3    H224651   0.389   4.468   0.850  0.4934 -0.3910 -1.8454
 1006TIP3   OH224652   0.298   0.445   1.457 -0.5107 -0.1895 -0.2635
 1006TIP3    H124653   0.329   0.366   1.502  1.5293 -0.6354 -2.2507
 1006TIP3    H224654   0.295   0.421   1.364 -2.1376  1.4071 -0.6904
 1007TIP3   OH224655   3.783   0.139   8.004 -0.1370 -0.0819  0.1471
 1007TIP3    H124656   3.789   0.053   7.963  1.1192 -0.3083  0.7862
 1007TIP3    H224657   3.778   0.200   7.930 -1.0984 -0.6810 -0.3085
 1008TIP3   OH224658   5.708   6.367   1.519  0.5179 -0.5819 -0.2786
 1008TIP3    H124659   5.772   6.417   1.569  0.4004 -0.3473 -0.3591
 1008TIP3    H224660   5.736   6.276   1.527  0.1927 -0.6082  0.6629
 1009TIP3   OH224661   5.142   2.764   8.520  0.3206 -0.0065  0.5395
 1009TIP3    H124662   5.097   2.791   8.440  0.6890 -0.2658  0.2417
 1009TIP3    H224663   5.081   2.787   8.591 -0.5952 -0.9795  0.1081
 1010TIP3   OH224664   0.306   5.266   9.155  0.2177  0.1176  0.0915
 1010TIP3    H124665   0.313   5.172   9.170 -1.8556  0.3153  3.2202
 1010TIP3    H224666   0.232   5.275   9.095 -0.1319 -0.2449  0.4575
 1011TIP3   OH224667   4.803   0.863   7.752 -0.5638  0.3099  0.5914
 1011TIP3    H124668   4.883   0.864   7.700 -0.5439  2.9733  0.5058
 1011TIP3    H224669   4.804   0.779   7.797  2.8665  0.6628  1.4671
 1012TIP3   OH224670   6.479   3.482   2.590  0.1603  0.8500  0.2649
 1012TIP3    H124671   6.408   3.525   2.542 -0.7620  0.8281  1.5664
 1012TIP3    H224672   6.492   3.535   2.668  1.3669  0.6595  0.2167
 1013TIP3   OH224673   0.303   5.863   8.892  1.0663 -0.0976 -0.3271
 1013TIP3    H124674   0.253   5.869   8.810  0.2574  1.4536  0.2486
 1013TIP3    H224675   0.266   5.931   8.948  0.1959 -2.3725  2.1046
 1014TIP3   OH224676   0.003   0.610   3.159  0.0494  0.3011  0.0293
 1014TIP3    H124677   0.028   0.650   3.076 -1.4644  0.5318 -0.3505
 1014TIP3    H224678  -0.039   0.680   3.208 -0.6104 -0.2545  0.2806
 1015TIP3   OH224679   2.593   3.018   0.558  0.1652 -0.0011 -0.1025
 1015TIP3    H124680   2.580   3.009   0.653  0.5074  0.9680  0.0432
 1015TIP3    H224681   2.570   3.109   0.539  0.8536  0.0267 -0.8226
 1016TIP3   OH224682   0.630   0.050   1.482  0.0862 -0.3787  0.5986
 1016TIP3    H124683   0.617  -0.032   1.530 -1.2803 -0.2275  0.5266
 1016TIP3    H224684   0.615   0.118   1.548  3.8382 -0.1010  1.3580
 1017TIP3   OH224685   2.182   3.436   2.545  0.3806  0.5852  0.1640
 1017TIP3    H124686   2.143   3.358   2.585  0.0459  0.9225  0.5008
 1017TIP3    H224687   2.116   3.465   2.482  0.7131  0.3165 -0.3136
 1018TIP3   OH224688   0.661   6.290   2.517 -0.2964 -0.1205  0.6230
 1018TIP3    H124689   0.670   6.269   2.610 -1.2186 -2.5742  0.2263
 1018TIP3    H224690   0.625   6.379   2.516 -2.3861 -0.8418  2.7363
 1019TIP3   OH224691   6.138   0.790   7.791  0.2464 -0.1616  0.3414
 1019TIP3    H124692   6.163   0.707   7.832 -1.0793 -0.6772  0.1476
 1019TIP3    H224693   6.078   0.765   7.721 -0.9716  1.0090  0.9204
 1020TIP3   OH224694   2.753   3.590   1.902  0.0598 -0.0406  0.1388
 1020TIP3    H124695   2.810   3.568   1.829  0.4697  0.7740  0.2053
 1020TIP3    H224696   2.731   3.682   1.889  0.3182  0.1822  1.1452
 1021TIP3   OH224697   6.350   2.500   0.343  0.2620 -0.5231 -0.1552
 1021TIP3    H124698   6.257   2.522   0.346  0.5367  0.5648  1.0996
 1021TIP3    H224699   6.355   2.412   0.380 -0.1031  0.0597  1.3164
 1022TIP3   OH224700   1.958   2.527   1.521 -0.1516  0.3084  0.5363
 1022TIP3    H124701   1.967   2.588   1.447 -2.1789  0.1016  0.0580
 1022TIP3    H224702   2.032   2.467   1.511  0.7487  1.4736 -0.1469
 1023TIP3   OH224703   5.435   2.719   0.504  0.1819 -0.0222  0.3205
 1023TIP3    H124704   5.454   2.757   0.418  1.7708  1.7520  1.3732
 1023TIP3    H224705   5.436   2.625   0.489 -0.8307  0.2509 -1.8251
 1024TIP3   OH224706   4.404   0.929   0.734  0.2616  0.4130  0.5065
 1024TIP3    H124707   4.496   0.916   0.761  0.0194 -0.7372  0.8541
 1024TIP3    H224708   4.403   0.907   0.641 -0.1860 -2.7232  1.1310
 1025TIP3   OH224709   2.974   4.818   8.643  0.3317 -0.6150  0.1265
 1025TIP3    H124710   2.983   4.907   8.676 -0.9278 -0.3183 -0.2871
 1025TIP3    H224711   2.899   4.783   8.691 -0.9003 -0.5201 -1.6840
 1026TIP3   OH224712   0.647   0.821   9.030 -0.2493  0.6401 -0.0487
 1026TIP3    H124713   0.580   0.849   8.968  1.3960 -0.3283 -2.4492
 1026TIP3    H224714   0.676   0.902   9.073 -1.5304  1.3396 -0.4621
 1027TIP3   OH224715   3.828   0.013   2.231  0.2211  0.1510 -0.0186
 1027TIP3    H124716   3.761   0.038   2.167 -0.7398  0.5862  1.1301
 1027TIP3    H224717   3.792  -0.066   2.272  0.0041  0.8408  1.1664
 1028TIP3   OH224718   5.767   3.304   8.975  0.2504  0.3009  0.0343
 1028TIP3    H124719   5.792   3.288   8.885 -0.1801  0.5246 -0.1289
 1028TIP3    H224720   5.694   3.244   8.991  1.0683 -0.5742  0.6019
 1029TIP3   OH224721   4.017   0.347   1.720 -0.2148 -0.5603  0.1771
 1029TIP3    H124722   4.027   0.252   1.716  0.2419 -0.6821  2.5848
 1029TIP3    H224723   4.084   0.376   1.782 -1.6267  1.0728  1.0530
 1030TIP3   OH224724   3.984   2.983   7.812  0.0866  0.3413 -0.2889
 1030TIP3    H124725   4.027   2.909   7.769  0.2713  0.9062 -1.1047
 1030TIP3    H224726   4.035   3.060   7.784 -1.5648  1.0637 -1.5027
 1031TIP3   OH224727   5.483   3.560   1.687  0.3639 -0.1126 -0.0616
 1031TIP3    H124728   5.392   3.562   1.659  0.6532 -1.9202 -1.2928
 1031TIP3    H224729   5.533   3.568   1.606  1.2774 -0.7595  0.4198
 1032TIP3   OH224730   1.526   2.776   9.146 -0.9689  0.6113 -0.5878
 1032TIP3    H124731   1.554   2.697   9.100 -0.4450  0.3764  0.1139
 1032TIP3    H224732   1.599   2.797   9.204 -0.9882  1.7673 -0.9599
 1033TIP3   OH224733   4.000   3.023   6.818 -0.7310 -0.4717 -0.0906
 1033TIP3    H124734   3.976   2.988   6.732 -0.8931  0.1913 -0.3203
 1033TIP3    H224735   4.096   3.022   6.818 -0.7279 -1.3552  0.0968
 1034TIP3   OH224736   5.992   5.505   8.551  0.0914 -0.6076  0.3951
 1034TIP3    H124737   5.995   5.535   8.642  0.4456  0.6835 -0.0084
 1034TIP3    H224738   6.035   5.576   8.502  0.5481 -1.6116 -0.6906
 1035TIP3   OH224739   2.616   0.378   7.721  0.0323  0.3220  0.4495
 1035TIP3    H124740   2.660   0.419   7.647  3.2373 -0.1714  1.9266
 1035TIP3    H224741   2.577   0.451   7.770  1.5933  1.1576  0.5113
 1036TIP3   OH224742   3.795   4.520   0.335  1.0298  0.2845  0.6208
 1036TIP3    H124743   3.782   4.425   0.339 -0.3327  0.3712 -0.5888
 1036TIP3    H224744   3.751   4.554   0.412 -1.8651  0.1555 -0.8446
 1037TIP3   OH224745   5.476   0.303   0.161 -0.4839  0.3464 -0.5640
 1037TIP3    H124746   5.457   0.333   0.250 -1.3230 -0.3719 -0.4795
 1037TIP3    H224747   5.447   0.374   0.105 -1.9685 -0.0395 -0.3432
 1038TIP3   OH224748   3.143   5.243   8.999  0.3108 -0.1888  0.3805
 1038TIP3    H124749   3.079   5.173   9.015  0.7507  0.0368  3.8216
 1038TIP3    H224750   3.211   5.201   8.946 -1.2690 -1.1812 -0.9867
 1039TIP3   OH224751   1.410   5.055   8.934 -0.1987 -0.2186  0.1673
 1039TIP3    H124752   1.412   4.963   8.909  1.2931 -0.8542  2.3152
 1039TIP3    H224753   1.438   5.055   9.026 -1.5056  2.2548  0.6451
 1040TIP3   OH224754   3.927   4.781   9.164  0.1602  0.5888  0.3010
 1040TIP3    H124755   3.853   4.841   9.154 -0.8800 -0.8852 -1.6715
 1040TIP3    H224756   3.935   4.768   9.258 -1.3462  1.7037  0.6142
 1041TIP3   OH224757   0.397   3.581   8.466 -0.2407  0.1155 -0.5441
 1041TIP3    H124758   0.418   3.497   8.507 -0.8028  0.3798  0.3002
 1041TIP3    H224759   0.301   3.587   8.470 -0.2822  0.3227 -1.5545
 1042TIP3   OH224760   1.509   2.909   2.782  0.3870  0.2452 -0.2054
 1042TIP3    H124761   1.440   2.942   2.724 -0.1923  1.7486  1.2319
 1042TIP3    H224762   1.570   2.983   2.790  1.8211 -0.8270 -0.9017
 1043TIP3   OH224763   5.629   4.891   2.883 -0.1532  0.0129 -0.1406
 1043TIP3    H124764   5.702   4.853   2.833  0.9183  0.7592  0.8021
 1043TIP3    H224765   5.588   4.816   2.925 -0.4562 -0.5139 -1.3280
 1044TIP3   OH224766   5.315   2.624   1.486  0.2012 -0.4163 -0.7543
 1044TIP3    H124767   5.273   2.640   1.571 -0.5730  1.0663 -1.3933
 1044TIP3    H224768   5.271   2.683   1.425  2.6130  0.6043 -1.6520
 1045TIP3   OH224769   1.130   5.584   8.748  0.2837 -0.3940  0.1511
 1045TIP3    H124770   1.160   5.675   8.749 -1.9257  0.5050 -2.4118
 1045TIP3    H224771   1.204   5.535   8.711  1.3757  0.3760  1.2498
 1046TIP3   OH224772   0.544   4.836   8.967  0.0210 -0.4242  0.6615
 1046TIP3    H124773   0.518   4.870   9.053  0.5094 -2.2967  1.6004
 1046TIP3    H224774   0.639   4.825   8.973  0.4491  1.6717 -0.9998
 1047TIP3   OH224775   4.351   0.103   8.787  0.1523  0.3714 -0.3139
 1047TIP3    H124776   4.325   0.130   8.874 -0.3217  0.8919 -0.6137
 1047TIP3    H224777   4.342   0.007   8.788  2.6826  0.0538  1.0271
 1048TIP3   OH224778   2.802   4.968   2.168 -0.2726  0.4562  0.3784
 1048TIP3    H124779   2.832   5.059   2.161  2.1503 -0.0861  2.1877
 1048TIP3    H224780   2.868   4.918   2.120 -1.5266 -0.4136 -0.5080
 1049TIP3   OH224781   4.125   6.333   1.354 -0.3104 -0.7744  0.0162
 1049TIP3    H124782   4.121   6.401   1.287 -1.5971 -0.5309  0.3088
 1049TIP3    H224783   4.082   6.372   1.430 -1.3969 -2.0258  0.0764
 1050TIP3   OH224784   4.034   5.359   0.827  0.0985 -0.5663 -0.4299
 1050TIP3    H124785   3.957   5.390   0.875 -0.7966  0.3343 -2.3479
 1050TIP3    H224786   4.089   5.319   0.894 -2.8177 -2.9066  0.7869
 1051TIP3   OH224787   1.341   6.074   7.126  0.1086 -0.4539 -0.9514
 1051TIP3    H124788   1.256   6.066   7.171  0.1267  0.1618 -0.8057
 1051TIP3    H224789   1.325   6.038   7.039  0.2809 -2.4505 -0.2180
 1052TIP3   OH224790   3.621   4.076   0.059  0.5275  0.1957  0.3684
 1052TIP3    H124791   3.567   4.000   0.036  0.3136  0.0173  1.4147
 1052TIP3    H224792   3.643   4.062   0.151  1.1525  1.0071  0.3444
 1053TIP3   OH224793   1.033   3.518   2.006 -0.4283  0.2466  0.5662
 1053TIP3    H124794   1.039   3.513   1.911 -1.2566  1.1157  0.4453
 1053TIP3    H224795   0.988   3.437   2.032 -0.4769  0.1530  0.1884
 1054TIP3   OH224796   6.619   2.469   3.136  0.4501 -0.4845  0.3558
 1054TIP3    H124797   6.702   2.447   3.179  0.1766 -2.3884  0.0069
 1054TIP3    H224798   6.645   2.515   3.056  1.1114 -0.1014  0.7772
 1055TIP3   OH224799   2.215   5.135   8.115  0.4111 -0.1201  0.4678
 1055TIP3    H124800   2.204   5.183   8.197 -0.0011 -0.4192  0.5889
 1055TIP3    H224801   2.184   5.195   8.048  1.9620  0.6437  0.3716
 1056TIP3   OH224802   4.526   4.712   1.803  0.4739  0.5589 -0.4667
 1056TIP3    H124803   4.490   4.795   1.773  1.0507  0.4349 -1.5460
 1056TIP3    H224804   4.557   4.669   1.724 -0.9150 -1.2503 -0.1159
 1057TIP3   OH224805   5.654   4.368   7.583 -0.2001 -0.0683 -0.0432
 1057TIP3    H124806   5.606   4.435   7.631 -0.0601 -0.2840  0.4004
 1057TIP3    H224807   5.626   4.380   7.492  0.5007  1.1811 -0.1176
 1058TIP3   OH224808   4.552   1.458   1.633 -0.6561  0.0332  0.0958
 1058TIP3    H124809   4.514   1.370   1.637 -1.6404  0.4627  0.6497
 1058TIP3    H224810   4.540   1.485   1.542  1.1477 -1.0167 -0.5047
 1059TIP3   OH224811   1.953   4.204   0.172 -0.0757  0.2968  0.3421
 1059TIP3    H124812   2.040   4.167   0.158  0.4311  1.5836 -0.0498
 1059TIP3    H224813   1.930   4.244   0.088  0.2891  2.6204  1.2775
 1060TIP3   OH224814   2.365   5.198   7.755 -0.0190  0.7833  0.8329
 1060TIP3    H124815   2.341   5.267   7.693 -0.0617 -0.6978 -0.8997
 1060TIP3    H224816   2.458   5.210   7.770  0.6623 -0.4502 -1.8073
 1061TIP3   OH224817   2.799   1.737   1.588 -0.6006 -0.5172  0.1674
 1061TIP3    H124818   2.717   1.780   1.614 -0.0014  0.0575  1.1524
 1061TIP3    H224819   2.819   1.678   1.660  0.3538  0.0625  0.3920
 1062TIP3   OH224820   6.523   4.870   8.577  0.5031  0.0572  0.2867
 1062TIP3    H124821   6.523   4.817   8.656 -0.3783 -0.3146  0.0590
 1062TIP3    H224822   6.505   4.959   8.607  0.1407 -0.0871  0.5114
 1063TIP3   OH224823   3.589   4.639   0.021  1.4335  0.1885 -0.2107
 1063TIP3    H124824   3.581   4.561   0.077 -0.3592  1.0341  0.8112
 1063TIP3    H224825   3.535   4.705   0.065  0.5470  1.1247 -2.5401
 1064TIP3   OH224826   3.496   6.186   0.769  0.5133  0.4293  0.3571
 1064TIP3    H124827   3.483   6.281   0.762 -0.3855  0.3081  0.2565
 1064TIP3    H224828   3.554   6.165   0.696 -0.3456  0.7177 -0.4283
 1065TIP3   OH224829   2.965   6.477   8.354  0.2239 -0.4632  0.4301
 1065TIP3    H124830   3.043   6.437   8.314  1.6408  0.4509  2.1014
 1065TIP3    H224831   2.894   6.416   8.337  0.4863  0.1498 -4.0242
 1066TIP3   OH224832   2.903   2.189   2.676 -0.3062  0.8483  0.1678
 1066TIP3    H124833   2.861   2.107   2.652  2.5278 -0.2443 -1.5492
 1066TIP3    H224834   2.945   2.172   2.760  0.9591  0.2043 -0.5666
 1067TIP3   OH224835   4.503   1.451   8.492 -0.1671  0.4290 -0.3592
 1067TIP3    H124836   4.428   1.445   8.552 -0.4141 -1.5643 -0.7948
 1067TIP3    H224837   4.566   1.506   8.538 -0.2419 -1.2345  1.8874
 1068TIP3   OH224838   5.602   1.238   2.244 -0.3981 -0.6218  0.5943
 1068TIP3    H124839   5.550   1.317   2.258 -0.9488 -0.2593 -2.5553
 1068TIP3    H224840   5.544   1.166   2.268 -2.3957 -0.2002 -2.3583
 1069TIP3   OH224841   3.386   0.581   0.411  0.4897  0.3094 -0.2315
 1069TIP3    H124842   3.377   0.522   0.486 -2.4291 -1.0496 -1.4551
 1069TIP3    H224843   3.403   0.667   0.448 -0.8523 -0.3229  1.9983
 1070TIP3   OH224844   5.141   6.026   1.514  0.0335 -0.2411 -0.4636
 1070TIP3    H124845   5.110   6.112   1.484 -1.2174 -0.5664 -0.1581
 1070TIP3    H224846   5.065   5.986   1.554  1.2492 -0.4023  1.8791
 1071TIP3   OH224847   1.564   0.419   2.501  0.3487 -0.5556  0.6170
 1071TIP3    H124848   1.516   0.420   2.584  0.1705 -0.6339  0.5144
 1071TIP3    H224849   1.498   0.396   2.435  0.9571 -2.8169  0.7407
 1072TIP3   OH224850   4.052   1.509   8.567  0.2124  0.7341  0.4159
 1072TIP3    H124851   4.050   1.549   8.654 -1.8663  0.2436  0.6542
 1072TIP3    H224852   4.096   1.425   8.581 -1.8084 -0.2450  1.5042
 1073TIP3   OH224853   6.310   5.967   8.718  0.5514 -0.1199  0.0601
 1073TIP3    H124854   6.370   5.895   8.736  0.8620  0.3151  0.7930
 1073TIP3    H224855   6.366   6.044   8.709  0.2178  0.0503 -0.6457
 1074TIP3   OH224856   3.292   5.697   1.166 -0.6963 -0.0406 -0.4502
 1074TIP3    H124857   3.206   5.721   1.200 -0.4911 -0.5270  0.4225
 1074TIP3    H224858   3.277   5.618   1.114 -0.8897  0.2918 -0.9065
 1075TIP3   OH224859   0.635   4.957   7.038 -0.3161  0.0485  0.0775
 1075TIP3    H124860   0.647   5.052   7.027 -0.4392 -0.0033 -0.5275
 1075TIP3    H224861   0.699   4.932   7.104 -0.4633  0.6006  0.4379
 1076TIP3   OH224862   6.626   6.166   8.021  0.2917  0.2134 -0.1718
 1076TIP3    H124863   6.684   6.198   7.951  2.9874  3.4011  3.1138
 1076TIP3    H224864   6.679   6.102   8.067 -0.2061  0.4824  0.7850
 1077TIP3   OH224865   1.977   6.397   7.866 -0.2566 -0.1942  0.9160
 1077TIP3    H124866   1.997   6.436   7.781 -0.3313  0.4539  1.1952
 1077TIP3    H224867   1.946   6.308   7.845 -2.1132  0.5943  0.1289
 1078TIP3   OH224868   2.894   6.133   0.934 -0.3474 -0.4815 -0.1174
 1078TIP3    H124869   2.894   6.101   0.843  0.4173 -1.7546  0.3171
 1078TIP3    H224870   2.986   6.150   0.954 -0.6879  1.9054 -0.2601
 1079TIP3   OH224871   5.197   6.101   9.089 -0.1442 -0.0406 -0.6033
 1079TIP3    H124872   5.289   6.124   9.074 -0.0660 -0.9334 -1.6744
 1079TIP3    H224873   5.149   6.181   9.067  0.3349  0.2558 -0.6042
 1080TIP3   OH224874   3.832   4.353   7.240  0.2680  0.0356 -0.8644
 1080TIP3    H124875   3.812   4.260   7.235  1.8238 -0.6492  2.6948
 1080TIP3    H224876   3.759   4.390   7.289 -0.1452  0.6781 -1.9231
 1081TIP3   OH224877   4.260   2.561   0.598  0.4851 -0.1761  0.2786
 1081TIP3    H124878   4.230   2.532   0.511 -1.7337  2.8860 -0.1420
 1081TIP3    H224879   4.181   2.559   0.652  1.6136 -0.9471  1.9804
 1082TIP3   OH224880   4.220   2.321   0.130 -0.7648 -0.4140  0.2575
 1082TIP3    H124881   4.146   2.381   0.119 -1.9137 -1.9229 -0.7733
 1082TIP3    H224882   4.242   2.294   0.041  2.5786  1.6677  0.3026
 1083TIP3   OH224883   4.309   4.221   8.783 -0.1587  0.0396 -0.3781
 1083TIP3    H124884   4.267   4.140   8.812 -1.2917  0.5960 -0.3847
 1083TIP3    H224885   4.323   4.208   8.689 -0.7042 -0.0076 -0.4598
 1084TIP3   OH224886   5.067   5.751   8.857  0.1920 -0.3499 -0.1512
 1084TIP3    H124887   5.016   5.710   8.787  1.6897 -2.8005  0.0491
 1084TIP3    H224888   5.147   5.781   8.814  0.2337 -0.0020  0.1619
 1085TIP3   OH224889   2.935   3.702   8.213 -0.1512 -0.1855 -0.1802
 1085TIP3    H124890   3.029   3.692   8.225 -0.2105 -2.1536 -1.0906
 1085TIP3    H224891   2.905   3.747   8.292  1.1590 -1.9349  1.3631
 1086TIP3   OH224892   5.490   6.324   8.462  0.7258 -0.2275 -0.2607
 1086TIP3    H124893   5.564   6.339   8.403 -0.4704  0.1830 -1.7147
 1086TIP3    H224894   5.509   6.239   8.502  1.9096 -0.1977 -0.7014
 1087TIP3   OH224895   1.809   6.425   3.076 -0.2586 -0.7675  0.3260
 1087TIP3    H124896   1.868   6.386   3.012 -0.5562  0.7029 -0.8894
 1087TIP3    H224897   1.757   6.351   3.109  1.3982 -1.8861  0.5362
 1088TIP3   OH224898   0.624   2.253   2.395 -0.3548 -0.2958  0.0628
 1088TIP3    H124899   0.702   2.297   2.360 -0.2760  2.2013  2.9133
 1088TIP3    H224900   0.642   2.160   2.385  2.7567  0.1969  0.0299
 1089TIP3   OH224901   3.326   6.142   8.079  0.5317 -0.0774 -0.2306
 1089TIP3    H124902   3.397   6.141   8.143 -0.2380  1.3828  0.7000
 1089TIP3    H224903   3.318   6.051   8.050  1.3961 -0.6366  1.1976
 1090TIP3   OH224904   3.976   5.250   8.979 -0.7184 -0.0792  0.5169
 1090TIP3    H124905   3.976   5.154   8.977  0.5671 -0.1054 -1.4154
 1090TIP3    H224906   4.068   5.274   8.965 -1.1483  1.4353  0.0742
 1091TIP3   OH224907   5.150   0.065   1.274 -0.3637  0.1971 -0.2297
 1091TIP3    H124908   5.155  -0.028   1.299  0.7265  0.1426 -0.5950
 1091TIP3    H224909   5.190   0.112   1.348  0.7034  0.2233 -0.8111
 1092TIP3   OH224910   4.539   0.804   0.013  0.0200  0.5992 -0.0962
 1092TIP3    H124911   4.572   0.787   0.102 -0.3281 -1.0853 -0.2422
 1092TIP3    H224912   4.535   0.899   0.007  0.8617  0.7723  1.3939
 1093TIP3   OH224913   1.088   1.218   1.466 -0.4985  0.1165  0.6123
 1093TIP3    H124914   1.140   1.198   1.388 -2.1938 -1.3014 -0.2522
 1093TIP3    H224915   1.070   1.132   1.504 -1.8740  0.5846  1.0678
 1094TIP3   OH224916   3.144   2.049   7.651  0.0081  0.2423  0.4007
 1094TIP3    H124917   3.236   2.038   7.675 -0.3381 -2.3190  0.9194
 1094TIP3    H224918   3.103   2.087   7.729  0.6678  1.8242  0.0043
 1095TIP3   OH224919   2.518   4.768   1.871 -0.5474  0.3145  0.2888
 1095TIP3    H124920   2.494   4.781   1.779  0.4400  1.0918  0.1243
 1095TIP3    H224921   2.468   4.691   1.898 -0.1452 -0.5031 -1.1774
 1096TIP3   OH224922   5.780   3.223   8.096 -0.0420 -0.2430 -0.1238
 1096TIP3    H124923   5.743   3.218   8.184  1.8364  0.3000  0.7252
 1096TIP3    H224924   5.818   3.311   8.090 -0.5389 -0.1039 -1.6550
 1097TIP3   OH224925   6.380   1.738   0.715 -0.1405 -0.0980 -0.0809
 1097TIP3    H124926   6.473   1.720   0.725  0.4759  1.5998 -2.0542
 1097TIP3    H224927   6.370   1.829   0.745 -0.9731  0.0137 -0.6438
 1098TIP3   OH224928   1.101   0.567   2.825 -0.0092  0.2725 -0.0455
 1098TIP3    H124929   1.163   0.560   2.898  0.7962 -0.8388 -0.7927
 1098TIP3    H224930   1.015   0.552   2.864  0.5902 -2.8585  0.3942
 1099TIP3   OH224931   1.852   2.618   8.726 -0.4947  0.0238 -0.3136
 1099TIP3    H124932   1.862   2.706   8.764  0.2138 -0.3544  0.3930
 1099TIP3    H224933   1.842   2.560   8.802 -0.0112 -0.6277 -0.7392
 1100TIP3   OH224934   2.828   3.953   1.327  0.2285 -0.2916  0.0288
 1100TIP3    H124935   2.802   3.960   1.235 -1.8779  0.6733  0.6303
 1100TIP3    H224936   2.859   3.863   1.336 -1.0201 -0.9011 -1.2898
 1101TIP3   OH224937   5.001   5.920   1.883  0.6550 -0.4868  0.3778
 1101TIP3    H124938   4.966   5.987   1.825 -1.3393 -1.2318  0.6470
 1101TIP3    H224939   5.073   5.880   1.833  0.1813  0.1232 -0.8180
 1102TIP3   OH224940   6.681   6.201   2.267  0.0841  0.7795 -0.3967
 1102TIP3    H124941   6.697   6.113   2.301  0.6427  1.3498  0.8973
 1102TIP3    H224942   6.734   6.206   2.187  1.0635  0.3555  0.2057
 1103TIP3   OH224943   4.773   5.776   1.379  0.0005  0.0087  0.3934
 1103TIP3    H124944   4.735   5.773   1.467  0.7665 -4.1288  0.8032
 1103TIP3    H224945   4.814   5.690   1.368 -0.9283 -0.0999 -4.4071
 1104TIP3   OH224946   4.360   6.191   1.320  0.2830 -0.0242 -0.0582
 1104TIP3    H124947   4.292   6.258   1.323  0.8142  0.4978  1.1712
 1104TIP3    H224948   4.427   6.227   1.263  0.1658  0.1050 -0.1146
 1105TIP3   OH224949   2.507   4.743   8.701  0.0044  0.1250  0.0993
 1105TIP3    H124950   2.429   4.763   8.753  0.9321  2.9321  0.5843
 1105TIP3    H224951   2.481   4.760   8.610 -0.4736 -0.9263  0.0192
 1106TIP3   OH224952   0.343   2.135   0.381  0.4128  0.0635  0.1501
 1106TIP3    H124953   0.317   2.179   0.462 -0.0515 -1.4269  0.8460
 1106TIP3    H224954   0.412   2.191   0.345 -0.2838  1.4422  0.8769
 1107TIP3   OH224955   0.478   2.688   0.506  0.1179 -0.2140  0.1181
 1107TIP3    H124956   0.464   2.778   0.533  1.3243  0.2155 -0.5857
 1107TIP3    H224957   0.500   2.694   0.413  1.8687 -1.0209  0.4242
 1108TIP3   OH224958   6.228   2.671   1.398  0.4311 -0.3331 -0.2569
 1108TIP3    H124959   6.223   2.698   1.490 -0.8335 -1.6533  0.0951
 1108TIP3    H224960   6.253   2.579   1.401  1.7505 -0.0435 -1.3161
 1109TIP3   OH224961   4.734   2.644   1.884  0.0067  0.4670 -0.2549
 1109TIP3    H124962   4.724   2.558   1.845  0.9638  1.1333 -2.1279
 1109TIP3    H224963   4.670   2.699   1.838 -0.2577  0.8485  0.5607
 1110TIP3   OH224964   0.828   5.295   0.526  0.0874  0.1255  0.1865
 1110TIP3    H124965   0.850   5.341   0.607 -0.1794 -0.0949  0.3884
 1110TIP3    H224966   0.760   5.233   0.552 -2.0810  1.9890 -0.7546
 1111TIP3   OH224967   6.218   1.153   1.441  0.2976  0.4469 -0.6772
 1111TIP3    H124968   6.164   1.175   1.517 -0.3125  1.1058 -1.2777
 1111TIP3    H224969   6.156   1.154   1.368  0.6632 -1.2931 -1.0323
 1112TIP3   OH224970   5.999   2.865   0.034  0.3600 -0.0973  0.3339
 1112TIP3    H124971   5.953   2.871   0.118 -1.4614 -0.5055 -0.5973
 1112TIP3    H224972   6.060   2.939   0.035 -1.7495  1.7318  0.7777
 1113TIP3   OH224973   5.635   6.362   7.988 -0.3896 -0.0429 -0.1997
 1113TIP3    H124974   5.661   6.273   7.968 -1.7589 -0.1578 -1.6722
 1113TIP3    H224975   5.680   6.383   8.070  0.8976 -1.6415 -0.4564
 1114TIP3   OH224976   6.102   6.680   8.500 -0.0666  0.0473 -0.4112
 1114TIP3    H124977   6.191   6.685   8.535 -0.0666  0.3583 -0.4552
 1114TIP3    H224978   6.045   6.703   8.573 -0.1505 -0.8031 -0.2012
 1115TIP3   OH224979   4.677   1.614   8.593 -0.6243 -0.6441  0.0351
 1115TIP3    H124980   4.747   1.617   8.528 -1.5853 -1.0727 -1.0427
 1115TIP3    H224981   4.670   1.705   8.624  0.6898 -0.6826  0.4773
 1116TIP3   OH224982   3.033   5.019   7.953  0.2094  0.4024 -0.4078
 1116TIP3    H124983   2.973   5.082   7.993 -0.9981 -1.2958  0.5443
 1116TIP3    H224984   3.011   5.020   7.860  0.2328  1.3843 -0.4120
 1117TIP3   OH224985   4.110   0.086   1.699  0.5009  0.3739 -0.4041
 1117TIP3    H124986   4.158   0.072   1.617  1.4160 -0.4636  0.2545
 1117TIP3    H224987   4.132   0.010   1.753 -1.0207  0.3247  0.1932
 1118TIP3   OH224988   4.546   6.149   1.894  0.4167 -0.2456  0.3915
 1118TIP3    H124989   4.559   6.243   1.908  0.3101 -0.1675 -0.0187
 1118TIP3    H224990   4.451   6.139   1.888  0.4729 -0.0970 -1.3902
 1119TIP3   OH224991   2.458   4.556   9.081 -0.0592  0.1601 -0.0996
 1119TIP3    H124992   2.520   4.627   9.061 -3.0893  3.0284 -0.0980
 1119TIP3    H224993   2.484   4.526   9.168  0.7281  1.9735  0.3489
 1120TIP3   OH224994   5.784   0.706   1.334  0.0611  0.2309 -0.2464
 1120TIP3    H124995   5.784   0.616   1.365  0.0149  0.3383  0.0691
 1120TIP3    H224996   5.874   0.736   1.346 -0.1204  0.5037  0.4691
 1121TIP3   OH224997   4.860   5.514   1.323 -0.3195 -0.4705 -0.4589
 1121TIP3    H124998   4.883   5.513   1.416  0.4313 -1.7562 -0.6265
 1121TIP3    H224999   4.773   5.475   1.320  0.4131 -2.2533 -0.4162
 1122TIP3   OH225000   0.424   2.105   2.135 -0.1856 -0.0797 -0.4229
 1122TIP3    H125001   0.422   2.022   2.086 -0.9338 -0.5309  0.3485
 1122TIP3    H225002   0.335   2.114   2.169  0.0320  0.7885 -0.0694
 1123TIP3   OH225003   0.555   2.176   0.852 -0.3462 -0.4001  0.3470
 1123TIP3    H125004   0.581   2.194   0.761  1.4024  2.8670  1.3221
 1123TIP3    H225005   0.485   2.240   0.869 -0.1641 -0.4884  1.4940
 1124TIP3   OH225006   3.226   6.353   0.750 -0.7171 -0.0903 -0.6727
 1124TIP3    H125007   3.314   6.385   0.731 -0.4620 -1.2467 -1.4869
 1124TIP3    H225008   3.173   6.381   0.675 -1.0833  0.6674 -0.1525
 1125TIP3   OH225009   0.634   4.997   1.714 -0.0544 -0.2884  0.3281
 1125TIP3    H125010   0.681   4.927   1.759  1.9655  0.8717  0.1550
 1125TIP3    H225011   0.631   4.970   1.623  0.5475 -0.2560  0.2951
 1126TIP3   OH225012   3.279   1.598   0.348 -0.0712 -0.2267 -0.6041
 1126TIP3    H125013   3.325   1.571   0.427  1.8557 -1.4030 -2.0213
 1126TIP3    H225014   3.191   1.561   0.357 -0.4742  1.1401  1.7007
 1127TIP3   OH225015   5.895   4.302   1.883 -0.0205  0.2677 -0.2414
 1127TIP3    H125016   5.877   4.343   1.799  0.3198  3.7003  1.2157
 1127TIP3    H225017   5.901   4.374   1.945  2.2284 -1.8750  2.3343
 1128TIP3   OH225018   1.914   1.585   9.028  0.5257 -0.5122 -0.2706
 1128TIP3    H125019   1.829   1.539   9.027  1.5796 -2.5870 -0.2436
 1128TIP3    H225020   1.909   1.643   9.104 -1.4625  0.6681 -1.2249
 1129TIP3   OH225021   6.553   3.562   2.187 -0.0878 -0.0605  0.6350
 1129TIP3    H125022   6.564   3.603   2.102 -1.4975 -0.2503  0.3352
 1129TIP3    H225023   6.458   3.564   2.203 -0.3445 -3.4730  0.4060
 1130TIP3   OH225024   3.197   0.077   0.720  0.0277 -0.6725  0.2950
 1130TIP3    H125025   3.116   0.045   0.760  0.6953 -0.1830  2.1115
 1130TIP3    H225026   3.267   0.029   0.764  0.7954 -0.1763 -0.3511
 1131TIP3   OH225027   4.028   3.178   1.466 -0.2510  0.2600 -0.2493
 1131TIP3    H125028   4.087   3.210   1.398 -0.2339 -1.5248 -1.1249
 1131TIP3    H225029   4.075   3.193   1.548 -0.3896  2.7193 -0.5380
 1132TIP3   OH225030   3.746   2.683   2.204 -1.3626 -0.0177  0.7722
 1132TIP3    H125031   3.761   2.636   2.286  1.2934 -0.9720 -0.1464
 1132TIP3    H225032   3.651   2.680   2.192 -1.6079 -2.0997  2.5214
 1133TIP3   OH225033   1.105   4.583   0.405  0.2077 -0.2965 -0.2126
 1133TIP3    H125034   1.013   4.606   0.390 -0.0465 -1.9758 -1.5408
 1133TIP3    H225035   1.105   4.540   0.491 -0.0581  0.5489  0.2245
 1134TIP3   OH225036   4.021   4.629   0.959 -0.2476 -0.0093 -0.1197
 1134TIP3    H125037   4.028   4.655   0.867 -0.6348 -1.1729 -0.4947
 1134TIP3    H225038   3.932   4.596   0.968  0.4610 -2.0496  0.0574
 1135TIP3   OH225039   5.726   5.568   2.435  0.0528 -0.9248 -0.1097
 1135TIP3    H125040   5.692   5.636   2.493  1.2439 -1.1431  0.8836
 1135TIP3    H225041   5.684   5.487   2.466  0.0665 -0.9231 -0.0873
 1136TIP3   OH225042   5.599   5.874   0.850 -0.6412  0.3709  0.7232
 1136TIP3    H125043   5.620   5.965   0.872  0.3337 -0.0651  1.6877
 1136TIP3    H225044   5.615   5.826   0.930 -0.3927 -0.7792  0.0039
 1137TIP3   OH225045   1.403   2.374   8.564 -0.1861  0.1304 -0.0578
 1137TIP3    H125046   1.384   2.316   8.491  0.9493 -0.8854  0.4077
 1137TIP3    H225047   1.416   2.315   8.639  1.3212  0.9185  0.3646
 1138TIP3   OH225048   4.980   6.662   0.214  0.3504  0.6045 -0.5218
 1138TIP3    H125049   5.047   6.658   0.282  1.0270  1.7803 -1.0779
 1138TIP3    H225050   4.903   6.699   0.258  0.1439 -0.4920  0.0557
 1139TIP3   OH225051   1.099   5.951   0.354  0.0003  0.0399  0.5487
 1139TIP3    H125052   1.084   5.869   0.401  2.2521 -0.8752 -0.1872
 1139TIP3    H225053   1.104   6.018   0.422 -0.5175 -0.6562  1.2789
 1140TIP3   OH225054   5.127   5.140   0.195  0.4094 -0.1096 -0.2812
 1140TIP3    H125055   5.043   5.121   0.238  1.0772  1.4293  1.8878
 1140TIP3    H225056   5.111   5.220   0.146  0.0209 -1.1233 -1.8803
 1141TIP3   OH225057   0.712   5.557   0.368  0.2086  0.2210 -0.2528
 1141TIP3    H125058   0.628   5.571   0.324 -0.4221 -0.2796  0.7553
 1141TIP3    H225059   0.698   5.479   0.422  0.0881  2.1887  2.7994
 1142TIP3   OH225060   3.261   2.635   2.486 -0.1178  0.4518  0.2063
 1142TIP3    H125061   3.282   2.555   2.534 -0.4586  0.1086 -0.2093
 1142TIP3    H225062   3.263   2.609   2.394  1.3891  1.3034 -0.0234
 1143TIP3   OH225063   3.514   5.922   2.944  0.0944  1.0112 -0.1369
 1143TIP3    H125064   3.444   5.949   3.003  0.4896  0.3842  0.6369
 1143TIP3    H225065   3.471   5.870   2.876 -0.4069  2.0119 -0.6130
 1144TIP3   OH225066   0.125   1.936   2.110 -0.2479 -0.3193 -0.4080
 1144TIP3    H125067   0.098   1.909   2.022 -0.3511 -1.3011 -0.0966
 1144TIP3    H225068   0.165   2.022   2.098  2.5717 -1.6895 -1.9328
 1145TIP3   OH225069   1.801   3.202   2.462  0.2716 -0.2893 -0.2396
 1145TIP3    H125070   1.748   3.124   2.444 -0.9495  0.6445 -0.9215
 1145TIP3    H225071   1.844   3.184   2.545 -1.5065 -0.9319  0.6010
 1146TIP3   OH225072   1.773   2.767   2.991 -0.3572  0.0476  0.2929
 1146TIP3    H125073   1.689   2.779   2.946  0.3607 -0.4929 -1.2582
 1146TIP3    H225074   1.773   2.675   3.016 -0.7106  0.3228  1.3734
 1147TIP3   OH225075   1.756   0.331   9.060  0.0660 -0.0915  0.5956
 1147TIP3    H125076   1.677   0.375   9.028  0.6331  0.2671 -0.3381
 1147TIP3    H225077   1.734   0.306   9.150 -2.6267 -3.5550 -0.7839
 1148TIP3   OH225078   0.174   3.388   0.224 -0.0893  0.5415  0.4470
 1148TIP3    H125079   0.233   3.427   0.289 -0.3051 -0.0475  1.0025
 1148TIP3    H225080   0.126   3.463   0.187 -1.8287  0.7085  2.7958
 1149TIP3   OH225081   3.335   5.805   6.827  0.4436  0.0439  0.2125
 1149TIP3    H125082   3.407   5.866   6.843  1.4668 -0.8094 -0.9073
 1149TIP3    H225083   3.258   5.860   6.817  1.2418  1.1107 -0.1851
 1150TIP3   OH225084   0.188   6.670   1.998 -0.0509  0.4366 -0.5530
 1150TIP3    H125085   0.249   6.667   2.072 -0.8147  0.9288  0.1065
 1150TIP3    H225086   0.153   6.759   1.999 -1.5785 -0.1405 -0.2654
 1151TIP3   OH225087   3.808   5.989   0.819  0.2045 -0.0825  0.2125
 1151TIP3    H125088   3.814   5.903   0.859 -0.0002 -0.3233 -0.2637
 1151TIP3    H225089   3.817   5.973   0.725 -0.6870  0.3113  0.0455
 1152TIP3   OH225090   0.089   3.786   0.825  0.0140 -0.6296 -0.0050
 1152TIP3    H125091   0.047   3.872   0.833  2.4684  0.5838  0.8463
 1152TIP3    H225092   0.161   3.789   0.888 -1.0423 -4.1502  1.6179
 1153TIP3   OH225093   4.721   1.831   2.606 -0.1128  0.2272 -0.2140
 1153TIP3    H125094   4.726   1.789   2.521  0.1384 -0.0339 -0.0683
 1153TIP3    H225095   4.656   1.780   2.655 -0.5462  0.6117 -0.3818
 1154TIP3   OH225096   5.955   5.187   1.678 -0.1524  0.6534 -0.7977
 1154TIP3    H125097   6.026   5.140   1.636 -1.0012 -0.0009 -1.5547
 1154TIP3    H225098   5.998   5.245   1.741  0.9298 -1.2354  0.3075
 1155TIP3   OH225099   5.836   2.913   1.287 -0.2142 -0.2825 -0.2418
 1155TIP3    H125100   5.801   2.829   1.319 -2.6593  0.3459 -1.0595
 1155TIP3    H225101   5.764   2.951   1.236  0.9995  2.1227 -0.2804
 1156TIP3   OH225102   4.703   1.691   2.370  0.0575 -0.2648  0.5346
 1156TIP3    H125103   4.631   1.634   2.345 -0.1363 -0.3927  1.3610
 1156TIP3    H225104   4.770   1.632   2.404  1.6238 -0.4151 -2.5276
 1157TIP3   OH225105   6.535   2.029   0.172  0.7095 -0.0723 -0.3657
 1157TIP3    H125106   6.578   2.109   0.143  0.4564 -0.1147 -0.8676
 1157TIP3    H225107   6.606   1.967   0.188  0.9260  0.3599  0.3632
 1158TIP3   OH225108   2.917   1.862   9.204 -0.0801  0.1767 -0.3563
 1158TIP3    H125109   2.992   1.830   9.153 -0.2638  0.3332 -0.7277
 1158TIP3    H225110   2.922   1.813   9.286  0.8673  0.7283 -0.0632
 1159TIP3   OH225111   3.871   4.378   2.090 -0.1583 -0.0419  0.1703
 1159TIP3    H125112   3.967   4.378   2.087 -0.0589  3.3540 -1.8158
 1159TIP3    H225113   3.850   4.398   2.181  0.6773 -4.9135  1.7350
 1160TIP3   OH225114   4.860   5.576   7.649 -0.2951  0.4923 -0.1363
 1160TIP3    H125115   4.949   5.574   7.684 -0.8523  1.8238  1.4591
 1160TIP3    H225116   4.869   5.617   7.563  1.0716 -2.6742 -1.6732
 1161TIP3   OH225117   6.010   6.489   1.398  0.1618 -0.3429 -0.9588
 1161TIP3    H125118   5.982   6.542   1.323 -1.6493  0.5860  0.3012
 1161TIP3    H225119   6.102   6.513   1.410 -0.2022  1.4269 -1.3567
 1162TIP3   OH225120   5.986   5.686   1.917 -0.3726 -0.2557 -0.0314
 1162TIP3    H125121   6.059   5.648   1.966  0.8857  2.3506  0.3465
 1162TIP3    H225122   5.924   5.713   1.985 -1.0598 -1.2308 -0.2620
 1163TIP3   OH225123   4.403   1.209   1.625 -0.4419  0.2028  0.5169
 1163TIP3    H125124   4.315   1.174   1.610 -0.0055 -1.5725  1.7480
 1163TIP3    H225125   4.448   1.140   1.674  0.9371  1.9949  1.9114
 1164TIP3   OH225126   2.757   4.903   7.370  0.4088  0.5278 -0.1209
 1164TIP3    H125127   2.728   4.945   7.289 -2.2568 -1.0205 -0.0692
 1164TIP3    H225128   2.852   4.918   7.371  0.3858  1.5854 -2.9265
 1165TIP3   OH225129   1.187   1.578   7.774 -0.5545 -0.0572 -0.0438
 1165TIP3    H125130   1.272   1.609   7.742 -0.9087  0.0555 -0.9036
 1165TIP3    H225131   1.145   1.655   7.812 -0.4095 -0.0450  0.0943
 1166TIP3   OH225132   4.560   3.617   8.816  0.2944  0.1032 -0.0022
 1166TIP3    H125133   4.610   3.542   8.847 -0.3281 -0.0756  0.6011
 1166TIP3    H225134   4.610   3.693   8.847  0.3259 -0.0732  0.3894
 1167TIP3   OH225135   4.185   6.638   1.926  0.5650  0.1706 -0.1821
 1167TIP3    H125136   4.280   6.652   1.927  0.3689  1.8871  2.1205
 1167TIP3    H225137   4.149   6.720   1.960 -1.7654 -0.4889 -0.9010
 1168TIP3   OH225138   2.633   0.878   8.769  0.6544 -0.0578 -0.0766
 1168TIP3    H125139   2.579   0.869   8.848  1.0312 -0.9827  0.0823
 1168TIP3    H225140   2.602   0.959   8.728  0.1541  0.1999  0.7874
 1169TIP3   OH225141   5.476   5.585   0.074 -0.3656 -0.1924 -0.2840
 1169TIP3    H125142   5.551   5.566   0.131  0.0946  0.9532 -0.4781
 1169TIP3    H225143   5.503   5.551  -0.011  0.4276  1.1781 -0.6159
 1170TIP3   OH225144   5.516   2.092   8.134  0.2347 -0.3289  0.3241
 1170TIP3    H125145   5.446   2.066   8.195 -0.7907  3.1997  0.9033
 1170TIP3    H225146   5.483   2.067   8.048 -0.7518 -0.6624  0.7789
 1171TIP3   OH225147   3.519   6.456   0.839 -0.2102 -0.2516  0.2307
 1171TIP3    H125148   3.542   6.520   0.773 -0.0626 -2.0466 -1.5718
 1171TIP3    H225149   3.527   6.502   0.922 -1.2053  2.3323 -1.0255
 1172TIP3   OH225150   0.156   4.647   1.483 -0.0303  0.5963  0.2712
 1172TIP3    H125151   0.201   4.562   1.478  0.0568  0.6051  0.8667
 1172TIP3    H225152   0.213   4.702   1.537  0.4869  1.4162 -1.0602
 1173TIP3   OH225153   0.837   5.873   1.218  0.0903 -0.3160 -0.1208
 1173TIP3    H125154   0.811   5.836   1.134  1.9368 -1.2617 -0.3360
 1173TIP3    H225155   0.931   5.853   1.225  0.3563  1.2098  1.4061
 1174TIP3   OH225156   0.965   2.592   0.088 -0.3642 -0.0226  0.4832
 1174TIP3    H125157   1.008   2.665   0.044  1.2387 -1.0939  0.1792
 1174TIP3    H225158   0.894   2.566   0.029  0.6205 -0.2778 -0.6310
 1175TIP3   OH225159   0.213   4.537   0.281  0.1633 -0.3175  0.7613
 1175TIP3    H125160   0.227   4.462   0.224  1.0776 -0.7179  1.4850
 1175TIP3    H225161   0.136   4.514   0.333 -0.5695 -0.0234 -0.1676
 1176TIP3   OH225162   2.819   4.718   0.644 -0.5193  0.2255  0.5901
 1176TIP3    H125163   2.757   4.646   0.652 -1.0431  0.7814  1.6588
 1176TIP3    H225164   2.769   4.796   0.665  0.6077  0.6511  1.8274
 1177TIP3   OH225165   3.431   1.242   0.861  0.5751  0.2571 -0.6599
 1177TIP3    H125166   3.339   1.259   0.840  0.9016  1.1144 -1.4275
 1177TIP3    H225167   3.474   1.232   0.777  1.1834 -0.2468 -0.3027
 1178TIP3   OH225168   5.144   0.455   0.326  0.1841  0.0166  0.2072
 1178TIP3    H125169   5.151   0.412   0.241  0.5554  2.0356 -0.8447
 1178TIP3    H225170   5.208   0.526   0.322 -0.3330  0.6287  1.8920
 1179TIP3   OH225171   4.627   2.267   2.334 -0.0518  0.1382  0.2364
 1179TIP3    H125172   4.719   2.241   2.334 -0.0022  0.3106  0.5094
 1179TIP3    H225173   4.584   2.204   2.392  0.2143  1.1505  1.5868
 1180TIP3   OH225174   4.653   4.611   8.002 -0.4027  0.4845  0.4818
 1180TIP3    H125175   4.567   4.639   7.969 -0.4186 -0.4075 -0.2769
 1180TIP3    H225176   4.665   4.523   7.966  1.1921  0.9036 -0.0973
 1181TIP3   OH225177   1.583   2.141   2.751 -0.8740  0.1597  0.0112
 1181TIP3    H125178   1.552   2.213   2.696 -1.5369 -1.7120 -2.2236
 1181TIP3    H225179   1.525   2.142   2.826 -1.1179  1.6932 -0.1585
 1182TIP3   OH225180   6.493   5.607   1.989  0.4333 -0.1003  0.0329
 1182TIP3    H125181   6.470   5.690   2.030  0.2697  0.3088 -0.8713
 1182TIP3    H225182   6.570   5.577   2.037 -1.4011 -1.0950  2.5859
 1183TIP3   OH225183   5.510   5.041   9.168  0.0688  0.0588  0.4361
 1183TIP3    H125184   5.503   5.111   9.232  0.4516  1.2630 -0.7947
 1183TIP3    H225185   5.452   4.972   9.202  0.5893  0.4601  2.2642
 1184TIP3   OH225186   1.503   2.854   2.085 -0.1165  0.6595 -1.1335
 1184TIP3    H125187   1.569   2.895   2.029  0.3023  0.3366 -0.8860
 1184TIP3    H225188   1.455   2.795   2.027 -0.2552  0.9777 -1.3384
 1185TIP3   OH225189   2.263   5.245   8.643 -0.3005  0.0059  0.8124
 1185TIP3    H125190   2.183   5.245   8.696  0.6725 -0.6371  2.3467
 1185TIP3    H225191   2.315   5.316   8.678 -0.0084  0.1586  0.0926
 1186TIP3   OH225192   2.337   3.719   8.102  0.2013 -0.0288  0.1758
 1186TIP3    H125193   2.358   3.774   8.177 -0.3497  0.7425 -0.2123
 1186TIP3    H225194   2.246   3.739   8.083  0.2552 -0.4202 -0.5287
 1187TIP3   OH225195   1.823   2.080   0.672  0.1315 -0.1244 -0.3956
 1187TIP3    H125196   1.908   2.049   0.702 -0.1064  0.5106  1.0683
 1187TIP3    H225197   1.765   2.065   0.747 -0.9997 -0.3729 -1.3000
 1188TIP3   OH225198   5.050   5.981   1.108  0.3059  0.0485  0.2091
 1188TIP3    H125199   5.015   5.901   1.068  1.8440 -0.9270  0.7396
 1188TIP3    H225200   5.034   6.049   1.042 -0.1308 -0.8899 -0.6819
 1189TIP3   OH225201   4.016   2.312   8.285  0.3715  0.3658  0.2969
 1189TIP3    H125202   4.110   2.297   8.272  0.1512 -1.0105  0.1496
 1189TIP3    H225203   3.984   2.341   8.199  0.5882  0.5118  0.2632
 1190TIP3   OH225204   1.307   5.710   2.549  0.1168  0.8018 -0.5368
 1190TIP3    H125205   1.321   5.685   2.640 -1.0957  0.4801 -0.4221
 1190TIP3    H225206   1.358   5.791   2.538  1.6665 -0.0812 -0.0808
 1191TIP3   OH225207   1.212   4.177   8.711 -0.8076  0.1068  0.4106
 1191TIP3    H125208   1.143   4.185   8.777  1.9776  0.0628  3.5604
 1191TIP3    H225209   1.186   4.102   8.658 -2.8226 -0.3365  1.9217
 1192TIP3   OH225210   6.459   4.007   0.143 -0.4385  0.5302  0.3806
 1192TIP3    H125211   6.479   3.958   0.223 -0.6683 -0.4964 -0.1717
 1192TIP3    H225212   6.542   4.008   0.094 -0.3903  0.8457  0.4666
 1193TIP3   OH225213   4.402   2.407   1.799 -0.0213 -1.1551  0.2097
 1193TIP3    H125214   4.325   2.356   1.826 -0.5139 -0.3411  0.3565
 1193TIP3    H225215   4.475   2.363   1.842 -0.4559 -1.6664  0.4397
 1194TIP3   OH225216   2.859   1.076   0.263  0.1544  0.9431 -0.2805
 1194TIP3    H125217   2.780   1.105   0.217  1.7256  2.4840 -2.1615
 1194TIP3    H225218   2.903   1.017   0.202  0.8408  0.6805  0.4454
 1195TIP3   OH225219   6.493   1.314   2.427  0.2043 -0.0302 -0.2870
 1195TIP3    H125220   6.488   1.248   2.358 -1.2276  0.5724 -0.8088
 1195TIP3    H225221   6.464   1.395   2.385 -2.0571  0.0916  1.3002
 1196TIP3   OH225222   3.382   0.014   0.308  0.5536  0.1298  0.1574
 1196TIP3    H125223   3.333   0.001   0.227 -1.9867  1.5694  1.3669
 1196TIP3    H225224   3.428  -0.070   0.321 -0.2683 -0.7094 -1.8726
 1197TIP3   OH225225   5.487   6.629   8.960 -0.4227  0.0007  0.9102
 1197TIP3    H125226   5.473   6.608   8.867 -0.9007 -1.5511  1.3010
 1197TIP3    H225227   5.576   6.599   8.977 -0.3202  0.3256  0.9422
 1198TIP3   OH225228   5.531   5.825   8.519  0.2731 -0.3449 -0.5123
 1198TIP3    H125229   5.589   5.780   8.457 -0.4473 -0.8217 -0.8659
 1198TIP3    H225230   5.531   5.770   8.597  0.5599 -0.1643 -0.3842
 1199TIP3   OH225231   4.904   4.150   8.362  0.1636 -0.1831  0.1375
 1199TIP3    H125232   4.901   4.056   8.343  0.7534 -0.2063  0.1376
 1199TIP3    H225233   4.919   4.191   8.277  0.6937 -0.1447  0.2478
 1200TIP3   OH225234   3.416   4.730   1.254 -0.4501  0.0464  0.4339
 1200TIP3    H125235   3.340   4.719   1.197 -1.4389  0.9121  1.5305
 1200TIP3    H225236   3.413   4.822   1.280  1.5581  0.3595 -0.2629
 1201TIP3   OH225237   0.627   5.252   1.454 -0.1684 -0.4956 -0.0698
 1201TIP3    H125238   0.657   5.201   1.379 -1.3640 -1.9848  0.4142
 1201TIP3    H225239   0.558   5.308   1.418 -1.4496 -1.9320  0.0578
 1202TIP3   OH225240   2.688   3.013   8.121  0.1022  0.0563 -0.0771
 1202TIP3    H125241   2.670   2.930   8.078 -1.2368  0.3420 -0.1270
 1202TIP3    H225242   2.783   3.019   8.124  0.2942  0.0605 -3.0782
 1203TIP3   OH225243   1.845   6.347   1.375  0.3492 -0.0462 -0.1823
 1203TIP3    H125244   1.898   6.420   1.407  0.6821 -0.5183  0.3673
 1203TIP3    H225245   1.821   6.298   1.453  0.1392 -0.5315 -0.5401
 1204TIP3   OH225246   5.453   2.877   1.479  0.1725  0.5703 -0.1819
 1204TIP3    H125247   5.390   2.820   1.435  0.7142  0.1735 -0.4580
 1204TIP3    H225248   5.453   2.957   1.426  1.1088 -0.0496 -1.1635
 1205TIP3   OH225249   2.431   5.804   0.668  0.2822  0.7421 -0.2224
 1205TIP3    H125250   2.457   5.806   0.760 -1.0087 -0.7417  0.2058
 1205TIP3    H225251   2.484   5.733   0.630 -1.7404 -1.1383  0.2678
 1206TIP3   OH225252   3.152   0.228   1.747  0.7072  0.4566 -0.2811
 1206TIP3    H125253   3.062   0.258   1.763  1.4692  2.1018  1.2850
 1206TIP3    H225254   3.141   0.146   1.699 -1.7914 -1.4041  3.0052
 1207TIP3   OH225255   3.710   4.962   9.197  0.3250 -0.0720 -0.4671
 1207TIP3    H125256   3.773   5.024   9.235 -0.1885 -0.3763  0.9697
 1207TIP3    H225257   3.655   4.936   9.271 -1.2000 -0.1773 -1.5826
 1208TIP3   OH225258   1.176   2.022   0.974 -0.3021 -0.6982  0.2511
 1208TIP3    H125259   1.193   2.114   0.997 -1.0608 -0.3283 -0.6100
 1208TIP3    H225260   1.187   1.975   1.057  0.9178  0.0360  0.5420
 1209TIP3   OH225261   4.274   5.203   1.629 -0.0977  0.4742 -0.2808
 1209TIP3    H125262   4.262   5.218   1.535 -0.5876  1.1706 -0.1166
 1209TIP3    H225263   4.368   5.218   1.643  0.1835 -0.6549 -0.8253
 1210TIP3   OH225264   4.775   5.837   1.113  0.1340  0.3252  0.6276
 1210TIP3    H125265   4.732   5.922   1.127  0.4872  0.4493  0.9892
 1210TIP3    H225266   4.776   5.797   1.200  1.1933  0.5389  0.7280
 1211TIP3   OH225267   4.232   0.403   2.851  0.2519 -0.7566 -0.4335
 1211TIP3    H125268   4.224   0.321   2.898  0.0806 -1.0918 -1.0346
 1211TIP3    H225269   4.161   0.400   2.786  0.1804 -0.0922 -0.3945
 1212TIP3   OH225270   2.757   2.198   1.638 -0.0356  0.1467  0.2855
 1212TIP3    H125271   2.829   2.135   1.635  1.1018  1.3840  0.7488
 1212TIP3    H225272   2.774   2.251   1.716 -1.6366  0.2697  0.5909
 1213TIP3   OH225273   0.242   2.101   0.874  0.3014  0.4039  0.3114
 1213TIP3    H125274   0.299   2.092   0.951  0.2862 -0.8269  0.1992
 1213TIP3    H225275   0.219   2.011   0.851 -1.6118  0.8551  0.2872
 1214TIP3   OH225276   5.497   1.570   0.150  0.0453  0.1904 -0.0364
 1214TIP3    H125277   5.486   1.650   0.202  0.6488  0.1952  0.0947
 1214TIP3    H225278   5.450   1.503   0.200  1.5438 -0.0491  1.1246
 1215TIP3   OH225279   5.344   4.882   0.639  0.2399 -0.8362  0.2734
 1215TIP3    H125280   5.347   4.977   0.635 -0.0130 -0.8424 -0.2420
 1215TIP3    H225281   5.342   4.855   0.547  0.0172 -1.3252  0.4182
 1216TIP3   OH225282   3.447   4.616   8.995  0.1320  0.3513  0.4595
 1216TIP3    H125283   3.484   4.635   9.081  2.1387  0.0421 -0.2913
 1216TIP3    H225284   3.410   4.700   8.966 -0.9365  0.3605  1.7545
 1217TIP3   OH225285   2.301   2.938   8.016 -0.2762  0.0158 -0.0231
 1217TIP3    H125286   2.258   2.853   8.029  0.7698 -0.4885  0.3125
 1217TIP3    H225287   2.336   2.960   8.103  0.8213  0.0095 -0.4462
 1218TIP3   OH225288   6.039   4.775   2.496  0.0409 -0.0041  0.1529
 1218TIP3    H125289   6.022   4.866   2.522  1.1670 -0.4892  2.9762
 1218TIP3    H225290   6.123   4.779   2.450 -1.2216  0.6581 -2.3009
 1219TIP3   OH225291   5.307   4.033   1.253 -0.0809 -0.7001  0.0631
 1219TIP3    H125292   5.253   4.004   1.179 -0.2160  0.8662 -0.4885
 1219TIP3    H225293   5.397   4.013   1.226 -0.1421 -0.2795 -0.4706
 1220TIP3   OH225294   5.912   2.731   7.690  0.9442  0.4803 -0.1320
 1220TIP3    H125295   5.933   2.816   7.653 -0.5810  0.1671 -1.8466
 1220TIP3    H225296   5.928   2.669   7.619  0.6318 -0.4860  0.6130
 1221TIP3   OH225297   4.215   5.331   8.560 -0.1379 -0.3937  0.1354
 1221TIP3    H125298   4.188   5.403   8.503  1.5413  0.2478  0.0969
 1221TIP3    H225299   4.140   5.315   8.616 -1.0792  0.3517 -0.8787
 1222TIP3   OH225300   1.464   0.979   8.051  0.5240  0.0308 -0.1898
 1222TIP3    H125301   1.478   1.046   7.984  1.2541 -1.3425 -1.4797
 1222TIP3    H225302   1.375   0.948   8.034  0.8155 -0.5245 -0.7457
 1223TIP3   OH225303   1.901   1.414   3.476  0.4069 -0.4295 -0.3167
 1223TIP3    H125304   1.892   1.333   3.426 -2.2050  0.1515 -0.9339
 1223TIP3    H225305   1.811   1.446   3.487  1.2378  1.6305  1.1916
 1224TIP3   OH225306   6.173   0.282   0.397 -0.3311 -0.2608  0.0383
 1224TIP3    H125307   6.176   0.316   0.486  0.2275  0.3309 -0.1947
 1224TIP3    H225308   6.122   0.201   0.404  0.3787 -0.6505  1.0422
 1225TIP3   OH225309   5.322   3.770   2.958  0.0974  0.5147 -0.0567
 1225TIP3    H125310   5.241   3.813   2.929 -0.3173 -0.1226  0.1143
 1225TIP3    H225311   5.378   3.841   2.988  0.8345  1.2960 -3.0256
 1226TIP3   OH225312   5.296   2.392   8.740 -0.8861 -0.4882 -0.2846
 1226TIP3    H125313   5.214   2.432   8.767 -0.8987 -1.8895  2.0806
 1226TIP3    H225314   5.338   2.366   8.822  1.7772 -0.1401 -1.4199
 1227TIP3   OH225315   6.552   4.068   9.059 -0.8378 -0.5076  0.3380
 1227TIP3    H125316   6.558   4.152   9.104 -0.8617 -0.3626  0.0742
 1227TIP3    H225317   6.486   4.082   8.991  2.3183  0.7079 -2.8024
 1228TIP3   OH225318   6.583   2.604   2.460 -0.4858  0.5143 -0.6287
 1228TIP3    H125319   6.625   2.685   2.432  1.5187 -0.2409  0.0013
 1228TIP3    H225320   6.623   2.535   2.406 -1.0722 -0.2268 -0.1507
 1229TIP3   OH225321   0.237   0.558   8.845 -0.1909 -0.2510 -0.7360
 1229TIP3    H125322   0.320   0.599   8.818 -0.6212  0.1350 -1.5163
 1229TIP3    H225323   0.182   0.631   8.871  0.2372 -0.6134  1.3855
 1230TIP3   OH225324   4.404   5.062   2.358 -0.0618 -0.2270  0.7714
 1230TIP3    H125325   4.352   5.108   2.424 -0.1613 -1.6632  1.7439
 1230TIP3    H225326   4.491   5.054   2.397  0.0957 -0.3925  0.3880
 1231TIP3   OH225327   2.904   1.001   8.976 -0.2430 -0.5366  0.0379
 1231TIP3    H125328   2.962   1.045   9.039  0.2574 -0.8508 -0.1964
 1231TIP3    H225329   2.873   1.071   8.919 -0.3572 -0.3146  0.3718
 1232TIP3   OH225330   6.096   4.107   8.135  0.6562 -0.5816 -0.1638
 1232TIP3    H125331   6.100   4.086   8.042 -0.3292  1.1856 -0.6611
 1232TIP3    H225332   6.139   4.193   8.142 -0.1270 -0.2515  0.8568
 1233TIP3   OH225333   5.423   3.862   7.381 -0.2223 -0.3944  0.3100
 1233TIP3    H125334   5.334   3.895   7.368 -0.1515 -0.1218  0.5077
 1233TIP3    H225335   5.438   3.803   7.307  1.0343  2.8368 -2.2922
 1234TIP3   OH225336   4.720   5.400   2.198 -0.4942  0.4431  0.6720
 1234TIP3    H125337   4.725   5.389   2.103 -0.1942 -0.4660  0.7889
 1234TIP3    H225338   4.698   5.314   2.232  1.5290  0.2143  1.5878
 1235TIP3   OH225339   2.562   0.425   1.670 -0.0249  0.5660 -0.4502
 1235TIP3    H125340   2.492   0.484   1.643 -0.5023  0.5272  0.6784
 1235TIP3    H225341   2.523   0.337   1.666  0.0178  0.5260 -0.0094
 1236TIP3   OH225342   6.456   2.177   1.618  0.0421  0.9584  0.1184
 1236TIP3    H125343   6.379   2.229   1.642  0.2659  1.4445 -0.2025
 1236TIP3    H225344   6.524   2.242   1.600 -0.1261  0.6486 -1.8926
 1237TIP3   OH225345   5.726   4.122   2.705  0.0508  0.6182  0.7319
 1237TIP3    H125346   5.818   4.095   2.696 -0.0776  0.0256  1.1230
 1237TIP3    H225347   5.701   4.150   2.617  0.0868 -0.9267  0.1910
 1238TIP3   OH225348   5.827   2.283   0.772 -0.4360  0.5004  0.0132
 1238TIP3    H125349   5.796   2.329   0.694 -0.6202 -0.3122 -0.4035
 1238TIP3    H225350   5.748   2.252   0.816 -0.2847 -0.8927 -0.6344
 1239TIP3   OH225351   1.552   1.623   8.790 -0.5808 -0.1573  0.2964
 1239TIP3    H125352   1.484   1.589   8.848  0.1947 -1.9157  0.2558
 1239TIP3    H225353   1.605   1.546   8.769  2.6040  1.4194  1.8603
 1240TIP3   OH225354   3.417   4.081   1.251  0.1953  0.5226 -0.3710
 1240TIP3    H125355   3.373   3.997   1.241  2.5910 -0.9094  0.1299
 1240TIP3    H225356   3.464   4.093   1.168  3.8960 -1.2904  1.2348
 1241TIP3   OH225357   5.261   4.864   2.047 -0.5250  0.6011  0.2061
 1241TIP3    H125358   5.198   4.849   1.976 -1.1931  1.5438  0.5865
 1241TIP3    H225359   5.346   4.846   2.007 -0.8929  1.0506 -0.8178
 1242TIP3   OH225360   3.215   3.454   8.091 -0.4267  0.1890 -0.2758
 1242TIP3    H125361   3.159   3.428   8.018 -0.7258  1.9423 -0.7285
 1242TIP3    H225362   3.235   3.373   8.137 -1.1618 -0.8063 -1.6522
 1243TIP3   OH225363   1.278   0.320   3.029 -0.1975  0.4854  0.2178
 1243TIP3    H125364   1.195   0.275   3.048  0.4288  0.1716  2.5540
 1243TIP3    H225365   1.267   0.406   3.068  0.4361  0.5755  0.1963
 1244TIP3   OH225366   5.973   2.676   0.670  0.4730  0.3148  0.3868
 1244TIP3    H125367   5.960   2.643   0.759 -1.2384  0.4155  0.2073
 1244TIP3    H225368   6.033   2.750   0.680  0.6753  0.0286  1.3874
 1245TIP3   OH225369   4.092   4.451   0.327 -0.0286 -0.2151  0.2587
 1245TIP3    H125370   4.175   4.493   0.345 -0.8114  0.9935  1.1557
 1245TIP3    H225371   4.067   4.483   0.240  0.3303 -0.4313  0.0715
 1246TIP3   OH225372   1.343   5.107   2.317 -0.9957 -0.6432 -1.3168
 1246TIP3    H125373   1.259   5.151   2.303 -1.3641 -0.4263  1.1126
 1246TIP3    H225374   1.330   5.057   2.398  1.2758 -0.3907 -0.7386
 1247TIP3   OH225375   2.669   4.342   1.257  0.2373  0.2578  0.2942
 1247TIP3    H125376   2.679   4.247   1.258 -2.5121 -0.1877 -2.5267
 1247TIP3    H225377   2.750   4.375   1.217  0.2101 -1.1281 -0.9594
 1248TIP3   OH225378   4.287   3.045   6.856  0.5441 -0.2924 -0.1747
 1248TIP3    H125379   4.322   3.097   6.928  0.0796  1.1500 -0.9478
 1248TIP3    H225380   4.341   2.966   6.855 -0.4714 -1.1288  2.7491
 1249TIP3   OH225381   2.690   0.578   3.224 -0.0947 -0.6281  0.3006
 1249TIP3    H125382   2.599   0.549   3.223 -0.5221  0.5947 -1.3161
 1249TIP3    H225383   2.686   0.666   3.261  0.0479  0.3148 -1.7471
 1250TIP3   OH225384   5.416   1.109   1.630  0.1597  0.4569 -0.3946
 1250TIP3    H125385   5.327   1.076   1.622 -0.0638  0.9231  0.0795
 1250TIP3    H225386   5.419   1.183   1.569  0.2348  0.4123 -0.4444
 1251TIP3   OH225387   1.194   2.098   9.060  0.4974  0.0207  0.2291
 1251TIP3    H125388   1.155   2.099   8.972  0.8595 -1.7126  0.0172
 1251TIP3    H225389   1.191   2.189   9.088  0.4978  0.6419 -1.6339
 1252TIP3   OH225390   0.273   1.464   3.207  0.1368  0.1553  0.0702
 1252TIP3    H125391   0.318   1.446   3.289  0.3885  1.0012  0.1366
 1252TIP3    H225392   0.268   1.380   3.162  0.7088 -0.1665  0.6045
 1253TIP3   OH225393   0.043   6.072   0.713  0.4400 -0.0771 -0.1067
 1253TIP3    H125394  -0.016   6.064   0.637  0.1623 -0.6142  0.1581
 1253TIP3    H225395   0.012   6.150   0.759  2.0217  1.5955 -1.7393
 1254TIP3   OH225396   3.366   3.778   8.543 -0.6474  0.0444  0.4403
 1254TIP3    H125397   3.331   3.852   8.492 -0.5970  0.6700  1.2869
 1254TIP3    H225398   3.299   3.762   8.609 -0.2782 -0.1200  0.7767
 1255TIP3   OH225399   0.196   2.635   8.084  0.0693 -0.4312  0.4901
 1255TIP3    H125400   0.144   2.706   8.123 -0.6945 -0.1067 -1.0259
 1255TIP3    H225401   0.249   2.678   8.018 -0.8751 -1.3258 -0.8999
 1256TIP3   OH225402   5.630   4.649   8.295  0.4187 -0.4856  0.1395
 1256TIP3    H125403   5.716   4.646   8.253  0.4956 -1.6010  0.3406
 1256TIP3    H225404   5.591   4.564   8.275 -0.6358  0.0076  0.0641
 1257TIP3   OH225405   3.133   5.386   1.842 -0.3397  0.1481 -0.7628
 1257TIP3    H125406   3.144   5.481   1.834 -0.7191  0.5296  2.1174
 1257TIP3    H225407   3.064   5.364   1.779 -1.0009  1.9656 -0.7190
 1258TIP3   OH225408   6.340   5.208   1.099  0.2714  0.5608  0.0033
 1258TIP3    H125409   6.348   5.241   1.009 -1.4737  1.8014  0.2713
 1258TIP3    H225410   6.253   5.168   1.102  0.9288 -0.8786  0.7278
 1259TIP3   OH225411   1.101   3.121   1.957 -0.1913 -0.2666  0.2820
 1259TIP3    H125412   1.057   3.045   1.993  2.1182 -2.1948 -0.6944
 1259TIP3    H225413   1.111   3.102   1.864  2.0117  0.3588  0.3226
 1260TIP3   OH225414   6.394   2.800   2.903 -0.0138  0.1297  0.0172
 1260TIP3    H125415   6.451   2.876   2.900 -0.3457  0.3796  0.0271
 1260TIP3    H225416   6.444   2.731   2.859  0.2790  0.3563 -0.0077
 1261TIP3   OH225417   4.481   2.175   0.550 -0.0166 -0.1341 -0.5181
 1261TIP3    H125418   4.419   2.168   0.478  0.4623 -1.7077 -0.8053
 1261TIP3    H225419   4.499   2.269   0.557 -0.3595  0.0860 -2.2098
 1262TIP3   OH225420   3.092   2.076   1.196  0.6386 -0.4660  0.4827
 1262TIP3    H125421   3.097   2.109   1.106  1.4411  0.4650  0.8552
 1262TIP3    H225422   3.013   2.117   1.231  0.0703 -1.1894  0.0735
 1263TIP3   OH225423   1.443   6.354   8.934 -0.1901  0.4524  0.7581
 1263TIP3    H125424   1.383   6.424   8.960 -0.3074  0.2344  1.0898
 1263TIP3    H225425   1.515   6.359   8.997  0.5830  1.2655 -0.1629
 1264TIP3   OH225426   1.826   0.311   2.452  0.4189 -0.5314  0.2915
 1264TIP3    H125427   1.753   0.361   2.488  1.7228  0.2099  2.0490
 1264TIP3    H225428   1.786   0.232   2.416 -1.4358  0.6674 -0.4590
 1265TIP3   OH225429   0.387   4.164   8.477 -0.0730  0.4229 -0.1187
 1265TIP3    H125430   0.352   4.251   8.500 -1.3428  0.2145 -1.1462
 1265TIP3    H225431   0.477   4.165   8.510  0.6335  2.8849 -1.7868
 1266TIP3   OH225432   2.210   1.615   8.825  0.3866 -0.5828  0.0606
 1266TIP3    H125433   2.146   1.601   8.894  1.3771  1.3586  1.4735
 1266TIP3    H225434   2.271   1.542   8.833  0.5663 -0.3046  1.3634
 1267TIP3   OH225435   4.323   0.765   0.206 -0.1356 -0.1976 -0.3144
 1267TIP3    H125436   4.359   0.809   0.129 -0.2580 -0.1779 -0.3612
 1267TIP3    H225437   4.243   0.814   0.226  1.3752  1.6825  1.6069
 1268TIP3   OH225438   2.575   4.868   0.387 -0.3481  0.2873  0.3492
 1268TIP3    H125439   2.553   4.823   0.305 -1.3605 -0.4480  0.9995
 1268TIP3    H225440   2.655   4.916   0.367 -1.5328  1.6329 -1.6435
 1269TIP3   OH225441   0.492   3.809   0.506  0.6022 -0.7968  0.6828
 1269TIP3    H125442   0.499   3.862   0.586 -0.2922 -0.1738  0.3601
 1269TIP3    H225443   0.469   3.721   0.537 -1.6108 -0.1504  1.0452
 1270TIP3   OH225444   3.409   4.827   8.630 -0.1096  0.0903 -0.1753
 1270TIP3    H125445   3.330   4.777   8.609 -0.4832  0.1743  0.9777
 1270TIP3    H225446   3.379   4.896   8.688  0.8177  0.0791  0.3332
 1271TIP3   OH225447   0.249   1.857   3.053  0.3413 -0.3022 -0.8383
 1271TIP3    H125448   0.342   1.838   3.057  0.0846 -2.4206 -2.7856
 1271TIP3    H225449   0.244   1.950   3.030  2.0617 -0.6893 -3.0923
 1272TIP3   OH225450   5.969   3.424   8.321 -0.3467  1.2571 -0.7788
 1272TIP3    H125451   6.025   3.468   8.385 -0.7058 -0.0397  0.4577
 1272TIP3    H225452   5.922   3.496   8.278  2.3964  2.4285 -2.0862
 1273TIP3   OH225453   5.353   6.672   0.861 -0.0825 -0.4464  0.3991
 1273TIP3    H125454   5.264   6.638   0.849 -1.0005  1.3551  1.6230
 1273TIP3    H225455   5.377   6.644   0.949 -0.2121  0.6658  0.7977
 1274TIP3   OH225456   0.995   2.719   8.514  0.1184  0.4263 -0.4201
 1274TIP3    H125457   1.067   2.708   8.576 -0.0484  0.4339 -0.2205
 1274TIP3    H225458   0.993   2.812   8.495 -2.1174  1.0930  2.4133
 1275TIP3   OH225459   3.827   3.027   2.284  0.2186 -0.2649 -0.0866
 1275TIP3    H125460   3.875   3.086   2.226 -2.9795  0.3560 -2.3554
 1275TIP3    H225461   3.810   2.949   2.232 -1.6001 -0.2590  0.4238
 1276TIP3   OH225462   4.049   6.141   7.828 -0.0544 -0.4032  0.2639
 1276TIP3    H125463   4.144   6.129   7.826  0.3626  2.3519  0.2638
 1276TIP3    H225464   4.016   6.063   7.873  2.2897 -0.9119  1.2329
 1277TIP3   OH225465   2.341   1.843   7.634 -0.2847  0.4317 -0.1323
 1277TIP3    H125466   2.259   1.891   7.628 -2.2858 -2.4514  1.7023
 1277TIP3    H225467   2.316   1.753   7.650  3.2436 -0.4262  1.7467
 1278TIP3   OH225468   0.385   4.098   7.902  0.2627  0.2991 -0.5665
 1278TIP3    H125469   0.334   4.177   7.886 -0.7967 -0.3832 -0.6523
 1278TIP3    H225470   0.474   4.121   7.875  0.1362  1.6848  0.0911
 1279TIP3   OH225471   2.459   2.124   0.416  0.0671  0.2838  0.5080
 1279TIP3    H125472   2.464   2.172   0.500 -1.7203 -1.0386  1.4232
 1279TIP3    H225473   2.366   2.117   0.398  0.4245  0.8127 -1.8247
 1280TIP3   OH225474   6.332   6.633   8.646 -0.2726 -0.4753 -0.0518
 1280TIP3    H125475   6.265   6.627   8.714 -0.8888  0.2170 -0.5751
 1280TIP3    H225476   6.414   6.641   8.694 -0.8583  2.0151  0.7165
 1281TIP3   OH225477   4.186   6.666   8.453  0.2581 -0.4036  0.0319
 1281TIP3    H125478   4.183   6.727   8.527  0.5925 -1.1796  0.7082
 1281TIP3    H225479   4.123   6.598   8.475  0.6476 -0.8489 -0.1932
 1282TIP3   OH225480   3.516   2.709   8.431  0.2392 -0.2999 -0.2103
 1282TIP3    H125481   3.474   2.641   8.379 -1.2367  0.0007  0.5234
 1282TIP3    H225482   3.459   2.786   8.420  0.9115  0.2963  0.3644
 1283TIP3   OH225483   2.067   0.581   2.579  0.4805 -0.1780  0.1753
 1283TIP3    H125484   2.140   0.527   2.546  0.0363 -0.3820 -0.4954
 1283TIP3    H225485   2.103   0.670   2.581  0.8386 -0.3173  0.1129
 1284TIP3   OH225486   1.489   6.651   0.163  0.7126 -0.3842  0.5347
 1284TIP3    H125487   1.535   6.569   0.144  0.9481 -0.3772  1.0698
 1284TIP3    H225488   1.557   6.710   0.194  0.4055 -0.2645  0.9933
 1285TIP3   OH225489   6.257   3.234   8.743  0.0755  0.2094  0.9548
 1285TIP3    H125490   6.187   3.180   8.707  0.4608 -1.1027  2.0570
 1285TIP3    H225491   6.232   3.247   8.834  1.3848 -0.5719  1.4617
 1286TIP3   OH225492   3.440   1.915   1.172 -0.6906 -0.3907  0.4649
 1286TIP3    H125493   3.476   1.832   1.202 -1.2761 -0.5492  0.7358
 1286TIP3    H225494   3.428   1.967   1.252 -4.0307 -1.4940  0.8404
 1287TIP3   OH225495   2.886   2.040   0.686 -0.4672  0.2896 -0.1304
 1287TIP3    H125496   2.946   1.973   0.651 -1.9059 -0.8551 -0.5187
 1287TIP3    H225497   2.830   2.063   0.611 -0.9639  0.8188  0.3975
 1288TIP3   OH225498   4.001   5.928   2.773 -0.0342 -0.2088 -0.2152
 1288TIP3    H125499   4.034   5.935   2.684 -1.3046 -0.1705 -0.6977
 1288TIP3    H225500   3.957   6.011   2.789 -0.5307 -0.5372  0.1491
 1289TIP3   OH225501   6.155   5.465   1.602  0.4039 -0.3705 -0.8107
 1289TIP3    H125502   6.083   5.459   1.665  0.1669 -0.3886 -1.0835
 1289TIP3    H225503   6.155   5.380   1.558  1.6929 -1.0216  0.3785
 1290TIP3   OH225504   5.624   6.661   2.714  0.1111 -0.1823 -0.0677
 1290TIP3    H125505   5.664   6.721   2.778  0.0277  1.4765 -1.4777
 1290TIP3    H225506   5.674   6.677   2.634 -0.7881 -1.0602 -0.8146
 1291TIP3   OH225507   0.993   1.338   1.181  0.1853  0.6033  0.4854
 1291TIP3    H125508   0.936   1.415   1.182 -0.3669  0.2750 -1.3707
 1291TIP3    H225509   1.020   1.327   1.272 -2.7697  0.7266  1.4884
 1292TIP3   OH225510   3.896   3.902   8.192  0.4245 -0.2297 -0.6376
 1292TIP3    H125511   3.881   3.854   8.111 -0.0892 -2.0450  0.4934
 1292TIP3    H225512   3.905   3.835   8.259  0.6947  1.2310  0.8537
 1293TIP3   OH225513   3.239   1.055   7.182 -0.0465 -0.2730 -0.4101
 1293TIP3    H125514   3.188   1.136   7.185 -0.4406 -0.5360  0.1717
 1293TIP3    H225515   3.330   1.084   7.179 -0.2103  0.2011 -1.2242
 1294TIP3   OH225516   3.269   5.160   7.900 -0.1008  0.2842  0.2109
 1294TIP3    H125517   3.181   5.130   7.924 -1.3152  0.5323 -3.3483
 1294TIP3    H225518   3.304   5.088   7.848  1.7331  0.3639  1.2582
 1295TIP3   OH225519   1.094   1.497   0.103  0.1006  0.3014  0.7927
 1295TIP3    H125520   1.003   1.520   0.088 -0.2519 -1.2132  0.4121
 1295TIP3    H225521   1.106   1.504   0.198 -0.1030  1.5027  0.7418
 1296TIP3   OH225522   1.829   2.308   8.217 -0.2392 -0.0652  0.0079
 1296TIP3    H125523   1.849   2.333   8.307  1.4250 -3.1703  0.6327
 1296TIP3    H225524   1.757   2.245   8.226 -0.6870  0.2967 -0.9427
 1297TIP3   OH225525   2.617   3.519   2.113 -0.0643 -0.6463  0.0921
 1297TIP3    H125526   2.666   3.543   2.035 -0.4174  2.0449  0.5917
 1297TIP3    H225527   2.682   3.482   2.172  1.1740  1.5623  0.2119
 1298TIP3   OH225528   3.273   5.104   8.806  0.4047 -0.0569 -0.2656
 1298TIP3    H125529   3.242   5.131   8.719 -0.4336  0.5710  0.2108
 1298TIP3    H225530   3.367   5.091   8.795  0.0082 -2.0300 -1.7721
 1299TIP3   OH225531   4.041   3.064   8.629 -0.1096  0.3450  0.1861
 1299TIP3    H125532   4.108   3.048   8.696 -0.0274 -0.8848 -0.1736
 1299TIP3    H225533   3.959   3.071   8.678  0.0958  0.5686  0.5053
 1300TIP3   OH225534   6.665   3.725   8.786 -0.4878  0.1808  0.4293
 1300TIP3    H125535   6.626   3.692   8.867 -2.1606 -1.9377 -1.1536
 1300TIP3    H225536   6.598   3.782   8.748 -0.4061 -0.1931 -0.2884
 1301TIP3   OH225537   1.747   3.504   7.276 -0.0888  0.5101 -0.3686
 1301TIP3    H125538   1.697   3.532   7.200 -0.6098 -1.7607 -0.9434
 1301TIP3    H225539   1.699   3.429   7.311  1.1712  0.2930  1.0558
 1302TIP3   OH225540   4.231   1.690   7.662  0.0680 -0.8668 -0.1113
 1302TIP3    H125541   4.284   1.610   7.671 -1.2975 -1.7491  0.3187
 1302TIP3    H225542   4.141   1.659   7.658 -0.5804  0.7257  1.1097
 1303TIP3   OH225543   4.645   1.180   0.556  0.2582 -0.0713  0.4213
 1303TIP3    H125544   4.651   1.088   0.584 -0.6315  0.2299  1.6545
 1303TIP3    H225545   4.580   1.179   0.486  2.6657 -0.8640 -2.0122
 1304TIP3   OH225546   1.612   5.669   2.330  0.3521  0.2563 -0.6024
 1304TIP3    H125547   1.576   5.747   2.374  0.1508 -0.0633 -0.1850
 1304TIP3    H225548   1.664   5.626   2.398 -1.1200 -1.0121 -0.2007
 1305TIP3   OH225549   3.868   3.475   2.964  0.5459  0.1739  0.1294
 1305TIP3    H125550   3.816   3.453   2.887 -0.5599 -0.0378  0.9122
 1305TIP3    H225551   3.841   3.564   2.987  1.9211  0.8005 -0.5446
 1306TIP3   OH225552   6.480   5.626   3.100 -0.5996  0.0942  0.0344
 1306TIP3    H125553   6.558   5.577   3.125 -0.9803 -1.0840 -0.9988
 1306TIP3    H225554   6.412   5.596   3.161  0.1232  2.5443  2.2408
 1307TIP3   OH225555   5.032   3.186   9.097 -0.2655  0.0332  0.9965
 1307TIP3    H125556   5.108   3.132   9.116 -0.8221 -0.3426  2.2726
 1307TIP3    H225557   5.008   3.224   9.182 -1.3125  0.3807  0.5613
 1308TIP3   OH225558   6.514   2.337   9.158 -0.4187  0.1372 -0.4593
 1308TIP3    H125559   6.429   2.334   9.202 -0.3267 -3.4224 -0.2470
 1308TIP3    H225560   6.514   2.421   9.113 -2.7498  1.6240  1.9581
 1309TIP3   OH225561   3.373   2.247   8.761  0.1805 -0.2121 -0.2765
 1309TIP3    H125562   3.435   2.234   8.832 -1.0355 -0.5192  0.7664
 1309TIP3    H225563   3.288   2.225   8.799 -0.7115  1.1785 -1.3548
 1310TIP3   OH225564   6.337   6.331   1.891  0.0254 -0.0454  0.0772
 1310TIP3    H125565   6.300   6.317   1.978  0.6922 -0.8278  0.2501
 1310TIP3    H225566   6.410   6.391   1.905 -1.0372  1.3566 -0.2375
 1311TIP3   OH225567   1.155   1.969   3.542 -0.2581 -0.3613 -0.2841
 1311TIP3    H125568   1.154   1.993   3.449 -1.1338  0.0559 -0.1804
 1311TIP3    H225569   1.083   1.907   3.551 -0.7635  0.3029  0.2908
 1312TIP3   OH225570   2.021   0.371   1.086 -0.0588 -0.7011 -0.3135
 1312TIP3    H125571   1.990   0.431   1.018  0.8344 -0.4380 -0.5128
 1312TIP3    H225572   1.955   0.302   1.090  0.1714 -1.0589 -1.9015
 1313TIP3   OH225573   0.259   3.497   2.737 -0.2272  0.1080 -0.2286
 1313TIP3    H125574   0.201   3.573   2.746  0.5032  0.9826 -2.1983
 1313TIP3    H225575   0.326   3.510   2.804 -0.2994  1.0355 -0.3236
 1314TIP3   OH225576   0.653   5.988   3.129  0.1213  0.6214 -0.1061
 1314TIP3    H125577   0.678   6.081   3.131  0.6631  0.5186 -1.2091
 1314TIP3    H225578   0.558   5.989   3.135  0.1907  1.1447  1.7515
 1315TIP3   OH225579   3.162   1.118   8.345  0.7970 -0.6730 -0.0808
 1315TIP3    H125580   3.231   1.071   8.298  1.8283  0.7760 -0.0797
 1315TIP3    H225581   3.206   1.157   8.421 -0.0064  0.2836 -0.0793
 1316TIP3   OH225582   0.962   6.643   1.707  0.4453 -0.1233  0.3339
 1316TIP3    H125583   1.021   6.567   1.703  0.3236 -0.3469  2.1693
 1316TIP3    H225584   0.994   6.695   1.780 -0.1022  1.0919 -0.2589
 1317TIP3   OH225585   2.503   5.502   1.686 -0.5041  0.3097  0.4730
 1317TIP3    H125586   2.532   5.464   1.603  0.5187  0.4278  0.7598
 1317TIP3    H225587   2.443   5.438   1.723 -2.1568  0.8927 -1.0302
 1318TIP3   OH225588   2.602   0.251   1.360 -0.1258 -0.7940  0.0972
 1318TIP3    H125589   2.672   0.203   1.404 -0.9273 -0.1735  2.1668
 1318TIP3    H225590   2.521   0.218   1.399 -0.6965  2.4535  1.9901
 1319TIP3   OH225591   2.222   2.077   9.073  0.0398 -0.1090 -0.0231
 1319TIP3    H125592   2.195   2.149   9.017 -1.7887 -1.0285 -0.4052
 1319TIP3    H225593   2.280   2.024   9.017  0.9572  0.7467  0.0908
 1320TIP3   OH225594   2.679   6.476   0.661 -0.1622  0.3513 -0.0867
 1320TIP3    H125595   2.745   6.520   0.608 -0.4118  0.1565 -0.5703
 1320TIP3    H225596   2.722   6.460   0.745 -0.6951  3.4169  0.9160
 1321TIP3   OH225597   4.667   0.338   2.263  0.8985 -0.7095 -0.4241
 1321TIP3    H125598   4.762   0.344   2.251  0.9032  2.5048  0.3675
 1321TIP3    H225599   4.648   0.397   2.337 -1.8670 -0.0284 -1.5531
 1322TIP3   OH225600   5.853   4.207   0.346  0.2362 -0.4435  0.4138
 1322TIP3    H125601   5.947   4.214   0.330  0.1496  0.8696  0.4310
 1322TIP3    H225602   5.834   4.274   0.412 -1.2717  1.7659 -2.0833
 1323TIP3   OH225603   4.164   4.174   1.675 -0.7331  0.4488  0.4211
 1323TIP3    H125604   4.210   4.202   1.754  0.8021 -1.3064  0.2002
 1323TIP3    H225605   4.111   4.100   1.703  0.8469 -1.0632 -0.3838
 1324TIP3   OH225606   2.221   0.852   1.801 -0.3160 -0.3237 -0.0338
 1324TIP3    H125607   2.241   0.771   1.848  1.3469  0.0050 -0.0920
 1324TIP3    H225608   2.230   0.830   1.709  2.3129  0.3611 -0.0197
 1325TIP3   OH225609   1.179   3.168   8.912 -0.2474  0.5621  0.0962
 1325TIP3    H125610   1.156   3.261   8.907  0.0576  0.8223  2.3530
 1325TIP3    H225611   1.180   3.149   9.006 -2.3666 -2.2511 -0.3205
 1326TIP3   OH225612   0.569   3.266   8.717 -0.0880 -0.2506  0.5571
 1326TIP3    H125613   0.532   3.271   8.629  0.5510 -0.8899  0.2395
 1326TIP3    H225614   0.615   3.182   8.719 -0.9347 -0.7222  1.8342
 1327TIP3   OH225615   2.981   5.074   8.726  0.7488 -0.1919 -0.0179
 1327TIP3    H125616   2.932   5.156   8.723  0.1195 -0.5868 -1.4245
 1327TIP3    H225617   3.071   5.101   8.745  0.3529  0.7161  0.6452
 1328TIP3   OH225618   3.409   1.104   0.023  0.0575  0.6759 -0.0386
 1328TIP3    H125619   3.387   1.013   0.007 -0.1136  0.7175 -0.0470
 1328TIP3    H225620   3.497   1.102   0.060 -0.6293  0.3744  1.6394
 1329TIP3   OH225621   5.800   5.390   2.129  0.4085 -0.4672  0.5881
 1329TIP3    H125622   5.850   5.352   2.201  0.4043 -1.6177  0.0135
 1329TIP3    H225623   5.771   5.314   2.078  0.4975  0.3208 -0.6799
 1330TIP3   OH225624   0.439   6.315   9.171  0.4376  0.5693 -0.7640
 1330TIP3    H125625   0.513   6.328   9.231 -0.0266  1.5356 -0.3689
 1330TIP3    H225626   0.417   6.222   9.180  0.2451  0.7268  0.7427
 1331TIP3   OH225627   3.588   0.377   7.663 -0.5096 -0.4109 -0.1354
 1331TIP3    H125628   3.559   0.463   7.693  0.4213 -0.3158  0.5491
 1331TIP3    H225629   3.547   0.366   7.577 -1.2665  0.3727  0.1104
 1332TIP3   OH225630   1.050   0.959   1.482 -0.2973  0.2645 -0.4270
 1332TIP3    H125631   1.087   0.904   1.413 -0.4933  0.6766 -0.8666
 1332TIP3    H225632   1.071   0.913   1.563  2.5789  1.2109 -0.5107
 1333TIP3   OH225633   2.567   6.009   1.603  0.1009 -0.3770  0.1815
 1333TIP3    H125634   2.662   6.002   1.613  0.1465  0.5467  0.5040
 1333TIP3    H225635   2.537   5.919   1.589  1.0626 -0.6244 -0.3384
 1334TIP3   OH225636   1.116   0.918   8.698  0.3524  0.2692 -0.9058
 1334TIP3    H125637   1.023   0.907   8.721  0.0652  0.1024 -2.0850
 1334TIP3    H225638   1.114   0.966   8.615  1.4102  3.3955  0.7033
 1335TIP3   OH225639   6.501   0.497   7.927 -0.1257 -0.3141  0.0721
 1335TIP3    H125640   6.437   0.427   7.945  0.4541 -0.9794 -0.3999
 1335TIP3    H225641   6.508   0.499   7.832  0.7630 -0.4322  0.1322
 1336TIP3   OH225642   1.040   4.805   1.252  0.2576 -0.4386 -0.7071
 1336TIP3    H125643   1.103   4.803   1.323 -0.3794  0.5675 -0.0973
 1336TIP3    H225644   1.094   4.801   1.172  0.9435 -2.2939 -0.2077
 1337TIP3   OH225645   6.140   2.637   0.913 -0.1332 -0.6176  0.0502
 1337TIP3    H125646   6.209   2.581   0.949  1.9992  2.3569  0.9170
 1337TIP3    H225647   6.110   2.689   0.988 -0.6504  0.7629 -1.0708
 1338TIP3   OH225648   2.071   6.441   7.606 -0.4098  0.0529 -0.5154
 1338TIP3    H125649   2.164   6.416   7.606 -0.6773 -1.1086 -2.0163
 1338TIP3    H225650   2.025   6.358   7.591 -1.6609  0.7042 -0.3650
 1339TIP3   OH225651   0.561   0.323   2.618  0.1662  0.0383 -0.4070
 1339TIP3    H125652   0.528   0.384   2.553  1.6041 -2.2269 -3.4992
 1339TIP3    H225653   0.653   0.347   2.629  0.5834 -1.1005 -1.1875
 1340TIP3   OH225654   4.131   6.248   8.366  0.1836  1.0007 -0.2757
 1340TIP3    H125655   4.075   6.315   8.324  0.9065  1.0233 -1.2505
 1340TIP3    H225656   4.084   6.224   8.445 -1.4238  0.7344 -1.2597
 1341TIP3   OH225657   6.504   0.463   8.439  0.0941  0.2515 -0.3270
 1341TIP3    H125658   6.462   0.401   8.498 -0.8127  0.5537 -0.6512
 1341TIP3    H225659   6.598   0.456   8.459 -0.1584 -0.0262  0.7681
 1342TIP3   OH225660   1.096   5.617   2.113  0.7809  0.2295  0.3707
 1342TIP3    H125661   1.049   5.584   2.190 -0.1451 -1.6511 -0.9349
 1342TIP3    H225662   1.036   5.603   2.041  2.8246 -1.0109 -1.1875
 1343TIP3   OH225663   5.334   3.309   8.391 -0.0064 -0.3306 -0.5043
 1343TIP3    H125664   5.288   3.366   8.329 -0.2984  0.1648  0.1628
 1343TIP3    H225665   5.330   3.355   8.474  1.5546 -0.3481 -0.3824
 1344TIP3   OH225666   6.583   0.328   2.345  0.0342 -0.5284 -0.2542
 1344TIP3    H125667   6.654   0.392   2.347 -0.1451 -0.3497  0.6331
 1344TIP3    H225668   6.580   0.299   2.254  0.4303  0.3799 -0.5700
 1345TIP3   OH225669   5.653   2.783   1.657  0.2899  0.0239 -0.6196
 1345TIP3    H125670   5.600   2.716   1.701  0.5840 -0.3149 -0.7817
 1345TIP3    H225671   5.593   2.822   1.593  0.2617 -0.4230 -0.8682
 1346TIP3   OH225672   4.857   5.187   1.429  0.2537 -0.0677 -0.3496
 1346TIP3    H125673   4.861   5.143   1.344  0.1118  0.4745 -0.6369
 1346TIP3    H225674   4.946   5.218   1.445  0.0002  0.9927 -0.9222
 1347TIP3   OH225675   6.308   1.414   1.459 -0.1557  0.2160 -0.7652
 1347TIP3    H125676   6.305   1.452   1.372 -0.7243  0.5632 -0.6079
 1347TIP3    H225677   6.248   1.340   1.455 -0.2668  0.2972 -0.6483
 1348TIP3   OH225678   0.546   1.148   2.045 -0.2253  0.4902 -0.8737
 1348TIP3    H125679   0.492   1.123   2.119 -0.2146  2.0480 -0.3022
 1348TIP3    H225680   0.625   1.095   2.054 -1.6963 -2.0827 -1.9159
 1349TIP3   OH225681   4.544   2.851   2.028 -0.0406  0.5345 -0.4473
 1349TIP3    H125682   4.615   2.789   2.011  0.2110  0.1503  1.6947
 1349TIP3    H225683   4.476   2.798   2.070 -0.4307  1.4354  0.0688
 1350TIP3   OH225684   3.517   1.013   8.578  0.1275 -0.0197  0.4558
 1350TIP3    H125685   3.573   1.022   8.501  0.9651  2.8898  1.2643
 1350TIP3    H225686   3.561   0.948   8.633  1.3588  0.3542 -0.0577
 1351TIP3   OH225687   3.551   1.535   0.858  0.2037  0.0571  0.3673
 1351TIP3    H125688   3.585   1.565   0.943 -0.9041  1.4038  0.3634
 1351TIP3    H225689   3.618   1.561   0.795 -0.1882  1.5298  0.5202
 1352TIP3   OH225690   2.092   5.758   1.971  0.6268  0.2226  0.3080
 1352TIP3    H125691   2.151   5.833   1.981  0.2462  0.5494  0.1254
 1352TIP3    H225692   2.123   5.695   2.036  1.5235  0.1676 -0.1570
 1353TIP3   OH225693   0.621   5.909   2.820  0.3812 -0.2421 -0.3916
 1353TIP3    H125694   0.643   6.002   2.822  1.0468 -0.3682 -1.3368
 1353TIP3    H225695   0.674   5.870   2.890 -0.9492  0.2768  0.9618
 1354TIP3   OH225696   6.288   0.395   0.140  0.5961  0.0295 -0.0179
 1354TIP3    H125697   6.269   0.342   0.217  2.0829 -1.0968 -0.3724
 1354TIP3    H225698   6.384   0.403   0.140  0.6759 -0.4266 -1.9941
 1355TIP3   OH225699   1.585   6.652   9.051 -0.2440  0.0147 -0.0023
 1355TIP3    H125700   1.572   6.745   9.032  1.9384 -0.0054 -2.0171
 1355TIP3    H225701   1.496   6.618   9.064 -1.2787  1.8946 -1.6465
 1356TIP3   OH225702   5.711   0.118   8.930  0.1033  0.0197  0.0831
 1356TIP3    H125703   5.624   0.124   8.890  0.5573  0.0753 -0.9134
 1356TIP3    H225704   5.714   0.194   8.990  0.1659  1.1444 -1.2951
 1357TIP3   OH225705   2.997   3.565   2.493  0.1859  0.2186  0.1564
 1357TIP3    H125706   3.058   3.563   2.567  1.5974  0.4490 -0.9515
 1357TIP3    H225707   2.961   3.476   2.488  0.2142  0.1580  0.9943
 1358TIP3   OH225708   3.853   4.167   2.731  0.0535 -0.1841 -0.3675
 1358TIP3    H125709   3.813   4.084   2.706 -1.0000  0.3164 -0.3835
 1358TIP3    H225710   3.836   4.225   2.657 -1.5671  0.8021  0.7180
 1359TIP3   OH225711   1.040   4.088   1.693  0.3461  0.1125 -0.0664
 1359TIP3    H125712   0.961   4.076   1.745 -1.2700  0.3292 -2.3142
 1359TIP3    H225713   1.022   4.165   1.639  1.8941 -0.1124 -0.9602
 1360TIP3   OH225714   6.128   1.496   8.205 -0.1068  0.3734  0.4511
 1360TIP3    H125715   6.224   1.501   8.200 -0.0497 -0.4943  0.4237
 1360TIP3    H225716   6.101   1.465   8.119 -0.4687  1.1503  0.2781
 1361TIP3   OH225717   5.240   1.481   2.044  0.2996 -0.2375 -0.2770
 1361TIP3    H125718   5.182   1.468   1.969  0.9688  0.5784 -0.9564
 1361TIP3    H225719   5.243   1.576   2.056 -4.7661 -0.1772  4.7191
 1362TIP3   OH225720   3.696   4.090   7.851  0.5616 -0.2687 -0.6446
 1362TIP3    H125721   3.745   4.007   7.850 -0.6186 -0.9914 -1.3255
 1362TIP3    H225722   3.703   4.121   7.941 -1.0243 -2.4059  0.3122
 1363TIP3   OH225723   6.045   4.984   7.911 -0.1870 -0.2463  0.2192
 1363TIP3    H125724   5.975   4.930   7.947 -1.2479  1.6581  1.1685
 1363TIP3    H225725   6.033   4.979   7.816  0.4169 -2.4653  0.2172
 1364TIP3   OH225726   6.022   6.582   2.458  0.0965  1.0704  0.1484
 1364TIP3    H125727   6.003   6.629   2.377 -0.0984  1.2555  0.2980
 1364TIP3    H225728   6.031   6.651   2.524 -0.8027  0.8722  0.4953
 1365TIP3   OH225729   1.334   0.679   8.828 -0.3858  0.2585 -0.1784
 1365TIP3    H125730   1.266   0.655   8.766  0.1469  0.1554 -0.7291
 1365TIP3    H225731   1.302   0.649   8.913  0.6104 -3.2438 -0.8970
 1366TIP3   OH225732   6.249   5.932   0.286 -0.1404  0.0470 -0.1454
 1366TIP3    H125733   6.259   5.839   0.305 -1.4678 -0.5078 -1.8372
 1366TIP3    H225734   6.303   5.946   0.208 -2.1099 -0.0229 -1.5994
 1367TIP3   OH225735   0.606   0.997   1.122 -0.4683 -0.4695  0.4932
 1367TIP3    H125736   0.514   1.018   1.108 -0.2998  0.3509  0.5205
 1367TIP3    H225737   0.606   0.928   1.188 -1.0842 -0.9795 -0.0291
 1368TIP3   OH225738   4.698   2.412   1.738 -0.0286 -0.0681  0.0740
 1368TIP3    H125739   4.784   2.403   1.696  0.3354 -1.1660  1.0419
 1368TIP3    H225740   4.639   2.432   1.665  0.9855  0.4581 -0.6392
 1369TIP3   OH225741   6.317   3.319   7.856 -0.0558  0.2199 -0.3890
 1369TIP3    H125742   6.396   3.266   7.867 -1.0145 -1.1161  0.4036
 1369TIP3    H225743   6.279   3.288   7.773  0.3932  1.0864 -0.9343
 1370TIP3   OH225744   2.883   5.354   8.780 -0.0366 -0.2627 -0.1049
 1370TIP3    H125745   2.851   5.443   8.795  1.0201 -0.0030  0.7618
 1370TIP3    H225746   2.805   5.299   8.786 -0.6303  0.5552 -0.1785
 1371TIP3   OH225747   6.253   1.936   1.782 -0.1485  0.2986 -0.0560
 1371TIP3    H125748   6.320   1.944   1.851  0.8641 -1.1431 -0.8142
 1371TIP3    H225749   6.203   1.859   1.807 -0.8362  0.7338 -0.0823
 1372TIP3   OH225750   4.980   4.949   1.268 -0.5885 -0.0133 -0.3068
 1372TIP3    H125751   5.013   5.022   1.216  1.0226 -1.3279 -1.2547
 1372TIP3    H225752   4.931   4.895   1.205 -1.0826 -0.1610  0.1958
 1373TIP3   OH225753   2.218   1.922   1.689 -0.2171  0.3637  0.4097
 1373TIP3    H125754   2.305   1.890   1.664 -0.0059  1.6538 -0.6096
 1373TIP3    H225755   2.158   1.865   1.642  0.1012  0.1728  0.2255
 1374TIP3   OH225756   0.711   6.629   0.155 -0.7467 -0.5462 -0.0476
 1374TIP3    H125757   0.699   6.607   0.062 -1.5462 -1.5821  0.2797
 1374TIP3    H225758   0.766   6.707   0.154 -0.9637 -0.3819 -1.4044
 1375TIP3   OH225759   0.627   3.687   1.104  0.0658 -0.0262  0.2907
 1375TIP3    H125760   0.687   3.614   1.086 -0.4587 -1.1432  2.6615
 1375TIP3    H225761   0.549   3.667   1.052  0.8045  0.1454 -0.9230
 1376TIP3   OH225762   5.880   4.495   0.185  0.0747 -1.1237 -0.0561
 1376TIP3    H125763   5.964   4.540   0.173 -0.0111 -1.1198 -0.6516
 1376TIP3    H225764   5.898   4.404   0.164  0.3431 -1.4699  1.5296
 1377TIP3   OH225765   0.648   4.283   2.577  0.2062  0.4886  0.4612
 1377TIP3    H125766   0.640   4.372   2.542 -0.9231 -0.0559 -0.7803
 1377TIP3    H225767   0.622   4.226   2.504  2.3511 -0.9677  0.7305
 1378TIP3   OH225768   5.360   3.919   0.250  0.2599  0.0260 -0.6127
 1378TIP3    H125769   5.408   3.838   0.264  2.3086  1.1061 -0.9986
 1378TIP3    H225770   5.304   3.901   0.174 -0.9651 -1.6648  0.6344
 1379TIP3   OH225771   2.774   1.292   2.169 -0.0856  0.2129 -0.0623
 1379TIP3    H125772   2.782   1.265   2.078 -0.6686  0.0863 -0.0793
 1379TIP3    H225773   2.709   1.233   2.206  0.1364  0.2739  0.4347
 1380TIP3   OH225774   3.900   6.144   7.364 -0.2979 -0.3931  0.0030
 1380TIP3    H125775   3.921   6.229   7.324 -1.2888  0.2784  0.8424
 1380TIP3    H225776   3.883   6.165   7.456 -1.1190 -1.4204  0.1027
 1381TIP3   OH225777   5.852   4.483   8.101 -0.1012  1.0288  0.4173
 1381TIP3    H125778   5.934   4.513   8.140  0.1737  0.1910  0.4971
 1381TIP3    H225779   5.831   4.550   8.036  1.3688  0.5656 -0.5753
 1382TIP3   OH225780   5.963   1.332   0.727  0.1593  0.2509  0.0896
 1382TIP3    H125781   6.050   1.354   0.758  1.0942 -0.2785 -1.9955
 1382TIP3    H225782   5.920   1.417   0.714 -0.0859  0.4943  2.1755
 1383TIP3   OH225783   1.953   4.599   7.938  0.1313  0.5983  0.2639
 1383TIP3    H125784   2.015   4.643   7.879 -0.3016 -0.1209 -0.7632
 1383TIP3    H225785   1.995   4.516   7.958 -0.7005 -0.1290 -0.8734
 1384TIP3   OH225786   1.627   1.637   0.102 -0.1153 -0.1273  0.2010
 1384TIP3    H125787   1.600   1.728   0.090 -1.8329 -0.4256  1.4283
 1384TIP3    H225788   1.552   1.595   0.144  1.2264 -1.7388  1.1345
 1385TIP3   OH225789   5.680   2.312   8.120 -0.4689  0.2181 -0.2609
 1385TIP3    H125790   5.722   2.282   8.039  0.8958 -2.0203  1.1739
 1385TIP3    H225791   5.608   2.251   8.135 -1.5785  1.4362 -0.4296
 1386TIP3   OH225792   3.876   6.443   7.513  0.2545 -0.7281 -0.7232
 1386TIP3    H125793   3.846   6.359   7.547 -0.2741 -0.1595  0.2482
 1386TIP3    H225794   3.892   6.426   7.420 -1.5954 -1.4394 -0.9611
 1387TIP3   OH225795   0.024   2.360   2.699 -0.5321  0.3176 -0.4982
 1387TIP3    H125796   0.004   2.432   2.758 -0.7042 -0.5536  0.5570
 1387TIP3    H225797   0.117   2.371   2.678 -0.4562  0.6272 -0.0274
 1388TIP3   OH225798   1.554   4.802   7.240 -0.1003 -0.0501 -0.2803
 1388TIP3    H125799   1.649   4.817   7.235 -0.0076 -0.1476  0.8286
 1388TIP3    H225800   1.519   4.887   7.269 -0.1744 -0.4162  0.7429
 1389TIP3   OH225801   6.201   2.401   9.144  0.5247  0.3119 -0.2859
 1389TIP3    H125802   6.190   2.491   9.112 -0.7709  0.5385  0.7086
 1389TIP3    H225803   6.150   2.347   9.084  0.3248  0.3909 -0.1861
 1390TIP3   OH225804   6.398   3.971   1.220 -0.0528  0.4678  0.3933
 1390TIP3    H125805   6.413   4.033   1.148  0.8224  0.7628  0.8127
 1390TIP3    H225806   6.310   3.992   1.251 -0.9585 -0.4922 -1.3757
 1391TIP3   OH225807   2.373   6.290   1.937  0.2155  0.2441  0.1312
 1391TIP3    H125808   2.365   6.344   2.015  0.6802  2.1279 -1.0482
 1391TIP3    H225809   2.284   6.262   1.917 -0.7480  3.7092 -1.2459
 1392TIP3   OH225810   4.580   0.303   0.816  0.4150 -0.0649 -0.0202
 1392TIP3    H125811   4.602   0.222   0.863  2.4025 -0.4350 -1.4804
 1392TIP3    H225812   4.657   0.322   0.763 -1.5349  0.4890 -2.9076
 1393TIP3   OH225813   0.174   1.541   7.625 -0.1415 -0.7762 -0.0488
 1393TIP3    H125814   0.256   1.575   7.660 -0.2563 -1.3464  0.8056
 1393TIP3    H225815   0.159   1.592   7.545  0.0658  0.6699  0.7916
 1394TIP3   OH225816   0.321   3.165   9.036  0.0995 -0.2949  0.0517
 1394TIP3    H125817   0.306   3.104   8.964  0.3343  1.0823 -1.2183
 1394TIP3    H225818   0.416   3.168   9.045  0.0596 -0.6815  0.6235
 1395TIP3   OH225819   2.791   3.321   0.974  0.3335 -1.0910 -0.0514
 1395TIP3    H125820   2.742   3.350   1.051  1.9225  0.3721  0.4843
 1395TIP3    H225821   2.787   3.226   0.977 -4.1757 -1.1644 -1.2322
 1396TIP3   OH225822   4.879   2.545   1.537  0.2530 -0.6920  0.2732
 1396TIP3    H125823   4.911   2.635   1.532 -0.7789 -0.2291  1.3171
 1396TIP3    H225824   4.907   2.504   1.455  0.8493  0.5381 -0.1588
 1397TIP3   OH225825   2.971   3.758   1.044  0.0516  0.5719  0.0726
 1397TIP3    H125826   2.908   3.701   1.000  1.1819 -0.9115  0.3044
 1397TIP3    H225827   2.961   3.843   1.001 -0.5460 -0.2140 -1.4017
 1398TIP3   OH225828   0.506   4.600   1.321  0.2179  0.4001 -0.1777
 1398TIP3    H125829   0.551   4.665   1.269  0.6234  0.0870 -0.2274
 1398TIP3    H225830   0.530   4.516   1.281 -0.9352  0.2533 -0.6107
 1399TIP3   OH225831   1.774   5.069   1.065  0.1844  0.2695 -0.3356
 1399TIP3    H125832   1.799   5.082   1.157  1.4289  0.5867 -0.7000
 1399TIP3    H225833   1.856   5.079   1.016 -0.6546  1.2421 -1.5916
 1400TIP3   OH225834   6.650   0.018   1.825  0.0264 -0.3383 -0.3479
 1400TIP3    H125835   6.600   0.065   1.759  0.3337 -0.2924 -0.5537
 1400TIP3    H225836   6.722  -0.022   1.776  1.1611  0.9965  0.1765
 1401TIP3   OH225837   5.704   4.947   0.690 -0.3451  0.2627 -0.1767
 1401TIP3    H125838   5.648   5.011   0.645 -0.2891  0.1426 -0.4136
 1401TIP3    H225839   5.652   4.866   0.691  0.1017 -0.0383 -1.0058
 1402TIP3   OH225840   6.471   3.040   8.693  0.5823  0.1064 -0.3063
 1402TIP3    H125841   6.418   3.118   8.711  0.0965  0.0170 -1.2639
 1402TIP3    H225842   6.445   3.014   8.604 -0.8715 -2.3861  0.7467
 1403TIP3   OH225843   3.957   1.500   7.305  0.0034  0.6225 -0.0344
 1403TIP3    H125844   3.892   1.430   7.303 -0.0859  0.6996  0.1094
 1403TIP3    H225845   4.025   1.472   7.244 -0.3279  0.6953 -0.4444
 1404TIP3   OH225846   2.586   2.206   0.174  0.5851 -0.6543 -0.4535
 1404TIP3    H125847   2.621   2.133   0.123  0.4205 -1.1172  0.0934
 1404TIP3    H225848   2.567   2.169   0.260  3.0096  0.6411  0.7303
 1405TIP3   OH225849   5.667   0.446   8.937  0.9344  0.8454 -0.0762
 1405TIP3    H125850   5.745   0.458   8.882  0.6762 -0.6403 -0.7965
 1405TIP3    H225851   5.603   0.404   8.880  0.2532  0.3252  1.0450
 1406TIP3   OH225852   2.175   2.171   0.454  1.1512 -0.4154 -0.2531
 1406TIP3    H125853   2.132   2.113   0.517  1.4923 -0.0794  0.2937
 1406TIP3    H225854   2.136   2.257   0.469  1.6256 -0.2187 -0.1161
 1407TIP3   OH225855   0.376   3.204   1.838  0.2592 -1.0610  0.1424
 1407TIP3    H125856   0.462   3.235   1.810 -1.1923  3.7121  0.0257
 1407TIP3    H225857   0.386   3.190   1.933  1.2423 -0.8157  0.0915
 1408TIP3   OH225858   4.504   0.398   8.348 -0.0690  0.5368 -0.0734
 1408TIP3    H125859   4.437   0.336   8.318  1.1228 -0.5328 -0.5929
 1408TIP3    H225860   4.515   0.378   8.441 -1.4297  1.6482  0.3516
 1409TIP3   OH225861   4.114   6.595   9.096 -0.1816 -0.6520 -0.1863
 1409TIP3    H125862   4.020   6.600   9.077 -0.4854 -0.5142  1.2590
 1409TIP3    H225863   4.126   6.507   9.131 -0.0882 -0.1316  1.1462
 1410TIP3   OH225864   1.045   0.936   2.109 -0.2570 -0.0490 -0.2165
 1410TIP3    H125865   0.964   0.978   2.079 -0.5187  0.8080  1.5403
 1410TIP3    H225866   1.098   1.009   2.143  0.7501 -0.7418 -0.2681
 1411TIP3   OH225867   4.303   3.694   9.104 -0.3542  0.3557  0.2937
 1411TIP3    H125868   4.325   3.784   9.129  0.1440 -0.0370  1.3535
 1411TIP3    H225869   4.237   3.703   9.036 -0.2436  1.5273  0.3263
 1412TIP3   OH225870   4.055   3.957   9.193  0.4452  0.4182 -0.2279
 1412TIP3    H125871   4.069   3.882   9.251 -2.1623  0.3230  0.4024
 1412TIP3    H225872   4.062   4.033   9.251 -1.6296  0.3490  0.1977
 1413TIP3   OH225873   3.013   1.934   2.447  0.3590  0.1353 -0.8333
 1413TIP3    H125874   3.008   1.839   2.434 -0.1411  0.0944 -0.3844
 1413TIP3    H225875   2.922   1.960   2.462  0.7374  0.3361  1.4237
 1414TIP3   OH225876   4.319   4.766   0.796  0.5203  0.2050 -0.1879
 1414TIP3    H125877   4.275   4.827   0.738 -0.4315 -0.9538 -0.7402
 1414TIP3    H225878   4.259   4.756   0.870  0.4481 -0.3854 -0.3185
 1415TIP3   OH225879   1.520   3.018   8.284 -0.9995  0.3207  0.4260
 1415TIP3    H125880   1.480   2.999   8.369  0.3831 -0.8689  0.8388
 1415TIP3    H225881   1.600   3.066   8.306 -0.3478 -0.4792 -0.1556
 1416TIP3   OH225882   5.181   3.861   2.291  0.5311 -0.2941  0.0639
 1416TIP3    H125883   5.118   3.905   2.234 -0.7769 -0.0443  1.6221
 1416TIP3    H225884   5.261   3.856   2.239 -0.3922  0.5458 -1.5154
 1417TIP3   OH225885   0.169   1.137   8.788 -0.5806 -0.5693 -0.2438
 1417TIP3    H125886   0.216   1.174   8.713 -2.3184 -0.8154 -1.5105
 1417TIP3    H225887   0.232   1.076   8.827  1.0360  0.9659 -0.3086
 1418TIP3   OH225888   4.309   4.199   1.198  0.3371  0.1233  0.2554
 1418TIP3    H125889   4.248   4.193   1.271 -0.2406  0.6396 -0.1698
 1418TIP3    H225890   4.267   4.261   1.137  0.9635 -0.0380 -0.3514
 1419TIP3   OH225891   3.163   6.693   1.106 -0.6881  0.1860  0.0896
 1419TIP3    H125892   3.081   6.742   1.113 -2.0797 -2.0844  0.8794
 1419TIP3    H225893   3.215   6.723   1.180 -1.2433  0.9063  0.1997
 1420TIP3   OH225894   1.070   3.774   8.283 -0.1400 -0.0257  0.0125
 1420TIP3    H125895   0.991   3.820   8.253  0.5229  0.7210 -0.6393
 1420TIP3    H225896   1.127   3.771   8.205  2.2437  3.2266  1.3839
 1421TIP3   OH225897   4.323   4.060   0.296  0.7467  0.2033 -0.2394
 1421TIP3    H125898   4.264   4.113   0.350  0.8484  0.6017 -0.5248
 1421TIP3    H225899   4.369   4.004   0.359 -0.6005 -0.7818 -0.0743
 1422TIP3   OH225900   2.451   2.824   0.456  0.1055  0.1660  0.1038
 1422TIP3    H125901   2.507   2.896   0.482  1.0200  0.1946 -1.7299
 1422TIP3    H225902   2.391   2.862   0.391  1.5077 -0.9057 -1.9492
 1423TIP3   OH225903   4.152   4.218   3.186 -0.2379 -0.0348  0.0830
 1423TIP3    H125904   4.183   4.150   3.126 -0.9289  0.9122 -1.4130
 1423TIP3    H225905   4.065   4.241   3.154 -0.9618 -0.0057  1.9272
 1424TIP3   OH225906   4.647   4.345   7.865  0.4937  0.8702 -0.4269
 1424TIP3    H125907   4.655   4.251   7.851  1.7771  1.2104 -2.3481
 1424TIP3    H225908   4.559   4.357   7.899  0.3729 -1.0247  0.0445
 1425TIP3   OH225909   4.768   2.219   0.028 -0.0924 -0.0270  0.7029
 1425TIP3    H125910   4.851   2.262   0.050 -0.3493 -0.0344  1.7071
 1425TIP3    H225911   4.705   2.290   0.022  0.3649  0.2488 -2.2038
 1426TIP3   OH225912   2.360   3.207   1.747 -0.2529 -0.2932  0.3223
 1426TIP3    H125913   2.435   3.151   1.730  1.5346  1.8656  0.6006
 1426TIP3    H225914   2.371   3.236   1.837 -0.2686  1.6304 -0.2443
 1427TIP3   OH225915   2.247   4.749   0.985  0.1290 -0.6124 -0.6181
 1427TIP3    H125916   2.210   4.671   1.026 -0.4479 -0.5052 -0.9269
 1427TIP3    H225917   2.172   4.804   0.965  0.6304  0.6203  0.7527
 1428TIP3   OH225918   0.483   5.309   0.624  0.6706 -0.3303 -0.0829
 1428TIP3    H125919   0.482   5.333   0.531  2.1686  0.0909 -0.0267
 1428TIP3    H225920   0.449   5.220   0.627 -0.0731 -0.0879 -0.9463
 1429TIP3   OH225921   2.805   1.155   1.148 -0.1813 -0.6073  0.0934
 1429TIP3    H125922   2.765   1.186   1.067  0.0156  0.8656  0.5281
 1429TIP3    H225923   2.811   1.233   1.203 -0.5351 -1.6184  1.6329
 1430TIP3   OH225924   0.542   4.479   8.030  0.1859 -0.2295  0.1654
 1430TIP3    H125925   0.504   4.565   8.047  1.3762  0.0955  1.4077
 1430TIP3    H225926   0.477   4.434   7.976 -0.7006  1.2459 -0.0549
 1431TIP3   OH225927   5.433   3.144   2.874  0.1448 -0.4461 -0.3995
 1431TIP3    H125928   5.420   3.156   2.968 -0.5672  1.3906 -0.7032
 1431TIP3    H225929   5.491   3.068   2.868  0.5129 -0.3717  1.5212
 1432TIP3   OH225930   4.864   5.122   0.331 -0.3486  0.1568 -0.0110
 1432TIP3    H125931   4.776   5.144   0.301 -0.2860  2.9505  1.5315
 1432TIP3    H225932   4.852   5.057   0.400 -1.1618  0.1435 -0.1666
 1433TIP3   OH225933   4.711   4.435   0.287  0.3605 -0.0466  0.0183
 1433TIP3    H125934   4.644   4.372   0.262  0.3790 -1.5151  3.1436
 1433TIP3    H225935   4.665   4.500   0.340  1.0511  0.0260  0.5480
 1434TIP3   OH225936   0.556   0.715   8.303  0.1610 -0.0557 -0.6634
 1434TIP3    H125937   0.500   0.641   8.325 -0.2009  0.4424  0.1374
 1434TIP3    H225938   0.496   0.790   8.300  0.5858  0.2736 -1.0684
 1435TIP3   OH225939   3.482   0.169   1.463 -0.1096  0.0965  0.0377
 1435TIP3    H125940   3.443   0.094   1.508  3.9184 -2.8634 -0.8765
 1435TIP3    H225941   3.526   0.219   1.531 -0.9604  0.4058  0.3693
 1436TIP3   OH225942   0.389   1.052   0.881 -0.1536 -0.3423  0.0084
 1436TIP3    H125943   0.467   1.100   0.907 -1.6110  3.0257 -1.1921
 1436TIP3    H225944   0.325   1.071   0.950 -2.0648  3.3441 -2.4616
 1437TIP3   OH225945   3.903   4.123   8.361  0.3972 -0.5212 -0.1444
 1437TIP3    H125946   3.889   4.056   8.295  0.4394 -0.3237 -0.3537
 1437TIP3    H225947   3.816   4.161   8.376 -0.0317 -2.0486  1.5139
 1438TIP3   OH225948   4.086   5.923   0.273  0.5782 -0.3433  0.1176
 1438TIP3    H125949   4.065   5.829   0.274 -1.0307 -0.0161  0.6635
 1438TIP3    H225950   4.158   5.931   0.210  0.6823 -1.9257 -0.0109
 1439TIP3   OH225951   0.278   1.908   8.634 -0.4563 -0.4355 -0.5943
 1439TIP3    H125952   0.210   1.860   8.682 -0.1356 -1.4331 -1.0892
 1439TIP3    H225953   0.294   1.854   8.556  1.5068 -0.6896 -0.0566
 1440TIP3   OH225954   3.218   6.421   1.072 -0.2626 -0.1995 -0.3762
 1440TIP3    H125955   3.235   6.388   0.983 -0.2310 -1.1323 -0.0333
 1440TIP3    H225956   3.179   6.507   1.058 -0.7090 -0.5415 -1.3111
 1441TIP3   OH225957   6.664   3.477   8.971 -0.1127 -0.3428  0.0223
 1441TIP3    H125958   6.639   3.447   9.059 -1.3034 -0.2332 -0.2681
 1441TIP3    H225959   6.681   3.396   8.923 -0.6342 -0.4479  0.0133
 1442TIP3   OH225960   6.105   2.343   0.936  0.1452 -0.5032  0.2003
 1442TIP3    H125961   6.025   2.376   0.977  0.1100 -0.9847  0.5378
 1442TIP3    H225962   6.075   2.297   0.858  0.1368 -0.2907  0.0773
 1443TIP3   OH225963   5.779   1.681   8.219 -0.2026  0.1032 -0.0695
 1443TIP3    H125964   5.852   1.651   8.274 -1.0626 -0.2797  0.9141
 1443TIP3    H225965   5.701   1.653   8.267 -0.9947 -0.0339 -1.4036
 1444TIP3   OH225966   2.089   0.632   7.213 -0.4615  0.1327  0.1889
 1444TIP3    H125967   2.004   0.672   7.196 -1.1094 -0.9958  0.6338
 1444TIP3    H225968   2.068   0.545   7.248  0.8627 -0.8513 -1.3205
 1445TIP3   OH225969   1.897   5.277   1.468 -0.2473  0.5747 -0.4823
 1445TIP3    H125970   1.890   5.366   1.503 -0.0522  0.1957  0.5886
 1445TIP3    H225971   1.985   5.273   1.431  0.0735  0.5704  0.2626
 1446TIP3   OH225972   1.147   4.068   2.027  0.0771 -0.1617 -0.0279
 1446TIP3    H125973   1.101   4.152   2.030 -1.6178 -0.9100 -2.3234
 1446TIP3    H225974   1.086   4.008   1.984  1.4531 -2.4674  1.0117
 1447TIP3   OH225975   4.982   4.775   8.917  0.4869  0.8333 -0.5129
 1447TIP3    H125976   5.002   4.689   8.952  0.8597  0.3082 -1.9474
 1447TIP3    H225977   5.056   4.795   8.859 -0.8243  0.9564 -2.2190
 1448TIP3   OH225978   2.055   3.577   1.913 -0.4764 -0.1870  0.6360
 1448TIP3    H125979   2.037   3.500   1.967  0.9364 -1.7122 -0.9269
 1448TIP3    H225980   2.035   3.548   1.824  1.7865  0.6341 -0.1964
 1449TIP3   OH225981   2.046   0.633   0.841 -0.3930 -0.5872  0.7570
 1449TIP3    H125982   2.053   0.718   0.884 -3.1773  1.4862 -2.3619
 1449TIP3    H225983   2.117   0.634   0.776  0.3331 -1.2407  1.5214
 1450TIP3   OH225984   0.560   1.834   3.147  0.5256  0.0941 -0.5485
 1450TIP3    H125985   0.631   1.803   3.091  1.6610 -0.5318  1.1873
 1450TIP3    H225986   0.581   1.926   3.164  0.5959  0.0645 -0.4814
 1451TIP3   OH225987   4.683   3.145   1.120  0.3735 -0.3449  0.0792
 1451TIP3    H125988   4.719   3.232   1.101 -1.1701  0.2402 -0.3662
 1451TIP3    H225989   4.665   3.108   1.034  0.4298 -0.8503  0.2848
 1452TIP3   OH225990   6.023   3.478   0.719  0.0322  0.2290 -0.4907
 1452TIP3    H125991   5.966   3.495   0.645  1.2669  3.1563 -0.8786
 1452TIP3    H225992   6.024   3.560   0.769  1.8865 -0.5585  0.9005
 1453TIP3   OH225993   6.271   0.085   0.046  0.4403 -0.0121  0.2204
 1453TIP3    H125994   6.289   0.160   0.103  1.5824  1.2018 -1.6436
 1453TIP3    H225995   6.290   0.116  -0.042  1.2501 -2.5613 -0.6101
 1454TIP3   OH225996   4.719   6.635   7.757 -0.3491  0.3151 -0.0176
 1454TIP3    H125997   4.765   6.589   7.687  0.2930  0.3684  0.3576
 1454TIP3    H225998   4.675   6.708   7.714  0.0814  0.3772 -0.3580
 1455TIP3   OH225999   3.361   2.537   1.841  0.0573 -0.8172 -0.0335
 1455TIP3    H126000   3.340   2.618   1.794 -0.7585 -2.0001 -1.8256
 1455TIP3    H226001   3.307   2.540   1.920 -1.2644 -0.3864 -0.9230
 1456TIP3   OH226002   5.949   4.433   2.195  0.2771  0.0344 -0.2329
 1456TIP3    H126003   6.025   4.377   2.177 -0.2959 -0.1176 -2.4253
 1456TIP3    H226004   5.907   4.392   2.271  0.9645 -1.3847 -0.5816
 1457TIP3   OH226005   6.475   3.879   0.904  0.5312  0.0990 -0.2474
 1457TIP3    H126006   6.465   3.961   0.952 -1.3048 -0.2948  0.1174
 1457TIP3    H226007   6.478   3.812   0.972  0.1038 -0.2789 -0.5909
 1458TIP3   OH226008   6.262   0.971   0.434  0.5425 -0.9975  0.4037
 1458TIP3    H126009   6.195   0.915   0.394 -1.2413  2.1394 -1.4200
 1458TIP3    H226010   6.222   1.001   0.516 -0.8158  1.4786 -1.0413
 1459TIP3   OH226011   6.430   4.830   1.779  0.5537  0.1321 -0.2891
 1459TIP3    H126012   6.478   4.775   1.716  0.2076 -1.0624  0.4542
 1459TIP3    H226013   6.498   4.880   1.823  1.1021 -1.1303  0.3632
 1460TIP3   OH226014   0.380   1.346   0.701  0.0260  0.2567 -0.0474
 1460TIP3    H126015   0.413   1.333   0.789  2.0527  0.3463 -0.7470
 1460TIP3    H226016   0.319   1.273   0.687  0.9424 -0.7137  0.8362
 1461TIP3   OH226017   1.811   2.952   1.522  0.3110  0.2180 -0.7689
 1461TIP3    H126018   1.866   3.027   1.547  0.1551 -0.2501  1.1184
 1461TIP3    H226019   1.868   2.898   1.467  0.7826  1.1535 -1.2282
 1462TIP3   OH226020   5.547   3.976   8.665  0.0434  0.4398  0.5067
 1462TIP3    H126021   5.596   3.931   8.597 -0.2908  0.4403  0.2604
 1462TIP3    H226022   5.477   3.915   8.689 -1.1845  1.2959 -0.7246
 1463TIP3   OH226023   3.175   2.508   2.843  0.1442  0.3910  0.1053
 1463TIP3    H126024   3.162   2.588   2.893  0.5819  0.3455  0.2907
 1463TIP3    H226025   3.269   2.495   2.841  0.0960  0.0673 -0.2199
 1464TIP3   OH226026   4.534   1.547   8.920  0.1401 -0.6608  0.0725
 1464TIP3    H126027   4.610   1.536   8.977  0.5340  0.7007 -0.1312
 1464TIP3    H226028   4.459   1.554   8.979  0.3450 -0.7498  0.3444
 1465TIP3   OH226029   6.574   4.168   1.702 -0.1275 -0.1827  0.3226
 1465TIP3    H126030   6.569   4.073   1.696 -0.2443 -0.1205 -0.5727
 1465TIP3    H226031   6.651   4.192   1.651 -0.2263  0.2238  0.3607
 1466TIP3   OH226032   4.320   5.954   1.820 -0.2573 -0.1126 -0.0357
 1466TIP3    H126033   4.343   5.964   1.728  3.4119  0.4425  0.8187
 1466TIP3    H226034   4.321   5.859   1.834 -0.2775 -0.1727 -0.4218
 1467TIP3   OH226035   2.209   2.483   8.339 -0.0312  0.1420  0.2127
 1467TIP3    H126036   2.189   2.577   8.332  0.2887  0.1801 -0.1941
 1467TIP3    H226037   2.165   2.444   8.263  0.1664  0.0180  0.1623
 1468TIP3   OH226038   1.151   5.737   8.335 -0.3492 -0.4302 -0.4348
 1468TIP3    H126039   1.147   5.825   8.372  1.0852  0.3318 -1.9899
 1468TIP3    H226040   1.060   5.712   8.323 -0.8444 -0.0467  1.9372
 1469TIP3   OH226041   3.030   3.341   7.890 -0.1731 -0.1239  0.1351
 1469TIP3    H126042   3.014   3.250   7.915 -2.5689  0.2052 -0.0188
 1469TIP3    H226043   3.048   3.337   7.796  1.6861 -0.6001  0.4740
 1470TIP3   OH226044   5.503   5.058   6.720 -0.5287 -0.0055 -0.3391
 1470TIP3    H126045   5.553   5.091   6.794  0.7785 -1.5684 -0.4650
 1470TIP3    H226046   5.441   4.995   6.759  0.2545 -0.9337 -0.5471
 1471TIP3   OH226047   5.190   3.615   8.561  0.2116  0.4718 -0.4594
 1471TIP3    H126048   5.096   3.602   8.547 -0.3489  0.7667  2.3914
 1471TIP3    H226049   5.222   3.529   8.590  0.0360  1.1080  1.8471
 1472TIP3   OH226050   5.346   0.755   2.469  0.0294 -1.0371 -0.2310
 1472TIP3    H126051   5.343   0.843   2.506  0.1852 -0.5594 -1.3044
 1472TIP3    H226052   5.304   0.699   2.535  0.7354 -0.3109  0.8553
 1473TIP3   OH226053   4.905   5.017   2.083 -0.1486  0.6946  0.3874
 1473TIP3    H126054   4.872   4.951   2.022 -0.7387 -0.0683  1.5172
 1473TIP3    H226055   4.835   5.082   2.087  0.7246  1.8367 -1.2899
 1474TIP3   OH226056   4.958   1.673   0.448  0.0001  0.1940  0.3024
 1474TIP3    H126057   5.016   1.749   0.445 -0.7416  0.7543 -2.4945
 1474TIP3    H226058   4.872   1.710   0.469 -0.0955 -0.0916  0.4203
 1475TIP3   OH226059   1.158   4.389   1.089 -0.6396  0.2497  0.4616
 1475TIP3    H126060   1.229   4.361   1.146  0.2841  2.0552  0.2649
 1475TIP3    H226061   1.082   4.397   1.147 -0.1616  0.3565  1.0821
 1476TIP3   OH226062   0.589   4.459   0.033 -0.3132  0.4358  0.6107
 1476TIP3    H126063   0.581   4.512   0.111 -0.8471 -0.1515  0.9668
 1476TIP3    H226064   0.527   4.497  -0.029 -0.4497  0.4301  0.7446
 1477TIP3   OH226065   2.731   1.081   8.154 -0.5188 -0.1667 -0.1218
 1477TIP3    H126066   2.676   1.160   8.164 -0.8854 -0.5943  1.6833
 1477TIP3    H226067   2.819   1.115   8.142 -0.8103  0.5244 -0.3866
 1478TIP3   OH226068   6.291   3.052   8.056  0.2236  0.2976  0.4188
 1478TIP3    H126069   6.342   2.980   8.019 -0.7452 -0.1001 -0.1703
 1478TIP3    H226070   6.348   3.128   8.047  1.4109 -0.4481  1.3937
 1479TIP3   OH226071   0.545   4.981   1.455  0.6897  0.0872  0.4426
 1479TIP3    H126072   0.490   5.025   1.391 -0.0182 -0.9394  0.3156
 1479TIP3    H226073   0.631   4.977   1.414  0.2447 -0.5391 -0.4520
 1480TIP3   OH226074   4.343   1.852   1.724 -0.3033 -0.3327  0.2647
 1480TIP3    H126075   4.409   1.842   1.792 -0.7372 -2.4775  0.4234
 1480TIP3    H226076   4.260   1.830   1.767 -0.8571  0.2405 -0.4681
 1481TIP3   OH226077   6.311   6.692   7.365 -0.2325  0.3848 -0.2244
 1481TIP3    H126078   6.397   6.721   7.335  0.0844 -0.4924 -0.2144
 1481TIP3    H226079   6.330   6.613   7.416 -1.0644  0.0522 -0.4204
 1482TIP3   OH226080   1.883   1.347   0.320 -0.2639 -0.2004  0.2657
 1482TIP3    H126081   1.883   1.359   0.225 -1.6828 -1.5154  0.0547
 1482TIP3    H226082   1.864   1.434   0.356 -0.4430  0.1651 -0.6953
 1483TIP3   OH226083   5.967   4.138   2.383 -0.6312 -0.1353 -0.2838
 1483TIP3    H126084   6.032   4.146   2.313 -1.5327  2.0860 -0.9386
 1483TIP3    H226085   5.932   4.049   2.374  2.4377 -1.5367  0.2733
 1484TIP3   OH226086   1.495   0.183   1.570  0.2097  0.5566  0.3396
 1484TIP3    H126087   1.433   0.247   1.535  1.1768  1.5912  0.4465
 1484TIP3    H226088   1.554   0.236   1.624  1.2768 -0.3797  0.0962
 1485TIP3   OH226089   6.553   3.404   0.036 -0.4416  0.1083  0.0419
 1485TIP3    H126090   6.611   3.473   0.067  1.7048 -0.8408 -1.6072
 1485TIP3    H226091   6.542   3.345   0.111 -1.3701  1.5737  1.1127
 1486TIP3   OH226092   2.657   5.126   9.175 -0.3655  0.3473  0.7432
 1486TIP3    H126093   2.752   5.127   9.169 -0.2880 -1.7439  1.1527
 1486TIP3    H226094   2.636   5.194   9.239  0.8527  0.6703  0.8150
 1487TIP3   OH226095   3.099   0.491   7.669 -0.2931  0.9043  0.3678
 1487TIP3    H126096   3.007   0.468   7.656 -0.0081 -0.2496  0.2756
 1487TIP3    H226097   3.144   0.457   7.592  0.6769 -1.4751  1.8737
 1488TIP3   OH226098   0.572   0.209   1.966 -0.1942  0.5529 -0.0188
 1488TIP3    H126099   0.665   0.231   1.974 -0.2983  1.4947 -1.0161
 1488TIP3    H226100   0.535   0.231   2.051  0.6992 -1.0230  0.8105
 1489TIP3   OH226101   5.098   3.134   0.185 -0.4123  0.1741  0.1852
 1489TIP3    H126102   5.111   3.155   0.278  0.6976 -0.1907  0.1251
 1489TIP3    H226103   5.107   3.039   0.181  0.8572  0.3069 -0.4849
 1490TIP3   OH226104   6.298   3.335   0.423 -0.1071 -0.8358  0.0812
 1490TIP3    H126105   6.253   3.413   0.454  0.1127 -1.0997  1.0853
 1490TIP3    H226106   6.257   3.316   0.339 -2.0775 -1.2279  1.0785
 1491TIP3   OH226107   2.120   0.445   2.884  0.0625  0.6658 -0.0602
 1491TIP3    H126108   2.141   0.358   2.918  0.0522  0.7198  0.0851
 1491TIP3    H226109   2.041   0.471   2.931  0.1946  0.8488  0.0623
 1492TIP3   OH226110   1.870   4.876   1.380  0.3277 -0.2433 -0.1358
 1492TIP3    H126111   1.929   4.834   1.318  0.0287 -1.1790  0.2033
 1492TIP3    H226112   1.814   4.931   1.325  1.8299  1.0871 -0.4057
 1493TIP3   OH226113   5.043   3.141   8.205 -0.3603 -0.3266  0.3099
 1493TIP3    H126114   5.091   3.159   8.286 -0.1581 -1.3159  0.4214
 1493TIP3    H226115   5.031   3.046   8.205  0.8193 -0.5093 -1.4678
 1494TIP3   OH226116   2.640   6.106   7.898 -0.3199 -0.1474 -0.2447
 1494TIP3    H126117   2.719   6.103   7.843 -0.4685 -2.7456 -0.4126
 1494TIP3    H226118   2.649   6.031   7.957 -1.6978  0.7440  1.1558
 1495TIP3   OH226119   6.558   3.027   2.210 -0.1765 -0.0805  0.1298
 1495TIP3    H126120   6.463   3.017   2.205 -0.2417  0.7563 -0.7212
 1495TIP3    H226121   6.571   3.112   2.253  0.2265 -1.0094  1.9012
 1496TIP3   OH226122   4.314   3.004   9.142  0.2778 -0.0811 -0.2530
 1496TIP3    H126123   4.405   3.013   9.114  0.2272  0.2967 -0.2957
 1496TIP3    H226124   4.272   3.085   9.115 -0.4022 -0.8063 -1.4794
 1497TIP3   OH226125   2.832   0.783   1.780 -0.2977  0.2702  0.2664
 1497TIP3    H126126   2.881   0.714   1.735  1.2129  0.4793  1.5019
 1497TIP3    H226127   2.805   0.743   1.862 -0.4805  0.7683  0.4508
 1498TIP3   OH226128   1.811   5.038   2.164 -0.6077 -0.6465  0.0030
 1498TIP3    H126129   1.835   5.017   2.074 -2.0331 -0.0362 -0.5518
 1498TIP3    H226130   1.743   5.105   2.156 -0.4540 -0.2591  1.5526
 1499TIP3   OH226131   6.379   2.340   0.963  0.1597  0.4605  0.6098
 1499TIP3    H126132   6.365   2.288   1.043  0.4880 -0.4886  0.0708
 1499TIP3    H226133   6.291   2.354   0.928  0.1333 -0.7854  0.1290
 1500TIP3   OH226134   5.141   0.335   2.593 -0.8113  0.4306  0.3369
 1500TIP3    H126135   5.048   0.347   2.611 -0.4721 -0.1179  2.7705
 1500TIP3    H226136   5.178   0.423   2.598 -1.1424  0.6295 -0.4830
 1501TIP3   OH226137   0.321   1.237   8.180 -0.2466 -0.0849  0.2192
 1501TIP3    H126138   0.294   1.299   8.112  2.4472 -0.8398 -1.7057
 1501TIP3    H226139   0.341   1.156   8.133  1.9360 -0.5688  1.8074
 1502TIP3   OH226140   3.536   1.360   1.498 -0.0198  1.1014  0.0169
 1502TIP3    H126141   3.552   1.300   1.571  0.2570  3.1223  1.7014
 1502TIP3    H226142   3.445   1.389   1.510  0.2449  1.9655 -0.0282
 1503TIP3   OH226143   1.951   5.366   8.387 -0.4719  1.0764  0.5222
 1503TIP3    H126144   2.039   5.327   8.388  0.3014  2.4796 -2.3547
 1503TIP3    H226145   1.893   5.294   8.362  0.4457  0.9357 -1.3671
 1504TIP3   OH226146   0.522   2.118   7.606  0.1675 -0.0586 -0.1145
 1504TIP3    H126147   0.588   2.117   7.536  2.0121  1.4559  1.4887
 1504TIP3    H226148   0.509   2.026   7.628 -0.6285 -0.6044 -2.5090
 1505TIP3   OH226149   3.659   2.387   8.395  0.2173 -0.0734  0.1554
 1505TIP3    H126150   3.753   2.387   8.415  0.2951  0.4346 -0.2049
 1505TIP3    H226151   3.648   2.455   8.329 -0.4492  0.0428  0.3781
 1506TIP3   OH226152   6.201   6.304   8.786 -0.8002  0.1706 -0.0134
 1506TIP3    H126153   6.152   6.385   8.770  0.4266  1.1279  0.7843
 1506TIP3    H226154   6.293   6.332   8.786 -0.3788 -1.1304  0.8162
 1507TIP3   OH226155   6.212   1.276   8.879  0.3561 -0.0933 -0.0691
 1507TIP3    H126156   6.248   1.188   8.861  0.1006 -0.4564  1.1031
 1507TIP3    H226157   6.153   1.293   8.806 -0.4130 -1.3649  0.2223
 1508TIP3   OH226158   1.089   2.797   2.388 -0.0353  0.5639  0.6476
 1508TIP3    H126159   1.177   2.819   2.358 -0.0260  1.0197  0.9875
 1508TIP3    H226160   1.083   2.839   2.474 -0.7973  1.0382  0.3693
 1509TIP3   OH226161   5.743   2.404   7.686  0.8027  0.1665 -0.0399
 1509TIP3    H126162   5.685   2.399   7.610 -2.2325 -1.0162  2.1507
 1509TIP3    H226163   5.781   2.317   7.693 -2.2191 -1.1570  1.9957
 1510TIP3   OH226164   1.997   3.777   1.100  0.2960  0.0071  0.8270
 1510TIP3    H126165   1.944   3.848   1.138 -0.6339 -0.0079 -0.3967
 1510TIP3    H226166   2.048   3.819   1.031 -1.5218 -0.7470 -1.0818
 1511TIP3   OH226167   3.152   6.614   9.027  0.2644 -0.3440  0.3870
 1511TIP3    H126168   3.158   6.710   9.031 -0.8762 -0.1257 -1.7716
 1511TIP3    H226169   3.200   6.590   8.948  0.1127 -1.5097  0.6348
 1512TIP3   OH226170   3.300   5.840   8.326 -0.0155 -0.0957  0.1294
 1512TIP3    H126171   3.230   5.811   8.384  0.4227 -0.9398  0.2445
 1512TIP3    H226172   3.339   5.760   8.292  0.7231  0.3641 -0.1493
 1513TIP3   OH226173   5.436   2.290   7.797  0.0407 -0.0088 -0.6031
 1513TIP3    H126174   5.441   2.200   7.830 -1.6825  0.3806  0.8663
 1513TIP3    H226175   5.527   2.320   7.797  0.5258 -1.3978 -0.0385
 1514TIP3   OH226176   3.111   3.444   8.665 -0.5762  0.2530  0.3028
 1514TIP3    H126177   3.054   3.367   8.656 -1.0902  0.7903 -1.7221
 1514TIP3    H226178   3.189   3.412   8.710 -1.4936 -1.0451  1.0388
 1515TIP3   OH226179   6.404   5.657   9.178 -0.2042  0.1155  0.3919
 1515TIP3    H126180   6.453   5.629   9.255  0.7158 -1.2351 -0.6257
 1515TIP3    H226181   6.333   5.710   9.213  0.8281  0.4813  2.0710
 1516TIP3   OH226182   0.791   5.789   8.889 -0.6567 -0.3436  0.0466
 1516TIP3    H126183   0.703   5.800   8.925 -0.1157  1.2079  1.0160
 1516TIP3    H226184   0.807   5.695   8.894 -2.4905 -0.7426 -0.7786
 1517TIP3   OH226185   1.102   1.497   0.383  0.2947  0.5132 -0.3672
 1517TIP3    H126186   1.037   1.510   0.452  0.6009 -1.0727  0.2529
 1517TIP3    H226187   1.155   1.577   0.386  0.4530  0.3980  1.4241
 1518TIP3   OH226188   2.280   2.875   2.200 -0.0648  0.1860 -0.0955
 1518TIP3    H126189   2.292   2.791   2.157 -1.4294 -0.7597  1.2662
 1518TIP3    H226190   2.344   2.875   2.271 -0.8187 -0.2023  0.5918
 1519TIP3   OH226191   1.169   6.250   8.989  0.9552  1.0068 -0.0647
 1519TIP3    H126192   1.103   6.294   9.043  0.5053 -0.4270  0.6164
 1519TIP3    H226193   1.129   6.243   8.902  0.5671  0.9441  0.1164
 1520TIP3   OH226194   5.413   3.258   6.872  0.5385 -0.1485 -0.0857
 1520TIP3    H126195   5.492   3.240   6.821  0.0146 -1.2199 -0.5326
 1520TIP3    H226196   5.371   3.173   6.884 -1.3516  0.5609 -1.1777
 1521TIP3   OH226197   2.742   0.996   2.270 -0.1726  0.2641  0.0811
 1521TIP3    H126198   2.654   1.031   2.262 -0.2957 -0.2771 -1.0429
 1521TIP3    H226199   2.732   0.901   2.262  0.2375 -0.0474  2.4104
 1522TIP3   OH226200   0.250   2.470   0.175  0.6010 -0.0142 -0.0786
 1522TIP3    H126201   0.186   2.540   0.166 -0.9138 -1.2787  0.3974
 1522TIP3    H226202   0.198   2.390   0.181  2.2166 -1.0795  0.6274
 1523TIP3   OH226203   4.371   2.122   1.611 -0.4797  0.4785  0.1320
 1523TIP3    H126204   4.349   2.035   1.645 -0.8712  0.0338 -1.2014
 1523TIP3    H226205   4.287   2.166   1.601 -0.3630  0.6328 -0.1809
 1524TIP3   OH226206   2.301   1.482   1.766 -0.2851  0.0128  0.1436
 1524TIP3    H126207   2.210   1.510   1.781 -0.3289 -0.1944  0.2779
 1524TIP3    H226208   2.318   1.418   1.836  0.5361  1.3032  1.1746
 1525TIP3   OH226209   0.250   0.548   8.278  0.4322 -0.8122 -0.1012
 1525TIP3    H126210   0.177   0.486   8.273 -0.1638 -0.1744  0.4488
 1525TIP3    H226211   0.325   0.499   8.246 -0.3199 -1.3588 -1.0935
 1526TIP3   OH226212   3.405   5.217   1.113  0.1832  0.0373  0.0465
 1526TIP3    H126213   3.342   5.284   1.089 -0.5473 -1.0285 -1.1677
 1526TIP3    H226214   3.440   5.185   1.029  0.1637 -1.3889  0.5516
 1527TIP3   OH226215   3.997   4.524   3.069  0.1587 -0.4443  0.4397
 1527TIP3    H126216   3.928   4.589   3.079  0.0072 -0.4367 -0.5625
 1527TIP3    H226217   3.954   4.449   3.028  0.7305 -0.4625 -0.1412
 1528TIP3   OH226218   3.622   1.068   1.163  0.0841 -0.3976  0.1314
 1528TIP3    H126219   3.687   1.001   1.142  2.4458  1.9206 -0.5029
 1528TIP3    H226220   3.620   1.124   1.085 -1.3533  0.6237  0.8583
 1529TIP3   OH226221   1.081   1.087   1.795 -0.0526 -0.6619 -0.2123
 1529TIP3    H126222   1.146   1.092   1.725 -0.5805  0.6395 -0.6414
 1529TIP3    H226223   1.118   1.142   1.865 -0.1676 -0.8293 -0.0215
 1530TIP3   OH226224   0.076   6.616   2.748 -0.5297 -0.1336  0.2976
 1530TIP3    H126225   0.073   6.685   2.682  0.8012 -0.2795  0.0679
 1530TIP3    H226226  -0.014   6.582   2.751 -0.6524 -0.0419 -1.3499
 1531TIP3   OH226227   5.679   2.330   0.091 -0.2838 -0.4123  0.2219
 1531TIP3    H126228   5.601   2.299   0.045  0.4559  0.5058 -1.7781
 1531TIP3    H226229   5.741   2.350   0.021  1.3936 -0.1899  1.7244
 1532TIP3   OH226230   4.196   0.241   8.302 -1.3427  0.8316  0.2678
 1532TIP3    H126231   4.111   0.225   8.260 -0.3737 -0.7160 -1.2267
 1532TIP3    H226232   4.204   0.171   8.367 -0.5352 -0.0593 -0.7504
 1533TIP3   OH226233   3.558   0.106   7.741 -0.2539 -0.0875  0.1636
 1533TIP3    H126234   3.586   0.040   7.678  0.1181 -0.2332  0.4877
 1533TIP3    H226235   3.561   0.188   7.691 -3.4822 -0.6104 -1.1568
 1534TIP3   OH226236   1.994   3.638   6.976  0.1810 -0.0642 -0.2498
 1534TIP3    H126237   2.000   3.548   6.943  2.0562 -0.0161 -0.1493
 1534TIP3    H226238   2.018   3.631   7.068  0.9121  0.6119 -0.3820
 1535TIP3   OH226239   1.267   1.371   9.125  0.1844  0.6532 -0.4442
 1535TIP3    H126240   1.305   1.301   9.179 -1.3395 -0.7915 -1.1564
 1535TIP3    H226241   1.199   1.409   9.180 -0.1903  0.3478 -0.6848
 1536TIP3   OH226242   2.726   4.953   3.046  0.1638  0.0257 -0.2820
 1536TIP3    H126243   2.649   4.958   2.989  0.0409 -0.9639 -0.2283
 1536TIP3    H226244   2.731   4.860   3.071  0.8394  0.2475  0.4551
 1537TIP3   OH226245   2.878   2.952   1.567 -0.2349 -0.3919 -0.1276
 1537TIP3    H126246   2.856   2.865   1.600  1.2929 -0.6823  0.2168
 1537TIP3    H226247   2.838   2.956   1.480 -2.2040 -0.5708  0.7082
 1538TIP3   OH226248   1.327   3.110   0.482 -0.2007 -0.1227  0.1096
 1538TIP3    H126249   1.250   3.117   0.538  1.2000 -0.2018  2.1703
 1538TIP3    H226250   1.332   3.195   0.437 -0.6646  0.4605  1.1144
 1539TIP3   OH226251   2.634   1.112   0.125  0.4208 -0.3589  0.4118
 1539TIP3    H126252   2.631   1.173   0.051 -1.2195  1.0868  1.5905
 1539TIP3    H226253   2.542   1.096   0.146  0.7381  1.1147  3.5504
 1540TIP3   OH226254   1.550   6.168   8.103 -0.0450 -0.0164  0.0339
 1540TIP3    H126255   1.536   6.178   8.197 -1.0500  0.9377 -0.1928
 1540TIP3    H226256   1.531   6.076   8.086 -0.6463 -0.0192  0.6487
 1541TIP3   OH226257   0.138   5.536   8.533  0.0474 -0.1662  0.3931
 1541TIP3    H126258   0.124   5.482   8.456 -0.4861 -1.8448  1.6208
 1541TIP3    H226259   0.233   5.538   8.544  0.1468  0.3499 -0.4572
 1542TIP3   OH226260   5.160   4.143   1.026  0.2114  0.0843  0.1192
 1542TIP3    H126261   5.118   4.222   1.060 -0.0492  0.0483 -0.1192
 1542TIP3    H226262   5.230   4.175   0.969 -0.5253  0.1563 -0.7743
 1543TIP3   OH226263   1.751   3.151   0.164  0.1675 -0.1136  0.1531
 1543TIP3    H126264   1.764   3.067   0.121 -0.8904  0.1122 -0.6708
 1543TIP3    H226265   1.761   3.133   0.257  1.4572 -0.8383 -0.1101
 1544TIP3   OH226266   4.880   4.472   7.800  0.4046 -0.1730 -0.1663
 1544TIP3    H126267   4.944   4.442   7.865  0.8179  0.2239 -0.3811
 1544TIP3    H226268   4.799   4.426   7.823  0.2376  0.7936  1.3397
 1545TIP3   OH226269   6.667   1.510   1.174 -0.2433 -0.5379 -0.6519
 1545TIP3    H126270   6.610   1.536   1.246 -2.0645 -0.0450 -2.1701
 1545TIP3    H226271   6.733   1.579   1.169 -0.8862  0.1178 -0.2567
 1546TIP3   OH226272   4.238   5.895   7.500  0.3438  0.3120  0.2958
 1546TIP3    H126273   4.315   5.891   7.558  1.0939  1.8620 -0.5293
 1546TIP3    H226274   4.243   5.814   7.449 -0.1349 -0.9179  2.0828
 1547TIP3   OH226275   6.185   5.945   8.974  0.3422 -0.1255 -0.1256
 1547TIP3    H126276   6.221   6.023   9.016  1.4619 -0.7358  0.0862
 1547TIP3    H226277   6.232   5.939   8.891  0.6037 -0.8296  0.0675
 1548TIP3   OH226278   0.857   3.425   1.092 -0.1741  0.3713 -0.2657
 1548TIP3    H126279   0.898   3.342   1.067  1.1089  0.5521  1.1057
 1548TIP3    H226280   0.921   3.492   1.067 -0.1386  0.7508  0.7763
 1549TIP3   OH226281   5.349   4.576   0.122  0.1928  0.1060 -0.0330
 1549TIP3    H126282   5.442   4.598   0.116  0.3405 -0.3097  0.5652
 1549TIP3    H226283   5.348   4.487   0.159 -0.4131 -0.3885 -1.2061
 1550TIP3   OH226284   2.546   2.355   8.170 -0.1623 -0.0052  0.2407
 1550TIP3    H126285   2.573   2.395   8.088  1.5941 -1.5071  0.0437
 1550TIP3    H226286   2.613   2.382   8.233  0.8534 -2.1972  0.1950
 1551TIP3   OH226287   2.200   1.058   0.613 -0.5133 -0.0976  0.0043
 1551TIP3    H126288   2.142   1.111   0.558 -0.9769 -0.1341  0.4508
 1551TIP3    H226289   2.280   1.050   0.562 -0.6796  0.4710 -0.3618
 1552TIP3   OH226290   4.691   1.203   1.343  0.1984 -0.5495  0.0805
 1552TIP3    H126291   4.687   1.183   1.249  0.0442 -0.4346  0.0623
 1552TIP3    H226292   4.604   1.181   1.376  0.1621 -0.3182  0.1419
 1553TIP3   OH226293   4.745   2.042   0.562 -0.0806  0.0252 -0.0001
 1553TIP3    H126294   4.735   2.028   0.656  0.0746 -0.9736 -0.1279
 1553TIP3    H226295   4.656   2.052   0.530 -0.1089  1.0550  0.3379
 1554TIP3   OH226296   3.738   4.680   2.030 -0.9277 -0.2087  0.4166
 1554TIP3    H126297   3.749   4.659   1.938 -2.2182 -0.9495  0.4167
 1554TIP3    H226298   3.823   4.661   2.069 -0.2647  0.4267 -0.6555
 1555TIP3   OH226299   6.637   2.818   1.976 -0.2050  0.0876  0.4128
 1555TIP3    H126300   6.672   2.891   2.026  1.1403  0.4923 -1.0683
 1555TIP3    H226301   6.587   2.859   1.905 -3.4492 -0.4662  2.1823
 1556TIP3   OH226302   2.807   4.476   1.750  0.3400  0.1001  0.4094
 1556TIP3    H126303   2.820   4.407   1.814  3.7167 -0.7268 -0.9501
 1556TIP3    H226304   2.752   4.437   1.682  1.5486 -1.0463  0.0512
 1557TIP3   OH226305   2.449   1.627   2.217  0.8939  0.5618  0.2656
 1557TIP3    H126306   2.486   1.706   2.179  2.1860  0.1582  0.6128
 1557TIP3    H226307   2.462   1.637   2.312  0.6199  0.1648  0.3478
 1558TIP3   OH226308   0.684   2.029   1.338  0.0387 -0.1738 -0.8962
 1558TIP3    H126309   0.635   2.009   1.258  1.1894 -0.2795 -1.5983
 1558TIP3    H226310   0.765   2.069   1.307  0.0836  0.7077  0.2676
 1559TIP3   OH226311   4.495   0.570   8.045  0.4561  1.1175  0.3852
 1559TIP3    H126312   4.418   0.566   7.988  1.0521  1.5776 -0.4913
 1559TIP3    H226313   4.464   0.609   8.126 -0.2632  1.1670  0.0931
 1560TIP3   OH226314   1.914   0.077   0.931 -0.1839  0.0999  0.1709
 1560TIP3    H126315   1.886   0.121   1.012 -0.6203  2.0050 -0.9587
 1560TIP3    H226316   2.003   0.109   0.917 -0.7639  1.2562 -1.0504
 1561TIP3   OH226317   1.150   5.902   8.664 -0.1439  0.6215  0.2929
 1561TIP3    H126318   1.138   5.949   8.582  2.9625  0.8744 -0.1555
 1561TIP3    H226319   1.245   5.894   8.673 -0.4214 -3.2450  1.6786
 1562TIP3   OH226320   1.862   0.455   2.680  0.3229  0.0659 -0.4680
 1562TIP3    H126321   1.942   0.488   2.639 -0.9562  2.8000 -1.0326
 1562TIP3    H226322   1.835   0.526   2.740 -2.7167  0.2310 -1.8290
 1563TIP3   OH226323   0.969   6.584   7.970 -0.0025 -0.6374  0.3367
 1563TIP3    H126324   1.010   6.497   7.972  0.7163 -0.3136  0.2021
 1563TIP3    H226325   1.042   6.645   7.986 -0.4015 -0.0319 -0.1041
 1564TIP3   OH226326   3.641   0.866   3.159 -0.5419 -0.2329  0.0991
 1564TIP3    H126327   3.678   0.922   3.091  0.5475 -1.1322 -0.0807
 1564TIP3    H226328   3.715   0.814   3.191 -1.1897 -0.3791  1.4359
 1565TIP3   OH226329   5.406   2.026   8.984 -0.1692  0.3047  0.3347
 1565TIP3    H126330   5.377   1.951   9.037  1.0399  0.6763  1.5916
 1565TIP3    H226331   5.347   2.027   8.909 -1.0409 -1.1176  0.9621
 1566TIP3   OH226332   5.147   2.048   0.763 -0.0750  0.1658  0.3269
 1566TIP3    H126333   5.179   2.087   0.844  0.4559 -0.9826  0.6969
 1566TIP3    H226334   5.053   2.042   0.774  0.0689 -0.6535  1.1688
 1567TIP3   OH226335   6.463   5.561   8.863 -0.3120  0.2689  0.6959
 1567TIP3    H126336   6.484   5.561   8.770 -2.4030  1.1010  0.1711
 1567TIP3    H226337   6.546   5.582   8.906  0.3726  1.5035 -1.0788
 1568TIP3   OH226338   3.448   0.066   8.879 -0.3749  0.0998  0.3163
 1568TIP3    H126339   3.386   0.110   8.937 -0.3491  0.5856 -0.0264
 1568TIP3    H226340   3.452   0.120   8.801  0.7290  0.2629  0.4590
 1569TIP3   OH226341   6.344   1.986   0.786 -0.1031 -0.4417  0.2398
 1569TIP3    H126342   6.323   2.073   0.753  3.8042  0.2384 -0.9291
 1569TIP3    H226343   6.357   1.998   0.880  0.9377  0.3966  0.0019
 1570TIP3   OH226344   3.435   1.297   0.278 -0.1278 -0.2740  0.0958
 1570TIP3    H126345   3.385   1.364   0.232  1.2895 -0.5831 -2.0083
 1570TIP3    H226346   3.396   1.214   0.251  0.8335 -0.4664 -0.7639
 1571TIP3   OH226347   0.311   0.376   0.210 -0.0204  0.1358 -0.0161
 1571TIP3    H126348   0.374   0.306   0.226  0.6224  0.4311 -1.1240
 1571TIP3    H226349   0.295   0.372   0.115  0.3271  1.7202 -0.1619
 1572TIP3   OH226350   6.490   6.303   8.849 -0.3491  0.0953 -0.3007
 1572TIP3    H126351   6.569   6.253   8.832 -0.9194 -0.3761 -1.8066
 1572TIP3    H226352   6.463   6.278   8.937  0.2706 -1.0108 -0.4093
 1573TIP3   OH226353   2.582   1.630   0.620 -0.3374  0.3074  0.1174
 1573TIP3    H126354   2.543   1.569   0.683  1.2935 -0.3294  0.5496
 1573TIP3    H226355   2.606   1.706   0.673  0.1385  0.1803  0.0853
 1574TIP3   OH226356   4.471   5.543   0.593  0.6146 -0.0915 -0.3104
 1574TIP3    H126357   4.436   5.625   0.558  0.9722  0.1848 -0.0243
 1574TIP3    H226358   4.566   5.555   0.591  0.6415  0.0935  1.1291
 1575TIP3   OH226359   1.825   3.162   7.932 -0.1406  0.5053 -0.3221
 1575TIP3    H126360   1.894   3.122   7.985 -1.4800  0.3004  1.3400
 1575TIP3    H226361   1.803   3.094   7.868  0.6808  0.2973 -0.4053
 1576TIP3   OH226362   1.636   4.890   8.459 -0.1379  0.5556  0.1564
 1576TIP3    H126363   1.638   4.829   8.532 -0.2888 -0.4135 -0.6249
 1576TIP3    H226364   1.602   4.839   8.385  0.5170  1.3512 -0.7292
 1577TIP3   OH226365   1.555   4.044   7.920 -0.5631  0.4300  0.3462
 1577TIP3    H126366   1.475   4.084   7.886 -0.2467  1.2235  0.5055
 1577TIP3    H226367   1.524   3.978   7.983 -1.1258 -0.4341 -0.8002
 1578TIP3   OH226368   1.801   6.245   8.261  0.0094  0.6640  0.2555
 1578TIP3    H126369   1.854   6.319   8.231  1.3728 -0.2739  0.2578
 1578TIP3    H226370   1.711   6.275   8.250  0.5098  1.8840 -0.8759
 1579TIP3   OH226371   3.477   3.743   1.965 -0.3001 -0.1799 -0.5754
 1579TIP3    H126372   3.483   3.705   1.878  0.9126 -1.4353  0.0212
 1579TIP3    H226373   3.421   3.683   2.014  0.2753 -0.3129 -0.0748
 1580TIP3   OH226374   3.086   6.553   0.220 -0.0145 -0.4655 -0.1092
 1580TIP3    H126375   3.070   6.626   0.160  2.1433 -0.1760 -0.4179
 1580TIP3    H226376   3.093   6.594   0.306 -1.3301 -0.6691  0.1258
 1581TIP3   OH226377   0.410   4.963   7.832 -0.8376  0.2852 -0.0403
 1581TIP3    H126378   0.443   4.975   7.743 -1.9948  1.3628 -0.3579
 1581TIP3    H226379   0.392   4.869   7.837  0.7982 -0.0805 -0.3456
 1582TIP3   OH226380   3.755   5.222   0.490  0.6369 -0.4249  0.0056
 1582TIP3    H126381   3.661   5.204   0.485  0.4424  0.5772 -0.1940
 1582TIP3    H226382   3.769   5.249   0.581  0.8233 -1.0069  0.1556
 1583TIP3   OH226383   5.434   5.540   7.825  0.1895 -0.3360 -0.0620
 1583TIP3    H126384   5.457   5.450   7.849 -2.8641 -0.9955  0.8414
 1583TIP3    H226385   5.410   5.581   7.908 -1.1515  0.4121 -0.7889
 1584TIP3   OH226386   5.289   4.592   7.179  0.0087  0.8753  0.1227
 1584TIP3    H126387   5.246   4.537   7.114 -0.6365 -0.1809  1.4066
 1584TIP3    H226388   5.382   4.586   7.156  0.0824 -1.5544  0.7539
 1585TIP3   OH226389   1.708   3.155   0.569  0.4070 -0.3431 -0.0551
 1585TIP3    H126390   1.788   3.207   0.575  0.6929 -0.8148  0.2542
 1585TIP3    H226391   1.678   3.147   0.660 -0.2342  0.1993 -0.2057
 1586TIP3   OH226392   6.319   1.766   2.711 -0.3628  0.0290  0.2348
 1586TIP3    H126393   6.327   1.861   2.708  0.2816 -0.0242  0.1659
 1586TIP3    H226394   6.346   1.743   2.800  1.3612 -0.2463 -0.3268
 1587TIP3   OH226395   4.016   0.115   8.842 -1.0868 -0.1037 -0.1086
 1587TIP3    H126396   3.929   0.147   8.865 -0.4547  1.7139 -0.0868
 1587TIP3    H226397   4.051   0.182   8.784  0.6474 -0.3288  0.6255
 1588TIP3   OH226398   5.416   6.501   1.050  0.0632 -0.4138 -0.5884
 1588TIP3    H126399   5.469   6.548   1.114 -0.5848 -0.2108 -0.1906
 1588TIP3    H226400   5.401   6.415   1.091  0.7809 -0.7831 -1.0709
 1589TIP3   OH226401   1.432   5.663   8.578  0.4889 -0.3340  0.0201
 1589TIP3    H126402   1.414   5.578   8.620 -2.0832 -0.4480 -1.1107
 1589TIP3    H226403   1.427   5.726   8.649  3.4154 -1.1059  1.0710
 1590TIP3   OH226404   1.686   6.669   3.301 -0.4931  0.4623  0.5424
 1590TIP3    H126405   1.591   6.658   3.292 -0.4814  1.7861 -2.1776
 1590TIP3    H226406   1.698   6.761   3.320  0.2599  0.5214 -0.1575
 1591TIP3   OH226407   2.307   0.653   8.049 -0.1434 -0.2623  0.7522
 1591TIP3    H126408   2.234   0.593   8.036  0.6455 -0.9299 -0.9558
 1591TIP3    H226409   2.382   0.610   8.007  1.3177  0.2782  2.6406
 1592TIP3   OH226410   3.785   1.377   7.790  0.2603  0.5536 -0.6475
 1592TIP3    H126411   3.769   1.439   7.719  0.1132  1.0717 -0.1714
 1592TIP3    H226412   3.854   1.319   7.757  0.9986  1.4911 -0.7817
 1593TIP3   OH226413   1.576   4.322   8.947 -0.5537  0.1115  0.7070
 1593TIP3    H126414   1.564   4.400   8.893  0.3364 -0.5936 -0.5597
 1593TIP3    H226415   1.590   4.356   9.035 -0.4650  1.3669  0.2296
 1594TIP3   OH226416   1.113   4.591   0.083 -0.4576  0.0778 -0.0794
 1594TIP3    H126417   1.020   4.613   0.086 -0.3218  1.5457 -3.0308
 1594TIP3    H226418   1.120   4.520   0.019  0.4138 -0.3999  0.5166
 1595TIP3   OH226419   3.361   1.282   7.599 -0.0442  0.3924  0.1988
 1595TIP3    H126420   3.320   1.302   7.515 -0.9527  0.2123  0.5914
 1595TIP3    H226421   3.421   1.210   7.579 -0.6340  0.0023 -0.1968
 1596TIP3   OH226422   4.519   2.416   0.285  0.3007 -0.6088 -0.1747
 1596TIP3    H126423   4.517   2.508   0.259 -0.4163  0.2145  2.4607
 1596TIP3    H226424   4.429   2.395   0.309  0.1311 -2.5288 -2.1302
 1597TIP3   OH226425   3.067   1.112   1.310 -0.7663 -0.3758 -0.2341
 1597TIP3    H126426   3.002   1.116   1.240 -0.1679 -0.1368 -0.7882
 1597TIP3    H226427   3.151   1.130   1.266 -0.3795 -0.2593  0.5338
 1598TIP3   OH226428   0.813   6.012   1.671  0.6677 -0.2077  0.2271
 1598TIP3    H126429   0.832   5.988   1.761 -0.4484  1.2326  0.8867
 1598TIP3    H226430   0.843   6.102   1.663 -0.5917  0.1827 -0.3737
 1599TIP3   OH226431   3.246   4.409   7.727  0.0445 -0.3724  0.2955
 1599TIP3    H126432   3.337   4.422   7.702  0.4066 -0.3675  1.5392
 1599TIP3    H226433   3.196   4.456   7.660  0.9832  0.1963 -0.0313
 1600TIP3   OH226434   3.083   1.546   0.766 -0.1858 -0.1368  0.0074
 1600TIP3    H126435   3.005   1.526   0.714 -0.3663 -0.4322  0.3844
 1600TIP3    H226436   3.136   1.467   0.761 -1.4218 -1.2281  2.4429
 1601TIP3   OH226437   0.966   5.982   8.042  0.0425 -0.3138  0.3434
 1601TIP3    H126438   0.903   5.949   8.106  2.0302 -2.8995  1.1140
 1601TIP3    H226439   1.050   5.982   8.088  1.4442 -1.7227 -1.9954
 1602TIP3   OH226440   1.979   4.477   1.367 -0.0368  0.5461 -0.1908
 1602TIP3    H126441   2.055   4.464   1.424 -1.0238  0.4022  1.1365
 1602TIP3    H226442   2.016   4.505   1.283  1.5047 -0.0540  0.2562
 1603TIP3   OH226443   0.745   5.232   1.691 -0.3406  0.0861  0.4176
 1603TIP3    H126444   0.695   5.266   1.617  0.9369  0.4761 -0.2897
 1603TIP3    H226445   0.709   5.144   1.705 -0.2965 -0.1710 -0.9593
 1604TIP3   OH226446   3.628   3.824   8.483  0.0805  0.4688  0.2194
 1604TIP3    H126447   3.537   3.800   8.502  0.5310 -0.6330  1.1370
 1604TIP3    H226448   3.623   3.879   8.405 -1.5442  1.8965  1.2463
 1605TIP3   OH226449   3.822   2.650   1.456 -0.1980 -0.2738 -0.4894
 1605TIP3    H126450   3.839   2.743   1.439 -0.9304  0.1090  0.7254
 1605TIP3    H226451   3.727   2.645   1.468  0.0166 -0.8351  1.2729
 1606TIP3   OH226452   2.300   4.766   8.883  0.7288  0.7244 -0.1091
 1606TIP3    H126453   2.280   4.805   8.968 -1.5114 -0.3194 -0.0729
 1606TIP3    H226454   2.219   4.776   8.833  1.4522 -0.1933 -1.5168
 1607TIP3   OH226455   3.238   4.112   1.732 -0.0331 -0.2987  0.1182
 1607TIP3    H126456   3.276   4.042   1.680  0.0990 -0.3813  0.3262
 1607TIP3    H226457   3.144   4.095   1.730  0.0255 -0.6575  0.4229
 1608TIP3   OH226458   3.773   3.977   3.105 -0.6978 -0.5100 -0.4505
 1608TIP3    H126459   3.722   3.898   3.121 -1.0489 -0.1623  0.1814
 1608TIP3    H226460   3.828   3.955   3.030  0.0524 -1.7619  0.4213
 1609TIP3   OH226461   2.629   2.087   8.101 -0.3031 -0.0637  0.4733
 1609TIP3    H126462   2.547   2.131   8.081  0.4957  1.4647  0.4299
 1609TIP3    H226463   2.658   2.051   8.017 -1.3261 -1.3574  0.6510
 1610TIP3   OH226464   6.140   1.158   2.402  0.1834  0.5565  0.0060
 1610TIP3    H126465   6.165   1.066   2.388 -0.9101  0.1343  0.7618
 1610TIP3    H226466   6.133   1.194   2.314  0.3906 -0.1492 -0.3066
 1611TIP3   OH226467   4.192   0.449   1.476 -0.1276  0.2774 -0.3682
 1611TIP3    H126468   4.194   0.409   1.562 -0.9931 -0.3604 -0.6400
 1611TIP3    H226469   4.117   0.509   1.479  0.8785  1.5803 -0.1137
 1612TIP3   OH226470   3.415   2.381   0.728 -0.9271  0.4256 -0.0441
 1612TIP3    H126471   3.346   2.414   0.785  0.8277  1.1619  1.7205
 1612TIP3    H226472   3.446   2.301   0.771 -0.8009 -0.0256 -0.9410
 1613TIP3   OH226473   1.391   3.620   0.488  0.4840 -0.6006 -0.5406
 1613TIP3    H126474   1.347   3.599   0.405 -0.9112 -2.4878  0.5881
 1613TIP3    H226475   1.328   3.677   0.534  1.0274  0.0225 -0.5588
 1614TIP3   OH226476   5.809   5.056   8.428 -0.3934 -0.3662  0.2231
 1614TIP3    H126477   5.815   5.139   8.381 -2.8707  0.0977  0.5737
 1614TIP3    H226478   5.864   5.068   8.505  2.6727 -0.6616 -1.7835
 1615TIP3   OH226479   0.631   2.818   2.151 -0.0971 -0.4076 -0.2025
 1615TIP3    H126480   0.633   2.890   2.214  0.2544 -0.2715 -0.3649
 1615TIP3    H226481   0.584   2.854   2.075 -0.9701 -0.7346  0.1724
 1616TIP3   OH226482   3.773   1.901   7.489 -0.3838 -0.1804 -0.1332
 1616TIP3    H126483   3.804   1.811   7.494  0.7376  0.2221  0.4952
 1616TIP3    H226484   3.703   1.906   7.554  1.7552  0.2148  2.2736
 1617TIP3   OH226485   6.392   5.300   1.754 -0.1049 -0.6851 -0.4012
 1617TIP3    H126486   6.354   5.377   1.712 -0.6202 -0.3925  0.5647
 1617TIP3    H226487   6.328   5.275   1.821  0.2349 -1.7301 -0.4513
 1618TIP3   OH226488   5.708   3.200   1.522  0.2979 -0.0548 -0.4384
 1618TIP3    H126489   5.757   3.225   1.443  1.5457  1.1966  0.6684
 1618TIP3    H226490   5.751   3.119   1.552  0.3141 -0.1174 -0.6299
 1619TIP3   OH226491   2.688   1.695   8.082  0.2762 -0.3428  0.5891
 1619TIP3    H126492   2.637   1.736   8.152  0.3251 -0.5136  0.7244
 1619TIP3    H226493   2.623   1.672   8.016  0.2819  0.2031  0.3889
 1620TIP3   OH226494   5.099   0.931   1.133  0.5912 -0.2495  0.1752
 1620TIP3    H126495   5.050   0.984   1.070  0.5241 -1.5319 -0.8949
 1620TIP3    H226496   5.172   0.986   1.160  0.5930  0.3373 -0.9977
 1621TIP3   OH226497   2.291   5.150   0.873 -0.4810  0.1399  0.3133
 1621TIP3    H126498   2.360   5.125   0.812 -0.3993  1.8683 -0.3495
 1621TIP3    H226499   2.312   5.102   0.954  1.5923  0.7386  0.1806
 1622TIP3   OH226500   5.774   5.703   2.142 -0.3356 -1.0946 -0.7061
 1622TIP3    H126501   5.798   5.611   2.139 -0.1777 -1.0473 -0.8691
 1622TIP3    H226502   5.735   5.714   2.229 -0.7829 -1.4193 -0.8586
 1623TIP3   OH226503   0.132   2.207   2.079 -0.5760  0.1172 -0.0063
 1623TIP3    H126504   0.135   2.231   2.172 -1.3033  1.9351 -0.4216
 1623TIP3    H226505   0.091   2.282   2.036  1.4380  0.1219 -2.0811
 1624TIP3   OH226506   1.774   4.160   1.968  0.0283 -0.0308  0.2258
 1624TIP3    H126507   1.811   4.076   1.941  0.2207  0.4433 -1.0611
 1624TIP3    H226508   1.790   4.164   2.062  0.6983 -1.0894  0.1788
 1625TIP3   OH226509   5.310   5.777   1.612  0.5777  0.4897  0.1124
 1625TIP3    H126510   5.228   5.803   1.572  0.5635 -0.1805 -0.3200
 1625TIP3    H226511   5.285   5.738   1.696  0.3883 -0.2861 -0.2938
 1626TIP3   OH226512   1.708   0.031   0.328  0.0465 -0.1460  0.7111
 1626TIP3    H126513   1.768  -0.041   0.310 -2.6571 -1.9697 -1.7783
 1626TIP3    H226514   1.678   0.015   0.418  1.7747 -0.2793  1.2991
 1627TIP3   OH226515   4.648   0.307   9.119  0.4020 -0.0168 -0.5666
 1627TIP3    H126516   4.631   0.397   9.091  0.7840 -0.5276 -2.6217
 1627TIP3    H226517   4.740   0.291   9.095  0.2010 -1.0957 -0.6720
 1628TIP3   OH226518   1.187   3.211   1.319  0.0940 -0.5379  0.5872
 1628TIP3    H126519   1.203   3.120   1.346 -0.9439 -0.7671  0.4917
 1628TIP3    H226520   1.181   3.207   1.224  1.4196 -0.1232  0.4727
 1629TIP3   OH226521   5.164   3.113   8.471  0.4881 -0.2389  0.2195
 1629TIP3    H126522   5.226   3.060   8.521  0.1178  0.0482  1.0087
 1629TIP3    H226523   5.215   3.190   8.444  0.3322  0.3410  1.4659
 1630TIP3   OH226524   4.146   6.513   1.155 -0.5144 -0.5011 -0.0434
 1630TIP3    H126525   4.156   6.493   1.062  1.9723  0.4941 -0.0505
 1630TIP3    H226526   4.150   6.608   1.160  0.7096 -0.5858  1.1776
 1631TIP3   OH226527   4.209   2.237   3.279  0.5295 -0.2176  0.2086
 1631TIP3    H126528   4.218   2.169   3.211  0.2744 -0.7251  0.6730
 1631TIP3    H226529   4.296   2.242   3.319  0.5617 -0.2316  0.1417
 1632TIP3   OH226530   1.084   5.133   0.197 -0.7667 -0.1053  0.0153
 1632TIP3    H126531   1.131   5.170   0.122 -0.5241 -0.7174 -0.1425
 1632TIP3    H226532   1.140   5.150   0.272 -0.2632 -0.8679 -0.1787
 1633TIP3   OH226533   2.486   2.817   1.879 -0.3906 -0.0516  0.3824
 1633TIP3    H126534   2.510   2.882   1.945 -0.7838 -0.3835  0.8587
 1633TIP3    H226535   2.528   2.737   1.908  0.0294 -0.0395 -0.1650
 1634TIP3   OH226536   1.160   6.624   0.980 -0.7969 -0.1301 -0.1991
 1634TIP3    H126537   1.122   6.539   0.956 -2.2557 -0.0506  1.5874
 1634TIP3    H226538   1.095   6.687   0.949 -0.5888  0.2190  0.0788
 1635TIP3   OH226539   6.523   5.973   1.554  0.0246 -0.2125  0.3690
 1635TIP3    H126540   6.511   6.021   1.472  2.8919  2.3150  1.2760
 1635TIP3    H226541   6.442   5.989   1.603 -1.4272 -1.1738 -1.5911
 1636TIP3   OH226542   5.022   0.778   7.627  0.5995  0.3508 -0.1956
 1636TIP3    H126543   5.031   0.683   7.632 -1.7313  0.0771 -0.1181
 1636TIP3    H226544   4.987   0.795   7.540 -2.1284  0.7481  0.8701
 1637TIP3   OH226545   4.536   0.105   8.313  0.0737  0.3916  0.1548
 1637TIP3    H126546   4.464   0.058   8.355 -1.6331  1.0524 -1.8789
 1637TIP3    H226547   4.542   0.066   8.226  1.6937  0.8694  0.0318
 1638TIP3   OH226548   5.843   2.432   9.075  0.4475 -0.1365  0.6228
 1638TIP3    H126549   5.877   2.348   9.045 -0.8550 -0.5022  0.1288
 1638TIP3    H226550   5.906   2.496   9.040  0.9069 -0.8258  0.1589
 1639TIP3   OH226551   5.378   5.850   2.355 -0.5321  0.8548  0.2761
 1639TIP3    H126552   5.402   5.904   2.430  0.5950  1.2288 -0.3264
 1639TIP3    H226553   5.365   5.762   2.392 -1.6386  1.3619  1.1454
 1640TIP3   OH226554   4.897   2.080   1.725 -0.2047  0.0666 -0.3050
 1640TIP3    H126555   4.901   2.170   1.758 -2.1069  0.7087 -1.6289
 1640TIP3    H226556   4.814   2.046   1.758 -0.3739 -0.5524 -1.3228
 1641TIP3   OH226557   5.635   5.405   0.943  0.4641 -0.6436 -0.2707
 1641TIP3    H126558   5.545   5.438   0.947  0.5601 -0.3973 -0.0309
 1641TIP3    H226559   5.678   5.461   0.879 -0.1791 -2.3648 -2.3080
 1642TIP3   OH226560   0.193   2.002   7.405 -0.6194 -0.1669 -0.1966
 1642TIP3    H126561   0.101   1.999   7.380 -0.8749  0.7163  0.6004
 1642TIP3    H226562   0.239   1.964   7.330 -1.6489 -0.9103 -0.4742
 1643TIP3   OH226563   3.697   1.564   7.620  0.0085  0.1153 -0.2769
 1643TIP3    H126564   3.677   1.643   7.671 -0.7363 -1.2785  1.7238
 1643TIP3    H226565   3.616   1.547   7.570 -0.2895 -0.0527  0.2519
 1644TIP3   OH226566   2.466   1.970   0.731  0.1480  0.1587  0.0624
 1644TIP3    H126567   2.478   2.045   0.674  0.8228 -0.4812 -0.6567
 1644TIP3    H226568   2.414   1.908   0.679  0.7223 -0.4087  0.1569
 1645TIP3   OH226569   1.628   0.385   0.721  0.6909  0.0085  0.7646
 1645TIP3    H126570   1.631   0.291   0.704 -1.5365 -0.1158  0.8318
 1645TIP3    H226571   1.537   0.410   0.706  1.5486  2.5369 -1.1531
 1646TIP3   OH226572   2.490   3.031   7.831  0.6171  0.1039  0.2621
 1646TIP3    H126573   2.518   3.014   7.741  3.0680 -0.0305  0.9684
 1646TIP3    H226574   2.428   2.961   7.851 -0.3597  0.4334 -1.4546
 1647TIP3   OH226575   0.820   0.268   8.856 -0.3833  0.2964  0.0115
 1647TIP3    H126576   0.886   0.214   8.899 -0.3313 -1.3412 -1.9902
 1647TIP3    H226577   0.860   0.293   8.773 -0.9887  2.2443  0.2500
 1648TIP3   OH226578   0.840   0.704   1.022 -0.4735  0.2875 -0.1445
 1648TIP3    H126579   0.757   0.699   0.975 -0.8005  0.5286  0.3949
 1648TIP3    H226580   0.907   0.699   0.954 -0.8992 -1.3964 -0.4663
 1649TIP3   OH226581   5.226   0.062   9.050 -0.1062 -0.0837  0.4798
 1649TIP3    H126582   5.312   0.044   9.012  0.0622 -1.6500  1.4890
 1649TIP3    H226583   5.243   0.080   9.142 -0.8868 -0.9772  0.8188
 1650TIP3   OH226584   2.757   2.879   8.967  0.0197 -0.0211 -0.5451
 1650TIP3    H126585   2.738   2.831   9.048  0.2509  0.4355 -0.2193
 1650TIP3    H226586   2.850   2.864   8.952  0.1263  0.4403 -0.3631
 1651TIP3   OH226587   5.472   4.166   9.096  0.4927  0.9721  0.0824
 1651TIP3    H126588   5.465   4.232   9.027 -0.8497  1.4476  0.6528
 1651TIP3    H226589   5.536   4.202   9.157  0.3315  1.3805  0.0089
 1652TIP3   OH226590   6.465   3.863   0.373  0.3076  0.2091  0.2946
 1652TIP3    H126591   6.524   3.825   0.439  0.6314  0.1114 -0.0496
 1652TIP3    H226592   6.382   3.875   0.420  0.0873 -1.2360  0.3510
 1653TIP3   OH226593   5.137   4.085   1.455 -0.1624 -0.0880  0.2720
 1653TIP3    H126594   5.200   4.079   1.383  2.8139  0.7170  2.6061
 1653TIP3    H226595   5.102   4.174   1.449 -2.2333 -0.9298 -1.7845
 1654TIP3   OH226596   4.375   5.538   8.939  0.2786  0.4944 -0.5412
 1654TIP3    H126597   4.396   5.562   9.030 -0.5134 -1.4693  0.2276
 1654TIP3    H226598   4.280   5.550   8.934  0.2477  0.0709 -0.9384
 1655TIP3   OH226599   6.175   6.459   3.034  0.5725  0.5759  0.0581
 1655TIP3    H126600   6.232   6.384   3.049  1.2800  1.0778 -0.0636
 1655TIP3    H226601   6.106   6.451   3.100 -0.5244 -1.2830 -1.2230
 1656TIP3   OH226602   2.100   6.027   1.654  0.6779  0.3860 -0.3529
 1656TIP3    H126603   2.158   5.998   1.584 -0.3126 -1.2705 -0.5427
 1656TIP3    H226604   2.087   5.950   1.709 -0.4029  1.0230  0.3361
 1657TIP3   OH226605   1.875   6.027   8.101 -0.1086  0.1808 -0.1229
 1657TIP3    H126606   1.832   6.087   8.162 -0.3435 -1.2620  1.2135
 1657TIP3    H226607   1.935   5.977   8.157 -0.9643 -1.7880 -0.8934
 1658TIP3   OH226608   2.780   0.901   7.877  0.7455 -0.4856 -1.1311
 1658TIP3    H126609   2.839   0.974   7.892 -2.1564  1.7559  0.5609
 1658TIP3    H226610   2.728   0.926   7.801 -1.1722 -0.0321  0.2519
 1659TIP3   OH226611   0.695   3.934   1.169  0.4760 -0.1196 -0.1937
 1659TIP3    H126612   0.647   3.854   1.148 -1.2884  0.5340  1.0549
 1659TIP3    H226613   0.691   3.987   1.089 -0.5093 -0.2877 -0.2719
 1660TIP3   OH226614   5.950   1.921   8.866 -0.1675  0.2826  0.4351
 1660TIP3    H126615   5.860   1.916   8.899 -0.2223 -0.8088  0.1631
 1660TIP3    H226616   5.941   1.962   8.780 -0.3285  0.7252  0.6578
 1661TIP3   OH226617   0.330   2.748   0.880  0.1715 -0.2892 -0.4116
 1661TIP3    H126618   0.242   2.713   0.890 -0.5672  1.3293 -0.8407
 1661TIP3    H226619   0.355   2.725   0.790  0.3650 -1.0959 -0.1590
 1662TIP3   OH226620   3.433   5.329   1.858  0.0504  0.0589 -0.0606
 1662TIP3    H126621   3.337   5.320   1.860  0.0634 -0.1636 -0.4047
 1662TIP3    H226622   3.448   5.414   1.819 -0.0189  0.3626  0.5677
 1663TIP3   OH226623   3.723   6.652   8.589 -0.2078 -0.0244 -0.7030
 1663TIP3    H126624   3.723   6.729   8.645 -0.7575  0.1947 -1.0023
 1663TIP3    H226625   3.641   6.656   8.540 -1.3962 -2.0362  0.9614
 1664TIP3   OH226626   6.478   5.569   2.430  0.4795  0.0414 -0.3118
 1664TIP3    H126627   6.441   5.594   2.514  1.1465  0.1692 -0.0560
 1664TIP3    H226628   6.480   5.474   2.432  3.6439  0.0068  1.2457
 1665TIP3   OH226629   2.756   0.494   1.469 -0.5982  0.3112 -0.4243
 1665TIP3    H126630   2.727   0.475   1.380  0.0873 -0.9051 -0.4110
 1665TIP3    H226631   2.682   0.469   1.524 -0.7735  0.4185 -0.6108
 1666TIP3   OH226632   4.072   6.669   8.100  0.2168  0.5893 -0.3224
 1666TIP3    H126633   3.995   6.678   8.156 -1.2913  1.1442 -2.3942
 1666TIP3    H226634   4.130   6.611   8.149 -0.3197  2.2338  2.4931
 1667TIP3   OH226635   4.839   3.682   2.279  0.1241  0.1680  0.0853
 1667TIP3    H126636   4.832   3.715   2.369 -0.6005 -1.9472  0.8616
 1667TIP3    H226637   4.778   3.609   2.276  1.6952 -1.1585 -1.4922
 1668TIP3   OH226638   5.985   5.422   6.983 -0.1108 -0.2954 -0.3575
 1668TIP3    H126639   6.062   5.474   7.005 -0.4778  0.7891 -1.5418
 1668TIP3    H226640   5.917   5.454   7.042  0.5869 -2.1768  1.6556
 1669TIP3   OH226641   4.665   5.357   9.177 -0.3356  0.3958  0.1533
 1669TIP3    H126642   4.692   5.391   9.263 -1.0831  1.3117  0.0456
 1669TIP3    H226643   4.703   5.270   9.173  0.4091  0.6535  1.0746
 1670TIP3   OH226644   2.280   1.020   8.571  0.3217  0.1269 -0.8137
 1670TIP3    H126645   2.199   1.003   8.522 -0.2495  0.4530  0.0000
 1670TIP3    H226646   2.254   1.015   8.663  0.9340  1.5892 -0.5306
 1671TIP3   OH226647   6.621   2.394   1.551  0.1743 -0.2064 -0.2490
 1671TIP3    H126648   6.643   2.436   1.468  0.4894 -0.5091 -0.3233
 1671TIP3    H226649   6.706   2.372   1.590  0.0553  0.7186  0.5708
 1672TIP3   OH226650   6.102   6.503   2.040  0.0488  0.1984 -0.2263
 1672TIP3    H126651   6.127   6.578   2.094  0.6412 -1.2752  1.6605
 1672TIP3    H226652   6.016   6.526   2.005  1.3600  2.8904 -2.0175
 1673TIP3   OH226653   1.509   4.227   2.351 -0.5291 -0.4378  0.2875
 1673TIP3    H126654   1.487   4.206   2.442  1.6280  0.0807  0.9787
 1673TIP3    H226655   1.494   4.321   2.344  0.4783 -0.2496  0.4984
 1674TIP3   OH226656   3.296   2.312   1.242 -0.3862  0.2306 -0.1449
 1674TIP3    H126657   3.341   2.242   1.195 -1.3985 -0.8949  0.5334
 1674TIP3    H226658   3.338   2.314   1.328 -0.9942 -0.1830  0.1624
 1675TIP3   OH226659   3.014   4.193   9.187 -0.0034 -0.1710 -0.0458
 1675TIP3    H126660   2.950   4.155   9.248  0.8442 -1.1124  0.2870
 1675TIP3    H226661   2.977   4.177   9.100 -0.4679 -0.2375  0.1608
 1676TIP3   OH226662   3.158   6.478   8.542 -0.0714  0.3444  0.1239
 1676TIP3    H126663   3.187   6.389   8.565 -0.1577  0.5253  0.9853
 1676TIP3    H226664   3.084   6.465   8.482 -1.2460 -0.2318  1.6221
 1677TIP3   OH226665   0.503   6.409   0.995  0.3177 -0.5936 -0.3173
 1677TIP3    H126666   0.419   6.373   1.024  1.1106 -1.3267  1.1408
 1677TIP3    H226667   0.566   6.340   1.011  1.6825  0.9276  1.3954
 1678TIP3   OH226668   3.757   4.629   9.000 -0.3891 -0.2118 -0.4913
 1678TIP3    H126669   3.833   4.675   9.037  0.1265  0.0130 -1.7902
 1678TIP3    H226670   3.707   4.600   9.077 -0.5552  2.1930  0.4061
 1679TIP3   OH226671   5.809   5.968   2.410  0.3737 -0.1141  0.1849
 1679TIP3    H126672   5.805   6.063   2.423  0.4011 -0.1064  0.1393
 1679TIP3    H226673   5.862   5.936   2.483  1.8609  0.1111 -0.7589
 1680TIP3   OH226674   1.010   4.144   2.315  0.1032  0.4379 -1.0960
 1680TIP3    H126675   1.022   4.151   2.410 -0.5371  0.3484 -1.0008
 1680TIP3    H226676   1.057   4.064   2.291 -0.9737 -0.3720 -0.6079
 1681TIP3   OH226677   3.389   4.295   8.128  0.6611 -0.1365 -0.4200
 1681TIP3    H126678   3.310   4.283   8.182  0.1573 -2.4438 -1.5362
 1681TIP3    H226679   3.439   4.215   8.142  2.8027  1.2362  0.1645
 1682TIP3   OH226680   1.562   3.171   8.604  0.0038  0.4919 -0.1836
 1682TIP3    H126681   1.482   3.195   8.557  0.9698  1.1306 -1.5679
 1682TIP3    H226682   1.611   3.253   8.611 -0.2940  0.5343  2.4319
 1683TIP3   OH226683   2.577   5.801   2.161  0.5282 -0.4685 -0.0495
 1683TIP3    H126684   2.601   5.713   2.190 -0.0137 -0.6980 -0.2690
 1683TIP3    H226685   2.481   5.802   2.167  0.6400  0.8817  2.1162
 1684TIP3   OH226686   1.176   4.563   7.786  0.0961 -0.1656  0.5781
 1684TIP3    H126687   1.139   4.580   7.699 -0.0539 -0.8741  0.4969
 1684TIP3    H226688   1.270   4.553   7.770  0.0345 -0.5581  0.4586
 1685TIP3   OH226689   2.442   6.663   8.301 -0.0365 -0.5693  0.0169
 1685TIP3    H126690   2.362   6.668   8.354 -0.7821 -0.3008 -1.0963
 1685TIP3    H226691   2.512   6.655   8.365 -0.9977 -1.4276  1.0179
 1686TIP3   OH226692   5.564   6.049   8.204  0.1500 -0.1631 -0.4611
 1686TIP3    H126693   5.643   6.102   8.216 -1.3706  1.7417  2.3092
 1686TIP3    H226694   5.579   5.971   8.257  0.4972 -0.2213 -0.6418
 1687TIP3   OH226695   2.998   0.882   1.034  0.3554  0.2183 -0.2630
 1687TIP3    H126696   3.032   0.821   1.100  2.1786  1.4674  0.0123
 1687TIP3    H226697   2.904   0.864   1.032  0.5950 -1.4912  0.9490
 1688TIP3   OH226698   3.087   1.397   8.497  0.8311 -0.0068  0.5383
 1688TIP3    H126699   3.115   1.309   8.522 -0.3409 -0.4049  0.5089
 1688TIP3    H226700   3.121   1.453   8.566  2.0818 -0.3864  0.2647
 1689TIP3   OH226701   0.588   3.151   9.080 -1.0759  0.0505  0.2665
 1689TIP3    H126702   0.665   3.201   9.109 -0.4189 -1.7568  1.8797
 1689TIP3    H226703   0.625   3.078   9.030 -1.8041 -0.2445  0.1488
 1690TIP3   OH226704   2.694   1.982   7.855  0.8893  0.3897  0.2112
 1690TIP3    H126705   2.722   1.900   7.814 -1.2415 -0.8302  1.0859
 1690TIP3    H226706   2.610   2.003   7.814  0.5672  1.1973  1.2273
 1691TIP3   OH226707   2.799   5.991   9.066 -0.2234 -0.2515  0.4629
 1691TIP3    H126708   2.765   6.071   9.025 -0.1702 -0.6870 -0.4323
 1691TIP3    H226709   2.887   5.981   9.031 -0.5772 -1.2327 -0.1882
 1692TIP3   OH226710   3.311   0.105   2.121  0.0177 -0.0176  0.2121
 1692TIP3    H126711   3.332   0.051   2.044 -0.8234  1.0154 -0.7852
 1692TIP3    H226712   3.342   0.192   2.097 -4.2563  1.4110 -0.9750
 1693TIP3   OH226713   1.923   0.214   3.218 -0.8893  0.1854  0.0445
 1693TIP3    H126714   1.853   0.244   3.275 -1.0172 -0.4041  0.2054
 1693TIP3    H226715   1.901   0.248   3.132 -0.9889  0.6105  0.2362
 1694TIP3   OH226716   0.708   2.859   0.000 -0.5697 -0.1524  0.1767
 1694TIP3    H126717   0.639   2.888   0.059  0.8944 -0.1800  1.9881
 1694TIP3    H226718   0.765   2.935  -0.011 -0.4334 -0.3558 -0.6394
 1695TIP3   OH226719   2.600   6.035   0.693  0.3030  0.1444 -0.0698
 1695TIP3    H126720   2.565   6.122   0.708  1.1084  0.4830 -0.1106
 1695TIP3    H226721   2.569   5.983   0.768 -0.0941  0.4809  0.0039
 1696TIP3   OH226722   0.556   2.114   8.461 -0.3311 -0.0663  0.1059
 1696TIP3    H126723   0.641   2.128   8.503  0.3874  1.8215 -1.8262
 1696TIP3    H226724   0.505   2.191   8.486 -0.4583  0.2492 -1.0877
 1697TIP3   OH226725   4.189   0.530   8.852  0.7201  0.5215 -0.4980
 1697TIP3    H126726   4.157   0.538   8.762  0.0589  2.1784 -0.1451
 1697TIP3    H226727   4.283   0.548   8.846  0.7806  0.1098 -0.9122
 1698TIP3   OH226728   0.970   4.446   2.926  0.6550  0.1715  0.3617
 1698TIP3    H126729   0.928   4.393   2.994 -1.7973  1.9858  0.4122
 1698TIP3    H226730   0.917   4.431   2.848  1.5527  0.5022 -0.3235
 1699TIP3   OH226731   4.084   3.866   0.417  0.3511 -0.0528  0.2726
 1699TIP3    H126732   4.085   3.901   0.328  0.5289  0.0407  0.3116
 1699TIP3    H226733   4.145   3.922   0.466  0.2830 -0.1276  0.4436
 1700TIP3   OH226734   1.365   5.430   2.997 -0.0140  0.1049 -0.2787
 1700TIP3    H126735   1.357   5.482   2.917  1.2617 -2.4009 -2.1938
 1700TIP3    H226736   1.454   5.394   2.993  0.1097 -0.0609  2.3589
 1701TIP3   OH226737   4.418   5.940   8.979  0.2806 -0.0935  0.2628
 1701TIP3    H126738   4.379   5.857   9.007 -1.0889 -0.4545 -2.3448
 1701TIP3    H226739   4.504   5.916   8.944  1.1752  0.0938  2.1933
 1702TIP3   OH226740   3.055   2.947   9.146 -0.2022 -0.4067 -0.4535
 1702TIP3    H126741   3.048   2.913   9.057 -0.7841 -3.4231  0.6388
 1702TIP3    H226742   3.088   2.874   9.198  1.6697  1.7144  1.5929
 1703TIP3   OH226743   4.028   5.141   1.884 -0.1173 -0.0388  0.1804
 1703TIP3    H126744   3.944   5.163   1.845 -0.7563 -1.6130  0.5825
 1703TIP3    H226745   4.070   5.082   1.821  0.3021  0.0554  0.3651
 1704TIP3   OH226746   3.821   2.962   1.178  0.1299  0.7216 -0.4506
 1704TIP3    H126747   3.852   2.973   1.268  0.4815 -1.0238 -0.3217
 1704TIP3    H226748   3.899   2.971   1.124 -0.2004  2.5495 -0.6912
 1705TIP3   OH226749   5.368   3.929   7.849  0.3076  0.9607 -0.0982
 1705TIP3    H126750   5.373   4.018   7.882  0.0331  1.0573 -0.3163
 1705TIP3    H226751   5.278   3.901   7.867  0.3122  0.8266 -0.2765
 1706TIP3   OH226752   0.195   0.765   2.259  0.0015 -0.3393  0.4129
 1706TIP3    H126753   0.267   0.780   2.197  1.7896  0.4598  2.5380
 1706TIP3    H226754   0.127   0.827   2.232  0.5963 -0.2397 -0.9245
 1707TIP3   OH226755   5.091   4.170   2.170 -0.1845  0.3096  0.0443
 1707TIP3    H126756   5.055   4.236   2.110 -2.7109 -0.5925  0.4346
 1707TIP3    H226757   5.015   4.138   2.218  1.3279 -1.2092  1.5480
 1708TIP3   OH226758   2.533   2.710   7.876  0.4270  0.3808 -0.2578
 1708TIP3    H126759   2.552   2.740   7.965  0.2924  1.7825 -0.6805
 1708TIP3    H226760   2.478   2.633   7.888  0.0015  0.8470  0.8830
 1709TIP3   OH226761   0.547   1.841   8.749 -0.4265 -0.8547  0.5055
 1709TIP3    H126762   0.612   1.895   8.793  0.8730 -0.2769 -1.9250
 1709TIP3    H226763   0.474   1.901   8.732  0.3529 -0.2125 -0.7712
 1710TIP3   OH226764   4.547   2.765   1.187 -0.1949  0.0331 -0.3403
 1710TIP3    H126765   4.557   2.672   1.206 -1.5243 -0.1862 -0.5967
 1710TIP3    H226766   4.556   2.808   1.271  1.9629 -0.1611 -0.4322
 1711TIP3   OH226767   4.799   6.487   1.888  0.1849 -0.2080 -0.0779
 1711TIP3    H126768   4.824   6.398   1.915  0.0676 -0.4956 -0.8975
 1711TIP3    H226769   4.706   6.481   1.869 -0.0878  0.3790  0.9769
 1712TIP3   OH226770   2.680   0.908   0.426  0.1698 -0.2307  0.1401
 1712TIP3    H126771   2.706   0.826   0.469 -0.5909 -0.0336  1.0135
 1712TIP3    H226772   2.750   0.925   0.363  1.5520 -0.3199  1.5722
 1713TIP3   OH226773   0.414   2.926   8.314 -0.2915  0.0642  0.0070
 1713TIP3    H126774   0.495   2.932   8.264 -1.1194  1.0108 -1.2601
 1713TIP3    H226775   0.347   2.903   8.250 -1.2640  0.6462  0.7866
 1714TIP3   OH226776   3.014   4.222   2.572  0.1547  0.3462  0.4324
 1714TIP3    H126777   3.075   4.197   2.502 -0.2013  0.7357 -0.0245
 1714TIP3    H226778   3.057   4.297   2.614  1.7002 -1.5450  2.4447
 1715TIP3   OH226779   0.575   2.160   8.938 -0.2872 -0.4282 -0.3011
 1715TIP3    H126780   0.547   2.246   8.908  0.5164 -0.3567 -0.8593
 1715TIP3    H226781   0.634   2.178   9.011  0.3566 -0.4843 -0.8076
 1716TIP3   OH226782   6.520   6.128   2.613  0.5237 -0.1439 -0.4396
 1716TIP3    H126783   6.574   6.099   2.686  0.6468 -1.2217 -0.9305
 1716TIP3    H226784   6.558   6.212   2.586  2.2625 -1.0581 -1.0376
 1717TIP3   OH226785   2.685   0.605   2.373 -0.0943  0.0702 -0.3000
 1717TIP3    H126786   2.766   0.634   2.415 -0.2550  0.9341 -0.5586
 1717TIP3    H226787   2.664   0.522   2.416 -1.8415  2.2282  3.5808
 1718TIP3   OH226788   3.197   4.747   1.557 -0.2502 -0.4338  0.0953
 1718TIP3    H126789   3.170   4.795   1.479  0.1978  0.9707  0.7716
 1718TIP3    H226790   3.151   4.790   1.629  0.8604 -0.4086  0.8247
 1719TIP3   OH226791   4.355   0.885   2.550  0.0449 -0.7256 -0.2816
 1719TIP3    H126792   4.283   0.946   2.531 -1.3335 -2.6455 -1.6492
 1719TIP3    H226793   4.423   0.908   2.487 -0.2472 -0.2529 -0.4259
 1720TIP3   OH226794   4.689   1.035   8.511 -0.2641  0.2048  0.5680
 1720TIP3    H126795   4.650   1.046   8.598 -3.9307  1.6066 -1.0498
 1720TIP3    H226796   4.644   0.960   8.473  3.1764 -2.1383  0.6239
 1721TIP3   OH226797   4.226   2.843   1.258 -0.8615 -0.8897 -0.1806
 1721TIP3    H126798   4.204   2.826   1.349 -1.5035 -0.3476 -0.2220
 1721TIP3    H226799   4.305   2.896   1.262 -0.5651 -1.3426  0.0378
 1722TIP3   OH226800   2.513   3.817   2.193 -0.1619  0.3781 -0.1243
 1722TIP3    H126801   2.494   3.895   2.141 -0.3404 -0.2058 -0.9520
 1722TIP3    H226802   2.549   3.851   2.275  1.8244  1.3091 -1.3065
 1723TIP3   OH226803   6.358   6.620   8.978  0.4901 -0.4319  0.2371
 1723TIP3    H126804   6.411   6.549   8.941 -0.9524 -0.5780 -1.7679
 1723TIP3    H226805   6.404   6.699   8.952  0.3520 -0.5847 -0.5174
 1724TIP3   OH226806   1.555   3.480   1.379  0.0175  0.8721 -0.5584
 1724TIP3    H126807   1.542   3.564   1.424 -0.7594  0.5534 -0.1697
 1724TIP3    H226808   1.475   3.431   1.397  1.2492 -0.7150  0.8421
 1725TIP3   OH226809   2.321   2.492   1.847  0.0365  0.1381 -0.3844
 1725TIP3    H126810   2.261   2.563   1.823 -0.4377 -0.2262 -0.2930
 1725TIP3    H226811   2.264   2.422   1.879  0.4384 -0.5526 -1.1194
 1726TIP3   OH226812   4.714   6.156   7.845 -0.1478  0.5774  0.3016
 1726TIP3    H126813   4.663   6.075   7.851  1.7223 -0.5872  1.1991
 1726TIP3    H226814   4.696   6.202   7.927  2.2470 -1.1240  1.8779
 1727TIP3   OH226815   6.029   6.124   3.161 -0.3182  0.2662 -0.8531
 1727TIP3    H126816   5.969   6.081   3.222 -0.8272  2.9081  0.6287
 1727TIP3    H226817   6.116   6.106   3.197 -0.4794 -0.0655 -0.6241
 1728TIP3   OH226818   2.063   1.487   2.382  0.2118  0.2357 -0.1587
 1728TIP3    H126819   2.078   1.582   2.381  0.7138  0.1590 -0.1157
 1728TIP3    H226820   1.974   1.477   2.348 -0.4793  0.8234  1.4120
 1729TIP3   OH226821   4.547   4.300   8.919 -0.3153  0.1781  0.5070
 1729TIP3    H126822   4.548   4.395   8.910 -0.6673  0.1898  0.5886
 1729TIP3    H226823   4.464   4.273   8.881 -0.5066 -0.0408  1.0725
 1730TIP3   OH226824   1.065   0.841   9.136  0.2695  0.2217  0.0678
 1730TIP3    H126825   1.144   0.882   9.101 -0.6010  1.3562 -0.6427
 1730TIP3    H226826   1.035   0.784   9.065  0.6978 -0.5830  0.5195
 1731TIP3   OH226827   2.072   5.190   2.306  0.8783  0.4326  0.3466
 1731TIP3    H126828   2.056   5.272   2.352 -0.6229 -0.0112  0.6696
 1731TIP3    H226829   2.024   5.199   2.224 -0.3042 -0.5522  0.8969
 1732TIP3   OH226830   1.229   2.310   1.005  0.0145 -0.1920  0.4866
 1732TIP3    H126831   1.310   2.317   0.955 -0.3262 -2.1095 -0.4321
 1732TIP3    H226832   1.242   2.369   1.079  1.3055  1.2815 -0.8250
 1733TIP3   OH226833   5.966   3.100   2.173 -0.2985 -0.4771 -0.4146
 1733TIP3    H126834   5.910   3.162   2.126 -0.7635  0.2753  1.0774
 1733TIP3    H226835   6.019   3.154   2.231  0.7183 -1.3368 -0.4980
 1734TIP3   OH226836   5.603   4.335   8.110 -0.1390 -0.3279 -0.1690
 1734TIP3    H126837   5.687   4.378   8.093  0.0309 -1.0037 -1.1655
 1734TIP3    H226838   5.604   4.315   8.203  1.1230 -0.9570 -0.3018
 1735TIP3   OH226839   6.105   1.866   2.377  0.0906 -0.0030 -0.3368
 1735TIP3    H126840   6.155   1.792   2.412  0.4431  0.4004  0.0208
 1735TIP3    H226841   6.127   1.867   2.284  0.3247 -0.1631 -0.2855
 1736TIP3   OH226842   0.562   5.958   1.218  0.0852  0.0049 -0.2540
 1736TIP3    H126843   0.653   5.931   1.208  0.2424  0.3151  0.3243
 1736TIP3    H226844   0.530   5.908   1.293  0.4950  1.6580  1.0994
 1737TIP3   OH226845   6.661   4.814   2.026  0.0076  0.2738 -0.0692
 1737TIP3    H126846   6.699   4.735   1.988 -0.5785 -1.1949  2.1989
 1737TIP3    H226847   6.736   4.866   2.054  0.4035 -0.4944  0.3222
 1738TIP3   OH226848   5.522   5.859   7.941  0.9592 -0.0266  0.5628
 1738TIP3    H126849   5.485   5.914   8.010 -0.0382  0.3728 -0.2758
 1738TIP3    H226850   5.558   5.783   7.988  0.7318  0.4709  1.5591
 1739TIP3   OH226851   4.366   3.647   8.314 -0.0610 -0.2656  0.0839
 1739TIP3    H126852   4.347   3.705   8.240  1.0025 -0.3182 -0.2474
 1739TIP3    H226853   4.280   3.619   8.345 -0.5340 -0.4699 -1.3194
 1740TIP3   OH226854   1.302   0.293   7.580 -0.3187 -0.2924 -0.3839
 1740TIP3    H126855   1.346   0.216   7.544  1.5843  0.5063  0.1092
 1740TIP3    H226856   1.305   0.280   7.675  1.1400  0.9357 -0.2348
 1741TIP3   OH226857   5.153   6.519   0.792  0.4271  0.2439 -0.3362
 1741TIP3    H126858   5.180   6.462   0.720  1.7156  2.7248 -2.0019
 1741TIP3    H226859   5.061   6.538   0.774 -0.2286 -1.8057  0.6610
 1742TIP3   OH226860   4.902   2.779   7.618  0.1239 -0.2282  0.0306
 1742TIP3    H126861   4.880   2.846   7.554 -0.9016  1.3373  1.9000
 1742TIP3    H226862   4.995   2.793   7.636  0.5435 -1.0054 -1.4185
 1743TIP3   OH226863   0.530   5.304   0.362 -0.2846 -0.0545 -0.1330
 1743TIP3    H126864   0.537   5.339   0.273 -2.1587  0.7818 -0.0032
 1743TIP3    H226865   0.489   5.218   0.351 -3.0482  1.1255 -0.0028
 1744TIP3   OH226866   4.255   2.205   8.176  0.0988  0.4164  0.3978
 1744TIP3    H126867   4.281   2.265   8.105  1.3376 -0.6296 -0.0723
 1744TIP3    H226868   4.337   2.183   8.220 -0.3083 -1.0328  0.4737
 1745TIP3   OH226869   5.587   0.887   3.015 -0.6024  0.4136 -0.0264
 1745TIP3    H126870   5.522   0.816   3.010 -1.5972  1.2759  0.4303
 1745TIP3    H226871   5.630   0.873   3.099  1.8587 -1.8498 -1.4909
 1746TIP3   OH226872   1.613   2.896   8.065  0.1687 -0.0749  1.0922
 1746TIP3    H126873   1.544   2.916   8.002  0.9780 -0.3999  0.0700
 1746TIP3    H226874   1.580   2.930   8.148 -0.8542  0.5152  0.4722
 1747TIP3   OH226875   0.164   1.625   0.296  0.3241  0.0661 -0.1658
 1747TIP3    H126876   0.104   1.657   0.363  1.5230 -0.2318  1.0817
 1747TIP3    H226877   0.109   1.573   0.237 -0.9791  1.3765 -0.1582
 1748TIP3   OH226878   5.028   1.226   1.306 -0.0580  0.2632  0.1485
 1748TIP3    H126879   5.102   1.287   1.300  1.6421 -1.8144 -1.9189
 1748TIP3    H226880   4.964   1.261   1.245  1.0434 -0.0873 -1.2814
 1749TIP3   OH226881   2.843   3.057   0.958  0.0512  0.3268  0.6599
 1749TIP3    H126882   2.909   3.077   1.025  2.3165  0.7146 -1.5176
 1749TIP3    H226883   2.892   3.012   0.889 -2.1051  0.1628 -0.8676
 1750TIP3   OH226884   3.255   6.646   8.094  0.0088 -0.3970 -0.0765
 1750TIP3    H126885   3.196   6.607   8.029  0.5013 -1.2875 -0.0106
 1750TIP3    H226886   3.253   6.584   8.167 -0.3749  0.4867  0.6750
 1751TIP3   OH226887   5.116   5.333   0.789  0.3909  0.3175  0.1168
 1751TIP3    H126888   5.081   5.418   0.815  0.8746  0.5436  0.0423
 1751TIP3    H226889   5.039   5.282   0.764  0.2517  1.3725 -1.7439
 1752TIP3   OH226890   5.688   6.087   1.487  0.4538  0.0352 -0.0912
 1752TIP3    H126891   5.718   5.999   1.462 -1.0903 -0.7166  0.5840
 1752TIP3    H226892   5.599   6.074   1.519  0.1111  1.8920 -0.1653
 1753TIP3   OH226893   4.443   5.121   6.923  0.5040  0.5914  0.2474
 1753TIP3    H126894   4.530   5.119   6.883 -1.0172 -0.0625 -3.5085
 1753TIP3    H226895   4.395   5.187   6.872 -0.8989  1.9207  3.1001
 1754TIP3   OH226896   1.467   0.188   3.692 -0.3103 -0.2548  0.5156
 1754TIP3    H126897   1.390   0.162   3.641 -0.9353 -0.6779  1.6264
 1754TIP3    H226898   1.526   0.114   3.686  0.1509  0.1811 -0.5698
 1755TIP3   OH226899   2.419   3.398   9.145 -0.1622 -0.4949  0.2791
 1755TIP3    H126900   2.460   3.321   9.186 -0.5120  0.0082  1.6268
 1755TIP3    H226901   2.491   3.459   9.133 -0.3983  0.2940  2.4260
 1756TIP3   OH226902   5.498   0.770   7.561 -0.1604  0.0151  0.1371
 1756TIP3    H126903   5.533   0.845   7.513 -0.8326  0.2038 -0.0723
 1756TIP3    H226904   5.511   0.695   7.502 -0.8708  0.2259 -0.3029
 1757TIP3   OH226905   2.873   1.231   0.827  0.5996 -0.0479  0.3767
 1757TIP3    H126906   2.817   1.185   0.764  1.3799 -0.1929 -0.2218
 1757TIP3    H226907   2.830   1.316   0.839  0.3108 -0.1115 -0.1612
 1758TIP3   OH226908   1.309   3.335   0.309 -0.5828  0.1582 -0.3672
 1758TIP3    H126909   1.284   3.270   0.243  0.8777  0.4958 -1.3183
 1758TIP3    H226910   1.275   3.418   0.274 -0.8965  0.1590 -0.0592
 1759TIP3   OH226911   5.906   0.047   1.692  0.1916 -0.6924  0.4882
 1759TIP3    H126912   5.820   0.062   1.731  0.6629  1.7403  0.7405
 1759TIP3    H226913   5.917  -0.048   1.694 -2.1046 -1.0057  1.2362
 1760TIP3   OH226914   6.564   0.606   1.785 -0.6548 -0.1494  0.0671
 1760TIP3    H126915   6.610   0.661   1.849 -0.6972 -0.3468  0.2698
 1760TIP3    H226916   6.507   0.550   1.838 -0.6121 -0.3872 -0.1345
 1761TIP3   OH226917   4.517   5.525   7.962  0.2754 -0.3591 -0.4000
 1761TIP3    H126918   4.440   5.580   7.981  0.8331  0.2040  0.2861
 1761TIP3    H226919   4.538   5.484   8.045  1.5140  0.5385 -0.2449
 1762TIP3   OH226920   1.094   2.231   8.545  0.6209 -0.0452 -0.3627
 1762TIP3    H126921   1.096   2.324   8.523 -0.2545  0.5145  1.6864
 1762TIP3    H226922   1.171   2.194   8.502  2.2897  2.0910  0.6356
 1763TIP3   OH226923   5.859   3.026   8.863 -0.0993 -0.8267  0.3085
 1763TIP3    H126924   5.894   2.976   8.788 -0.5184  0.2573 -0.6403
 1763TIP3    H226925   5.919   3.099   8.873 -1.3115  0.3273 -0.4957
 1764TIP3   OH226926   3.204   2.005   0.502  0.3607 -0.1775  0.3104
 1764TIP3    H126927   3.178   1.936   0.441 -2.0549  0.4013  0.5981
 1764TIP3    H226928   3.178   1.972   0.588  3.0645 -0.6673  1.0489
 1765TIP3   OH226929   0.356   4.682   1.881 -0.0008 -0.4038 -0.0725
 1765TIP3    H126930   0.383   4.719   1.797 -1.0758  1.7580  0.4854
 1765TIP3    H226931   0.434   4.690   1.936  0.3519 -0.7546 -0.5084
 1766TIP3   OH226932   5.470   0.821   2.085  0.2847 -0.0892  0.2010
 1766TIP3    H126933   5.433   0.741   2.122  0.2642 -0.8539 -1.3955
 1766TIP3    H226934   5.399   0.859   2.034  0.6045  0.3931  0.1136
 1767TIP3   OH226935   3.259   4.119   0.223  0.1110  0.6521 -0.2717
 1767TIP3    H126936   3.340   4.167   0.240  1.4104 -1.4148 -0.2204
 1767TIP3    H226937   3.251   4.118   0.128 -1.0290  2.6228 -0.2344
 1768TIP3   OH226938   1.581   2.982   1.097  0.0082 -0.0810 -0.1619
 1768TIP3    H126939   1.566   2.974   1.191 -0.7331 -0.8854 -0.3328
 1768TIP3    H226940   1.541   2.903   1.060 -0.4650  0.6351 -1.2289
 1769TIP3   OH226941   5.598   3.691   8.964 -0.0744  0.0797 -0.5745
 1769TIP3    H126942   5.651   3.704   8.885 -2.0052 -1.1959 -2.1948
 1769TIP3    H226943   5.654   3.638   9.021  0.5063 -1.1798 -2.1956
 1770TIP3   OH226944   1.218   4.794   1.469 -0.3718  0.0813  0.0444
 1770TIP3    H126945   1.299   4.774   1.516  0.5956  1.2718 -1.0231
 1770TIP3    H226946   1.191   4.879   1.504 -1.4531 -0.5107  0.7191
 1771TIP3   OH226947   1.579   2.425   3.210  0.8809 -0.3410 -0.4115
 1771TIP3    H126948   1.575   2.332   3.232 -1.2537 -0.5581 -1.3868
 1771TIP3    H226949   1.588   2.427   3.115 -0.9707  0.3672 -0.6158
 1772TIP3   OH226950   5.207   4.613   1.679  0.4487  0.1335 -0.8829
 1772TIP3    H126951   5.184   4.627   1.771  1.4968 -1.6685 -0.2832
 1772TIP3    H226952   5.153   4.538   1.652  1.0932 -0.1875 -1.3170
 1773TIP3   OH226953   5.450   1.329   1.164 -0.5602  0.8068  0.5763
 1773TIP3    H126954   5.517   1.388   1.130 -0.4393  0.7883  0.7767
 1773TIP3    H226955   5.478   1.312   1.255 -1.0285  1.0838  0.7736
 1774TIP3   OH226956   2.640   5.386   0.205  0.2012 -0.4972  0.2710
 1774TIP3    H126957   2.547   5.376   0.224  0.4466 -0.8801  1.3375
 1774TIP3    H226958   2.645   5.462   0.146 -0.9262 -1.5082 -1.1710
 1775TIP3   OH226959   1.478   4.875   2.309 -0.4171  0.2733  0.2018
 1775TIP3    H126960   1.435   4.959   2.301  0.2886  0.6750  0.4753
 1775TIP3    H226961   1.498   4.867   2.403  0.9500  0.5518 -0.0386
 1776TIP3   OH226962   2.223   2.243   2.933 -0.3433  0.1020 -0.6871
 1776TIP3    H126963   2.166   2.251   2.856 -1.1459  1.1001 -0.0147
 1776TIP3    H226964   2.174   2.286   3.004  0.6692 -0.2067  0.2279
 1777TIP3   OH226965   3.471   3.923   7.736  0.2039 -0.4038  0.4593
 1777TIP3    H126966   3.498   3.991   7.675 -2.5147  0.8852  0.5577
 1777TIP3    H226967   3.543   3.917   7.800  0.6846  2.1245  0.2323
 1778TIP3   OH226968   3.430   5.279   0.824  0.1213  0.4471 -0.3299
 1778TIP3    H126969   3.427   5.370   0.793  0.3017  0.2659 -0.8967
 1778TIP3    H226970   3.338   5.254   0.833  0.0586  0.3823 -1.1010
 1779TIP3   OH226971   2.902   0.028   2.236 -0.6871 -0.5406  0.0879
 1779TIP3    H126972   2.950   0.028   2.319  0.0665 -1.0480 -0.3367
 1779TIP3    H226973   2.839  -0.044   2.245  0.1039 -1.2891 -0.1585
 1780TIP3   OH226974   6.586   3.535   8.416  0.1598  0.1210 -0.4343
 1780TIP3    H126975   6.553   3.592   8.348  1.0291 -0.0749 -1.0454
 1780TIP3    H226976   6.551   3.448   8.395 -2.2385  0.5941  1.2289
 1781TIP3   OH226977   3.384   3.068   9.084 -0.9107  0.3965  0.1150
 1781TIP3    H126978   3.411   3.059   9.175 -0.7538  3.9035  0.5208
 1781TIP3    H226979   3.291   3.092   9.088 -0.8193  0.9124 -0.6161
 1782TIP3   OH226980   6.682   1.388   9.051 -0.2915  0.0655 -0.1239
 1782TIP3    H126981   6.591   1.402   9.024  0.2113  2.1045 -0.8860
 1782TIP3    H226982   6.675   1.345   9.136 -1.9708  0.4863 -0.0157
 1783TIP3   OH226983   5.142   3.627   7.321  0.2660  0.8697 -1.2166
 1783TIP3    H126984   5.130   3.716   7.288  1.6197  1.7300  0.4300
 1783TIP3    H226985   5.227   3.600   7.286  1.1649  1.3424  0.5187
 1784TIP3   OH226986   2.069   3.483   2.257 -0.5500 -0.1128 -0.1661
 1784TIP3    H126987   2.156   3.499   2.292 -1.1795 -0.5256  1.6852
 1784TIP3    H226988   2.076   3.399   2.211  0.4063  0.6797 -1.5328
 1785TIP3   OH226989   1.540   1.268   8.010 -0.0228  0.4981  0.2034
 1785TIP3    H126990   1.595   1.194   7.983  1.4539  1.0816  1.4663
 1785TIP3    H226991   1.588   1.345   7.982  1.4997  1.1412  4.0071
 1786TIP3   OH226992   0.162   4.286   8.592 -0.5334  0.1241  0.1942
 1786TIP3    H126993   0.085   4.266   8.646  0.0575 -0.7597  0.7302
 1786TIP3    H226994   0.231   4.307   8.654 -0.8547  3.0583 -0.3231
 1787TIP3   OH226995   2.992   2.888   8.506 -0.2933 -0.8657  0.0417
 1787TIP3    H126996   3.068   2.863   8.453 -0.3079 -0.2286 -0.2900
 1787TIP3    H226997   3.004   2.841   8.588 -0.9884 -2.9872 -1.0007
 1788TIP3   OH226998   3.089   3.730   1.835  0.6413  0.4087 -0.7629
 1788TIP3    H126999   3.178   3.716   1.804  0.4786 -0.1439 -0.9933
 1788TIP3    H227000   3.061   3.645   1.867 -0.1855  0.3112 -1.6888
 1789TIP3   OH227001   0.841   5.282   8.908 -0.0314  0.4099  0.3106
 1789TIP3    H127002   0.822   5.216   8.841  0.8418  0.3885  0.0701
 1789TIP3    H227003   0.771   5.272   8.972  0.5432 -1.3750  0.7366
 1790TIP3   OH227004   4.534   2.145   3.209  0.1174  0.1378 -0.1049
 1790TIP3    H127005   4.504   2.206   3.275 -0.5088  0.4315 -0.6568
 1790TIP3    H227006   4.614   2.185   3.174 -0.8722  1.2234 -1.2381
 1791TIP3   OH227007   1.889   5.626   0.743 -0.3588 -0.2021  0.3638
 1791TIP3    H127008   1.944   5.689   0.791  0.6974 -1.1575  0.4332
 1791TIP3    H227009   1.870   5.670   0.660 -2.7865  1.7762  1.8305
 1792TIP3   OH227010   5.522   0.282   8.782 -0.0778 -0.2840  0.6696
 1792TIP3    H127011   5.540   0.280   8.688  1.2893  1.5561  0.8198
 1792TIP3    H227012   5.438   0.239   8.792  0.5039 -1.9628 -1.1885
 1793TIP3   OH227013   4.305   5.786   2.185 -0.0797  0.1068 -0.1972
 1793TIP3    H127014   4.370   5.716   2.186  0.6660  0.7929 -0.3633
 1793TIP3    H227015   4.243   5.760   2.116 -0.1896 -0.7143  0.1911
 1794TIP3   OH227016   0.150   6.474   0.948 -0.2766 -0.5686  0.0422
 1794TIP3    H127017   0.204   6.544   0.985 -1.9765  0.2627  1.0330
 1794TIP3    H227018   0.170   6.398   1.002  1.4286 -0.8610 -0.9155
 1795TIP3   OH227019   4.475   0.496   2.042 -0.0822  0.0786 -0.6581
 1795TIP3    H127020   4.557   0.545   2.032  0.6695 -0.8987  0.4374
 1795TIP3    H227021   4.495   0.430   2.108 -1.5490 -0.6625 -0.9250
 1796TIP3   OH227022   4.895   2.263   2.450  0.0943  0.7057 -0.1167
 1796TIP3    H127023   4.944   2.235   2.527  2.2501 -0.3315 -1.7334
 1796TIP3    H227024   4.866   2.352   2.470  0.2475  0.3106  2.0115
 1797TIP3   OH227025   5.909   5.899   8.897  0.7495 -0.2543  0.5313
 1797TIP3    H127026   5.928   5.844   8.822  1.4436  1.5942 -0.7114
 1797TIP3    H227027   5.990   5.900   8.947  0.5918 -0.6970  0.8056
 1798TIP3   OH227028   5.644   4.218   1.899  0.0261 -0.0860 -0.3875
 1798TIP3    H127029   5.576   4.256   1.954 -0.6814  0.0234 -1.3157
 1798TIP3    H227030   5.726   4.256   1.931 -0.5633  1.4783 -0.6744
 1799TIP3   OH227031   5.318   5.591   2.439  0.7851 -0.2952 -0.4859
 1799TIP3    H127032   5.375   5.544   2.378  0.8981 -1.1972  0.2851
 1799TIP3    H227033   5.327   5.543   2.521 -0.5321 -0.0127 -0.1587
 1800TIP3   OH227034   1.572   6.390   0.064 -0.4367  0.4279 -0.2737
 1800TIP3    H127035   1.630   6.358   0.133  1.4699  0.1629 -1.9091
 1800TIP3    H227036   1.508   6.320   0.052 -0.1968  0.0588  0.5271
 1801TIP3   OH227037   6.580   2.193   8.774 -0.1606 -0.3947 -0.2640
 1801TIP3    H127038   6.567   2.247   8.696 -0.5601  2.2350  1.4780
 1801TIP3    H227039   6.640   2.244   8.829 -1.9584 -0.7923  2.2668
 1802TIP3   OH227040   5.991   3.770   2.032  0.2166 -0.2564 -0.4229
 1802TIP3    H127041   5.987   3.692   1.976  0.8726 -0.8106  0.2668
 1802TIP3    H227042   6.023   3.839   1.974 -1.0977 -0.3029 -1.2305
 1803TIP3   OH227043   3.506   6.393   8.347 -0.2395 -0.0890  0.3603
 1803TIP3    H127044   3.527   6.487   8.348  0.8650 -0.1762 -2.7583
 1803TIP3    H227045   3.511   6.366   8.438 -0.9196  2.9361  1.3896
 1804TIP3   OH227046   5.839   1.461   8.056 -0.0900 -0.0770  0.1593
 1804TIP3    H127047   5.822   1.449   7.962 -2.9008 -0.1081  0.5853
 1804TIP3    H227048   5.830   1.555   8.070  1.0199  0.0207  0.3172
 1805TIP3   OH227049   4.330   1.453   8.778  0.4836  0.5244 -0.1476
 1805TIP3    H127050   4.267   1.490   8.840  0.6542  0.4392  0.0766
 1805TIP3    H227051   4.415   1.487   8.807  0.7902 -0.9412  0.7564
 1806TIP3   OH227052   1.668   2.634   0.918  0.4810 -0.4621  0.1017
 1806TIP3    H127053   1.669   2.559   0.858  2.2310  0.7031 -1.4330
 1806TIP3    H227054   1.757   2.636   0.953 -0.0167 -0.0371  1.3812
 1807TIP3   OH227055   6.270   6.310   7.870  0.3277  0.1038 -0.6347
 1807TIP3    H127056   6.296   6.219   7.881  2.0353  0.4099 -1.7739
 1807TIP3    H227057   6.255   6.319   7.776 -1.7502  0.5450 -0.3037
 1808TIP3   OH227058   0.538   1.414   3.338  0.0150 -0.1173  0.0475
 1808TIP3    H127059   0.534   1.510   3.329  1.9529 -0.0496 -0.5413
 1808TIP3    H227060   0.601   1.400   3.408  0.9679 -0.9583 -0.9399
 1809TIP3   OH227061   5.963   0.922   2.885 -0.0250  0.2228 -0.5487
 1809TIP3    H127062   5.918   0.874   2.815 -1.5477  0.4601  0.2250
 1809TIP3    H227063   6.026   0.858   2.921  0.0538 -0.2210 -1.4555
 1810TIP3   OH227064   2.328   5.474   0.107  0.0951  0.5968  0.4376
 1810TIP3    H127065   2.287   5.423   0.176 -1.0449  1.9679  0.8020
 1810TIP3    H227066   2.298   5.563   0.121  0.8326  1.1238 -1.0906
 1811TIP3   OH227067   1.702   6.319   1.655 -0.7983  0.0402  0.1908
 1811TIP3    H127068   1.701   6.224   1.649 -1.1210  0.0677 -0.2901
 1811TIP3    H227069   1.613   6.346   1.631 -0.8763  0.4343  0.8973
 1812TIP3   OH227070   2.830   2.065   1.361  0.1442  0.0996 -0.1968
 1812TIP3    H127071   2.802   2.019   1.281 -0.4371  2.3022 -1.3336
 1812TIP3    H227072   2.792   2.152   1.353  0.2251  0.4554  2.4444
 1813TIP3   OH227073   6.662   0.312   0.779 -0.1693 -0.1520  0.3418
 1813TIP3    H127074   6.645   0.391   0.729 -0.1414  0.3752  1.1461
 1813TIP3    H227075   6.582   0.259   0.767 -0.0429 -0.1723 -0.4823
 1814TIP3   OH227076   6.102   6.563   8.825 -0.4263 -0.2001  0.3155
 1814TIP3    H127077   6.037   6.495   8.841 -0.6603  0.4266  2.1998
 1814TIP3    H227078   6.106   6.613   8.906 -0.4629  2.2385 -1.0698
 1815TIP3   OH227079   4.984   2.786   1.433 -0.1116  0.5139 -0.1176
 1815TIP3    H127080   5.021   2.799   1.346 -1.8106  2.7012 -0.6043
 1815TIP3    H227081   5.007   2.866   1.481 -1.2675  0.4117  0.6381
 1816TIP3   OH227082   0.532   0.668   3.279 -0.2466 -0.2963  0.2508
 1816TIP3    H127083   0.568   0.737   3.335 -0.8080  0.8253 -0.7257
 1816TIP3    H227084   0.438   0.684   3.278 -0.7009 -2.4504  1.7773
 1817TIP3   OH227085   2.483   6.486   1.149  0.1563  0.6459 -0.0745
 1817TIP3    H127086   2.549   6.552   1.127  1.9171 -0.9709  0.1499
 1817TIP3    H227087   2.467   6.497   1.242 -0.6959  1.7096 -0.3269
 1818TIP3   OH227088   5.290   2.246   0.628  0.1097 -0.6067 -0.8020
 1818TIP3    H127089   5.221   2.191   0.664  0.4861  0.0575  1.0565
 1818TIP3    H227090   5.244   2.311   0.575 -0.7893  0.1404  0.8119
 1819TIP3   OH227091   6.068   2.768   3.223 -0.0263 -0.0643 -0.0275
 1819TIP3    H127092   6.063   2.691   3.281  0.2863  0.0507  0.1503
 1819TIP3    H227093   5.982   2.770   3.180 -0.6941  0.4905  1.2586
 1820TIP3   OH227094   0.411   2.685   7.872 -0.3468  0.3508 -0.0782
 1820TIP3    H127095   0.346   2.754   7.860  0.6020  1.3142  0.1876
 1820TIP3    H227096   0.467   2.691   7.794 -1.3262 -1.3668 -0.9939
 1821TIP3   OH227097   4.198   1.312   1.782 -0.0746 -0.9102  0.2004
 1821TIP3    H127098   4.160   1.350   1.703 -0.1507 -0.0245  0.6496
 1821TIP3    H227099   4.285   1.283   1.756 -0.5894 -1.8353 -0.5307
 1822TIP3   OH227100   6.607   1.382   7.964  0.6358  0.3805 -0.2351
 1822TIP3    H127101   6.530   1.379   7.907  1.0675  1.0101 -0.8565
 1822TIP3    H227102   6.596   1.462   8.015 -0.1514 -0.5627  1.1844
 1823TIP3   OH227103   0.432   3.362   2.554  0.6719  0.8908 -0.6545
 1823TIP3    H127104   0.482   3.316   2.621 -0.0051  2.8630  1.3304
 1823TIP3    H227105   0.366   3.411   2.603 -1.7276  0.2428 -2.9885
 1824TIP3   OH227106   3.683   6.145   2.945 -0.4028 -0.1450 -0.0769
 1824TIP3    H127107   3.624   6.070   2.960 -1.7681  1.2832  2.3946
 1824TIP3    H227108   3.626   6.213   2.909  0.4652  0.2468 -0.7381
 1825TIP3   OH227109   5.022   4.115   9.065 -0.3563  0.2830 -0.0655
 1825TIP3    H127110   4.977   4.139   9.146 -0.0311 -1.3490  0.6393
 1825TIP3    H227111   4.952   4.088   9.006 -0.4427 -0.9357  0.5608
 1826TIP3   OH227112   5.041   5.455   8.478  0.3366  0.2434  0.2360
 1826TIP3    H127113   4.950   5.476   8.455 -0.8728 -2.9467  1.5827
 1826TIP3    H227114   5.038   5.441   8.573  2.5276  1.1349  0.4866
 1827TIP3   OH227115   5.855   4.112   1.639 -0.0843  0.0184 -0.1031
 1827TIP3    H127116   5.793   4.122   1.712 -0.8071 -0.3270 -0.6578
 1827TIP3    H227117   5.848   4.194   1.591 -0.6828 -0.3035 -0.5867
 1828TIP3   OH227118   2.425   2.646   1.436 -0.6779 -0.5402 -0.4707
 1828TIP3    H127119   2.441   2.632   1.530  0.8961 -0.4325 -0.7044
 1828TIP3    H227120   2.447   2.562   1.396  0.2535 -0.0879 -0.9167
 1829TIP3   OH227121   2.126   6.190   2.370 -0.1065  0.3342 -0.9853
 1829TIP3    H127122   2.196   6.239   2.414 -0.6510  2.1429 -2.0093
 1829TIP3    H227123   2.060   6.256   2.350 -2.0886 -1.2950 -0.1798
 1830TIP3   OH227124   0.722   1.203   0.920 -0.5909  0.1600  0.3464
 1830TIP3    H127125   0.710   1.160   0.835 -1.4143  1.0743 -0.0242
 1830TIP3    H227126   0.722   1.132   0.983  1.6622 -0.6952 -0.5331
 1831TIP3   OH227127   2.924   5.054   9.079 -0.3260  0.0925  0.0070
 1831TIP3    H127128   2.984   4.983   9.059 -1.0329 -0.7636  0.8499
 1831TIP3    H227129   2.852   5.043   9.017 -1.0736 -0.7497  0.9986
 1832TIP3   OH227130   5.215   1.223   0.349 -0.2785 -0.3073 -0.3024
 1832TIP3    H127131   5.167   1.228   0.266  0.3875  0.9176 -0.6269
 1832TIP3    H227132   5.305   1.247   0.327 -0.0955  0.0381  0.7678
 1833TIP3   OH227133   2.927   4.942   8.418 -0.1093 -0.2566 -0.1788
 1833TIP3    H127134   2.956   5.031   8.438 -0.3455 -0.2140 -0.0173
 1833TIP3    H227135   2.950   4.891   8.496 -2.1424  0.1615  0.7681
 1834TIP3   OH227136   6.109   5.125   0.697 -0.6003  0.4768 -0.0959
 1834TIP3    H127137   6.084   5.038   0.728 -1.2948  0.9410  0.6798
 1834TIP3    H227138   6.198   5.137   0.731  0.1175 -0.5372 -1.5222
 1835TIP3   OH227139   0.407   0.913   2.473 -0.6871  0.1712  0.4391
 1835TIP3    H127140   0.344   0.847   2.502 -0.9513  0.4517  0.4980
 1835TIP3    H227141   0.431   0.960   2.553 -0.7374  0.3551  0.3454
 1836TIP3   OH227142   1.454   2.029   9.102 -0.1212  0.1367 -0.2702
 1836TIP3    H127143   1.478   1.948   9.058 -1.4423 -0.3510 -0.1297
 1836TIP3    H227144   1.367   2.050   9.069  0.2101  1.5352 -0.3355
 1837TIP3   OH227145   0.575   1.901   7.815  0.0367  0.3812 -0.4960
 1837TIP3    H127146   0.664   1.874   7.795 -0.2296 -1.3522  0.4650
 1837TIP3    H227147   0.551   1.849   7.892 -2.4914 -0.7122 -1.9037
 1838TIP3   OH227148   2.927   3.970   0.151  0.1787  0.1763  0.1015
 1838TIP3    H127149   2.972   3.886   0.165  0.3359  0.5086  1.7460
 1838TIP3    H227150   2.851   3.947   0.097  0.3895 -0.9873  0.2650
 1839TIP3   OH227151   4.860   5.222   1.145 -0.1385 -0.1228 -0.3973
 1839TIP3    H127152   4.847   5.297   1.204  0.2111  0.2998 -0.8574
 1839TIP3    H227153   4.954   5.218   1.131 -0.0652 -1.1621  0.2821
 1840TIP3   OH227154   2.214   4.264   1.014 -0.1576 -0.2216 -0.2431
 1840TIP3    H127155   2.291   4.208   1.001  0.1132  0.1280 -0.1741
 1840TIP3    H227156   2.228   4.338   0.955 -0.2811  0.0032  0.0083
 1841TIP3   OH227157   5.824   5.567   7.154  0.1010  0.6250  0.0598
 1841TIP3    H127158   5.740   5.594   7.118  0.8125  1.6083 -0.9207
 1841TIP3    H227159   5.847   5.635   7.217 -0.7825 -0.7054  1.8944
 1842TIP3   OH227160   5.917   0.605   8.081  0.2450 -0.0765  0.3249
 1842TIP3    H127161   6.004   0.567   8.084 -0.4474 -1.6890  1.2931
 1842TIP3    H227162   5.887   0.605   8.172  0.2467  3.0358  0.4331
 1843TIP3   OH227163   5.145   6.465   1.279 -0.9262 -0.3080 -0.3580
 1843TIP3    H127164   5.126   6.402   1.348 -0.9488  0.3027  0.1978
 1843TIP3    H227165   5.142   6.413   1.198 -0.4313 -1.1191  0.1275
 1844TIP3   OH227166   0.648   1.465   8.676 -0.0719  0.4376 -0.3841
 1844TIP3    H127167   0.582   1.503   8.733 -0.1420  1.1925 -0.9417
 1844TIP3    H227168   0.632   1.506   8.591  0.8488  0.3201 -0.6260
 1845TIP3   OH227169   3.826   4.604   8.020 -0.1203 -1.0178 -0.2272
 1845TIP3    H127170   3.737   4.595   8.054 -0.2441 -1.8579 -0.7603
 1845TIP3    H227171   3.834   4.697   7.999 -0.6434 -0.8156  0.4368
 1846TIP3   OH227172   3.686   1.642   1.117  0.3805  0.1725 -0.6052
 1846TIP3    H127173   3.658   1.678   1.201 -0.1649  0.8413 -1.0619
 1846TIP3    H227174   3.777   1.670   1.109  0.3685  0.2962 -0.3356
 1847TIP3   OH227175   0.563   4.077   8.207  0.2029 -0.6107  0.1117
 1847TIP3    H127176   0.588   4.082   8.115 -4.0582  0.6594 -1.2154
 1847TIP3    H227177   0.554   4.169   8.235 -0.1618 -0.9755  1.2724
 1848TIP3   OH227178   6.409   2.255   1.985 -0.2043 -0.3226  0.1401
 1848TIP3    H127179   6.326   2.273   1.940 -1.0825 -3.1901  0.3776
 1848TIP3    H227180   6.384   2.244   2.077  0.7392  0.4653  0.5025
 1849TIP3   OH227181   6.420   2.324   2.983 -0.3596  0.0145  0.0556
 1849TIP3    H127182   6.349   2.356   3.039  0.2581 -1.6409  1.9002
 1849TIP3    H227183   6.492   2.385   2.998 -0.4208 -0.0361  0.5877
 1850TIP3   OH227184   1.572   2.959   1.704 -0.2050 -0.5648  0.5819
 1850TIP3    H127185   1.642   2.927   1.646  1.4425  1.2352  1.4732
 1850TIP3    H227186   1.503   2.893   1.696  0.8534 -1.5268 -1.6969
 1851TIP3   OH227187   0.637   4.065   2.121  0.4896 -0.8615  0.4265
 1851TIP3    H127188   0.607   4.110   2.043 -0.4388  0.2861  1.4068
 1851TIP3    H227189   0.642   3.973   2.096 -1.1927 -0.7153 -0.5792
 1852TIP3   OH227190   3.199   3.084   8.758  0.0876  0.0907 -0.1339
 1852TIP3    H127191   3.212   2.991   8.737 -1.1023  0.2007 -1.5050
 1852TIP3    H227192   3.114   3.087   8.800  0.0686  0.5854 -0.2111
 1853TIP3   OH227193   5.358   1.367   0.724  0.2177 -0.2167 -0.1902
 1853TIP3    H127194   5.429   1.376   0.788  0.7113 -1.1673 -0.5698
 1853TIP3    H227195   5.376   1.434   0.659  0.8431 -0.5209 -0.3396
 1854TIP3   OH227196   5.929   3.930   0.858  0.0493  0.0147  0.3986
 1854TIP3    H127197   5.950   4.012   0.902  3.4467 -0.3080 -0.3060
 1854TIP3    H227198   5.839   3.940   0.829  0.1586  3.2503  0.8582
 1855TIP3   OH227199   3.899   0.204   8.244 -0.0509  0.1530 -0.1931
 1855TIP3    H127200   3.883   0.115   8.273 -2.1013  0.2828 -0.7811
 1855TIP3    H227201   3.855   0.211   8.159 -0.6780  1.9406  0.2157
 1856TIP3   OH227202   4.264   0.838   3.053  0.2981 -0.1382  0.0226
 1856TIP3    H127203   4.256   0.861   3.146 -2.7665  0.8680 -0.3586
 1856TIP3    H227204   4.229   0.749   3.048  1.8122 -0.7586 -0.0216
 1857TIP3   OH227205   5.827   1.802   0.290  0.3833 -0.3802 -0.2664
 1857TIP3    H127206   5.826   1.815   0.385 -2.3692 -0.1599 -0.2428
 1857TIP3    H227207   5.919   1.790   0.269  1.2018  0.5893  2.2866
 1858TIP3   OH227208   5.137   4.250   7.822 -0.6616  0.1931  0.1535
 1858TIP3    H127209   5.219   4.237   7.868 -1.8552  3.8751  3.9385
 1858TIP3    H227210   5.082   4.177   7.850  0.0034  0.0504  1.1395
 1859TIP3   OH227211   0.534   2.858   7.604 -0.5615  0.6984 -1.1018
 1859TIP3    H127212   0.617   2.836   7.563 -1.1802 -1.1949 -1.4245
 1859TIP3    H227213   0.478   2.885   7.531 -0.3667  1.6471 -0.9227
 1860TIP3   OH227214   0.693   0.703   2.381 -0.1736 -0.1445  0.2375
 1860TIP3    H127215   0.725   0.670   2.297  0.5770  0.9120  0.0833
 1860TIP3    H227216   0.773   0.726   2.429 -0.6386  0.7766  0.5958
 1861TIP3   OH227217   4.619   4.634   9.097  0.5298  0.1803  0.4631
 1861TIP3    H127218   4.587   4.626   9.008  0.0671  1.7612  0.4674
 1861TIP3    H227219   4.568   4.569   9.146 -0.2052  0.2715 -0.1644
 1862TIP3   OH227220   2.243   6.376   9.084  0.2232 -0.5234  0.3091
 1862TIP3    H127221   2.184   6.304   9.104 -0.1048  0.2230  2.1571
 1862TIP3    H227222   2.303   6.381   9.158  2.2025 -0.7842 -1.1650
 1863TIP3   OH227223   1.049   0.072   2.111 -0.1766  0.0732  0.2273
 1863TIP3    H127224   0.977   0.134   2.098 -1.3322 -1.3720 -0.5457
 1863TIP3    H227225   1.028   0.027   2.193 -0.7977 -1.1577 -0.5839
 1864TIP3   OH227226   5.583   0.306   0.819  0.0815  0.0757  0.0446
 1864TIP3    H127227   5.564   0.223   0.775  1.8711  0.3158 -1.3154
 1864TIP3    H227228   5.648   0.348   0.763 -0.6180  2.3222  0.8106
 1865TIP3   OH227229   6.113   5.410   2.295 -0.0206  0.3237 -0.6124
 1865TIP3    H127230   6.165   5.391   2.373 -3.5958 -3.4017  1.2486
 1865TIP3    H227231   6.058   5.485   2.320  0.6191  0.7876 -0.5735
 1866TIP3   OH227232   3.061   3.421   7.249 -0.2749  0.1090  0.2975
 1866TIP3    H127233   2.996   3.427   7.178 -0.1047 -0.6795  0.0560
 1866TIP3    H227234   3.020   3.363   7.313 -1.2657  2.3513  1.8196
 1867TIP3   OH227235   6.333   0.450   3.012  0.0054  0.1754  0.3606
 1867TIP3    H127236   6.375   0.504   3.079 -0.4223  1.0784 -0.0789
 1867TIP3    H227237   6.405   0.406   2.967  0.3467  0.2208  0.8664
 1868TIP3   OH227238   0.798   4.211   0.738  0.0924  0.1490 -1.0334
 1868TIP3    H127239   0.807   4.225   0.644 -0.1106 -1.6271 -1.3530
 1868TIP3    H227240   0.871   4.260   0.777  1.2498 -0.5226 -2.2722
 1869TIP3   OH227241   1.396   4.090   1.032 -0.6033 -0.0245 -0.3769
 1869TIP3    H127242   1.387   4.116   0.940  0.2013  3.0891  0.3176
 1869TIP3    H227243   1.307   4.099   1.068 -0.5121  1.0315 -0.3740
 1870TIP3   OH227244   1.691   5.931   2.713 -0.4075  0.2099  0.3344
 1870TIP3    H127245   1.723   5.984   2.786 -0.5813 -2.0599  2.1632
 1870TIP3    H227246   1.626   5.873   2.752 -0.1735 -1.4092 -1.5537
 1871TIP3   OH227247   5.363   5.156   7.532 -0.2992 -0.0192 -0.4595
 1871TIP3    H127248   5.337   5.089   7.595  2.0855 -1.2256 -0.6399
 1871TIP3    H227249   5.281   5.187   7.495 -1.8670  1.2466  3.6276
 1872TIP3   OH227250   3.798   6.324   1.468 -0.3813 -0.7963 -0.4290
 1872TIP3    H127251   3.848   6.404   1.482  0.6046 -1.7262  1.7346
 1872TIP3    H227252   3.733   6.323   1.538 -0.2763 -1.9514 -0.3307
 1873TIP3   OH227253   2.884   6.052   0.678  0.0911 -0.2551 -0.1607
 1873TIP3    H127254   2.938   6.007   0.613 -0.3236 -0.7283 -0.1784
 1873TIP3    H227255   2.794   6.033   0.652 -0.1407  1.6457 -0.9305
 1874TIP3   OH227256   4.610   3.519   2.071  0.1204  0.2739  0.2860
 1874TIP3    H127257   4.576   3.464   2.000 -0.5977  0.0929  0.7590
 1874TIP3    H227258   4.532   3.551   2.116  0.5510  1.1607  0.4155
 1875TIP3   OH227259   2.757   1.417   0.337  0.0064  0.2142 -0.2913
 1875TIP3    H127260   2.679   1.471   0.329 -0.7586 -0.7461  0.3692
 1875TIP3    H227261   2.745   1.348   0.271  0.9718  0.8310 -1.1333
 1876TIP3   OH227262   4.326   3.938   7.270 -0.0609 -0.3767  0.2711
 1876TIP3    H127263   4.268   4.001   7.312 -0.7002 -0.7253 -0.0710
 1876TIP3    H227264   4.411   3.981   7.267 -0.0799 -0.2178  1.6058
 1877TIP3   OH227265   2.706   3.887   2.601  0.2627 -0.1252 -0.4474
 1877TIP3    H127266   2.791   3.908   2.642  0.7215 -2.0412 -0.3352
 1877TIP3    H227267   2.685   3.965   2.550  1.6939  0.7182  0.1745
 1878TIP3   OH227268   1.371   0.432   8.560  0.1356  0.1644 -0.3354
 1878TIP3    H127269   1.416   0.349   8.572 -1.2637 -0.8744 -1.7850
 1878TIP3    H227270   1.441   0.497   8.553  1.2605 -0.3763  3.4070
 1879TIP3   OH227271   2.043   6.679   1.179 -0.2056 -0.3570  0.6969
 1879TIP3    H127272   1.982   6.622   1.132 -1.9544  1.9476  0.0295
 1879TIP3    H227273   2.108   6.703   1.112  1.1932 -2.2921  1.2490
 1880TIP3   OH227274   5.443   0.576   0.027  0.6966 -0.3455  0.2625
 1880TIP3    H127275   5.407   0.608   0.110  0.3007  0.9213 -0.3777
 1880TIP3    H227276   5.529   0.616   0.020  1.6191 -2.0899  1.0112
 1881TIP3   OH227277   1.700   3.725   7.437 -0.7912  0.9494 -0.0042
 1881TIP3    H127278   1.765   3.659   7.412 -1.1862 -0.4938  2.4949
 1881TIP3    H227279   1.750   3.793   7.481 -0.7175  0.9392 -0.0725
 1882TIP3   OH227280   0.968   2.940   2.633 -0.5796  0.0205 -0.3946
 1882TIP3    H127281   0.893   2.948   2.692 -0.1349 -0.6374  0.2842
 1882TIP3    H227282   1.041   2.978   2.682 -0.4847  0.8290 -1.1230
 1883TIP3   OH227283   1.997   4.616   7.431 -0.9692 -0.3933 -0.1209
 1883TIP3    H127284   2.066   4.552   7.413 -0.3732  0.3921 -0.7078
 1883TIP3    H227285   1.917   4.564   7.439 -0.1715 -1.4339  1.5713
 1884TIP3   OH227286   3.969   5.655   0.275 -0.1527  0.8077 -0.1255
 1884TIP3    H127287   3.918   5.623   0.350 -0.5723  2.3470  0.2665
 1884TIP3    H227288   4.046   5.597   0.273 -1.0748 -0.4928  0.2837
 1885TIP3   OH227289   3.346   3.750   7.561 -0.2683 -0.0524 -0.5001
 1885TIP3    H127290   3.325   3.820   7.498 -0.3644  1.0548  0.7181
 1885TIP3    H227291   3.377   3.797   7.638  1.1149 -1.4474 -0.1767
 1886TIP3   OH227292   5.055   0.787   1.611 -0.0099  0.3140  0.4333
 1886TIP3    H127293   5.123   0.745   1.558  0.1183  0.5625  0.3990
 1886TIP3    H227294   5.019   0.856   1.554 -0.8160 -0.3114  0.1750
 1887TIP3   OH227295   1.510   3.953   2.834 -0.3878  0.5882  0.6011
 1887TIP3    H127296   1.506   3.947   2.930 -0.7390 -0.9683  0.5196
 1887TIP3    H227297   1.447   3.887   2.804 -0.3683  1.1514 -0.7022
 1888TIP3   OH227298   0.340   3.783   2.547 -0.1878 -0.0121 -0.2780
 1888TIP3    H127299   0.286   3.785   2.626 -0.9202 -2.3899 -0.6395
 1888TIP3    H227300   0.341   3.691   2.521 -0.7349  0.7819 -3.5610
 1889TIP3   OH227301   5.292   3.506   0.549  0.6176  0.4269 -0.0255
 1889TIP3    H127302   5.382   3.531   0.526  0.2652  1.5315 -0.2853
 1889TIP3    H227303   5.259   3.581   0.599 -0.7562  0.8811 -1.5109
 1890TIP3   OH227304   3.288   1.402   1.567  0.7125 -0.4037  0.3446
 1890TIP3    H127305   3.292   1.496   1.586  1.4536 -0.2900 -0.3068
 1890TIP3    H227306   3.200   1.376   1.592 -0.2535  0.9114 -1.4961
 1891TIP3   OH227307   4.532   4.582   8.828  0.5349 -0.2760  0.3419
 1891TIP3    H127308   4.470   4.544   8.766  0.9402  1.4490 -1.1946
 1891TIP3    H227309   4.604   4.614   8.774  2.3332 -1.2976  1.9840
 1892TIP3   OH227310   1.330   0.743   8.344  0.7571 -0.3111 -0.4451
 1892TIP3    H127311   1.279   0.785   8.274  1.0975  0.3130 -0.3286
 1892TIP3    H227312   1.317   0.800   8.420  0.1308 -1.1593  0.0994
 1893TIP3   OH227313   3.674   2.770   1.032 -0.6105  1.0189 -0.3688
 1893TIP3    H127314   3.707   2.687   1.065 -1.2852  0.2566 -1.5427
 1893TIP3    H227315   3.720   2.836   1.083  0.5506 -0.0577  0.0219
 1894TIP3   OH227316   4.275   1.740   1.490 -0.0430 -0.1547 -0.4728
 1894TIP3    H127317   4.329   1.788   1.553  0.4000 -1.2538  0.0105
 1894TIP3    H227318   4.260   1.655   1.532  0.6086 -1.0716 -2.0216
 1895TIP3   OH227319   6.256   3.202   8.325 -0.0357  0.2365  0.2655
 1895TIP3    H127320   6.225   3.217   8.236  0.4741 -0.8954 -0.1235
 1895TIP3    H227321   6.263   3.107   8.333  1.2250  0.3623  1.0517
 1896TIP3   OH227322   4.295   0.228   8.033  0.2352 -0.4810  0.1002
 1896TIP3    H127323   4.380   0.184   8.025 -0.0044 -1.3357  1.7424
 1896TIP3    H227324   4.271   0.217   8.125  0.3881  3.5328  0.8304
 1897TIP3   OH227325   2.252   0.658   8.360 -0.3512  0.0748  0.1973
 1897TIP3    H127326   2.180   0.606   8.325 -1.2086  0.4526  1.3698
 1897TIP3    H227327   2.297   0.690   8.282 -0.3305 -1.6524 -0.5642
 1898TIP3   OH227328   1.773   4.058   8.124 -0.4220  0.0450 -0.5774
 1898TIP3    H127329   1.695   4.067   8.178  0.8305  0.9417  1.1956
 1898TIP3    H227330   1.767   4.129   8.060 -0.7096  0.5425  0.0029
 1899TIP3   OH227331   3.289   0.190   9.055  0.2211  0.5473  0.1814
 1899TIP3    H127332   3.217   0.239   9.095 -0.5060  0.3542 -0.8484
 1899TIP3    H227333   3.356   0.256   9.039 -0.5138  1.1169 -0.6484
 1900TIP3   OH227334   2.933   1.872   8.292  0.1754 -0.3957 -0.1220
 1900TIP3    H127335   2.871   1.893   8.362  0.0855  1.3647 -0.6931
 1900TIP3    H227336   3.010   1.925   8.312 -0.2998  1.1012 -1.9664
 1901TIP3   OH227337   2.150   1.495   2.073  0.5104 -0.2195  0.4600
 1901TIP3    H127338   2.055   1.491   2.059  0.3535 -0.5764  1.5425
 1901TIP3    H227339   2.166   1.587   2.094  0.6519  0.1786 -1.2176
 1902TIP3   OH227340   0.491   3.455   8.907 -0.9116 -0.6447 -0.2222
 1902TIP3    H127341   0.537   3.460   8.991 -0.1035  0.4058 -0.7025
 1902TIP3    H227342   0.534   3.384   8.860  0.1826  0.2647 -0.6265
 1903TIP3   OH227343   6.581   4.091   8.579  0.5584 -0.0104 -0.0571
 1903TIP3    H127344   6.537   4.006   8.572 -0.0246  0.2685  0.1019
 1903TIP3    H227345   6.615   4.093   8.669 -0.2080  0.2845  0.2343
 1904TIP3   OH227346   0.631   5.166   9.068 -0.2593  0.6966 -0.7017
 1904TIP3    H127347   0.614   5.082   9.111  1.7454  1.0906  1.0610
 1904TIP3    H227348   0.599   5.231   9.130  0.3810  1.2526 -0.9385
 1905TIP3   OH227349   3.428   0.381   2.543 -0.0663 -0.5073  0.1466
 1905TIP3    H127350   3.499   0.401   2.481  0.3954 -3.1389 -0.3319
 1905TIP3    H227351   3.467   0.394   2.629 -0.2358  1.7297 -0.0747
 1906TIP3   OH227352   2.919   6.122   2.955 -0.1524  0.7037  0.2450
 1906TIP3    H127353   2.943   6.214   2.949 -1.7641  1.1064 -0.6969
 1906TIP3    H227354   2.840   6.121   3.008 -3.1619  0.6103 -3.7208
 1907TIP3   OH227355   5.360   4.182   7.971  0.1329 -0.5299  0.3077
 1907TIP3    H127356   5.445   4.225   7.964  1.1999 -2.5539  0.2243
 1907TIP3    H227357   5.326   4.211   8.056 -0.5495  2.6501 -0.8968
 1908TIP3   OH227358   5.736   6.096   2.793 -0.1869  0.0184 -0.2973
 1908TIP3    H127359   5.671   6.122   2.728 -0.7973 -1.0992 -0.1579
 1908TIP3    H227360   5.784   6.023   2.752  0.6602  0.5062 -0.2075
 1909TIP3   OH227361   4.501   4.803   7.713 -0.2174  0.5278 -0.0152
 1909TIP3    H127362   4.567   4.740   7.684 -1.5772 -1.6018  1.2052
 1909TIP3    H227363   4.435   4.802   7.643 -0.3272  0.4243  0.0879
 1910TIP3   OH227364   3.647   3.168   1.717 -0.5336  0.8517 -0.4030
 1910TIP3    H127365   3.558   3.133   1.728 -0.2631  0.1111 -0.4773
 1910TIP3    H227366   3.664   3.215   1.798 -0.3259 -0.5436  0.3834
 1911TIP3   OH227367   4.002   0.950   1.246  0.1401 -0.1245 -0.5966
 1911TIP3    H127368   3.966   1.037   1.232 -0.3927 -0.1430  0.6185
 1911TIP3    H227369   3.930   0.898   1.281  0.2102 -1.3005 -2.0541
 1912TIP3   OH227370   2.561   1.896   8.275 -0.6577 -0.3049  0.8947
 1912TIP3    H127371   2.579   1.972   8.220  0.5817 -0.5849  0.8895
 1912TIP3    H227372   2.602   1.915   8.359  1.2485 -1.6736  0.3450
 1913TIP3   OH227373   3.582   5.471   7.851  0.1785  0.2182 -0.8410
 1913TIP3    H127374   3.603   5.378   7.844  2.2894  0.4558  1.0977
 1913TIP3    H227375   3.585   5.503   7.761  0.4380 -1.3746 -1.4332
 1914TIP3   OH227376   6.335   6.066   1.756  0.3301  0.2915 -0.1524
 1914TIP3    H127377   6.246   6.057   1.790  0.7121  0.9031  1.0859
 1914TIP3    H227378   6.372   6.139   1.806  1.5090  0.0864 -0.6901
 1915TIP3   OH227379   2.808   3.483   8.472  0.0551 -0.2857  0.6054
 1915TIP3    H127380   2.723   3.518   8.445  0.3318  0.3760  0.5673
 1915TIP3    H227381   2.867   3.505   8.399  0.5106  0.2890  1.1370
 1916TIP3   OH227382   0.582   6.387   7.455  0.3344  0.5846  0.1238
 1916TIP3    H127383   0.639   6.310   7.444 -0.1028  0.1397  0.8497
 1916TIP3    H227384   0.502   6.351   7.494 -0.2890  1.2638 -0.5178
 1917TIP3   OH227385   4.094   3.405   1.952  0.8035  0.0323 -0.4777
 1917TIP3    H127386   4.024   3.373   1.895  0.2056 -2.3840  1.4363
 1917TIP3    H227387   4.083   3.500   1.953 -2.6367 -0.2503 -0.0696
 1918TIP3   OH227388   5.608   0.937   3.603 -0.0063 -0.4988  0.3018
 1918TIP3    H127389   5.541   0.998   3.572  1.5626  0.6129 -1.1097
 1918TIP3    H227390   5.612   0.953   3.698 -0.4651  0.7422  0.1326
 1919TIP3   OH227391   0.729   0.880   2.597 -1.1683  0.2330  0.2144
 1919TIP3    H127392   0.679   0.875   2.515 -1.7096  0.9672  0.4916
 1919TIP3    H227393   0.666   0.857   2.665 -0.4053 -1.6893  0.3503
 1920TIP3   OH227394   5.273   5.694   2.872 -0.3424 -0.1251  0.0084
 1920TIP3    H127395   5.303   5.763   2.932  3.2524 -1.6617  0.2172
 1920TIP3    H227396   5.211   5.643   2.923 -0.4745  0.9789  0.9958
 1921TIP3   OH227397   4.683   5.777   3.117  0.2917 -0.2457  0.1229
 1921TIP3    H127398   4.598   5.733   3.126 -0.2050  0.9594  1.9125
 1921TIP3    H227399   4.744   5.721   3.165  0.3871 -0.7382 -0.5523
 1922TIP3   OH227400   0.834   0.167   0.151  0.3409 -0.0915  0.5704
 1922TIP3    H127401   0.896   0.211   0.209 -1.3794 -1.0828  3.3557
 1922TIP3    H227402   0.775   0.237   0.122  0.4943  0.2218  1.0095
 1923TIP3   OH227403   1.136   0.048   7.669  1.2741 -0.4826 -0.1656
 1923TIP3    H127404   1.137   0.105   7.591  1.2263  0.4067  0.4669
 1923TIP3    H227405   1.211   0.078   7.720  0.0066  0.5044  1.2124
 1924TIP3   OH227406   3.285   6.400   1.672  0.0177 -0.0305 -0.5094
 1924TIP3    H127407   3.290   6.399   1.768 -0.5095 -1.0559 -0.4831
 1924TIP3    H227408   3.228   6.327   1.650  0.7082 -0.2476 -1.6481
 1925TIP3   OH227409   2.043   3.773   0.284 -0.3374 -0.3007  0.0973
 1925TIP3    H127410   1.981   3.841   0.260 -1.5184 -1.3286  0.0928
 1925TIP3    H227411   2.034   3.706   0.215  0.3835 -0.7153  0.3875
 1926TIP3   OH227412   4.243   1.485   2.244 -0.1881  0.4833  0.0669
 1926TIP3    H127413   4.212   1.514   2.159  0.2487 -0.7880 -0.5465
 1926TIP3    H227414   4.194   1.538   2.307 -1.5401  0.4656 -0.9305
 1927TIP3   OH227415   0.018   4.977   9.176  0.0769 -0.6637  0.5186
 1927TIP3    H127416  -0.068   4.976   9.134  0.2519 -1.7012  0.1546
 1927TIP3    H227417   0.015   5.052   9.235 -0.7983 -0.2244 -0.0663
 1928TIP3   OH227418   5.989   3.488   8.996 -0.0401 -0.0087  0.4475
 1928TIP3    H127419   5.920   3.423   8.983 -0.1560  0.1436  0.2893
 1928TIP3    H227420   6.043   3.452   9.067  0.5186 -0.7775 -0.3498
 1929TIP3   OH227421   0.652   0.523   1.285  0.1319  0.2813 -0.4093
 1929TIP3    H127422   0.696   0.439   1.269  0.8611  0.1938  1.7065
 1929TIP3    H227423   0.559   0.505   1.272  0.3176 -0.7529 -0.3643
 1930TIP3   OH227424   6.241   5.038   8.171  0.2119  0.0162  0.1227
 1930TIP3    H127425   6.288   4.961   8.139 -0.9096 -0.7475  0.2582
 1930TIP3    H227426   6.228   5.022   8.264 -1.3927 -0.4044 -0.1385
 1931TIP3   OH227427   1.684   1.055   0.868 -0.2983 -0.3920  0.0015
 1931TIP3    H127428   1.751   1.095   0.812 -1.5001  0.8122 -0.6325
 1931TIP3    H227429   1.696   0.961   0.856  0.7675 -0.1844 -0.7072
 1932TIP3   OH227430   0.409   5.015   0.641 -0.4957 -0.1808 -0.0474
 1932TIP3    H127431   0.480   4.951   0.649  0.7686  1.2996  1.1477
 1932TIP3    H227432   0.394   5.046   0.730 -1.4403  0.8075 -0.5279
 1933TIP3   OH227433   1.314   2.629   8.427 -0.0879  0.1899 -0.2888
 1933TIP3    H127434   1.323   2.544   8.383 -1.9012 -0.3367  0.2788
 1933TIP3    H227435   1.296   2.607   8.518  1.1210  1.2394  0.2328
 1934TIP3   OH227436   4.932   1.997   8.500  0.1572 -0.2433 -0.3631
 1934TIP3    H127437   4.985   1.983   8.579 -0.6780  0.7530  0.4052
 1934TIP3    H227438   4.943   2.090   8.481 -0.0787 -0.3672 -1.1130
 1935TIP3   OH227439   6.144   1.299   1.063 -0.0034  0.2076 -0.0101
 1935TIP3    H127440   6.122   1.220   1.112  1.3054 -0.8822 -1.0807
 1935TIP3    H227441   6.064   1.351   1.063 -1.5507 -2.0167 -0.9494
 1936TIP3   OH227442   6.011   4.542   0.774 -0.1482 -0.1257  0.0763
 1936TIP3    H127443   6.000   4.574   0.684 -2.3079  0.2903  0.4141
 1936TIP3    H227444   5.960   4.461   0.776 -0.1134 -0.1295  0.9294
 1937TIP3   OH227445   3.527   3.573   0.758  0.0098 -0.0836 -0.1293
 1937TIP3    H127446   3.619   3.587   0.782 -0.7228  0.0022  3.0577
 1937TIP3    H227447   3.531   3.516   0.682  2.7054  0.8566 -0.8117
 1938TIP3   OH227448   6.396   5.562   1.055 -0.3380 -0.1144 -0.0382
 1938TIP3    H127449   6.389   5.557   1.150 -1.7834  0.3450 -0.0872
 1938TIP3    H227450   6.362   5.649   1.033  0.8963  0.1737 -0.9153
 1939TIP3   OH227451   0.378   1.495   0.464 -0.4676 -0.3986 -0.4785
 1939TIP3    H127452   0.285   1.515   0.453 -0.7793 -1.7094 -0.3951
 1939TIP3    H227453   0.381   1.432   0.535  0.3975 -0.9922 -1.0167
 1940TIP3   OH227454   3.653   4.472   7.038  0.2061  0.0157  0.0241
 1940TIP3    H127455   3.697   4.491   7.120 -0.4212  1.2349  0.0929
 1940TIP3    H227456   3.632   4.378   7.043  0.3872  0.0316  1.1479
 1941TIP3   OH227457   1.274   3.067   0.959  0.1549  0.0153 -0.0448
 1941TIP3    H127458   1.333   3.002   0.997  1.1018  1.8210  1.7623
 1941TIP3    H227459   1.333   3.125   0.910 -0.5757 -0.0428 -1.0131
 1942TIP3   OH227460   1.463   0.174   9.150 -0.0183 -0.5635 -0.2551
 1942TIP3    H127461   1.477   0.106   9.216 -2.5322  1.0137  2.1234
 1942TIP3    H227462   1.426   0.248   9.199  1.4507  2.1255 -2.8917
 1943TIP3   OH227463   2.802   3.229   8.540  0.0419  0.1192 -0.2631
 1943TIP3    H127464   2.789   3.322   8.521  2.6530  0.0069 -3.3674
 1943TIP3    H227465   2.737   3.184   8.486 -1.3854  0.0120  1.4174
 1944TIP3   OH227466   4.756   3.839   0.418  0.0724  0.2788  0.4185
 1944TIP3    H127467   4.841   3.804   0.445  0.0179 -0.6114 -0.5182
 1944TIP3    H227468   4.714   3.767   0.371 -1.2110  0.7086  0.8672
 1945TIP3   OH227469   1.625   5.761   1.572  0.0734 -0.1124  0.2213
 1945TIP3    H127470   1.615   5.693   1.506 -1.1229  0.8923 -0.6697
 1945TIP3    H227471   1.619   5.843   1.523  1.4389  0.6668  1.2771
 1946TIP3   OH227472   4.281   2.329   2.401  0.3913  1.0760 -0.0583
 1946TIP3    H127473   4.216   2.399   2.402  2.5898  3.2397  0.6360
 1946TIP3    H227474   4.319   2.332   2.313 -0.9761 -0.8265 -0.7965
 1947TIP3   OH227475   3.055   5.634   1.967  0.5372 -0.5977 -0.1106
 1947TIP3    H127476   2.969   5.600   1.990 -0.0106  1.2235  0.7189
 1947TIP3    H227477   3.069   5.707   2.027  2.4306 -0.5019 -0.6033
 1948TIP3   OH227478   3.175   0.448   2.708  0.4967  0.2671  0.2756
 1948TIP3    H127479   3.252   0.430   2.762  0.6466 -1.3868 -0.4196
 1948TIP3    H227480   3.101   0.427   2.765  0.6140  0.2295  0.4160
 1949TIP3   OH227481   5.764   1.873   1.518  0.1050  0.1440 -0.4617
 1949TIP3    H127482   5.772   1.863   1.612 -0.9053 -0.9608 -0.4575
 1949TIP3    H227483   5.773   1.967   1.502  2.0318  0.1538  0.5189
 1950TIP3   OH227484   4.853   4.358   8.813  0.1399  0.1660  0.1197
 1950TIP3    H127485   4.763   4.363   8.845 -0.0019 -0.4996 -0.1651
 1950TIP3    H227486   4.852   4.286   8.749  1.0786 -0.4398  0.7672
 1951TIP3   OH227487   5.610   5.338   0.479  0.2556  0.0138 -0.0834
 1951TIP3    H127488   5.697   5.298   0.472  0.5704  0.5313  0.8264
 1951TIP3    H227489   5.579   5.314   0.566 -0.5498 -0.2166 -0.4228
 1952TIP3   OH227490   2.496   0.177   2.118  0.2667 -0.3061 -0.3640
 1952TIP3    H127491   2.425   0.222   2.072  0.5109  0.6595  0.2006
 1952TIP3    H227492   2.546   0.246   2.160  1.0529 -1.0497 -0.0476
 1953TIP3   OH227493   4.424   0.961   8.826 -0.0630  0.5938 -0.0898
 1953TIP3    H127494   4.479   0.889   8.793 -1.0377 -0.4978  0.5648
 1953TIP3    H227495   4.336   0.940   8.794 -0.0383  2.6120 -1.5986
 1954TIP3   OH227496   3.273   2.816   8.594 -0.1439  0.0116 -0.5486
 1954TIP3    H127497   3.364   2.828   8.622 -0.2599  0.6274 -0.4138
 1954TIP3    H227498   3.275   2.837   8.500 -0.4309  1.6607 -0.2215
 1955TIP3   OH227499   0.351   5.760   2.006 -0.0748  0.0239  0.2667
 1955TIP3    H127500   0.356   5.844   1.960  1.0779 -0.2704 -0.1945
 1955TIP3    H227501   0.264   5.759   2.045 -0.3257  1.1760 -0.2113
 1956TIP3   OH227502   0.678   5.473   0.727 -0.8483 -0.2421 -0.6721
 1956TIP3    H127503   0.620   5.542   0.692 -1.1173  0.2878  0.7440
 1956TIP3    H227504   0.624   5.394   0.725 -0.4579 -0.5231 -2.5425
 1957TIP3   OH227505   6.198   6.683   1.443 -0.1163  0.1770 -0.4559
 1957TIP3    H127506   6.210   6.667   1.536  0.5925 -0.7667 -0.6922
 1957TIP3    H227507   6.286   6.703   1.410 -0.0548 -1.2011 -1.2132
 1958TIP3   OH227508   1.811   4.637   1.502 -0.2654 -0.2362 -0.5719
 1958TIP3    H127509   1.810   4.719   1.453  2.1928  0.7385  0.8529
 1958TIP3    H227510   1.875   4.582   1.457 -0.5190 -0.6727 -0.4168
 1959TIP3   OH227511   1.455   6.438   0.514 -0.3325  0.0957 -0.0175
 1959TIP3    H127512   1.384   6.499   0.497 -1.3391 -0.9703  0.2986
 1959TIP3    H227513   1.477   6.401   0.429 -2.0678 -1.6319  0.2421
 1960TIP3   OH227514   0.776   6.595   1.010 -0.3821  0.2715  0.2936
 1960TIP3    H127515   0.738   6.551   0.934 -0.0620  0.8488 -0.2134
 1960TIP3    H227516   0.767   6.688   0.991  0.9577  0.4245  0.3131
 1961TIP3   OH227517   3.682   4.114   8.916  0.6294 -0.5121 -0.5479
 1961TIP3    H127518   3.738   4.044   8.949  0.4666  0.3739  1.8113
 1961TIP3    H227519   3.732   4.194   8.933 -0.8147  0.2062  0.4988
 1962TIP3   OH227520   0.088   5.527   9.160 -0.1559 -0.3585  0.0628
 1962TIP3    H127521   0.098   5.449   9.105  1.0543  1.8980 -3.2007
 1962TIP3    H227522   0.157   5.517   9.227  2.2492 -0.6631 -2.2802
 1963TIP3   OH227523   2.256   3.739   1.502  0.6370  0.1889 -0.8073
 1963TIP3    H127524   2.244   3.651   1.539  0.2019 -0.5864 -2.6651
 1963TIP3    H227525   2.321   3.780   1.558 -1.1680 -0.2698  1.8180
 1964TIP3   OH227526   4.926   6.448   8.472 -0.0284 -0.5159  0.0484
 1964TIP3    H127527   4.929   6.409   8.384 -0.4221 -1.1754  0.3303
 1964TIP3    H227528   4.992   6.518   8.468 -2.0510  1.4594 -1.7211
 1965TIP3   OH227529   2.452   0.813   0.300  0.4203 -0.5418 -0.1262
 1965TIP3    H127530   2.465   0.821   0.205 -0.6750 -1.1540 -0.3490
 1965TIP3    H227531   2.531   0.850   0.338  0.2161  1.1472 -1.2451
 1966TIP3   OH227532   6.466   1.707   1.849 -0.2205  0.4627  0.1684
 1966TIP3    H127533   6.505   1.781   1.802 -0.5739 -0.2781 -1.3314
 1966TIP3    H227534   6.412   1.662   1.784  2.0192 -2.6691  0.2351
 1967TIP3   OH227535   5.292   4.428   0.831 -0.0892 -0.1578  0.0013
 1967TIP3    H127536   5.316   4.520   0.842  0.3370 -0.3293  0.5752
 1967TIP3    H227537   5.197   4.429   0.819  0.1149  0.5092 -1.9926
 1968TIP3   OH227538   3.343   5.694   8.943  0.4201  0.1517 -0.7966
 1968TIP3    H127539   3.316   5.760   8.880  2.4631  0.1855 -1.7296
 1968TIP3    H227540   3.292   5.712   9.022 -1.3298  0.8485 -2.0335
 1969TIP3   OH227541   4.017   1.921   3.255  0.0455 -0.1656  0.4433
 1969TIP3    H127542   3.948   1.968   3.302 -0.2775  0.0372 -0.2294
 1969TIP3    H227543   3.990   1.829   3.258  0.1023 -0.1725  0.7804
 1970TIP3   OH227544   1.486   4.800   0.972  0.5057  0.2918 -0.1219
 1970TIP3    H127545   1.532   4.872   0.929  0.8897  0.4100  0.4878
 1970TIP3    H227546   1.421   4.772   0.907 -2.1361  3.4832  0.8259
 1971TIP3   OH227547   3.418   6.233   2.468  0.0549  0.3999 -0.1214
 1971TIP3    H127548   3.438   6.158   2.525 -0.1336  0.6126  0.2195
 1971TIP3    H227549   3.436   6.310   2.522 -1.0187  0.6002 -0.0428
 1972TIP3   OH227550   5.784   3.555   8.159  0.1414 -0.3298 -0.2358
 1972TIP3    H127551   5.824   3.642   8.160  0.5379 -0.4791 -1.5604
 1972TIP3    H227552   5.743   3.549   8.073  1.1670 -1.9081 -0.6513
 1973TIP3   OH227553   4.542   6.346   2.250 -0.0116  0.0031 -0.0368
 1973TIP3    H127554   4.457   6.308   2.228  0.8014 -1.6244 -0.4633
 1973TIP3    H227555   4.522   6.410   2.318 -1.4294 -1.2084  0.7462
 1974TIP3   OH227556   4.541   1.751   0.844  0.3161 -0.2443  0.4430
 1974TIP3    H127557   4.456   1.718   0.871  1.1543 -2.1085  0.9451
 1974TIP3    H227558   4.534   1.846   0.854 -1.0401 -0.4948  2.5309
 1975TIP3   OH227559   0.930   6.548   8.267 -0.4498 -0.1181 -0.2916
 1975TIP3    H127560   0.988   6.619   8.296 -0.7914 -0.2246  0.7051
 1975TIP3    H227561   0.934   6.551   8.172  0.5816  0.3831 -0.2501
 1976TIP3   OH227562   1.163   2.246   1.342 -0.0807  0.8211  0.1039
 1976TIP3    H127563   1.212   2.299   1.280  0.4852 -0.1775 -0.3292
 1976TIP3    H227564   1.219   2.169   1.358 -0.7108  0.5210  0.9827
 1977TIP3   OH227565   3.891   5.410   1.354 -0.4765 -0.1085 -0.3388
 1977TIP3    H127566   3.827   5.442   1.419  0.3689  0.9922 -0.0227
 1977TIP3    H227567   3.934   5.337   1.398  0.5815  1.0665  0.6641
 1978TIP3   OH227568   3.005   5.796   0.073  0.2887 -0.5256 -0.2339
 1978TIP3    H127569   3.030   5.884   0.104 -1.7163  0.0542 -0.1462
 1978TIP3    H227570   2.997   5.745   0.154 -2.2091  0.2518  0.0843
 1979TIP3   OH227571   4.396   1.499   1.858 -0.3059  0.0025 -0.2676
 1979TIP3    H127572   4.410   1.416   1.903  1.0996  0.3839  0.0578
 1979TIP3    H227573   4.447   1.491   1.777 -0.4575  0.4139 -0.4073
 1980TIP3   OH227574   2.026   4.493   0.031  0.5354 -0.2602  0.4486
 1980TIP3    H127575   2.006   4.478   0.124  1.4189  1.7739  1.0044
 1980TIP3    H227576   1.955   4.550   0.001  0.0354 -1.2316 -0.2638
 1981TIP3   OH227577   1.153   4.379   9.106  0.4620  0.4223  0.9389
 1981TIP3    H127578   1.101   4.320   9.160 -0.1866 -1.0718 -1.1664
 1981TIP3    H227579   1.235   4.333   9.091  0.1927  0.2860 -0.2300
 1982TIP3   OH227580   2.835   0.045   1.131  0.2360 -0.3041  0.0436
 1982TIP3    H127581   2.819   0.127   1.178 -0.6749 -0.8683  0.7593
 1982TIP3    H227582   2.877   0.071   1.049 -1.2337  0.9874 -0.3408
 1983TIP3   OH227583   1.342   1.889   8.389 -0.1960 -0.2093  0.0952
 1983TIP3    H127584   1.369   1.923   8.304 -2.3079  1.1515 -0.1006
 1983TIP3    H227585   1.365   1.796   8.386  0.3170 -0.0607 -1.7272
 1984TIP3   OH227586   4.804   4.580   1.163 -0.0889  0.0960  0.8014
 1984TIP3    H127587   4.805   4.554   1.256  0.2904  0.1070  0.8013
 1984TIP3    H227588   4.892   4.612   1.146  0.0519 -0.5695  0.2496
 1985TIP3   OH227589   2.335   1.313   1.996 -0.0052 -0.2224  0.4011
 1985TIP3    H127590   2.321   1.219   1.988  0.9017 -0.4665  1.4074
 1985TIP3    H227591   2.270   1.341   2.060 -1.3641  0.1568 -1.0776
 1986TIP3   OH227592   1.536   0.133   2.029  0.0199  0.2820 -0.1219
 1986TIP3    H127593   1.539   0.212   1.975  1.0424  0.1297 -0.3161
 1986TIP3    H227594   1.627   0.119   2.056 -0.4834  0.5059  1.8856
 1987TIP3   OH227595   4.495   0.565   0.852 -0.1580  0.0874 -0.0927
 1987TIP3    H127596   4.516   0.472   0.844 -0.3238  0.1850 -2.3701
 1987TIP3    H227597   4.575   0.605   0.887 -1.0769 -1.2260  4.0421
 1988TIP3   OH227598   5.595   2.746   1.150 -0.8004  0.5644 -0.0713
 1988TIP3    H127599   5.574   2.831   1.112 -0.7507  0.8830  0.6044
 1988TIP3    H227600   5.638   2.698   1.079 -0.3847  1.2736 -0.3056
 1989TIP3   OH227601   0.193   0.115   7.993  0.1634  0.1077 -0.3838
 1989TIP3    H127602   0.284   0.112   8.022 -0.1496  0.0508  0.6081
 1989TIP3    H227603   0.147   0.055   8.052 -0.1745 -1.4872 -2.1486
 1990TIP3   OH227604   4.719   0.684   2.244  0.5775  0.0375  0.3264
 1990TIP3    H127605   4.739   0.649   2.158  2.0194  0.8339  0.3094
 1990TIP3    H227606   4.767   0.627   2.305 -1.1701 -1.0946  0.7155
 1991TIP3   OH227607   1.509   1.501   2.941 -0.0799  0.1387 -0.2332
 1991TIP3    H127608   1.546   1.587   2.960  0.1050  0.2861 -1.2604
 1991TIP3    H227609   1.455   1.514   2.863 -1.0490 -0.4140  0.3149
 1992TIP3   OH227610   3.261   3.509   0.825  0.6952  0.1135  0.0733
 1992TIP3    H127611   3.253   3.461   0.742 -1.2277  0.4827 -0.0115
 1992TIP3    H227612   3.333   3.570   0.811 -1.5548  2.4661 -2.6118
 1993TIP3   OH227613   3.107   1.412   1.087 -0.0589  0.2149  0.5216
 1993TIP3    H127614   3.171   1.456   1.030  0.1691 -0.5831  0.1324
 1993TIP3    H227615   3.117   1.319   1.065 -1.1347  0.0487  0.6905
 1994TIP3   OH227616   1.341   5.890   3.215 -0.1813  0.6449 -0.8248
 1994TIP3    H127617   1.377   5.927   3.296  1.5657  0.7649 -1.6229
 1994TIP3    H227618   1.394   5.927   3.146  0.3982 -1.8517 -1.8205
 1995TIP3   OH227619   0.431   3.270   2.095  0.2601  0.0734 -0.7454
 1995TIP3    H127620   0.432   3.366   2.090 -1.6353  0.2108  0.7237
 1995TIP3    H227621   0.421   3.250   2.188 -0.0397 -1.5414 -1.0853
 1996TIP3   OH227622   1.860   1.937   1.057 -0.0977 -0.4950 -0.6304
 1996TIP3    H127623   1.812   1.870   1.106 -1.0733 -1.4087 -2.7383
 1996TIP3    H227624   1.797   1.970   0.992  0.9418  1.1415 -0.8819
 1997TIP3   OH227625   6.310   6.685   2.974 -0.1926 -0.0723 -0.4681
 1997TIP3    H127626   6.283   6.615   3.032 -0.5497  0.4883  0.0574
 1997TIP3    H227627   6.382   6.648   2.923  0.7967 -0.2780  1.0119
 1998TIP3   OH227628   5.232   5.257   0.427  0.3069 -0.0903  0.2313
 1998TIP3    H127629   5.211   5.202   0.351 -2.1260  0.6670  0.2515
 1998TIP3    H227630   5.267   5.337   0.388 -1.5085  0.5436 -0.2129
 1999TIP3   OH227631   0.818   3.500   1.343  0.1246  0.5775 -0.7847
 1999TIP3    H127632   0.810   3.468   1.253  0.6463  1.2019 -1.0605
 1999TIP3    H227633   0.907   3.476   1.369 -0.2581 -0.2258 -0.1766
 2000TIP3   OH227634   4.468   2.838   8.326  0.0099 -0.3785 -0.1414
 2000TIP3    H127635   4.432   2.926   8.321 -1.1542 -0.6643  2.0350
 2000TIP3    H227636   4.526   2.840   8.402  2.3000 -0.7757 -1.7652
 2001TIP3   OH227637   6.501   1.131   1.371 -0.4689 -0.4328 -0.4540
 2001TIP3    H127638   6.409   1.141   1.398 -0.4680 -2.2640  0.4262
 2001TIP3    H227639   6.508   1.039   1.346  1.3915 -0.6167  0.6034
 2002TIP3   OH227640   5.870   1.768   0.581 -0.1714 -0.0539 -0.0764
 2002TIP3    H127641   5.925   1.831   0.629 -1.1943 -0.2132  1.3766
 2002TIP3    H227642   5.798   1.821   0.548  1.1283  0.2902 -2.6004
 2003TIP3   OH227643   3.475   2.658   9.044  0.0165 -0.4765  0.0067
 2003TIP3    H127644   3.404   2.596   9.062 -1.3117  1.2379  1.0337
 2003TIP3    H227645   3.540   2.641   9.112 -0.9947  0.1677  1.1744
 2004TIP3   OH227646   3.449   3.380   0.167 -0.3927 -0.1522 -0.5503
 2004TIP3    H127647   3.455   3.458   0.111  0.1198 -0.3486 -0.7772
 2004TIP3    H227648   3.537   3.343   0.165 -0.9947 -1.5860 -1.6537
 2005TIP3   OH227649   6.456   6.542   8.125  0.4236  0.0041 -0.3743
 2005TIP3    H127650   6.546   6.552   8.157  0.7105  1.1456 -1.4671
 2005TIP3    H227651   6.438   6.448   8.132  2.6888 -0.7176 -2.6483
 2006TIP3   OH227652   6.425   6.567   0.111  0.1412 -0.2182 -0.6922
 2006TIP3    H127653   6.466   6.602   0.190 -2.0290  0.3115  0.2845
 2006TIP3    H227654   6.387   6.644   0.067  1.5079 -0.4679 -2.4155
 2007TIP3   OH227655   2.213   4.491   0.835  0.4662  0.0267  0.1420
 2007TIP3    H127656   2.166   4.574   0.833 -0.4879 -0.4836  0.7701
 2007TIP3    H227657   2.299   4.513   0.870  0.1688  0.7252  0.4493
 2008TIP3   OH227658   2.862   3.510   7.067 -0.4151  0.4840  0.0965
 2008TIP3    H127659   2.811   3.429   7.057 -0.7274  0.6656  0.2029
 2008TIP3    H227660   2.803   3.570   7.113  0.7050 -0.0666  2.4234
 2009TIP3   OH227661   1.410   6.228   0.737 -0.1998 -0.6547 -0.3656
 2009TIP3    H127662   1.433   6.299   0.678 -0.5071  0.5890  0.9526
 2009TIP3    H227663   1.327   6.254   0.776 -0.3421 -1.7575  0.1241
 2010TIP3   OH227664   3.872   3.906   8.989 -0.3156  0.1260 -0.0281
 2010TIP3    H127665   3.847   3.819   9.018 -1.6458  0.6709  0.5130
 2010TIP3    H227666   3.922   3.943   9.062 -0.7561  0.2478  0.2114
 2011TIP3   OH227667   2.178   4.533   8.217 -0.6644  0.4667 -0.1651
 2011TIP3    H127668   2.227   4.585   8.153  0.1152 -0.9039 -0.7279
 2011TIP3    H227669   2.228   4.451   8.224 -2.3616 -0.5979 -0.0337
 2012TIP3   OH227670   3.881   2.922   1.466  0.1420  0.0314 -0.3582
 2012TIP3    H127671   3.961   2.973   1.472  0.1979 -0.1819  1.1304
 2012TIP3    H227672   3.850   2.914   1.556 -1.2835 -0.3320 -0.8398
 2013TIP3   OH227673   1.254   2.628   2.565 -1.1873 -0.0468  0.2979
 2013TIP3    H127674   1.193   2.593   2.500 -0.4272 -0.7430 -0.0727
 2013TIP3    H227675   1.201   2.683   2.622 -1.8577  0.6919 -0.9904
 2014TIP3   OH227676   5.787   4.064   2.999  0.4226 -0.4865  0.3496
 2014TIP3    H127677   5.749   4.094   2.917 -0.9680 -2.7667  0.0812
 2014TIP3    H227678   5.881   4.062   2.982  0.8441  4.1917  0.6766
 2015TIP3   OH227679   5.771   4.083   8.093 -0.1751 -0.1465 -0.0662
 2015TIP3    H127680   5.827   4.148   8.135  0.0958  0.8347 -1.8527
 2015TIP3    H227681   5.692   4.081   8.147  0.1298  1.1033  0.4508
 2016TIP3   OH227682   1.507   5.980   1.783 -0.2846 -0.4628  0.2265
 2016TIP3    H127683   1.484   6.069   1.756 -0.8333 -0.9658 -1.0544
 2016TIP3    H227684   1.438   5.956   1.845 -0.3126 -0.1142  0.3376
 2017TIP3   OH227685   4.607   5.448   1.274 -0.2234  0.0272  0.5125
 2017TIP3    H127686   4.539   5.511   1.296  0.2435  1.7341 -2.3662
 2017TIP3    H227687   4.580   5.413   1.189  0.3278 -2.5874  1.3432
 2018TIP3   OH227688   3.736   0.171   9.011 -0.4646 -0.3105 -0.3197
 2018TIP3    H127689   3.645   0.183   8.983 -0.9830 -2.1473  0.4825
 2018TIP3    H227690   3.737   0.201   9.102 -1.0174 -2.8945  0.6327
 2019TIP3   OH227691   6.178   0.786   3.019 -0.0950 -0.5476  0.6668
 2019TIP3    H127692   6.270   0.786   2.991 -0.5955  0.6865 -1.1874
 2019TIP3    H227693   6.178   0.832   3.103  0.6847  2.1847 -0.7025
 2020TIP3   OH227694   6.246   3.602   8.653 -0.3130 -0.2041  0.2127
 2020TIP3    H127695   6.314   3.549   8.694  0.2060  1.4660  1.6520
 2020TIP3    H227696   6.260   3.591   8.559  0.3558 -1.8258  0.4676
 2021TIP3   OH227697   0.319   5.764   0.435  0.3731 -0.4016 -0.0916
 2021TIP3    H127698   0.270   5.841   0.406 -0.6835 -0.8646  0.4187
 2021TIP3    H227699   0.263   5.723   0.501  0.6434 -1.9221 -0.7478
 2022TIP3   OH227700   2.429   3.870   1.659 -0.5683  0.5221 -0.6614
 2022TIP3    H127701   2.414   3.940   1.723 -1.4904 -0.3831  0.1600
 2022TIP3    H227702   2.521   3.879   1.635 -0.6999  2.1143 -0.7130
 2023TIP3   OH227703   2.519   0.835   1.252  0.0513 -0.2634 -0.0605
 2023TIP3    H127704   2.601   0.800   1.286  0.7039 -0.8154 -2.0704
 2023TIP3    H227705   2.475   0.872   1.329  2.9833  1.6981  0.8632
 2024TIP3   OH227706   4.244   4.983   0.350  0.3084 -0.1254  0.2730
 2024TIP3    H127707   4.190   5.060   0.336  1.1141  0.1725 -1.5423
 2024TIP3    H227708   4.214   4.920   0.284  1.2258 -0.4649  0.1556
 2025TIP3   OH227709   4.899   0.610   9.184 -1.0324  0.0288  0.6206
 2025TIP3    H127710   4.880   0.589   9.275 -1.2016 -1.7864  0.2076
 2025TIP3    H227711   4.961   0.682   9.188 -2.9710  1.7113  2.1025
 2026TIP3   OH227712   5.380   4.256   7.249 -0.2200  0.6862 -0.2463
 2026TIP3    H127713   5.297   4.208   7.247 -0.2038  0.3416  2.7263
 2026TIP3    H227714   5.387   4.294   7.161 -2.5727 -0.8027 -1.2011
 2027TIP3   OH227715   4.911   6.485   2.451  0.5946 -0.6652  0.0744
 2027TIP3    H127716   4.871   6.572   2.444 -2.1142 -1.8965 -1.4381
 2027TIP3    H227717   4.864   6.442   2.522 -0.7192 -2.0851 -1.5859
 2028TIP3   OH227718   2.762   4.021   9.112  0.0697  0.5769  0.2251
 2028TIP3    H127719   2.753   4.111   9.080 -1.7698  0.9068  1.5090
 2028TIP3    H227720   2.724   3.967   9.042  0.5985  0.8304 -0.2699
 2029TIP3   OH227721   0.034   5.915   7.386 -0.0953 -0.9056 -0.1757
 2029TIP3    H127722   0.125   5.943   7.375 -0.2936  0.9153  2.0440
 2029TIP3    H227723  -0.002   5.916   7.297  1.1190  1.9250 -0.7422
 2030TIP3   OH227724   3.983   6.293   1.050 -0.6278  0.7203 -0.5841
 2030TIP3    H127725   3.999   6.317   1.141 -0.1087  3.0953 -1.2143
 2030TIP3    H227726   3.903   6.240   1.052  0.7340 -1.4581  1.4548
 2031TIP3   OH227727   5.664   4.902   1.855 -0.6238  0.1030 -0.7613
 2031TIP3    H127728   5.732   4.837   1.873  1.6257  2.2241 -1.0786
 2031TIP3    H227729   5.705   4.986   1.873 -3.3203  1.5213 -0.6246
 2032TIP3   OH227730   2.041   3.306   2.011 -0.0038  0.5021  0.2485
 2032TIP3    H127731   2.110   3.249   1.977  0.9801  1.5911  0.3619
 2032TIP3    H227732   2.002   3.257   2.083  2.4860  0.9198  2.0013
 2033TIP3   OH227733   0.454   1.688   8.011 -0.1072 -0.6113  0.2212
 2033TIP3    H127734   0.493   1.611   7.967 -1.8564  0.1605 -3.0540
 2033TIP3    H227735   0.371   1.655   8.046  0.4701 -0.8117  1.4513
 2034TIP3   OH227736   6.138   1.225   8.562 -0.0607 -0.2035  0.5683
 2034TIP3    H127737   6.194   1.150   8.542  0.4835 -0.2470  2.0887
 2034TIP3    H227738   6.080   1.233   8.486 -0.0701 -2.0963  0.3272
 2035TIP3   OH227739   1.550   4.141   8.267 -0.1121  0.2443  0.7572
 2035TIP3    H127740   1.457   4.146   8.245  0.0262  0.2329  0.1430
 2035TIP3    H227741   1.568   4.220   8.318 -0.4713  0.2161  0.9266
 2036TIP3   OH227742   4.342   4.209   8.502 -0.0197 -0.1878 -0.5117
 2036TIP3    H127743   4.293   4.248   8.430  1.3766 -0.9690 -1.9443
 2036TIP3    H227744   4.341   4.115   8.484 -1.9593 -0.7698  2.0095
 2037TIP3   OH227745   1.943   4.543   0.909  0.1463 -0.0020 -0.0697
 2037TIP3    H127746   1.896   4.608   0.857 -0.2055 -1.3340 -1.4915
 2037TIP3    H227747   1.877   4.477   0.930  0.8925 -0.8354 -0.2866
 2038TIP3   OH227748   3.932   4.236   2.990  0.1574 -0.2801 -0.1068
 2038TIP3    H127749   3.899   4.221   2.901  0.9826 -1.1636 -0.2735
 2038TIP3    H227750   3.897   4.164   3.041  1.8744 -1.3024 -0.3104
 2039TIP3   OH227751   5.218   5.261   7.872  0.1184  0.4967 -0.0593
 2039TIP3    H127752   5.279   5.320   7.915 -1.5043  0.2666  2.7648
 2039TIP3    H227753   5.263   5.177   7.870  0.7516  0.8322 -0.0844
 2040TIP3   OH227754   3.027   0.584   0.548  0.2968  0.2182 -0.3480
 2040TIP3    H127755   3.091   0.605   0.616 -1.0276  0.2582  0.9518
 2040TIP3    H227756   3.011   0.490   0.558 -0.7724  0.4365  0.2442
 2041TIP3   OH227757   1.458   1.920   8.138 -0.4556  0.0119 -0.3199
 2041TIP3    H127758   1.513   1.848   8.107 -0.3195  0.1519 -0.4021
 2041TIP3    H227759   1.400   1.939   8.064 -0.9176 -0.4350 -0.0769
 2042TIP3   OH227760   0.113   6.020   0.375  0.2592 -0.2500  0.5015
 2042TIP3    H127761   0.104   6.110   0.342 -0.1033 -1.4834 -3.1714
 2042TIP3    H227762   0.027   5.999   0.410  0.6058  1.0761  2.2879
 2043TIP3   OH227763   2.335   1.381   2.280 -0.4697  0.3257 -0.6250
 2043TIP3    H127764   2.247   1.417   2.266 -0.8388  0.0506  0.8683
 2043TIP3    H227765   2.394   1.451   2.251 -1.1664  0.5970 -1.4328
 2044TIP3   OH227766   3.340   4.326   7.352  0.0789  0.3980 -0.7747
 2044TIP3    H127767   3.257   4.332   7.304  0.4647  0.2143 -1.4685
 2044TIP3    H227768   3.376   4.414   7.348  0.6673  0.1299 -1.8462
 2045TIP3   OH227769   0.084   5.848   7.883  0.0591 -0.3626  0.6356
 2045TIP3    H127770   0.047   5.862   7.796  0.9869  0.7543  0.3979
 2045TIP3    H227771   0.112   5.756   7.883 -1.1793 -0.7535  0.2544
 2046TIP3   OH227772   4.920   1.195   7.515  0.5307  0.1282 -0.4930
 2046TIP3    H127773   4.925   1.174   7.422  0.5654 -1.2774 -0.2100
 2046TIP3    H227774   4.995   1.149   7.554 -0.1091 -0.2256  0.3625
 2047TIP3   OH227775   1.787   2.911   0.895 -0.2253 -0.1554 -0.8435
 2047TIP3    H127776   1.720   2.954   0.842  0.2405  2.6992  0.6841
 2047TIP3    H227777   1.761   2.928   0.985  0.6336 -2.2166 -0.1531
 2048TIP3   OH227778   4.898   2.767   0.255  0.2200  0.2961 -0.0848
 2048TIP3    H127779   4.993   2.779   0.246  0.4336 -1.1909 -0.1818
 2048TIP3    H227780   4.873   2.828   0.324  0.9618  1.8293 -1.1097
 2049TIP3   OH227781   1.802   1.361   2.650  0.8686 -0.4395  0.0433
 2049TIP3    H127782   1.889   1.397   2.634  0.6973  0.5156  1.1321
 2049TIP3    H227783   1.747   1.402   2.584  1.2130 -0.9778 -0.5934
 2050TIP3   OH227784   0.070   6.113   1.641 -0.0368  0.2445 -0.1646
 2050TIP3    H127785  -0.012   6.091   1.597 -1.0666  2.4466  0.4890
 2050TIP3    H227786   0.119   6.031   1.644 -1.3779 -0.7049 -2.2969
 2051TIP3   OH227787   4.803   2.175   1.020 -0.7099 -0.3463  0.2502
 2051TIP3    H127788   4.872   2.236   1.046 -1.6776  1.5917 -1.4881
 2051TIP3    H227789   4.735   2.185   1.088 -1.5092  1.7248 -0.7694
 2052TIP3   OH227790   2.189   3.010   0.685  0.0420  0.0581  0.7546
 2052TIP3    H127791   2.134   2.934   0.705  0.3417 -0.4136 -0.1254
 2052TIP3    H227792   2.274   2.989   0.723  0.0076  0.1431  0.8780
 2053TIP3   OH227793   5.573   0.683   0.462  0.4060  0.0940  0.3093
 2053TIP3    H127794   5.579   0.741   0.386  0.8874  1.6263  1.4706
 2053TIP3    H227795   5.637   0.614   0.446  0.3553  0.2837 -0.7508
 2054TIP3   OH227796   4.622   4.972   8.205 -0.3745  0.4553  0.6437
 2054TIP3    H127797   4.683   4.902   8.229  0.2899  0.3682 -1.1798
 2054TIP3    H227798   4.664   5.052   8.237 -0.1031  0.2333  0.8529
 2055TIP3   OH227799   3.616   5.657   1.106 -0.2808  0.6059 -0.2309
 2055TIP3    H127800   3.705   5.685   1.085  0.6384 -1.3148  0.7898
 2055TIP3    H227801   3.626   5.565   1.130 -2.3064  0.7491  1.4200
 2056TIP3   OH227802   2.219   4.558   0.433  0.2273  0.2747 -0.9753
 2056TIP3    H127803   2.147   4.507   0.469 -0.4662 -1.0705 -3.9115
 2056TIP3    H227804   2.257   4.501   0.365  3.0150  1.5964 -0.6822
 2057TIP3   OH227805   5.021   3.749   1.162  0.8054 -0.1889  0.5769
 2057TIP3    H127806   5.099   3.719   1.209  0.7308 -0.8918  0.2591
 2057TIP3    H227807   5.043   3.739   1.070  0.3581 -0.3411  0.4851
 2058TIP3   OH227808   2.098   2.044   8.179  0.2125 -0.2962  0.0010
 2058TIP3    H127809   2.132   2.048   8.269  1.6075 -0.6353 -0.4800
 2058TIP3    H227810   2.176   2.029   8.125 -0.4247  1.1005 -1.3959
 2059TIP3   OH227811   3.943   2.816   0.303 -0.7337  0.0319  0.3288
 2059TIP3    H127812   3.895   2.843   0.225 -0.9448  1.1241  0.8187
 2059TIP3    H227813   4.031   2.797   0.272 -1.2880 -1.4208 -0.4858
 2060TIP3   OH227814   3.677   2.591   0.010 -0.2822 -0.0257 -0.5089
 2060TIP3    H127815   3.649   2.507   0.047 -2.8779  0.7622 -0.4883
 2060TIP3    H227816   3.725   2.567  -0.070  0.3513 -1.5420  0.2771
 2061TIP3   OH227817   3.727   3.504   8.543  0.1173  0.1095  0.2897
 2061TIP3    H127818   3.639   3.543   8.540  0.5806  1.0732 -0.9958
 2061TIP3    H227819   3.715   3.417   8.505 -0.2650  0.2474  0.0846
 2062TIP3   OH227820   4.310   0.507   8.572 -0.4277 -0.3626  0.5685
 2062TIP3    H127821   4.376   0.577   8.569  1.0924 -1.7475 -0.5023
 2062TIP3    H227822   4.244   0.534   8.508  0.0255  0.1921  0.3258
 2063TIP3   OH227823   0.224   2.148   2.475 -0.5178  0.0621  0.2608
 2063TIP3    H127824   0.217   2.241   2.452  0.8666  0.0375 -0.3937
 2063TIP3    H227825   0.295   2.144   2.539  1.5749 -0.8211 -1.9520
 2064TIP3   OH227826   4.419   0.244   1.566 -0.1236 -0.1705  0.1559
 2064TIP3    H127827   4.422   0.332   1.606  0.6807 -1.8974  4.5014
 2064TIP3    H227828   4.499   0.239   1.514  0.6513  1.2242  1.1279
 2065TIP3   OH227829   2.480   4.951   2.072  0.7478 -0.0612  0.1578
 2065TIP3    H127830   2.466   4.888   2.002  1.1611 -0.3245  0.3104
 2065TIP3    H227831   2.436   4.913   2.148 -1.7915  1.3224 -0.4990
 2066TIP3   OH227832   6.201   3.520   1.747 -0.1635 -0.0529  0.9268
 2066TIP3    H127833   6.172   3.584   1.682  1.7839  0.3153  0.3742
 2066TIP3    H227834   6.127   3.513   1.808 -0.6099  2.3600  0.7497
 2067TIP3   OH227835   6.203   5.702   0.718 -0.8339  0.1745 -0.5673
 2067TIP3    H127836   6.220   5.765   0.788 -0.6146 -0.0546 -0.4097
 2067TIP3    H227837   6.149   5.635   0.760  1.7323 -1.5507  0.2714
 2068TIP3   OH227838   4.147   2.163   7.585 -0.0009 -0.4901 -0.0117
 2068TIP3    H127839   4.211   2.153   7.514  0.2660 -0.3767  0.2103
 2068TIP3    H227840   4.128   2.073   7.613  3.2030 -0.5297  2.7034
 2069TIP3   OH227841   4.299   4.974   8.849  0.2494  0.7874  0.0216
 2069TIP3    H127842   4.341   4.912   8.908 -0.3110 -0.1614 -0.5519
 2069TIP3    H227843   4.304   4.932   8.763 -0.3818  1.4226 -0.3365
 2070TIP3   OH227844   5.748   4.527   2.031  0.7781  0.0718  0.3711
 2070TIP3    H127845   5.656   4.516   2.057  0.6709 -0.3933 -0.1879
 2070TIP3    H227846   5.796   4.467   2.087  0.6046 -0.5631 -0.1543
 2071TIP3   OH227847   1.192   4.351   2.273  0.1594 -0.5019  0.3564
 2071TIP3    H127848   1.178   4.381   2.183 -0.6710 -0.9960  0.3172
 2071TIP3    H227849   1.139   4.272   2.281  1.5506 -1.4373  0.7531
 2072TIP3   OH227850   2.206   0.592   1.911 -0.1422 -0.0580 -0.1655
 2072TIP3    H127851   2.177   0.620   1.998  0.7426 -0.3595  0.2416
 2072TIP3    H227852   2.128   0.554   1.870 -0.1667 -1.6218  1.2096
 2073TIP3   OH227853   3.050   4.683   8.384  0.0455  0.0507 -0.3263
 2073TIP3    H127854   3.021   4.684   8.475  1.1885  2.3589  0.1079
 2073TIP3    H227855   3.124   4.622   8.383  0.1267  0.1269  0.3386
 2074TIP3   OH227856   0.331   3.900   8.201 -0.0423 -0.1909  0.2067
 2074TIP3    H127857   0.289   3.852   8.272 -1.7709 -0.3557 -0.8590
 2074TIP3    H227858   0.405   3.945   8.242 -0.1575 -1.3833  1.8078
 2075TIP3   OH227859   0.063   2.962   8.718 -0.1669 -0.0734  0.3254
 2075TIP3    H127860   0.103   2.977   8.632 -0.3817 -1.1649  0.0252
 2075TIP3    H227861  -0.019   3.012   8.714 -0.0606  0.0819 -0.0115
 2076TIP3   OH227862   3.751   3.657   9.030 -0.5091 -0.0796 -0.1219
 2076TIP3    H127863   3.795   3.616   8.956 -0.7402 -0.3594 -0.1089
 2076TIP3    H227864   3.661   3.624   9.025 -0.8961  0.9945 -0.5401
 2077TIP3   OH227865   1.866   0.518   1.529 -0.6810  0.0942 -0.1660
 2077TIP3    H127866   1.830   0.583   1.468  0.5105 -0.0504 -1.0740
 2077TIP3    H227867   1.941   0.481   1.482 -1.2029 -1.7938  0.4297
 2078TIP3   OH227868   3.325   3.562   2.117 -0.5751  1.1476 -0.2604
 2078TIP3    H127869   3.316   3.472   2.088 -0.2126  1.4575 -1.3903
 2078TIP3    H227870   3.300   3.560   2.210  2.2734 -0.6612  0.6047
 2079TIP3   OH227871   3.794   3.533   1.398 -0.2634  0.5797 -0.6732
 2079TIP3    H127872   3.740   3.550   1.321  0.6987  0.7100 -1.3451
 2079TIP3    H227873   3.797   3.438   1.405  0.8271  0.4972 -1.7099
 2080TIP3   OH227874   4.830   3.554   0.660 -0.7335 -1.1303  0.3523
 2080TIP3    H127875   4.814   3.630   0.605  0.5910 -0.7711  0.4248
 2080TIP3    H227876   4.799   3.479   0.609 -2.0889 -0.5478  0.3070
 2081TIP3   OH227877   5.117   3.204   0.903  0.0621  0.1153  0.1440
 2081TIP3    H127878   5.079   3.248   0.828  1.4165 -0.0919 -0.6918
 2081TIP3    H227879   5.113   3.269   0.974 -0.7478  0.4917 -0.2447
 2082TIP3   OH227880   2.712   5.524   7.683 -0.6386 -0.4082 -0.0013
 2082TIP3    H127881   2.770   5.449   7.698  0.2973  0.1930 -0.5919
 2082TIP3    H227882   2.706   5.531   7.588 -0.3380  0.5579  0.0423
 2083TIP3   OH227883   2.536   2.805   8.420 -0.1808  0.1725  0.8871
 2083TIP3    H127884   2.542   2.899   8.436 -3.0092  0.6727 -0.3341
 2083TIP3    H227885   2.477   2.772   8.487 -0.7604 -0.3413  0.1530
 2084TIP3   OH227886   2.514   2.036   2.335 -0.0035  0.4058  0.4418
 2084TIP3    H127887   2.496   2.037   2.241  0.0026 -0.6476  0.4138
 2084TIP3    H227888   2.428   2.039   2.376 -0.0825 -0.4923  0.3687
 2085TIP3   OH227889   3.748   2.102   0.826  0.1211  0.3223 -0.0782
 2085TIP3    H127890   3.800   2.180   0.807  0.5510  0.5540  1.8452
 2085TIP3    H227891   3.785   2.035   0.768  2.3255  0.5856  0.9072
 2086TIP3   OH227892   6.491   0.456   2.018  0.0596  0.1105  0.5885
 2086TIP3    H127893   6.413   0.498   2.056  1.3781  1.0482  2.3771
 2086TIP3    H227894   6.480   0.363   2.038 -0.9634  0.1196  0.1303
 2087TIP3   OH227895   1.158   1.218   8.856  0.4105 -0.0626 -0.5582
 2087TIP3    H127896   1.146   1.262   8.940  0.6262  0.7351 -0.9372
 2087TIP3    H227897   1.070   1.213   8.819  0.0147 -2.0713  0.4955
 2088TIP3   OH227898   4.912   2.219   7.876 -0.3938  0.0375  0.5490
 2088TIP3    H127899   4.840   2.171   7.836 -0.3476 -0.5700  1.1616
 2088TIP3    H227900   4.958   2.260   7.803 -1.2698  0.3107  0.1388
 2089TIP3   OH227901   3.957   0.754   8.206 -0.0007  0.2091 -0.0998
 2089TIP3    H127902   3.946   0.720   8.294 -1.4858  0.6718 -0.0734
 2089TIP3    H227903   3.867   0.763   8.172  0.5460 -0.7316 -1.9562
 2090TIP3   OH227904   1.193   3.843   7.422  0.0579 -0.1039 -0.3431
 2090TIP3    H127905   1.278   3.803   7.441  0.6728  0.4647 -1.7824
 2090TIP3    H227906   1.189   3.847   7.327 -1.0642  0.9874 -0.2724
 2091TIP3   OH227907   5.917   5.181   0.467  0.1073 -0.0389  0.2892
 2091TIP3    H127908   5.977   5.177   0.542  1.4251  0.3031 -0.7062
 2091TIP3    H227909   5.884   5.092   0.458  1.3626 -0.5186  0.1767
 2092TIP3   OH227910   1.586   2.438   2.082  0.0851 -0.4588  0.4431
 2092TIP3    H127911   1.520   2.497   2.117 -0.6280  0.2129 -1.8589
 2092TIP3    H227912   1.576   2.358   2.134 -1.4070  0.1853  1.2221
 2093TIP3   OH227913   3.686   2.798   0.185 -0.4048  0.5369  0.0479
 2093TIP3    H127914   3.695   2.723   0.127 -0.7687 -0.3245  1.0803
 2093TIP3    H227915   3.596   2.829   0.171 -0.8122 -0.2520  0.8098
 2094TIP3   OH227916   6.407   2.844   2.485 -0.3737 -0.2638  0.0921
 2094TIP3    H127917   6.421   2.769   2.542 -1.9951 -1.1489 -0.6247
 2094TIP3    H227918   6.373   2.807   2.404 -0.6791  1.1984 -0.4810
 2095TIP3   OH227919   0.823   6.660   8.555  0.4812  0.1801  0.5149
 2095TIP3    H127920   0.889   6.726   8.574 -0.2312  0.8184  0.8673
 2095TIP3    H227921   0.740   6.708   8.561  0.0478 -0.2831 -1.2914
 2096TIP3   OH227922   1.147   5.849   1.552  0.1818 -0.2165  0.0423
 2096TIP3    H127923   1.128   5.760   1.523 -1.5217 -0.1802  0.9339
 2096TIP3    H227924   1.151   5.843   1.647 -0.5715  0.7680  0.1449
 2097TIP3   OH227925   4.255   1.912   8.385  0.2356 -0.5269  0.4079
 2097TIP3    H127926   4.328   1.852   8.370 -1.1817 -1.9140 -1.2725
 2097TIP3    H227927   4.214   1.923   8.299  1.3975  4.2886  0.1581
 2098TIP3   OH227928   1.905   5.061   8.887 -0.7430 -0.2765  0.0115
 2098TIP3    H127929   1.911   5.054   8.792  1.5739  0.3597  0.0538
 2098TIP3    H227930   1.893   5.155   8.903  0.5822 -0.1483  0.3649
 2099TIP3   OH227931   1.679   4.918   7.582 -0.1875 -0.5450 -0.4763
 2099TIP3    H127932   1.754   4.859   7.581 -0.7371 -1.2790 -0.0573
 2099TIP3    H227933   1.676   4.954   7.494  0.7259 -0.4040 -0.4616
 2100TIP3   OH227934   4.953   2.015   0.129  0.2119  0.4934 -0.1612
 2100TIP3    H127935   4.890   2.075   0.089  0.3786  0.9898  0.3068
 2100TIP3    H227936   4.942   2.027   0.224 -0.6307 -1.1370 -0.0204
 2101TIP3   OH227937   3.932   0.445   0.278  0.3580  0.0650 -0.2606
 2101TIP3    H127938   3.854   0.484   0.319 -1.3337 -0.9518 -2.2883
 2101TIP3    H227939   3.949   0.502   0.203  0.1400 -0.9747 -1.1228
 2102TIP3   OH227940   0.303   0.366   7.493  0.1448  0.2641 -0.1257
 2102TIP3    H127941   0.289   0.302   7.423  1.4581  0.4302 -0.5685
 2102TIP3    H227942   0.227   0.423   7.490 -1.6360 -1.9015  0.9928
 2103TIP3   OH227943   0.760   6.367   7.934  0.5359 -0.6365 -0.3765
 2103TIP3    H127944   0.695   6.299   7.954  0.3001 -0.4041 -0.3446
 2103TIP3    H227945   0.845   6.323   7.944  0.4131 -0.6560  0.6697
 2104TIP3   OH227946   6.513   5.149   7.861  0.3060 -0.1416  0.0267
 2104TIP3    H127947   6.542   5.210   7.792 -2.3258  0.7313 -0.4027
 2104TIP3    H227948   6.481   5.073   7.813 -0.5653  0.0373  0.3043
 2105TIP3   OH227949   3.646   4.905   1.784 -0.4855 -0.2648  0.0941
 2105TIP3    H127950   3.732   4.868   1.804 -0.1792 -0.2813 -1.1683
 2105TIP3    H227951   3.624   4.870   1.698 -2.2328 -1.0704  0.8214
 2106TIP3   OH227952   6.536   1.569   1.465  0.9554  0.0945 -0.0832
 2106TIP3    H127953   6.477   1.634   1.504  1.9602  0.5958  0.6435
 2106TIP3    H227954   6.480   1.494   1.446 -0.1088  0.9280 -0.3395
 2107TIP3   OH227955   0.890   6.058   7.672  0.4376  0.1532 -0.1102
 2107TIP3    H127956   0.927   5.977   7.705  1.3582  0.8511  0.6320
 2107TIP3    H227957   0.958   6.124   7.689  0.3048  0.8306 -1.9676
 2108TIP3   OH227958   5.506   2.598   2.488 -0.1697  0.3138 -0.2951
 2108TIP3    H127959   5.495   2.525   2.428 -1.3031 -0.2405  0.5535
 2108TIP3    H227960   5.601   2.609   2.495 -0.0098  0.0142 -1.7054
 2109TIP3   OH227961   1.047   4.297   7.662 -0.1162  0.3502 -0.4170
 2109TIP3    H127962   1.090   4.373   7.702  1.5576 -0.6800 -0.1314
 2109TIP3    H227963   1.086   4.291   7.575  1.5113 -1.4518  0.3639
 2110TIP3   OH227964   3.813   4.839   2.608  0.0835 -0.6705 -0.3627
 2110TIP3    H127965   3.848   4.906   2.666  0.0464 -1.0902  0.1567
 2110TIP3    H227966   3.886   4.777   2.597  0.5005  0.0234 -1.7598
 2111TIP3   OH227967   5.538   1.661   8.022 -0.2211 -0.3767  0.0871
 2111TIP3    H127968   5.516   1.732   7.960 -0.7582  0.9648  1.7373
 2111TIP3    H227969   5.622   1.628   7.991 -0.1780  0.6741 -1.0158
 2112TIP3   OH227970   5.419   6.134   0.598  0.2542 -0.3319  0.8022
 2112TIP3    H127971   5.397   6.168   0.684  0.5862  0.9097  0.4227
 2112TIP3    H227972   5.366   6.055   0.588 -1.6027  0.8104  1.1824
 2113TIP3   OH227973   4.239   3.518   7.805 -0.1010  0.0099  0.2863
 2113TIP3    H127974   4.333   3.511   7.788 -0.3888 -0.8735 -1.0303
 2113TIP3    H227975   4.234   3.535   7.899  1.3786  0.2496  0.3505
 2114TIP3   OH227976   1.740   5.928   8.545  0.4030 -1.0782 -0.2626
 2114TIP3    H127977   1.653   5.968   8.534 -0.0943 -1.8487  0.7126
 2114TIP3    H227978   1.801   5.995   8.514 -0.5609 -0.8139 -1.7199
 2115TIP3   OH227979   6.549   0.959   8.306 -0.2552  0.4253 -0.4293
 2115TIP3    H127980   6.454   0.950   8.302 -0.3505  0.5840  0.9324
 2115TIP3    H227981   6.563   1.047   8.343  0.3612 -0.2509  1.0337
 2116TIP3   OH227982   0.502   2.886   8.561 -1.2231  0.2984  0.3561
 2116TIP3    H127983   0.461   2.909   8.478  0.6453 -0.0380 -0.7129
 2116TIP3    H227984   0.592   2.916   8.552 -0.0923 -2.6218  0.9856
 2117TIP3   OH227985   0.407   4.561   9.055  0.5222  0.0491  0.2709
 2117TIP3    H127986   0.361   4.643   9.074 -0.0912 -0.8898  3.4310
 2117TIP3    H227987   0.382   4.539   8.965 -1.0258  2.2146  0.1023
 2118TIP3   OH227988   1.221   0.749   0.993 -0.3075  0.3178 -0.0142
 2118TIP3    H127989   1.139   0.739   1.042 -0.4095 -0.8018 -0.3766
 2118TIP3    H227990   1.260   0.830   1.027 -1.4875  0.7882  0.2577
 2119TIP3   OH227991   5.819   0.857   8.101  0.0273 -0.0497  0.0453
 2119TIP3    H127992   5.855   0.771   8.077  0.1552  0.2156 -0.7225
 2119TIP3    H227993   5.822   0.857   8.197  1.6153 -0.2370  0.0354
 2120TIP3   OH227994   1.837   4.881   7.302  0.6001 -0.2328 -0.0267
 2120TIP3    H127995   1.930   4.903   7.298  0.7147 -0.4125  1.3135
 2120TIP3    H227996   1.796   4.942   7.241  1.4253  0.8806  0.4931
 2121TIP3   OH227997   5.516   2.539   1.324 -1.1166  0.9478 -0.5222
 2121TIP3    H127998   5.526   2.620   1.274  0.1755  1.2499  0.1778
 2121TIP3    H227999   5.443   2.556   1.383 -1.1873  1.4133 -0.7384
 2122TIP3   OH228000   5.047   4.367   1.084 -0.0152 -0.8087  0.4330
 2122TIP3    H128001   5.108   4.439   1.070  0.3652 -1.1520  0.3231
 2122TIP3    H228002   5.024   4.373   1.177 -0.4675 -0.1733  0.2931
 2123TIP3   OH228003   0.390   1.754   1.751 -0.2376 -0.3536  0.0168
 2123TIP3    H128004   0.443   1.776   1.674 -1.1235  0.3625 -0.4201
 2123TIP3    H228005   0.364   1.663   1.738  1.2852 -0.8908  0.5034
 2124TIP3   OH228006   5.970   1.344   2.982  0.1104  0.1255  0.5920
 2124TIP3    H128007   5.887   1.360   3.026 -0.7410 -1.5643 -0.3000
 2124TIP3    H228008   5.961   1.257   2.944  1.8775  0.3468 -0.4733
 2125TIP3   OH228009   3.167   0.214   1.329  0.0943 -0.0789  0.2218
 2125TIP3    H128010   3.161   0.309   1.316  0.1574  0.1216  1.5193
 2125TIP3    H228011   3.195   0.204   1.420 -0.9978 -1.3639  0.4418
 2126TIP3   OH228012   5.845   4.010   1.254 -0.1379 -0.4756 -0.1081
 2126TIP3    H128013   5.844   3.924   1.296 -0.2184  0.3603  1.7306
 2126TIP3    H228014   5.932   4.045   1.272  0.1858 -0.4658 -1.5553
 2127TIP3   OH228015   4.667   1.880   1.280  0.2080  0.2205  0.3855
 2127TIP3    H128016   4.657   1.943   1.351  0.1530 -1.7393  2.2293
 2127TIP3    H228017   4.577   1.861   1.253  0.1629  0.0990  0.6168
 2128TIP3   OH228018   0.125   5.924   2.384  0.1193 -0.0861  0.0760
 2128TIP3    H128019   0.200   5.950   2.332 -0.8867  0.5459 -1.1294
 2128TIP3    H228020   0.077   5.862   2.328  0.3312 -1.4018  1.2827
 2129TIP3   OH228021   5.144   6.477   8.806 -0.2992  0.4351 -0.0784
 2129TIP3    H128022   5.074   6.441   8.751 -0.2053  1.3507 -0.8088
 2129TIP3    H228023   5.178   6.400   8.853 -1.3497 -0.1281 -0.1922
 2130TIP3   OH228024   4.724   6.157   8.986  0.4998 -0.2120 -0.2427
 2130TIP3    H128025   4.818   6.156   9.008  0.7071 -0.4575 -1.0970
 2130TIP3    H228026   4.700   6.065   8.981  0.3599 -0.1557 -0.6151
 2131TIP3   OH228027   2.323   3.834   0.203 -0.7499  0.1829 -0.5821
 2131TIP3    H128028   2.260   3.818   0.273  1.2705 -0.0517  1.2689
 2131TIP3    H228029   2.319   3.755   0.149 -2.0748  0.2189 -0.5663
 2132TIP3   OH228030   2.010   3.969   8.538  0.0746 -0.7005 -0.3356
 2132TIP3    H128031   1.933   3.982   8.484 -0.3932 -0.4774  0.3734
 2132TIP3    H228032   2.083   4.001   8.484 -0.4192 -0.1849 -0.7004
 2133TIP3   OH228033   0.547   4.644   8.518  0.0338  0.0086  0.1954
 2133TIP3    H128034   0.565   4.731   8.482 -0.9503  0.1920  0.1271
 2133TIP3    H228035   0.612   4.633   8.588 -0.1354  0.9938  0.5181
 2134TIP3   OH228036   1.625   3.490   8.996  0.3302 -0.9540 -0.3328
 2134TIP3    H128037   1.707   3.459   8.958  0.5626  0.2928 -0.8983
 2134TIP3    H228038   1.625   3.455   9.085  1.4089 -1.1035 -0.3747
 2135TIP3   OH228039   3.789   1.575   8.396 -0.0712  0.0036  0.8999
 2135TIP3    H128040   3.858   1.521   8.434  0.9037 -1.4739 -2.5681
 2135TIP3    H228041   3.835   1.641   8.345 -1.2793  1.0866  1.1607
 2136TIP3   OH228042   1.438   2.426   1.834  0.0286  0.4291  0.0123
 2136TIP3    H128043   1.418   2.354   1.892 -2.3008  1.0413  0.0406
 2136TIP3    H228044   1.534   2.426   1.828  0.1519 -1.6913  1.1767
 2137TIP3   OH228045   0.815   6.146   7.418 -0.1864  0.0667 -0.0647
 2137TIP3    H128046   0.821   6.128   7.512 -0.1971 -0.0692 -0.0900
 2137TIP3    H228047   0.894   6.108   7.381 -0.7019 -0.8282 -0.2580
 2138TIP3   OH228048   6.635   3.149   1.210  0.0864 -0.1046  0.0937
 2138TIP3    H128049   6.665   3.207   1.140  0.1567  1.1857  1.1373
 2138TIP3    H228050   6.674   3.064   1.189  1.5967  0.6790 -0.4817
 2139TIP3   OH228051   0.144   0.256   2.072  0.1187 -0.1047  1.0107
 2139TIP3    H128052   0.129   0.284   1.982 -1.1467 -1.4864  0.7693
 2139TIP3    H228053   0.120   0.332   2.125  0.2509  0.4948  0.2376
 2140TIP3   OH228054   5.448   2.213   9.165 -0.5395 -0.3999 -0.6533
 2140TIP3    H128055   5.353   2.219   9.180 -0.4649 -2.3894  1.1547
 2140TIP3    H228056   5.458   2.139   9.106 -0.0575 -1.5325  0.7892
 2141TIP3   OH228057   3.575   2.710   7.867  0.6278 -0.0852  0.4196
 2141TIP3    H128058   3.592   2.726   7.774  0.2424 -0.2753  0.3143
 2141TIP3    H228059   3.660   2.721   7.909  0.8481 -0.2140  0.0135
 2142TIP3   OH228060   3.518   1.054   7.765  0.1768 -0.9075  0.7095
 2142TIP3    H128061   3.603   1.087   7.792 -0.0501  0.6450 -0.3433
 2142TIP3    H228062   3.529   1.035   7.672 -1.1393  1.3453  0.0079
 2143TIP3   OH228063   1.488   0.293   0.305 -0.2180  0.4254  0.1567
 2143TIP3    H128064   1.570   0.244   0.311  0.3798  1.1270 -1.7449
 2143TIP3    H228065   1.505   0.361   0.240 -2.5850 -0.0052 -1.0152
 2144TIP3   OH228066   1.793   2.876   2.280 -0.5600  0.4957 -0.0523
 2144TIP3    H128067   1.731   2.835   2.219 -0.5788  1.1780 -0.4965
 2144TIP3    H228068   1.868   2.901   2.225 -0.0169 -0.0298  0.4263
 2145TIP3   OH228069   1.907   4.342   8.175  0.0225  0.1332 -0.4588
 2145TIP3    H128070   1.980   4.361   8.116  0.8623  0.3253  0.6112
 2145TIP3    H228071   1.929   4.256   8.212 -0.4533  0.0557 -0.3543
 2146TIP3   OH228072   0.673   0.819   0.722  0.3416 -0.4146 -0.2189
 2146TIP3    H128073   0.614   0.803   0.648 -0.7439  3.7794 -0.4941
 2146TIP3    H228074   0.627   0.780   0.797 -0.7898 -0.7557 -1.0552
 2147TIP3   OH228075   2.669   0.027   1.951  0.0624  0.2938  0.0692
 2147TIP3    H128076   2.627   0.088   2.012  0.3765  0.9237 -0.3352
 2147TIP3    H228077   2.721  -0.030   2.008 -1.1257 -0.3421  0.5507
 2148TIP3   OH228078   4.039   3.078   1.050 -0.4048  0.1366  0.5145
 2148TIP3    H128079   4.128   3.046   1.062 -0.6349 -0.1440  1.5823
 2148TIP3    H228080   4.045   3.172   1.064 -0.2834  0.1106  0.6435
 2149TIP3   OH228081   3.370   0.798   7.271 -0.4315 -0.0198 -0.4619
 2149TIP3    H128082   3.361   0.802   7.367 -0.0945 -0.3986 -0.4133
 2149TIP3    H228083   3.327   0.878   7.240 -1.7291 -0.5320 -0.0836
 2150TIP3   OH228084   5.050   4.701   7.767  0.2120  0.1495 -0.1816
 2150TIP3    H128085   4.975   4.758   7.780  0.4815  0.0183  2.6818
 2150TIP3    H228086   5.012   4.615   7.749 -0.1937  0.8106 -3.0008
 2151TIP3   OH228087   0.955   3.517   8.559 -0.0409 -0.2813  0.0360
 2151TIP3    H128088   0.945   3.586   8.625  0.1165 -0.4508  0.2387
 2151TIP3    H228089   1.041   3.532   8.520  0.2668 -0.7439  0.5257
 2152TIP3   OH228090   2.343   5.464   0.800 -0.3787 -0.1867 -0.6381
 2152TIP3    H128091   2.351   5.393   0.865  2.2437  0.5980  0.0151
 2152TIP3    H228092   2.312   5.420   0.721  1.8312 -2.2458 -0.4692
 2153TIP3   OH228093   5.180   5.062   2.633 -0.3834 -0.0189  0.1971
 2153TIP3    H128094   5.102   5.041   2.685  0.5782 -3.2938  0.5468
 2153TIP3    H228095   5.239   5.105   2.695 -1.6311  2.1361  0.0251
 2154TIP3   OH228096   5.032   3.985   8.698 -0.4758 -0.0148 -0.2928
 2154TIP3    H128097   5.085   3.992   8.619 -0.8416 -0.4413 -0.5834
 2154TIP3    H228098   4.971   4.057   8.694 -1.1703 -0.6266 -0.9220
 2155TIP3   OH228099   2.069   1.409   2.644  0.1890  0.0875 -0.2920
 2155TIP3    H128100   2.075   1.408   2.549  1.5022 -1.2518 -0.2259
 2155TIP3    H228101   2.115   1.489   2.670 -0.8119  0.8461 -0.7936
 2156TIP3   OH228102   2.499   3.175   0.064  0.7595  0.0520 -0.2444
 2156TIP3    H128103   2.568   3.142   0.123  0.2821 -1.7920 -0.6397
 2156TIP3    H228104   2.426   3.114   0.077 -0.0791  0.8051 -1.2821
 2157TIP3   OH228105   2.274   0.433   9.085  0.4715 -0.6717  0.4529
 2157TIP3    H128106   2.255   0.342   9.105  1.1421 -1.1208 -0.8804
 2157TIP3    H228107   2.356   0.451   9.130 -0.5604 -0.1453  2.2343
 2158TIP3   OH228108   0.537   1.513   0.054 -0.0539  0.5739 -0.0453
 2158TIP3    H128109   0.484   1.456  -0.002  2.3976 -0.6846 -1.2558
 2158TIP3    H228110   0.495   1.598   0.048 -1.5953 -0.2105 -1.3815
 2159TIP3   OH228111   1.339   5.771   8.101  0.3027  0.2154 -0.2630
 2159TIP3    H128112   1.255   5.767   8.146 -0.0329 -1.2261 -0.9521
 2159TIP3    H228113   1.403   5.749   8.169 -0.3688 -4.2103 -0.7385
 2160TIP3   OH228114   2.921   1.467   8.802  0.5803 -0.2828  0.3387
 2160TIP3    H128115   2.924   1.541   8.742  0.3213 -0.7081 -0.2069
 2160TIP3    H228116   2.936   1.391   8.746  1.7330 -0.5833  1.0216
 2161TIP3   OH228117   2.625   3.574   9.137  0.1177 -0.3242  0.1403
 2161TIP3    H128118   2.583   3.660   9.140 -0.1915 -0.4897  0.5266
 2161TIP3    H228119   2.668   3.572   9.051 -0.9947 -0.3135 -0.4377
 2162TIP3   OH228120   5.994   1.205   1.305 -0.0782 -0.6516 -0.3160
 2162TIP3    H128121   5.914   1.188   1.255  0.5576 -0.5289 -1.3894
 2162TIP3    H228122   5.981   1.293   1.340  0.4288  0.2245 -2.1945
 2163TIP3   OH228123   4.435   4.920   1.673  0.7376 -0.3277 -0.8123
 2163TIP3    H128124   4.464   4.868   1.598 -1.3711 -1.3181 -1.0004
 2163TIP3    H228125   4.351   4.957   1.646 -0.8213 -1.9191  1.5297
 2164TIP3   OH228126   0.988   3.755   2.173  0.1040  0.3086  0.1944
 2164TIP3    H128127   1.006   3.680   2.116  0.1128  0.1826  0.3587
 2164TIP3    H228128   1.043   3.739   2.250 -1.2340 -0.4543  1.0205
 2165TIP3   OH228129   1.788   6.650   2.782  0.3149 -0.1220 -0.1657
 2165TIP3    H128130   1.821   6.570   2.742 -0.6355 -0.5466 -0.1411
 2165TIP3    H228131   1.855   6.716   2.764  1.1520 -0.9327 -0.1170
 2166TIP3   OH228132   0.130   0.870   0.996  0.5674  0.2757  0.3362
 2166TIP3    H128133   0.161   0.779   0.994 -0.4817 -0.1691 -3.1018
 2166TIP3    H228134   0.038   0.864   1.022  0.9281  0.6052  1.7806
 2167TIP3   OH228135   3.769   3.274   1.491  0.4263 -0.0776  0.9242
 2167TIP3    H128136   3.722   3.234   1.564  0.2222 -1.6191 -0.0226
 2167TIP3    H228137   3.857   3.239   1.497  0.5215  0.1168  0.6737
 2168TIP3   OH228138   0.418   0.814   2.075  0.6205  0.5339 -0.0172
 2168TIP3    H128139   0.495   0.758   2.074 -0.2661 -0.7731 -1.9948
 2168TIP3    H228140   0.350   0.762   2.033 -1.8018  1.0662  2.8952
 2169TIP3   OH228141   5.618   5.356   2.609  0.9894 -0.3145 -0.2111
 2169TIP3    H128142   5.599   5.279   2.662 -1.0622  0.1683 -0.1756
 2169TIP3    H228143   5.671   5.412   2.666 -0.8441  0.0255  1.2518
 2170TIP3   OH228144   2.499   6.133   1.359 -0.0866 -0.4097  0.3914
 2170TIP3    H128145   2.583   6.169   1.331 -0.7629  0.5802 -0.4071
 2170TIP3    H228146   2.521   6.077   1.434  1.1005  1.0214  1.1651
 2171TIP3   OH228147   4.857   1.286   0.415 -0.0443  0.2818 -0.5467
 2171TIP3    H128148   4.804   1.258   0.489 -1.6446  0.6533 -1.5227
 2171TIP3    H228149   4.920   1.347   0.453 -0.3689 -0.0798  0.6165
 2172TIP3   OH228150   6.324   5.809   0.989 -0.2785  0.0241  0.3429
 2172TIP3    H128151   6.407   5.856   0.993 -0.3047  0.3214 -1.8287
 2172TIP3    H228152   6.260   5.871   1.024  0.3508 -0.2125  2.0413
 2173TIP3   OH228153   0.022   0.803   0.570 -0.1878 -0.4416 -0.9574
 2173TIP3    H128154   0.101   0.838   0.611  0.0729  2.1303 -3.3775
 2173TIP3    H228155  -0.048   0.864   0.594 -1.3210 -2.1192  0.3101
 2174TIP3   OH228156   5.745   1.131   7.777  0.7013  0.2162 -0.1415
 2174TIP3    H128157   5.728   1.123   7.871  1.5786  1.8123  0.1866
 2174TIP3    H228158   5.681   1.196   7.747  0.2287 -0.5005 -0.7368
 2175TIP3   OH228159   1.192   2.464   0.641 -0.2474 -0.1847 -0.0206
 2175TIP3    H128160   1.237   2.427   0.565  1.8806 -0.1942  1.1772
 2175TIP3    H228161   1.149   2.388   0.682 -0.0652 -0.4525 -0.3187
 2176TIP3   OH228162   5.759   6.484   2.457 -0.6578 -0.0214 -0.2082
 2176TIP3    H128163   5.819   6.558   2.465 -1.7821  0.7715  1.6786
 2176TIP3    H228164   5.728   6.487   2.367  1.4561  0.0208 -1.0070
 2177TIP3   OH228165   1.232   6.162   2.086  0.3569  0.9304 -0.3400
 2177TIP3    H128166   1.226   6.118   2.001  0.7345  0.9027 -0.3543
 2177TIP3    H228167   1.211   6.253   2.068 -0.7079  0.7134 -0.2654
 2178TIP3   OH228168   2.569   4.451   0.417 -0.0592  0.2857  0.3712
 2178TIP3    H128169   2.574   4.513   0.343  0.0546  0.0947  0.2180
 2178TIP3    H228170   2.661   4.438   0.443 -0.1430  0.9531  1.0510
 2179TIP3   OH228171   1.229   1.672   0.605  0.1329 -0.2798  0.0705
 2179TIP3    H128172   1.239   1.582   0.638 -0.4912 -0.6051 -0.6045
 2179TIP3    H228173   1.227   1.726   0.683  0.0420 -0.9017  0.5083
 2180TIP3   OH228174   5.043   4.320   0.706  0.1718  0.4192 -0.0340
 2180TIP3    H128175   4.964   4.299   0.657  0.8582 -0.8414 -0.6593
 2180TIP3    H228176   5.082   4.235   0.727  2.2381  0.9895 -1.2291
 2181TIP3   OH228177   1.214   1.564   2.273  0.5181  0.1835  0.4216
 2181TIP3    H128178   1.182   1.610   2.350 -0.5896 -0.5817  0.4375
 2181TIP3    H228179   1.162   1.598   2.200 -1.3684 -1.9630  0.6272
 2182TIP3   OH228180   3.338   1.378   9.150 -0.4198 -0.2409  1.0038
 2182TIP3    H128181   3.354   1.288   9.179  0.2573 -1.1416 -1.8284
 2182TIP3    H228182   3.425   1.412   9.129 -0.8448  0.3822  0.2308
 2183TIP3   OH228183   5.528   5.687   8.799 -0.6718 -0.6767  0.2280
 2183TIP3    H128184   5.580   5.659   8.874  2.7362  0.4322 -1.4962
 2183TIP3    H228185   5.452   5.731   8.838  0.1373 -1.4813  2.9598
 2184TIP3   OH228186   1.193   1.498   1.054 -0.2971 -0.5495  0.6505
 2184TIP3    H128187   1.189   1.518   1.148  1.5509 -0.0161  0.6424
 2184TIP3    H228188   1.171   1.580   1.010 -1.3904 -0.8559  0.5788
 2185TIP3   OH228189   2.931   5.746   8.177 -0.7026 -0.2782  0.5064
 2185TIP3    H128190   2.923   5.662   8.222  1.2634  0.1965  1.8602
 2185TIP3    H228191   2.857   5.748   8.116 -1.7133 -2.2717  1.5822
 2186TIP3   OH228192   5.418   3.883   2.129  0.4087  0.1382  0.0359
 2186TIP3    H128193   5.443   3.970   2.100  0.2514 -0.0625 -0.7396
 2186TIP3    H228194   5.448   3.825   2.059  0.9253 -0.4825  0.7575
 2187TIP3   OH228195   1.557   3.733   7.729 -0.4437  0.7359 -0.1864
 2187TIP3    H128196   1.641   3.690   7.715 -2.5215 -3.6818 -0.6705
 2187TIP3    H228197   1.525   3.697   7.812 -3.0255  0.0152 -1.3909
 2188TIP3   OH228198   5.198   2.542   2.070  0.0530  0.1106  0.1133
 2188TIP3    H128199   5.145   2.464   2.086  0.0434  0.2324  0.6785
 2188TIP3    H228200   5.221   2.536   1.977 -2.3334  0.9265 -0.5918
 2189TIP3   OH228201   4.869   0.121   0.816  0.1246 -0.1739  0.0053
 2189TIP3    H128202   4.785   0.077   0.803 -0.7903  1.6853 -0.7369
 2189TIP3    H228203   4.910   0.074   0.888 -0.2326 -2.9616 -1.5055
 2190TIP3   OH228204   3.925   6.183   1.731  0.0727  0.2550  0.1584
 2190TIP3    H128205   3.901   6.275   1.717  0.1057 -0.0231 -2.1604
 2190TIP3    H228206   4.010   6.174   1.687 -0.3303 -1.0642 -0.4022
 2191TIP3   OH228207   3.588   4.360   0.669  0.3373 -0.7584  0.1413
 2191TIP3    H128208   3.495   4.358   0.643  0.3149  0.1443  0.1243
 2191TIP3    H228209   3.635   4.353   0.586  0.2705  0.6507 -0.0261
 2192TIP3   OH228210   5.261   4.662   7.579  0.0667 -0.4814  0.3991
 2192TIP3    H128211   5.181   4.661   7.631  0.0835  1.7205  0.5509
 2192TIP3    H228212   5.241   4.718   7.505  0.5180 -2.4060 -1.2794
 2193TIP3   OH228213   4.103   1.382   8.076  0.5965  0.2261 -0.0528
 2193TIP3    H128214   4.026   1.325   8.077  0.7343  0.0087  1.6251
 2193TIP3    H228215   4.119   1.400   7.983 -0.1896 -1.4731 -0.5549
 2194TIP3   OH228216   5.097   5.121   1.056 -0.3557  0.0184 -0.2289
 2194TIP3    H128217   5.185   5.153   1.078 -0.4898  0.2910 -0.0829
 2194TIP3    H228218   5.105   5.089   0.967  0.6359 -2.6952  0.7342
 2195TIP3   OH228219   1.528   6.132   8.517  0.4212  0.2329 -0.1923
 2195TIP3    H128220   1.584   6.208   8.499  0.0593  0.5715  0.0925
 2195TIP3    H228221   1.470   6.162   8.587 -1.6558  0.6637 -2.0143
 2196TIP3   OH228222   4.891   6.049   1.341  0.0912  0.2982 -0.3516
 2196TIP3    H128223   4.834   5.972   1.347  0.4188  0.1462  1.2448
 2196TIP3    H228224   4.957   6.025   1.276 -0.5023 -0.2989 -0.7476
 2197TIP3   OH228225   2.368   5.503   8.497 -0.3252  0.0154  0.2451
 2197TIP3    H128226   2.453   5.481   8.460 -0.0445  0.8314  0.3807
 2197TIP3    H228227   2.383   5.509   8.591 -0.3304  0.9425  0.2044
 2198TIP3   OH228228   4.006   1.364   0.015  0.5016 -0.6012  0.0589
 2198TIP3    H128229   3.949   1.441   0.019  0.4181 -0.5540 -1.4725
 2198TIP3    H228230   4.093   1.398   0.037 -0.0291 -0.7274  2.6880
 2199TIP3   OH228231   2.741   6.339   0.131  1.2232  0.2249  0.1616
 2199TIP3    H128232   2.722   6.429   0.158  1.2278  0.0902  0.6256
 2199TIP3    H228233   2.823   6.346   0.082  0.9626  0.5421 -0.2418
 2200TIP3   OH228234   6.397   3.119   2.515  0.1516 -0.8849 -0.2544
 2200TIP3    H128235   6.406   3.023   2.510 -3.8547 -1.4400 -0.0424
 2200TIP3    H228236   6.391   3.136   2.609 -3.1956 -1.1195 -0.3020
 2201TIP3   OH228237   0.008   6.513   0.085  0.0178 -0.1132  0.2152
 2201TIP3    H128238  -0.084   6.535   0.072  0.1174  0.0300 -0.2976
 2201TIP3    H228239   0.037   6.567   0.158 -0.0605  0.5613 -0.2415
 2202TIP3   OH228240   0.358   5.282   8.610  0.1004 -0.1353 -0.7226
 2202TIP3    H128241   0.391   5.236   8.688 -0.0773 -0.6929 -0.9724
 2202TIP3    H228242   0.265   5.294   8.627  0.2620  0.6971 -0.3850
 2203TIP3   OH228243   2.475   5.451   7.828  0.2165  0.1999 -0.0640
 2203TIP3    H128244   2.558   5.486   7.797  0.1092  1.3345  0.8583
 2203TIP3    H228245   2.413   5.469   7.758  0.6227 -0.1313 -0.5118
 2204TIP3   OH228246   5.764   5.170   9.006 -0.3789  0.6355  0.3580
 2204TIP3    H128247   5.779   5.129   9.092  0.0165 -1.6592 -0.7206
 2204TIP3    H228248   5.683   5.220   9.018 -2.3795 -2.4742  1.2404
 2205TIP3   OH228249   4.370   1.899   0.052  0.4247  0.0995  0.3634
 2205TIP3    H128250   4.342   1.929   0.138 -1.1954 -1.0001  0.2723
 2205TIP3    H228251   4.289   1.891   0.002  1.4418  2.2254 -1.8078
 2206TIP3   OH228252   6.095   1.886   7.928  0.3231 -0.8091 -0.4235
 2206TIP3    H128253   6.190   1.886   7.912  0.5299  1.3109  0.5058
 2206TIP3    H228254   6.085   1.848   8.015  0.3187 -0.9035 -0.4644
 2207TIP3   OH228255   6.395   3.819   8.922 -0.2898 -0.2857 -0.0949
 2207TIP3    H128256   6.372   3.799   9.013 -1.0280  0.5298 -0.0854
 2207TIP3    H228257   6.459   3.890   8.929  0.9922 -1.4022 -0.1759
 2208TIP3   OH228258   5.389   1.073   1.023 -0.3100  0.2560  0.0900
 2208TIP3    H128259   5.429   1.151   1.063  1.2940  0.4182 -1.6819
 2208TIP3    H228260   5.310   1.105   0.981  0.1361  0.8812 -0.2915
 2209TIP3   OH228261   4.143   6.546   0.890  0.1615 -0.1186  0.1223
 2209TIP3    H128262   4.076   6.505   0.835  1.4349 -0.2838 -1.3551
 2209TIP3    H228263   4.116   6.638   0.895 -0.8923 -0.4407  0.6849
 2210TIP3   OH228264   0.776   3.321   0.536 -0.4033  0.3620 -0.0996
 2210TIP3    H128265   0.819   3.255   0.482  0.7756  1.1812 -0.1928
 2210TIP3    H228266   0.812   3.306   0.624  1.4583  2.1446 -0.4978
 2211TIP3   OH228267   5.818   2.092   1.736 -0.3431  0.3576 -0.6809
 2211TIP3    H128268   5.849   2.176   1.770  1.0420 -0.3548 -0.0865
 2211TIP3    H228269   5.761   2.058   1.806  1.7983 -0.6970  0.6864
 2212TIP3   OH228270   4.666   0.208   1.462  0.2518  0.7311 -0.1335
 2212TIP3    H128271   4.688   0.301   1.459 -1.4765  1.1862  0.0262
 2212TIP3    H228272   4.701   0.178   1.546  4.6791  0.0853 -1.9259
 2213TIP3   OH228273   3.875   2.352   0.796  0.5229 -0.1495 -0.3750
 2213TIP3    H128274   3.859   2.392   0.711 -1.4148 -1.8500 -0.9024
 2213TIP3    H228275   3.953   2.298   0.784 -0.3501 -1.2251 -1.4386
 2214TIP3   OH228276   3.044   2.164   8.598  0.5156  0.2224 -0.3550
 2214TIP3    H128277   3.077   2.145   8.510 -1.6121 -0.6378 -1.0375
 2214TIP3    H228278   2.980   2.234   8.585 -0.4162 -0.4671  0.3709
 2215TIP3   OH228279   2.018   5.441   1.071  0.5173  0.0012  0.5264
 2215TIP3    H128280   1.935   5.417   1.029  0.3514  0.0369  0.8337
 2215TIP3    H228281   2.049   5.516   1.020 -0.4613  1.0527  1.4179
 2216TIP3   OH228282   5.416   3.331   7.701  0.9181  0.2549  0.0344
 2216TIP3    H128283   5.423   3.404   7.640  0.6218  0.4248  0.2043
 2216TIP3    H228284   5.353   3.360   7.767 -0.1485 -0.5951 -0.5581
 2217TIP3   OH228285   0.573   4.642   0.237  0.0027 -0.1262 -0.3189
 2217TIP3    H128286   0.637   4.607   0.298 -2.2760 -4.6589 -0.1629
 2217TIP3    H228287   0.507   4.684   0.292 -0.6406 -1.7208  0.1515
 2218TIP3   OH228288   2.599   2.261   8.508  0.4343  0.3585 -0.2152
 2218TIP3    H128289   2.645   2.254   8.425 -1.4728  2.1469 -1.5182
 2218TIP3    H228290   2.552   2.179   8.517 -0.9881  0.9305 -2.0016
 2219TIP3   OH228291   0.969   0.982   0.905 -0.2090 -0.5212 -0.1572
 2219TIP3    H128292   0.888   0.940   0.879 -1.2258  0.3688  1.4053
 2219TIP3    H228293   1.029   0.967   0.832 -1.4630 -2.0130 -0.9271
 2220TIP3   OH228294   0.417   0.993   8.561 -0.1226  0.0221  0.4345
 2220TIP3    H128295   0.410   0.989   8.657  1.0193 -0.8088  0.4967
 2220TIP3    H228296   0.490   1.052   8.544  0.9666 -1.3470  0.1543
 2221TIP3   OH228297   0.888   3.971   0.962  0.3360 -0.3360 -0.3496
 2221TIP3    H128298   0.883   4.066   0.951  0.2466 -0.3001 -0.0015
 2221TIP3    H228299   0.811   3.937   0.917 -1.0034 -0.0684  1.6515
 2222TIP3   OH228300   3.422   2.980   8.328 -0.3702 -0.0184  0.3309
 2222TIP3    H128301   3.463   3.030   8.258  2.4056  0.1503  1.9234
 2222TIP3    H228302   3.426   3.039   8.404  0.0311 -1.4438  1.4649
 2223TIP3   OH228303   2.342   5.963   0.483 -0.3167  0.8153 -0.4927
 2223TIP3    H128304   2.387   5.896   0.535 -3.1881 -0.5879  0.4010
 2223TIP3    H228305   2.409   5.996   0.424  1.9180 -0.9000  0.8952
 2224TIP3   OH228306   6.464   6.667   8.392 -0.6640 -0.2257 -0.3025
 2224TIP3    H128307   6.404   6.652   8.466 -1.4344  0.7363 -0.7088
 2224TIP3    H228308   6.505   6.582   8.377 -0.2050 -0.3506  1.4770
 2225TIP3   OH228309   6.678   3.278   0.870 -0.3231  0.0264  0.7338
 2225TIP3    H128310   6.704   3.287   0.961 -0.5021 -1.9127  1.0203
 2225TIP3    H228311   6.722   3.350   0.825  2.0258 -0.5784  1.9049
 2226TIP3   OH228312   0.214   3.763   8.906 -0.0195 -0.0600  0.2301
 2226TIP3    H128313   0.235   3.689   8.962  1.4762 -0.7189 -1.1327
 2226TIP3    H228314   0.139   3.734   8.854 -0.7754  0.1909  1.1509
 2227TIP3   OH228315   3.773   2.379   2.052  0.5575  0.1007  0.3142
 2227TIP3    H128316   3.753   2.467   2.085 -1.0588  0.2525 -0.9026
 2227TIP3    H228317   3.689   2.333   2.056  1.0559 -0.9000 -0.4537
 2228TIP3   OH228318   2.866   0.333   8.633 -0.4872 -0.0313  0.1120
 2228TIP3    H128319   2.913   0.251   8.614 -1.9727 -1.5930  2.6672
 2228TIP3    H228320   2.924   0.401   8.599  2.6846 -1.9289  1.2214
 2229TIP3   OH228321   0.868   5.816   8.260  0.2202  0.4086 -0.1176
 2229TIP3    H128322   0.809   5.746   8.233  0.1722  0.6199 -0.5559
 2229TIP3    H228323   0.870   5.809   8.356 -1.2589  0.9845 -0.0104
 2230TIP3   OH228324   6.476   1.199   0.063  0.5106  0.1626 -0.2292
 2230TIP3    H128325   6.405   1.163   0.010  1.2581  0.6700 -1.6427
 2230TIP3    H228326   6.554   1.154   0.032  0.9011  0.0755  0.8453
 2231TIP3   OH228327   1.078   1.817   0.414  0.7778 -0.1807 -0.8194
 2231TIP3    H128328   1.047   1.901   0.449 -3.9022 -2.0901  0.3459
 2231TIP3    H228329   1.102   1.766   0.492  0.2485 -1.0585 -1.2199
 2232TIP3   OH228330   5.754   2.351   2.169 -0.2042  0.2712  0.1418
 2232TIP3    H128331   5.841   2.318   2.145 -0.3102  1.0003 -1.3381
 2232TIP3    H228332   5.694   2.287   2.131 -0.3432  0.6972 -0.3654
 2233TIP3   OH228333   3.409   2.846   0.159  0.0634  0.0912 -1.0040
 2233TIP3    H128334   3.401   2.942   0.155  0.2569  0.1168 -0.7606
 2233TIP3    H228335   3.322   2.814   0.136 -1.0592  0.3732  2.3456
 2234TIP3   OH228336   2.000   0.766   1.231 -0.0014  0.0916 -0.0090
 2234TIP3    H128337   2.037   0.821   1.162  0.1733  0.4435  0.3617
 2234TIP3    H228338   1.909   0.797   1.239 -0.3644 -0.7114 -0.8563
 2235TIP3   OH228339   5.376   6.300   8.934  0.2909  0.2056 -0.0587
 2235TIP3    H128340   5.374   6.363   9.006  1.3411 -1.3221  1.3627
 2235TIP3    H228341   5.462   6.314   8.892 -0.1833  0.8679 -0.8399
 2236TIP3   OH228342   5.102   5.865   7.900 -0.3073 -0.0316 -0.1306
 2236TIP3    H128343   5.047   5.943   7.903  0.1332  0.2466  1.3923
 2236TIP3    H228344   5.098   5.829   7.989 -0.0828 -1.4585 -0.6638
 2237TIP3   OH228345   0.325   0.693   8.492  0.0077 -0.0951  0.0409
 2237TIP3    H128346   0.327   0.785   8.468  0.1577 -0.1353 -0.1050
 2237TIP3    H228347   0.293   0.648   8.414 -0.6097 -0.1096  0.2974
 2238TIP3   OH228348   1.840   0.766   7.623  0.0538  0.1609 -0.6503
 2238TIP3    H128349   1.784   0.694   7.595 -0.3303  0.7128 -1.3273
 2238TIP3    H228350   1.923   0.752   7.576  0.2491 -0.2729 -0.1780
 2239TIP3   OH228351   2.413   5.472   8.760 -0.1312  0.0313 -0.2840
 2239TIP3    H128352   2.449   5.557   8.789 -0.6347  0.0463  0.3199
 2239TIP3    H228353   2.381   5.431   8.840 -0.5140 -0.4366 -0.6695
 2240TIP3   OH228354   1.093   2.474   0.301  0.3497 -0.3571 -0.2814
 2240TIP3    H128355   1.139   2.517   0.373 -1.4758 -1.8783  1.9209
 2240TIP3    H228356   1.038   2.542   0.263  1.4074  0.4856 -0.3437
 2241TIP3   OH228357   3.637   3.008   0.019 -0.3972 -0.3259 -0.1546
 2241TIP3    H128358   3.681   3.085  -0.019 -0.8600  0.6868  1.2757
 2241TIP3    H228359   3.708   2.955   0.054 -0.1949  0.9206  1.4538
 2242TIP3   OH228360   4.114   2.033   8.577  0.2716  0.2999  0.5201
 2242TIP3    H128361   4.170   1.978   8.522 -1.2789  1.0650 -1.9884
 2242TIP3    H228362   4.079   1.974   8.644  2.8688 -0.4806  1.2946
 2243TIP3   OH228363   6.303   0.294   8.636  0.1292 -0.4233  0.3483
 2243TIP3    H128364   6.241   0.237   8.680 -0.2590 -1.1940 -1.1467
 2243TIP3    H228365   6.275   0.383   8.660 -0.8077 -0.7912  0.6531
 2244TIP3   OH228366   4.879   5.891   0.133 -0.4686  0.0888 -0.2066
 2244TIP3    H128367   4.886   5.983   0.158  1.4518 -0.4566  1.5408
 2244TIP3    H228368   4.923   5.885   0.049  1.0220  0.4966  0.5203
 2245TIP3   OH228369   0.377   0.722   1.478  0.0490 -0.2205  0.1668
 2245TIP3    H128370   0.367   0.627   1.482 -1.6178 -0.2710 -2.5436
 2245TIP3    H228371   0.294   0.756   1.511 -0.6370  0.1311 -1.7917
 2246TIP3   OH228372   5.920   1.448   1.045 -0.2629 -0.3288  0.1013
 2246TIP3    H128373   5.918   1.497   0.963 -0.7326 -0.4521  0.0369
 2246TIP3    H228374   5.828   1.430   1.065 -0.1169 -0.8652  0.3164
 2247TIP3   OH228375   5.270   0.160   0.456 -0.6213  0.5254  1.3601
 2247TIP3    H128376   5.321   0.233   0.421 -1.2347 -0.5762 -2.2106
 2247TIP3    H228377   5.334   0.092   0.476 -0.1722  1.5037  3.4437
 2248TIP3   OH228378   3.165   3.397   1.476 -0.1252 -0.1675  0.0341
 2248TIP3    H128379   3.090   3.363   1.428 -0.0743  1.2715 -1.1313
 2248TIP3    H228380   3.219   3.440   1.410  0.9950  0.0925  1.0724
 2249TIP3   OH228381   3.279   2.705   1.632  0.1100 -0.2427 -0.2145
 2249TIP3    H128382   3.245   2.783   1.590 -1.1466 -1.4051 -1.4761
 2249TIP3    H228383   3.362   2.687   1.587  1.2274  1.2051  1.1698
 2250TIP3   OH228384   4.082   3.265   7.733 -0.5773 -0.6249 -0.7856
 2250TIP3    H128385   4.006   3.312   7.698  0.2820  1.4343 -0.0356
 2250TIP3    H228386   4.150   3.332   7.742  0.0195 -1.4989  2.4997
 2251TIP3   OH228387   2.522   2.143   1.507 -0.2392 -0.1041  0.5218
 2251TIP3    H128388   2.605   2.172   1.543 -0.1934 -0.3561  0.6269
 2251TIP3    H228389   2.456   2.192   1.556 -0.1545  0.0679  0.4645
 2252TIP3   OH228390   5.912   3.203   9.184 -0.3549 -0.1176 -0.2396
 2252TIP3    H128391   5.858   3.198   9.264 -1.0736  1.7826 -0.5734
 2252TIP3    H228392   5.855   3.243   9.119 -0.6622 -3.8307 -2.5635
 2253TIP3   OH228393   1.540   0.930   2.930 -0.3690 -0.1077  0.0710
 2253TIP3    H128394   1.535   1.005   2.871  1.0179 -0.9145 -1.1535
 2253TIP3    H228395   1.634   0.917   2.945 -0.6542 -0.2685  2.0580
 2254TIP3   OH228396   6.222   2.122   8.216  0.0346 -0.0783 -0.4025
 2254TIP3    H128397   6.281   2.133   8.141 -0.9324  1.4507 -0.9956
 2254TIP3    H228398   6.185   2.209   8.230 -1.8208 -0.9082  0.1529
 2255TIP3   OH228399   5.545   3.040   0.843 -0.1066 -0.6730  0.3854
 2255TIP3    H128400   5.580   3.125   0.815  0.1369 -0.9319 -0.1052
 2255TIP3    H228401   5.595   2.976   0.793 -2.0971 -1.0112 -1.2737
 2256TIP3   OH228402   1.339   1.458   0.738  0.4386 -0.5495 -0.2084
 2256TIP3    H128403   1.322   1.374   0.694 -0.8910 -0.6976  0.5122
 2256TIP3    H228404   1.369   1.433   0.825 -1.2703 -0.3303  0.4846
 2257TIP3   OH228405   2.666   5.757   8.632 -0.1889 -0.2297 -0.3245
 2257TIP3    H128406   2.576   5.765   8.603 -0.1473  1.4706 -0.1156
 2257TIP3    H228407   2.717   5.802   8.564  0.6012 -1.8688 -0.8522
 2258TIP3   OH228408   2.362   6.020   8.010  0.2760 -0.2278  0.4179
 2258TIP3    H128409   2.416   6.001   7.933  0.0452  1.7498 -0.3014
 2258TIP3    H228410   2.347   6.114   8.006 -1.9680 -0.4712  1.4465
 2259TIP3   OH228411   4.094   1.652   8.341 -0.7848 -0.2363 -0.0516
 2259TIP3    H128412   4.059   1.739   8.358 -0.5910 -0.0504 -0.5954
 2259TIP3    H228413   4.064   1.599   8.415  0.0668  0.5563  0.8897
 2260TIP3   OH228414   2.299   0.270   8.343 -0.0532  0.6779 -0.7616
 2260TIP3    H128415   2.278   0.201   8.406 -1.7780  1.2086 -0.7130
 2260TIP3    H228416   2.385   0.302   8.371  0.0941 -0.4269  0.1176
 2261TIP3   OH228417   2.532   4.906   2.855  0.5585 -0.4314  0.3554
 2261TIP3    H128418   2.449   4.864   2.880 -0.3714  0.4645 -1.0700
 2261TIP3    H228419   2.578   4.838   2.805  0.9695 -1.1250  1.6312
 2262TIP3   OH228420   2.208   2.755   7.720  0.0882  0.1982  0.3916
 2262TIP3    H128421   2.198   2.722   7.809  0.4787 -0.8632  0.0543
 2262TIP3    H228422   2.121   2.787   7.697 -0.9411 -2.6555 -0.0446
 2263TIP3   OH228423   0.710   4.939   0.829 -0.0111 -0.5211 -0.9980
 2263TIP3    H128424   0.661   4.875   0.881  0.3593  0.7123  0.9817
 2263TIP3    H228425   0.684   4.922   0.739  0.8677 -4.1453 -0.7115
 2264TIP3   OH228426   1.739   5.116   1.337 -0.4337 -0.4389  0.4249
 2264TIP3    H128427   1.652   5.154   1.319 -0.1317 -0.0671 -0.3087
 2264TIP3    H228428   1.784   5.184   1.387 -0.0340  0.0323 -0.5410
 2265TIP3   OH228429   0.714   3.941   7.380  0.2660  0.3024  0.0204
 2265TIP3    H128430   0.636   3.927   7.434 -1.5721  3.4037 -1.5756
 2265TIP3    H228431   0.709   3.872   7.313  0.1667 -0.8674  1.1897
 2266TIP3   OH228432   5.485   2.101   0.512  0.1899  0.5324  0.4208
 2266TIP3    H128433   5.415   2.035   0.512  1.2726 -0.6556 -0.4419
 2266TIP3    H228434   5.447   2.176   0.559 -1.8460  0.1398 -0.4872
 2267TIP3   OH228435   2.044   3.039   1.123  0.4555 -0.1899  0.2241
 2267TIP3    H128436   2.006   3.126   1.136 -0.2886  0.1076 -2.9161
 2267TIP3    H228437   2.087   3.018   1.205  0.2423  2.9325  1.2561
 2268TIP3   OH228438   6.613   6.272   0.868 -1.0949  0.2972 -0.1014
 2268TIP3    H128439   6.522   6.282   0.841 -0.9995 -0.9426 -0.9085
 2268TIP3    H228440   6.622   6.334   0.941 -2.7479 -0.0023  0.4079
 2269TIP3   OH228441   3.643   5.412   8.490  0.0368 -0.0179  0.0306
 2269TIP3    H128442   3.674   5.347   8.554  0.9306  1.2944  0.9940
 2269TIP3    H228443   3.572   5.457   8.536 -0.3834 -0.1208 -0.5195
 2270TIP3   OH228444   4.552   4.923   7.074 -0.3475 -0.0186 -0.5297
 2270TIP3    H128445   4.505   4.997   7.033 -0.1646 -0.3700 -1.4033
 2270TIP3    H228446   4.483   4.860   7.094 -0.6857  0.8801  1.4125
 2271TIP3   OH228447   4.954   6.225   1.745 -0.2399 -0.1950 -0.4467
 2271TIP3    H128448   5.049   6.232   1.754 -0.1506  1.1646 -1.9461
 2271TIP3    H228449   4.921   6.226   1.834  1.0916  0.6497  0.0633
 2272TIP3   OH228450   4.159   3.990   8.933  0.8306  0.2331  0.0304
 2272TIP3    H128451   4.169   3.994   9.029  1.7306 -0.6666 -0.0109
 2272TIP3    H228452   4.068   3.967   8.920  1.5042 -3.5272  0.8279
 2273TIP3   OH228453   3.841   2.012   8.979 -0.1817  0.0832 -0.1836
 2273TIP3    H128454   3.764   1.955   8.968 -0.6373  0.8812 -1.3181
 2273TIP3    H228455   3.879   1.984   9.062 -2.4628  0.5676  1.1182
 2274TIP3   OH228456   0.763   0.795   8.453 -0.1771  0.2316 -0.0501
 2274TIP3    H128457   0.790   0.882   8.424 -0.0330 -0.4414 -2.1361
 2274TIP3    H228458   0.694   0.769   8.391 -1.3209 -0.5424  1.4713
 2275TIP3   OH228459   3.397   4.884   9.045 -0.5863 -0.2502 -0.0747
 2275TIP3    H128460   3.471   4.940   9.019 -1.4738  0.7718 -0.4597
 2275TIP3    H228461   3.387   4.899   9.139  0.4680 -1.3583  0.2466
 2276TIP3   OH228462   0.004   6.590   3.153  0.2083  0.0192  0.2781
 2276TIP3    H128463  -0.033   6.646   3.221  1.1956  0.1311  0.7439
 2276TIP3    H228464   0.065   6.647   3.106  0.7706 -0.4940  0.3706
 2277TIP3   OH228465   0.875   1.044   8.347 -0.1856  0.2525  0.0634
 2277TIP3    H128466   0.879   1.042   8.251  1.1796  0.2414  0.1059
 2277TIP3    H228467   0.865   1.136   8.369  3.0407  0.7161 -0.0238
 2278TIP3   OH228468   1.625   5.664   8.919 -0.2479 -0.0960 -0.0095
 2278TIP3    H128469   1.551   5.705   8.964  1.0843  0.8479  1.4176
 2278TIP3    H228470   1.680   5.738   8.892  1.5937 -0.8324  1.5183
 2279TIP3   OH228471   2.261   4.949   7.837 -0.0827 -0.1832  0.4002
 2279TIP3    H128472   2.331   5.007   7.805  1.6135 -1.2546  1.9382
 2279TIP3    H228473   2.210   5.004   7.897  0.8958  0.0349  1.0672
 2280TIP3   OH228474   1.774   5.245   8.651 -0.7277 -0.7768  0.0872
 2280TIP3    H128475   1.714   5.294   8.707  0.4208 -1.4743  2.0673
 2280TIP3    H228476   1.860   5.286   8.667 -0.4068 -0.7657 -1.4940
 2281TIP3   OH228477   2.602   5.487   2.061  0.0122 -0.0237 -0.4936
 2281TIP3    H128478   2.694   5.500   2.081 -1.1498  2.9114  4.6049
 2281TIP3    H228479   2.592   5.391   2.058  2.9705 -0.4401 -0.1644
 2282TIP3   OH228480   3.900   1.614   9.195  0.0466 -0.5427  0.3338
 2282TIP3    H128481   3.862   1.700   9.177  0.0388  0.2776  3.6485
 2282TIP3    H228482   3.966   1.603   9.126 -1.2594  1.1941 -1.3148
 2283TIP3   OH228483   2.846   4.293   8.524  0.1661 -0.1926 -0.4096
 2283TIP3    H128484   2.796   4.374   8.529  0.9524  0.2623  0.2914
 2283TIP3    H228485   2.830   4.260   8.436 -0.1054  0.7583 -0.7228
 2284TIP3   OH228486   3.628   1.220   2.102 -0.0892  0.2046  0.2797
 2284TIP3    H128487   3.706   1.179   2.064 -0.9294 -1.5388  0.3302
 2284TIP3    H228488   3.555   1.180   2.055 -0.9789  1.7685  0.2660
 2285TIP3   OH228489   2.030   2.140   0.051  0.2973 -0.2709 -0.3165
 2285TIP3    H128490   2.104   2.114  -0.003  1.3672  0.2940  0.8221
 2285TIP3    H228491   1.984   2.058   0.070  0.1076 -0.5213 -1.7423
 2286TIP3   OH228492   6.222   1.217   3.100 -0.0847 -0.1390  0.6068
 2286TIP3    H128493   6.137   1.235   3.058 -0.5179 -0.6383  1.2517
 2286TIP3    H228494   6.271   1.298   3.090  0.2711 -0.5749 -1.9067
 2287TIP3   OH228495   5.478   3.707   8.567 -0.2879  0.2510 -0.8740
 2287TIP3    H128496   5.394   3.662   8.572 -0.3430  0.3859 -0.5393
 2287TIP3    H228497   5.520   3.688   8.651 -0.4960  1.1738 -0.5420
 2288TIP3   OH228498   6.129   1.810   8.188  0.6045 -0.1016 -0.2567
 2288TIP3    H128499   6.170   1.724   8.183  1.7799  0.4013  0.2949
 2288TIP3    H228500   6.131   1.833   8.281 -1.1550 -0.1445 -0.1809
 2289TIP3   OH228501   0.730   4.783   2.344  0.3190 -0.3184  0.1454
 2289TIP3    H128502   0.734   4.874   2.316  1.1306 -0.4016 -0.0329
 2289TIP3    H228503   0.641   4.772   2.379  0.4510  0.7368  0.8549
 2290TIP3   OH228504   4.150   0.116   7.141 -0.4588 -0.2169 -0.5778
 2290TIP3    H128505   4.099   0.035   7.136 -0.2350 -0.4614  0.6924
 2290TIP3    H228506   4.239   0.087   7.163 -0.9047  0.4411  2.6109
 2291TIP3   OH228507   5.801   6.622   8.730  0.0390 -0.4448 -0.2278
 2291TIP3    H128508   5.782   6.690   8.794 -1.8371 -1.3305  0.2331
 2291TIP3    H228509   5.744   6.643   8.655  0.6188 -0.6201 -0.7197
 2292TIP3   OH228510   0.936   6.103   2.225  0.1931  0.5037  0.3092
 2292TIP3    H128511   0.857   6.052   2.243  0.4340  0.7392  2.2511
 2292TIP3    H228512   1.008   6.045   2.249  0.5690  0.8065 -0.0698
 2293TIP3   OH228513   4.943   3.977   0.228  0.2674  0.5293 -0.3976
 2293TIP3    H128514   4.929   3.914   0.157 -0.0092 -0.0193  0.1354
 2293TIP3    H228515   4.886   3.946   0.298  1.0514  0.6668  0.3068
 2294TIP3   OH228516   5.301   5.008   1.315  0.3073 -0.8881  0.2749
 2294TIP3    H128517   5.335   5.069   1.380 -0.2091 -1.0956  0.7503
 2294TIP3    H228518   5.264   4.936   1.367 -0.4571 -0.8690 -0.2334
 2295TIP3   OH228519   2.190   5.629   7.847 -0.0128 -0.3007  0.0885
 2295TIP3    H128520   2.148   5.714   7.864  0.1431 -0.4729  1.4521
 2295TIP3    H228521   2.224   5.636   7.758 -2.9668 -0.1572 -1.1478
 2296TIP3   OH228522   5.529   0.709   3.440 -0.3758  0.3129 -0.2632
 2296TIP3    H128523   5.526   0.633   3.498 -0.3154 -0.2460 -0.9648
 2296TIP3    H228524   5.535   0.784   3.498 -0.4576 -0.2214  0.4500
 2297TIP3   OH228525   6.225   4.549   9.089 -0.3393 -0.0607  0.0406
 2297TIP3    H128526   6.223   4.512   9.000  0.3423 -0.8424  0.3426
 2297TIP3    H228527   6.134   4.573   9.107 -0.4992  0.0209 -0.8336
 2298TIP3   OH228528   5.955   2.266   1.962 -0.2079 -0.2862 -0.2794
 2298TIP3    H128529   6.009   2.345   1.963 -1.0428  0.3004 -0.6044
 2298TIP3    H228530   6.001   2.205   2.019 -0.2297  0.8982  1.0754
 2299TIP3   OH228531   5.713   6.160   0.570 -0.0819  0.8387  0.4300
 2299TIP3    H128532   5.745   6.085   0.520  0.0495  1.2302 -0.0834
 2299TIP3    H228533   5.618   6.149   0.570 -0.0220  0.2780  0.9920
 2300TIP3   OH228534   2.535   2.734   1.140  0.3589  0.2183 -0.0648
 2300TIP3    H128535   2.520   2.640   1.146  2.7939 -0.1305  1.6488
 2300TIP3    H228536   2.463   2.772   1.191  1.1193 -0.9405  1.9883
 2301TIP3   OH228537   1.531   4.620   1.160 -0.2121  0.1848  0.4033
 2301TIP3    H128538   1.520   4.648   1.251 -0.9379  0.3455  0.2767
 2301TIP3    H228539   1.508   4.698   1.108 -0.5211 -0.1154  0.0762
 2302TIP3   OH228540   0.347   0.406   3.314 -0.0984  0.3041  0.2328
 2302TIP3    H128541   0.403   0.333   3.339  0.4002 -0.0392 -1.7155
 2302TIP3    H228542   0.391   0.483   3.349 -0.1981 -0.2316  1.5940
 2303TIP3   OH228543   6.457   5.683   7.832 -0.3015 -0.3542  0.7716
 2303TIP3    H128544   6.500   5.606   7.794 -0.5816 -0.4537  0.6552
 2303TIP3    H228545   6.495   5.757   7.785  1.7047 -0.2138  2.4477
 2304TIP3   OH228546   0.195   1.818   1.410  0.8930 -0.2516  0.0072
 2304TIP3    H128547   0.224   1.897   1.455  1.1460  0.2467 -1.0025
 2304TIP3    H228548   0.150   1.850   1.332  1.4380 -1.1119 -0.6799
 2305TIP3   OH228549   5.263   0.742   8.475 -0.3992 -0.0889  0.0638
 2305TIP3    H128550   5.297   0.672   8.420 -0.9927 -0.5494  0.2749
 2305TIP3    H228551   5.310   0.733   8.557 -1.1667 -0.8693  0.4355
 2306TIP3   OH228552   1.674   5.799   9.172  0.5219  0.4868  0.3607
 2306TIP3    H128553   1.610   5.728   9.179  1.2358 -0.4904 -1.9040
 2306TIP3    H228554   1.623   5.874   9.141  0.1597  0.2268  0.3157
 2307TIP3   OH228555   1.567   1.883   8.904 -0.6683 -0.2713  0.0083
 2307TIP3    H128556   1.573   1.791   8.878 -0.3812 -0.9220  2.1670
 2307TIP3    H228557   1.658   1.909   8.922 -0.5259  0.9913 -2.1528
 2308TIP3   OH228558   1.111   0.351   8.898 -0.3700 -0.0349  0.2279
 2308TIP3    H128559   1.097   0.274   8.954  0.2087  1.3971  2.4957
 2308TIP3    H228560   1.061   0.421   8.941 -0.5883  0.9794 -1.5730
 2309TIP3   OH228561   5.560   0.299   8.482  0.4240 -0.0242 -0.5397
 2309TIP3    H128562   5.478   0.342   8.505 -0.0431 -1.1762  0.0168
 2309TIP3    H228563   5.611   0.367   8.438 -1.2876  0.3738 -2.0004
 2310TIP3   OH228564   4.643   2.866   2.757  0.8938  0.7693 -0.0527
 2310TIP3    H128565   4.557   2.825   2.750  1.1041 -0.3643  2.6680
 2310TIP3    H228566   4.634   2.927   2.831  2.5058  0.3212  0.5564
 2311TIP3   OH228567   1.890   6.527   0.340  0.5901  0.0504 -0.3129
 2311TIP3    H128568   1.954   6.585   0.300  0.6608 -0.1423 -0.4761
 2311TIP3    H228569   1.931   6.441   0.340  0.2470 -0.1151 -0.6176
 2312TIP3   OH228570   3.430   1.219   0.594 -1.1606  0.5541 -0.2263
 2312TIP3    H128571   3.520   1.191   0.575 -0.7367  0.4537  1.7105
 2312TIP3    H228572   3.381   1.196   0.515  0.4148  0.1827 -1.1508
 2313TIP3   OH228573   0.109   6.492   1.314  0.7028  0.2675 -0.0634
 2313TIP3    H128574   0.203   6.502   1.298  0.7424 -0.6020 -0.4275
 2313TIP3    H228575   0.102   6.469   1.406  0.7629  1.3024  0.2166
 2314TIP3   OH228576   3.076   5.229   0.080 -0.2096  0.2892  0.4709
 2314TIP3    H128577   3.103   5.257  -0.008 -1.6128  3.0275  0.7817
 2314TIP3    H228578   2.980   5.225   0.075 -0.2158 -3.2231  0.9688
 2315TIP3   OH228579   1.807   4.651   9.104  0.7942  0.5093  0.0032
 2315TIP3    H128580   1.781   4.716   9.038  1.4299  1.7225  0.8897
 2315TIP3    H228581   1.749   4.668   9.178 -1.2588 -2.1465 -0.8708
 2316TIP3   OH228582   4.966   0.278   7.795  0.0994  0.5600  0.2524
 2316TIP3    H128583   4.999   0.193   7.825  2.6109  1.9861  1.8505
 2316TIP3    H228584   4.969   0.273   7.700 -1.8328 -1.7976  0.2013
 2317TIP3   OH228585   4.148   0.921   8.789 -0.4060 -0.3581 -0.0832
 2317TIP3    H128586   4.118   0.871   8.864 -0.4307  2.7842  2.2190
 2317TIP3    H228587   4.073   0.977   8.766  0.8506  1.5598  0.2398
 2318TIP3   OH228588   5.110   5.657   7.710  0.6973  0.6713 -0.2475
 2318TIP3    H128589   5.192   5.610   7.724  0.3206 -0.7339 -2.2466
 2318TIP3    H228590   5.117   5.734   7.765  2.2657 -0.6716  1.5752
 2319TIP3   OH228591   5.535   0.491   1.274  0.0708 -0.3147 -0.0421
 2319TIP3    H128592   5.559   0.580   1.247 -2.5034  0.7699  0.9064
 2319TIP3    H228593   5.586   0.476   1.353 -0.2905  0.7799  0.4149
 2320TIP3   OH228594   5.611   4.481   8.843  0.7679  0.1485  0.6342
 2320TIP3    H128595   5.661   4.500   8.763  0.8994  0.2208  0.7331
 2320TIP3    H228596   5.571   4.395   8.826 -2.4019  1.8009 -1.1024
 2321TIP3   OH228597   0.917   3.845   0.500  0.3654  0.4309 -0.0357
 2321TIP3    H128598   0.941   3.920   0.555  1.2714  0.2637 -0.1855
 2321TIP3    H228599   0.894   3.776   0.562  1.0435  0.3530  0.1336
 2322TIP3   OH228600   0.663   6.035   0.161  0.2455 -0.1206 -0.4458
 2322TIP3    H128601   0.728   5.990   0.108 -0.6508 -0.8935 -0.9279
 2322TIP3    H228602   0.656   5.983   0.241  0.2766  0.0010 -0.3639
 2323TIP3   OH228603   1.276   4.037   0.499 -0.0295 -0.4080 -0.1220
 2323TIP3    H128604   1.365   4.017   0.471  0.4523 -1.0942  1.7350
 2323TIP3    H228605   1.234   3.952   0.507  0.7959 -0.6706  3.9324
 2324TIP3   OH228606   5.636   1.831   9.200 -0.2506  0.0519  0.9852
 2324TIP3    H128607   5.661   1.763   9.138  0.2918  2.3692 -1.5533
 2324TIP3    H228608   5.541   1.840   9.189  0.0795  1.7787 -1.1473
 2325TIP3   OH228609   5.573   6.131   1.136 -0.2118  0.8543  0.3763
 2325TIP3    H128610   5.606   6.136   1.046  0.3287 -0.9160  0.4329
 2325TIP3    H228611   5.478   6.129   1.126 -0.1449 -0.0601 -0.2328
 2326TIP3   OH228612   2.666   2.855   0.796 -0.2409  0.1882 -0.0133
 2326TIP3    H128613   2.740   2.859   0.736 -0.2576  1.6107  0.0092
 2326TIP3    H228614   2.696   2.904   0.873 -0.6529 -0.5733  0.6397
 2327TIP3   OH228615   3.803   2.304   2.429 -0.3615 -0.4068 -0.1248
 2327TIP3    H128616   3.760   2.257   2.357 -1.6073 -1.5706  1.2951
 2327TIP3    H228617   3.838   2.234   2.485 -1.2228  0.3710  1.4404
 2328TIP3   OH228618   4.915   4.622   8.137 -0.4579  0.0522 -0.8661
 2328TIP3    H128619   4.950   4.554   8.080 -1.2072 -2.4627  1.4499
 2328TIP3    H228620   4.827   4.638   8.104 -0.6123 -0.8275 -0.8973
 2329TIP3   OH228621   0.080   3.458   2.308 -0.2782 -0.1832 -0.3585
 2329TIP3    H128622   0.129   3.536   2.333  0.1303 -0.3962 -0.4809
 2329TIP3    H228623  -0.005   3.491   2.280 -0.6529  0.0792  1.0397
 2330TIP3   OH228624   3.962   1.553   3.077 -0.7394 -0.3672  0.2061
 2330TIP3    H128625   3.971   1.568   3.171  0.6097  0.3598 -0.0185
 2330TIP3    H228626   4.044   1.585   3.039 -0.9796 -1.2614 -1.1504
 2331TIP3   OH228627   4.652   4.494   1.995  0.4994  0.3284 -0.3209
 2331TIP3    H128628   4.599   4.554   1.943  0.6805  2.0230  1.3788
 2331TIP3    H228629   4.590   4.448   2.051  0.5614  0.2229 -0.3362
 2332TIP3   OH228630   2.085   1.838   7.894 -0.7558 -0.6371 -0.3602
 2332TIP3    H128631   2.121   1.905   7.952 -1.7190  0.3675 -0.8804
 2332TIP3    H228632   2.037   1.887   7.827 -2.4067 -1.8495 -0.1414
 2333TIP3   OH228633   2.598   1.932   1.667  0.3033  0.2169  0.0144
 2333TIP3    H128634   2.577   2.006   1.610  0.9817  1.1722  0.9674
 2333TIP3    H228635   2.650   1.970   1.737  0.4868 -1.1419  0.6417
 2334TIP3   OH228636   4.109   0.619   3.024 -0.3748  0.3322 -0.0495
 2334TIP3    H128637   4.024   0.594   2.989 -0.3012  1.7417 -1.3678
 2334TIP3    H228638   4.171   0.558   2.982 -0.7004 -0.6241  0.8288
 2335TIP3   OH228639   3.687   3.493   1.669 -0.2337  0.3952  0.2053
 2335TIP3    H128640   3.714   3.409   1.632  1.0056  0.9238 -0.1485
 2335TIP3    H228641   3.687   3.553   1.594 -1.1728  0.7024  0.4407
 2336TIP3   OH228642   5.784   3.639   3.005 -0.3156  0.3928  0.1113
 2336TIP3    H128643   5.859   3.619   3.061  0.7674 -1.4258 -1.8670
 2336TIP3    H228644   5.739   3.711   3.051  0.8542 -0.5045  2.9179
 2337TIP3   OH228645   0.032   5.096   1.336 -0.1079 -0.0491 -0.0888
 2337TIP3    H128646  -0.008   5.137   1.413  3.2163 -0.9518  2.3476
 2337TIP3    H228647  -0.037   5.039   1.301 -1.3651 -0.7557  3.1827
 2338TIP3   OH228648   3.216   5.488   2.171 -0.2490  0.1120  0.0775
 2338TIP3    H128649   3.168   5.499   2.089  0.3344  0.8358 -0.1776
 2338TIP3    H228650   3.301   5.454   2.144 -0.2772 -0.2596  0.4451
 2339TIP3   OH228651   1.404   1.453   3.350  0.3013 -0.6961  0.0688
 2339TIP3    H128652   1.372   1.378   3.300  0.5973 -0.7089 -0.1056
 2339TIP3    H228653   1.327   1.507   3.366  0.5875  0.6664 -2.6846
 2340TIP3   OH228654   1.608   0.319   1.801  0.0199  0.2846  0.8213
 2340TIP3    H128655   1.597   0.413   1.789 -0.4459  0.0167 -1.1353
 2340TIP3    H228656   1.698   0.301   1.773 -0.7939 -0.2194 -1.7184
 2341TIP3   OH228657   5.451   2.795   8.302  0.2159  0.1023 -0.3930
 2341TIP3    H128658   5.466   2.825   8.213  0.9991 -0.4343 -0.4455
 2341TIP3    H228659   5.537   2.773   8.336 -0.2520 -1.5354 -0.1691
 2342TIP3   OH228660   5.338   1.931   1.199  0.2007 -0.7607  0.4522
 2342TIP3    H128661   5.372   2.013   1.162  1.0112 -1.4308 -0.3116
 2342TIP3    H228662   5.414   1.889   1.239 -0.3111 -0.9163  1.2943
 2343TIP3   OH228663   4.575   2.044   2.481 -0.2768  0.4869  0.0720
 2343TIP3    H128664   4.485   2.016   2.498  0.3244 -0.4322  2.0254
 2343TIP3    H228665   4.628   1.997   2.546  1.8164 -0.1202 -1.9015
 2344TIP3   OH228666   6.209   2.152   2.919 -0.7465  0.0625  0.1049
 2344TIP3    H128667   6.136   2.151   2.981  0.4818 -0.2711  1.5997
 2344TIP3    H228668   6.285   2.174   2.972  0.3013  0.0926 -1.3634
 2345TIP3   OH228669   1.669   1.659   2.060  0.3373 -0.1818 -0.4590
 2345TIP3    H128670   1.578   1.641   2.033  0.0248 -1.1834  1.1292
 2345TIP3    H228671   1.664   1.743   2.105 -0.5718 -1.7601  2.7129
 2346TIP3   OH228672   5.256   2.590   8.256 -0.0881 -0.1058 -0.0434
 2346TIP3    H128673   5.278   2.553   8.170 -0.3964  1.5664 -0.8853
 2346TIP3    H228674   5.335   2.638   8.283 -0.3923  0.3516  0.0471
 2347TIP3   OH228675   4.929   3.392   8.084 -0.0999 -0.1185  0.0240
 2347TIP3    H128676   4.837   3.400   8.058  0.1490 -1.0485 -1.2263
 2347TIP3    H228677   4.944   3.298   8.090  0.8751  0.0123 -0.1556
 2348TIP3   OH228678   5.842   2.102   1.391  0.2959  0.1295 -0.5397
 2348TIP3    H128679   5.915   2.158   1.362 -0.1412  2.6610  2.6709
 2348TIP3    H228680   5.764   2.145   1.355 -0.1100  2.3461  2.5659
 2349TIP3   OH228681   5.251   1.566   8.030 -0.0906  0.4376  0.5089
 2349TIP3    H128682   5.333   1.607   8.003  1.0904 -0.9269  1.8530
 2349TIP3    H228683   5.250   1.481   7.986  0.0506 -0.2484  1.8007
 2350TIP3   OH228684   0.877   2.443   1.367 -0.8890  0.0070 -0.2235
 2350TIP3    H128685   0.941   2.374   1.383  0.3570  0.4305 -2.9357
 2350TIP3    H228686   0.891   2.505   1.439  0.8088 -0.5784  0.0082
 2351TIP3   OH228687   2.134   5.272   1.359  0.2426 -0.2406  0.1049
 2351TIP3    H128688   2.168   5.346   1.308  2.4761  0.0616  1.8762
 2351TIP3    H228689   2.103   5.210   1.293  0.1506  1.3949 -1.4893
 2352TIP3   OH228690   5.097   3.921   7.811 -0.4765 -0.1267 -0.0539
 2352TIP3    H128691   5.032   3.971   7.761  0.5278 -0.4211 -1.7401
 2352TIP3    H228692   5.167   3.903   7.747  1.2738  0.2047  1.6904
 2353TIP3   OH228693   0.783   1.715   1.626  0.2429 -0.3533 -0.2495
 2353TIP3    H128694   0.714   1.760   1.576  1.0727  0.2039 -0.9357
 2353TIP3    H228695   0.740   1.686   1.706 -0.8549 -0.2679 -0.7870
 2354TIP3   OH228696   4.664   4.441   1.381  0.4214  0.2986 -0.1288
 2354TIP3    H128697   4.589   4.482   1.338  1.1873  0.5989 -1.2104
 2354TIP3    H228698   4.652   4.462   1.474 -0.6429  0.6421 -0.3326
 2355TIP3   OH228699   2.400   1.827   1.506  0.4273 -0.1736  0.6507
 2355TIP3    H128700   2.448   1.746   1.489  1.2048  0.3497  0.2704
 2355TIP3    H228701   2.464   1.883   1.551 -0.2725  0.0350  1.4166
 2356TIP3   OH228702   1.727   3.756   0.495 -0.0146 -0.5561  0.3507
 2356TIP3    H128703   1.780   3.780   0.419 -1.1529 -0.2711 -0.3804
 2356TIP3    H228704   1.780   3.692   0.542  1.7374  0.9866  0.6046
 2357TIP3   OH228705   0.952   1.831   1.325 -0.3404  0.5277 -0.1309
 2357TIP3    H128706   0.975   1.876   1.243  2.1829  0.9478  0.7430
 2357TIP3    H228707   0.959   1.899   1.392  0.4507 -0.4618  0.8043
 2358TIP3   OH228708   5.033   4.751   1.915 -0.2026  0.0259 -0.4579
 2358TIP3    H128709   5.009   4.671   1.961 -1.7111  1.4154  1.3572
 2358TIP3    H228710   4.960   4.811   1.933  0.6282  1.6406 -2.1834
 2359TIP3   OH228711   4.415   2.634   2.516 -0.0420 -0.2124 -0.1010
 2359TIP3    H128712   4.401   2.668   2.604 -0.3328 -0.3685 -0.0861
 2359TIP3    H228713   4.509   2.644   2.501  0.1348 -0.8676  0.5102
 2360TIP3   OH228714   1.654   1.586   8.398 -0.3187 -0.1416 -0.6110
 2360TIP3    H128715   1.682   1.647   8.467  0.0394 -0.1008 -0.7900
 2360TIP3    H228716   1.734   1.538   8.376 -0.4155 -0.0944 -1.0578
 2361TIP3   OH228717   4.569   4.515   1.006 -0.1210 -0.0560 -0.8023
 2361TIP3    H128718   4.660   4.496   1.031 -0.2795  0.0262 -0.1464
 2361TIP3    H228719   4.573   4.603   0.969 -0.3922  1.2566  2.0484
 2362TIP3   OH228720   5.575   4.593   7.055 -0.4631  0.2807  0.0700
 2362TIP3    H128721   5.582   4.572   6.962  0.3703  2.1014 -0.3188
 2362TIP3    H228722   5.661   4.572   7.092 -1.1495 -1.5978  0.7416
 2363TIP3   OH228723   1.370   4.233   2.873  0.3779  0.7476  0.1954
 2363TIP3    H128724   1.293   4.197   2.829 -0.2921  0.9716  1.1430
 2363TIP3    H228725   1.334   4.293   2.938  1.4148  1.8247 -0.1940
 2364TIP3   OH228726   5.240   3.473   2.875  0.3255  0.4879 -0.5676
 2364TIP3    H128727   5.227   3.539   2.943 -0.9821  1.0209 -1.3063
 2364TIP3    H228728   5.204   3.392   2.913  0.5731  0.5341 -0.2300
 2365TIP3   OH228729   1.017   4.507   8.823  0.0814  0.5729 -0.3170
 2365TIP3    H128730   0.940   4.497   8.878 -0.9223  1.5320 -1.4806
 2365TIP3    H228731   1.070   4.573   8.866  0.1212  0.1183  0.3382
 2366TIP3   OH228732   6.199   4.964   8.431 -0.3708  0.7697  0.0459
 2366TIP3    H128733   6.246   5.037   8.471 -1.1602  0.8784  0.8306
 2366TIP3    H228734   6.184   4.902   8.503 -1.3463  0.7091 -0.1848
 2367TIP3   OH228735   2.199   0.919   8.815 -0.8428 -0.5841 -0.2114
 2367TIP3    H128736   2.115   0.945   8.852 -0.0687  0.8682  0.6287
 2367TIP3    H228737   2.205   0.825   8.831 -1.4439 -0.3570  1.5321
 2368TIP3   OH228738   0.920   2.183   1.274 -0.2581  0.3648 -0.3065
 2368TIP3    H128739   0.904   2.249   1.206 -1.0703 -0.0371 -0.5229
 2368TIP3    H228740   1.015   2.181   1.284 -0.2257  1.6748 -0.1910
 2369TIP3   OH228741   0.348   1.293   1.923 -0.7082 -0.2476 -0.3528
 2369TIP3    H128742   0.409   1.234   1.968  0.5420  2.1850  1.3310
 2369TIP3    H228743   0.263   1.249   1.931 -0.0546 -1.2457  1.9720
 2370TIP3   OH228744   5.045   5.768   7.153  0.4317 -0.2561  0.3554
 2370TIP3    H128745   5.005   5.737   7.235  2.1585 -0.1703  1.2820
 2370TIP3    H228746   5.049   5.691   7.097  1.0110 -0.7762  1.1002
 2371TIP3   OH228747   3.121   5.452   7.806  0.0973  0.0726  0.5507
 2371TIP3    H128748   3.186   5.499   7.754  0.1463 -1.1268 -0.5237
 2371TIP3    H228749   3.167   5.425   7.885  1.0921 -1.1600 -0.3949
 2372TIP3   OH228750   0.033   5.506   2.089  0.1971 -0.3176 -0.3530
 2372TIP3    H128751   0.089   5.521   2.165 -0.0421  1.5327 -0.4926
 2372TIP3    H228752   0.092   5.510   2.014  0.4287 -2.1159 -0.3053
 2373TIP3   OH228753   1.396   4.369   1.265  0.2937 -0.0679 -0.0339
 2373TIP3    H128754   1.427   4.458   1.284  1.0264 -0.4856  0.7898
 2373TIP3    H228755   1.383   4.329   1.351  0.6423 -0.9832 -0.3936
 2374TIP3   OH228756   5.017   2.330   2.062  0.7368 -0.4261 -0.2724
 2374TIP3    H128757   5.075   2.262   2.026 -0.5563 -1.9181  0.3272
 2374TIP3    H228758   4.935   2.284   2.080 -0.2932  1.3951 -0.1091
 2375TIP3   OH228759   3.848   6.599   1.219  0.0917 -0.0409 -0.6346
 2375TIP3    H128760   3.922   6.602   1.158 -0.8724 -0.8787 -1.8969
 2375TIP3    H228761   3.828   6.691   1.237  1.1926  0.1988 -0.5588
 2376TIP3   OH228762   4.069   0.185   2.039  0.2534  0.0236  0.0743
 2376TIP3    H128763   4.023   0.167   2.121 -1.2850  0.0997 -0.7394
 2376TIP3    H228764   4.145   0.239   2.065 -0.1143 -0.0928  1.4490
 2377TIP3   OH228765   0.800   4.183   7.556  0.2789  0.2024  0.2721
 2377TIP3    H128766   0.792   4.123   7.482  0.6042 -1.6640  1.6708
 2377TIP3    H228767   0.885   4.162   7.595 -0.6653 -0.2286  2.2705
 2378TIP3   OH228768   5.706   6.482   8.219  0.0208 -0.2580 -0.3875
 2378TIP3    H128769   5.640   6.542   8.254 -1.1338 -1.4289 -0.4759
 2378TIP3    H228770   5.789   6.512   8.257 -0.8913 -0.2036  1.6808
 2379TIP3   OH228771   3.181   2.035   8.056 -0.0354 -0.3334 -0.5736
 2379TIP3    H128772   3.171   2.072   8.144 -1.1843  1.5141 -1.4067
 2379TIP3    H228773   3.176   1.940   8.069 -1.4221 -0.0755  1.2252
 2380TIP3   OH228774   2.860   5.816   1.054  0.5080 -0.2747 -0.0900
 2380TIP3    H128775   2.777   5.835   1.012  0.9141  0.5145 -0.5586
 2380TIP3    H228776   2.924   5.817   0.983  1.0392 -0.0060  0.3782
 2381TIP3   OH228777   1.356   3.792   1.669 -0.0513 -0.4280  0.0872
 2381TIP3    H128778   1.432   3.793   1.611 -0.8107  0.2553 -0.9231
 2381TIP3    H228779   1.281   3.805   1.611 -0.6697  2.9690  1.3978
 2382TIP3   OH228780   2.342   4.564   1.940 -0.3588  0.2923  0.4527
 2382TIP3    H128781   2.254   4.599   1.955 -0.8911 -1.3240  1.2638
 2382TIP3    H228782   2.368   4.527   2.025  0.8667  0.2191  0.0640
 2383TIP3   OH228783   3.931   0.941   7.295  0.4751 -0.5841  0.1024
 2383TIP3    H128784   3.984   0.911   7.369 -1.3978 -0.5877  1.4861
 2383TIP3    H228785   3.974   0.901   7.218  1.5782 -1.8293  1.3083
 2384TIP3   OH228786   2.267   3.658   2.123  0.1104 -0.3141  0.0815
 2384TIP3    H128787   2.256   3.753   2.131 -1.8992 -0.5004  0.1511
 2384TIP3    H228788   2.201   3.632   2.059  0.0878 -1.7697  0.6509
 2385TIP3   OH228789   1.233   3.503   7.437 -0.1375  0.3680  0.1959
 2385TIP3    H128790   1.185   3.518   7.518  0.9099 -1.5571  1.2569
 2385TIP3    H228791   1.318   3.544   7.451  0.6383 -1.3173  0.8076
 2386TIP3   OH228792   1.534   6.085   7.788  0.0785 -0.2651  0.0890
 2386TIP3    H128793   1.583   6.029   7.848  0.1334  0.6583  0.9278
 2386TIP3    H228794   1.465   6.028   7.752  2.1645 -1.8236 -1.7190
 2387TIP3   OH228795   2.124   2.904   0.145 -0.4669  0.1274  0.8419
 2387TIP3    H128796   2.210   2.901   0.102 -0.3863 -0.0126  1.0104
 2387TIP3    H228797   2.086   2.987   0.117 -0.8779 -0.4472 -0.4011
 2388TIP3   OH228798   4.296   2.378   2.135 -0.1924  0.3547  0.5521
 2388TIP3    H128799   4.361   2.364   2.066  0.5918 -1.5090  1.5917
 2388TIP3    H228800   4.230   2.311   2.120 -0.0868  0.0211  1.5054
 2389TIP3   OH228801   0.735   3.242   1.447 -0.2731  0.7062  0.1316
 2389TIP3    H128802   0.746   3.331   1.413  0.6763  0.7380  0.4992
 2389TIP3    H228803   0.642   3.224   1.435 -0.5045  1.7859  0.1318
 2390TIP3   OH228804   3.312   1.715   1.581 -0.4585  0.1870  1.0324
 2390TIP3    H128805   3.261   1.757   1.511 -0.4113 -1.2688  0.0702
 2390TIP3    H228806   3.365   1.785   1.617 -0.4630  0.9968 -0.4320
 2391TIP3   OH228807   4.190   3.760   0.811  0.3025 -0.1813 -0.0678
 2391TIP3    H128808   4.178   3.716   0.895  0.6046  0.9073  0.5680
 2391TIP3    H228809   4.170   3.693   0.746 -0.8722 -0.7907  0.8705
 2392TIP3   OH228810   2.367   3.927   8.626 -0.0859 -0.9982  0.4033
 2392TIP3    H128811   2.395   3.853   8.573  0.7864  0.1150 -0.7562
 2392TIP3    H228812   2.293   3.964   8.578 -2.0170 -2.3674  2.1136
 2393TIP3   OH228813   4.342   5.746   8.593  0.0852  0.2735  0.1291
 2393TIP3    H128814   4.324   5.818   8.533 -0.8767  0.1112  0.2207
 2393TIP3    H228815   4.321   5.780   8.679  0.7562  0.2593  0.3055
 2394TIP3   OH228816   5.698   5.771   1.542 -0.3036 -0.8368  0.5371
 2394TIP3    H128817   5.788   5.745   1.522  0.3698  0.6263  1.4735
 2394TIP3    H228818   5.645   5.732   1.472  1.3170 -0.0317 -1.2319
 2395TIP3   OH228819   0.873   2.292   0.415 -0.6228  0.3167 -0.3848
 2395TIP3    H128820   0.907   2.218   0.466 -0.2220  0.5118 -0.3655
 2395TIP3    H228821   0.915   2.282   0.329  0.0123  0.9370 -0.1564
 2396TIP3   OH228822   0.756   1.100   0.345  0.2158  0.6878 -0.0369
 2396TIP3    H128823   0.815   1.172   0.326 -0.0564  0.7070 -0.8551
 2396TIP3    H228824   0.715   1.124   0.428  0.8572  0.9895  0.2020
 2397TIP3   OH228825   0.118   3.623   8.555  0.1284 -0.4426  0.0869
 2397TIP3    H128826   0.043   3.579   8.516  0.7558 -3.3165  1.8518
 2397TIP3    H228827   0.080   3.686   8.616 -0.8388 -0.7445 -0.1930
 2398TIP3   OH228828   4.025   2.708   9.143  0.0170  0.2249 -0.0481
 2398TIP3    H128829   3.992   2.789   9.181  1.0647  0.3202  0.7214
 2398TIP3    H228830   3.989   2.638   9.197  1.1309  0.3353  0.8723
 2399TIP3   OH228831   5.972   2.898   2.599  0.2947 -0.4461  0.2820
 2399TIP3    H128832   5.920   2.967   2.640 -0.6557  0.0827 -1.6961
 2399TIP3    H228833   6.061   2.914   2.629  0.2680  2.2217 -0.7924
 2400TIP3   OH228834   5.097   1.716   1.729 -0.0669 -0.2282  0.3341
 2400TIP3    H128835   5.003   1.706   1.745  0.5833 -3.2993  3.2464
 2400TIP3    H228836   5.133   1.628   1.743  3.2947  0.8474 -0.7035
 2401TIP3   OH228837   1.528   4.706   1.957 -0.2523 -0.2233  0.3792
 2401TIP3    H128838   1.444   4.740   1.987 -0.3390 -0.0636 -0.0313
 2401TIP3    H228839   1.572   4.782   1.919 -0.5016 -0.5834 -0.6611
 2402TIP3   OH228840   4.838   2.560   6.827 -0.0849 -0.3072  0.3545
 2402TIP3    H128841   4.833   2.655   6.839  0.5418 -0.1251 -0.6996
 2402TIP3    H228842   4.892   2.529   6.899  0.5325  0.2643  0.1449
 2403TIP3   OH228843   5.856   0.446   2.219  0.2484  0.0050 -0.2222
 2403TIP3    H128844   5.851   0.535   2.253  2.1433  0.9737 -2.2209
 2403TIP3    H228845   5.926   0.405   2.269 -0.9991 -0.6319  1.0933
 2404TIP3   OH228846   0.100   3.221   8.395  0.1509  0.5562 -0.3156
 2404TIP3    H128847   0.009   3.210   8.367  0.2665  1.6896 -1.2044
 2404TIP3    H228848   0.123   3.310   8.370  1.7527  0.0513 -0.7904
 2405TIP3   OH228849   1.804   1.884   1.734  0.1671  0.6929  0.0876
 2405TIP3    H128850   1.798   1.858   1.642  0.4851  0.1600  0.2103
 2405TIP3    H228851   1.839   1.973   1.732  2.1311 -0.0251 -0.2680
 2406TIP3   OH228852   6.072   4.026   1.490  0.0115 -0.7048 -0.3521
 2406TIP3    H128853   6.091   3.953   1.548 -0.1481  1.2691  2.3351
 2406TIP3    H228854   6.010   4.080   1.538  2.1961  2.6472 -0.9829
 2407TIP3   OH228855   4.981   4.861   0.370  0.0131  0.0168  0.4649
 2407TIP3    H128856   4.900   4.811   0.365 -1.6213  2.2304  2.3087
 2407TIP3    H228857   5.048   4.797   0.395 -1.1770 -1.8127 -0.7959
 2408TIP3   OH228858   2.312   5.332   0.540 -0.2041  0.1912  0.4023
 2408TIP3    H128859   2.241   5.270   0.554 -0.5294  0.7004  1.0186
 2408TIP3    H228860   2.365   5.291   0.471 -0.2994 -0.8694  0.9315
 2409TIP3   OH228861   2.816   5.488   0.945 -0.0299  0.5215 -0.4538
 2409TIP3    H128862   2.870   5.487   0.866 -0.7318  0.6434 -0.9441
 2409TIP3    H228863   2.794   5.396   0.960 -1.5926  0.6652 -1.6058
 2410TIP3   OH228864   0.374   1.953   8.140  0.2691 -0.1537 -0.4540
 2410TIP3    H128865   0.329   1.965   8.056  0.6060  1.2691 -0.4586
 2410TIP3    H228866   0.445   1.891   8.120 -1.3414 -2.0689 -0.5424
 2411TIP3   OH228867   1.484   2.774   2.545 -0.3105 -0.6250 -0.2933
 2411TIP3    H128868   1.410   2.717   2.565 -0.3424 -0.6733 -0.5366
 2411TIP3    H228869   1.528   2.787   2.628 -1.5475  0.7561  0.1879
 2412TIP3   OH228870   2.217   6.141   0.136  0.1579  0.1404 -0.1089
 2412TIP3    H128871   2.287   6.083   0.164 -0.3674 -0.6205 -0.3344
 2412TIP3    H228872   2.208   6.125   0.042  1.3230  2.0421 -0.6033
 2413TIP3   OH228873   1.639   1.418   1.711 -0.4379  0.4011  0.1544
 2413TIP3    H128874   1.617   1.433   1.619  0.1921  1.9039  0.2190
 2413TIP3    H228875   1.566   1.455   1.760 -0.0358  1.0554  0.2749
 2414TIP3   OH228876   1.355   4.582   9.055  0.0671 -0.6097 -0.3236
 2414TIP3    H128877   1.311   4.498   9.044  1.1937 -1.3791  0.7307
 2414TIP3    H228878   1.288   4.641   9.087 -0.5981 -1.2670 -0.4801
 2415TIP3   OH228879   2.269   1.835   2.565  0.2229  0.3799 -0.3673
 2415TIP3    H128880   2.248   1.781   2.489 -0.4719 -0.7711  0.6012
 2415TIP3    H228881   2.232   1.787   2.640 -0.5919  2.2812  0.5245
 2416TIP3   OH228882   0.437   3.969   2.362 -0.2328 -0.4899 -0.6462
 2416TIP3    H128883   0.415   3.900   2.424  0.7418  0.4853  0.8616
 2416TIP3    H228884   0.363   4.030   2.368 -0.0567 -0.3077 -0.2921
 2417TIP3   OH228885   3.020   3.763   8.930  0.4539  0.3168 -0.5622
 2417TIP3    H128886   2.963   3.688   8.914  0.6841  0.1773 -0.7285
 2417TIP3    H228887   2.960   3.836   8.944  0.0002 -0.6353  3.8942
 2418TIP3   OH228888   2.872   3.552   0.576  0.4223 -0.0328  0.5217
 2418TIP3    H128889   2.960   3.588   0.567  1.0585 -1.7656 -1.0934
 2418TIP3    H228890   2.868   3.520   0.666  2.2334 -1.6675  0.0947
 2419TIP3   OH228891   0.661   2.172   0.579  0.0040  0.4359 -0.0328
 2419TIP3    H128892   0.596   2.206   0.516  0.1712 -1.4092 -1.2746
 2419TIP3    H228893   0.731   2.237   0.578 -1.0219  1.5771 -0.0143
 2420TIP3   OH228894   1.376   5.651   2.827 -0.1792  0.3603  0.2441
 2420TIP3    H128895   1.469   5.669   2.809 -0.5474  1.2310 -0.9250
 2420TIP3    H228896   1.342   5.733   2.861 -0.4882 -0.0125  0.8407
 2421TIP3   OH228897   2.135   0.542   0.164  0.3025  0.4132  0.5839
 2421TIP3    H128898   2.117   0.497   0.082 -0.2172  0.0688  0.8774
 2421TIP3    H228899   2.173   0.626   0.138  0.7496  0.0336  0.0198
 2422TIP3   OH228900   2.641   3.624   1.610 -0.3367  0.6362 -0.2795
 2422TIP3    H128901   2.583   3.636   1.685 -1.8189 -0.1789 -1.2435
 2422TIP3    H228902   2.648   3.710   1.569 -1.5637  0.5940 -0.6121
 2423TIP3   OH228903   0.080   0.533   8.566  0.0830 -0.0578 -0.2556
 2423TIP3    H128904   0.141   0.603   8.544 -0.2614  0.3355  0.0209
 2423TIP3    H228905   0.136   0.458   8.585  0.5126  0.4288  0.4743
 2424TIP3   OH228906   5.133   1.987   1.812 -0.1702  0.2946 -0.4795
 2424TIP3    H128907   5.133   1.892   1.819 -0.5512  0.3140 -0.1988
 2424TIP3    H228908   5.052   2.008   1.767 -0.3526  0.5216 -0.0518
 2425TIP3   OH228909   4.399   1.642   2.939  0.1446  0.6471  0.2522
 2425TIP3    H128910   4.440   1.575   2.994 -0.3941 -0.4941 -0.7012
 2425TIP3    H228911   4.470   1.672   2.882  0.1354  0.0745 -0.0722
 2426TIP3   OH228912   2.887   1.092   8.552  0.3979  0.1951  0.4352
 2426TIP3    H128913   2.813   1.148   8.528 -0.7839 -1.2763  0.5152
 2426TIP3    H228914   2.941   1.087   8.473 -1.8720 -2.1695 -1.1329
 2427TIP3   OH228915   2.249   0.031   0.615  0.4395 -0.3969 -0.9292
 2427TIP3    H128916   2.207  -0.055   0.622  0.0103 -0.1259  0.1368
 2427TIP3    H228917   2.249   0.064   0.705  0.7137  0.6649 -1.3074
 2428TIP3   OH228918   6.689   4.847   8.860  0.3644 -0.0830  0.3690
 2428TIP3    H128919   6.762   4.864   8.801 -1.1947 -0.1198 -1.7298
 2428TIP3    H228920   6.630   4.922   8.846 -0.2769 -0.3488  1.5315
 2429TIP3   OH228921   4.363   4.337   0.892 -0.2189 -0.1570  0.1069
 2429TIP3    H128922   4.448   4.361   0.929 -0.3618 -1.0049  1.0393
 2429TIP3    H228923   4.382   4.312   0.802  0.3230  0.8217 -0.0684
 2430TIP3   OH228924   3.932   4.942   8.597 -0.0139 -0.3133  0.3277
 2430TIP3    H128925   4.012   4.891   8.584 -0.2190 -0.3938 -0.6273
 2430TIP3    H228926   3.869   4.879   8.633 -0.1374 -0.6382 -0.4454
 2431TIP3   OH228927   2.110   1.429   8.043  0.7168  0.4119 -0.3291
 2431TIP3    H128928   2.099   1.394   7.954  3.9311  2.2952 -1.6195
 2431TIP3    H228929   2.046   1.500   8.048 -0.5106 -0.6391 -0.5264
 2432TIP3   OH228930   5.000   3.742   2.063  0.8350  0.0476 -0.1130
 2432TIP3    H128931   4.936   3.736   1.993  0.6942  2.5537 -0.3095
 2432TIP3    H228932   4.953   3.714   2.141  0.3640 -0.7766 -0.6769
 2433TIP3   OH228933   2.906   5.554   1.658  0.0056 -0.3477 -0.1023
 2433TIP3    H128934   2.814   5.578   1.672  0.4428  0.4783  1.5314
 2433TIP3    H228935   2.956   5.633   1.679  1.1328 -0.9190 -0.5372
 2434TIP3   OH228936   5.412   4.482   7.952  0.5656 -0.3036  0.1345
 2434TIP3    H128937   5.481   4.433   7.999  0.2081 -0.6371  0.3172
 2434TIP3    H228938   5.349   4.504   8.020  0.7932  0.5467  0.0770
 2435TIP3   OH228939   2.140   2.254   8.477  0.0459 -0.1497 -0.0520
 2435TIP3    H128940   2.049   2.229   8.495  0.1946  0.7741  2.2550
 2435TIP3    H228941   2.134   2.347   8.452  0.4886  0.4329  1.8988
 2436TIP3   OH228942   0.559   3.622   7.519 -0.0908  0.4039  0.2991
 2436TIP3    H128943   0.648   3.625   7.483 -0.0018  1.6971  0.5569
 2436TIP3    H228944   0.525   3.710   7.505 -1.9349 -0.4851 -1.2121
 2437TIP3   OH228945   0.798   0.606   9.119  0.2554 -0.2246  0.1948
 2437TIP3    H128946   0.857   0.576   9.049  0.2480 -0.2837  0.2140
 2437TIP3    H228947   0.769   0.693   9.090  0.0449 -0.3590 -0.0040
 2438TIP3   OH228948   2.343   4.656   1.400 -0.0165 -0.0237 -0.5566
 2438TIP3    H128949   2.409   4.646   1.332 -1.3313  0.0563 -1.8748
 2438TIP3    H228950   2.308   4.568   1.413  0.5417 -0.1238  0.3758
 2439TIP3   OH228951   0.524   4.170   0.746 -0.3575 -0.3076  0.4531
 2439TIP3    H128952   0.505   4.246   0.692 -0.7560  0.9785  2.3024
 2439TIP3    H228953   0.620   4.164   0.747 -0.3559 -0.6542 -0.7567
 2440TIP3   OH228954   2.832   2.611   0.971 -0.4858  0.2939  0.2482
 2440TIP3    H128955   2.771   2.542   0.996 -0.0743 -0.1307  0.0819
 2440TIP3    H228956   2.808   2.634   0.882  0.5846 -0.9779 -0.4063
 2441TIP3   OH228957   2.792   6.331   8.222 -0.2434 -0.1517  0.4005
 2441TIP3    H128958   2.702   6.300   8.211 -0.7247  0.6126  1.8503
 2441TIP3    H228959   2.791   6.421   8.189  0.0734 -0.2577  0.0993
 2442TIP3   OH228960   5.983   4.717   0.578  0.3981  0.1744 -0.4099
 2442TIP3    H128961   5.965   4.780   0.648 -0.8698 -1.9300  1.3216
 2442TIP3    H228962   5.902   4.714   0.527  0.4553 -0.0239 -0.4905
 2443TIP3   OH228963   4.283   6.213   2.201  0.3941  0.4439 -0.2910
 2443TIP3    H128964   4.288   6.304   2.172  0.2774  0.3271 -0.6704
 2443TIP3    H228965   4.237   6.167   2.131 -2.5634  0.7196  1.3240
 2444TIP3   OH228966   0.382   1.040   2.232 -0.2636 -0.0410  0.1654
 2444TIP3    H128967   0.392   0.956   2.188 -0.9559  0.6343 -1.3567
 2444TIP3    H228968   0.384   1.019   2.325 -1.1039 -1.8256 -0.1798
 2445TIP3   OH228969   5.663   2.107   0.882  0.1060  0.3254  0.0823
 2445TIP3    H128970   5.748   2.075   0.910 -0.5549 -0.0070  1.8386
 2445TIP3    H228971   5.627   2.037   0.828  0.6563  0.1722 -0.0844
 2446TIP3   OH228972   0.775   0.151   2.547  1.0377  0.4471  0.1572
 2446TIP3    H128973   0.696   0.100   2.530  0.4282  1.6757 -0.8296
 2446TIP3    H228974   0.809   0.175   2.461  1.5088  1.3889  0.5797
 2447TIP3   OH228975   5.592   0.213   7.421 -0.4918 -0.0707 -0.2598
 2447TIP3    H128976   5.663   0.152   7.403  0.5746  1.0666  0.0100
 2447TIP3    H228977   5.553   0.180   7.503 -0.0471 -0.4916 -0.2105
 2448TIP3   OH228978   0.951   6.034   0.978 -0.1207 -0.2995  0.1070
 2448TIP3    H128979   0.950   5.993   0.891  0.9202  0.3976 -0.2526
 2448TIP3    H228980   0.927   5.964   1.038 -4.3602 -0.0580 -0.9871
 2449TIP3   OH228981   5.780   3.798   1.597  0.1778 -0.1458  0.2438
 2449TIP3    H128982   5.710   3.792   1.532  0.0778 -0.9584  0.4209
 2449TIP3    H228983   5.789   3.892   1.613 -0.2783  0.0179 -0.4201
 2450TIP3   OH228984   4.302   6.070   7.850  0.1552  0.0297 -0.3629
 2450TIP3    H128985   4.386   6.039   7.817  0.6200 -0.4753  1.2530
 2450TIP3    H228986   4.317   6.090   7.942 -0.9473  2.0205 -0.5448
 2451TIP3   OH228987   0.223   4.758   9.152  0.6695 -0.2875  0.0112
 2451TIP3    H128988   0.154   4.825   9.145  1.2327  0.6602  2.5779
 2451TIP3    H228989   0.208   4.717   9.237  2.2752 -1.2722 -0.1432
 2452TIP3   OH228990   6.428   6.521   2.482  0.0928 -0.0527  1.2103
 2452TIP3    H128991   6.415   6.604   2.435 -1.8128 -0.8053  0.2620
 2452TIP3    H228992   6.424   6.454   2.413 -1.1310 -1.0874  2.2371
 2453TIP3   OH228993   5.480   3.924   8.228 -0.0013  0.1729  0.3607
 2453TIP3    H128994   5.473   3.857   8.160  0.0626  2.3505 -1.9551
 2453TIP3    H228995   5.390   3.946   8.249 -0.0233 -0.6141  1.1674
 2454TIP3   OH228996   5.324   5.886   1.219  0.2878  0.2589 -0.3801
 2454TIP3    H128997   5.250   5.940   1.191  0.3554  1.0570  0.9063
 2454TIP3    H228998   5.401   5.935   1.192  0.3474  0.7698  0.6519
 2455TIP3   OH228999   6.592   6.101   8.487  0.0254  0.2289  0.5269
 2455TIP3    H129000   6.675   6.109   8.533  1.5746 -0.7919 -1.8354
 2455TIP3    H229001   6.577   6.006   8.481 -0.9549  0.3805  0.3394
 2456TIP3   OH229002   3.554   2.138   8.968  0.2004  0.2896  0.2513
 2456TIP3    H129003   3.620   2.187   9.017  0.1431 -0.0884  0.7150
 2456TIP3    H229004   3.572   2.046   8.989  1.1441  0.0009 -1.6320
 2457TIP3   OH229005   3.297   1.725   8.897  0.3144 -0.5756  0.3986
 2457TIP3    H129006   3.376   1.677   8.876  0.0262 -1.2607  0.8432
 2457TIP3    H229007   3.296   1.731   8.993  0.8223  1.1482  0.3359
 2458TIP3   OH229008   6.155   1.872   2.107 -0.2640 -0.3456 -0.2732
 2458TIP3    H129009   6.245   1.896   2.085 -0.4834  1.2611  0.4168
 2458TIP3    H229010   6.131   1.806   2.042  1.3124 -0.5993 -0.6359
 2459TIP3   OH229011   2.588   4.380   2.426  0.4172 -0.2776  0.2336
 2459TIP3    H129012   2.532   4.308   2.455  2.7945 -2.4604 -0.2176
 2459TIP3    H229013   2.585   4.444   2.497  0.9318 -2.4610  2.3386
 2460TIP3   OH229014   6.439   5.901   8.112  0.5138  0.5287  0.3815
 2460TIP3    H129015   6.377   5.828   8.115  1.0259  0.0866  0.1927
 2460TIP3    H229016   6.424   5.948   8.194 -1.3831  1.5147 -0.4543
 2461TIP3   OH229017   4.376   3.526   1.712  0.1216  0.1153  0.0245
 2461TIP3    H129018   4.444   3.459   1.720  0.8565  0.6190 -1.5248
 2461TIP3    H229019   4.389   3.583   1.788  0.4831 -0.6243  0.5255
 2462TIP3   OH229020   5.338   3.073   1.039 -0.2139 -0.3561 -0.2663
 2462TIP3    H129021   5.281   3.129   0.985  0.9367 -0.3692 -1.5648
 2462TIP3    H229022   5.417   3.061   0.985 -0.6367 -3.7464 -0.3246
 2463TIP3   OH229023   3.401   3.985   9.019  0.2684  0.0361  0.1355
 2463TIP3    H129024   3.475   4.028   8.978  0.9118 -2.4492 -1.5399
 2463TIP3    H229025   3.409   3.893   8.993 -1.9529 -0.8111  2.0614
 2464TIP3   OH229026   5.594   5.315   1.684  0.0063 -0.6800 -0.4218
 2464TIP3    H129027   5.638   5.261   1.619 -0.6020 -0.9247 -0.6389
 2464TIP3    H229028   5.642   5.298   1.765 -0.6254 -2.1533 -0.3185
 2465TIP3   OH229029   4.653   3.705   6.984 -0.6013  0.2688  0.2138
 2465TIP3    H129030   4.743   3.716   6.951 -0.4373  0.7326  0.8058
 2465TIP3    H229031   4.615   3.638   6.927 -0.7457  1.9180 -1.7804
 2466TIP3   OH229032   4.507   1.086   0.037  0.1014 -0.6651  0.1095
 2466TIP3    H129033   4.534   1.177   0.049 -0.0940 -0.7397  1.2181
 2466TIP3    H229034   4.452   1.088  -0.042 -1.4408  0.5456  1.1344
 2467TIP3   OH229035   3.310   3.509   7.692 -0.0441 -0.0027  0.3940
 2467TIP3    H129036   3.287   3.600   7.674 -1.4956 -0.4232  0.0357
 2467TIP3    H229037   3.256   3.458   7.631  1.6056 -1.0666 -0.2582
 2468TIP3   OH229038   0.024   1.113   9.152 -0.0002  0.2409 -0.5933
 2468TIP3    H129039   0.026   1.151   9.064 -0.9960  0.4423 -0.5436
 2468TIP3    H229040   0.087   1.041   9.148 -0.1933  0.1037 -1.5462
 2469TIP3   OH229041   0.500   5.451   9.042 -0.4186  0.6245  0.1729
 2469TIP3    H129042   0.455   5.390   9.101 -0.3350 -0.8977 -1.2648
 2469TIP3    H229043   0.553   5.506   9.100 -1.5146  0.2156  1.6211
 2470TIP3   OH229044   0.356   4.702   7.995  0.2557 -0.1122  0.7846
 2470TIP3    H129045   0.342   4.761   8.069 -0.9900 -1.4491  1.6581
 2470TIP3    H229046   0.270   4.693   7.954  0.5096 -1.0026  0.4169
 2471TIP3   OH229047   1.685   3.825   1.871  0.0562  0.4240  0.5887
 2471TIP3    H129048   1.720   3.818   1.960  2.2720  0.3916 -0.2150
 2471TIP3    H229049   1.657   3.737   1.849 -0.4978  0.4324  1.2516
 2472TIP3   OH229050   4.877   3.327   1.373  0.4875  0.4764  0.0458
 2472TIP3    H129051   4.894   3.251   1.318  0.5437  0.5583 -0.0512
 2472TIP3    H229052   4.869   3.400   1.311 -0.9502  0.3240  0.0334
 2473TIP3   OH229053   6.053   3.067   7.871 -0.3679 -0.4576 -0.0567
 2473TIP3    H129054   6.068   2.975   7.849 -0.2338 -0.3353 -0.4746
 2473TIP3    H229055   6.104   3.081   7.952 -0.5958 -0.8147  0.1503
 2474TIP3   OH229056   2.782   1.437   1.038 -0.2293  0.3382  0.4374
 2474TIP3    H129057   2.722   1.434   1.113  0.0726  0.2145  0.6789
 2474TIP3    H229058   2.867   1.458   1.077 -0.2746  1.3785 -0.0001
 2475TIP3   OH229059   5.463   4.859   6.974  0.5146 -0.0415 -0.0977
 2475TIP3    H129060   5.488   4.780   7.023  1.7074 -0.4949 -1.3808
 2475TIP3    H229061   5.546   4.896   6.946 -0.1342  0.1338 -1.8755
 2476TIP3   OH229062   2.977   1.603   7.322  0.0204 -0.6534 -0.5978
 2476TIP3    H129063   3.036   1.663   7.276  0.9134 -2.6010 -2.1438
 2476TIP3    H229064   2.894   1.650   7.326  1.2778  1.6487  0.4627
 2477TIP3   OH229065   4.343   3.920   8.452 -0.0342 -0.0733  0.2568
 2477TIP3    H129066   4.399   3.857   8.407  0.8096  1.3036 -0.6973
 2477TIP3    H229067   4.338   3.888   8.542  0.5458 -1.3655 -0.1492
 2478TIP3   OH229068   2.984   2.391   0.994 -0.0907 -0.1426  0.2737
 2478TIP3    H129069   2.933   2.471   0.981 -1.7745 -1.0808  0.8577
 2478TIP3    H229070   3.075   2.417   0.976 -0.7501  1.5880 -0.7499
 2479TIP3   OH229071   2.261   3.137   0.442  0.0747 -0.0231  0.0368
 2479TIP3    H129072   2.207   3.096   0.509 -0.9695  1.9864  0.5176
 2479TIP3    H229073   2.313   3.203   0.490  1.6170 -0.6575 -0.6953
 2480TIP3   OH229074   2.048   6.631   3.003 -0.2997 -0.0547  0.0940
 2480TIP3    H129075   2.139   6.600   3.010 -0.4618 -0.8462 -1.0873
 2480TIP3    H229076   2.025   6.617   2.911 -1.2589  1.1819  0.1246
 2481TIP3   OH229077   5.181   0.165   0.697 -0.2585 -0.2096  0.0740
 2481TIP3    H129078   5.202   0.155   0.604 -2.7121 -0.5736 -0.5242
 2481TIP3    H229079   5.225   0.092   0.740  1.0028  0.0248 -0.7574
 2482TIP3   OH229080   2.013   1.113   8.975  0.0591 -0.2343  0.3956
 2482TIP3    H129081   1.940   1.076   8.925  0.8838 -0.3584 -0.7624
 2482TIP3    H229082   2.025   1.200   8.938  0.8336 -0.4155  0.2206
 2483TIP3   OH229083   0.750   4.219   2.317  0.6878 -0.0193  0.8944
 2483TIP3    H129084   0.692   4.154   2.277  1.3146 -0.1029  0.0741
 2483TIP3    H229085   0.838   4.188   2.295  1.0191  0.6345  1.2648
 2484TIP3   OH229086   0.497   0.728   0.516 -0.1323 -0.4473  0.7041
 2484TIP3    H129087   0.446   0.676   0.577 -1.9441  0.9944  0.5184
 2484TIP3    H229088   0.475   0.693   0.429 -0.9251  0.2372  0.6170
 2485TIP3   OH229089   1.520   0.538   8.995 -0.5209  0.4874  0.0016
 2485TIP3    H129090   1.538   0.607   9.059 -1.0830  1.1712 -0.5545
 2485TIP3    H229091   1.464   0.580   8.929 -0.7152 -0.4478 -0.4549
 2486TIP3   OH229092   1.465   4.886   7.769  0.0306 -0.1448 -0.0855
 2486TIP3    H129093   1.550   4.887   7.724 -0.5493 -0.7436 -1.2476
 2486TIP3    H229094   1.472   4.954   7.836  1.5747 -0.4797  0.1235
 2487TIP3   OH229095   1.431   6.334   1.940  0.2569 -0.4230 -0.5457
 2487TIP3    H129096   1.394   6.300   1.859  1.3888 -0.1896 -1.1821
 2487TIP3    H229097   1.404   6.426   1.943  1.3677 -0.0426 -1.3976
 2488TIP3   OH229098   2.061   5.048   7.220  1.1088 -0.8054  0.6441
 2488TIP3    H129099   2.101   5.110   7.280  0.5082 -0.7526  1.0027
 2488TIP3    H229100   2.119   5.046   7.144  1.4307 -0.2381  0.8731
 2489TIP3   OH229101   5.553   0.963   0.805  0.1321 -0.0593 -0.0095
 2489TIP3    H129102   5.555   1.045   0.754 -1.0541 -1.3014 -2.2234
 2489TIP3    H229103   5.504   0.986   0.884 -0.3910  1.3218 -0.6868
 2490TIP3   OH229104   5.359   4.206   8.604  0.1421  0.3353 -0.2291
 2490TIP3    H129105   5.431   4.150   8.633 -0.1876 -0.3460 -0.6997
 2490TIP3    H229106   5.322   4.241   8.685  0.6544  0.2588  0.0439
 2491TIP3   OH229107   2.031   3.139   0.092  0.1095  0.0156  0.3326
 2491TIP3    H129108   2.064   3.225   0.117  0.8544 -0.4430  0.9605
 2491TIP3    H229109   1.936   3.149   0.092  0.1963  1.0206 -0.2806
 2492TIP3   OH229110   0.379   2.518   2.989 -0.6391  0.1253 -0.0727
 2492TIP3    H129111   0.433   2.590   3.022  0.5765  0.7728 -3.1801
 2492TIP3    H229112   0.442   2.449   2.968 -1.4887 -0.7120  0.0484
 2493TIP3   OH229113   2.658   0.461   1.200 -0.2058  0.0501 -0.1762
 2493TIP3    H129114   2.631   0.373   1.227  0.9368 -0.7654 -1.5551
 2493TIP3    H229115   2.612   0.476   1.118 -0.9838  1.0823  0.4274
 2494TIP3   OH229116   2.490   3.613   7.614 -0.3314 -0.0376 -0.0128
 2494TIP3    H129117   2.504   3.617   7.709  0.9115  0.4234 -0.1952
 2494TIP3    H229118   2.532   3.693   7.580  1.8650 -1.5921 -1.2188
 2495TIP3   OH229119   5.545   2.892   8.065  0.2036  0.1120 -0.1563
 2495TIP3    H129120   5.533   2.984   8.040 -1.1068  0.3150  1.0871
 2495TIP3    H229121   5.471   2.847   8.026  0.5857 -0.3531 -0.3580
 2496TIP3   OH229122   2.416   5.754   0.234  0.5297  0.0806 -0.3027
 2496TIP3    H129123   2.327   5.754   0.269  0.2752  1.4038 -0.9069
 2496TIP3    H229124   2.433   5.845   0.211  0.5962 -0.6688 -3.7556
 2497TIP3   OH229125   0.739   5.832   0.976 -0.3433 -0.7530  0.0026
 2497TIP3    H129126   0.784   5.846   0.892 -1.2288  1.0196 -0.2281
 2497TIP3    H229127   0.649   5.807   0.951 -0.4319 -0.8771  0.4386
 2498TIP3   OH229128   2.759   4.303   9.039 -0.1569  0.3739  0.1120
 2498TIP3    H129129   2.676   4.345   9.060 -0.8211  0.1199 -1.8133
 2498TIP3    H229130   2.821   4.375   9.029 -0.6536  0.7175 -0.5315
 2499TIP3   OH229131   3.923   5.160   1.187  0.0575 -0.4257 -0.5721
 2499TIP3    H129132   3.996   5.197   1.237 -0.8271 -0.8125  1.0977
 2499TIP3    H229133   3.876   5.237   1.153  0.1749 -0.0949 -0.0162
 2500TIP3   OH229134   5.912   1.985   0.901  0.0545  0.4804  0.1989
 2500TIP3    H129135   5.959   1.998   0.819 -1.8115  0.6542 -0.8922
 2500TIP3    H229136   5.981   1.978   0.967  1.6290 -0.5143 -1.4699
 2501TIP3   OH229137   0.769   3.125   1.183 -0.7541 -0.1969  0.0648
 2501TIP3    H129138   0.744   3.054   1.243  2.2339 -0.5240  1.0741
 2501TIP3    H229139   0.840   3.170   1.228 -0.4619  1.5012 -1.9543
 2502TIP3   OH229140   1.171   6.169   1.158 -0.2048 -0.3584 -0.1576
 2502TIP3    H129141   1.196   6.086   1.200 -0.7837 -1.4729 -1.9000
 2502TIP3    H229142   1.102   6.144   1.097 -1.3721  1.6657  0.2600
 2503TIP3   OH229143   5.437   4.731   1.879 -0.2810 -0.1463 -0.0394
 2503TIP3    H129144   5.464   4.650   1.836  1.5866 -0.2048  1.1126
 2503TIP3    H229145   5.502   4.796   1.850 -0.3318  0.3398  0.8909
 2504TIP3   OH229146   3.555   2.429   1.702 -0.1395  0.0739  0.8024
 2504TIP3    H129147   3.528   2.445   1.611  1.3203  1.4107  0.5443
 2504TIP3    H229148   3.483   2.463   1.755 -1.2415 -1.1991  0.1618
 2505TIP3   OH229149   6.407   3.905   7.948  0.2071  0.1300 -0.0869
 2505TIP3    H129150   6.330   3.930   7.897  0.4697 -2.6700 -2.1107
 2505TIP3    H229151   6.456   3.847   7.890  2.1349 -0.8530  2.3325
 2506TIP3   OH229152   3.717   0.212   0.558  0.5287  0.4117 -0.0000
 2506TIP3    H129153   3.754   0.127   0.582 -2.7861 -1.3607 -0.5569
 2506TIP3    H229154   3.707   0.208   0.463  0.3846  1.4695 -0.0441
 2507TIP3   OH229155   4.786   5.340   7.935  0.1870 -0.4205 -0.7730
 2507TIP3    H129156   4.783   5.308   8.024  0.6646 -0.1827 -0.6668
 2507TIP3    H229157   4.699   5.378   7.919  0.6266  1.0840  0.1826
 2508TIP3   OH229158   3.247   2.558   8.746  0.1050  0.0580 -0.2349
 2508TIP3    H129159   3.255   2.650   8.721  1.9985  0.4594  1.5621
 2508TIP3    H229160   3.336   2.523   8.737 -0.1678 -1.0342  1.0150
 2509TIP3   OH229161   5.779   6.158   1.876 -0.2159  0.1279 -1.0339
 2509TIP3    H129162   5.847   6.134   1.813  0.2287 -0.4010 -0.3701
 2509TIP3    H229163   5.712   6.090   1.865 -0.3179  0.2557 -1.2052
 2510TIP3   OH229164   0.224   5.478   0.781  0.3476  0.4417 -0.6843
 2510TIP3    H129165   0.157   5.545   0.794 -1.4153 -1.2317 -0.6204
 2510TIP3    H229166   0.198   5.433   0.701  1.5652 -0.0905 -0.8027
 2511TIP3   OH229167   0.756   2.468   1.990  0.2393  0.8303  0.3006
 2511TIP3    H129168   0.701   2.506   2.058 -0.9918  1.9452 -1.2584
 2511TIP3    H229169   0.722   2.380   1.979  1.1456  0.2409  1.8212
 2512TIP3   OH229170   1.808   2.690   8.047 -0.0880 -0.2586 -0.0469
 2512TIP3    H129171   1.812   2.669   7.954 -0.2018 -1.1444  0.1353
 2512TIP3    H229172   1.731   2.746   8.057  0.5649  0.7755 -0.6470
 2513TIP3   OH229173   5.733   4.193   2.230 -0.6738 -0.2609  0.9338
 2513TIP3    H129174   5.811   4.170   2.281 -0.8416 -0.9845  0.8680
 2513TIP3    H229175   5.663   4.139   2.266 -0.9598 -0.2291  0.4383
 2514TIP3   OH229176   0.810   3.361   8.280 -0.0652 -0.1168  0.5490
 2514TIP3    H129177   0.813   3.271   8.311 -0.3043  0.3608  2.0425
 2514TIP3    H229178   0.825   3.414   8.359 -0.3096  1.1510 -0.2277
 2515TIP3   OH229179   2.134   4.985   2.034  0.1354  0.0097  0.2571
 2515TIP3    H129180   2.161   4.926   2.105 -0.1353 -0.3901  0.0327
 2515TIP3    H229181   2.192   5.060   2.042  0.7891 -0.4848  0.2708
 2516TIP3   OH229182   1.082   2.093   2.852 -0.1595  0.3741  0.3688
 2516TIP3    H129183   1.131   2.169   2.884 -0.7669 -0.1762  2.7881
 2516TIP3    H229184   1.043   2.054   2.930 -0.9247 -1.7145 -0.9552
 2517TIP3   OH229185   2.627   4.102   0.812  0.2966 -0.2220 -0.0629
 2517TIP3    H129186   2.593   4.130   0.727 -0.8571  0.5082  0.6206
 2517TIP3    H229187   2.666   4.181   0.849  1.7086 -0.7713 -0.3127
 2518TIP3   OH229188   2.475   3.289   2.015  0.6125 -0.8250 -0.4060
 2518TIP3    H129189   2.567   3.312   2.029 -0.0314  0.2706  3.0859
 2518TIP3    H229190   2.427   3.370   2.033 -1.1203 -1.8615 -0.0744
 2519TIP3   OH229191   2.607   5.310   8.998  0.1807 -0.2073  0.8761
 2519TIP3    H129192   2.681   5.370   9.015 -0.3580  0.6913  0.1353
 2519TIP3    H229193   2.609   5.249   9.071  2.1529 -0.6955  0.4697
 2520TIP3   OH229194   0.141   2.144   0.128 -0.4176 -0.1274 -0.2199
 2520TIP3    H129195   0.179   2.080   0.188  0.5404 -0.0031 -0.6861
 2520TIP3    H229196   0.083   2.196   0.183 -0.1908 -0.5460  0.4306
 2521TIP3   OH229197   4.312   1.962   7.793  0.1976 -0.2391  0.5688
 2521TIP3    H129198   4.265   1.898   7.738  0.5672  1.2642 -1.6190
 2521TIP3    H229199   4.402   1.957   7.763  0.3538  0.8194  0.8390
 2522TIP3   OH229200   5.011   2.449   8.262  0.2214  0.6457 -0.2267
 2522TIP3    H129201   4.996   2.467   8.169  0.2016  0.8346 -0.1868
 2522TIP3    H229202   5.103   2.468   8.275  0.3483  0.1309 -0.3194
 2523TIP3   OH229203   0.129   5.110   0.698 -0.4990  0.0041  0.3557
 2523TIP3    H129204   0.079   5.029   0.694 -0.1167 -0.2649  0.9279
 2523TIP3    H229205   0.208   5.088   0.749 -1.4533  1.2721  2.5375
 2524TIP3   OH229206   4.201   5.206   7.063  0.9552 -0.2852  0.3019
 2524TIP3    H129207   4.287   5.177   7.035  1.7274  1.3516  0.8657
 2524TIP3    H229208   4.162   5.246   6.985  0.9268 -0.5129  0.1979
 2525TIP3   OH229209   4.598   2.515   1.288  0.2908  0.0620 -0.4587
 2525TIP3    H129210   4.632   2.431   1.257  0.6447 -0.0453  0.1918
 2525TIP3    H229211   4.566   2.497   1.377  0.6992  0.6803 -0.1732
 2526TIP3   OH229212   1.681   0.942   1.191  0.1630  0.4499 -0.3170
 2526TIP3    H129213   1.682   0.847   1.205  3.1779  0.1983 -1.4373
 2526TIP3    H229214   1.709   0.979   1.275 -1.0181  0.3846  0.1221
 2527TIP3   OH229215   3.097   6.653   2.040 -0.4217 -0.1658 -0.1243
 2527TIP3    H129216   3.026   6.678   2.098 -0.8563 -0.7954 -0.3715
 2527TIP3    H229217   3.176   6.687   2.082 -0.6590 -1.1074  1.1352
 2528TIP3   OH229218   0.353   6.398   2.439  0.4388  0.2344 -0.2318
 2528TIP3    H129219   0.433   6.429   2.482  0.8469  0.9790 -1.4544
 2528TIP3    H229220   0.370   6.306   2.421  1.2789  0.5125 -0.9684
 2529TIP3   OH229221   5.171   3.730   1.728  0.1914 -0.1570  0.2779
 2529TIP3    H129222   5.184   3.638   1.706 -0.3077 -0.2536  0.3683
 2529TIP3    H229223   5.080   3.749   1.703 -0.4477 -0.2972  2.2569
 2530TIP3   OH229224   2.467   4.483   0.985  0.3739 -0.2157  0.8436
 2530TIP3    H129225   2.530   4.421   0.947 -0.7560 -1.6132  1.1588
 2530TIP3    H229226   2.514   4.521   1.059  2.3457  2.0177 -1.3827
 2531TIP3   OH229227   6.018   3.514   8.721  0.0833  0.5701 -0.1065
 2531TIP3    H129228   6.089   3.566   8.684  0.0609  1.2627  0.7748
 2531TIP3    H229229   6.049   3.490   8.809  0.1903 -1.1269 -0.5764
 2532TIP3   OH229230   6.122   4.594   1.958  0.2570 -0.6245  0.5929
 2532TIP3    H129231   6.098   4.535   2.030  0.3049  0.4357  1.5133
 2532TIP3    H229232   6.189   4.547   1.909  0.3565 -1.3023  1.3643
 2533TIP3   OH229233   1.199   4.751   7.278  0.6652  0.0218 -0.1779
 2533TIP3    H129234   1.107   4.742   7.306 -0.3435 -0.8236 -3.3109
 2533TIP3    H229235   1.221   4.841   7.300 -0.4827 -0.0870  1.7043
 2534TIP3   OH229236   2.898   6.248   1.842  0.4398 -0.7497 -0.0976
 2534TIP3    H129237   2.810   6.272   1.872  0.7377  0.7662 -0.3381
 2534TIP3    H229238   2.886   6.164   1.798 -0.8185 -0.7536  0.2035
 2535TIP3   OH229239   4.041   0.800   0.218 -0.6068 -0.5170  0.2549
 2535TIP3    H129240   4.023   0.738   0.146 -1.7132  0.1800 -0.0885
 2535TIP3    H229241   4.000   0.881   0.190  0.5890  0.3119  0.8363
 2536TIP3   OH229242   1.324   6.184   1.741  0.5523  0.4445  0.1387
 2536TIP3    H129243   1.343   6.147   1.655  0.9021 -1.7052  1.0695
 2536TIP3    H229244   1.245   6.138   1.770 -0.2260  1.9664  0.5231
 2537TIP3   OH229245   3.122   5.835   2.129 -0.0184 -0.0326 -0.0384
 2537TIP3    H129246   3.124   5.924   2.165  0.8704 -0.1419  0.1933
 2537TIP3    H229247   3.137   5.778   2.204 -0.0497 -0.3520 -0.2717
 2538TIP3   OH229248   3.647   6.560   1.944  0.5930 -0.7151 -0.6877
 2538TIP3    H129249   3.564   6.522   1.971  1.5935 -1.5234  1.5224
 2538TIP3    H229250   3.713   6.494   1.968  2.1004  1.0611  0.3749
 2539TIP3   OH229251   2.309   2.889   0.993 -0.0038  0.5766 -0.5339
 2539TIP3    H129252   2.337   2.887   0.902 -0.9159  0.7186 -0.8299
 2539TIP3    H229253   2.326   2.979   1.022  1.3107  0.2466 -0.2136
 2540TIP3   OH229254   0.108   0.537   7.599  0.7269 -0.2095  0.3028
 2540TIP3    H129255   0.103   0.629   7.574 -1.2493 -0.5570 -0.7476
 2540TIP3    H229256   0.171   0.535   7.671  2.2258  1.6837 -0.8473
 2541TIP3   OH229257   1.298   1.201   8.333 -0.0928  0.0330 -0.0430
 2541TIP3    H129258   1.338   1.289   8.333  0.1792 -0.0642  1.4509
 2541TIP3    H229259   1.274   1.186   8.242  0.6804  1.2930 -0.4857
 2542TIP3   OH229260   5.599   1.584   9.068 -0.3423  0.0607 -0.3781
 2542TIP3    H129261   5.661   1.521   9.106 -0.1914 -0.2260 -1.0872
 2542TIP3    H229262   5.520   1.574   9.122  0.2215  0.4663  0.5648
 2543TIP3   OH229263   5.608   0.558   2.636 -0.1109 -0.1785 -0.3487
 2543TIP3    H129264   5.520   0.568   2.672 -0.4338  0.4595 -1.2784
 2543TIP3    H229265   5.640   0.475   2.672 -0.4614  0.3568  1.2529
 2544TIP3   OH229266   3.485   5.985   8.831  0.6096 -0.3594  0.3129
 2544TIP3    H129267   3.546   5.924   8.872  1.0859 -0.5706 -0.6789
 2544TIP3    H229268   3.410   5.932   8.805  0.2687 -0.2094  0.9875
 2545TIP3   OH229269   4.484   2.661   0.170  0.8572  0.6788  0.4109
 2545TIP3    H129270   4.493   2.728   0.238  0.1674 -0.0540  1.2487
 2545TIP3    H229271   4.449   2.708   0.094  0.7750  1.3375  0.8487
 2546TIP3   OH229272   6.091   5.004   9.102  0.5385 -0.4301 -0.0394
 2546TIP3    H129273   6.032   5.019   9.175  1.2887 -0.0531  0.5003
 2546TIP3    H229274   6.126   4.917   9.117 -0.3047 -0.8993 -0.6786
 2547TIP3   OH229275   1.480   0.117   8.293  0.5155  0.0333  0.1218
 2547TIP3    H129276   1.492   0.157   8.379  1.4952  1.7336 -0.7436
 2547TIP3    H229277   1.569   0.107   8.260  0.2231 -1.7902 -0.2205
 2548TIP3   OH229278   3.485   2.428   7.726  0.9103 -0.4724 -0.2634
 2548TIP3    H129279   3.525   2.341   7.728  0.4817 -0.6803 -0.5744
 2548TIP3    H229280   3.556   2.488   7.749  1.2722 -0.8791 -0.3128
 2549TIP3   OH229281   0.863   4.654   8.129 -0.1249 -0.4443  0.0377
 2549TIP3    H129282   0.904   4.700   8.202 -0.2508 -0.6970  0.2702
 2549TIP3    H229283   0.908   4.687   8.051  0.0141 -0.1772  0.2292
 2550TIP3   OH229284   5.474   2.232   1.740  0.1117  0.1743  0.1538
 2550TIP3    H129285   5.453   2.259   1.651  2.5099 -0.6433 -0.7478
 2550TIP3    H229286   5.563   2.265   1.755  0.4501 -1.2179  1.5627
 2551TIP3   OH229287   1.877   4.416   7.279 -0.1937 -0.9073 -0.1773
 2551TIP3    H129288   1.873   4.326   7.311  1.7308 -0.2057  2.3129
 2551TIP3    H229289   1.964   4.425   7.241 -0.4313 -0.1238 -0.5664
 2552TIP3   OH229290   4.659   0.725   8.723 -0.1635  0.5697  0.6108
 2552TIP3    H129291   4.674   0.662   8.653 -0.7879  1.7708 -0.6354
 2552TIP3    H229292   4.739   0.777   8.726 -0.5610  1.2287  0.0231
 2553TIP3   OH229293   5.181   0.574   2.311 -0.5311  0.0271 -0.0664
 2553TIP3    H129294   5.260   0.583   2.364 -0.9471 -1.1682  0.8059
 2553TIP3    H229295   5.132   0.655   2.327 -0.4276 -0.1076  1.0132
 2554TIP3   OH229296   1.775   0.001   1.562  0.7553  0.4222 -0.0918
 2554TIP3    H129297   1.810  -0.064   1.624 -1.2997 -0.1863  0.4938
 2554TIP3    H229298   1.768   0.081   1.614  0.3101  0.2722  0.0792
 2555TIP3   OH229299   6.531   6.007   0.430  0.1275 -0.2547  0.0266
 2555TIP3    H129300   6.481   5.936   0.470 -0.8709  1.1209  1.3260
 2555TIP3    H229301   6.479   6.086   0.447  1.6439  0.9255 -0.5570
 2556TIP3   OH229302   6.599   2.352   8.552 -0.4354  0.2223 -0.5868
 2556TIP3    H129303   6.651   2.371   8.475  2.0675 -0.4755  0.8266
 2556TIP3    H229304   6.608   2.429   8.608  0.6842 -0.6239  0.4597
 2557TIP3   OH229305   3.236   5.878   8.771  0.8577 -0.5104  0.0971
 2557TIP3    H129306   3.203   5.788   8.762  0.0119 -0.2829  0.7865
 2557TIP3    H229307   3.161   5.927   8.805  1.5389  0.2996  0.4488
 2558TIP3   OH229308   5.427   2.274   1.473  0.0549 -0.5107  0.1230
 2558TIP3    H129309   5.418   2.239   1.384 -0.5481 -0.5155  0.1870
 2558TIP3    H229310   5.451   2.365   1.460  0.8386 -0.7300 -0.0435
 2559TIP3   OH229311   4.733   4.048   7.469  0.5870  0.6191  0.1941
 2559TIP3    H129312   4.671   4.054   7.396  1.9624  2.3732 -0.9115
 2559TIP3    H229313   4.680   4.022   7.544 -1.0246 -0.3959 -1.2397
 2560TIP3   OH229314   0.822   4.307   7.849 -0.4182 -0.7819  0.5225
 2560TIP3    H129315   0.859   4.283   7.765  0.4612 -0.6937  0.8720
 2560TIP3    H229316   0.893   4.293   7.912 -1.8006 -3.4160  1.6771
 2561TIP3   OH229317   3.168   5.390   0.289  0.1525 -0.3892  0.3438
 2561TIP3    H129318   3.144   5.338   0.212 -1.9890  0.1615  0.5732
 2561TIP3    H229319   3.093   5.381   0.348  2.1062 -1.5648  2.8331
 2562TIP3   OH229320   4.453   3.275   2.424  0.2771  0.4241  0.1258
 2562TIP3    H129321   4.467   3.224   2.503  0.0077 -0.8507 -0.6309
 2562TIP3    H229322   4.359   3.293   2.423  0.1202 -0.3734 -0.3709
 2563TIP3   OH229323   0.432   0.076   1.217  0.6479  0.4503 -0.3581
 2563TIP3    H129324   0.499   0.075   1.285  1.4847  0.9630 -1.1485
 2563TIP3    H229325   0.462   0.143   1.155 -0.3873  0.3957 -0.9403
 2564TIP3   OH229326   4.834   1.375   8.279 -0.3199  0.3387  0.6575
 2564TIP3    H129327   4.758   1.372   8.222 -0.2128 -0.2681  0.5358
 2564TIP3    H229328   4.889   1.445   8.244 -0.2942  0.0283  0.0686
 2565TIP3   OH229329   6.044   0.681   1.420  0.2211  0.2484 -0.2345
 2565TIP3    H129330   6.093   0.701   1.499  2.7159  0.2662 -1.7035
 2565TIP3    H229331   6.044   0.585   1.416 -1.2641  0.1845  0.5369
 2566TIP3   OH229332   3.729   2.041   1.618 -0.2350 -0.1884  0.2358
 2566TIP3    H129333   3.723   1.982   1.693  2.3485 -0.3328  0.3887
 2566TIP3    H229334   3.660   2.011   1.558 -3.5231  0.8997  3.0914
 2567TIP3   OH229335   1.076   0.413   2.146  0.1155  0.4310  0.4304
 2567TIP3    H129336   1.104   0.447   2.231  2.5000 -0.3596  0.0437
 2567TIP3    H229337   1.157   0.407   2.095 -0.9188 -1.2197 -1.1325
 2568TIP3   OH229338   4.831   1.727   8.079  0.2361 -0.5069 -0.4613
 2568TIP3    H129339   4.886   1.711   8.001  0.2344  0.6002 -0.7003
 2568TIP3    H229340   4.771   1.652   8.081  1.7230 -1.7439 -0.2085
 2569TIP3   OH229341   0.470   0.680   8.729 -0.0867  0.2428  0.1372
 2569TIP3    H129342   0.445   0.754   8.784  0.5985  0.1375  0.5939
 2569TIP3    H229343   0.440   0.705   8.641  3.0239  2.6183 -0.4486
 2570TIP3   OH229344   4.875   1.991   0.840 -0.0747  0.2076  0.3641
 2570TIP3    H129345   4.874   2.031   0.926 -2.1010 -0.3811  0.6813
 2570TIP3    H229346   4.897   1.899   0.856 -3.4936 -0.7019  0.7956
 2571TIP3   OH229347   3.733   6.002   8.486  0.1937 -0.4897 -0.3203
 2571TIP3    H129348   3.689   5.917   8.480 -0.4806 -0.3436  1.7786
 2571TIP3    H229349   3.664   6.064   8.507  0.9467  0.2810 -0.0294
 2572TIP3   OH229350   5.827   4.452   9.038 -0.1501  0.5645 -0.4483
 2572TIP3    H129351   5.763   4.417   9.101 -0.0312  0.0303 -0.6221
 2572TIP3    H229352   5.773   4.495   8.971 -0.4051 -0.8431 -1.1866
 2573TIP3   OH229353   4.239   4.495   2.645 -0.3777  0.0173  0.5897
 2573TIP3    H129354   4.321   4.532   2.677 -1.1045 -0.6540  3.4840
 2573TIP3    H229355   4.244   4.402   2.666 -2.5965  0.2652  2.6833
 2574TIP3   OH229356   5.788   4.902   7.517 -0.3622 -0.0601 -0.2247
 2574TIP3    H129357   5.796   4.943   7.431 -0.7093  0.0915 -0.1868
 2574TIP3    H229358   5.718   4.838   7.507  1.0354 -1.5781 -0.6344
 2575TIP3   OH229359   0.526   5.510   2.543 -0.0862  0.5463 -0.8219
 2575TIP3    H129360   0.466   5.582   2.525  0.5843  1.3914  0.1983
 2575TIP3    H229361   0.502   5.479   2.630 -0.3354 -0.4393 -1.2311
 2576TIP3   OH229362   5.565   1.462   0.870 -0.2609 -0.2514  0.0584
 2576TIP3    H129363   5.622   1.401   0.919  1.2105 -0.0118 -1.2643
 2576TIP3    H229364   5.555   1.537   0.928  1.8272  0.2252 -0.1275
 2577TIP3   OH229365   3.863   6.647   8.336  0.1180  0.0828 -0.3573
 2577TIP3    H129366   3.878   6.636   8.430  2.4223  0.5722 -0.5944
 2577TIP3    H229367   3.880   6.561   8.298 -0.1523  0.0446 -0.3923
 2578TIP3   OH229368   2.888   5.664   1.349  0.4285  0.0525 -0.0484
 2578TIP3    H129369   2.810   5.673   1.403  0.3915  0.4922 -0.1698
 2578TIP3    H229370   2.951   5.617   1.405  0.6219  1.0823  0.6247
 2579TIP3   OH229371   4.524   2.777   8.037  0.1805 -0.7425 -0.2328
 2579TIP3    H129372   4.581   2.718   8.086  0.4475 -1.4691 -1.3780
 2579TIP3    H229373   4.477   2.826   8.104 -1.9221 -3.9538  0.8964
 2580TIP3   OH229374   3.327   5.787   1.874 -0.2916 -0.4682 -0.2132
 2580TIP3    H129375   3.331   5.877   1.908  1.8580 -0.2966 -0.7669
 2580TIP3    H229376   3.276   5.739   1.940 -3.2038  1.4856 -0.8420
 2581TIP3   OH229377   3.983   1.259   2.976 -0.4752  0.1113  0.3848
 2581TIP3    H129378   3.944   1.344   2.993  0.7765  1.0703 -1.2449
 2581TIP3    H229379   3.916   1.210   2.928 -1.1544  0.1922  1.2303
 2582TIP3   OH229380   2.776   5.938   2.363 -0.1930  0.2261  0.6401
 2582TIP3    H129381   2.847   5.936   2.427 -0.4093 -0.8290  0.8694
 2582TIP3    H229382   2.754   5.846   2.349 -0.5768  0.4676 -0.4855
 2583TIP3   OH229383   0.480   4.703   1.579 -0.1353  0.7566  0.4058
 2583TIP3    H129384   0.529   4.774   1.536 -0.4231  0.5465 -0.2891
 2583TIP3    H229385   0.460   4.643   1.508 -0.3628  0.2442  0.9029
 2584TIP3   OH229386   6.156   6.612   0.527  0.4855 -0.3829 -0.2730
 2584TIP3    H129387   6.068   6.590   0.496 -1.2006  2.3093  2.1355
 2584TIP3    H229388   6.192   6.667   0.458 -0.0893 -0.7096 -0.8520
 2585TIP3   OH229389   3.906   2.472   8.460 -1.0031 -0.7341  0.4572
 2585TIP3    H129390   3.919   2.414   8.535  1.1726 -2.2190 -0.9322
 2585TIP3    H229391   3.949   2.427   8.387  3.5426  3.7416 -0.2295
 2586TIP3   OH229392   4.058   4.777   2.421  0.0112  0.1541 -0.4266
 2586TIP3    H129393   4.141   4.794   2.465  0.7245 -0.2890 -1.5437
 2586TIP3    H229394   4.043   4.684   2.432 -0.2435  0.1980 -0.3902
 2587TIP3   OH229395   1.616   1.310   0.741 -0.3630 -0.2316 -0.3986
 2587TIP3    H129396   1.578   1.380   0.794 -1.1745 -1.0229  0.0989
 2587TIP3    H229397   1.565   1.232   0.765  0.0213 -0.8351 -1.4932
 2588TIP3   OH229398   2.886   3.943   2.077  0.7189  0.2469  0.1078
 2588TIP3    H129399   2.856   3.910   2.162  3.1315 -0.3143  0.8066
 2588TIP3    H229400   2.974   3.908   2.067  0.9268  1.2456 -2.1283
 2589TIP3   OH229401   4.393   4.685   7.925  0.0142  0.3578 -0.6033
 2589TIP3    H129402   4.312   4.676   7.874 -0.7929 -1.3437  0.8372
 2589TIP3    H229403   4.444   4.750   7.878 -1.3690  0.0722 -2.6429
 2590TIP3   OH229404   1.871   4.579   0.269  0.1200 -0.2800  0.0907
 2590TIP3    H129405   1.903   4.536   0.348  0.5249  2.0111  1.2719
 2590TIP3    H229406   1.827   4.658   0.301 -1.3480 -0.2114 -1.8879
 2591TIP3   OH229407   4.281   3.725   7.485 -0.3543  0.6852 -0.3980
 2591TIP3    H129408   4.371   3.733   7.454  0.1089 -0.8825  0.4576
 2591TIP3    H229409   4.228   3.725   7.405  0.5402  0.0262 -1.0061
 2592TIP3   OH229410   5.681   4.962   8.218  0.3247 -0.1684 -0.5275
 2592TIP3    H129411   5.733   4.968   8.298  0.2031 -0.8376 -0.3955
 2592TIP3    H229412   5.597   4.926   8.247  0.6811 -1.5200 -1.1342
 2593TIP3   OH229413   2.019   0.525   8.278  0.3682 -0.0215  0.3385
 2593TIP3    H129414   1.971   0.561   8.203  0.2236  0.1892  0.5308
 2593TIP3    H229415   2.018   0.431   8.264  3.2968  0.1227 -1.7591
 2594TIP3   OH229416   4.339   5.057   7.723 -0.0036  0.3434 -0.7939
 2594TIP3    H129417   4.384   4.973   7.734  0.6680  0.9365  1.4698
 2594TIP3    H229418   4.394   5.120   7.770 -2.5804  1.2818  1.2122
 2595TIP3   OH229419   4.744   1.236   0.828  0.1704  0.6069 -0.6326
 2595TIP3    H129420   4.679   1.220   0.760 -0.9646 -1.0354  0.7337
 2595TIP3    H229421   4.751   1.331   0.834 -1.2218  0.7931 -1.6423
 2596TIP3   OH229422   2.307   1.844   0.552 -0.4306 -0.4843 -0.2726
 2596TIP3    H129423   2.317   1.750   0.541  0.4367 -0.3967 -0.3056
 2596TIP3    H229424   2.216   1.862   0.529 -0.2431 -1.1288 -1.5707
 2597TIP3   OH229425   5.180   3.455   7.806  0.2636 -0.1390  0.5908
 2597TIP3    H129426   5.137   3.372   7.788  0.2853 -0.1691  0.6780
 2597TIP3    H229427   5.158   3.510   7.731 -0.7193  0.1577  1.0636
 2598TIP3   OH229428   6.131   4.621   8.043 -0.1741 -0.4261 -0.7479
 2598TIP3    H129429   6.096   4.702   8.082  0.2683 -0.2908 -0.6285
 2598TIP3    H229430   6.179   4.650   7.966  2.0746 -0.2718  0.6064
 2599TIP3   OH229431   1.749   1.081   3.137  0.2712  0.5047 -0.4249
 2599TIP3    H129432   1.842   1.075   3.116 -0.0627  3.0797 -3.5029
 2599TIP3    H229433   1.707   1.017   3.079  0.0169  0.4774 -0.2128
 2600TIP3   OH229434   2.778   2.165   8.320  0.2673  0.5917 -0.0436
 2600TIP3    H129435   2.847   2.192   8.260 -0.3932 -2.4443 -2.4564
 2600TIP3    H229436   2.699   2.163   8.267 -1.9308  4.1546  2.6798
 2601TIP3   OH229437   5.033   5.511   0.980  0.0983 -0.7413  0.2781
 2601TIP3    H129438   5.068   5.488   1.066 -1.0417  0.6129  1.1442
 2601TIP3    H229439   4.939   5.497   0.988  0.1271 -2.2823 -1.3421
 2602TIP3   OH229440   5.032   5.221   8.961  0.1085  0.7070 -0.4762
 2602TIP3    H129441   5.032   5.128   8.986 -0.6515 -0.0290 -2.9215
 2602TIP3    H229442   5.105   5.259   9.010  0.8991 -1.3415  0.0521
 2603TIP3   OH229443   0.931   5.395   1.529 -0.0526 -0.5283 -0.9830
 2603TIP3    H129444   0.890   5.465   1.580 -2.2815 -1.8667 -0.8017
 2603TIP3    H229445   0.895   5.315   1.566  0.6719 -1.6699 -2.6520
 2604TIP3   OH229446   0.520   4.719   0.955  0.0963 -0.3345  0.1485
 2604TIP3    H129447   0.453   4.742   0.891 -2.0059 -0.7459  2.0789
 2604TIP3    H229448   0.533   4.625   0.944  2.5315  0.1245 -2.0736
 2605TIP3   OH229449   4.122   5.948   1.571  0.8233 -0.0983 -0.2364
 2605TIP3    H129450   4.077   6.021   1.527  0.4376  0.1775  0.5970
 2605TIP3    H229451   4.205   5.940   1.524  0.2919 -0.0347 -1.2305
 2606TIP3   OH229452   6.394   1.072   2.878  0.2563  0.6074  0.0151
 2606TIP3    H129453   6.366   1.111   2.961  0.9239  1.4889 -0.1638
 2606TIP3    H229454   6.325   1.097   2.816 -0.7927 -0.9245  0.4828
 2607TIP3   OH229455   0.894   0.657   0.750 -0.2277  0.2318  0.3518
 2607TIP3    H129456   0.831   0.724   0.722  0.2279 -0.2895 -2.2049
 2607TIP3    H229457   0.851   0.574   0.728  0.3826 -0.2142  0.8188
 2608TIP3   OH229458   1.264   3.633   1.377  0.7863 -0.1829 -0.1528
 2608TIP3    H129459   1.210   3.708   1.401 -0.1683 -0.1736 -2.1324
 2608TIP3    H229460   1.295   3.652   1.289  2.9799 -0.8095  0.4288
 2609TIP3   OH229461   4.619   1.493   2.035 -0.0570 -0.8804 -0.1608
 2609TIP3    H129462   4.586   1.525   1.951 -0.7670 -0.1193  0.3881
 2609TIP3    H229463   4.714   1.486   2.023 -0.3169 -2.5573 -1.5948
 2610TIP3   OH229464   5.634   0.120   1.273  0.7436 -0.2625  0.0984
 2610TIP3    H129465   5.656   0.153   1.360  0.1975  0.3702  0.0025
 2610TIP3    H229466   5.647   0.195   1.215  0.8725 -0.6159 -0.3378
 2611TIP3   OH229467   4.085   2.723   2.035  0.2491  0.1679 -0.0599
 2611TIP3    H129468   4.117   2.755   1.951  1.7839 -0.9554  0.0491
 2611TIP3    H229469   4.054   2.634   2.017  4.3544 -1.7636  1.1442
 2612TIP3   OH229470   0.845   0.401   2.810  0.0861  0.5549 -0.2975
 2612TIP3    H129471   0.863   0.485   2.768  0.4311  0.1955 -0.8806
 2612TIP3    H229472   0.879   0.410   2.899  1.5173  0.5123 -0.8239
 2613TIP3   OH229473   4.923   1.337   3.168  0.4482 -0.2195  0.1108
 2613TIP3    H129474   4.903   1.422   3.130  0.2060  1.2545  3.2559
 2613TIP3    H229475   4.839   1.305   3.201  0.8844 -0.7103  0.7596
 2614TIP3   OH229476   4.484   4.603   2.716 -0.0102  0.1389 -0.2096
 2614TIP3    H129477   4.510   4.671   2.653  0.4967  0.2543  0.1237
 2614TIP3    H229478   4.566   4.559   2.739  0.0045  0.8862  1.2899
 2615TIP3   OH229479   1.181   6.279   0.430  0.5022 -0.2868 -0.1523
 2615TIP3    H129480   1.175   6.334   0.507  2.2459 -2.0566  1.3618
 2615TIP3    H229481   1.275   6.279   0.408  0.2564 -1.0470 -1.3167
 2616TIP3   OH229482   2.131   2.551   0.312 -0.0123 -0.5400  0.2155
 2616TIP3    H129483   2.181   2.536   0.232  1.0856 -0.0937  0.7912
 2616TIP3    H229484   2.188   2.606   0.366 -1.5395  0.8641  0.4918
 2617TIP3   OH229485   3.608   1.869   9.004  0.7438  0.2641 -0.4545
 2617TIP3    H129486   3.538   1.818   9.045  2.7178 -2.5777 -0.2994
 2617TIP3    H229487   3.595   1.856   8.910  0.1747  1.0515 -0.4882
 2618TIP3   OH229488   4.126   3.559   8.504 -0.3126  0.3932 -0.1359
 2618TIP3    H129489   4.066   3.484   8.504  0.0942  0.0543  0.6771
 2618TIP3    H229490   4.189   3.539   8.573  0.5037  0.9329 -0.7016
 2619TIP3   OH229491   5.228   0.151   2.362 -0.0237 -0.0030  0.4420
 2619TIP3    H129492   5.273   0.208   2.299 -0.1059 -0.8501 -0.3962
 2619TIP3    H229493   5.276   0.165   2.444  1.7965 -0.8663 -0.4153
 2620TIP3   OH229494   3.412   4.938   0.998  0.1097  0.5619 -0.5928
 2620TIP3    H129495   3.455   4.925   1.082 -0.3815 -0.3527 -0.4729
 2620TIP3    H229496   3.479   4.917   0.933  1.2154  3.4773 -0.5157
 2621TIP3   OH229497   2.482   1.397   1.133 -0.1040  0.0049  0.0318
 2621TIP3    H129498   2.428   1.473   1.154  0.2402 -0.0632  1.2525
 2621TIP3    H229499   2.509   1.363   1.219 -0.4380 -1.6314 -0.4815
 2622TIP3   OH229500   3.018   0.128   8.866 -0.3457  0.5144  0.3066
 2622TIP3    H129501   2.936   0.079   8.872 -0.8423  1.4379  1.2417
 2622TIP3    H229502   3.073   0.076   8.807 -1.9662  0.3868 -1.1522
 2623TIP3   OH229503   0.305   5.558   2.239  0.0713 -0.1212  0.6109
 2623TIP3    H129504   0.294   5.494   2.310  0.2456 -1.5703 -0.6281
 2623TIP3    H229505   0.368   5.621   2.274  1.2908 -1.6145  1.2306
 2624TIP3   OH229506   6.581   1.108   1.630 -0.5306  0.0782 -0.4401
 2624TIP3    H129507   6.495   1.065   1.626 -0.0801 -0.9037  0.0346
 2624TIP3    H229508   6.575   1.179   1.566 -1.4779 -0.3756 -0.8826
 2625TIP3   OH229509   1.984   0.491   9.095 -0.0769 -0.3810 -0.5347
 2625TIP3    H129510   1.928   0.413   9.101  1.1802 -1.4655 -1.8895
 2625TIP3    H229511   1.970   0.523   9.006  0.6041  0.0159 -0.5034
 2626TIP3   OH229512   5.984   0.079   1.963  0.0548 -0.1480 -0.0886
 2626TIP3    H129513   5.910   0.139   1.962  0.5037  0.4126 -0.5161
 2626TIP3    H229514   5.990   0.048   1.872  0.2578 -0.2918 -0.0265
 2627TIP3   OH229515   2.904   1.887   8.012  0.1900 -0.7402  0.6989
 2627TIP3    H129516   2.828   1.832   7.992 -1.0312  1.5707 -1.5161
 2627TIP3    H229517   2.920   1.872   8.105 -2.2419 -2.2129  0.9673
 2628TIP3   OH229518   0.126   3.484   8.288  0.0946  0.5139  0.4871
 2628TIP3    H129519   0.136   3.542   8.212 -0.1504  1.9983  1.5299
 2628TIP3    H229520   0.044   3.512   8.329 -0.0443 -0.6135  1.0192
 2629TIP3   OH229521   2.226   6.244   0.522  0.3302  0.6782 -0.0686
 2629TIP3    H129522   2.296   6.258   0.586 -1.8356  0.4922  2.5237
 2629TIP3    H229523   2.229   6.150   0.504  0.2171  0.5087  0.7369
 2630TIP3   OH229524   5.829   4.343   0.596 -0.0750  0.5801  0.1613
 2630TIP3    H129525   5.771   4.393   0.653 -0.2675  0.4762  0.0591
 2630TIP3    H229526   5.868   4.277   0.652 -2.0902 -1.0904 -0.2840
 2631TIP3   OH229527   2.275   0.245   3.306 -0.1984 -0.1751  0.3754
 2631TIP3    H129528   2.327   0.252   3.227  2.6298  1.3532  2.2177
 2631TIP3    H229529   2.231   0.329   3.315  1.6537  0.7113  1.7329
 2632TIP3   OH229530   4.510   5.254   7.828 -0.5622  0.0494  0.4147
 2632TIP3    H129531   4.470   5.329   7.872  1.8458  1.3542  0.5787
 2632TIP3    H229532   4.568   5.293   7.762 -0.9398 -1.7634 -1.0899
 2633TIP3   OH229533   1.680   1.782   7.974  0.2389 -0.4041 -0.3934
 2633TIP3    H129534   1.742   1.837   8.021 -0.7453 -0.5590  1.1630
 2633TIP3    H229535   1.694   1.803   7.881  1.5608  0.6312  0.0110
 2634TIP3   OH229536   2.242   3.603   0.969 -0.2488 -0.4622 -0.0302
 2634TIP3    H129537   2.330   3.634   0.948 -1.0456  1.5525 -0.6852
 2634TIP3    H229538   2.222   3.541   0.900  0.1188  0.1867 -0.7404
 2635TIP3   OH229539   2.620   5.592   1.096  0.2755  0.2174  0.1141
 2635TIP3    H129540   2.675   5.563   1.023 -1.7556 -2.2169 -0.5773
 2635TIP3    H229541   2.682   5.606   1.168  2.1915  1.4494 -1.6462
 2636TIP3   OH229542   3.601   0.435   0.258  0.4937  0.4061 -0.1351
 2636TIP3    H129543   3.591   0.494   0.332 -0.1657  0.8850 -0.5941
 2636TIP3    H229544   3.603   0.347   0.297 -0.3830  0.6154  0.4158
 2637TIP3   OH229545   0.907   5.592   0.859 -0.6570 -0.2091 -0.1661
 2637TIP3    H129546   0.834   5.563   0.804 -0.6099  0.4215 -0.5708
 2637TIP3    H229547   0.875   5.579   0.949 -1.3505  0.2425 -0.3344
 2638TIP3   OH229548   5.403   2.437   8.463 -0.4018  1.0483 -0.1482
 2638TIP3    H129549   5.317   2.455   8.424 -1.7521 -1.9146  1.1469
 2638TIP3    H229550   5.395   2.465   8.554  0.2361  1.3306 -0.1737
 2639TIP3   OH229551   1.643   5.387   8.846 -0.3106 -0.5369 -0.5863
 2639TIP3    H129552   1.718   5.354   8.897  0.4447 -3.0844 -3.0884
 2639TIP3    H229553   1.654   5.482   8.848  1.6528 -0.7055  1.0399
 2640TIP3   OH229554   6.211   0.832   1.781 -0.0984  0.1810 -0.2202
 2640TIP3    H129555   6.223   0.768   1.711  0.3239  0.1580 -0.1284
 2640TIP3    H229556   6.120   0.822   1.808 -0.5819  0.9130 -1.4892
 2641TIP3   OH229557   0.694   1.082   0.626 -0.2435 -0.6342  0.7036
 2641TIP3    H129558   0.700   0.988   0.643  0.9007 -0.3724  1.8612
 2641TIP3    H229559   0.784   1.113   0.629 -0.7834  0.9713  3.2704
 2642TIP3   OH229560   2.474   3.815   1.015 -0.0736 -0.0499  0.0288
 2642TIP3    H129561   2.415   3.794   1.088 -1.1330  0.0936 -0.7668
 2642TIP3    H229562   2.514   3.732   0.991 -1.4966 -0.5485 -0.7280
 2643TIP3   OH229563   4.702   4.911   2.794 -0.2878 -0.1824  0.2256
 2643TIP3    H129564   4.714   4.825   2.753 -0.9614 -1.3367  2.2928
 2643TIP3    H229565   4.787   4.953   2.788 -0.3395 -0.2933 -2.2240
 2644TIP3   OH229566   3.622   5.860   9.029 -0.0821  0.4841  0.0494
 2644TIP3    H129567   3.553   5.799   9.054 -0.5217  0.7733 -0.4422
 2644TIP3    H229568   3.701   5.827   9.072 -0.6690  0.5587  1.2041
 2645TIP3   OH229569   0.484   0.524   2.457 -0.0012  0.1338 -0.4591
 2645TIP3    H129570   0.411   0.584   2.474  0.2217  0.5516 -0.9454
 2645TIP3    H229571   0.555   0.581   2.429  0.4232 -0.3027 -0.2781
 2646TIP3   OH229572   1.080   0.148   1.860 -0.0664 -0.3158 -0.0249
 2646TIP3    H129573   1.110   0.113   1.944  0.5574 -2.8692 -1.2065
 2646TIP3    H229574   1.157   0.191   1.824 -0.0974  0.0548  0.3458
 2647TIP3   OH229575   2.649   5.957   0.430  0.0939 -0.2348  0.2581
 2647TIP3    H129576   2.612   5.973   0.517 -0.3861  0.7817 -0.1223
 2647TIP3    H229577   2.670   5.863   0.430 -2.7349 -0.9634  0.4068
 2648TIP3   OH229578   5.751   1.436   1.370  0.6871  0.7738  0.2083
 2648TIP3    H129579   5.699   1.481   1.437  0.6266 -2.0231  2.2080
 2648TIP3    H229580   5.842   1.452   1.395  0.7028  1.1606 -0.0865
 2649TIP3   OH229581   0.501   2.255   3.247  0.2521  0.0440  0.0386
 2649TIP3    H129582   0.520   2.277   3.338  1.3353 -0.1515 -0.1248
 2649TIP3    H229583   0.574   2.198   3.220 -1.1495 -1.6960 -0.3050
 2650TIP3   OH229584   2.028   5.842   7.666  0.7124 -0.3763  0.1227
 2650TIP3    H129585   1.955   5.825   7.726  0.0179  0.9818 -0.2795
 2650TIP3    H229586   1.997   5.810   7.581  0.4351  0.4936 -0.1145
 2651TIP3   OH229587   4.389   6.043   8.525 -0.1604 -0.1482  0.2087
 2651TIP3    H129588   4.477   6.043   8.563  0.3894 -0.5949 -1.0069
 2651TIP3    H229589   4.330   6.039   8.600  0.9044 -2.6052  0.9931
 2652TIP3   OH229590   5.021   6.043   8.666  0.5338  0.4180 -0.6643
 2652TIP3    H129591   5.012   5.952   8.695  1.0960  0.1090 -1.4182
 2652TIP3    H229592   5.102   6.074   8.708  0.8331  0.2736 -1.1267
 2653TIP3   OH229593   0.250   1.876   7.895  0.0565 -0.3314 -0.3621
 2653TIP3    H129594   0.177   1.907   7.842 -0.8734  0.4581  1.3057
 2653TIP3    H229595   0.215   1.800   7.942  0.3626 -0.0903  0.2742
 2654TIP3   OH229596   0.523   4.752   2.072 -0.2419  0.1412  0.0873
 2654TIP3    H129597   0.584   4.737   2.144 -0.1404 -1.3059 -0.2749
 2654TIP3    H229598   0.501   4.845   2.079  1.8448  0.6797  0.3528
 2655TIP3   OH229599   5.858   2.426   0.294  0.7784 -0.2528  0.4869
 2655TIP3    H129600   5.816   2.374   0.225 -0.5324 -1.5021  2.1585
 2655TIP3    H229601   5.950   2.433   0.266  1.0344 -3.5079  0.1449
 2656TIP3   OH229602   3.345   1.966   8.635  0.1938  0.2221  0.0006
 2656TIP3    H129603   3.366   2.047   8.681  0.0301  1.9166 -2.7125
 2656TIP3    H229604   3.425   1.914   8.641  0.6683  1.0231  0.8548
 2657TIP3   OH229605   0.067   0.185   1.595 -0.0387 -0.1495 -0.9372
 2657TIP3    H129606   0.148   0.232   1.576 -0.4029  0.3049 -1.3589
 2657TIP3    H229607   0.052   0.130   1.518 -0.6806  0.5386 -1.3164
 2658TIP3   OH229608   0.349   6.030   1.911 -0.3050  0.1678  0.8750
 2658TIP3    H129609   0.291   6.103   1.932 -0.1887  0.0932  1.4606
 2658TIP3    H229610   0.412   6.067   1.849 -0.0901  0.6382  1.3680
 2659TIP3   OH229611   6.041   3.760   2.454 -0.1791  0.7393 -0.1490
 2659TIP3    H129612   5.976   3.773   2.386 -1.3549  0.4925  0.8845
 2659TIP3    H229613   5.998   3.791   2.534  0.1294 -1.4177  0.9273
 2660TIP3   OH229614   0.552   1.612   0.885  0.5065  0.3066  0.6063
 2660TIP3    H129615   0.557   1.700   0.848  0.3365  0.0218 -0.1108
 2660TIP3    H229616   0.497   1.622   0.963 -0.7226  0.5737 -0.2787
 2661TIP3   OH229617   3.685   0.650   8.200 -0.3652  0.0314 -0.0468
 2661TIP3    H129618   3.644   0.568   8.227 -1.0408  0.0531 -0.9523
 2661TIP3    H229619   3.648   0.668   8.114  1.8044 -0.1010 -1.0616
 2662TIP3   OH229620   1.567   5.403   7.833 -0.2018  0.5336  0.1977
 2662TIP3    H129621   1.521   5.322   7.855 -0.7879  0.7951 -0.0686
 2662TIP3    H229622   1.652   5.373   7.799 -0.2075  0.0542  0.5914
 2663TIP3   OH229623   0.293   0.936   8.321  0.0251 -0.2520 -0.0098
 2663TIP3    H129624   0.318   1.013   8.269 -0.2088 -0.5612 -0.5875
 2663TIP3    H229625   0.317   0.959   8.411  1.7264 -0.2467 -0.4240
 2664TIP3   OH229626   1.487   5.413   1.891 -0.3317 -0.7154 -0.1451
 2664TIP3    H129627   1.571   5.380   1.857  0.2128 -1.3133  1.6467
 2664TIP3    H229628   1.442   5.335   1.923 -0.0237 -0.0265  2.0922
 2665TIP3   OH229629   3.362   4.097   0.675  0.1275 -0.5002 -0.1993
 2665TIP3    H129630   3.346   4.176   0.727 -1.4722 -0.1963 -1.1101
 2665TIP3    H229631   3.318   4.027   0.722 -0.8660 -0.3213 -0.8428
 2666TIP3   OH229632   6.517   5.823   8.454  0.5454  0.5507 -0.0908
 2666TIP3    H129633   6.518   5.790   8.544  0.3821  1.1777  0.1438
 2666TIP3    H229634   6.438   5.786   8.416 -0.6266  2.0869  0.7248
 2667TIP3   OH229635   1.714   5.294   0.021 -0.2485 -1.1956 -0.0212
 2667TIP3    H129636   1.748   5.223   0.075 -0.8404 -2.5613 -1.3639
 2667TIP3    H229637   1.753   5.373   0.057 -0.0106 -2.1373  1.8698
 2668TIP3   OH229638   3.557   1.610   2.248  0.2096  0.1089 -0.1362
 2668TIP3    H129639   3.483   1.653   2.207 -0.7122  0.0064  1.3259
 2668TIP3    H229640   3.632   1.665   2.228 -0.8263  2.0947  1.1505
 2669TIP3   OH229641   4.685   4.598   7.650  0.0782 -0.4887 -0.0013
 2669TIP3    H129642   4.745   4.551   7.708  0.2371  0.4390  0.6013
 2669TIP3    H229643   4.670   4.537   7.577  0.3762 -1.4133  0.6892
 2670TIP3   OH229644   3.849   6.235   0.685  0.1549 -0.3597 -0.5433
 2670TIP3    H129645   3.942   6.247   0.708 -0.1710  1.0778  0.1351
 2670TIP3    H229646   3.823   6.156   0.734  0.2695  0.9240  1.7347
 2671TIP3   OH229647   5.633   3.924   0.071 -0.2191 -0.4271 -0.7299
 2671TIP3    H129648   5.709   3.947   0.019  0.2321 -0.8817 -0.2806
 2671TIP3    H229649   5.603   4.006   0.109  1.9303 -0.6243  1.6204
 2672TIP3   OH229650   0.291   3.544   9.072  0.2596  0.1792 -0.2741
 2672TIP3    H129651   0.385   3.552   9.088  0.0211 -0.4764  1.8205
 2672TIP3    H229652   0.280   3.453   9.044  0.0909 -0.3294  1.3167
 2673TIP3   OH229653   6.104   1.741   0.162  0.4306  0.5286  0.3383
 2673TIP3    H129654   6.157   1.803   0.112 -0.0326 -0.6025 -1.6413
 2673TIP3    H229655   6.161   1.665   0.173  0.3664  0.5885  1.1738
 2674TIP3   OH229656   2.181   5.746   8.714  0.5798 -0.7985  0.0360
 2674TIP3    H129657   2.127   5.818   8.681 -0.6194 -1.8474 -0.3454
 2674TIP3    H229658   2.164   5.674   8.654  1.2675 -1.6062  0.7900
 2675TIP3   OH229659   2.716   5.696   0.475 -0.6122 -0.2502 -0.0724
 2675TIP3    H129660   2.630   5.654   0.474 -0.7771  0.0362  0.9767
 2675TIP3    H229661   2.736   5.707   0.568 -0.4882  1.8191 -0.2941
 2676TIP3   OH229662   2.965   6.422   1.638 -0.0962  0.7714 -0.0041
 2676TIP3    H129663   2.938   6.407   1.728 -2.2824 -0.1166 -0.7478
 2676TIP3    H229664   3.024   6.349   1.618  0.0203  0.7095  0.5523
 2677TIP3   OH229665   4.013   2.451   1.094  0.3093  0.6072  0.1654
 2677TIP3    H129666   4.009   2.363   1.132  0.4187 -0.3240 -1.8667
 2677TIP3    H229667   4.106   2.475   1.099  0.2094  0.8530  1.1680
 2678TIP3   OH229668   2.721   2.840   1.342 -0.1991 -0.1283 -0.7261
 2678TIP3    H129669   2.673   2.762   1.369 -0.4481 -0.2376 -1.4690
 2678TIP3    H229670   2.756   2.818   1.256  1.4264 -0.1594 -0.1048
 2679TIP3   OH229671   1.274   6.334   1.464 -0.0029 -0.8779  0.1137
 2679TIP3    H129672   1.303   6.410   1.414  0.6372 -0.6543  0.8121
 2679TIP3    H229673   1.186   6.316   1.431  0.8695 -1.5428 -2.0157
 2680TIP3   OH229674   4.105   4.997   0.041  0.5785 -0.3211 -0.0388
 2680TIP3    H129675   4.057   4.922   0.007  1.2102 -0.1998 -1.2788
 2680TIP3    H229676   4.182   5.004  -0.016  1.0389  0.6712  0.6677
 2681TIP3   OH229677   0.076   5.273   8.689  0.0750 -0.3034 -0.3406
 2681TIP3    H129678   0.042   5.361   8.673  0.3002  0.0524  1.0216
 2681TIP3    H229679   0.061   5.226   8.607 -2.9540  0.0581 -0.0961
 2682TIP3   OH229680   4.792   0.998   2.911  0.4794  0.1428 -0.4690
 2682TIP3    H129681   4.793   1.091   2.889  0.8150  0.6273  1.4190
 2682TIP3    H229682   4.800   0.995   3.006 -1.6029 -1.7661 -0.2567
 2683TIP3   OH229683   1.876   3.616   8.543  0.6511 -0.1330 -0.1948
 2683TIP3    H129684   1.839   3.703   8.525  1.4674  0.6344  1.6091
 2683TIP3    H229685   1.966   3.622   8.512  0.0413 -1.2137 -2.3658
 2684TIP3   OH229686   3.876   6.220   9.110  0.2614 -0.5041  0.7316
 2684TIP3    H129687   3.856   6.276   9.185  0.3469  1.5825 -0.7170
 2684TIP3    H229688   3.970   6.231   9.095  0.0355  0.0223 -0.3713
 2685TIP3   OH229689   6.664   5.060   0.404 -0.0399  0.5600 -0.2297
 2685TIP3    H129690   6.602   4.989   0.421  1.1576 -0.1346  1.5634
 2685TIP3    H229691   6.613   5.140   0.418 -1.0912  0.0538 -1.0556
 2686TIP3   OH229692   6.274   1.661   3.531  0.6392  1.0186  0.4968
 2686TIP3    H129693   6.252   1.728   3.465  1.7677 -0.9660 -2.0420
 2686TIP3    H229694   6.356   1.692   3.570  0.8274  1.4382 -0.2050
 2687TIP3   OH229695   0.251   4.397   1.527  0.3171  0.1940  0.0093
 2687TIP3    H129696   0.308   4.381   1.602  1.0418  0.1608 -0.5360
 2687TIP3    H229697   0.178   4.336   1.539  1.8013 -1.8413 -0.7436
 2688TIP3   OH229698   3.728   0.982   2.256  0.8948  0.0150  0.0548
 2688TIP3    H129699   3.708   1.072   2.283  0.1369 -0.0436 -0.2947
 2688TIP3    H229700   3.729   0.985   2.160 -0.0583 -0.5396  0.0217
 2689TIP3   OH229701   5.076   5.546   6.982 -0.3224 -0.5222  0.2080
 2689TIP3    H129702   5.112   5.510   6.901  2.1375  1.3614  0.3164
 2689TIP3    H229703   5.130   5.507   7.051 -0.1261  0.4306  0.6128
 2690TIP3   OH229704   5.507   5.363   8.909  0.4758  0.1088  0.2106
 2690TIP3    H129705   5.418   5.330   8.922 -0.1312  1.5086 -0.1847
 2690TIP3    H229706   5.509   5.391   8.818  1.3820 -0.0588  0.1739
 2691TIP3   OH229707   6.497   5.462   0.824  0.0794  0.4488 -0.1452
 2691TIP3    H129708   6.562   5.402   0.861 -1.0483 -0.6382  0.1065
 2691TIP3    H229709   6.455   5.502   0.901  0.2992  1.0090 -0.3076
 2692TIP3   OH229710   6.295   1.447   8.505 -0.2225 -0.0178 -0.0273
 2692TIP3    H129711   6.231   1.377   8.516 -0.4003  0.0880 -0.3388
 2692TIP3    H229712   6.310   1.451   8.410  2.3699 -1.8874  0.2221
 2693TIP3   OH229713   6.404   4.686   0.195 -0.5034  0.0993  0.6820
 2693TIP3    H129714   6.480   4.635   0.220 -0.1932  0.3393  0.2407
 2693TIP3    H229715   6.394   4.751   0.264 -1.0479 -0.7072  1.3746
 2694TIP3   OH229716   5.054   4.417   8.026 -0.1389 -0.0225 -0.3204
 2694TIP3    H129717   5.085   4.371   8.104  0.1561 -0.1192 -0.4946
 2694TIP3    H229718   5.123   4.403   7.961 -1.1523 -1.3774 -1.1444
 2695TIP3   OH229719   0.629   0.705   1.835  0.1342 -0.4555 -0.0935
 2695TIP3    H129720   0.618   0.664   1.749 -1.0544  0.7381 -0.5371
 2695TIP3    H229721   0.581   0.788   1.829  2.4127  1.0348  0.7646
 2696TIP3   OH229722   4.383   1.080   8.475 -0.1623  0.1136  0.4581
 2696TIP3    H129723   4.319   1.138   8.515 -1.9506 -1.2592 -0.3025
 2696TIP3    H229724   4.439   1.139   8.424  0.6963  1.6014  2.9393
 2697TIP3   OH229725   0.488   3.960   1.752 -0.7554  0.2219 -0.1915
 2697TIP3    H129726   0.467   4.018   1.825 -1.1890 -0.5820  0.3362
 2697TIP3    H229727   0.543   4.013   1.694 -2.6597  1.7834 -0.6761
 2698TIP3   OH229728   2.054   1.190   2.068 -0.1105  0.1110  0.4968
 2698TIP3    H129729   2.057   1.150   2.154 -1.2360 -0.2237  0.3975
 2698TIP3    H229730   2.048   1.284   2.085  0.8924  0.1349  0.7542
 2699TIP3   OH229731   6.506   4.583   0.868 -0.6361  1.3360  0.1726
 2699TIP3    H129732   6.418   4.613   0.844 -0.8054  0.8560  0.1760
 2699TIP3    H229733   6.565   4.641   0.820 -0.9512  1.7701  0.3009
 2700TIP3   OH229734   1.815   3.368   1.337  0.7505  0.0024  0.3045
 2700TIP3    H129735   1.808   3.381   1.243  2.6771 -0.2150  0.0984
 2700TIP3    H229736   1.729   3.395   1.371 -0.0034  0.0208 -1.4899
 2701TIP3   OH229737   5.178   0.509   9.198 -0.5258  0.1390 -0.2982
 2701TIP3    H129738   5.135   0.557   9.127 -0.4037  0.0931 -0.4048
 2701TIP3    H229739   5.267   0.544   9.200 -0.9949  1.2884  0.9061
 2702TIP3   OH229740   5.854   0.957   2.451  0.8862  0.0543 -0.0703
 2702TIP3    H129741   5.937   0.943   2.405  0.8613  1.1270 -0.4818
 2702TIP3    H229742   5.823   0.869   2.473  2.9993 -0.3425  1.6841
 2703TIP3   OH229743   0.361   3.464   7.585  0.2019 -0.4797  0.1475
 2703TIP3    H129744   0.342   3.501   7.671 -0.7388  0.2893 -0.3715
 2703TIP3    H229745   0.444   3.503   7.560 -0.5504  0.9620 -0.1904
 2704TIP3   OH229746   3.437   6.271   0.001 -0.1868  0.4301  0.1072
 2704TIP3    H129747   3.456   6.192   0.052  1.6740  0.9647  0.3206
 2704TIP3    H229748   3.500   6.269  -0.071 -0.7649  1.2518 -0.4419
 2705TIP3   OH229749   1.114   4.034   1.164 -0.6469 -0.0925  0.4357
 2705TIP3    H129750   1.063   4.063   1.089 -0.9150 -1.7033 -0.0246
 2705TIP3    H229751   1.055   3.978   1.214  0.3403 -1.2091  0.4097
 2706TIP3   OH229752   2.085   3.433   8.143  0.3968 -0.2149 -0.1010
 2706TIP3    H129753   2.005   3.411   8.095  0.8169 -1.1890 -0.3850
 2706TIP3    H229754   2.110   3.519   8.111 -0.1621 -0.2079 -0.5247
 2707TIP3   OH229755   4.657   6.257   7.607  0.0806  0.5183 -0.3710
 2707TIP3    H129756   4.693   6.217   7.686  1.9596  0.7148 -1.0614
 2707TIP3    H229757   4.661   6.187   7.542 -0.5986  0.6216 -0.5288
 2708TIP3   OH229758   2.574   3.637   8.803  0.1756 -0.7931  0.2888
 2708TIP3    H129759   2.640   3.696   8.766 -0.6546  0.2472  0.4044
 2708TIP3    H229760   2.570   3.564   8.741  1.5224 -0.9571  0.3580
 2709TIP3   OH229761   0.749   5.520   3.205  0.0479 -0.5177 -0.2851
 2709TIP3    H129762   0.762   5.436   3.163  0.5173 -0.9733  0.7423
 2709TIP3    H229763   0.835   5.543   3.240  0.1293  0.7954 -1.2611
 2710TIP3   OH229764   2.000   6.545   0.079  0.2246 -0.2212  0.0246
 2710TIP3    H129765   1.996   6.464   0.129  1.1750 -0.6866 -0.6251
 2710TIP3    H229766   2.093   6.560   0.064 -0.0248 -0.3320 -1.9651
 2711TIP3   OH229767   3.731   2.385   0.259  0.4461 -0.4773 -0.5920
 2711TIP3    H129768   3.768   2.315   0.312 -1.2560  0.0464  1.4078
 2711TIP3    H229769   3.644   2.353   0.233  0.5651 -0.0200 -1.6238
 2712TIP3   OH229770   3.391   4.635   7.293 -0.3679 -0.3542  0.5416
 2712TIP3    H129771   3.344   4.596   7.219 -1.1883 -1.5040  1.6185
 2712TIP3    H229772   3.323   4.678   7.345  0.1152 -0.0055  0.8946
 2713TIP3   OH229773   4.603   4.490   2.396  0.1637  0.0347  0.1321
 2713TIP3    H129774   4.660   4.547   2.344 -0.0996 -0.2555 -0.4799
 2713TIP3    H229775   4.519   4.535   2.396 -0.0694 -0.3874 -0.4272
 2714TIP3   OH229776   5.549   1.320   7.941 -0.6610 -0.5468 -0.3093
 2714TIP3    H129777   5.608   1.392   7.918 -0.3913  0.1225  2.1451
 2714TIP3    H229778   5.473   1.332   7.884  0.9023 -0.5507 -2.5012
 2715TIP3   OH229779   3.011   0.822   1.491 -0.0328 -0.0758 -0.0725
 2715TIP3    H129780   2.982   0.905   1.530  1.6222  0.4016  0.2270
 2715TIP3    H229781   3.097   0.806   1.530  1.3533 -0.0069 -2.8260
 2716TIP3   OH229782   3.476   3.362   1.523  0.0494 -0.2898 -0.1537
 2716TIP3    H129783   3.473   3.355   1.619 -0.1417 -0.0236 -0.1417
 2716TIP3    H229784   3.533   3.437   1.506 -1.0357  0.5419 -0.2229
 2717TIP3   OH229785   0.049   4.218   1.505  0.3611 -0.3998 -0.2731
 2717TIP3    H129786   0.101   4.170   1.441  0.9763  2.2073 -1.8431
 2717TIP3    H229787   0.019   4.297   1.459  1.5406  2.0762  2.8320
 2718TIP3   OH229788   3.630   0.809   1.564  0.0873 -0.0059 -0.3527
 2718TIP3    H129789   3.578   0.817   1.644 -0.5278  2.0530 -0.9000
 2718TIP3    H229790   3.609   0.722   1.529  0.4581 -0.9904  1.7339
 2719TIP3   OH229791   0.659   4.125   7.949  0.2973 -0.2188 -0.2676
 2719TIP3    H129792   0.707   4.087   7.875  0.5290 -0.4730  0.0110
 2719TIP3    H229793   0.655   4.218   7.929  1.4222 -0.1014 -0.0107
 2720TIP3   OH229794   3.589   2.328   1.167 -0.2079  0.4336  0.2973
 2720TIP3    H129795   3.593   2.362   1.256 -0.3500  1.1709  0.0282
 2720TIP3    H229796   3.600   2.405   1.111  1.1406 -0.1814 -0.3342
 2721TIP3   OH229797   4.145   4.732   0.208  0.2515 -0.3986  0.0511
 2721TIP3    H129798   4.160   4.719   0.302 -0.3996 -3.1455 -0.1279
 2721TIP3    H229799   4.052   4.756   0.202  0.8620  2.3451  0.1949
 2722TIP3   OH229800   3.836   5.453   9.163  0.1214  0.7811 -0.4078
 2722TIP3    H129801   3.789   5.396   9.102  0.3309  0.4054 -0.2245
 2722TIP3    H229802   3.909   5.399   9.193 -0.4200  0.6885  0.7706
 2723TIP3   OH229803   3.144   1.307   2.552  0.4086  0.0793 -0.1309
 2723TIP3    H129804   3.150   1.328   2.459 -1.3872 -1.9706 -0.7851
 2723TIP3    H229805   3.065   1.352   2.582  1.0178  0.7860  0.4514
 2724TIP3   OH229806   0.596   5.021   7.618  0.0492  0.0886 -0.5659
 2724TIP3    H129807   0.673   5.050   7.568  0.0486  2.2455  0.6083
 2724TIP3    H229808   0.526   5.081   7.592 -0.2632  0.4851  1.0929
 2725TIP3   OH229809   1.302   5.910   2.862  0.3873 -0.3237 -0.6292
 2725TIP3    H129810   1.362   5.970   2.905 -0.3575  0.4993 -0.6974
 2725TIP3    H229811   1.263   5.962   2.791 -0.9438 -0.5855 -0.1220
 2726TIP3   OH229812   3.812   2.730   8.449 -0.8479  0.1645  0.2862
 2726TIP3    H129813   3.830   2.637   8.439 -1.4080  0.2980 -3.1812
 2726TIP3    H229814   3.725   2.734   8.487 -1.7216 -0.8366 -1.4796
 2727TIP3   OH229815   2.504   0.569   7.882 -0.4795  0.0374  0.0486
 2727TIP3    H129816   2.566   0.605   7.946  1.6153 -2.7343 -0.2162
 2727TIP3    H229817   2.514   0.625   7.805  1.5536 -0.1369  0.1262
 2728TIP3   OH229818   2.965   2.431   3.026 -0.2418  0.2882 -0.5481
 2728TIP3    H129819   3.043   2.442   2.973 -0.4331  1.8057 -0.5408
 2728TIP3    H229820   2.908   2.505   3.003 -2.4122 -1.6096 -1.7718
 2729TIP3   OH229821   0.116   2.871   0.156 -0.0227 -0.4892 -0.0428
 2729TIP3    H129822   0.085   2.904   0.241 -0.2906  0.4743 -0.4960
 2729TIP3    H229823   0.141   2.950   0.108 -0.7105 -0.9391 -1.1794
 2730TIP3   OH229824   0.236   4.251   0.596 -0.0169  0.1001  0.1806
 2730TIP3    H129825   0.185   4.332   0.585  0.2935  0.5925  1.9886
 2730TIP3    H229826   0.293   4.248   0.520 -1.6194  0.3656 -1.0995
 2731TIP3   OH229827   2.245   0.695   1.289 -0.2087 -0.3302 -0.0447
 2731TIP3    H129828   2.155   0.681   1.259 -0.7465  1.0070  0.8512
 2731TIP3    H229829   2.297   0.696   1.209 -1.4366  1.9575 -0.9175
 2732TIP3   OH229830   2.947   3.991   2.711  0.2787  0.0377 -0.0467
 2732TIP3    H129831   2.937   4.054   2.782  0.6225  1.6264 -1.3382
 2732TIP3    H229832   2.958   4.045   2.633  1.7396 -1.6147 -1.0673
 2733TIP3   OH229833   2.787   2.130   3.075 -0.1177  0.4130 -0.5864
 2733TIP3    H129834   2.813   2.093   3.160 -1.4027  1.2095  0.1882
 2733TIP3    H229835   2.841   2.083   3.011 -0.4296 -1.5348  0.4919
 2734TIP3   OH229836   1.809   4.476   1.718 -0.7192 -0.0588 -0.5295
 2734TIP3    H129837   1.834   4.397   1.669 -1.6438 -1.2540  0.8353
 2734TIP3    H229838   1.797   4.543   1.651 -1.1557 -1.4075 -1.8631
 2735TIP3   OH229839   0.097   4.494   0.590 -0.6263 -0.2869  0.3431
 2735TIP3    H129840   0.015   4.460   0.625 -0.7279 -0.5901 -0.1729
 2735TIP3    H229841   0.110   4.577   0.635  0.5248 -1.7690  2.9852
 2736TIP3   OH229842   3.151   2.451   1.637  0.2223  0.7140  0.7495
 2736TIP3    H129843   3.059   2.442   1.663  1.3748 -1.0707  5.2480
 2736TIP3    H229844   3.176   2.539   1.666  0.1923  0.7665  0.6145
 2737TIP3   OH229845   3.938   5.929   9.106  0.1923 -0.1713  0.6077
 2737TIP3    H129846   3.919   5.864   9.174 -1.2168 -0.8645 -0.4092
 2737TIP3    H229847   3.916   6.013   9.147 -0.6461 -0.5803  1.0077
 2738TIP3   OH229848   5.893   1.207   2.689  0.1174  0.1912  0.1215
 2738TIP3    H129849   5.831   1.220   2.618 -0.4526 -0.4958  0.4852
 2738TIP3    H229850   5.863   1.128   2.734 -0.3855  1.3942  2.0191
 2739TIP3   OH229851   1.119   6.049   1.863 -0.4665  0.1249  0.4892
 2739TIP3    H129852   1.039   6.070   1.911 -0.0579 -0.5942  1.5227
 2739TIP3    H229853   1.122   5.953   1.863  0.0263  0.1376 -0.1691
 2740TIP3   OH229854   3.511   1.390   7.893  0.2883 -0.0495  0.4552
 2740TIP3    H129855   3.477   1.344   7.816 -0.9267  0.0164  0.9297
 2740TIP3    H229856   3.599   1.417   7.868 -0.4886  0.9586 -1.3217
 2741TIP3   OH229857   0.056   6.311   1.870 -0.1877  0.4249 -0.2823
 2741TIP3    H129858   0.033   6.232   1.821 -0.6245  1.0144 -1.0431
 2741TIP3    H229859   0.130   6.284   1.925 -0.5089 -0.5831 -0.3193
 2742TIP3   OH229860   5.595   3.621   1.415 -0.0296  0.0494 -0.4544
 2742TIP3    H129861   5.603   3.714   1.392  2.6039 -0.4518 -2.0358
 2742TIP3    H229862   5.571   3.578   1.333 -0.6773 -0.7307  0.1331
 2743TIP3   OH229863   0.967   1.014   8.046  0.4718 -0.8410 -0.0985
 2743TIP3    H129864   0.882   0.970   8.048  0.4243 -0.7533 -0.2367
 2743TIP3    H229865   0.981   1.037   7.955  1.3382 -2.1989 -0.3353
 2744TIP3   OH229866   2.504   3.016   2.074  0.4592 -0.4867 -0.1442
 2744TIP3    H129867   2.525   3.107   2.095  0.4602 -0.5307  0.0476
 2744TIP3    H229868   2.499   2.973   2.159 -0.0941 -0.5476 -0.2089
 2745TIP3   OH229869   3.806   1.036   1.993 -0.4690 -0.2233 -0.1220
 2745TIP3    H129870   3.800   0.967   1.927  2.3930 -0.3006 -0.4166
 2745TIP3    H229871   3.899   1.039   2.016 -0.7403  2.5858  0.9248
 2746TIP3   OH229872   5.286   5.271   2.217 -0.5000  0.4484 -0.3382
 2746TIP3    H129873   5.239   5.189   2.206 -1.8619  0.9485  1.2900
 2746TIP3    H229874   5.376   5.252   2.189  0.2698 -2.7581  3.4332
 2747TIP3   OH229875   3.874   3.207   2.787 -0.1470  0.1630  0.3452
 2747TIP3    H129876   3.836   3.294   2.782 -1.3338 -0.3053  0.9594
 2747TIP3    H229877   3.800   3.147   2.789  0.6471 -0.9262 -0.6976
 2748TIP3   OH229878   4.949   0.727   0.355 -0.4511  0.2990 -0.0781
 2748TIP3    H129879   5.021   0.697   0.412 -0.8256 -0.0451  0.2220
 2748TIP3    H229880   4.920   0.648   0.310  1.0957  0.8757 -2.2237
 2749TIP3   OH229881   0.386   1.471   1.720 -0.2975  0.2508  0.0021
 2749TIP3    H129882   0.318   1.442   1.659  2.0232 -2.0179 -1.7825
 2749TIP3    H229883   0.381   1.410   1.793  0.7587 -1.0223 -0.9237
 2750TIP3   OH229884   6.119   3.952   7.547 -0.2458  0.0923  0.7056
 2750TIP3    H129885   6.177   3.965   7.473 -2.0123 -1.7795 -1.1152
 2750TIP3    H229886   6.054   4.023   7.539 -0.4818 -0.1559  0.3971
 2751TIP3   OH229887   1.332   2.870   2.296  0.1940  0.3681 -0.4269
 2751TIP3    H129888   1.381   2.858   2.377  0.3641 -1.0431 -0.7210
 2751TIP3    H229889   1.393   2.844   2.227 -0.4433  0.1047 -0.8986
 2752TIP3   OH229890   2.995   3.798   1.563  0.4277 -0.1296 -0.0234
 2752TIP3    H129891   3.068   3.851   1.528  0.6229  0.6775  1.5193
 2752TIP3    H229892   3.021   3.778   1.653 -1.3139  0.3193  0.6209
 2753TIP3   OH229893   4.418   5.220   1.244 -0.6680 -0.7792  0.3276
 2753TIP3    H129894   4.448   5.258   1.327  0.1492 -0.5548 -0.0699
 2753TIP3    H229895   4.443   5.284   1.178 -0.8941 -1.1831 -0.1512
 2754TIP3   OH229896   4.571   5.378   0.986  0.0099  0.0214 -0.2082
 2754TIP3    H129897   4.610   5.311   0.931  0.2270  1.7528 -2.3090
 2754TIP3    H229898   4.488   5.399   0.944 -1.7925 -1.3140  2.3930
 2755TIP3   OH229899   2.242   4.507   8.539 -0.4373 -0.0499 -0.3368
 2755TIP3    H129900   2.163   4.534   8.493 -1.3905 -0.0858  1.2401
 2755TIP3    H229901   2.212   4.450   8.609  1.0039 -0.1750  0.2233
 2756TIP3   OH229902   2.359   1.800   0.930 -0.1269  0.2474 -0.2499
 2756TIP3    H129903   2.288   1.860   0.950  0.1236  0.6744 -0.6211
 2756TIP3    H229904   2.412   1.846   0.866  0.2030 -0.2755 -0.3604
 2757TIP3   OH229905   1.666   3.414   8.524  0.5315  0.4329 -0.3028
 2757TIP3    H129906   1.756   3.447   8.523  0.5514  0.4752 -2.6081
 2757TIP3    H229907   1.653   3.379   8.436 -1.8485  0.8144 -0.1632
 2758TIP3   OH229908   3.449   5.796   3.199  0.2672  0.1708 -0.1182
 2758TIP3    H129909   3.529   5.823   3.244  0.8161 -0.5507 -0.6438
 2758TIP3    H229910   3.461   5.702   3.183 -1.1801 -0.2114  0.8139
 2759TIP3   OH229911   5.641   4.071   8.398 -0.6581  0.4708 -0.2148
 2759TIP3    H129912   5.589   4.006   8.350  0.2285  0.7513 -1.6178
 2759TIP3    H229913   5.593   4.085   8.479 -1.3954 -1.1969 -0.3142
 2760TIP3   OH229914   4.537   2.068   0.936  0.0857  0.3878 -0.5561
 2760TIP3    H129915   4.626   2.062   0.969  0.1475  1.2216 -0.5547
 2760TIP3    H229916   4.485   2.097   1.011 -0.3057 -0.7165 -0.3832
 2761TIP3   OH229917   6.532   2.575   8.734 -0.6033  0.1518 -0.1169
 2761TIP3    H129918   6.531   2.495   8.786 -2.0852  0.4341  0.3414
 2761TIP3    H229919   6.531   2.646   8.798 -3.3026  0.5094 -0.4266
 2762TIP3   OH229920   0.825   5.163   2.274 -0.4163  0.2631 -0.4142
 2762TIP3    H129921   0.731   5.167   2.294 -0.4553 -1.4912 -0.0698
 2762TIP3    H229922   0.868   5.175   2.358 -0.3914 -0.5019 -0.3107
 2763TIP3   OH229923   2.476   1.808   0.013 -0.2002 -0.3413  0.4124
 2763TIP3    H129924   2.534   1.879  -0.013 -0.2411 -1.0916 -1.9472
 2763TIP3    H229925   2.421   1.845   0.081  0.5488  1.5116  0.0568
 2764TIP3   OH229926   0.403   2.264   9.191 -0.3780 -0.6318 -0.6906
 2764TIP3    H129927   0.353   2.332   9.236 -1.7079 -2.2995  0.4604
 2764TIP3    H229928   0.493   2.274   9.224 -0.2798  1.2100 -1.3760
 2765TIP3   OH229929   1.738   1.297   2.261 -0.2136  0.1716  0.5715
 2765TIP3    H129930   1.679   1.287   2.335  0.3895 -1.6154  0.8458
 2765TIP3    H229931   1.773   1.209   2.245  0.2301  0.6417 -1.3665
 2766TIP3   OH229932   5.990   0.932   8.376 -0.6032 -0.0114 -0.2148
 2766TIP3    H129933   5.923   0.863   8.379  0.0559 -0.7619 -1.7171
 2766TIP3    H229934   5.940   1.014   8.377 -1.5458 -0.5523 -1.1454
 2767TIP3   OH229935   1.408   0.965   2.544 -0.1820  0.5865 -0.1949
 2767TIP3    H129936   1.488   1.008   2.514 -0.6809  1.4944 -0.2557
 2767TIP3    H229937   1.432   0.873   2.551  0.8923  0.8556 -0.1317
 2768TIP3   OH229938   6.422   1.979   1.991  0.0394 -0.1779  0.5593
 2768TIP3    H129939   6.455   1.948   2.075 -0.4926 -1.6222  0.2479
 2768TIP3    H229940   6.468   2.063   1.978  1.1747 -0.5970  1.6171
 2769TIP3   OH229941   1.565   1.015   1.560 -0.0861  0.5324  0.6825
 2769TIP3    H129942   1.509   1.073   1.509 -1.9731 -2.1162 -0.4653
 2769TIP3    H229943   1.637   0.993   1.500 -0.2747  0.3434  0.5287
 2770TIP3   OH229944   2.198   0.789   0.092  0.1492  0.5949  0.1692
 2770TIP3    H129945   2.116   0.779   0.043 -0.3099  1.9471  0.6178
 2770TIP3    H229946   2.227   0.877   0.071 -0.6951  1.7309  3.1932
 2771TIP3   OH229947   2.751   1.793   0.788 -0.1461  0.5567 -0.1749
 2771TIP3    H129948   2.782   1.880   0.763  1.7515 -0.0583 -0.1190
 2771TIP3    H229949   2.791   1.777   0.874  1.8739 -1.4674 -1.3961
 2772TIP3   OH229950   1.958   2.796   8.259  0.2114  0.8213 -0.2578
 2772TIP3    H129951   1.975   2.889   8.241 -0.3501  1.0938  0.5450
 2772TIP3    H229952   1.956   2.755   8.173  0.7263  1.5081 -0.6106
 2773TIP3   OH229953   4.436   5.675   1.735 -0.5221 -0.2430  0.2875
 2773TIP3    H129954   4.341   5.671   1.750 -0.4231 -0.7534  0.8368
 2773TIP3    H229955   4.473   5.621   1.805  0.2614  1.0161  0.8782
 2774TIP3   OH229956   4.467   3.109   7.061 -0.0482  0.0636  0.0029
 2774TIP3    H129957   4.529   3.179   7.043  1.4686 -1.5095 -1.2560
 2774TIP3    H229958   4.508   3.031   7.024 -1.5116 -1.5608  1.6187
 2775TIP3   OH229959   5.759   3.160   1.849 -0.0064 -0.2277  0.1063
 2775TIP3    H129960   5.738   3.253   1.839  0.8158 -0.2237 -2.1087
 2775TIP3    H229961   5.766   3.127   1.759 -0.3853 -2.4707  0.8340
 2776TIP3   OH229962   3.780   0.124   1.828  0.2306  0.3299 -0.4788
 2776TIP3    H129963   3.770   0.053   1.764  0.9292 -1.1901  1.0124
 2776TIP3    H229964   3.872   0.150   1.820 -0.3089  1.9991 -1.8798
 2777TIP3   OH229965   0.336   3.818   2.138  0.7779  0.4843 -0.1957
 2777TIP3    H129966   0.381   3.858   2.212  0.2354 -1.5487  1.3401
 2777TIP3    H229967   0.390   3.743   2.114 -0.3850 -0.4323 -0.0608
 2778TIP3   OH229968   2.730   0.323   0.775 -0.0754 -0.3547  0.3335
 2778TIP3    H129969   2.687   0.240   0.793  0.3167 -0.9279 -1.2600
 2778TIP3    H229970   2.694   0.383   0.841 -2.4147 -1.0808 -0.1924
 2779TIP3   OH229971   2.794   3.584   0.936  0.7308  0.3348  0.0037
 2779TIP3    H129972   2.745   3.613   1.013  0.7670  0.5055 -0.0358
 2779TIP3    H229973   2.804   3.490   0.947 -0.1185  0.2077 -0.2865
 2780TIP3   OH229974   4.205   4.932   0.629  0.0973 -0.2116 -0.0629
 2780TIP3    H129975   4.146   5.007   0.637 -1.0497 -1.0812 -0.0191
 2780TIP3    H229976   4.245   4.942   0.543  1.7127  1.6492  0.8427
 2781TIP3   OH229977   1.561   0.855   1.788 -0.0983  0.1581 -0.9481
 2781TIP3    H129978   1.509   0.895   1.858 -1.3051  0.4975 -1.9836
 2781TIP3    H229979   1.546   0.911   1.712  1.6734  0.1520 -1.3495
 2782TIP3   OH229980   0.523   3.299   0.121 -0.0910  0.1573  0.1099
 2782TIP3    H129981   0.521   3.248   0.040 -0.1206  1.1034 -0.5015
 2782TIP3    H229982   0.535   3.234   0.190 -0.9356 -0.7515 -0.5739
 2783TIP3   OH229983   0.297   0.140   2.313 -0.1887 -0.3440  0.4407
 2783TIP3    H129984   0.239   0.169   2.242  2.0016 -0.7753 -1.6403
 2783TIP3    H229985   0.306   0.046   2.299  1.0639 -0.2668  0.6785
 2784TIP3   OH229986   3.696   3.398   2.754  0.1300 -0.4210 -0.1671
 2784TIP3    H129987   3.644   3.318   2.747 -0.5761 -0.0245  0.4026
 2784TIP3    H229988   3.633   3.469   2.740  1.0673  0.0438 -2.5760
 2785TIP3   OH229989   4.407   0.029   1.772 -0.1148  0.0379  0.3176
 2785TIP3    H129990   4.389   0.093   1.704 -1.7033  0.0196  0.6872
 2785TIP3    H229991   4.460   0.076   1.836 -0.5028  0.7112  0.1512
 2786TIP3   OH229992   5.189   2.439   0.422  0.1392  0.4664  0.6692
 2786TIP3    H129993   5.228   2.490   0.350 -0.6496  2.3816  1.5430
 2786TIP3    H229994   5.177   2.502   0.493 -0.5664 -1.0336  1.9465
 2787TIP3   OH229995   3.550   3.765   1.050  0.0948 -0.4226  0.1550
 2787TIP3    H129996   3.489   3.839   1.057  2.3023  1.4264  1.1889
 2787TIP3    H229997   3.579   3.766   0.958  0.5420  0.3960  0.2956
 2788TIP3   OH229998   1.102   0.848   8.233  0.1313 -0.0678  0.0194
 2788TIP3    H129999   1.108   0.913   8.303 -1.5100  0.2499 -0.0858
 2788TIP3    H230000   1.058   0.894   8.162 -0.3728 -1.0796 -0.3324
 2789TIP3   OH230001   0.305   2.423   2.656  0.1342 -0.1604 -0.2364
 2789TIP3    H130002   0.378   2.484   2.655 -1.3264  1.7326  0.9980
 2789TIP3    H230003   0.345   2.337   2.669  2.0986  0.9033  1.1883
 2790TIP3   OH230004   0.919   2.304   0.137 -0.2796 -0.7958  0.5828
 2790TIP3    H130005   0.989   2.343   0.085  0.5457 -2.2396  0.5390
 2790TIP3    H230006   0.935   2.210   0.132 -2.4848 -1.2093  0.2285
 2791TIP3   OH230007   4.419   3.579   1.144 -0.0271  0.0365  0.2624
 2791TIP3    H130008   4.435   3.599   1.052  2.2495  1.7340  0.9305
 2791TIP3    H230009   4.475   3.503   1.162  0.6190  0.5797  0.5640
 2792TIP3   OH230010   2.747   1.999   8.824  0.1641  0.1272 -0.2234
 2792TIP3    H130011   2.824   2.015   8.769  0.5626  0.1938  0.3410
 2792TIP3    H230012   2.750   2.069   8.890 -1.1973  1.0121 -1.0487
 2793TIP3   OH230013   4.077   4.151   1.022 -0.8360  0.5574 -1.1331
 2793TIP3    H130014   4.079   4.058   0.999  0.5402  0.0612  0.6789
 2793TIP3    H230015   4.118   4.196   0.948  0.1238 -0.4973 -1.2626
 2794TIP3   OH230016   0.115   1.317   7.779 -0.6871  0.2041 -0.4302
 2794TIP3    H130017   0.063   1.317   7.860 -0.0942  1.8850 -0.0065
 2794TIP3    H230018   0.099   1.403   7.741  3.6975  1.9765  1.0526
 2795TIP3   OH230019   5.751   5.831   8.291  0.1998  0.8286  0.2796
 2795TIP3    H130020   5.725   5.750   8.248  0.9191 -0.3401  1.9297
 2795TIP3    H230021   5.791   5.884   8.222 -0.1239 -0.2768 -0.7906
 2796TIP3   OH230022   3.291   4.787   0.479 -0.0784  0.4973 -0.4156
 2796TIP3    H130023   3.247   4.825   0.556  0.4018  1.2014 -0.4797
 2796TIP3    H230024   3.305   4.695   0.503 -2.6681 -0.1152 -0.8728
 2797TIP3   OH230025   2.394   3.092   8.947 -0.1202  0.1328  0.0040
 2797TIP3    H130026   2.356   3.155   8.887  2.0279  0.0804 -1.5402
 2797TIP3    H230027   2.415   3.016   8.893 -0.2457 -0.8784  1.3071
 2798TIP3   OH230028   1.456   1.285   2.211  0.8093 -0.3093  0.0216
 2798TIP3    H130029   1.384   1.246   2.160 -0.0607  2.8978 -1.4568
 2798TIP3    H230030   1.533   1.275   2.155  0.5810  0.1199 -0.3746
 2799TIP3   OH230031   4.760   0.413   8.812 -0.0220  0.6856 -1.0220
 2799TIP3    H130032   4.815   0.424   8.734  0.5164  0.7683 -0.6359
 2799TIP3    H230033   4.674   0.389   8.777  0.9052 -2.2869 -1.5824
 2800TIP3   OH230034   3.046   3.414   7.587 -0.0624 -0.2801  0.5314
 2800TIP3    H130035   2.954   3.386   7.591 -1.0712  2.7271  0.5528
 2800TIP3    H230036   3.087   3.351   7.528 -2.3490 -1.1404 -0.2539
 2801TIP3   OH230037   4.822   2.147   2.080 -0.9479  0.3260 -0.4448
 2801TIP3    H130038   4.797   2.101   2.000  0.1431 -0.6970 -0.2305
 2801TIP3    H230039   4.745   2.199   2.104 -1.2372  0.7548 -2.2185
 2802TIP3   OH230040   5.978   4.669   9.103 -0.2847  0.3191  0.1171
 2802TIP3    H130041   5.904   4.728   9.110 -0.2906  0.1226  2.0690
 2802TIP3    H230042   5.939   4.582   9.090 -0.3792  0.2667  0.7627
 2803TIP3   OH230043   1.227   4.410   3.027 -0.0582  0.2226  0.3040
 2803TIP3    H130044   1.139   4.439   3.004 -0.3299 -1.0515 -0.3665
 2803TIP3    H230045   1.283   4.485   3.011 -0.5351  0.0303 -2.6601
 2804TIP3   OH230046   5.384   3.396   0.834  0.6461  0.3798  0.2539
 2804TIP3    H130047   5.361   3.482   0.870  1.3051  0.2455  1.0278
 2804TIP3    H230048   5.314   3.338   0.863  0.3528  0.5901 -0.0238
 2805TIP3   OH230049   6.579   0.778   1.561  0.4233 -0.0605  0.5519
 2805TIP3    H130050   6.499   0.831   1.559 -0.8366 -1.8536 -0.8884
 2805TIP3    H230051   6.568   0.721   1.638 -1.2630 -2.3981 -1.2744
 2806TIP3   OH230052   4.737   0.130   1.212  0.1694  0.5645  0.3012
 2806TIP3    H130053   4.751   0.035   1.207  1.1076  0.7732 -1.7752
 2806TIP3    H230054   4.702   0.143   1.301 -0.7650 -1.7928  0.3738
 2807TIP3   OH230055   2.211   6.606   1.704 -0.3957  0.4135  0.0793
 2807TIP3    H130056   2.272   6.639   1.770 -0.0159  1.3577 -0.7214
 2807TIP3    H230057   2.258   6.533   1.664 -0.5186  0.0078  0.6568
 2808TIP3   OH230058   6.037   5.237   7.795 -0.0760  0.1842 -0.7172
 2808TIP3    H130059   6.017   5.146   7.774 -0.7770  0.6253 -2.0978
 2808TIP3    H230060   5.984   5.288   7.733 -0.4902  1.5621  0.7031
 2809TIP3   OH230061   3.225   6.005   1.474 -0.2570 -0.3224 -0.0830
 2809TIP3    H130062   3.225   5.989   1.380 -1.0588 -3.2060  0.3296
 2809TIP3    H230063   3.317   5.995   1.500 -0.4532 -2.7684 -0.1513
 2810TIP3   OH230064   3.856   1.838   1.946  0.2288  0.1700  0.0154
 2810TIP3    H130065   3.772   1.843   1.901  1.0906  1.8445 -1.5706
 2810TIP3    H230066   3.851   1.759   1.999 -1.6779 -0.7255 -1.3982
 2811TIP3   OH230067   1.191   2.528   8.876 -0.5955 -0.1324 -0.1862
 2811TIP3    H130068   1.278   2.531   8.834 -0.4282 -0.4846  0.1266
 2811TIP3    H230069   1.205   2.476   8.955 -0.8736  0.6903  0.4079
 2812TIP3   OH230070   2.593   4.442   6.947  0.3011 -0.1249  0.2724
 2812TIP3    H130071   2.508   4.474   6.916  0.4933 -0.3500 -0.5050
 2812TIP3    H230072   2.647   4.520   6.954  0.5280 -0.1711 -0.8459
 2813TIP3   OH230073   2.931   4.619   0.021  0.0698  0.3627  0.4764
 2813TIP3    H130074   2.982   4.694  -0.010  0.4345 -0.2419 -0.4565
 2813TIP3    H230075   2.938   4.555  -0.050  0.9009 -1.0905  1.8204
 2814TIP3   OH230076   1.993   6.680   8.312 -0.5669  0.1289  0.4601
 2814TIP3    H130077   1.969   6.694   8.403  0.4645 -0.4830  0.8418
 2814TIP3    H230078   1.986   6.585   8.300 -1.6044  0.2889 -0.3735
 2815TIP3   OH230079   4.908   6.249   2.801  0.4002 -0.0117  0.3551
 2815TIP3    H130080   4.946   6.308   2.736 -1.7053  2.1465  0.9464
 2815TIP3    H230081   4.847   6.195   2.751  0.5361 -0.0093  0.1856
 2816TIP3   OH230082   0.583   0.005   8.912 -0.4123  0.2474 -0.5591
 2816TIP3    H130083   0.571   0.036   9.002  1.1052  1.3528 -0.6876
 2816TIP3    H230084   0.642  -0.070   8.920 -0.2788  0.3448 -0.6224
 2817TIP3   OH230085   0.611   0.809   8.018 -0.3110 -0.9519  0.1305
 2817TIP3    H130086   0.595   0.735   8.077 -0.0412  0.3164  1.8715
 2817TIP3    H230087   0.706   0.805   8.002 -0.3474 -1.1671 -0.0370
 2818TIP3   OH230088   4.570   0.642   0.250 -0.4528 -0.2335  0.2183
 2818TIP3    H130089   4.475   0.643   0.239 -0.2851 -0.7978 -1.5632
 2818TIP3    H230090   4.597   0.560   0.208  0.9529  0.6190 -0.5824
 2819TIP3   OH230091   2.539   1.890   7.452  0.9323  0.1638 -0.1446
 2819TIP3    H130092   2.521   1.962   7.391 -1.9715 -2.2690 -2.4685
 2819TIP3    H230093   2.465   1.890   7.512  1.7080  0.0399  0.8365
 2820TIP3   OH230094   5.890   2.007   8.626  0.3407  0.2649 -0.1941
 2820TIP3    H130095   5.815   2.020   8.568  0.5615  0.2676 -0.4752
 2820TIP3    H230096   5.956   2.068   8.595  0.8298 -0.4540 -0.5830
 2821TIP3   OH230097   2.484   2.430   1.207  0.3598  0.8475  0.1746
 2821TIP3    H130098   2.471   2.360   1.143  0.3505  1.1673 -0.1775
 2821TIP3    H230099   2.572   2.415   1.241  0.8306  1.3594 -0.7777
 2822TIP3   OH230100   4.663   6.615   1.554  0.1946 -0.0874 -1.0894
 2822TIP3    H130101   4.746   6.627   1.600  0.5111 -1.5890 -1.2418
 2822TIP3    H230102   4.657   6.692   1.497  1.2688  0.2625 -0.7621
 2823TIP3   OH230103   2.001   2.672   0.055  0.1659 -0.3184 -0.1936
 2823TIP3    H130104   2.070   2.697   0.116 -0.4888  2.1314 -0.3437
 2823TIP3    H230105   2.043   2.610  -0.005  2.1413  0.7773 -0.0360
 2824TIP3   OH230106   0.086   5.278   8.993  0.0984 -0.1208 -0.3934
 2824TIP3    H130107  -0.009   5.290   8.990 -0.0667 -0.8201  0.9772
 2824TIP3    H230108   0.114   5.277   8.901 -1.0901  0.9707 -0.7891
 2825TIP3   OH230109   2.243   3.745   7.230 -0.4726 -0.1216 -0.7838
 2825TIP3    H130110   2.330   3.711   7.208 -0.2642  0.2305 -0.5184
 2825TIP3    H230111   2.186   3.668   7.227 -0.1665 -0.3397 -1.0456
 2826TIP3   OH230112   0.445   0.441   8.159 -0.3159 -0.1946 -0.2483
 2826TIP3    H130113   0.535   0.466   8.137 -0.9279  0.8946 -1.6844
 2826TIP3    H230114   0.420   0.380   8.090 -1.8762  2.3724 -2.1372
 2827TIP3   OH230115   3.420   4.475   8.514  0.0343  0.2217  0.1498
 2827TIP3    H130116   3.449   4.397   8.561 -2.4910 -1.7638 -1.3135
 2827TIP3    H230117   3.393   4.536   8.582 -0.0958 -1.1037  1.3292
 2828TIP3   OH230118   4.772   0.440   1.430  0.8298  0.1701  0.7103
 2828TIP3    H130119   4.816   0.458   1.513  1.9175  0.1379  0.1571
 2828TIP3    H230120   4.839   0.400   1.375 -0.6538 -2.8724  0.8729
 2829TIP3   OH230121   5.650   4.163   6.924  0.2726 -0.2552  0.6405
 2829TIP3    H130122   5.689   4.176   7.011  0.7278  0.9476  0.2767
 2829TIP3    H230123   5.669   4.244   6.877  1.4455 -1.4877 -1.1200
 2830TIP3   OH230124   5.014   3.232   8.693  0.2907  0.0196  0.2749
 2830TIP3    H130125   5.039   3.203   8.606  2.1279  0.5700  0.5843
 2830TIP3    H230126   5.094   3.226   8.745 -0.2953  1.5322  1.4376
 2831TIP3   OH230127   6.483   1.069   1.941 -0.3899 -0.5899  0.7229
 2831TIP3    H130128   6.565   1.060   1.989  1.1070  1.5727 -1.2520
 2831TIP3    H230129   6.506   1.115   1.861 -3.4368 -0.5063 -0.2430
 2832TIP3   OH230130   1.945   5.123   1.890 -0.1472 -0.0142 -0.2562
 2832TIP3    H130131   1.919   5.071   1.814  0.5602 -0.9004  0.0891
 2832TIP3    H230132   2.027   5.084   1.919 -0.5671  0.1037  1.1642
 2833TIP3   OH230133   6.336   0.589   2.758 -0.1200 -0.2244  0.2581
 2833TIP3    H130134   6.345   0.646   2.834 -2.9563  0.5106  0.1842
 2833TIP3    H230135   6.389   0.512   2.778 -1.6410 -0.5518  3.5419
 2834TIP3   OH230136   3.117   5.170   2.031  0.0482 -0.0062 -0.1988
 2834TIP3    H130137   3.120   5.087   1.983 -1.2496 -0.5849  0.6413
 2834TIP3    H230138   3.131   5.237   1.965 -1.0576 -0.8118 -1.2998
 2835TIP3   OH230139   1.061   3.438   1.420 -0.0910 -0.5048 -0.2786
 2835TIP3    H130140   1.091   3.349   1.401  1.3420 -0.4102  1.2859
 2835TIP3    H230141   1.132   3.495   1.387 -0.3808 -0.0261 -0.0910
 2836TIP3   OH230142   4.501   3.922   0.919 -0.5244 -0.3932 -0.7376
 2836TIP3    H130143   4.550   3.943   0.839  1.2801 -1.8531 -0.0847
 2836TIP3    H230144   4.555   3.958   0.990 -1.8798  0.4910 -0.1114
 2837TIP3   OH230145   4.770   4.771   8.320  0.0296  0.1293  0.0993
 2837TIP3    H130146   4.829   4.715   8.270 -0.9598  0.6993 -1.7987
 2837TIP3    H230147   4.817   4.789   8.401  2.3310  0.3133 -1.2061
 2838TIP3   OH230148   1.399   0.689   0.782  0.2806 -0.0867  0.1446
 2838TIP3    H130149   1.353   0.752   0.836 -3.0947 -1.5400 -0.7524
 2838TIP3    H230150   1.458   0.643   0.842 -0.3160  1.0783  1.6726
 2839TIP3   OH230151   3.365   0.390   1.776  0.1151 -0.8104 -0.4769
 2839TIP3    H130152   3.302   0.320   1.791 -0.1864 -0.2718  0.9880
 2839TIP3    H230153   3.326   0.443   1.707 -0.8293 -0.7499  0.0838
 2840TIP3   OH230154   1.508   6.226   1.395  0.0044  0.4898  0.3278
 2840TIP3    H130155   1.422   6.250   1.428 -1.7725 -2.0719 -1.9599
 2840TIP3    H230156   1.521   6.285   1.320 -0.3240  0.0935 -0.0439
 2841TIP3   OH230157   2.752   1.965   2.632  0.7116  0.6681  0.2705
 2841TIP3    H130158   2.765   1.870   2.626 -2.4642  0.1584 -0.2218
 2841TIP3    H230159   2.686   1.976   2.700  2.5658  2.8004  1.8684
 2842TIP3   OH230160   2.670   0.775   0.838 -0.2571 -0.3910  0.6615
 2842TIP3    H130161   2.706   0.818   0.915 -0.8304  0.5269  0.4358
 2842TIP3    H230162   2.626   0.845   0.790  1.2551 -0.6165 -1.2166
 2843TIP3   OH230163   1.424   2.138   8.770 -0.3793  0.6368  0.6429
 2843TIP3    H130164   1.336   2.099   8.774 -0.2053 -0.1082 -1.4893
 2843TIP3    H230165   1.483   2.063   8.773  0.0190  0.7807 -1.7478
 2844TIP3   OH230166   0.634   4.927   0.035 -0.3525 -0.4622  0.6464
 2844TIP3    H130167   0.650   4.833   0.025  0.4210 -0.4364  1.5139
 2844TIP3    H230168   0.645   4.943   0.129  2.0147  0.9140  0.2234
 2845TIP3   OH230169   1.847   5.057   8.063 -0.5213 -0.0616  0.2602
 2845TIP3    H130170   1.841   4.971   8.104 -0.9995 -0.9026 -1.4628
 2845TIP3    H230171   1.900   5.043   7.984 -2.1762  0.7615 -1.0754
 2846TIP3   OH230172   5.986   4.381   1.615  0.2399 -0.2727 -0.2059
 2846TIP3    H130173   6.038   4.397   1.536  3.1502  1.4639  1.8123
 2846TIP3    H230174   6.043   4.327   1.670 -1.4261 -0.9177  0.9503
 2847TIP3   OH230175   1.278   1.760   9.154  0.5447  0.0661 -0.4663
 2847TIP3    H130176   1.314   1.754   9.243  0.6419 -1.8742 -0.5971
 2847TIP3    H230177   1.201   1.703   9.155  1.0297 -0.6580 -1.8372
 2848TIP3   OH230178   2.467   5.996   1.860 -0.1673  0.3813  0.0966
 2848TIP3    H130179   2.472   6.015   1.766 -2.0438  1.2441  0.1358
 2848TIP3    H230180   2.463   5.900   1.864  0.6695  0.2958 -0.6343
 2849TIP3   OH230181   1.288   0.138   8.094  0.3338 -0.1302 -0.9412
 2849TIP3    H130182   1.265   0.047   8.077  0.0109  0.0671 -1.5523
 2849TIP3    H230183   1.356   0.133   8.162 -1.6341 -0.7061  1.1128
 2850TIP3   OH230184   1.436   4.244   0.171 -0.1616  0.0149 -0.4154
 2850TIP3    H130185   1.375   4.299   0.220  0.7018 -0.9299  1.8580
 2850TIP3    H230186   1.400   4.156   0.177  0.6155 -0.3128 -0.4099
 2851TIP3   OH230187   4.227   3.492   0.232 -0.1866 -0.2984  0.4228
 2851TIP3    H130188   4.247   3.424   0.167  0.9798  0.6707 -0.2834
 2851TIP3    H230189   4.265   3.459   0.313 -0.3750 -0.8677  0.2857
 2852TIP3   OH230190   1.373   4.030   2.568 -0.5076  0.0862 -0.7129
 2852TIP3    H130191   1.376   4.042   2.473 -1.4970  0.0834 -0.7507
 2852TIP3    H230192   1.284   4.000   2.586 -0.2265 -0.2484  0.1818
 2853TIP3   OH230193   5.938   3.152   8.397  0.4277  0.3571  0.6270
 2853TIP3    H130194   5.965   3.107   8.317 -0.9363  0.8430 -0.1423
 2853TIP3    H230195   5.938   3.245   8.374 -2.4166  0.3827  0.3234
 2854TIP3   OH230196   5.609   5.593   9.031 -0.6532 -0.0287 -0.0374
 2854TIP3    H130197   5.697   5.586   8.993  0.3443 -1.1869  2.3275
 2854TIP3    H230198   5.565   5.513   9.001 -0.4946 -0.0342 -0.2640
 2855TIP3   OH230199   1.728   5.652   8.545  0.0513 -0.3888  0.1632
 2855TIP3    H130200   1.735   5.745   8.524  0.0245  0.0875  2.0323
 2855TIP3    H230201   1.634   5.637   8.556  0.1774  0.1176  2.6275
 2856TIP3   OH230202   4.243   0.917   3.321  0.3511  0.1550  0.2806
 2856TIP3    H130203   4.261   1.011   3.332 -0.2872  0.4380 -0.9393
 2856TIP3    H230204   4.322   0.873   3.352  0.5237  1.0763  1.1977
 2857TIP3   OH230205   6.153   2.773   7.858 -0.2825 -0.0789  0.0949
 2857TIP3    H130206   6.195   2.831   7.794  0.7486 -0.2239  0.6057
 2857TIP3    H230207   6.080   2.734   7.811  0.1710  0.1762 -0.8548
 2858TIP3   OH230208   1.867   4.961   8.617  0.1290  1.1014 -0.2527
 2858TIP3    H130209   1.849   5.040   8.565 -0.2901  0.8107 -0.5538
 2858TIP3    H230210   1.805   4.897   8.585  2.7464 -0.5074 -2.5766
 2859TIP3   OH230211   3.232   4.001   8.042  0.3235 -0.3950 -0.3754
 2859TIP3    H130212   3.234   4.068   7.974  2.2949  1.3647  1.2666
 2859TIP3    H230213   3.306   3.944   8.021 -1.6604 -2.5155 -2.0682
 2860TIP3   OH230214   5.721   2.405   2.432 -0.1500  0.2044 -0.2985
 2860TIP3    H130215   5.755   2.383   2.345  0.9783  2.4296 -0.4934
 2860TIP3    H230216   5.666   2.330   2.456 -1.1107 -0.1599 -3.2416
 2861TIP3   OH230217   5.177   6.610   8.543  0.3489  0.5758  0.0871
 2861TIP3    H130218   5.210   6.549   8.477  0.9670  0.8547  0.1311
 2861TIP3    H230219   5.202   6.571   8.626 -0.9916 -0.1007  0.1991
 2862TIP3   OH230220   6.579   0.160   8.574 -0.3662 -0.7471  0.2860
 2862TIP3    H130221   6.571   0.113   8.492 -0.3526 -1.4095  0.6593
 2862TIP3    H230222   6.493   0.200   8.588  0.1110  0.7755 -0.8760
 2863TIP3   OH230223   6.103   4.681   8.504 -0.8490 -0.8200  0.5346
 2863TIP3    H130224   6.082   4.609   8.446 -1.7758 -1.9880  2.2290
 2863TIP3    H230225   6.032   4.744   8.492  0.1355  0.0474 -1.1938
 2864TIP3   OH230226   1.281   5.510   0.405  0.0378  0.3061  0.3042
 2864TIP3    H130227   1.298   5.595   0.363  0.3925 -0.8671 -2.0351
 2864TIP3    H230228   1.186   5.498   0.398  0.1101  0.0642 -0.2477
 2865TIP3   OH230229   4.602   4.709   0.805  0.0357 -0.1870  0.1693
 2865TIP3    H130230   4.522   4.760   0.789 -0.2485 -0.0985  1.6942
 2865TIP3    H230231   4.655   4.723   0.726 -2.1384 -1.6562 -1.6716
 2866TIP3   OH230232   2.532   1.802   1.898  0.3024 -0.1476 -0.4298
 2866TIP3    H130233   2.560   1.810   1.807 -1.2423  0.6578 -0.8700
 2866TIP3    H230234   2.613   1.799   1.948  1.1737  0.5246 -1.7498
 2867TIP3   OH230235   2.699   3.897   8.120  0.2488  0.6026  0.1931
 2867TIP3    H130236   2.758   3.964   8.086  1.5360  0.7119  2.4704
 2867TIP3    H230237   2.729   3.816   8.077  1.6652  0.7689  0.8057
 2868TIP3   OH230238   1.259   4.852   0.171  0.4189 -0.4291  0.0881
 2868TIP3    H130239   1.229   4.775   0.220  0.4725  0.1513  1.0741
 2868TIP3    H230240   1.189   4.869   0.108  0.2064 -1.0304  0.1546
 2869TIP3   OH230241   6.674   4.536   7.910  0.2360  0.2542  0.1748
 2869TIP3    H130242   6.597   4.577   7.951  0.3404  1.9901 -1.2411
 2869TIP3    H230243   6.710   4.479   7.978 -0.9937  1.1458  1.6377
 2870TIP3   OH230244   2.375   3.882   7.773  0.1022 -0.7128  0.4109
 2870TIP3    H130245   2.416   3.801   7.805  1.5261 -0.5941 -1.0115
 2870TIP3    H230246   2.439   3.950   7.794 -0.3860 -0.1876  0.1877
 2871TIP3   OH230247   5.081   2.519   1.305  0.2739 -0.1943 -0.6265
 2871TIP3    H130248   5.110   2.589   1.364 -0.8808  0.2635 -0.5565
 2871TIP3    H230249   5.154   2.506   1.245  1.3570 -0.4532  0.7083
 2872TIP3   OH230250   3.617   0.479   2.362  0.4246  0.0467 -0.5620
 2872TIP3    H130251   3.606   0.453   2.271  0.5437  2.5751 -1.3524
 2872TIP3    H230252   3.631   0.573   2.360  0.4653  0.1928  2.0835
 2873TIP3   OH230253   3.268   0.149   8.390 -0.2501 -0.8946  0.1998
 2873TIP3    H130254   3.339   0.091   8.418 -0.0556 -0.9899 -0.4816
 2873TIP3    H230255   3.195   0.127   8.448 -0.0189 -1.4577  0.2820
 2874TIP3   OH230256   6.024   3.757   0.626  0.0512 -0.3472  0.0359
 2874TIP3    H130257   6.022   3.805   0.708  0.6290 -0.9231  0.3959
 2874TIP3    H230258   5.945   3.786   0.579  0.3786  0.9187  0.2364
 2875TIP3   OH230259   4.097   1.448   7.818 -0.2682 -0.0076  0.0081
 2875TIP3    H130260   4.064   1.398   7.743 -0.3498  0.3774 -0.2125
 2875TIP3    H230261   4.188   1.466   7.797  0.1720 -1.2518  0.7126
 2876TIP3   OH230262   5.543   2.229   2.036 -0.1052  0.1739  0.1220
 2876TIP3    H130263   5.555   2.137   2.060  1.4290  0.9407  2.6896
 2876TIP3    H230264   5.450   2.237   2.016 -0.0515 -2.1641 -1.4517
 2877TIP3   OH230265   0.645   2.080   0.135  0.7782 -0.0123 -0.8540
 2877TIP3    H130266   0.586   2.060   0.062  1.7377  1.3769 -2.0471
 2877TIP3    H230267   0.700   2.002   0.144 -1.0709 -1.2798  0.1928
 2878TIP3   OH230268   6.450   3.848   8.353  0.0743 -0.5710 -0.5285
 2878TIP3    H130269   6.434   3.787   8.281 -1.9654  2.4819 -2.9413
 2878TIP3    H230270   6.450   3.934   8.312  3.6752  1.1872  2.4951
 2879TIP3   OH230271   4.755   0.592   7.661  0.0809  0.1527 -0.0205
 2879TIP3    H130272   4.842   0.566   7.629  0.4697  0.1508  1.0127
 2879TIP3    H230273   4.720   0.648   7.591  0.7903 -0.0674 -0.5737
 2880TIP3   OH230274   1.143   6.632   8.789  0.6191 -0.0164 -0.4100
 2880TIP3    H130275   1.156   6.545   8.753  4.0007 -0.4585  1.4562
 2880TIP3    H230276   1.176   6.692   8.722  2.8341 -0.5653  0.0941
 2881TIP3   OH230277   1.330   5.220   7.883 -0.3077 -0.2736 -0.4613
 2881TIP3    H130278   1.285   5.237   7.799 -0.8858 -1.8615 -0.5253
 2881TIP3    H230279   1.288   5.140   7.915  1.3873 -0.8883  0.2979
 2882TIP3   OH230280   0.376   4.142   8.829  0.1949 -0.6309 -0.0757
 2882TIP3    H130281   0.405   4.054   8.855 -1.0986 -0.7540  1.0025
 2882TIP3    H230282   0.453   4.179   8.784  0.8220 -2.2314 -0.4113
 2883TIP3   OH230283   3.581   5.118   8.817 -0.3469  0.0168 -0.1063
 2883TIP3    H130284   3.629   5.043   8.852 -0.4910  0.8989  2.1527
 2883TIP3    H230285   3.623   5.195   8.857 -0.3388  1.1610 -2.1713
 2884TIP3   OH230286   2.820   3.338   8.057  0.4027 -0.7116 -0.3533
 2884TIP3    H130287   2.872   3.351   7.978  1.5463 -1.4985  0.2298
 2884TIP3    H230288   2.883   3.350   8.129 -0.6807  0.3045  0.4606
 2885TIP3   OH230289   6.300   1.178   3.413  0.2161  0.4801  0.0864
 2885TIP3    H130290   6.357   1.242   3.454  0.0117  1.4026 -1.0067
 2885TIP3    H230291   6.214   1.195   3.450  0.6348 -1.1545  2.0156
 2886TIP3   OH230292   4.540   3.072   7.890 -0.7376  0.2875 -0.5819
 2886TIP3    H130293   4.478   3.040   7.955  0.8911 -0.7255  0.5601
 2886TIP3    H230294   4.558   2.996   7.835 -0.5315  0.5707 -0.9058
 2887TIP3   OH230295   3.090   6.158   7.926  0.0357 -0.0498  0.0191
 2887TIP3    H130296   3.071   6.087   7.988 -0.2868 -2.0027 -2.1946
 2887TIP3    H230297   3.178   6.187   7.950 -0.4408 -0.0511  1.9743
 2888TIP3   OH230298   0.099   2.750   8.437 -0.9865 -0.4931  0.0662
 2888TIP3    H130299   0.101   2.834   8.482  1.4299  0.2086 -1.1149
 2888TIP3    H230300   0.174   2.702   8.473  0.8221 -0.0361 -2.7191
 2889TIP3   OH230301   0.727   3.810   2.008 -0.8171 -0.2657  0.2924
 2889TIP3    H130302   0.797   3.820   2.072 -1.6795 -0.8144  1.3474
 2889TIP3    H230303   0.773   3.795   1.925  0.3740  2.8462  0.2546
 2890TIP3   OH230304   5.316   0.870   3.232 -0.1806  1.2555 -0.2143
 2890TIP3    H130305   5.370   0.812   3.178 -0.2961  0.8290  0.1207
 2890TIP3    H230306   5.281   0.813   3.301 -1.9772  1.2764 -1.0546
 2891TIP3   OH230307   1.981   6.342   0.993  0.1215 -0.0639 -0.0446
 2891TIP3    H130308   1.890   6.361   0.970 -0.2189  1.9822  2.5519
 2891TIP3    H230309   1.988   6.247   0.984 -2.5817 -0.4225  0.5941
 2892TIP3   OH230310   5.053   2.546   8.813 -0.6878  0.0100 -0.4653
 2892TIP3    H130311   4.994   2.497   8.757 -1.0518  0.5232 -0.5432
 2892TIP3    H230312   5.021   2.637   8.807 -0.6908  0.0790  0.5182
 2893TIP3   OH230313   5.250   3.177   1.758  0.0840  0.0302 -0.0989
 2893TIP3    H130314   5.338   3.205   1.733 -0.1006 -0.2456 -1.0775
 2893TIP3    H230315   5.224   3.114   1.691 -0.7800 -0.0580  0.3007
 2894TIP3   OH230316   3.197   1.777   8.060 -0.3279  0.3102  0.4666
 2894TIP3    H130317   3.124   1.730   8.021 -0.5904  1.6655 -0.7843
 2894TIP3    H230318   3.202   1.744   8.150  0.7820 -3.4744 -0.8410
 2895TIP3   OH230319   4.001   5.833   0.592 -0.0403  0.1333  0.9960
 2895TIP3    H130320   3.992   5.766   0.524 -1.0834  2.8889 -1.8269
 2895TIP3    H230321   4.055   5.791   0.659  1.9078 -2.5459 -1.8925
 2896TIP3   OH230322   0.928   6.002   8.802 -0.0274  0.1831  0.2783
 2896TIP3    H130323   1.008   5.970   8.761 -1.2322  0.0283 -2.1964
 2896TIP3    H230324   0.887   5.925   8.840  0.1920 -0.0487  0.0465
 2897TIP3   OH230325   2.422   1.752   8.949  0.0445 -0.0289  0.2189
 2897TIP3    H130326   2.415   1.733   9.042  0.8162 -1.7152 -0.0235
 2897TIP3    H230327   2.345   1.711   8.910 -1.4305  2.4442  0.2694
 2898TIP3   OH230328   3.860   3.580   0.070  0.1633  0.0209 -0.2748
 2898TIP3    H130329   3.853   3.600  -0.023 -0.6679 -1.2539 -0.5092
 2898TIP3    H230330   3.817   3.495   0.080  2.2830 -0.9972  0.8864
 2899TIP3   OH230331   6.449   3.509   8.798  0.5735 -0.7941  0.1062
 2899TIP3    H130332   6.399   3.434   8.832 -0.0468  0.5392  2.4257
 2899TIP3    H230333   6.528   3.512   8.852  0.1103  0.7475  0.7796
 2900TIP3   OH230334   3.347   1.778   2.176  0.7086  0.3739 -0.7563
 2900TIP3    H130335   3.252   1.771   2.167  0.3194  0.0011  2.4844
 2900TIP3    H230336   3.361   1.853   2.234  2.4452  0.6829 -1.5036
 2901TIP3   OH230337   1.989   2.828   0.741 -0.0340 -0.1740 -0.1019
 2901TIP3    H130338   1.932   2.853   0.814 -0.0620 -0.0966 -0.1499
 2901TIP3    H230339   1.931   2.825   0.665 -0.3792 -2.0529  0.1901
 2902TIP3   OH230340   2.737   2.498   8.942  0.3301 -0.0996  0.0086
 2902TIP3    H130341   2.828   2.515   8.917  0.2475  0.1570 -0.1157
 2902TIP3    H230342   2.708   2.428   8.883  0.7984 -0.9808  0.7910
 2903TIP3   OH230343   4.942   3.667   8.189  0.0067  0.4769  0.2593
 2903TIP3    H130344   4.911   3.583   8.223  1.2196  0.5800  1.7710
 2903TIP3    H230345   4.953   3.653   8.095 -2.7642 -0.0744 -0.0572
 2904TIP3   OH230346   5.821   4.598   1.602  0.2158  0.0814 -0.6471
 2904TIP3    H130347   5.880   4.523   1.606 -0.1683 -0.1728  0.9351
 2904TIP3    H230348   5.841   4.649   1.681 -1.0455  0.4683 -0.5576
 2905TIP3   OH230349   0.228   1.167   2.699  0.5368  0.9220 -0.0953
 2905TIP3    H130350   0.288   1.160   2.773 -0.6360  0.4791  0.8383
 2905TIP3    H230351   0.164   1.098   2.714 -1.4724  2.7504  0.1066
 2906TIP3   OH230352   5.634   5.107   7.693 -0.3007 -0.1289 -0.5190
 2906TIP3    H130353   5.604   5.017   7.706  1.1299 -1.1184 -3.2842
 2906TIP3    H230354   5.708   5.100   7.634  1.0650  2.7722  0.6230
 2907TIP3   OH230355   1.984   2.046   2.271  0.7851 -0.1434 -0.2867
 2907TIP3    H130356   2.039   2.099   2.214 -1.5943  2.3569 -0.4726
 2907TIP3    H230357   1.997   2.083   2.358 -0.4012  0.3849 -0.3098
 2908TIP3   OH230358   5.775   4.861   1.462 -0.3171  0.1713 -0.6350
 2908TIP3    H130359   5.846   4.819   1.511 -0.7017  1.4909  1.1451
 2908TIP3    H230360   5.699   4.805   1.476 -0.0554 -0.3226 -1.1223
 2909TIP3   OH230361   5.386   5.202   1.475  0.7088 -0.0738  0.4122
 2909TIP3    H130362   5.363   5.292   1.499  1.4581  1.0157 -2.5415
 2909TIP3    H230363   5.473   5.210   1.435 -0.3592 -1.6005 -2.4533
 2910TIP3   OH230364   2.017   5.134   0.879 -0.5948  0.5313 -0.0088
 2910TIP3    H130365   2.111   5.136   0.862 -0.2962  2.2834  1.4390
 2910TIP3    H230366   1.979   5.187   0.809 -0.1358  2.1812  0.9309
 2911TIP3   OH230367   3.316   1.406   8.335 -0.2309  0.1830 -0.0561
 2911TIP3    H130368   3.238   1.383   8.386  1.2336 -1.7270  1.4913
 2911TIP3    H230369   3.382   1.428   8.400  0.4366  2.3945 -1.3498
 2912TIP3   OH230370   1.717   3.349   1.656  0.1791  0.3383 -0.0082
 2912TIP3    H130371   1.762   3.317   1.579  0.3547  0.3487  0.0896
 2912TIP3    H230372   1.633   3.304   1.656  0.3013  0.1111 -0.0381
 2913TIP3   OH230373   5.983   6.391   3.205 -0.4156 -0.0171 -0.5400
 2913TIP3    H130374   6.026   6.398   3.290 -2.4569 -0.0128  0.5645
 2913TIP3    H230375   5.954   6.300   3.200 -1.0471  0.1965 -0.8451
 2914TIP3   OH230376   6.396   0.787   2.011 -0.5340 -0.4311  0.0155
 2914TIP3    H130377   6.474   0.745   2.047 -0.3801 -0.5692 -0.4644
 2914TIP3    H230378   6.426   0.873   1.982 -1.0120  0.3216  1.6723
 2915TIP3   OH230379   0.400   1.584   8.790  0.2629 -0.1028  0.4407
 2915TIP3    H130380   0.362   1.554   8.873  1.7228 -1.4339  0.6803
 2915TIP3    H230381   0.437   1.670   8.810  0.9949 -0.5975  1.3284
 2916TIP3   OH230382   1.825   5.759   0.193 -0.2236 -0.3641  0.6781
 2916TIP3    H130383   1.779   5.778   0.112  0.3183  0.5175  0.5582
 2916TIP3    H230384   1.897   5.822   0.195 -0.6730  0.1615  2.2099
 2917TIP3   OH230385   1.196   1.322   7.873  0.1849  0.2630  0.2060
 2917TIP3    H130386   1.190   1.403   7.823  0.6053 -0.6538 -1.3726
 2917TIP3    H230387   1.169   1.253   7.812  0.6800 -0.8878  1.2406
 2918TIP3   OH230388   6.515   6.511   1.644  0.3633  0.0937  0.7325
 2918TIP3    H130389   6.489   6.420   1.658 -0.8745  0.4530  0.8445
 2918TIP3    H230390   6.458   6.561   1.702  0.3808  1.0155 -0.0294
 2919TIP3   OH230391   2.284   3.612   0.073  0.0880  0.2529 -0.1020
 2919TIP3    H130392   2.313   3.551   0.141  0.9882  0.8492  0.0618
 2919TIP3    H230393   2.289   3.562  -0.009  1.8907  0.4191 -0.1184
 2920TIP3   OH230394   3.851   3.366   0.879  0.6141  0.7730  0.2479
 2920TIP3    H130395   3.848   3.461   0.887  1.6125  0.8400  0.0079
 2920TIP3    H230396   3.875   3.351   0.787 -2.1138  0.2165 -0.4701
 2921TIP3   OH230397   3.265   4.533   8.246 -0.0682  0.0332  0.0815
 2921TIP3    H130398   3.354   4.517   8.276  0.4913  0.1312 -1.4727
 2921TIP3    H230399   3.256   4.628   8.245  0.0099  0.0344 -0.3507
 2922TIP3   OH230400   1.754   6.261   2.413 -0.0576  0.0394 -0.8155
 2922TIP3    H130401   1.661   6.258   2.437 -0.3332 -0.9281 -1.9359
 2922TIP3    H230402   1.754   6.262   2.317  1.0530  2.0089 -0.8330
 2923TIP3   OH230403   2.724   2.204   8.988  0.2557  0.6426  0.6209
 2923TIP3    H130404   2.669   2.248   8.923  0.1425 -1.0670 -0.5190
 2923TIP3    H230405   2.773   2.274   9.031  0.2276  1.8483 -1.2275
 2924TIP3   OH230406   3.957   3.427   9.014  0.5511 -0.3778  0.5144
 2924TIP3    H130407   3.950   3.452   8.922  2.7226 -0.9805  0.1278
 2924TIP3    H230408   4.011   3.495   9.053  0.9947 -0.9740  0.9554
 2925TIP3   OH230409   3.046   3.177   7.419 -0.4225  0.6182 -0.0169
 2925TIP3    H130410   3.114   3.111   7.427 -1.5538 -1.1175 -2.9973
 2925TIP3    H230411   2.965   3.132   7.442 -1.2819  0.6390 -2.5806
 2926TIP3   OH230412   3.949   2.064   2.304 -0.0407  0.3823 -0.1480
 2926TIP3    H130413   3.996   1.981   2.310  2.0204  1.4988  0.2696
 2926TIP3    H230414   3.951   2.100   2.393 -1.4547  0.6207 -0.1881
 2927TIP3   OH230415   3.062   2.312   7.556 -0.2973 -0.4947  0.2285
 2927TIP3    H130416   3.141   2.361   7.578 -0.2726 -0.4205 -0.0220
 2927TIP3    H230417   3.093   2.225   7.533 -0.3488 -0.6588  0.7564
 2928TIP3   OH230418   1.633   1.490   3.501 -0.0428 -0.1310 -0.0527
 2928TIP3    H130419   1.557   1.470   3.446 -0.3622  2.3945 -0.6836
 2928TIP3    H230420   1.637   1.586   3.501  1.2321 -0.0981  2.6360
 2929TIP3   OH230421   2.161   1.121   9.201  0.1967 -0.3220 -0.6500
 2929TIP3    H130422   2.101   1.046   9.209  1.4521 -1.4342 -1.2429
 2929TIP3    H230423   2.144   1.156   9.113 -0.0950 -0.1764 -0.5359
 2930TIP3   OH230424   6.390   2.635   8.437  0.1266  0.0894  0.0713
 2930TIP3    H130425   6.400   2.558   8.381  0.4588  1.6288 -2.0605
 2930TIP3    H230426   6.475   2.644   8.481  0.4456 -0.1185 -0.4976
 2931TIP3   OH230427   0.467   1.303   1.010  0.4085 -0.0899  0.5609
 2931TIP3    H130428   0.556   1.316   0.975  0.0889  0.6513 -0.0064
 2931TIP3    H230429   0.477   1.314   1.105  0.7162  1.2796  0.3952
 2932TIP3   OH230430   6.093   0.998   7.431 -0.0490 -0.1937  0.2225
 2932TIP3    H130431   6.059   0.923   7.479 -2.5896  1.9783  2.1070
 2932TIP3    H230432   6.178   1.017   7.472  0.6975 -2.0517 -0.3908
 2933TIP3   OH230433   5.076   5.373   0.021  0.1260 -0.2388  0.4128
 2933TIP3    H130434   5.096   5.446  -0.039 -0.1727  0.2917  0.9479
 2933TIP3    H230435   5.023   5.413   0.090  0.6310 -0.8009  1.1372
 2934TIP3   OH230436   1.195   4.436   8.636 -0.2976 -0.3927  0.2887
 2934TIP3    H130437   1.138   4.469   8.705  2.0993 -1.0222  2.7186
 2934TIP3    H230438   1.204   4.343   8.654  0.6947 -0.5020 -0.6323
 2935TIP3   OH230439   0.713   1.802   8.118 -0.1504  0.0069  0.5999
 2935TIP3    H130440   0.628   1.768   8.091  0.4814  1.2756 -3.7829
 2935TIP3    H230441   0.763   1.810   8.037  3.8895  0.2231  2.8219
 2936TIP3   OH230442   2.876   3.513   8.925  0.4001 -0.5866  0.1041
 2936TIP3    H130443   2.941   3.449   8.898  2.3860  1.5758 -0.6288
 2936TIP3    H230444   2.848   3.556   8.844  1.1634  1.2334  0.7443
 2937TIP3   OH230445   4.593   3.921   8.152 -0.1689 -0.5389 -0.0909
 2937TIP3    H130446   4.576   3.869   8.074  0.9223  0.7595 -1.2427
 2937TIP3    H230447   4.523   3.986   8.154  0.6564  0.4104 -0.9062
 2938TIP3   OH230448   5.844   0.948   0.969  0.7369  0.1351  0.3064
 2938TIP3    H130449   5.799   0.956   0.885  0.2952  1.5858  0.6569
 2938TIP3    H230450   5.817   0.863   1.003 -0.4580  0.2795 -0.2365
 2939TIP3   OH230451   4.538   4.034   8.979  0.0992  0.2334  0.1528
 2939TIP3    H130452   4.549   4.129   8.987 -0.9482  0.4866 -1.0131
 2939TIP3    H230453   4.482   4.011   9.053 -0.9536  0.8145 -0.4235
 2940TIP3   OH230454   2.011   2.926   2.129  0.1191  0.4198 -0.3548
 2940TIP3    H130455   2.014   2.906   2.035 -0.5918  1.3078 -0.5787
 2940TIP3    H230456   2.099   2.903   2.161 -0.4328 -2.5236 -0.6562
 2941TIP3   OH230457   1.026   2.022   0.078  0.0922 -0.2001 -0.1654
 2941TIP3    H130458   1.086   2.001   0.007  1.4233  0.6366  0.6651
 2941TIP3    H230459   1.077   2.077   0.137 -0.7758 -1.3055  1.7278
 2942TIP3   OH230460   3.733   4.250   7.610  0.6036 -0.5664  0.1701
 2942TIP3    H130461   3.824   4.263   7.585  0.2820  0.6415 -0.4604
 2942TIP3    H230462   3.737   4.200   7.692  1.8022 -0.8947 -0.0692
 2943TIP3   OH230463   1.301   6.684   0.562  0.9226  0.3262 -0.4718
 2943TIP3    H130464   1.351   6.699   0.643 -1.3437 -1.5613  1.4238
 2943TIP3    H230465   1.297   6.769   0.520 -0.2059  2.0912  2.8907
 2944TIP3   OH230466   2.868   1.764   1.032  0.1899  0.0963 -0.9114
 2944TIP3    H130467   2.957   1.790   1.010  0.9131 -0.2582  1.3922
 2944TIP3    H230468   2.878   1.685   1.086 -1.5217  0.0199 -0.6257
 2945TIP3   OH230469   5.068   4.691   1.047 -0.4462 -0.5381  0.1478
 2945TIP3    H130470   4.989   4.705   0.994  0.0809  1.3154 -0.2397
 2945TIP3    H230471   5.140   4.697   0.984  0.1995  1.8220  0.9900
 2946TIP3   OH230472   4.129   3.145   0.650 -0.2277 -0.5324  0.0440
 2946TIP3    H130473   4.063   3.214   0.659  0.9564  0.6773 -0.1262
 2946TIP3    H230474   4.165   3.157   0.562 -0.4758 -1.8366 -0.2602
 2947TIP3   OH230475   4.291   4.249   1.929  0.2054 -0.6137 -0.5687
 2947TIP3    H130476   4.374   4.295   1.936 -0.6226  0.9656 -0.8440
 2947TIP3    H230477   4.233   4.294   1.991 -0.7004 -1.1164 -1.0324
 2948TIP3   OH230478   4.021   1.594   1.066 -0.2309  0.1796 -0.4875
 2948TIP3    H130479   4.001   1.687   1.069 -2.6047 -0.1939 -2.0521
 2948TIP3    H230480   4.018   1.565   1.157 -3.8803  0.8729 -0.2672
 2949TIP3   OH230481   2.687   4.989   2.454  0.1928  0.3022 -0.3200
 2949TIP3    H130482   2.705   5.083   2.461  0.2011  0.1862  2.3538
 2949TIP3    H230483   2.741   4.959   2.381  0.5106  2.2958 -0.9499
 2950TIP3   OH230484   0.140   3.014   2.007  0.5270 -0.0474 -0.6055
 2950TIP3    H130485   0.106   3.054   1.927  0.0059 -0.7135 -0.7211
 2950TIP3    H230486   0.125   3.080   2.075 -2.7724 -0.9925 -0.2631
 2951TIP3   OH230487   4.687   5.130   1.630  0.5120  0.0564 -0.5934
 2951TIP3    H130488   4.757   5.143   1.566 -0.0306  0.7964 -1.0531
 2951TIP3    H230489   4.624   5.200   1.611 -0.4667 -0.7342 -0.3295
 2952TIP3   OH230490   2.466   5.528   7.210  0.4391 -0.6818  0.0429
 2952TIP3    H130491   2.432   5.594   7.150  0.5016 -0.8800 -0.2144
 2952TIP3    H230492   2.393   5.467   7.222  0.4678 -0.7106  0.0710
 2953TIP3   OH230493   2.989   1.167   0.502  0.5996 -0.0494  0.0443
 2953TIP3    H130494   2.950   1.131   0.423  0.5186  0.2403 -0.0461
 2953TIP3    H230495   2.926   1.233   0.532  0.5001 -0.3442  0.4954
 2954TIP3   OH230496   0.950   0.568   8.101 -0.1058  0.2768 -0.2216
 2954TIP3    H130497   0.943   0.605   8.189  0.2027 -0.7660  0.2636
 2954TIP3    H230498   1.044   0.574   8.080  0.5672 -2.9066  1.1513
 2955TIP3   OH230499   0.763   0.923   1.592 -0.0561  0.3261 -0.1880
 2955TIP3    H130500   0.678   0.915   1.634 -0.2715  2.5359 -0.0696
 2955TIP3    H230501   0.810   0.843   1.617 -1.5914 -0.2882  0.8959
 2956TIP3   OH230502   1.440   3.367   1.926  0.0611  0.0884  0.0563
 2956TIP3    H130503   1.456   3.297   1.863 -1.3952  0.3287 -0.6348
 2956TIP3    H230504   1.388   3.431   1.877 -0.9047  0.3919  1.4239
 2957TIP3   OH230505   4.805   0.902   7.175  0.5294 -0.2109  0.2264
 2957TIP3    H130506   4.839   0.875   7.090  1.0430  3.0235 -0.7281
 2957TIP3    H230507   4.710   0.900   7.165  0.5518 -1.1318  0.0779
 2958TIP3   OH230508   5.557   3.464   8.735 -0.3137 -0.5282  0.0775
 2958TIP3    H130509   5.522   3.490   8.820  0.1084 -0.4388  0.2294
 2958TIP3    H230510   5.646   3.501   8.734  0.5223 -2.3929  0.5289
 2959TIP3   OH230511   3.035   4.491   7.344  0.1009  0.1064  0.2850
 2959TIP3    H130512   3.059   4.412   7.295 -0.5119 -0.2366  0.5226
 2959TIP3    H230513   3.030   4.560   7.278  1.9956  0.2776  0.2556
 2960TIP3   OH230514   2.140   4.988   2.535 -0.6141  0.2233  0.4278
 2960TIP3    H130515   2.052   5.023   2.543  0.3733  2.5266  2.2459
 2960TIP3    H230516   2.150   4.930   2.611 -0.5821 -0.1052  0.1755
 2961TIP3   OH230517   3.211   0.477   0.959  0.2206  0.8111 -0.0204
 2961TIP3    H130518   3.224   0.505   1.050  1.1587  1.3586 -0.3166
 2961TIP3    H230519   3.266   0.399   0.950  1.2805  1.5929 -0.5177
 2962TIP3   OH230520   3.091   1.767   1.918 -0.3672  0.1517 -0.3751
 2962TIP3    H130521   3.061   1.816   1.995  1.3156  1.0285 -0.2434
 2962TIP3    H230522   3.095   1.831   1.848  2.1949  0.3545 -0.1199
 2963TIP3   OH230523   3.787   3.322   2.413  0.2475 -0.2857 -0.6711
 2963TIP3    H130524   3.715   3.308   2.352 -2.1577 -0.8867  2.0827
 2963TIP3    H230525   3.755   3.389   2.473  2.3789  0.0674  0.1584
 2964TIP3   OH230526   1.962   1.564   1.272  0.3426 -0.1763  0.3744
 2964TIP3    H130527   1.952   1.547   1.366  0.7383 -0.5493  0.3507
 2964TIP3    H230528   2.054   1.548   1.254  0.3193  0.1248 -0.0371
 2965TIP3   OH230529   2.248   5.814   7.409 -0.1383  0.3846 -0.6986
 2965TIP3    H130530   2.305   5.843   7.338  1.3917  1.0969  0.7424
 2965TIP3    H230531   2.304   5.758   7.463 -1.4457 -0.6643 -0.3716
 2966TIP3   OH230532   0.358   0.378   1.181  0.2164 -0.2577 -0.0489
 2966TIP3    H130533   0.423   0.308   1.177 -1.3220 -1.7144 -2.7034
 2966TIP3    H230534   0.283   0.344   1.132 -1.2045  2.6754 -0.1615
 2967TIP3   OH230535   1.942   4.556   8.741  0.8631 -0.2769 -0.1670
 2967TIP3    H130536   1.876   4.487   8.740  0.9117 -0.4068 -3.2159
 2967TIP3    H230537   2.022   4.513   8.769  0.3552 -0.8285  0.4704
 2968TIP3   OH230538   0.899   4.511   1.215 -0.0831 -0.5945 -0.2995
 2968TIP3    H130539   0.901   4.568   1.138  1.3582 -0.5973 -0.2794
 2968TIP3    H230540   0.889   4.571   1.289 -3.4811 -0.6880 -0.5284
 2969TIP3   OH230541   1.310   2.046   2.642 -0.2758 -0.4961 -0.0021
 2969TIP3    H130542   1.245   2.112   2.664  0.7986 -0.3345  3.1404
 2969TIP3    H230543   1.386   2.097   2.613 -0.7661 -0.6048 -1.5912
 2970TIP3   OH230544   6.549   3.814   0.644 -0.1099 -0.0838  0.1742
 2970TIP3    H130545   6.460   3.826   0.678 -0.6126 -2.2498 -0.2300
 2970TIP3    H230546   6.593   3.760   0.709 -0.1448 -1.7376 -1.1122
 2971TIP3   OH230547   4.859   2.536   2.246  0.3134 -0.1550  0.5941
 2971TIP3    H130548   4.949   2.521   2.277  0.1721 -0.3588  0.9102
 2971TIP3    H230549   4.859   2.499   2.158 -0.0733 -2.2684  1.4150
 2972TIP3   OH230550   0.209   1.092   0.559  0.1198  1.4576  0.0597
 2972TIP3    H130551   0.290   1.116   0.514  0.5116  0.5340  0.2602
 2972TIP3    H230552   0.233   1.018   0.614 -0.9366  0.9667 -0.1278
 2973TIP3   OH230553   3.577   4.754   0.742 -0.0494 -0.4870 -0.3020
 2973TIP3    H130554   3.614   4.744   0.830  0.5373  1.9290 -0.1999
 2973TIP3    H230555   3.572   4.849   0.729 -2.2833 -0.7565 -1.9901
 2974TIP3   OH230556   5.909   5.025   2.547  0.1643  0.0163 -0.1338
 2974TIP3    H130557   5.944   5.054   2.632  0.7605 -0.8943 -0.0558
 2974TIP3    H230558   5.904   5.104   2.495  1.5893  0.2986  0.1296
 2975TIP3   OH230559   6.162   4.844   1.829  0.1337 -0.3636 -0.4166
 2975TIP3    H130560   6.151   4.779   1.898  0.4537 -0.8512 -0.8254
 2975TIP3    H230561   6.252   4.835   1.800 -0.4211 -1.2812 -2.0056
 2976TIP3   OH230562   3.654   2.727   7.607  0.0154  0.2987  0.8050
 2976TIP3    H130563   3.738   2.754   7.570 -0.3382  0.9986  0.4936
 2976TIP3    H230564   3.588   2.772   7.553 -0.5080  1.3760  2.2642
 2977TIP3   OH230565   6.675   2.902   1.101 -0.5863 -0.2513 -0.0524
 2977TIP3    H130566   6.733   2.840   1.057 -0.4022  0.1173 -0.3354
 2977TIP3    H230567   6.587   2.875   1.077 -0.5008 -0.3130 -0.2994
 2978TIP3   OH230568   1.796   5.942   1.961  0.2209 -0.4415  0.2514
 2978TIP3    H130569   1.767   5.921   2.050 -1.4024 -0.0359 -0.1328
 2978TIP3    H230570   1.870   6.002   1.973  2.0549 -2.7630  1.3129
 2979TIP3   OH230571   2.094   5.165   9.184  0.5520  0.5532  0.3798
 2979TIP3    H130572   2.087   5.108   9.108 -0.7077 -0.4173  1.1630
 2979TIP3    H230573   2.137   5.244   9.152  0.1794  0.1148 -1.2967
 2980TIP3   OH230574   0.730   2.519   0.953  0.1826 -0.4883 -0.5461
 2980TIP3    H130575   0.719   2.606   0.991 -0.7326 -1.2744  1.1114
 2980TIP3    H230576   0.693   2.527   0.865 -1.8184  0.3152  0.2939
 2981TIP3   OH230577   3.455   2.735   2.246 -0.0042  0.4575 -0.1345
 2981TIP3    H130578   3.379   2.679   2.225  0.8334 -0.2696 -1.3423
 2981TIP3    H230579   3.420   2.800   2.307 -2.3487  1.9486 -2.8184
 2982TIP3   OH230580   1.093   5.495   7.939 -0.4840  0.2460  0.5304
 2982TIP3    H130581   1.049   5.412   7.918 -0.0151  0.4069 -1.2279
 2982TIP3    H230582   1.173   5.468   7.984  0.0130 -0.3251 -0.6458
 2983TIP3   OH230583   0.386   4.094   1.976 -0.0743 -0.1168 -0.1165
 2983TIP3    H130584   0.316   4.030   1.969 -0.5893  0.1876  1.7473
 2983TIP3    H230585   0.426   4.077   2.061 -0.3953  2.1795  0.5490
 2984TIP3   OH230586   3.678   2.956   8.108  0.2787  0.2346 -0.1876
 2984TIP3    H130587   3.736   2.885   8.082 -1.7652 -1.6409 -0.0202
 2984TIP3    H230588   3.693   2.966   8.202 -0.7043 -1.3556  0.1798
 2985TIP3   OH230589   4.929   2.054   7.369 -0.0268 -0.2784  0.4638
 2985TIP3    H130590   5.008   2.003   7.386 -0.2955 -0.6735  0.5313
 2985TIP3    H230591   4.863   2.016   7.427 -0.6196 -0.8197 -0.5422
 2986TIP3   OH230592   2.687   0.422   0.515 -0.0699 -0.0360 -0.2794
 2986TIP3    H130593   2.655   0.376   0.593 -0.1573 -2.3439 -1.5835
 2986TIP3    H230594   2.714   0.508   0.547  0.6802 -1.1769  2.4429
 2987TIP3   OH230595   4.312   4.707   1.407  0.1040 -0.2892 -0.0801
 2987TIP3    H130596   4.333   4.646   1.337  0.9486 -1.1909  0.9058
 2987TIP3    H230597   4.228   4.677   1.441  0.6943 -1.1824  0.6498
 2988TIP3   OH230598   1.524   6.036   9.159  0.7239  0.9133  0.4766
 2988TIP3    H130599   1.571   6.043   9.243  0.7398 -0.1513  0.5789
 2988TIP3    H230600   1.438   6.074   9.177 -0.3657 -1.8702  1.9030
 2989TIP3   OH230601   5.629   0.142   8.041  0.0067  0.4301  0.0156
 2989TIP3    H130602   5.604   0.231   8.016 -1.5212  0.4909  1.5742
 2989TIP3    H230603   5.722   0.149   8.062 -0.1514  1.7410  0.4093
 2990TIP3   OH230604   4.630   5.406   8.195 -0.2771  0.0900  0.3961
 2990TIP3    H130605   4.556   5.460   8.224 -0.3007 -0.1289  0.7471
 2990TIP3    H230606   4.640   5.340   8.263  1.0829  0.8850  1.0043
 2991TIP3   OH230607   2.140   6.290   1.739 -0.5602 -0.1184 -0.6777
 2991TIP3    H130608   2.231   6.305   1.712  0.4966  0.7117  2.8387
 2991TIP3    H230609   2.123   6.199   1.716  0.4035  0.2612 -3.2077
 2992TIP3   OH230610   5.824   5.561   8.882 -0.2574 -0.1829  0.1300
 2992TIP3    H130611   5.887   5.491   8.873 -1.1157 -0.6697 -3.0080
 2992TIP3    H230612   5.835   5.615   8.804 -1.9114  1.2250  0.7918
 2993TIP3   OH230613   0.578   0.043   7.159  0.3117 -0.5608  0.6110
 2993TIP3    H130614   0.640   0.098   7.209  1.4739 -0.2920 -1.0455
 2993TIP3    H230615   0.513   0.104   7.126  1.3223 -0.1956 -0.8063
 2994TIP3   OH230616   1.649   4.190   0.542 -0.1310 -0.3022  0.0445
 2994TIP3    H130617   1.745   4.187   0.552 -0.2867  0.6950  2.4917
 2994TIP3    H230618   1.631   4.279   0.512 -0.2500 -0.8004 -1.4066
 2995TIP3   OH230619   6.320   2.072   8.724 -0.4958 -0.0536 -0.1187
 2995TIP3    H130620   6.249   2.099   8.666 -1.2325  1.1521  1.3079
 2995TIP3    H230621   6.388   2.138   8.712 -0.2613 -0.3181 -0.2779
 2996TIP3   OH230622   1.042   1.316   0.903  0.6758  0.4196 -0.0053
 2996TIP3    H130623   0.962   1.332   0.953 -0.2277  1.9081 -1.8045
 2996TIP3    H230624   1.107   1.374   0.943  0.7690 -0.4257  1.1390
 2997TIP3   OH230625   4.363   0.071   2.184 -0.1180  0.0026  0.0353
 2997TIP3    H130626   4.320   0.146   2.226  2.7122  0.2261  2.8247
 2997TIP3    H230627   4.422   0.111   2.120 -0.9729 -0.1032 -0.8541
 2998TIP3   OH230628   4.128   2.790   7.674 -0.3039  0.1083  0.2297
 2998TIP3    H130629   4.161   2.862   7.621  0.3769 -1.2195 -1.2345
 2998TIP3    H230630   4.207   2.748   7.709 -0.7047  0.2957  1.4180
 2999TIP3   OH230631   3.969   4.342   1.207  0.2614 -0.8081  0.0468
 2999TIP3    H130632   4.028   4.274   1.172  0.1822 -0.4132 -0.8814
 2999TIP3    H230633   4.020   4.422   1.202 -0.2226 -0.5251 -0.4125
 3000TIP3   OH230634   6.256   2.231   0.686 -0.1026 -0.1232  0.2273
 3000TIP3    H130635   6.351   2.246   0.676 -0.1816  2.6811  2.5500
 3000TIP3    H230636   6.222   2.241   0.597  1.5057  1.5140 -0.2734
 3001TIP3   OH230637   0.072   4.063   7.685 -0.3303 -0.2548  0.1495
 3001TIP3    H130638   0.129   4.000   7.641  1.3687  1.7141 -0.6358
 3001TIP3    H230639   0.123   4.144   7.686 -2.0660  0.8913  1.9165
 3002TIP3   OH230640   5.821   1.120   7.512 -0.0332 -0.1491  0.0940
 3002TIP3    H130641   5.880   1.045   7.501  1.0897  0.8271 -0.7937
 3002TIP3    H230642   5.834   1.148   7.602  1.1966  0.2998 -0.2030
 3003TIP3   OH230643   4.478   2.147   0.165  0.5120 -0.1479 -0.2185
 3003TIP3    H130644   4.467   2.170   0.073 -0.2916 -0.4005 -0.1995
 3003TIP3    H230645   4.464   2.229   0.213 -1.4931 -0.4434 -0.1987
 3004TIP3   OH230646   2.300   1.001   1.136  0.5474  0.0820 -0.1440
 3004TIP3    H130647   2.381   0.959   1.167  0.9400  1.4310  0.7031
 3004TIP3    H230648   2.329   1.065   1.072  0.3173  1.5728  1.1881
 3005TIP3   OH230649   3.632   1.149   1.717 -0.0996  0.3414  0.1364
 3005TIP3    H130650   3.559   1.117   1.769  0.6354 -0.7709  0.5424
 3005TIP3    H230651   3.645   1.239   1.746 -1.2566  0.5273  0.1002
 3006TIP3   OH230652   4.602   6.042   1.175  0.2132 -0.4475 -0.5936
 3006TIP3    H130653   4.595   6.053   1.080 -0.5034 -0.7827 -0.5819
 3006TIP3    H230654   4.521   5.998   1.201 -0.5251  1.3835  0.4332
 3007TIP3   OH230655   6.051   4.066   2.870  0.2355  0.0963  0.0624
 3007TIP3    H130656   6.128   4.011   2.856 -0.4049 -1.2452  1.5336
 3007TIP3    H230657   6.037   4.109   2.785  3.3517  1.4636  0.1095
 3008TIP3   OH230658   0.464   3.994   0.106  0.4437  0.1585  0.2756
 3008TIP3    H130659   0.421   3.956   0.183 -1.4063  1.1737 -0.1861
 3008TIP3    H230660   0.419   3.953   0.032  0.2689  1.2508 -0.2346
 3009TIP3   OH230661   5.291   2.814   2.934 -0.3758  0.6045 -0.0738
 3009TIP3    H130662   5.321   2.905   2.936 -0.1672  0.5401 -0.2411
 3009TIP3    H230663   5.317   2.778   3.019 -0.9149  0.8443  0.1972
 3010TIP3   OH230664   1.429   1.270   1.532  0.1808 -0.1948  0.1832
 3010TIP3    H130665   1.509   1.314   1.505  0.6111  0.1040  1.8113
 3010TIP3    H230666   1.359   1.321   1.492  0.7682  0.1896 -0.3746
 3011TIP3   OH230667   6.288   0.829   1.081 -0.2915 -0.0541  0.5720
 3011TIP3    H130668   6.221   0.890   1.115 -0.9597  0.3855 -1.4052
 3011TIP3    H230669   6.263   0.815   0.990  1.7445 -0.7310  0.0814
 3012TIP3   OH230670   5.742   0.022   0.359 -0.0887 -0.0573  0.3502
 3012TIP3    H130671   5.692   0.100   0.382 -1.3236 -0.9457  0.8064
 3012TIP3    H230672   5.731  -0.036   0.434  3.3703  0.4482  1.4275
 3013TIP3   OH230673   2.236   5.066   1.564 -0.2697 -0.9171  0.3521
 3013TIP3    H130674   2.180   4.994   1.593 -2.3788  0.3090 -0.4415
 3013TIP3    H230675   2.177   5.126   1.520  1.8135  0.1783 -1.1415
 3014TIP3   OH230676   3.420   1.964   2.351  0.4690 -0.4044 -0.1450
 3014TIP3    H130677   3.487   2.030   2.332 -0.3419  0.4206 -0.1858
 3014TIP3    H230678   3.350   2.012   2.395  0.6050 -1.5655  1.4401
 3015TIP3   OH230679   5.075   2.910   0.897  0.4479  0.7747  0.4271
 3015TIP3    H130680   5.075   3.006   0.902 -2.8678  0.9724 -1.1567
 3015TIP3    H230681   5.048   2.890   0.808  0.0615 -1.6452  1.0219
 3016TIP3   OH230682   5.221   3.459   0.282 -0.1387  1.0017 -0.6130
 3016TIP3    H130683   5.245   3.483   0.372 -0.8979 -1.9557  0.4673
 3016TIP3    H230684   5.301   3.423   0.245 -1.1332 -3.6300  1.1251
 3017TIP3   OH230685   1.175   1.080   7.440 -0.0154 -0.5652 -0.2706
 3017TIP3    H130686   1.244   1.115   7.383 -0.3745 -0.1676 -0.4669
 3017TIP3    H230687   1.110   1.044   7.379 -0.2242 -0.4724 -0.1018
 3018TIP3   OH230688   3.048   6.580   1.399 -0.4095  0.2900 -0.5195
 3018TIP3    H130689   2.980   6.515   1.418  0.7246 -0.3622  1.5392
 3018TIP3    H230690   3.126   6.529   1.380  0.5915  0.9625  1.4682
 3019TIP3   OH230691   5.769   2.649   0.443 -0.1068 -0.8937  0.0308
 3019TIP3    H130692   5.817   2.572   0.415  1.3371 -0.5669  1.4359
 3019TIP3    H230693   5.713   2.618   0.515  0.9452 -0.5640  1.0290
 3020TIP3   OH230694   6.671   1.205   8.179  0.0392 -0.4233  0.3670
 3020TIP3    H130695   6.668   1.254   8.097  1.3576 -0.2474  0.3957
 3020TIP3    H230696   6.691   1.115   8.154  1.2266 -0.2154  0.5291
 3021TIP3   OH230697   4.554   3.251   8.399  0.1991  0.6066 -0.1122
 3021TIP3    H130698   4.559   3.332   8.450  1.9781  1.3251 -1.2827
 3021TIP3    H230699   4.644   3.218   8.399  0.0771  0.1681 -1.9591
 3022TIP3   OH230700   0.918   1.752   8.304 -0.3235  0.8386 -0.5291
 3022TIP3    H130701   1.003   1.768   8.264  0.1862 -1.3441 -0.4654
 3022TIP3    H230702   0.855   1.787   8.241  0.5751  1.7354 -0.9607
 3023TIP3   OH230703   2.583   1.828   1.254  0.1174 -0.1743  0.6719
 3023TIP3    H130704   2.653   1.780   1.298  0.2716 -0.6006 -0.0214
 3023TIP3    H230705   2.628   1.888   1.195 -0.0786 -0.9943 -0.3588
 3024TIP3   OH230706   0.872   4.714   1.022 -0.2795  0.5140  0.1291
 3024TIP3    H130707   0.796   4.769   1.043 -1.1516 -1.1993  1.7410
 3024TIP3    H230708   0.948   4.767   1.048 -1.1520  0.3036  3.5972
 3025TIP3   OH230709   1.380   6.492   3.508 -0.0623  0.7222 -0.3429
 3025TIP3    H130710   1.437   6.421   3.538  0.7255  1.9118  1.0871
 3025TIP3    H230711   1.309   6.448   3.461  1.3519 -0.8814 -1.0692
 3026TIP3   OH230712   3.350   2.213   1.806 -0.2183  0.0858  0.2467
 3026TIP3    H130713   3.408   2.283   1.836 -0.5106  1.5214 -2.2771
 3026TIP3    H230714   3.262   2.246   1.824 -0.4260  1.2365 -2.4210
 3027TIP3   OH230715   1.953   5.331   0.708  0.3498 -0.3183  0.1236
 3027TIP3    H130716   1.919   5.407   0.755  0.6847 -0.3378  0.4048
 3027TIP3    H230717   1.953   5.358   0.616 -1.2147 -0.6190  0.0098
 3028TIP3   OH230718   5.439   4.157   0.773  0.9086  0.6210 -0.0240
 3028TIP3    H130719   5.433   4.250   0.756  1.2381  0.5344 -0.6130
 3028TIP3    H230720   5.365   4.119   0.726  0.2017  0.6767  0.9901
 3029TIP3   OH230721   4.310   6.016   1.109 -0.2348 -0.0571  0.5671
 3029TIP3    H130722   4.298   6.097   1.158 -0.4188  1.0104 -1.1469
 3029TIP3    H230723   4.222   5.994   1.077  0.1493  0.4476 -0.9638
 3030TIP3   OH230724   3.252   6.015   0.665  0.0870  0.3060  0.0227
 3030TIP3    H130725   3.306   5.964   0.726 -2.2396 -0.9571  1.1722
 3030TIP3    H230726   3.210   6.081   0.719 -0.0709  0.8094 -0.7052
 3031TIP3   OH230727   1.844   6.011   2.512 -0.2005 -0.0165 -0.0077
 3031TIP3    H130728   1.804   6.088   2.473  0.3675  0.3208  0.0721
 3031TIP3    H230729   1.778   5.978   2.574  0.4403  1.7824  1.7264
 3032TIP3   OH230730   5.091   6.039   2.116  0.2316 -0.9910 -0.3383
 3032TIP3    H130731   5.111   6.133   2.119 -1.9442 -0.5070  1.5163
 3032TIP3    H230732   5.060   6.024   2.027  0.6303  0.0313 -0.6670
 3033TIP3   OH230733   5.325   4.943   0.321 -0.1290  0.9304  0.0404
 3033TIP3    H130734   5.281   4.859   0.306 -0.7104  1.3377 -0.6051
 3033TIP3    H230735   5.291   5.000   0.252 -0.6822  2.0522  1.2092
 3034TIP3   OH230736   1.953   2.334   0.233 -0.8180 -0.5623  0.1319
 3034TIP3    H130737   2.030   2.388   0.253 -1.7776  1.0860 -0.4619
 3034TIP3    H230738   1.988   2.262   0.181  0.4985 -0.4890  0.8703
 3035TIP3   OH230739   5.383   1.129   2.948 -0.1018  0.0097 -0.2136
 3035TIP3    H130740   5.341   1.048   2.976  0.0788  0.1617  0.4966
 3035TIP3    H230741   5.344   1.197   3.004  1.3218  0.1111  0.6864
 3036TIP3   OH230742   2.261   0.740   0.684  0.7082 -0.1019 -0.4027
 3036TIP3    H130743   2.263   0.817   0.741  0.0257 -1.3855  1.4631
 3036TIP3    H230744   2.228   0.772   0.600  1.2766  1.7726  0.0531
 3037TIP3   OH230745   4.105   0.935   9.156 -0.1522 -0.2315 -0.3786
 3037TIP3    H130746   4.014   0.910   9.143 -0.9149  0.3659  2.8980
 3037TIP3    H230747   4.155   0.859   9.125 -1.9416 -1.9317  0.6602
 3038TIP3   OH230748   5.768   1.147   1.147  0.0055  0.3689 -0.0920
 3038TIP3    H130749   5.739   1.055   1.144  1.9680 -0.2956 -0.1379
 3038TIP3    H230750   5.772   1.174   1.055  1.7401 -0.3130 -0.2472
 3039TIP3   OH230751   2.127   3.963   9.138 -0.8179 -0.5121  0.2793
 3039TIP3    H130752   2.033   3.948   9.142 -0.7843 -0.9598 -0.5181
 3039TIP3    H230753   2.164   3.903   9.203 -0.9872 -1.2001 -0.2545
 3040TIP3   OH230754   0.890   2.634   2.301  0.9440 -0.7006 -0.4894
 3040TIP3    H130755   0.925   2.719   2.330  0.4950 -0.1158 -1.6109
 3040TIP3    H230756   0.796   2.650   2.291  0.7267 -1.5688  0.0744
 3041TIP3   OH230757   2.786   4.648   8.265  0.5349 -0.0567  0.3692
 3041TIP3    H130758   2.786   4.625   8.172 -0.0060  0.7849  0.1462
 3041TIP3    H230759   2.877   4.667   8.285  0.7268 -0.6860  0.1341
 3042TIP3   OH230760   2.458   2.045   1.999  0.4071  0.3982 -0.3663
 3042TIP3    H130761   2.543   2.089   1.989  0.4424  1.0153  1.9180
 3042TIP3    H230762   2.475   1.954   1.975  1.4029  0.7637 -1.1038
 3043TIP3   OH230763   2.642   4.804   1.008 -0.0973 -0.6150 -0.0348
 3043TIP3    H130764   2.556   4.809   0.966  0.3853  1.1281 -0.8791
 3043TIP3    H230765   2.680   4.723   0.974 -0.7413 -0.5383 -0.9911
 3044TIP3   OH230766   6.673   0.967   2.137  0.4253  0.1911 -0.0883
 3044TIP3    H130767   6.594   0.970   2.191  1.1861 -2.2893  1.3182
 3044TIP3    H230768   6.723   1.044   2.165 -0.4880  0.5470  0.6288
 3045TIP3   OH230769   0.372   1.783   0.112 -0.5611 -0.0095 -0.2849
 3045TIP3    H130770   0.304   1.739   0.062  1.1448 -0.3896 -2.4425
 3045TIP3    H230771   0.387   1.865   0.065 -0.0373  0.4042  0.5798
 3046TIP3   OH230772   4.971   1.342   2.191 -0.7533  0.2017  0.7256
 3046TIP3    H130773   4.995   1.425   2.232  1.5467  0.4024 -0.7879
 3046TIP3    H230774   4.984   1.277   2.259  1.9928  0.6265  0.7487
 3047TIP3   OH230775   5.271   5.130   8.247  0.1318  0.4689 -0.0025
 3047TIP3    H130776   5.297   5.042   8.275  0.0069  0.5447  0.3531
 3047TIP3    H230777   5.264   5.123   8.152 -0.8920 -0.1944  0.0959
 3048TIP3   OH230778   4.858   2.748   2.955 -0.3443  0.3311 -0.5476
 3048TIP3    H130779   4.873   2.735   3.049 -0.7779  1.1338 -0.3597
 3048TIP3    H230780   4.796   2.679   2.931 -0.1566  0.0621 -0.2719
 3049TIP3   OH230781   2.457   2.423   0.348  0.0419  0.3363 -0.0242
 3049TIP3    H130782   2.406   2.343   0.355  1.8718 -1.1011 -1.7415
 3049TIP3    H230783   2.498   2.418   0.262 -0.6891  3.7423 -0.7202
 3050TIP3   OH230784   2.056   1.117   7.537 -0.2386  0.2191  0.1196
 3050TIP3    H130785   2.110   1.038   7.528 -1.0646 -0.1357 -2.4799
 3050TIP3    H230786   2.111   1.188   7.506  0.0349  0.4883  1.1785
 3051TIP3   OH230787   1.169   3.623   7.195  0.1366 -0.2247  0.4907
 3051TIP3    H130788   1.207   3.561   7.258  0.9241  0.0250  0.2752
 3051TIP3    H230789   1.242   3.647   7.138 -0.1487  0.9303  0.5917
 3052TIP3   OH230790   6.541   0.521   0.199 -0.7272 -0.2413  0.9110
 3052TIP3    H130791   6.616   0.549   0.251 -2.0110  1.9007  1.7369
 3052TIP3    H230792   6.481   0.595   0.201 -2.6453 -1.6635 -0.1763
 3053TIP3   OH230793   3.914   1.891   2.651  0.5992  0.2403  0.2555
 3053TIP3    H130794   3.831   1.850   2.675  0.0042  2.8475  3.2703
 3053TIP3    H230795   3.980   1.824   2.669 -0.6548 -1.3129 -0.6313
 3054TIP3   OH230796   4.909   6.342   8.175  0.4331  0.0869 -0.3710
 3054TIP3    H130797   4.836   6.281   8.182  1.3922 -0.9156  1.4648
 3054TIP3    H230798   4.874   6.414   8.122 -1.4187 -1.0013 -0.7361
 3055TIP3   OH230799   3.957   3.355   0.627 -0.3620  0.5310  0.0555
 3055TIP3    H130800   3.993   3.444   0.621  1.0514 -0.0738 -0.8539
 3055TIP3    H230801   3.869   3.363   0.589 -1.0434  1.9146  1.7804
 3056TIP3   OH230802   5.983   6.528   7.587 -0.2635  0.0174  0.3439
 3056TIP3    H130803   6.044   6.494   7.653  1.1493 -0.5745 -1.2010
 3056TIP3    H230804   6.039   6.576   7.525 -1.4792  0.1564 -0.6877
 3057TIP3   OH230805   4.805   5.050   7.137 -0.0224 -0.6569  0.3131
 3057TIP3    H130806   4.835   5.136   7.168 -0.5024 -1.1534  2.2592
 3057TIP3    H230807   4.714   5.064   7.111 -0.2216 -0.6549  1.0037
 3058TIP3   OH230808   0.655   4.379   1.246  0.1136  0.6346 -0.0459
 3058TIP3    H130809   0.660   4.284   1.237 -0.3014  0.3421  2.1621
 3058TIP3    H230810   0.740   4.410   1.216  0.5968 -0.5289  0.0612
 3059TIP3   OH230811   2.554   3.063   1.055  0.2064  0.1949  0.1581
 3059TIP3    H130812   2.605   2.986   1.029  0.3623 -0.1813  1.4944
 3059TIP3    H230813   2.560   3.064   1.151  0.7628  2.2442  0.1410
 3060TIP3   OH230814   2.866   5.357   7.405  0.2398 -0.5844 -0.0973
 3060TIP3    H130815   2.924   5.421   7.448  1.9887 -2.3131  0.2706
 3060TIP3    H230816   2.881   5.372   7.311  0.1113  0.0045 -0.0262
 3061TIP3   OH230817   0.046   4.088   8.836 -0.2460 -0.5785  0.5495
 3061TIP3    H130818   0.140   4.090   8.855 -0.1425 -0.6345  0.0497
 3061TIP3    H230819   0.006   4.058   8.918  0.2786 -1.7996  0.3783
 3062TIP3   OH230820   4.158   4.672   1.889  0.5025  0.0713 -0.2643
 3062TIP3    H130821   4.117   4.610   1.829 -0.3285  0.9428 -0.6241
 3062TIP3    H230822   4.159   4.755   1.842  1.4323  0.3856  0.2773
 3063TIP3   OH230823   5.347   4.181   2.237  0.0769  0.0266  0.6712
 3063TIP3    H130824   5.273   4.169   2.176  1.5864  0.4556 -1.3618
 3063TIP3    H230825   5.328   4.123   2.310 -2.2252  0.0510  0.1722
 3064TIP3   OH230826   3.506   5.232   7.134 -0.3359 -0.2643 -0.2332
 3064TIP3    H130827   3.484   5.249   7.043 -1.0071 -2.1708 -0.4753
 3064TIP3    H230828   3.588   5.182   7.130 -0.1685 -0.0287  0.2255
 3065TIP3   OH230829   5.688   1.882   1.928 -0.0107 -0.2295  0.0621
 3065TIP3    H130830   5.629   1.826   1.979 -0.9743 -0.0518 -0.8345
 3065TIP3    H230831   5.708   1.955   1.986 -1.6541  0.3297 -0.0288
 3066TIP3   OH230832   1.612   2.096   2.425 -0.0032 -0.0834 -0.1921
 3066TIP3    H130833   1.530   2.142   2.410  0.0192  0.2794  0.6978
 3066TIP3    H230834   1.680   2.159   2.401  0.0203  0.1284  0.4064
 3067TIP3   OH230835   3.606   3.843   1.355 -0.0324 -0.3629 -0.1143
 3067TIP3    H130836   3.699   3.851   1.376 -0.2469  0.9097  0.4557
 3067TIP3    H230837   3.603   3.826   1.261  0.7772 -0.6743 -0.0878
 3068TIP3   OH230838   2.689   3.849   1.883  0.5335  0.3155 -0.1407
 3068TIP3    H130839   2.625   3.919   1.873  0.4012  0.4686  1.4953
 3068TIP3    H230840   2.742   3.875   1.958 -2.2485 -3.2199  3.5037
 3069TIP3   OH230841   0.620   6.577   0.542 -0.1021 -0.3083 -0.0618
 3069TIP3    H130842   0.600   6.652   0.598  1.8736  0.2303 -0.0175
 3069TIP3    H230843   0.623   6.502   0.602  1.6272  0.2074  0.5596
 3070TIP3   OH230844   0.310   2.128   3.084 -0.3935 -0.0362 -0.0455
 3070TIP3    H130845   0.365   2.194   3.126  0.1449  0.4962 -1.5085
 3070TIP3    H230846   0.244   2.179   3.036 -1.6532 -0.6468  0.9729
 3071TIP3   OH230847   4.251   4.592   3.120  0.0725  0.4661 -0.4662
 3071TIP3    H130848   4.156   4.580   3.113 -0.0330  0.0706  1.1892
 3071TIP3    H230849   4.273   4.655   3.052 -1.0366 -1.0321 -2.3156
 3072TIP3   OH230850   2.857   2.164   2.214  0.1036 -0.2261 -0.2346
 3072TIP3    H130851   2.792   2.209   2.160  0.8039 -1.7755 -2.5059
 3072TIP3    H230852   2.909   2.235   2.254 -1.2761  0.9788 -0.5225
 3073TIP3   OH230853   1.465   4.998   1.539  0.6854  0.3355  0.4565
 3073TIP3    H130854   1.375   5.029   1.528  0.4429 -0.5410 -0.0863
 3073TIP3    H230855   1.519   5.072   1.510  0.1042  0.2306 -0.9741
 3074TIP3   OH230856   1.492   0.383   2.236  0.9087  0.1817 -0.4400
 3074TIP3    H130857   1.549   0.429   2.174  2.1126 -1.4641 -0.6275
 3074TIP3    H230858   1.509   0.290   2.219 -2.3953 -0.4333 -0.9989
 3075TIP3   OH230859   5.022   1.654   7.887 -0.2052  0.0151  0.3026
 3075TIP3    H130860   5.022   1.561   7.862  0.7015  0.5252 -1.7698
 3075TIP3    H230861   5.110   1.670   7.921 -0.3760  0.1280  0.7067
 3076TIP3   OH230862   1.337   1.990   1.390 -0.0520 -0.1453  0.1374
 3076TIP3    H130863   1.396   1.917   1.370 -1.1685 -0.8854 -0.5490
 3076TIP3    H230864   1.281   1.957   1.460  1.1796  1.0312  1.7574
 3077TIP3   OH230865   1.592   2.506   1.161  0.1405 -0.7486 -0.0122
 3077TIP3    H130866   1.662   2.535   1.102 -0.5686 -0.8057 -0.9005
 3077TIP3    H230867   1.597   2.566   1.236 -1.2793  1.7291 -1.7826
 3078TIP3   OH230868   2.682   4.949   0.706 -0.2387 -0.2423 -0.6397
 3078TIP3    H130869   2.603   4.927   0.755 -0.2814  0.9980 -0.1280
 3078TIP3    H230870   2.665   5.035   0.669  1.3229  0.6044  0.5103
 3079TIP3   OH230871   5.428   2.643   0.779 -0.1708 -0.0296  0.1349
 3079TIP3    H130872   5.480   2.573   0.740 -1.6059 -0.8299 -0.4379
 3079TIP3    H230873   5.424   2.711   0.712  1.5725  0.8214  0.8480
 3080TIP3   OH230874   0.831   6.525   8.856 -0.5370 -0.0914  0.9769
 3080TIP3    H130875   0.843   6.430   8.855  3.0190  0.2377  1.5119
 3080TIP3    H230876   0.844   6.552   8.765  1.0343  0.0704  1.2262
 3081TIP3   OH230877   6.448   5.753   2.855 -0.3403 -0.4538  0.1740
 3081TIP3    H130878   6.447   5.702   2.936 -0.8644  0.1699  0.5637
 3081TIP3    H230879   6.536   5.791   2.851 -0.2061 -0.7482  0.2731
 3082TIP3   OH230880   3.333   0.577   1.570  0.0767 -0.0007 -0.3208
 3082TIP3    H130881   3.311   0.666   1.596 -0.3433 -0.2677  0.2583
 3082TIP3    H230882   3.426   0.581   1.547 -0.2464  0.8748 -1.6000
 3083TIP3   OH230883   2.012   0.742   7.843 -0.8649  0.1140 -0.3515
 3083TIP3    H130884   1.944   0.762   7.779  0.0430  0.0170 -1.3686
 3083TIP3    H230885   2.092   0.734   7.792  0.4137  2.6177  1.0259
 3084TIP3   OH230886   4.372   3.958   0.008  0.3637 -0.2858 -0.1739
 3084TIP3    H130887   4.334   3.928   0.091 -0.5723 -1.6444 -1.0521
 3084TIP3    H230888   4.335   4.046  -0.005  1.0900  0.2409  1.1764
 3085TIP3   OH230889   5.058   2.252   8.459 -0.5201  0.0175  0.0929
 3085TIP3    H130890   5.029   2.298   8.538  0.2323 -0.6202  0.7557
 3085TIP3    H230891   5.030   2.309   8.387 -0.7353  0.8789  0.8375
 3086TIP3   OH230892   3.645   5.892   1.268 -0.1362  0.2996 -0.0650
 3086TIP3    H130893   3.709   5.951   1.228  1.5808 -0.5611  1.2735
 3086TIP3    H230894   3.661   5.808   1.226 -0.6096  0.1541  0.0468
 3087TIP3   OH230895   2.462   6.022   0.213  0.1110  0.1094 -0.1077
 3087TIP3    H130896   2.522   6.087   0.249 -0.3044  0.4886 -0.0946
 3087TIP3    H230897   2.491   6.010   0.122 -0.0609  0.6162 -0.2299
 3088TIP3   OH230898   4.589   4.954   0.074  0.5109 -0.8681 -0.3964
 3088TIP3    H130899   4.635   4.871   0.083 -0.9666 -1.6415  0.4974
 3088TIP3    H230900   4.578   4.986   0.163 -0.7581 -0.7782 -0.5617
 3089TIP3   OH230901   3.332   3.985   1.502 -0.0777  0.1445  0.0579
 3089TIP3    H130902   3.264   4.029   1.450  0.0014 -0.6247 -0.7065
 3089TIP3    H230903   3.412   3.997   1.451  0.0562 -0.3680  0.1470
 3090TIP3   OH230904   5.282   5.781   9.170  0.1125 -0.0977 -0.7059
 3090TIP3    H130905   5.346   5.732   9.221 -0.2009 -0.5346 -0.7305
 3090TIP3    H230906   5.235   5.834   9.235 -0.9172 -1.3454 -0.3986
 3091TIP3   OH230907   0.673   2.167   2.737  0.7485 -0.2984  0.5071
 3091TIP3    H130908   0.734   2.113   2.687  0.6435 -1.5006  1.6076
 3091TIP3    H230909   0.729   2.227   2.786  1.0166 -0.8632  0.9064
 3092TIP3   OH230910   1.912   5.776   8.322 -0.4602 -0.2384 -0.0860
 3092TIP3    H130911   1.863   5.701   8.287  1.0321 -0.3705 -2.0882
 3092TIP3    H230912   1.877   5.789   8.410 -1.7616 -2.3676 -0.2241
 3093TIP3   OH230913   0.585   2.372   2.909 -0.5767  0.1641 -0.1853
 3093TIP3    H130914   0.572   2.281   2.882  1.3489 -0.7032  1.5117
 3093TIP3    H230915   0.602   2.366   3.003  2.1977  1.9592 -0.4875
 3094TIP3   OH230916   5.579   0.151   2.031 -0.6570 -0.2490  0.2362
 3094TIP3    H130917   5.529   0.069   2.028  1.0247 -1.2938 -1.7634
 3094TIP3    H230918   5.540   0.205   1.963 -0.3692 -0.2816  0.0420
 3095TIP3   OH230919   5.386   2.441   2.282 -0.1079 -0.1480 -0.0504
 3095TIP3    H130920   5.361   2.350   2.298  1.7199 -0.5560  0.7455
 3095TIP3    H230921   5.410   2.443   2.190 -0.2674 -0.4464 -0.1014
 3096TIP3   OH230922   4.785   1.390   8.766 -0.6146 -0.0047  0.3314
 3096TIP3    H130923   4.731   1.461   8.734  0.3415  2.2056  3.1842
 3096TIP3    H230924   4.847   1.372   8.695  1.1750  4.3354  0.4948
 3097TIP3   OH230925   6.271   4.748   0.672  0.0086  0.0719 -0.3481
 3097TIP3    H130926   6.181   4.731   0.645  0.4193 -1.2843 -0.9708
 3097TIP3    H230927   6.323   4.685   0.622  1.1212 -0.4156  1.3420
 3098TIP3   OH230928   0.110   4.387   7.343 -0.2806 -0.6766  0.2215
 3098TIP3    H130929   0.159   4.432   7.412 -0.3397 -0.0541 -0.1392
 3098TIP3    H230930   0.030   4.439   7.332  0.6995  0.5255 -1.8184
 3099TIP3   OH230931   3.597   1.347   2.340  0.1710  0.1717  0.5514
 3099TIP3    H130932   3.631   1.321   2.255 -0.3440 -0.1051  0.4267
 3099TIP3    H230933   3.592   1.442   2.337 -0.7824  0.1142 -0.0977
 3100TIP3   OH230934   5.675   5.644   1.779  0.3888 -0.0165  0.1486
 3100TIP3    H130935   5.686   5.709   1.709 -2.8796  0.7051  0.1407
 3100TIP3    H230936   5.638   5.695   1.852  0.0500 -1.4443  0.9986
 3101TIP3   OH230937   3.735   1.364   1.290 -0.1253 -0.1349 -0.6230
 3101TIP3    H130938   3.664   1.334   1.346 -0.8974  0.7954 -1.0695
 3101TIP3    H230939   3.696   1.434   1.238  0.1759 -1.8300 -3.3059
 3102TIP3   OH230940   4.930   0.956   3.271 -0.6814 -0.2843 -0.0747
 3102TIP3    H130941   4.955   0.885   3.330 -0.3108  0.2716  0.4527
 3102TIP3    H230942   4.835   0.963   3.281 -0.5083  0.5323  1.3307
 3103TIP3   OH230943   5.084   5.582   9.061  0.0360 -0.8152  0.0038
 3103TIP3    H130944   5.086   5.610   8.970 -1.6016 -0.7179 -0.0251
 3103TIP3    H230945   5.127   5.653   9.109  1.3526 -1.0967 -0.7227
 3104TIP3   OH230946   6.344   3.441   1.321  0.1617 -0.2419 -0.0356
 3104TIP3    H130947   6.437   3.430   1.342  0.3982  0.7752 -0.4931
 3104TIP3    H230948   6.317   3.355   1.289  1.1820 -0.3065 -0.7725
 3105TIP3   OH230949   6.294   2.804   0.763  0.0774 -0.2102 -0.5512
 3105TIP3    H130950   6.234   2.732   0.784  1.2306 -0.4793  2.3822
 3105TIP3    H230951   6.247   2.883   0.787  0.5181 -0.3682  0.9385
 3106TIP3   OH230952   2.679   5.216   0.611 -0.0911 -0.2729 -0.0567
 3106TIP3    H130953   2.625   5.294   0.624 -0.4994 -0.5226 -0.2325
 3106TIP3    H230954   2.769   5.249   0.613 -0.2733  0.3555 -1.0621
 3107TIP3   OH230955   0.152   6.550   8.873 -0.3708 -0.5827  0.0840
 3107TIP3    H130956   0.179   6.634   8.910 -0.8799 -0.2503 -0.2950
 3107TIP3    H230957   0.184   6.485   8.936 -1.5142 -0.0146  1.3019
 3108TIP3   OH230958   4.757   1.464   0.111  0.3501 -0.4530 -0.3982
 3108TIP3    H130959   4.740   1.448   0.018 -0.6273 -0.9349 -0.1476
 3108TIP3    H230960   4.758   1.377   0.151 -1.8085 -0.1435  0.4497
 3109TIP3   OH230961   3.655   4.875   8.953 -0.0206 -0.6951  0.1864
 3109TIP3    H130962   3.697   4.910   9.031  0.0191  0.2616 -0.2474
 3109TIP3    H230963   3.683   4.783   8.949  1.1600 -0.3624  0.4849
 3110TIP3   OH230964   2.290   6.646   8.938  0.2006 -0.0112 -0.3824
 3110TIP3    H130965   2.302   6.556   8.966  0.2958  0.0003 -0.3869
 3110TIP3    H230966   2.358   6.661   8.872  1.7445  0.7812  1.2942
 3111TIP3   OH230967   4.085   5.822   7.858  0.0701  0.0078 -0.2141
 3111TIP3    H130968   4.155   5.756   7.851  0.6148  0.4690  0.7192
 3111TIP3    H230969   4.049   5.827   7.770 -0.9821 -2.6009 -0.0392
 3112TIP3   OH230970   0.020   1.283   1.394  0.8808  0.4902 -0.1176
 3112TIP3    H130971  -0.072   1.257   1.396  0.8881  0.4910  0.3977
 3112TIP3    H230972   0.037   1.303   1.302 -0.2518  2.7061  0.0980
 3113TIP3   OH230973   2.590   4.577   7.550 -0.2524 -0.0482  0.3094
 3113TIP3    H130974   2.506   4.566   7.595 -0.2842 -1.3429 -0.0411
 3113TIP3    H230975   2.655   4.546   7.613 -0.1200  0.0508  0.2216
 3114TIP3   OH230976   4.315   0.752   1.600 -0.1387  0.4600  0.3353
 3114TIP3    H130977   4.254   0.715   1.665  0.1920  1.7372  1.4113
 3114TIP3    H230978   4.261   0.768   1.523 -0.4509 -1.5223  0.0729
 3115TIP3   OH230979   1.820   3.760   8.307 -0.2034  0.2558 -0.1232
 3115TIP3    H130980   1.793   3.846   8.339 -3.1104 -0.5444 -0.1732
 3115TIP3    H230981   1.795   3.759   8.215  2.1795  0.1999 -0.8519
 3116TIP3   OH230982   0.177   3.905   1.940  0.8288  0.5354  0.3222
 3116TIP3    H130983   0.231   3.881   2.015  0.6401 -0.7127  0.0710
 3116TIP3    H230984   0.183   3.831   1.880  0.0513  1.0194 -0.3889
 3117TIP3   OH230985   3.819   0.304   0.940  0.4196  0.5062 -0.1730
 3117TIP3    H130986   3.772   0.252   0.875  0.7421 -1.4001  1.0615
 3117TIP3    H230987   3.869   0.367   0.888  0.5957 -0.8886 -1.7741
 3118TIP3   OH230988   3.220   3.698   8.230 -0.3334 -0.4804 -0.3613
 3118TIP3    H130989   3.224   3.625   8.169 -0.7936 -0.0143 -0.9705
 3118TIP3    H230990   3.230   3.659   8.316  0.5821 -1.1242 -0.7507
 3119TIP3   OH230991   5.284   0.224   1.491 -0.0535 -0.4405  0.1112
 3119TIP3    H130992   5.211   0.224   1.553 -1.1437 -0.1435 -1.1280
 3119TIP3    H230993   5.274   0.306   1.442  0.5906 -0.8073 -0.6636
 3120TIP3   OH230994   1.247   6.039   7.884  0.1194  0.3044  0.4233
 3120TIP3    H130995   1.300   5.981   7.828 -0.2016  0.5459 -0.1367
 3120TIP3    H230996   1.188   6.083   7.823 -1.4286 -0.6925  1.1466
 3121TIP3   OH230997   5.337   5.856   8.877 -0.3531  0.2890 -0.4752
 3121TIP3    H130998   5.337   5.950   8.861  3.8632  0.8796  1.5364
 3121TIP3    H230999   5.317   5.847   8.970  1.9008 -0.4129  0.0187
 3122TIP3   OH231000   3.891   0.691   8.492 -0.2074 -0.0257 -0.0280
 3122TIP3    H131001   3.852   0.607   8.465  0.3947 -0.5451  0.6867
 3122TIP3    H231002   3.985   0.675   8.491 -0.0572  0.8375 -0.4807
 3123TIP3   OH231003   4.679   5.907   0.443  0.4795 -0.2377  0.0490
 3123TIP3    H131004   4.663   5.939   0.354 -1.8376 -0.5154  0.3065
 3123TIP3    H231005   4.710   5.984   0.491 -0.4255  0.4769 -0.4790
 3124TIP3   OH231006   2.699   3.132   8.945  0.0081 -0.6356  0.1787
 3124TIP3    H131007   2.610   3.156   8.974  0.9984  0.1390  2.9065
 3124TIP3    H231008   2.709   3.041   8.971  0.0109 -0.7215 -0.1252
 3125TIP3   OH231009   1.631   5.734   0.849  0.1273  0.2201 -0.0043
 3125TIP3    H131010   1.672   5.655   0.812 -0.9841 -0.1781 -0.4126
 3125TIP3    H231011   1.705   5.792   0.868  0.9050 -0.5901 -0.4732
 3126TIP3   OH231012   6.681   0.704   9.107 -0.5838  0.1504  0.3614
 3126TIP3    H131013   6.691   0.715   9.012 -2.8935 -1.3119 -0.1154
 3126TIP3    H231014   6.758   0.747   9.144  0.2207  1.0439 -2.1496
 3127TIP3   OH231015   4.615   0.622   0.522  0.1132 -0.2499 -0.1959
 3127TIP3    H131016   4.613   0.707   0.565 -0.2565 -0.1631 -0.3761
 3127TIP3    H231017   4.613   0.642   0.428 -0.1545 -0.4558 -0.2384
 3128TIP3   OH231018   6.359   5.585   8.052 -0.2458 -0.4369  0.2905
 3128TIP3    H131019   6.278   5.540   8.031  0.9372 -2.2793 -0.5632
 3128TIP3    H231020   6.406   5.592   7.969  0.2646  1.0822  0.6677
 3129TIP3   OH231021   4.189   3.001   2.054  0.8481  0.3716 -0.1272
 3129TIP3    H131022   4.136   3.075   2.086  0.4313  0.3249 -0.6986
 3129TIP3    H231023   4.143   2.924   2.087  0.6094  0.3340 -0.5453
 3130TIP3   OH231024   3.885   4.767   0.244  0.0885 -0.0454 -0.4783
 3130TIP3    H131025   3.848   4.836   0.299  0.4719 -0.5251  0.4102
 3130TIP3    H231026   3.871   4.687   0.295 -0.0047 -0.5697 -1.3196
 3131TIP3   OH231027   5.906   2.119   2.685  0.8203 -0.3955 -0.2132
 3131TIP3    H131028   5.898   2.090   2.776  1.9015 -0.4677 -0.1282
 3131TIP3    H231029   5.895   2.040   2.633  1.6672 -0.6253 -0.0671
 3132TIP3   OH231030   1.375   1.550   1.736  0.5082 -0.3264 -0.1861
 3132TIP3    H131031   1.349   1.516   1.650  0.2622 -1.5630  0.3613
 3132TIP3    H231032   1.297   1.595   1.768  0.3939 -0.4162 -0.3349
 3133TIP3   OH231033   1.964   1.628   0.110  0.0749 -0.5438  0.1736
 3133TIP3    H131034   1.877   1.590   0.106  0.1158 -0.7624  1.0578
 3133TIP3    H231035   2.023   1.552   0.113  0.2598 -0.4027  0.1043
 3134TIP3   OH231036   5.606   4.011   2.374  0.6862 -0.0833  0.2598
 3134TIP3    H131037   5.642   3.941   2.429 -0.8566 -1.4616 -0.4152
 3134TIP3    H231038   5.525   4.037   2.418  1.0299  1.0067  0.2768
 3135TIP3   OH231039   0.192   4.175   8.203 -0.3789  0.5872 -0.4258
 3135TIP3    H131040   0.269   4.127   8.172 -0.7378  0.4518 -1.1327
 3135TIP3    H231041   0.179   4.144   8.293  1.0542  1.4498  0.1191
 3136TIP3   OH231042   6.214   5.754   2.341 -0.1476  0.0398  0.2843
 3136TIP3    H131043   6.135   5.702   2.357  0.9478 -1.2980  1.5784
 3136TIP3    H231044   6.265   5.747   2.422  0.3443  2.6765  0.2918
 3137TIP3   OH231045   3.563   0.755   1.854 -0.6968  0.1855 -0.4522
 3137TIP3    H131046   3.620   0.716   1.920 -2.3459 -1.0273  0.3392
 3137TIP3    H231047   3.501   0.808   1.904 -1.3393  0.0691 -1.1124
 3138TIP3   OH231048   6.390   0.720   8.857  0.2520 -0.2400 -0.1521
 3138TIP3    H131049   6.424   0.665   8.927 -0.7173 -0.5292  0.1019
 3138TIP3    H231050   6.457   0.717   8.789  0.9410 -0.4198  0.5223
 3139TIP3   OH231051   5.206   1.661   8.966 -0.4067 -0.2814 -0.1279
 3139TIP3    H131052   5.211   1.754   8.988  2.2708 -0.4416  0.2793
 3139TIP3    H231053   5.203   1.616   9.051 -1.0492 -0.6053 -0.3127
 3140TIP3   OH231054   4.746   2.408   8.304  0.0214 -0.4472  0.1977
 3140TIP3    H131055   4.740   2.464   8.382  0.9861 -0.0859  0.0195
 3140TIP3    H231056   4.840   2.401   8.286 -0.2102  0.0339 -1.3382
 3141TIP3   OH231057   2.016   5.766   8.066 -0.6428 -0.8237 -0.2854
 3141TIP3    H131058   2.010   5.676   8.035 -0.6603 -0.9073 -0.0396
 3141TIP3    H231059   1.982   5.763   8.155 -1.3775 -0.4308 -0.5457
 3142TIP3   OH231060   4.798   4.243   0.966  0.7152  0.0501 -0.1313
 3142TIP3    H131061   4.792   4.204   1.053 -1.5700  1.2185  0.3185
 3142TIP3    H231062   4.872   4.304   0.972 -0.9701  2.0652  1.8989
 3143TIP3   OH231063   3.515   0.013   8.001  0.4890 -0.0633 -0.7834
 3143TIP3    H131064   3.517   0.052   7.914  1.1493 -0.8424 -1.1361
 3143TIP3    H231065   3.422   0.007   8.022  0.1734 -1.8864 -2.3974
 3144TIP3   OH231066   4.231   1.095   1.168 -0.1698  0.0492  0.1002
 3144TIP3    H131067   4.145   1.071   1.201  0.4288 -0.5698  1.2948
 3144TIP3    H231068   4.214   1.158   1.098 -1.5228  2.0008  2.0573
 3145TIP3   OH231069   4.580   0.988   1.666 -0.7268  0.2912 -0.0036
 3145TIP3    H131070   4.664   0.970   1.709 -0.1845  0.8792 -0.8002
 3145TIP3    H231071   4.530   0.908   1.678 -0.1260  0.0020  0.6528
 3146TIP3   OH231072   4.793   5.671   2.059  0.5338 -0.1633  0.2997
 3146TIP3    H131073   4.827   5.760   2.073  0.2605 -0.0737  0.4178
 3146TIP3    H231074   4.815   5.624   2.139  2.2868 -0.7310 -0.4721
 3147TIP3   OH231075   2.877   5.447   0.655 -0.1766  0.2081 -0.2374
 3147TIP3    H131076   2.910   5.449   0.565  1.7538 -1.5161  0.3518
 3147TIP3    H231077   2.956   5.455   0.709 -1.0402 -0.9848  1.2781
 3148TIP3   OH231078   5.886   2.855   0.291  0.3500  0.6678 -0.1720
 3148TIP3    H131079   5.840   2.935   0.317 -1.0567 -0.4778  0.9968
 3148TIP3    H231080   5.838   2.784   0.333 -0.4074 -1.1345 -3.6858
 3149TIP3   OH231081   4.007   5.787   1.315 -0.1285  0.7550  0.3755
 3149TIP3    H131082   3.973   5.774   1.226 -0.7362  0.4952  0.6398
 3149TIP3    H231083   4.013   5.882   1.324  2.0486  0.7958 -0.7110
 3150TIP3   OH231084   5.807   0.456   1.773 -0.2743 -0.6947 -0.2146
 3150TIP3    H131085   5.756   0.524   1.816  1.8924  0.5744  0.5080
 3150TIP3    H231086   5.815   0.386   1.838 -0.1687 -0.4195  0.0705
 3151TIP3   OH231087   2.562   1.128   8.687 -0.3608  0.7187  0.2689
 3151TIP3    H131088   2.571   1.167   8.600  0.2225  1.2325  0.5495
 3151TIP3    H231089   2.589   1.197   8.747 -0.7573  0.3651  0.8597
 3152TIP3   OH231090   6.182   3.616   1.061 -0.0173 -0.0994  0.1068
 3152TIP3    H131091   6.165   3.536   1.110 -0.0288  0.7673  1.5951
 3152TIP3    H231092   6.217   3.586   0.977 -0.9721 -1.6714  0.2336
 3153TIP3   OH231093   0.282   6.423   0.254  0.2635 -0.2667  0.1205
 3153TIP3    H131094   0.329   6.348   0.219 -1.2610  0.0857 -2.9616
 3153TIP3    H231095   0.351   6.482   0.286  1.5220 -2.3500  1.4433
 3154TIP3   OH231096   2.629   5.652   8.287  0.1181 -0.6013  0.1883
 3154TIP3    H131097   2.625   5.743   8.316 -1.9628 -1.1582  1.8950
 3154TIP3    H231098   2.714   5.621   8.319  0.8980  0.7113 -0.4968
 3155TIP3   OH231099   0.848   0.826   8.746  0.4100 -0.4073 -0.2269
 3155TIP3    H131100   0.791   0.818   8.670  0.8913  0.0816 -0.6541
 3155TIP3    H231101   0.838   0.743   8.793 -0.4142 -0.4441 -0.4478
 3156TIP3   OH231102   5.427   0.690   8.957 -0.9455  0.7483 -0.7280
 3156TIP3    H131103   5.455   0.653   9.041 -0.3723  1.8300 -0.4159
 3156TIP3    H231104   5.499   0.748   8.932 -0.2699 -0.9165 -2.8941
 3157TIP3   OH231105   6.436   4.951   0.822  0.2455  0.1248 -0.3755
 3157TIP3    H131106   6.386   4.891   0.767  1.2605  1.7667 -3.3111
 3157TIP3    H231107   6.520   4.907   0.835  0.6697  0.4846 -1.7738
 3158TIP3   OH231108   1.293   3.569   1.810 -0.0216  0.8131  0.1490
 3158TIP3    H131109   1.299   3.645   1.752  0.2418  0.5680 -0.1466
 3158TIP3    H231110   1.272   3.606   1.896 -0.2418  1.1912 -0.0646
 3159TIP3   OH231111   3.415   3.381   1.815 -0.4710 -0.6125  0.2017
 3159TIP3    H131112   3.357   3.328   1.760  0.3430 -0.2017 -1.0906
 3159TIP3    H231113   3.458   3.317   1.872 -1.0820 -1.0869  0.1408
 3160TIP3   OH231114   4.178   4.247   2.793  0.4412 -0.3501  0.1509
 3160TIP3    H131115   4.106   4.257   2.855 -0.1081 -3.1333  0.0878
 3160TIP3    H231116   4.256   4.245   2.847  0.4311  1.5097  0.3146
 3161TIP3   OH231117   6.470   2.084   9.045  0.0838 -0.1129 -0.4502
 3161TIP3    H131118   6.494   2.172   9.072  1.0739 -0.2318 -0.8935
 3161TIP3    H231119   6.455   2.091   8.951 -3.0010  0.2289 -0.0554
 3162TIP3   OH231120   4.545   2.474   0.629 -0.3738 -0.6471  0.3682
 3162TIP3    H131121   4.581   2.453   0.715  2.4196  0.6286 -0.3863
 3162TIP3    H231122   4.451   2.485   0.645 -0.1068 -1.4179  3.0288
 3163TIP3   OH231123   4.961   1.741   0.904  0.0803 -0.2078  0.0862
 3163TIP3    H131124   5.049   1.713   0.930 -0.1701  0.4148  1.7486
 3163TIP3    H231125   4.916   1.759   0.987 -0.1353  3.9398 -0.7317
 3164TIP3   OH231126   4.911   2.840   2.667  0.5781 -0.0498 -0.1794
 3164TIP3    H131127   4.955   2.881   2.741  0.2955 -0.3326  0.1496
 3164TIP3    H231128   4.818   2.838   2.691  0.5449 -0.5789 -0.3269
 3165TIP3   OH231129   0.505   3.726   7.237 -0.1902  0.1075 -0.1222
 3165TIP3    H131130   0.435   3.752   7.297  0.3189  3.6110 -0.8232
 3165TIP3    H231131   0.470   3.747   7.150  1.6189  1.8334 -0.4866
 3166TIP3   OH231132   6.451   1.107   2.234  0.2816  0.1099 -0.0688
 3166TIP3    H131133   6.421   1.054   2.308 -1.6871  2.0578  0.6250
 3166TIP3    H231134   6.371   1.137   2.190  1.2858  2.0027 -0.7595
 3167TIP3   OH231135   4.540   0.742   1.344  0.5974  0.1349  0.2222
 3167TIP3    H131136   4.546   0.812   1.279 -1.3244 -1.6083 -2.0261
 3167TIP3    H231137   4.446   0.721   1.349  0.9136 -1.1057  2.1274
 3168TIP3   OH231138   3.234   0.537   2.064  0.3784 -0.3264 -0.1888
 3168TIP3    H131139   3.191   0.528   1.979  1.5201 -0.0214 -0.8338
 3168TIP3    H231140   3.273   0.451   2.081  1.4399  0.0220 -0.7365
 3169TIP3   OH231141   0.927   3.524   7.284  0.3287 -0.4188 -0.5430
 3169TIP3    H131142   1.018   3.532   7.257  0.1581 -0.9520 -1.3332
 3169TIP3    H231143   0.915   3.430   7.299  0.6508 -0.0665  2.3605
 3170TIP3   OH231144   4.494   5.302   0.472 -0.3721  0.2807 -0.3342
 3170TIP3    H131145   4.464   5.375   0.525 -1.2005 -0.2563 -0.0365
 3170TIP3    H231146   4.457   5.224   0.515  2.3097 -0.5498  0.6868
 3171TIP3   OH231147   3.133   2.588   0.283  0.2534 -0.0056 -0.5248
 3171TIP3    H131148   3.139   2.614   0.374 -1.8272  0.9988 -0.6220
 3171TIP3    H231149   3.200   2.520   0.273  2.1547  1.5154  1.1103
 3172TIP3   OH231150   6.046   4.043   1.948  0.2311  0.1625  0.3684
 3172TIP3    H131151   6.090   4.083   2.024 -0.1103 -0.2758  0.8008
 3172TIP3    H231152   5.992   4.113   1.912  0.0738  0.2535  0.7804
 3173TIP3   OH231153   5.958   0.354   1.125 -0.1205 -0.3838 -0.2149
 3173TIP3    H131154   6.008   0.316   1.053  1.0951 -0.2713  0.5355
 3173TIP3    H231155   5.867   0.339   1.101  0.2064  0.4273 -2.1866
 3174TIP3   OH231156   5.181   4.068   1.712  0.3090  1.0162 -0.0836
 3174TIP3    H131157   5.163   4.080   1.619 -0.6128  1.2251  0.1062
 3174TIP3    H231158   5.276   4.058   1.717  0.3340  0.6244 -1.0798
 3175TIP3   OH231159   4.300   2.731   9.153 -0.8168 -0.1921 -0.4081
 3175TIP3    H131160   4.205   2.719   9.145 -0.9290  1.2759 -1.8161
 3175TIP3    H231161   4.314   2.824   9.136  0.8622 -0.3453 -0.0061
 3176TIP3   OH231162   1.383   2.588   2.201  0.1938 -0.1876 -0.6409
 3176TIP3    H131163   1.354   2.634   2.122  2.6717  1.1617 -0.8528
 3176TIP3    H231164   1.303   2.572   2.251 -1.1265  1.2874 -2.1984
 3177TIP3   OH231165   1.073   2.470   8.398 -0.7075 -0.2397 -0.0997
 3177TIP3    H131166   1.045   2.552   8.440  1.2295  0.5232 -0.1685
 3177TIP3    H231167   1.100   2.496   8.310 -2.3836 -1.4129 -1.0088
 3178TIP3   OH231168   0.563   5.815   8.679  0.3485  0.2461 -0.1307
 3178TIP3    H131169   0.655   5.820   8.703  0.5667 -2.0951 -0.2755
 3178TIP3    H231170   0.528   5.744   8.732 -1.1127  0.3790 -0.8776
 3179TIP3   OH231171   1.588   4.499   7.210 -0.2486 -0.3254  0.4979
 3179TIP3    H131172   1.616   4.450   7.133 -1.1873  1.0650 -0.7946
 3179TIP3    H231173   1.670   4.525   7.253  0.3486 -0.0929 -0.7359
 3180TIP3   OH231174   1.957   4.768   1.134  0.2387 -0.2889 -0.6033
 3180TIP3    H131175   1.991   4.800   1.050  1.3057 -1.4688 -0.6520
 3180TIP3    H231176   1.997   4.682   1.145  0.2401 -0.0994  1.1901
 3181TIP3   OH231177   0.320   5.304   2.056  0.7107  0.4897 -0.2159
 3181TIP3    H131178   0.382   5.234   2.076  1.1999  1.0480  0.2560
 3181TIP3    H231179   0.309   5.351   2.138 -3.5555 -2.0148  0.9385
 3182TIP3   OH231180   4.730   6.399   0.286  0.2158  0.0965  0.2418
 3182TIP3    H131181   4.642   6.436   0.293 -1.1118 -2.8952  1.0318
 3182TIP3    H231182   4.777   6.433   0.362 -1.8256 -1.8501  2.5479
 3183TIP3   OH231183   0.626   5.232   1.985  0.1818  0.0663 -0.2324
 3183TIP3    H131184   0.648   5.244   1.892  1.6640 -0.7901 -0.0189
 3183TIP3    H231185   0.692   5.283   2.032 -0.4464  0.3396  0.3591
 3184TIP3   OH231186   5.237   1.540   0.007 -0.2697  0.0833 -0.4804
 3184TIP3    H131187   5.305   1.484   0.046 -1.3727 -0.0513  1.3680
 3184TIP3    H231188   5.155   1.509   0.046 -1.4055  0.3730 -2.5077
 3185TIP3   OH231189   1.521   3.956   0.407 -0.6684  0.0790 -0.0180
 3185TIP3    H131190   1.552   3.876   0.450  1.4728  1.0803  0.4504
 3185TIP3    H231191   1.598   4.012   0.403 -1.6788  1.4561 -1.9371
 3186TIP3   OH231192   2.812   4.293   1.950 -0.0326 -0.0791 -0.0102
 3186TIP3    H131193   2.760   4.333   2.020  2.6990  2.0468  1.0011
 3186TIP3    H231194   2.893   4.267   1.992  1.0746 -0.2171 -2.0813
 3187TIP3   OH231195   3.768   4.296   0.005 -0.4820  0.1455 -0.2900
 3187TIP3    H131196   3.721   4.220   0.038 -1.5982  1.2566  0.7666
 3187TIP3    H231197   3.700   4.361  -0.015  0.3770  0.5973 -1.9876
 3188TIP3   OH231198   0.670   4.974   8.262 -0.4867 -0.1174  0.5623
 3188TIP3    H131199   0.634   4.886   8.270 -0.8699  0.0668  0.9827
 3188TIP3    H231200   0.683   5.002   8.353 -2.0930  0.9319  0.5131
 3189TIP3   OH231201   2.928   4.267   7.510  0.5208  0.2033  0.0475
 3189TIP3    H131202   3.004   4.211   7.496  0.5962 -0.2419  1.9572
 3189TIP3    H231203   2.949   4.348   7.464  0.8627 -0.8975 -1.8738
 3190TIP3   OH231204   4.420   1.595   9.181 -0.0555 -0.2519  0.1795
 3190TIP3    H131205   4.448   1.631   9.265  1.0433 -0.1353 -0.2165
 3190TIP3    H231206   4.358   1.526   9.203 -0.9569  0.7925  1.0199
 3191TIP3   OH231207   0.563   5.265   1.084  0.5021  0.2141 -0.0930
 3191TIP3    H131208   0.524   5.214   1.013  1.6399  0.6913 -1.1163
 3191TIP3    H231209   0.611   5.201   1.136 -0.6325 -0.1934  0.4721
 3192TIP3   OH231210   4.080   4.640   1.589 -0.1196 -0.8249 -0.2983
 3192TIP3    H131211   4.061   4.550   1.614 -1.4928 -0.4353  0.1311
 3192TIP3    H231212   3.998   4.672   1.551  0.1288  0.4649  0.2178
 3193TIP3   OH231213   3.922   1.407   1.825  0.1559  0.3797 -0.2932
 3193TIP3    H131214   3.989   1.472   1.850  0.0333  0.1944  0.5572
 3193TIP3    H231215   3.970   1.325   1.818  0.2459  0.4902 -1.0019
 3194TIP3   OH231216   1.108   0.211   1.484 -0.3907 -0.2450 -0.2380
 3194TIP3    H131217   1.193   0.227   1.524 -0.6172 -1.5101  0.8336
 3194TIP3    H231218   1.128   0.159   1.406 -0.1017  0.5757 -0.7277
 3195TIP3   OH231219   0.400   2.832   9.060  0.8487 -0.0397  0.7679
 3195TIP3    H131220   0.486   2.793   9.044  0.6253 -0.4027  0.4579
 3195TIP3    H231221   0.370   2.861   8.974 -0.0562 -1.3915  0.6108
 3196TIP3   OH231222   3.631   1.070   0.154  0.0284  0.3800 -0.0755
 3196TIP3    H131223   3.717   1.069   0.111  0.7826 -0.8798  1.3471
 3196TIP3    H231224   3.646   1.119   0.235 -0.4599 -0.2695  0.4133
 3197TIP3   OH231225   1.069   5.686   2.885  0.7800 -0.0283 -0.2882
 3197TIP3    H131226   1.094   5.660   2.974 -0.2380  0.9177  0.2994
 3197TIP3    H231227   1.082   5.781   2.883  3.0391 -0.2914 -1.9216
 3198TIP3   OH231228   5.626   5.121   2.337  0.3576  0.8104 -0.1529
 3198TIP3    H131229   5.581   5.185   2.393 -0.7625 -0.8534  0.9488
 3198TIP3    H231230   5.718   5.133   2.357  0.2226  2.4609 -0.4090
 3199TIP3   OH231231   4.027   4.611   2.127  0.0903 -0.4656  0.7895
 3199TIP3    H131232   4.092   4.607   2.197 -0.9537  1.4437  1.9361
 3199TIP3    H231233   4.068   4.666   2.060 -0.4985  1.2404  1.7685
 3200TIP3   OH231234   4.088   3.240   2.197 -0.3126  0.1453  0.5744
 3200TIP3    H131235   4.106   3.306   2.131  1.1457  0.9547  1.7318
 3200TIP3    H231236   4.092   3.287   2.280  2.4926 -1.6264  1.5755
 3201TIP3   OH231237   3.792   1.268   7.415  0.5308  0.2619  0.5967
 3201TIP3    H131238   3.763   1.199   7.355 -0.6051  0.7202  0.5865
 3201TIP3    H231239   3.717   1.328   7.419  0.8286  0.5602  1.9984
 3202TIP3   OH231240   4.790   5.115   0.885 -0.3140  0.4016  0.3765
 3202TIP3    H131241   4.795   5.162   0.969  1.9633  0.9485  0.0025
 3202TIP3    H231242   4.784   5.023   0.910 -1.8099  0.6625  1.1140
 3203TIP3   OH231243   1.751   3.992   8.423  0.3096 -0.7782  0.3673
 3203TIP3    H131244   1.694   4.032   8.357  1.6538  0.9578  0.1763
 3203TIP3    H231245   1.719   4.028   8.506 -0.9782 -2.4757  0.6807
 3204TIP3   OH231246   2.542   0.469   0.950 -0.1955  0.0530  0.6082
 3204TIP3    H131247   2.454   0.434   0.958 -1.1238  1.9170 -0.7663
 3204TIP3    H231248   2.531   0.564   0.953  1.7399  0.3476  0.1899
 3205TIP3   OH231249   2.356   2.184   8.296 -0.1916  0.0527 -0.2069
 3205TIP3    H131250   2.270   2.221   8.277 -0.4234 -1.1352 -1.6924
 3205TIP3    H231251   2.418   2.248   8.262 -0.4653  0.9815  1.0015
 3206TIP3   OH231252   5.251   3.001   2.200  0.4661 -0.0745  0.6859
 3206TIP3    H131253   5.202   3.063   2.146  1.2246 -0.3309 -0.3281
 3206TIP3    H231254   5.296   3.056   2.264  0.7522  0.3834  0.0987
 3207TIP3   OH231255   2.676   4.898   1.419 -0.0816 -0.0846  0.4162
 3207TIP3    H131256   2.698   4.814   1.380 -0.0767  0.4419 -0.7611
 3207TIP3    H231257   2.601   4.880   1.475  0.8118 -1.1310  1.3204
 3208TIP3   OH231258   0.599   2.556   2.193  0.0728  0.9458  0.0958
 3208TIP3    H131259   0.551   2.555   2.276 -0.1468 -0.3398 -0.0260
 3208TIP3    H231260   0.616   2.649   2.176  1.9239  1.1910  2.6216
 3209TIP3   OH231261   2.735   4.541   7.987  0.0622  0.1780 -0.0696
 3209TIP3    H131262   2.746   4.516   7.896  1.5851  0.4043  0.0279
 3209TIP3    H231263   2.641   4.531   8.004  0.0974 -2.2379 -0.9623
 3210TIP3   OH231264   5.144   4.736   8.039 -0.0989  0.2669  0.1971
 3210TIP3    H131265   5.117   4.706   7.952 -1.5349  1.1573  0.3075
 3210TIP3    H231266   5.071   4.712   8.096 -0.0268  1.4305  0.7948
 3211TIP3   OH231267   6.327   2.431   1.404 -0.4807  0.3465 -0.1804
 3211TIP3    H131268   6.316   2.380   1.324 -0.6620 -2.0069  1.2267
 3211TIP3    H231269   6.415   2.407   1.435 -1.0463 -0.0747  1.1429
 3212TIP3   OH231270   5.929   6.229   0.777 -0.0991  0.0923 -0.7843
 3212TIP3    H131271   5.963   6.145   0.807 -1.3664 -0.0965  0.2031
 3212TIP3    H231272   6.007   6.283   0.763  0.6645  0.0928  2.5642
 3213TIP3   OH231273   2.155   2.435   1.092 -0.2556  0.1972 -0.0601
 3213TIP3    H131274   2.223   2.503   1.086 -1.3856  1.3843  0.1502
 3213TIP3    H231275   2.169   2.396   1.179 -1.0514  1.8026  0.8367
 3214TIP3   OH231276   6.097   5.465   7.956 -0.6867  0.1610  0.1383
 3214TIP3    H131277   6.110   5.377   7.993 -0.0025 -0.3018 -1.1429
 3214TIP3    H231278   6.022   5.500   8.003 -0.1201 -0.5614  1.6551
 3215TIP3   OH231279   2.231   6.264   7.960  0.4678  0.3751 -0.1816
 3215TIP3    H131280   2.166   6.193   7.952  0.1102  0.5326  1.0542
 3215TIP3    H231281   2.180   6.344   7.956  0.7761  0.5462 -0.7462
 3216TIP3   OH231282   1.896   5.748   9.006 -0.2616  0.0005  0.1258
 3216TIP3    H131283   1.821   5.713   9.055 -0.0573 -0.9108 -0.1953
 3216TIP3    H231284   1.859   5.812   8.946 -0.9045 -1.0413 -0.6122
 3217TIP3   OH231285   4.216   0.154   0.573  0.3521 -0.0777  0.3965
 3217TIP3    H131286   4.222   0.228   0.633  1.1660 -0.1104  0.3608
 3217TIP3    H231287   4.234   0.191   0.487  1.4032 -0.4128  0.4548
 3218TIP3   OH231288   2.451   3.882   9.116  0.2487  0.1137 -0.2813
 3218TIP3    H131289   2.417   3.970   9.102 -0.4498 -0.0624  0.2554
 3218TIP3    H231290   2.470   3.879   9.210 -0.7043 -0.6445 -0.1044
 3219TIP3   OH231291   4.663   6.483   0.008  0.0036 -0.0703  0.4424
 3219TIP3    H131292   4.702   6.462   0.093  0.2841 -0.6815  0.1635
 3219TIP3    H231293   4.731   6.530  -0.039 -0.1789  0.3372  0.5751
 3220TIP3   OH231294   0.065   1.675   2.363  0.0444 -0.1704 -0.3742
 3220TIP3    H131295   0.087   1.757   2.407  1.9887 -1.8238  1.9604
 3220TIP3    H231296   0.116   1.677   2.281  0.4641  0.7179 -0.1023
 3221TIP3   OH231297   2.689   5.417   8.062  0.3063 -0.2482 -0.3734
 3221TIP3    H131298   2.677   5.498   8.013  1.2702  0.4762  0.5424
 3221TIP3    H231299   2.600   5.388   8.082 -0.0575  0.3926 -0.9920
 3222TIP3   OH231300   0.733   5.823   1.483 -0.2638  0.3571  0.2550
 3222TIP3    H131301   0.757   5.886   1.552 -0.4315  1.4031 -0.6149
 3222TIP3    H231302   0.775   5.857   1.404  1.7996 -2.0046  0.1941
 3223TIP3   OH231303   1.533   6.104   8.854  0.7455 -0.3809  0.2896
 3223TIP3    H131304   1.493   6.190   8.870  1.1478  0.0272 -0.8197
 3223TIP3    H231305   1.556   6.073   8.942 -4.3771 -1.9185  1.4557
 3224TIP3   OH231306   5.913   6.692   1.248 -0.4243 -0.1764 -0.5188
 3224TIP3    H131307   5.818   6.680   1.237 -0.7951  1.0654  1.0698
 3224TIP3    H231308   5.922   6.744   1.328  1.5936  0.0832 -0.8654
 3225TIP3   OH231309   3.822   3.500   7.983  0.2164  0.4758 -0.3459
 3225TIP3    H131310   3.856   3.584   7.954 -1.1173  0.4181 -2.2912
 3225TIP3    H231311   3.757   3.476   7.917 -0.9799 -1.0823  1.2830
 3226TIP3   OH231312   4.432   1.413   0.298  0.0195  0.3624 -0.0465
 3226TIP3    H131313   4.425   1.325   0.336  1.0540 -0.1822 -1.0338
 3226TIP3    H231314   4.504   1.454   0.345 -0.2521  0.5559  0.1963
 3227TIP3   OH231315   4.303   5.996   2.361 -0.4057  0.5003  0.1296
 3227TIP3    H131316   4.308   5.916   2.309 -1.9636 -0.3348  1.1755
 3227TIP3    H231317   4.297   6.067   2.297  0.3385 -0.2629 -0.8090
 3228TIP3   OH231318   6.681   6.097   8.834  0.1746 -0.0353 -0.0486
 3228TIP3    H131319   6.715   6.101   8.923 -0.1389 -0.5521  0.0970
 3228TIP3    H231320   6.758   6.110   8.778  0.8121 -2.1373  0.2629
 3229TIP3   OH231321   6.095   0.365   1.823 -0.1718 -0.0877  0.1460
 3229TIP3    H131322   6.063   0.439   1.875 -0.7181  0.4950 -0.9842
 3229TIP3    H231323   6.016   0.328   1.783  0.4913  1.4721 -2.8205
 3230TIP3   OH231324   2.270   3.763   1.240 -0.5014 -0.2457 -0.2407
 3230TIP3    H131325   2.244   3.854   1.225 -1.3173 -0.1892  1.3321
 3230TIP3    H231326   2.272   3.754   1.335 -0.0384 -1.7771 -0.3700
 3231TIP3   OH231327   0.937   4.982   1.510  0.4165 -0.1164 -0.1541
 3231TIP3    H131328   1.008   5.046   1.502  0.1826  0.1772  0.1259
 3231TIP3    H231329   0.896   4.981   1.423  1.5591 -1.2273 -0.7106
 3232TIP3   OH231330   1.082   0.258   3.337  0.0734  0.4493 -0.4676
 3232TIP3    H131331   1.072   0.166   3.314  1.6167 -0.2269  1.3038
 3232TIP3    H231332   0.992   0.290   3.347 -0.5105 -0.5686 -2.0536
 3233TIP3   OH231333   3.300   3.875   1.117  0.3091 -0.2846  0.8954
 3233TIP3    H131334   3.273   3.785   1.100 -0.9791 -0.2933  2.7788
 3233TIP3    H231335   3.248   3.927   1.056  0.7850 -0.7527  0.0579
 3234TIP3   OH231336   5.818   4.010   9.097  0.0714 -0.4948  0.4392
 3234TIP3    H131337   5.867   4.067   9.038  2.7712 -1.7199  1.3284
 3234TIP3    H231338   5.838   3.921   9.066 -0.5366 -1.0906  1.6778
 3235TIP3   OH231339   0.146   3.114   1.728  0.4340  0.0021  0.6996
 3235TIP3    H131340   0.237   3.138   1.748  0.2080  0.4465  1.2225
 3235TIP3    H231341   0.102   3.197   1.710 -0.0852 -0.1120  1.3848
 3236TIP3   OH231342   2.720   0.161   0.309 -0.4011  0.3617 -0.1243
 3236TIP3    H131343   2.706   0.255   0.321 -0.1980  0.2230  1.5103
 3236TIP3    H231344   2.761   0.133   0.391  0.0584 -1.0515 -0.8150
 3237TIP3   OH231345   3.377   2.282   8.494  0.2520 -0.8510  0.2947
 3237TIP3    H131346   3.443   2.348   8.474  0.2023 -1.3755 -1.9054
 3237TIP3    H231347   3.371   2.282   8.590  0.3112  2.2418  0.4151
 3238TIP3   OH231348   3.578   3.290   2.218  0.5623  0.1130  1.1393
 3238TIP3    H131349   3.577   3.195   2.207 -0.5214  0.2076  0.2189
 3238TIP3    H231350   3.511   3.308   2.283 -0.8665  0.3979 -0.3636
 3239TIP3   OH231351   4.524   5.286   8.921 -0.0814  0.5382  0.0719
 3239TIP3    H131352   4.565   5.242   8.995 -0.0881 -0.7200 -0.6392
 3239TIP3    H231353   4.505   5.375   8.952 -0.7009 -0.1608  1.7846
 3240TIP3   OH231354   1.430   1.569   9.023  0.0101  1.3945 -0.1064
 3240TIP3    H131355   1.391   1.653   9.047 -1.0338  0.6184  1.0137
 3240TIP3    H231356   1.378   1.504   9.070  0.0189  0.0212 -1.8977
 3241TIP3   OH231357   4.133   5.588   1.454 -0.0261 -0.8878 -0.8584
 3241TIP3    H131358   4.070   5.524   1.486  0.0530 -0.7056 -0.3241
 3241TIP3    H231359   4.082   5.649   1.401 -0.3619 -0.5720 -0.1900
 3242TIP3   OH231360   1.754   1.585   0.391  0.5329 -0.0723  0.1026
 3242TIP3    H131361   1.782   1.646   0.460  1.8204  0.3532 -0.7694
 3242TIP3    H231362   1.688   1.634   0.341 -2.1218 -1.1399  2.2669
 3243TIP3   OH231363   5.023   2.280   1.169  0.6293  0.4297  0.4702
 3243TIP3    H131364   5.017   2.237   1.254 -0.0609  0.2298  0.3210
 3243TIP3    H231365   5.017   2.373   1.189  0.7446  0.3972  0.6609
 3244TIP3   OH231366   5.976   4.183   7.513 -0.4879  0.4646 -0.1719
 3244TIP3    H131367   5.914   4.211   7.580  2.0285  1.9349  1.7486
 3244TIP3    H231368   5.968   4.247   7.443 -1.3644  0.4017 -0.1372
 3245TIP3   OH231369   3.634   1.396   1.838 -0.0524  0.3515  0.4593
 3245TIP3    H131370   3.728   1.414   1.844  0.2262 -0.7564 -0.3198
 3245TIP3    H231371   3.600   1.420   1.924  1.2629 -0.9516  1.4029
 3246TIP3   OH231372   1.155   5.589   1.441  0.7985 -0.9601 -0.1639
 3246TIP3    H131373   1.098   5.524   1.482  0.4984 -1.0458 -0.7027
 3246TIP3    H231374   1.142   5.576   1.347  0.1615  0.3771 -0.2810
 3247TIP3   OH231375   0.861   0.707   2.900 -0.4076  0.4239  0.3349
 3247TIP3    H131376   0.930   0.697   2.966 -1.1655  0.4479  1.1569
 3247TIP3    H231377   0.794   0.760   2.944 -0.1386  2.0106 -1.0767
 3248TIP3   OH231378   2.855   3.502   2.262 -0.1142 -0.2356 -0.3759
 3248TIP3    H131379   2.912   3.499   2.185 -1.2676 -0.8752 -1.2380
 3248TIP3    H231380   2.904   3.554   2.326  1.3564 -0.6293 -1.1325
 3249TIP3   OH231381   0.211   5.496   1.889 -0.1248 -0.2311 -0.3736
 3249TIP3    H131382   0.244   5.581   1.860 -1.9217  1.0636  1.0676
 3249TIP3    H231383   0.281   5.459   1.942  0.1636  1.0481  0.1633
 3250TIP3   OH231384   4.822   2.826   2.204 -0.2170 -0.2181  0.0602
 3250TIP3    H131385   4.893   2.865   2.254  0.7071 -1.6802 -0.0622
 3250TIP3    H231386   4.836   2.732   2.211 -0.8476 -0.4934 -1.8400
 3251TIP3   OH231387   3.647   0.780   8.644  0.2999 -0.4177  0.3329
 3251TIP3    H131388   3.634   0.711   8.709  1.2436 -1.4027 -0.4846
 3251TIP3    H231389   3.727   0.754   8.598  1.5084  1.9715  0.9344
 3252TIP3   OH231390   4.522   4.863   8.961  0.0073 -0.0287 -0.0724
 3252TIP3    H131391   4.565   4.814   9.031  0.5771  0.1897 -0.2545
 3252TIP3    H231392   4.592   4.880   8.898 -0.5803 -0.5642 -0.8904
 3253TIP3   OH231393   3.971   1.713   7.475  0.1775 -0.2221  0.0612
 3253TIP3    H131394   3.955   1.622   7.451  0.9855 -0.1595 -0.7570
 3253TIP3    H231395   4.017   1.750   7.400 -0.5140  0.9818  0.1974
 3254TIP3   OH231396   6.446   4.965   7.672  0.2904  0.2950 -0.4851
 3254TIP3    H131397   6.441   5.016   7.592  0.1517  0.5131 -0.3410
 3254TIP3    H231398   6.474   4.878   7.644  1.5090  0.7117 -0.6166
 3255TIP3   OH231399   2.084   0.259   2.292  0.0481  0.5468 -0.1260
 3255TIP3    H131400   2.112   0.167   2.296 -0.6144  0.2728 -1.2024
 3255TIP3    H231401   1.999   0.260   2.336  1.2642  1.2159  2.3826
 3256TIP3   OH231402   6.116   4.055   8.678  0.3046  0.1572  0.3616
 3256TIP3    H131403   6.127   3.978   8.734  0.5479 -0.1966 -0.1638
 3256TIP3    H231404   6.055   4.026   8.609  2.2700 -0.3688 -1.2543
 3257TIP3   OH231405   1.769   3.494   7.685 -0.5268 -0.1292 -0.4222
 3257TIP3    H131406   1.841   3.551   7.656 -1.0109  0.6864 -0.0434
 3257TIP3    H231407   1.769   3.422   7.622 -0.7252  0.9427 -1.6991
 3258TIP3   OH231408   1.512   4.365   2.658 -0.4320 -0.1826 -0.0826
 3258TIP3    H131409   1.541   4.455   2.639  1.5395 -0.8615 -0.5213
 3258TIP3    H231410   1.426   4.358   2.617  0.0415  1.0407 -1.3613
 3259TIP3   OH231411   2.031   3.515   7.228 -0.3263  0.6276  0.4680
 3259TIP3    H131412   1.940   3.528   7.253 -0.4004 -0.7162  0.9658
 3259TIP3    H231413   2.036   3.423   7.202  1.0747  0.4395  1.3238
 3260TIP3   OH231414   5.844   6.652   0.810 -0.4057 -0.1103  0.0525
 3260TIP3    H131415   5.797   6.596   0.872 -2.4276  1.4805  0.0666
 3260TIP3    H231416   5.860   6.596   0.734 -0.9724 -1.1363  0.6640
 3261TIP3   OH231417   0.983   5.119   1.879  0.2746  0.0531  0.4183
 3261TIP3    H131418   0.994   5.059   1.805 -1.7041 -2.7061  2.1710
 3261TIP3    H231419   0.915   5.179   1.851  0.2311 -0.3359 -0.3503
 3262TIP3   OH231420   2.178   1.787   1.322  0.5692 -0.9359 -0.3054
 3262TIP3    H131421   2.266   1.809   1.353  0.9670  2.4190 -3.1202
 3262TIP3    H231422   2.190   1.763   1.230 -1.2725 -3.1190 -0.0701
 3263TIP3   OH231423   5.730   0.446   1.472 -0.3504  0.2398 -0.0548
 3263TIP3    H131424   5.815   0.444   1.515 -0.4808  0.0275  0.1998
 3263TIP3    H231425   5.689   0.362   1.496 -0.0256 -0.3321 -1.4040
 3264TIP3   OH231426   4.203   2.917   0.207  0.8046 -0.8755  0.2190
 3264TIP3    H131427   4.240   2.923   0.119 -0.5968 -0.0395 -0.3541
 3264TIP3    H231428   4.251   2.981   0.259 -1.7634  2.5644 -1.2910
 3265TIP3   OH231429   5.487   3.151   7.943 -0.4146 -0.1721  0.5071
 3265TIP3    H131430   5.408   3.098   7.946  0.0713 -0.9174  0.2811
 3265TIP3    H231431   5.466   3.227   7.998 -1.4015 -0.1909  0.1887
 3266TIP3   OH231432   5.405   2.546   8.949  0.2876 -0.1256 -0.2362
 3266TIP3    H131433   5.423   2.624   8.898  0.8436  0.8669  1.3905
 3266TIP3    H231434   5.487   2.496   8.946 -0.1780 -0.8484 -1.5636
 3267TIP3   OH231435   4.239   3.515   1.476  0.2089  0.0355 -0.4530
 3267TIP3    H131436   4.301   3.523   1.548 -0.8256 -0.9833  0.6052
 3267TIP3    H231437   4.182   3.592   1.484 -1.3372 -1.2005  1.3142
 3268TIP3   OH231438   3.773   2.649   8.719  0.3052  0.5009  0.3811
 3268TIP3    H131439   3.865   2.654   8.693  0.6066 -1.8147  0.8082
 3268TIP3    H231440   3.775   2.616   8.808 -0.9428 -0.0170  0.2381
 3269TIP3   OH231441   3.979   6.511   0.466  0.0511 -0.0281 -0.1179
 3269TIP3    H131442   3.964   6.483   0.376  0.2345 -1.0395  0.1544
 3269TIP3    H231443   4.031   6.440   0.505  0.9856  0.9452  0.4510
 3270TIP3   OH231444   3.560   4.487   2.180  0.2808 -0.1459 -0.3010
 3270TIP3    H131445   3.627   4.459   2.242 -0.4934  2.1185  1.6866
 3270TIP3    H231446   3.595   4.569   2.144 -0.8065  0.3511 -0.2472
 3271TIP3   OH231447   2.533   1.595   7.606 -0.2501  0.1951 -0.1754
 3271TIP3    H131448   2.448   1.639   7.611 -0.8508 -0.8567 -0.8173
 3271TIP3    H231449   2.590   1.646   7.664 -1.5745  0.3093  1.0645
 3272TIP3   OH231450   3.917   2.966   0.024 -0.0058  0.2995 -0.5347
 3272TIP3    H131451   3.944   2.991  -0.065  1.5366 -1.5973 -0.6782
 3272TIP3    H231452   3.960   3.029   0.081  0.9021  0.1494 -1.0389
 3273TIP3   OH231453   0.806   5.865   1.975 -0.5410  0.2049 -0.1911
 3273TIP3    H131454   0.810   5.871   2.071 -0.0612 -1.7216 -0.0487
 3273TIP3    H231455   0.832   5.775   1.956 -0.9961  0.4479 -2.1257
 3274TIP3   OH231456   1.612   5.128   2.485  0.4880  0.2842 -0.0027
 3274TIP3    H131457   1.541   5.190   2.502 -0.1744 -0.3230 -0.5000
 3274TIP3    H231458   1.573   5.042   2.499  1.3376 -0.0417  0.4571
 3275TIP3   OH231459   6.006   3.041   0.670  0.4262 -0.9436  0.0784
 3275TIP3    H131460   6.095   3.021   0.640  1.1893  1.7383  0.3017
 3275TIP3    H231461   5.967   3.092   0.599  0.1358  0.3665  1.1274
 3276TIP3   OH231462   1.527   2.297   1.005 -0.4703  0.3152 -0.0211
 3276TIP3    H131463   1.548   2.386   1.033 -0.7423  0.3179  0.1808
 3276TIP3    H231464   1.507   2.251   1.086 -0.1057  0.0079 -0.1033
 3277TIP3   OH231465   1.112   3.843   1.524 -0.5464  0.1924  0.7853
 3277TIP3    H131466   1.111   3.918   1.584  0.1233 -0.2738  1.4006
 3277TIP3    H231467   1.020   3.828   1.503 -0.5727  3.2326 -2.0006
 3278TIP3   OH231468   3.782   2.326   1.634  0.1210  0.2363 -0.2644
 3278TIP3    H131469   3.776   2.233   1.615  2.1768  0.0463 -0.2961
 3278TIP3    H231470   3.694   2.352   1.662 -1.0266 -1.2110 -2.3299
 3279TIP3   OH231471   6.286   2.062   2.683 -0.1386 -0.2473 -0.1948
 3279TIP3    H131472   6.244   2.055   2.769 -0.9053 -0.4175 -0.5816
 3279TIP3    H231473   6.329   2.148   2.685  0.9041 -0.7536  0.8158
 3280TIP3   OH231474   2.366   2.462   7.920  0.1907  0.3881  0.8653
 3280TIP3    H131475   2.392   2.392   7.861 -1.9803  0.3564 -0.1592
 3280TIP3    H231476   2.370   2.423   8.008  1.0500 -0.3418  0.5118
 3281TIP3   OH231477   5.107   1.060   3.093  0.2824  0.3652  0.4864
 3281TIP3    H131478   5.187   1.041   3.143 -0.1924  0.7582  1.4251
 3281TIP3    H231479   5.036   1.026   3.147 -0.0798 -3.1571 -1.8893
 3282TIP3   OH231480   1.075   3.001   8.024  0.6190 -0.0242  0.3119
 3282TIP3    H131481   1.065   3.006   7.929  0.2690  1.6183  0.4079
 3282TIP3    H231482   0.986   2.989   8.057  0.7475 -0.6594  0.4331
 3283TIP3   OH231483   0.903   5.203   8.150  0.0619 -0.6379 -0.4264
 3283TIP3    H131484   0.978   5.213   8.208 -0.1747 -1.5887  0.0517
 3283TIP3    H231485   0.941   5.202   8.062  0.2713  2.8620 -0.5116
 3284TIP3   OH231486   2.274   3.663   2.425  0.4485 -0.0262  0.0413
 3284TIP3    H131487   2.199   3.722   2.412  1.4502  1.1890 -0.4547
 3284TIP3    H231488   2.257   3.621   2.509 -1.2693 -0.5285 -0.5079
 3285TIP3   OH231489   6.225   4.400   8.175 -0.0045 -0.3046 -0.5812
 3285TIP3    H131490   6.306   4.361   8.144 -0.2783 -1.6190  0.2532
 3285TIP3    H231491   6.200   4.463   8.107  1.1125 -0.7030 -1.3792
 3286TIP3   OH231492   1.813   2.370   8.847  0.2665 -0.4207 -0.2219
 3286TIP3    H131493   1.733   2.323   8.873  0.8759 -2.1258 -1.2576
 3286TIP3    H231494   1.876   2.349   8.915  0.1759  0.0030 -0.0007
 3287TIP3   OH231495   6.570   6.491   2.006  0.2874  0.0086 -0.1316
 3287TIP3    H131496   6.609   6.578   2.004  0.3191  0.0308  0.8708
 3287TIP3    H231497   6.643   6.432   1.986 -0.0108  0.2644 -2.1748
 3288TIP3   OH231498   3.714   1.814   1.423 -0.2471 -0.7257  0.8734
 3288TIP3    H131499   3.685   1.890   1.373  0.7134  0.8788  2.6197
 3288TIP3    H231500   3.638   1.756   1.427 -0.7931 -0.1874 -1.0565
 3289TIP3   OH231501   0.392   6.358   1.969  0.0843  0.4507 -0.0868
 3289TIP3    H131502   0.380   6.448   1.999  0.4311  0.7129 -0.7072
 3289TIP3    H231503   0.485   6.340   1.985  0.2564  0.5715 -0.9329
 3290TIP3   OH231504   1.115   2.466   8.129 -0.1369 -0.0117 -0.0243
 3290TIP3    H131505   1.187   2.428   8.079 -1.3083 -1.1787 -0.8938
 3290TIP3    H231506   1.102   2.553   8.089 -0.2486 -0.4388 -0.9564
 3291TIP3   OH231507   4.501   3.014   0.954 -0.5302 -0.1603  0.6008
 3291TIP3    H131508   4.518   2.929   0.995 -1.7333 -1.8056 -2.0761
 3291TIP3    H231509   4.409   3.010   0.926 -0.0555  1.2149 -1.3739
 3292TIP3   OH231510   3.837   0.947   1.711  0.0656  0.1676  0.7900
 3292TIP3    H131511   3.810   0.887   1.642  0.4285  0.4311  0.4188
 3292TIP3    H231512   3.789   1.028   1.692  1.9302  1.0177 -0.5333
 3293TIP3   OH231513   0.570   5.840   1.747 -0.3158  0.0205 -0.4350
 3293TIP3    H131514   0.625   5.901   1.698  1.9609 -1.4279  0.1529
 3293TIP3    H231515   0.604   5.843   1.836  0.4346 -2.6104 -0.5494
 3294TIP3   OH231516   2.510   4.102   1.794  0.6267 -0.5246 -0.1764
 3294TIP3    H131517   2.510   4.123   1.888 -0.1734 -2.4354  0.3054
 3294TIP3    H231518   2.570   4.165   1.755 -1.5596  2.5702  1.0723
 3295TIP3   OH231519   1.874   5.323   8.994  0.1846  0.0313 -0.3753
 3295TIP3    H131520   1.936   5.389   8.963 -1.3216  0.7347 -2.0881
 3295TIP3    H231521   1.861   5.343   9.087  0.1991  1.7972 -0.7263
 3296TIP3   OH231522   0.167   1.861   0.805  0.2621 -0.0953  0.2251
 3296TIP3    H131523   0.103   1.896   0.743  0.9624  0.1621 -0.3560
 3296TIP3    H231524   0.203   1.784   0.762  0.0880 -0.4537  0.7089
 3297TIP3   OH231525   2.815   4.133   8.032 -0.1905  0.4429  0.1900
 3297TIP3    H131526   2.832   4.218   8.072 -0.6914  0.5151  0.2531
 3297TIP3    H231527   2.878   4.127   7.960 -0.9865  1.4028 -0.6084
 3298TIP3   OH231528   2.589   5.215   2.076 -0.3089 -0.3403 -0.0272
 3298TIP3    H131529   2.680   5.213   2.106 -0.2949 -0.5486 -0.0812
 3298TIP3    H231530   2.565   5.123   2.064 -0.0386 -0.2395 -1.5054
 3299TIP3   OH231531   5.263   1.923   0.201 -0.5783  0.2357 -0.4568
 3299TIP3    H131532   5.186   1.943   0.148 -0.0982  0.9685 -0.9021
 3299TIP3    H231533   5.299   2.009   0.223  0.7693 -0.1079 -1.2320
 3300TIP3   OH231534   5.349   0.483   0.632 -0.5568  0.0635  0.0694
 3300TIP3    H131535   5.418   0.518   0.689  0.0707  0.7272 -1.0590
 3300TIP3    H231536   5.276   0.463   0.691 -0.2461  1.5420  0.9865
 3301TIP3   OH231537   1.628   4.924   1.793  0.0271 -0.1152 -0.2768
 3301TIP3    H131538   1.610   4.964   1.708  2.4034  0.4062 -0.6054
 3301TIP3    H231539   1.610   4.994   1.857 -1.0278 -0.2687 -0.3916
 3302TIP3   OH231540   1.293   4.446   2.021  0.4084  0.5441  0.0948
 3302TIP3    H131541   1.263   4.474   1.935 -1.0922  0.0007  0.4039
 3302TIP3    H231542   1.323   4.526   2.063 -1.3644  1.3021  0.0144
 3303TIP3   OH231543   1.746   4.147   2.243 -0.0248 -0.0751  0.3623
 3303TIP3    H131544   1.662   4.160   2.287  1.3690 -1.2842  3.6850
 3303TIP3    H231545   1.812   4.171   2.308  2.2481 -0.9644 -1.4696
 3304TIP3   OH231546   5.179   1.432   1.388  0.0959  0.5125  0.1473
 3304TIP3    H131547   5.109   1.478   1.434  0.9025  0.3252  1.6175
 3304TIP3    H231548   5.210   1.495   1.323 -2.0888  0.2339 -1.2923
 3305TIP3   OH231549   2.579   2.316   8.789 -0.1247  0.5312  0.4315
 3305TIP3    H131550   2.618   2.306   8.702  0.7484  0.1830  0.8471
 3305TIP3    H231551   2.488   2.290   8.778  0.6224 -2.2583  0.2038
 3306TIP3   OH231552   4.104   5.892   2.523  0.0558 -0.8508  0.5031
 3306TIP3    H131553   4.108   5.797   2.516 -2.0580 -0.8713 -1.8499
 3306TIP3    H231554   4.161   5.923   2.453 -2.9459 -0.5883 -2.0433
 3307TIP3   OH231555   5.272   0.172   1.950  0.3951 -0.3769 -0.1842
 3307TIP3    H131556   5.269   0.230   2.026 -0.2779  1.0548 -1.2632
 3307TIP3    H231557   5.320   0.221   1.883  0.2757 -1.2723 -0.9598
 3308TIP3   OH231558   0.417   2.412   2.016 -0.4562 -0.3352 -0.0626
 3308TIP3    H131559   0.375   2.340   2.063  0.8575 -1.2468 -0.2472
 3308TIP3    H231560   0.486   2.442   2.074  0.8291 -1.1099 -1.1372
 3309TIP3   OH231561   3.521   1.758   2.922  0.3740 -0.2936 -0.2956
 3309TIP3    H131562   3.594   1.699   2.904  1.0255 -0.1447  1.6254
 3309TIP3    H231563   3.525   1.773   3.016 -2.3844 -0.5873 -0.0436
 3310TIP3   OH231564   5.844   1.710   8.637  0.2517  0.3026 -0.6513
 3310TIP3    H131565   5.879   1.677   8.555 -2.3217  0.5279 -1.9223
 3310TIP3    H231566   5.858   1.804   8.634  0.3903  0.2801 -0.7002
 3311TIP3   OH231567   5.306   2.586   7.971 -0.4438  0.1713 -0.5503
 3311TIP3    H131568   5.398   2.585   7.945 -0.8393  1.7544 -2.1859
 3311TIP3    H231569   5.262   2.531   7.907 -0.8914  1.0468 -1.0218
 3312TIP3   OH231570   4.513   5.132   8.689 -0.2273 -0.2718  0.0831
 3312TIP3    H131571   4.518   5.163   8.779  2.0857  1.7237 -0.6138
 3312TIP3    H231572   4.578   5.062   8.684 -0.0358 -0.0827 -0.1219
 3313TIP3   OH231573   3.374   1.181   8.843 -0.2742 -0.4205 -0.1792
 3313TIP3    H131574   3.394   1.156   8.933  0.3651 -2.6107 -0.8719
 3313TIP3    H231575   3.459   1.184   8.799 -0.4964  1.4619 -0.5465
 3314TIP3   OH231576   4.311   4.756   2.879  0.0844 -0.0885  0.0442
 3314TIP3    H131577   4.363   4.700   2.822  0.5240 -0.8739  1.1871
 3314TIP3    H231578   4.353   4.842   2.874  0.5874 -0.3479 -0.1950
 3315TIP3   OH231579   4.603   1.450   0.520  0.7236 -0.0587  0.4237
 3315TIP3    H131580   4.626   1.358   0.536 -0.9587 -0.4072  1.0244
 3315TIP3    H231581   4.663   1.500   0.576  1.2541 -0.8132  0.5427
 3316TIP3   OH231582   5.345   5.237   1.135  0.0861 -0.3236 -0.8286
 3316TIP3    H131583   5.325   5.172   1.203  0.9505  1.1305  0.8753
 3316TIP3    H231584   5.420   5.285   1.168 -0.2380  1.2700 -2.2660
 3317TIP3   OH231585   6.217   0.546   8.719 -0.4601 -0.4901  0.2806
 3317TIP3    H131586   6.284   0.612   8.734 -0.0127 -0.7571 -0.4689
 3317TIP3    H231587   6.165   0.582   8.647 -0.1435 -1.0013 -0.2064
 3318TIP3   OH231588   5.125   4.984   9.037 -0.3447  0.9490  0.5165
 3318TIP3    H131589   5.084   4.963   9.122  0.0889 -0.2231  0.4569
 3318TIP3    H231590   5.076   4.931   8.974 -0.4770  1.5984  0.0721
 3319TIP3   OH231591   5.660   0.416   8.007  0.0902 -0.3354 -0.2553
 3319TIP3    H131592   5.730   0.455   8.060  0.1957  0.7359 -1.1521
 3319TIP3    H231593   5.583   0.471   8.024 -0.4300 -1.2278  0.3645
 3320TIP3   OH231594   0.433   6.326   8.883 -0.0084 -0.1731 -0.2802
 3320TIP3    H131595   0.467   6.415   8.871  2.5805 -1.2329 -1.5948
 3320TIP3    H231596   0.454   6.304   8.974 -0.0169  0.2908 -0.1646
 3321TIP3   OH231597   5.745   1.255   0.897 -0.0901 -0.4292 -0.8695
 3321TIP3    H131598   5.836   1.228   0.888 -0.8321 -2.8878 -1.7030
 3321TIP3    H231599   5.720   1.284   0.810  0.0092  0.7784 -0.5173
 3322TIP3   OH231600   2.192   0.870   1.497 -0.0699  0.5036 -0.1725
 3322TIP3    H131601   2.210   0.816   1.420  2.3546 -1.1313  1.3885
 3322TIP3    H231602   2.166   0.955   1.462  0.9180 -0.1940 -2.7818
 3323TIP3   OH231603   3.484   1.050   2.502  0.1464 -0.8103 -0.0416
 3323TIP3    H131604   3.441   1.094   2.575  0.6356  3.0658 -1.8150
 3323TIP3    H231605   3.578   1.059   2.520  0.2816  0.5410 -1.2280
 3324TIP3   OH231606   3.213   1.931   8.396 -0.2315  0.1134 -0.6721
 3324TIP3    H131607   3.222   1.838   8.374 -0.6899 -0.1107  0.0251
 3324TIP3    H231608   3.271   1.943   8.471  0.7895  0.6983 -1.5385
 3325TIP3   OH231609   2.035   2.773   1.060  0.2595 -0.1597  0.0911
 3325TIP3    H131610   2.108   2.787   1.000 -0.7536  0.3742 -1.0645
 3325TIP3    H231611   1.980   2.850   1.048 -0.4795 -0.5466  0.9554
 3326TIP3   OH231612   4.688   4.687   7.059 -0.2999  0.0658  0.0655
 3326TIP3    H131613   4.658   4.670   6.969  0.9881  1.5551 -0.7003
 3326TIP3    H231614   4.660   4.777   7.077  0.1305  0.0434  0.8637
 3327TIP3   OH231615   5.497   1.826   8.548  0.2499 -0.5385  0.7116
 3327TIP3    H131616   5.546   1.757   8.594  1.3370 -0.2843 -0.0140
 3327TIP3    H231617   5.405   1.803   8.560  0.5878 -2.0554  0.5687
 3328TIP3   OH231618   1.044   1.611   9.061 -0.0888  0.0654 -0.0720
 3328TIP3    H131619   1.029   1.525   9.100  0.4200  0.1685  0.3669
 3328TIP3    H231620   1.075   1.593   8.973  0.5455 -0.2221  0.2039
 3329TIP3   OH231621   1.356   0.218   2.768 -0.4619 -0.1191  0.1727
 3329TIP3    H131622   1.320   0.257   2.848  0.8532 -0.9304  1.1913
 3329TIP3    H231623   1.425   0.279   2.741  0.4544 -0.8314  0.8223
 3330TIP3   OH231624   1.029   4.846   1.730  0.1295 -0.2835  0.0446
 3330TIP3    H131625   0.943   4.837   1.772 -0.1865  1.5297 -0.1651
 3330TIP3    H231626   1.009   4.879   1.643  1.0095 -0.5802 -0.2738
 3331TIP3   OH231627   1.652   1.228   1.938  0.1324 -0.2780  0.0617
 3331TIP3    H131628   1.572   1.229   1.886 -0.2914  2.6854  0.5798
 3331TIP3    H231629   1.716   1.274   1.884 -0.1617  2.3574  1.7759
 3332TIP3   OH231630   1.072   6.421   2.905  0.2832  0.2126 -0.1669
 3332TIP3    H131631   0.976   6.419   2.904  0.2782 -1.6362 -0.5604
 3332TIP3    H231632   1.097   6.396   2.816  1.1468  1.0667 -0.1789
 3333TIP3   OH231633   4.202   2.020   3.072 -0.0432  0.3908  0.4353
 3333TIP3    H131634   4.137   1.978   3.127 -0.5643  0.7949  0.1376
 3333TIP3    H231635   4.274   1.957   3.067 -1.1878 -0.9004 -0.7755
 3334TIP3   OH231636   0.892   6.304   1.585 -0.2685 -0.5646  0.7100
 3334TIP3    H131637   0.922   6.262   1.505 -2.4787  1.8238 -1.5869
 3334TIP3    H231638   0.958   6.369   1.605 -0.2512 -0.4067  0.1466
 3335TIP3   OH231639   3.913   1.113   0.064 -0.2300  0.0303 -0.1531
 3335TIP3    H131640   3.956   1.195   0.039  0.5030 -0.4542 -0.5248
 3335TIP3    H231641   3.963   1.045   0.019  0.8538 -0.8559  2.2051
 3336TIP3   OH231642   4.390   3.032   1.872 -0.4318  0.5597  0.0630
 3336TIP3    H131643   4.311   3.037   1.926 -1.6253  0.1648 -1.5635
 3336TIP3    H231644   4.443   2.963   1.913 -1.7625 -0.4344  0.1751
 3337TIP3   OH231645   0.976   4.962   2.137 -0.1030 -0.1511 -0.4519
 3337TIP3    H131646   0.935   5.034   2.184 -1.2312 -0.0964 -1.4745
 3337TIP3    H231647   1.009   5.001   2.057  2.3020 -0.1317  0.4585
 3338TIP3   OH231648   3.171   1.791   7.211 -0.3894 -0.5219 -0.3328
 3338TIP3    H131649   3.219   1.872   7.229 -0.5547 -0.3141 -0.7931
 3338TIP3    H231650   3.223   1.747   7.143  0.3601 -1.4135  0.7809
 3339TIP3   OH231651   3.926   5.116   7.830 -0.2013  0.3800  0.1502
 3339TIP3    H131652   3.890   5.179   7.892 -2.0617  1.4958 -1.9306
 3339TIP3    H231653   4.012   5.094   7.865 -2.0229 -1.0611  4.5010
 3340TIP3   OH231654   0.195   3.804   1.333  0.0241  0.3224  0.4414
 3340TIP3    H131655   0.281   3.834   1.360  0.1534  1.4777 -1.1028
 3340TIP3    H231656   0.158   3.878   1.284 -0.5846 -1.2192 -1.5513
 3341TIP3   OH231657   5.006   4.078   8.023  0.6159  0.0191  0.3952
 3341TIP3    H131658   4.959   4.016   8.078  1.1629 -0.0393  0.7913
 3341TIP3    H231659   5.029   4.028   7.944  2.1083 -0.6392  1.2120
 3342TIP3   OH231660   5.862   1.188   8.644  0.6178 -0.4554 -0.9281
 3342TIP3    H131661   5.821   1.221   8.563  0.5093 -0.6282 -0.9438
 3342TIP3    H231662   5.926   1.255   8.667  2.4706 -1.5953 -2.5376
 3343TIP3   OH231663   2.100   5.620   0.516 -0.4071 -0.7221 -0.8578
 3343TIP3    H131664   2.144   5.659   0.591 -0.2926  0.3396 -1.4626
 3343TIP3    H231665   2.138   5.664   0.440  0.1300 -2.4066 -1.6069
 3344TIP3   OH231666   0.915   2.075   2.635  0.5103  0.0097 -0.3786
 3344TIP3    H131667   0.929   1.996   2.584  0.9062 -0.1467 -0.0372
 3344TIP3    H231668   0.988   2.077   2.697  0.9414  1.0611 -0.9025
 3345TIP3   OH231669   3.299   3.952   8.337 -0.5468  0.2315  0.7797
 3345TIP3    H131670   3.271   3.884   8.276  2.5283  1.3694 -2.1815
 3345TIP3    H231671   3.256   4.031   8.306  0.3048  0.6526  0.6577
 3346TIP3   OH231672   6.065   2.544   1.748 -0.4390 -0.0075  0.4002
 3346TIP3    H131673   6.013   2.580   1.820 -0.1270  0.4956  0.3833
 3346TIP3    H231674   6.016   2.468   1.718 -1.0703  0.3492  0.5086
 3347TIP3   OH231675   0.775   5.630   2.513  0.1414 -0.3443 -0.3673
 3347TIP3    H131676   0.693   5.580   2.518 -0.1084  0.0867 -0.0802
 3347TIP3    H231677   0.747   5.722   2.513  0.6153 -0.1981 -0.5012
 3348TIP3   OH231678   5.358   0.592   8.264 -0.0245  0.1366  0.5095
 3348TIP3    H131679   5.278   0.546   8.286  0.4611  0.0342  2.1717
 3348TIP3    H231680   5.393   0.545   8.188 -2.7480  1.7056 -1.9446
 3349TIP3   OH231681   0.218   6.114   7.904 -0.7354 -0.1923 -0.5218
 3349TIP3    H131682   0.209   6.024   7.936 -1.7468  0.5545  1.4974
 3349TIP3    H231683   0.213   6.107   7.809  0.3733 -2.3778 -0.4759
 3350TIP3   OH231684   2.516   1.934   2.735  0.1675 -0.2839  0.3210
 3350TIP3    H131685   2.512   1.842   2.759  0.4582 -0.1998  0.7124
 3350TIP3    H231686   2.440   1.948   2.679  1.1268 -1.1957 -1.2882
 3351TIP3   OH231687   5.823   6.447   0.615 -0.4596  0.0573 -0.7132
 3351TIP3    H131688   5.836   6.443   0.520 -0.5291 -1.5224 -0.6956
 3351TIP3    H231689   5.817   6.355   0.642 -2.2993  0.4757  0.5696
 3352TIP3   OH231690   4.611   5.552   1.920  0.4231  0.1143  0.4496
 3352TIP3    H131691   4.679   5.504   1.872  0.6488  2.0954 -1.3382
 3352TIP3    H231692   4.659   5.605   1.984  0.5579  1.1921 -0.5245
 3353TIP3   OH231693   6.453   4.156   1.003  0.3363  0.4027  0.5793
 3353TIP3    H131694   6.484   4.210   1.076  1.8977  0.8740 -0.3801
 3353TIP3    H231695   6.390   4.212   0.957  0.3159  0.5846  0.8261
 3354TIP3   OH231696   6.065   1.706   1.416 -0.0591  0.9727 -0.5297
 3354TIP3    H131697   5.987   1.757   1.438 -1.7193 -1.3799 -0.6529
 3354TIP3    H231698   6.062   1.698   1.321  0.6971  1.3670 -0.5947
 3355TIP3   OH231699   4.626   4.524   8.285 -0.0816 -0.2774 -0.0602
 3355TIP3    H131700   4.634   4.619   8.290  1.5653 -0.4549  1.4349
 3355TIP3    H231701   4.670   4.500   8.203  2.3546  0.0353  1.0674
 3356TIP3   OH231702   6.599   0.650   2.198 -0.6121  0.5350 -0.3506
 3356TIP3    H131703   6.629   0.672   2.286 -1.4351  1.3536 -0.2575
 3356TIP3    H231704   6.578   0.556   2.203  1.3142  0.0620 -0.2748
 3357TIP3   OH231705   4.066   4.641   1.274 -0.2611  0.1705  0.0792
 3357TIP3    H131706   4.060   4.729   1.311 -1.3812 -0.0541  0.5004
 3357TIP3    H231707   4.039   4.651   1.183  0.6832  0.4327 -0.1748
 3358TIP3   OH231708   6.560   1.310   1.018  0.2235 -0.4825  0.3763
 3358TIP3    H131709   6.631   1.260   0.978  0.9193  1.3942 -0.8806
 3358TIP3    H231710   6.605   1.378   1.068 -0.6759  0.1863  0.2991
 3359TIP3   OH231711   3.061   2.173   8.885 -0.5581 -0.2476  0.1834
 3359TIP3    H131712   3.068   2.078   8.888 -0.0517 -0.2548 -0.9167
 3359TIP3    H231713   3.048   2.194   8.792  0.5317  0.8289  0.2519
 3360TIP3   OH231714   6.433   2.961   8.444  0.3608  0.4581 -0.0588
 3360TIP3    H131715   6.486   3.031   8.405  0.3345  0.0207 -0.8806
 3360TIP3    H231716   6.457   2.883   8.396  0.2248 -0.0712  0.7158
 3361TIP3   OH231717   3.955   6.494   7.794 -0.6849  0.3242  0.7616
 3361TIP3    H131718   3.903   6.482   7.714  0.1134  1.5449  0.0179
 3361TIP3    H231719   3.902   6.552   7.848 -1.1897 -0.4341  1.0857
 3362TIP3   OH231720   1.385   5.509   2.291  0.0735 -0.4513  0.1524
 3362TIP3    H131721   1.406   5.435   2.233  2.1062 -1.6810  2.2698
 3362TIP3    H231722   1.459   5.569   2.281 -1.3733  1.2303 -1.2435
 3363TIP3   OH231723   1.089   1.698   1.698  0.0212 -0.0857  0.2991
 3363TIP3    H131724   1.085   1.698   1.794  2.3708  3.7557  0.6334
 3363TIP3    H231725   1.006   1.738   1.671  0.4496  1.3677  1.0052
 3364TIP3   OH231726   6.363   5.155   0.147 -0.1785  0.5601  0.2788
 3364TIP3    H131727   6.373   5.120   0.058  3.1596 -1.2803  1.1846
 3364TIP3    H231728   6.331   5.082   0.199  0.6491  0.7153  1.0470
 3365TIP3   OH231729   6.253   1.345   7.948  0.5027  0.2834 -0.2884
 3365TIP3    H131730   6.209   1.281   7.893  0.4097 -0.8715  1.0569
 3365TIP3    H231731   6.207   1.428   7.931 -1.1461 -0.5492 -0.1188
 3366TIP3   OH231732   0.655   0.889   0.158 -1.0468 -0.3309  0.0307
 3366TIP3    H131733   0.750   0.887   0.158 -0.9287  2.0970 -0.1059
 3366TIP3    H231734   0.631   0.922   0.245 -1.5938  1.2499 -0.6684
 3367TIP3   OH231735   4.396   1.506   7.997 -0.5284  0.1605 -0.2397
 3367TIP3    H131736   4.434   1.591   7.977  1.9757 -0.7709  0.1959
 3367TIP3    H231737   4.385   1.463   7.912 -0.6513  0.4682 -0.3779
 3368TIP3   OH231738   3.329   0.209   0.494 -0.3892 -0.6277 -0.2209
 3368TIP3    H131739   3.285   0.157   0.561 -0.1292 -0.7546 -0.1449
 3368TIP3    H231740   3.346   0.148   0.423  1.6833 -1.1816  0.6539
 3369TIP3   OH231741   0.692   6.511   9.121 -0.3020 -0.0461  0.1449
 3369TIP3    H131742   0.749   6.506   9.044 -0.2884 -0.0678  0.1563
 3369TIP3    H231743   0.700   6.425   9.162  1.4154  0.6527  1.3836
 3370TIP3   OH231744   6.391   3.721   9.201  1.1813 -0.4528  0.0396
 3370TIP3    H131745   6.433   3.670   9.271  0.8663  0.7790  1.1765
 3370TIP3    H231746   6.399   3.812   9.231 -0.6506 -0.0481 -0.6161
 3371TIP3   OH231747   5.777   0.115   2.537  0.1197 -0.4284 -0.4749
 3371TIP3    H131748   5.737   0.174   2.473 -0.6717  0.7509  1.0371
 3371TIP3    H231749   5.870   0.137   2.535  0.1105 -0.4209 -1.2090
 3372TIP3   OH231750   4.345   5.079   9.132 -0.3625 -0.1727 -0.1118
 3372TIP3    H131751   4.368   5.139   9.060 -0.3846  0.5860  0.4994
 3372TIP3    H231752   4.419   5.019   9.138  0.6015  1.0273  0.5547
 3373TIP3   OH231753   6.598   4.587   0.369 -0.2476 -0.0550 -0.0457
 3373TIP3    H131754   6.658   4.517   0.393 -1.1269 -2.0434 -3.1091
 3373TIP3    H231755   6.511   4.553   0.393 -0.4754  1.4088  1.3655
 3374TIP3   OH231756   3.364   6.690   7.521 -0.1861 -0.1326  0.4309
 3374TIP3    H131757   3.434   6.676   7.458 -0.1534 -0.5082  0.5482
 3374TIP3    H231758   3.317   6.768   7.489  0.5990  0.4397  0.6348
 3375TIP3   OH231759   1.791   1.842   1.447 -0.2111 -0.3447  0.0995
 3375TIP3    H131760   1.783   1.911   1.381  0.3689  1.5741  1.9091
 3375TIP3    H231761   1.708   1.794   1.441 -0.2443 -0.1289 -1.8457
 3376TIP3   OH231762   5.308   4.364   6.964 -0.3824  0.2935  0.6320
 3376TIP3    H131763   5.279   4.287   6.916  0.0784  0.8688 -0.6128
 3376TIP3    H231764   5.234   4.424   6.959 -0.7752 -0.0794  1.6785
 3377TIP3   OH231765   1.351   1.358   2.648 -0.0428  0.0523  0.1503
 3377TIP3    H131766   1.365   1.443   2.688  1.8910  0.0281 -0.3747
 3377TIP3    H231767   1.271   1.368   2.597 -0.1241  1.3791  0.5147
 3378TIP3   OH231768   1.386   3.586   9.066 -0.2481 -0.3248 -0.1513
 3378TIP3    H131769   1.472   3.562   9.031  0.7988  1.2977  1.1501
 3378TIP3    H231770   1.327   3.518   9.033  1.1685 -0.5183 -2.5458
 3379TIP3   OH231771   5.854   3.611   7.398 -0.8757  0.2725  0.3611
 3379TIP3    H131772   5.809   3.665   7.462  0.4764  1.9922 -0.0678
 3379TIP3    H231773   5.792   3.541   7.378 -1.0834 -0.8432  4.1154
 3380TIP3   OH231774   3.570   4.733   7.116 -0.1411  0.2279  0.1771
 3380TIP3    H131775   3.500   4.709   7.176 -2.0554 -1.2087 -2.4207
 3380TIP3    H231776   3.613   4.651   7.094 -0.5126  0.4468 -1.5403
 3381TIP3   OH231777   1.865   3.069   7.407  0.0048  0.2828  0.8048
 3381TIP3    H131778   1.951   3.026   7.411 -0.4760 -0.9174 -0.7294
 3381TIP3    H231779   1.803   3.000   7.430 -0.6428  0.7484  0.4819
 3382TIP3   OH231780   3.910   1.590   1.591  0.4411  0.1127  0.0291
 3382TIP3    H131781   3.929   1.684   1.590  0.0336  0.2495  1.6825
 3382TIP3    H231782   3.815   1.585   1.604  0.5994 -0.5065  1.0967
 3383TIP3   OH231783   0.338   6.006   2.279 -0.2108  0.2687  0.2978
 3383TIP3    H131784   0.410   6.067   2.296  1.7686 -2.0395  0.8280
 3383TIP3    H231785   0.380   5.932   2.234 -2.1908 -1.2848  0.8563
 3384TIP3   OH231786   0.033   5.584   0.439  0.1233  0.3813 -0.1105
 3384TIP3    H131787   0.017   5.646   0.511 -1.4530 -0.4625  0.3131
 3384TIP3    H231788   0.090   5.517   0.477  0.1218  0.4714  0.0514
 3385TIP3   OH231789   3.458   5.390   2.134 -0.4830  0.6949 -0.0659
 3385TIP3    H131790   3.460   5.328   2.208 -3.3341  1.1130  0.4524
 3385TIP3    H231791   3.438   5.336   2.058 -1.4848  0.7570  0.1434
 3386TIP3   OH231792   0.280   2.420   0.997  0.0244 -0.2679 -0.0646
 3386TIP3    H131793   0.271   2.326   1.012  0.5024 -0.2436  0.4172
 3386TIP3    H231794   0.247   2.461   1.077  2.1011 -0.1191  0.7957
 3387TIP3   OH231795   2.355   4.212   2.504  0.6271 -0.4150  0.3124
 3387TIP3    H131796   2.291   4.282   2.502  1.5248  0.4043 -0.8768
 3387TIP3    H231797   2.333   4.162   2.583 -0.5152  0.7230  0.7517
 3388TIP3   OH231798   0.327   2.152   7.884  0.2046  0.4274 -0.1456
 3388TIP3    H131799   0.325   2.138   7.789  1.8661  1.5556 -0.4024
 3388TIP3    H231800   0.362   2.071   7.920  1.6143  0.7378 -0.7449
 3389TIP3   OH231801   4.055   3.178   0.134  0.6443 -0.4823  0.6951
 3389TIP3    H131802   4.087   3.175   0.224 -0.6844 -1.9732  1.1592
 3389TIP3    H231803   3.969   3.219   0.141  0.1458 -1.4272  0.2448
 3390TIP3   OH231804   4.882   0.742   1.221  0.2269 -0.9136  0.7143
 3390TIP3    H131805   4.833   0.775   1.296  0.8109  1.0556  0.3003
 3390TIP3    H231806   4.971   0.777   1.233  0.7484 -1.8939 -0.0846
 3391TIP3   OH231807   6.613   5.803   1.214  0.1068 -0.0882 -0.3220
 3391TIP3    H131808   6.582   5.886   1.251 -2.2001 -0.1240 -2.0130
 3391TIP3    H231809   6.699   5.824   1.177  0.0212  1.2661  0.2067
 3392TIP3   OH231810   5.159   4.506   8.709 -0.0129  0.1590  0.2766
 3392TIP3    H131811   5.084   4.551   8.749 -1.7323 -2.1419 -0.1200
 3392TIP3    H231812   5.172   4.428   8.764  1.5726  0.0850 -0.1652
 3393TIP3   OH231813   2.208   0.383   8.817 -0.5355  0.1586 -0.4190
 3393TIP3    H131814   2.226   0.408   8.907  0.9900 -1.1452 -0.3248
 3393TIP3    H231815   2.112   0.387   8.809 -0.6105  1.6174  0.8207
 3394TIP3   OH231816   4.162   5.060   7.938 -0.2069 -0.1093  0.4586
 3394TIP3    H131817   4.222   5.076   7.865 -1.7281  3.9386 -0.1152
 3394TIP3    H231818   4.219   5.043   8.013  1.4047 -2.7037 -1.1841
 3395TIP3   OH231819   4.033   1.879   7.944  0.1541 -0.5157  0.4044
 3395TIP3    H131820   4.060   1.887   7.852 -0.5216 -1.1629  0.1470
 3395TIP3    H231821   3.968   1.809   7.945  0.4615 -0.8095  1.4470
 3396TIP3   OH231822   3.330   0.038   1.843 -0.2134  0.2901  0.2694
 3396TIP3    H131823   3.240   0.007   1.835  0.1259 -0.4879 -0.7484
 3396TIP3    H231824   3.344   0.091   1.765 -0.3609  1.9729  1.3476
 3397TIP3   OH231825   6.310   4.531   7.842  0.1217 -0.4737  0.8091
 3397TIP3    H131826   6.368   4.549   7.916  0.0270  1.5450  0.4484
 3397TIP3    H231827   6.367   4.534   7.766 -0.1693 -0.2918  0.5996
 3398TIP3   OH231828   5.014   1.442   0.576 -0.1662  0.7013  0.1153
 3398TIP3    H131829   5.107   1.420   0.570 -0.0812  0.8299  0.8953
 3398TIP3    H231830   5.010   1.535   0.555 -0.1908  0.5784 -0.4496
 3399TIP3   OH231831   0.957   4.980   7.132  0.2444 -0.0624  0.0672
 3399TIP3    H131832   0.999   4.943   7.054 -1.3023 -0.7843 -0.4574
 3399TIP3    H231833   0.905   4.907   7.168  1.7102 -0.0667  2.3866
 3400TIP3   OH231834   4.169   2.639   1.735 -0.0246  0.1851 -0.6286
 3400TIP3    H131835   4.110   2.580   1.688 -2.3316  1.1355  0.9091
 3400TIP3    H231836   4.228   2.581   1.784 -1.0937 -0.8376 -0.5136
 3401TIP3   OH231837   3.750   4.614   1.514 -0.0260  0.0919 -0.0028
 3401TIP3    H131838   3.726   4.552   1.445 -0.1323 -0.3135  0.3963
 3401TIP3    H231839   3.690   4.687   1.502  0.2371  0.2119 -0.6049
 3402TIP3   OH231840   4.736   1.613   0.692  0.5248  0.4730  0.3813
 3402TIP3    H131841   4.664   1.655   0.740 -0.2273  0.5740 -0.7911
 3402TIP3    H231842   4.814   1.662   0.718  0.1434  0.5261  1.4872
 3403TIP3   OH231843   4.012   5.364   1.617 -0.3855  0.1610  0.2100
 3403TIP3    H131844   3.940   5.308   1.646 -0.0214 -0.2217  0.3837
 3403TIP3    H231845   4.090   5.324   1.655 -0.1980  1.2748  1.0588
 3404TIP3   OH231846   5.306   4.808   0.005  0.5917 -0.6819  0.7378
 3404TIP3    H131847   5.305   4.714   0.019 -1.7590 -0.8006  0.2376
 3404TIP3    H231848   5.223   4.838   0.042  0.8468  1.0479 -0.0031
 3405TIP3   OH231849   0.114   2.588   2.914 -0.8235  0.1545 -0.5682
 3405TIP3    H131850   0.110   2.681   2.893 -0.5809  0.0606 -1.0488
 3405TIP3    H231851   0.208   2.570   2.923 -0.9022  0.1032  0.2035
 3406TIP3   OH231852   1.754   3.558   0.251  0.2669  0.1777 -0.3408
 3406TIP3    H131853   1.696   3.588   0.320 -2.1740 -0.6300 -1.8986
 3406TIP3    H231854   1.820   3.504   0.295 -2.3093 -1.9223  1.2488
 3407TIP3   OH231855   6.135   0.645   8.436  0.1657 -0.0061 -0.1697
 3407TIP3    H131856   6.214   0.647   8.382  0.1115  1.8492 -0.2506
 3407TIP3    H231857   6.120   0.736   8.460 -2.6020 -0.1385 -1.0884
 3408TIP3   OH231858   0.455   5.447   1.346  0.4344  0.3640  0.3992
 3408TIP3    H131859   0.482   5.537   1.367 -0.2369  0.9322 -1.0346
 3408TIP3    H231860   0.421   5.452   1.256  0.6100 -1.3806  0.1981
 3409TIP3   OH231861   2.986   4.630   0.420 -0.2393  0.4400  0.6115
 3409TIP3    H131862   2.947   4.680   0.493  0.0630  2.0400 -0.2714
 3409TIP3    H231863   3.078   4.621   0.444 -0.4420 -0.3641  1.1168
 3410TIP3   OH231864   5.420   6.190   0.323  0.0246 -0.4166 -0.7479
 3410TIP3    H131865   5.508   6.194   0.285  0.9483 -1.6324  1.1444
 3410TIP3    H231866   5.434   6.178   0.416 -2.1841  0.5750 -0.2225
 3411TIP3   OH231867   2.679   3.115   2.404  0.2069 -0.1504  0.1223
 3411TIP3    H131868   2.757   3.147   2.360  1.3442 -0.9941  1.4276
 3411TIP3    H231869   2.661   3.181   2.471  0.1079 -0.2192  0.1635
 3412TIP3   OH231870   4.825   4.441   7.124  0.2994  0.0177  0.4568
 3412TIP3    H131871   4.751   4.387   7.150 -0.9243  0.6882 -1.3955
 3412TIP3    H231872   4.786   4.526   7.103  1.7685  0.7353  0.5028
 3413TIP3   OH231873   0.592   6.187   8.076  0.6595  0.4490 -0.2625
 3413TIP3    H131874   0.540   6.247   8.130 -0.3423 -0.6209  0.0059
 3413TIP3    H231875   0.532   6.115   8.056  2.0238 -0.7983 -0.0285
 3414TIP3   OH231876   3.130   2.325   0.443  0.4205  0.5619 -0.0571
 3414TIP3    H131877   3.139   2.234   0.471 -0.2659  0.0902 -1.2844
 3414TIP3    H231878   3.183   2.375   0.505  0.2236 -0.5919  1.0685
 3415TIP3   OH231879   3.306   1.136   2.672 -0.0999 -0.0803 -0.4092
 3415TIP3    H131880   3.238   1.106   2.733  0.6670  2.0038  1.5844
 3415TIP3    H231881   3.263   1.204   2.620  0.4863  1.6514  1.2410
 3416TIP3   OH231882   3.198   0.907   8.002 -0.3187 -0.4737 -0.1233
 3416TIP3    H131883   3.207   0.998   7.975  1.2791 -0.4603  0.3908
 3416TIP3    H231884   3.205   0.857   7.921 -1.9036 -0.1354 -0.5013
 3417TIP3   OH231885   2.334   1.931   8.057  0.0200  0.6904 -0.1887
 3417TIP3    H131886   2.382   1.969   7.984  0.2422  1.5211  0.3767
 3417TIP3    H231887   2.394   1.937   8.131  0.2075 -1.1224 -0.1446
 3418TIP3   OH231888   5.530   1.897   0.747  0.1156  0.3955 -0.4766
 3418TIP3    H131889   5.600   1.903   0.682  1.5845  0.3167  1.0070
 3418TIP3    H231890   5.449   1.898   0.696  1.1429  1.5815 -2.2153
 3419TIP3   OH231891   4.977   1.105   2.320 -0.3083 -0.2616  0.0817
 3419TIP3    H131892   4.972   1.097   2.415 -0.6911 -0.1944  0.0703
 3419TIP3    H231893   4.897   1.063   2.288  0.4301 -1.4179 -0.2903
 3420TIP3   OH231894   4.923   6.651   1.701  0.1962 -0.1238 -0.0759
 3420TIP3    H131895   5.010   6.654   1.740  0.4968 -2.5375 -0.4394
 3420TIP3    H231896   4.875   6.589   1.756 -1.0752  0.5623 -0.3681
 3421TIP3   OH231897   3.662   3.665   7.746  0.0143 -0.2196  0.1038
 3421TIP3    H131898   3.586   3.715   7.714  0.3728  0.9790  1.0673
 3421TIP3    H231899   3.712   3.728   7.797  0.9547 -1.3613  0.6212
 3422TIP3   OH231900   0.013   3.671   2.637 -0.3939 -0.1528  0.1993
 3422TIP3    H131901   0.012   3.761   2.668  1.8578 -0.1681  0.4891
 3422TIP3    H231902  -0.043   3.624   2.700  1.6877  0.3613  2.6223
 3423TIP3   OH231903   2.650   4.389   2.160  0.1806  0.1689  0.5852
 3423TIP3    H131904   2.698   4.399   2.243  0.3910  0.8599  0.3834
 3423TIP3    H231905   2.568   4.437   2.174  0.3342  0.5196  0.3029
 3424TIP3   OH231906   1.975   4.480   0.523 -0.1599 -0.0322  0.2085
 3424TIP3    H131907   1.917   4.515   0.591  1.7331 -0.1359  1.9558
 3424TIP3    H231908   1.959   4.386   0.525 -0.2483 -0.0147  0.3692
 3425TIP3   OH231909   6.555   5.943   1.899 -0.6886  0.1709  0.3157
 3425TIP3    H131910   6.508   5.953   1.982  0.3974 -0.1454  1.0019
 3425TIP3    H231911   6.500   5.986   1.834 -2.9737 -1.9667  0.6676
 3426TIP3   OH231912   2.693   4.517   8.506 -0.3745 -0.0341  0.9175
 3426TIP3    H131913   2.731   4.550   8.424  0.0569 -0.4169  0.9604
 3426TIP3    H231914   2.598   4.514   8.489 -0.2485 -0.5659  0.2565
 3427TIP3   OH231915   3.242   1.368   8.030 -0.4396 -0.2768  0.5261
 3427TIP3    H131916   3.221   1.323   7.948  0.2499  1.0349 -0.4150
 3427TIP3    H231917   3.163   1.419   8.050 -0.7156 -0.8207  0.8554
 3428TIP3   OH231918   0.160   2.570   1.201 -0.0626 -0.0963  0.1068
 3428TIP3    H131919   0.099   2.625   1.251 -0.5748 -0.7181  0.1757
 3428TIP3    H231920   0.210   2.524   1.268 -1.5859 -1.8636  0.1022
 3429TIP3   OH231921   1.950   5.800   1.734  0.2128 -0.3005  0.6689
 3429TIP3    H131922   1.992   5.743   1.669  1.6030  0.6485  0.6903
 3429TIP3    H231923   1.988   5.773   1.817 -1.1915 -1.1700  1.0700
 3430TIP3   OH231924   1.836   1.005   2.299 -0.0679 -0.3355 -0.4243
 3430TIP3    H131925   1.871   0.917   2.315 -1.7495 -0.6598  2.0061
 3430TIP3    H231926   1.906   1.063   2.329  1.2223 -0.7539 -2.4195
 3431TIP3   OH231927   6.379   0.243   0.634  0.5681  0.2544  0.0113
 3431TIP3    H131928   6.303   0.298   0.654  0.0433 -0.3790 -0.2121
 3431TIP3    H231929   6.382   0.180   0.706  1.6540  1.0594  0.7032
 3432TIP3   OH231930   4.729   3.719   7.758  0.5775 -0.6811  0.0875
 3432TIP3    H131931   4.725   3.680   7.671  0.7822  0.6117 -0.5303
 3432TIP3    H231932   4.821   3.714   7.782  0.6314 -0.4359 -0.0642
 3433TIP3   OH231933   6.295   3.010   3.174  0.0253  0.4866 -0.7221
 3433TIP3    H131934   6.368   3.071   3.189 -0.2253  1.2498 -2.4225
 3433TIP3    H231935   6.228   3.062   3.130 -0.8430 -0.6498 -0.7927
 3434TIP3   OH231936   6.651   2.711   8.232  0.1350 -0.0184 -0.7862
 3434TIP3    H131937   6.714   2.738   8.299  0.5651 -1.5849 -0.5118
 3434TIP3    H231938   6.611   2.792   8.202  1.1597  0.8651  0.1629
 3435TIP3   OH231939   3.164   2.178   8.308  0.0855 -0.6317 -0.0580
 3435TIP3    H131940   3.175   2.100   8.361 -0.4620 -0.3865  0.4301
 3435TIP3    H231941   3.218   2.244   8.351 -0.3727 -0.4271  0.2102
 3436TIP3   OH231942   3.066   0.284   2.085  0.3668 -0.2096 -0.3232
 3436TIP3    H131943   3.051   0.258   1.994  1.5323 -0.3498 -0.4892
 3436TIP3    H231944   3.007   0.358   2.099 -0.4644 -0.7445 -0.9177
 3437TIP3   OH231945   2.987   4.110   8.666 -0.3697 -0.2421 -0.1726
 3437TIP3    H131946   2.942   4.158   8.597 -1.9909 -3.4585 -1.5774
 3437TIP3    H231947   3.078   4.103   8.636 -0.4552  0.6384 -0.6490
 3438TIP3   OH231948   5.825   0.057   7.402 -0.2232  0.0183  0.4734
 3438TIP3    H131949   5.915   0.088   7.412  0.1888  0.2547 -2.9406
 3438TIP3    H231950   5.828  -0.034   7.429  0.6898  0.3888  1.7222
 3439TIP3   OH231951   5.267   0.128   0.119  0.1402 -0.2998 -0.9015
 3439TIP3    H131952   5.277   0.065   0.190  0.2421  0.1921 -0.4784
 3439TIP3    H231953   5.333   0.195   0.136  0.4376 -0.3815 -1.6841
 3440TIP3   OH231954   6.586   5.444   7.916 -0.3584  0.5099  0.5284
 3440TIP3    H131955   6.576   5.387   7.992 -0.8138  1.0616  0.8868
 3440TIP3    H231956   6.676   5.476   7.920 -0.4067  0.5995  0.8773
 3441TIP3   OH231957   5.672   3.849   3.135  0.1976  0.4542 -0.1302
 3441TIP3    H131958   5.576   3.850   3.135  0.1896  0.4243  1.0895
 3441TIP3    H231959   5.696   3.938   3.108 -0.1472  0.0911 -1.7406
 3442TIP3   OH231960   6.676   3.909   8.027 -0.2713  0.4740  0.0632
 3442TIP3    H131961   6.602   3.848   8.021 -0.2219  0.3595  0.5054
 3442TIP3    H231962   6.727   3.876   8.102  1.9367 -1.3434 -2.0290
 3443TIP3   OH231963   5.816   6.156   8.220 -0.9608  0.1240  0.3716
 3443TIP3    H131964   5.910   6.140   8.230 -0.4787  1.3460 -1.6807
 3443TIP3    H231965   5.790   6.197   8.303  0.0223 -1.2734  1.4229
 3444TIP3   OH231966   2.215   0.373   1.616 -0.1343  0.2907  0.2571
 3444TIP3    H131967   2.162   0.376   1.536  1.4878  0.1964 -0.8575
 3444TIP3    H231968   2.273   0.449   1.609 -0.3828  0.6418  1.6690
 3445TIP3   OH231969   0.817   1.871   0.155 -0.1277 -0.6456  0.4941
 3445TIP3    H131970   0.899   1.919   0.154  1.7619 -3.6402  0.3958
 3445TIP3    H231971   0.796   1.855   0.063 -1.5641  1.1642  0.4599
 3446TIP3   OH231972   2.034   4.881   9.036 -0.4084  0.4961  0.5429
 3446TIP3    H131973   2.056   4.843   8.952  1.9555  1.1602  0.7825
 3446TIP3    H231974   1.972   4.951   9.015 -1.7223 -0.8779 -0.3209
 3447TIP3   OH231975   6.638   3.634   7.984 -0.1161 -0.2656  0.0518
 3447TIP3    H131976   6.627   3.617   7.890 -0.6895 -1.9892  0.4013
 3447TIP3    H231977   6.728   3.608   8.003  0.6917  2.0058 -0.3697
 3448TIP3   OH231978   3.985   6.510   1.530  0.1520 -0.2769  0.5188
 3448TIP3    H131979   3.974   6.522   1.624  1.4147 -0.9366  0.7720
 3448TIP3    H231980   3.964   6.596   1.492 -1.1208 -0.2173  1.3086
 3449TIP3   OH231981   5.864   1.139   2.179  0.0862 -0.3976  0.4165
 3449TIP3    H131982   5.779   1.176   2.205 -0.8539 -0.8964 -1.7332
 3449TIP3    H231983   5.871   1.058   2.230 -0.7294 -0.3654  0.6015
 3450TIP3   OH231984   1.577   4.423   0.001  0.9480  0.1322 -0.1720
 3450TIP3    H131985   1.524   4.379   0.068  1.3769 -0.6629 -0.3405
 3450TIP3    H231986   1.559   4.516   0.014 -1.3193 -0.1212 -0.8937
 3451TIP3   OH231987   0.247   2.131   8.302 -0.6267  0.0332 -0.6115
 3451TIP3    H131988   0.322   2.091   8.259 -0.0380 -0.4404  0.8140
 3451TIP3    H231989   0.236   2.215   8.258  0.8260  0.1643 -0.7508
 3452TIP3   OH231990   5.655   6.097   7.888 -0.0612  0.6647 -0.6377
 3452TIP3    H131991   5.742   6.068   7.860 -0.0916 -0.5909  0.4852
 3452TIP3    H231992   5.603   6.017   7.892 -0.7906  1.1683  0.3823
 3453TIP3   OH231993   0.444   4.098   1.289  0.3586  0.3276  0.3903
 3453TIP3    H131994   0.425   4.038   1.361  0.2458 -1.5357 -1.1254
 3453TIP3    H231995   0.529   4.069   1.255  0.5608  1.3862 -0.0633
 3454TIP3   OH231996   4.893   3.496   8.716  0.0028 -0.3673 -0.0323
 3454TIP3    H131997   4.926   3.549   8.788 -1.6667  0.7336 -0.0460
 3454TIP3    H231998   4.940   3.413   8.724 -0.1642 -0.2879  2.3315
 3455TIP3   OH231999   2.430   0.496   7.520  0.2814  0.5106  0.0748
 3455TIP3    H132000   2.437   0.588   7.546  0.9741  0.6850 -0.6903
 3455TIP3    H232001   2.341   0.471   7.545 -1.1641  2.3550 -2.6762
 3456TIP3   OH232002   3.680   0.313   1.160  0.6481  0.0819  0.1001
 3456TIP3    H132003   3.736   0.327   1.083  1.8952 -0.1172  0.9361
 3456TIP3    H232004   3.740   0.282   1.228 -0.5249 -0.3166  0.9916
 3457TIP3   OH232005   2.049   3.234   0.856 -0.3968 -0.1699 -0.4924
 3457TIP3    H132006   2.073   3.141   0.855 -1.9924 -0.7164 -4.1183
 3457TIP3    H232007   2.120   3.277   0.808 -1.6170 -0.2564 -2.4822
 3458TIP3   OH232008   1.383   0.170   0.752 -0.4268  0.7125  0.2270
 3458TIP3    H132009   1.354   0.181   0.842 -1.1563  0.8610 -0.0231
 3458TIP3    H232010   1.342   0.242   0.704 -2.6144 -1.1100 -0.8157
 3459TIP3   OH232011   1.507   3.888   2.213 -0.2648  0.2077  0.5681
 3459TIP3    H132012   1.566   3.963   2.217 -0.7186  0.5285  1.5384
 3459TIP3    H232013   1.558   3.819   2.170 -0.4480  1.6163 -2.1228
 3460TIP3   OH232014   0.052   2.673   0.973  0.1218 -0.4241 -0.0642
 3460TIP3    H132015   0.068   2.613   0.901  0.3666 -1.6521  0.9853
 3460TIP3    H232016   0.083   2.627   1.051 -0.9403  0.5018  0.9504
 3461TIP3   OH232017   1.373   3.755   7.126  0.1062 -0.3657  0.2851
 3461TIP3    H132018   1.318   3.833   7.114  1.3017  0.4903  0.1527
 3461TIP3    H232019   1.439   3.783   7.189 -0.1362 -1.6670  1.1467
 3462TIP3   OH232020   3.928   2.954   8.947  0.0738  0.2537  0.0714
 3462TIP3    H132021   3.878   2.874   8.930  1.7726 -0.5864 -1.2298
 3462TIP3    H232022   3.875   3.023   8.907 -1.8540 -0.0172  1.9743
 3463TIP3   OH232023   3.174   1.237   2.132 -0.0312 -0.1444 -0.8615
 3463TIP3    H132024   3.104   1.200   2.186 -0.2467 -0.0868 -1.0977
 3463TIP3    H232025   3.241   1.264   2.195  0.1686 -1.0081 -0.6958
 3464TIP3   OH232026   5.301   5.150   0.669 -0.3232 -0.6257  0.0292
 3464TIP3    H132027   5.293   5.193   0.583 -0.1409  0.0573  0.3439
 3464TIP3    H232028   5.224   5.179   0.718  0.3512  0.2362  0.6153
 3465TIP3   OH232029   5.585   1.553   1.540 -0.3130  0.8601 -0.5820
 3465TIP3    H132030   5.604   1.566   1.633  0.5460 -1.9104 -0.2520
 3465TIP3    H232031   5.520   1.620   1.518 -0.6226  1.5077  2.0444
 3466TIP3   OH232032   1.812   1.168   3.418 -0.2552  0.3733 -0.2553
 3466TIP3    H132033   1.791   1.083   3.380  1.1405 -0.8343  1.4893
 3466TIP3    H232034   1.760   1.172   3.498  1.8026 -0.2345  1.2197
 3467TIP3   OH232035   4.689   5.678   8.789 -0.2012  0.1973 -0.5676
 3467TIP3    H132036   4.629   5.619   8.743 -0.9935  0.3546  0.2345
 3467TIP3    H232037   4.722   5.626   8.862  1.5836 -0.2777 -1.6428
 3468TIP3   OH232038   4.341   4.048   8.147  0.4891 -0.1168 -0.1975
 3468TIP3    H132039   4.281   4.063   8.220 -0.8849 -0.8435 -1.1358
 3468TIP3    H232040   4.320   4.118   8.084 -1.1482 -1.7678 -1.5941
 3469TIP3   OH232041   2.548   1.466   1.958 -0.4107  0.0689 -0.3856
 3469TIP3    H132042   2.516   1.556   1.963 -0.5415 -0.0165  0.7025
 3469TIP3    H232043   2.474   1.413   1.988  0.2023 -0.2556  0.6309
 3470TIP3   OH232044   5.848   3.385   1.696  0.4778 -0.0324 -0.3625
 3470TIP3    H132045   5.766   3.389   1.646  0.5493  1.2725 -0.4066
 3470TIP3    H232046   5.912   3.352   1.633  0.5459  1.5046 -1.1544
 3471TIP3   OH232047   0.036   5.654   8.910  0.0262  0.6909  0.0558
 3471TIP3    H132048   0.121   5.621   8.879 -0.5253  0.0869 -0.8947
 3471TIP3    H232049   0.033   5.629   9.002  1.1553  1.3175  0.2786
 3472TIP3   OH232050   3.586   5.040   0.793 -0.4489 -0.1055  0.1567
 3472TIP3    H132051   3.516   5.087   0.838 -0.7615  0.0365 -0.4732
 3472TIP3    H232052   3.659   5.102   0.789  0.2164 -0.7059  2.0315
 3473TIP3   OH232053   0.643   6.187   1.068 -0.4109  0.4444  0.1481
 3473TIP3    H132054   0.715   6.134   1.035  0.1879  1.5827 -0.4347
 3473TIP3    H232055   0.618   6.146   1.151 -0.8071 -1.4740 -0.8576
 3474TIP3   OH232056   3.133   4.192   8.888  0.5977 -0.1715 -0.8150
 3474TIP3    H132057   3.075   4.144   8.828  1.6084 -2.5879  0.0401
 3474TIP3    H232058   3.174   4.125   8.941  0.9345  1.7905  1.5742
 3475TIP3   OH232059   4.403   5.595   1.466  0.1666  0.1348 -0.1714
 3475TIP3    H132060   4.308   5.582   1.474  0.1840 -0.4164 -0.8115
 3475TIP3    H232061   4.430   5.626   1.553 -0.3445 -1.2499  0.5099
 3476TIP3   OH232062   0.998   5.202   8.514 -0.2435  0.4025 -0.2324
 3476TIP3    H132063   1.050   5.281   8.500  0.3212  0.3080  1.1533
 3476TIP3    H232064   1.055   5.130   8.485  0.1891  0.3418  0.7415
 3477TIP3   OH232065   2.985   5.991   0.430  0.2215 -0.1084 -0.7263
 3477TIP3    H132066   2.893   5.973   0.408  0.1489 -1.0452  0.2388
 3477TIP3    H232067   3.028   6.000   0.346 -1.2585  3.3988 -1.2743
 3478TIP3   OH232068   5.389   6.472   1.540  0.1549  0.2231 -0.2799
 3478TIP3    H132069   5.474   6.434   1.519  0.4541  0.3852  0.5898
 3478TIP3    H232070   5.331   6.441   1.471  1.0594  0.6428 -1.2624
 3479TIP3   OH232071   4.481   6.558   0.282  0.4403  0.0667  0.4872
 3479TIP3    H132072   4.442   6.540   0.368  4.3961  0.4192  2.6230
 3479TIP3    H232073   4.425   6.513   0.220 -2.5174 -0.4502  3.2607
 3480TIP3   OH232074   2.430   0.098   0.372 -0.5005 -0.1825  0.3741
 3480TIP3    H132075   2.484   0.156   0.425  0.9235  1.1489 -2.3457
 3480TIP3    H232076   2.475   0.013   0.375 -1.0773 -0.4721  2.1240
 3481TIP3   OH232077   0.893   1.089   1.174  0.1821 -0.2145 -0.0185
 3481TIP3    H132078   0.934   1.066   1.091  1.7371 -0.3162  0.7520
 3481TIP3    H232079   0.935   1.171   1.200 -0.0869 -0.3274  0.8086
 3482TIP3   OH232080   2.351   0.591   1.533  0.5425 -0.1112 -0.2383
 3482TIP3    H132081   2.333   0.679   1.566  0.2732  0.7531 -2.5095
 3482TIP3    H232082   2.349   0.601   1.438  4.0029 -1.8614 -0.6292
 3483TIP3   OH232083   0.244   4.997   8.939  0.2093 -0.3546 -0.1868
 3483TIP3    H132084   0.291   4.917   8.960  0.4123 -0.4523 -0.9968
 3483TIP3    H232085   0.165   4.993   8.992  0.8621 -0.4337  0.8004
 3484TIP3   OH232086   2.729   5.070   7.160 -0.0216  0.0548  0.7222
 3484TIP3    H132087   2.818   5.106   7.161  0.3132 -0.7373  1.9562
 3484TIP3    H232088   2.673   5.145   7.181  0.3033  0.6472 -0.4685
 3485TIP3   OH232089   2.430   5.339   8.178 -0.1229  0.2651  0.2580
 3485TIP3    H132090   2.484   5.268   8.212 -0.4923 -0.9019 -1.4519
 3485TIP3    H232091   2.447   5.412   8.237  2.1109 -0.5272  0.7208
 3486TIP3   OH232092   5.998   1.456   1.486  0.0188  0.1422 -0.1535
 3486TIP3    H132093   5.983   1.448   1.580 -2.5563  1.2495 -0.3965
 3486TIP3    H232094   6.029   1.546   1.474 -0.3434  0.2356 -0.4164
 3487TIP3   OH232095   1.694   2.386   0.239  0.6335  0.0070 -0.2297
 3487TIP3    H132096   1.784   2.358   0.225  0.6038 -1.2340  1.7774
 3487TIP3    H232097   1.675   2.363   0.330 -2.5482 -2.2202 -1.2745
 3488TIP3   OH232098   3.741   4.637   0.587 -0.0455  0.3572 -0.2889
 3488TIP3    H132099   3.816   4.682   0.626 -0.6066  0.7852  0.3277
 3488TIP3    H232100   3.665   4.680   0.626 -0.6067 -0.3895 -0.5400
 3489TIP3   OH232101   4.120   4.919   1.680 -0.3897 -0.3787 -0.3352
 3489TIP3    H132102   4.101   4.841   1.629 -0.0865 -0.7193  0.0622
 3489TIP3    H232103   4.115   4.992   1.618  0.3676 -0.8224 -0.9261
 3490TIP3   OH232104   2.676   1.340   8.884  0.2613 -0.5036 -0.4940
 3490TIP3    H132105   2.616   1.415   8.887 -0.2397 -0.8795 -0.9008
 3490TIP3    H232106   2.755   1.374   8.842 -0.1759 -0.3478 -1.1998
 3491TIP3   OH232107   5.845   3.305   8.675 -0.7530  0.9016 -0.1282
 3491TIP3    H132108   5.851   3.269   8.586 -0.9166  0.8363 -0.1126
 3491TIP3    H232109   5.911   3.375   8.677  0.3422 -0.0939  0.1666
 3492TIP3   OH232110   4.112   3.888   1.174 -0.5173 -0.0930  0.4436
 3492TIP3    H132111   4.063   3.902   1.255 -1.0920 -2.1562  0.4868
 3492TIP3    H232112   4.200   3.922   1.194 -1.0292  0.7171  1.4376
 3493TIP3   OH232113   5.092   2.390   9.109 -0.0488 -0.3059 -0.4316
 3493TIP3    H132114   5.136   2.428   9.033  1.4279  0.1758  0.6177
 3493TIP3    H232115   5.059   2.465   9.159 -0.5494 -0.5922 -0.3220
 3494TIP3   OH232116   0.681   4.045   2.822  0.1756 -0.1981  0.0544
 3494TIP3    H132117   0.767   4.007   2.809  0.0090 -0.4575 -0.2993
 3494TIP3    H232118   0.684   4.128   2.775  0.7054  0.4777  1.2434
 3495TIP3   OH232119   1.051   4.800   7.906  0.3429  0.3429 -0.3915
 3495TIP3    H132120   1.123   4.779   7.847 -0.5535  0.6677 -1.6404
 3495TIP3    H232121   1.087   4.863   7.968  0.3540  3.1202 -3.0000
 3496TIP3   OH232122   6.394   2.235   2.270  0.5448 -0.3182 -0.1034
 3496TIP3    H132123   6.391   2.269   2.359  1.2150  1.4435 -0.6915
 3496TIP3    H232124   6.466   2.172   2.271  0.8764  0.0611  0.4840
 3497TIP3   OH232125   2.431   1.340   0.420 -0.3103  0.0105  0.1593
 3497TIP3    H132126   2.429   1.333   0.325  0.5825 -1.1290  0.2103
 3497TIP3    H232127   2.422   1.250   0.451 -2.6170  0.5389  1.2179
 3498TIP3   OH232128   5.516   6.581   1.278  0.3103 -0.1389 -0.2342
 3498TIP3    H132129   5.504   6.565   1.372  1.5311  0.2195 -0.0085
 3498TIP3    H232130   5.582   6.650   1.273  0.9419 -0.7956 -1.3784
 3499TIP3   OH232131   0.987   0.662   8.388  0.5167  0.5225  0.6018
 3499TIP3    H132132   1.038   0.723   8.334 -0.5950 -1.0527 -2.4710
 3499TIP3    H232133   0.912   0.714   8.418  0.8069  1.2912  0.0483
 3500TIP3   OH232134   4.193   4.446   1.059  0.4206 -0.0627 -0.2390
 3500TIP3    H132135   4.134   4.506   1.013  2.3422  1.1231 -1.3088
 3500TIP3    H232136   4.261   4.425   0.995  0.8661 -1.8388  0.7528
 3501TIP3   OH232137   1.741   3.738   6.879 -0.6548 -0.3461  0.0802
 3501TIP3    H132138   1.820   3.690   6.901  0.1506  1.4947  1.4771
 3501TIP3    H232139   1.769   3.829   6.872 -2.7159  0.4365  1.0603
 3502TIP3   OH232140   6.542   5.303   8.358 -0.0831 -0.1119 -0.7588
 3502TIP3    H132141   6.616   5.243   8.354 -0.2153 -0.2970 -0.4758
 3502TIP3    H232142   6.554   5.362   8.284  0.6759  0.2448 -0.3668
 3503TIP3   OH232143   4.544   5.207   8.405 -0.6053  0.4665 -0.0084
 3503TIP3    H132144   4.566   5.246   8.490 -1.5836 -2.4704  1.7436
 3503TIP3    H232145   4.628   5.195   8.362 -0.0108  1.3441  0.8556
 3504TIP3   OH232146   3.196   4.651   8.625  0.1719 -0.7038  0.4022
 3504TIP3    H132147   3.178   4.560   8.650 -0.1874 -0.7172  0.1069
 3504TIP3    H232148   3.125   4.701   8.663  0.7553 -0.4421  1.1750
 3505TIP3   OH232149   0.056   5.082   8.473 -0.4005  0.4938  0.0692
 3505TIP3    H132150   0.094   5.076   8.385  0.6830  1.9769  0.3865
 3505TIP3    H232151   0.011   4.998   8.486 -0.7975  0.3340 -1.9760
 3506TIP3   OH232152   0.920   0.590   8.865 -0.5402 -0.1787  0.6657
 3506TIP3    H132153   0.997   0.588   8.809  0.0907  1.0412  1.4402
 3506TIP3    H232154   0.879   0.504   8.854 -1.1193  0.3842 -2.5400
 3507TIP3   OH232155   0.307   0.558   0.627 -0.2814 -0.1069  0.1152
 3507TIP3    H132156   0.225   0.525   0.663  1.5017 -3.6895  1.3033
 3507TIP3    H232157   0.317   0.512   0.544 -0.0577  1.3430 -0.6942
 3508TIP3   OH232158   5.236   5.717   0.279  0.3724  0.6709  0.1406
 3508TIP3    H132159   5.262   5.673   0.360  0.5340  0.2409 -0.1449
 3508TIP3    H232160   5.317   5.752   0.243  1.3567 -3.6337 -2.5827
 3509TIP3   OH232161   0.855   3.679   7.532  0.6324  0.1820 -0.0546
 3509TIP3    H132162   0.858   3.644   7.443 -0.1147 -1.7598  0.6207
 3509TIP3    H232163   0.928   3.636   7.578  0.0178 -0.1415  0.6595
 3510TIP3   OH232164   3.862   2.149   2.636  0.3543 -0.1575  0.7759
 3510TIP3    H132165   3.910   2.200   2.701 -0.4276  0.1255  1.1490
 3510TIP3    H232166   3.901   2.062   2.640 -0.4098 -0.4719  2.4529
 3511TIP3   OH232167   6.570   6.672   0.333  0.3610 -0.7065  0.3500
 3511TIP3    H132168   6.536   6.760   0.351  2.7376  0.4313 -0.2511
 3511TIP3    H232169   6.648   6.665   0.388  0.9349 -1.9185 -0.5626
 3512TIP3   OH232170   2.039   4.332   1.937  0.1849 -0.4591  0.2058
 3512TIP3    H132171   2.045   4.383   1.856 -0.1128 -2.2540 -0.9914
 3512TIP3    H232172   1.953   4.290   1.932  0.1690 -0.6017  1.4617
 3513TIP3   OH232173   6.619   6.272   7.143 -0.2986  0.1801 -0.4605
 3513TIP3    H132174   6.640   6.300   7.233 -1.6980 -1.4189  0.4202
 3513TIP3    H232175   6.596   6.353   7.098  0.2940  1.0007  0.6558
 3514TIP3   OH232176   5.656   0.031   1.790  0.0942 -0.2957 -0.0693
 3514TIP3    H132177   5.569   0.016   1.752 -0.5732  1.5627  0.5825
 3514TIP3    H232178   5.640   0.035   1.884  0.4256  2.2968 -0.0362
 3515TIP3   OH232179   1.694   0.903   2.026 -0.0724  0.2246  0.0307
 3515TIP3    H132180   1.707   0.997   2.030  0.2918  0.1817 -0.1373
 3515TIP3    H232181   1.687   0.883   1.933 -1.8576  0.3134  0.1194
 3516TIP3   OH232182   4.360   5.855   8.297 -0.2808  0.0868  0.2388
 3516TIP3    H132183   4.442   5.860   8.248 -0.2835 -1.7758 -0.0380
 3516TIP3    H232184   4.365   5.926   8.361  0.5491  1.4097 -1.2176
 3517TIP3   OH232185   6.280   4.754   8.811  0.9230 -0.0297  0.8584
 3517TIP3    H132186   6.339   4.686   8.845  1.6735  0.7181  1.0620
 3517TIP3    H232187   6.240   4.714   8.734  0.6421 -1.0506  1.5146
 3518TIP3   OH232188   2.123   5.752   0.287 -0.4005  0.1482  0.2839
 3518TIP3    H132189   2.104   5.723   0.198 -0.1132  1.2054 -0.1407
 3518TIP3    H232190   2.072   5.832   0.297 -1.8427 -0.8772  1.7153
 3519TIP3   OH232191   0.906   3.076   2.369  0.2633  0.1733 -0.2650
 3519TIP3    H132192   0.920   3.148   2.430  5.7361 -1.7188  1.2897
 3519TIP3    H232193   0.899   2.999   2.424 -1.1488 -0.9993 -1.9835
 3520TIP3   OH232194   5.440   0.002   1.662 -0.5909 -0.1592 -0.3182
 3520TIP3    H132195   5.410  -0.081   1.626 -0.7390 -0.1200 -0.2871
 3520TIP3    H232196   5.370   0.064   1.641 -0.0759  0.1530 -1.1335
 3521TIP3   OH232197   2.077   3.670   7.937  0.2327  0.3380  0.2009
 3521TIP3    H132198   2.124   3.659   7.855  1.4527  3.0023  0.4347
 3521TIP3    H232199   1.997   3.717   7.913  0.6583  1.2464  0.5164
 3522TIP3   OH232200   3.359   3.339   8.738 -0.3518 -0.2018 -0.0214
 3522TIP3    H132201   3.429   3.323   8.801 -0.5911 -0.1214  0.2716
 3522TIP3    H232202   3.324   3.251   8.720  0.0633 -0.2802 -0.4526
 3523TIP3   OH232203   0.773   4.283   8.459 -0.0493 -0.5753  0.6029
 3523TIP3    H132204   0.868   4.275   8.451 -0.1143 -1.2164  0.4249
 3523TIP3    H232205   0.743   4.302   8.371 -0.0184  0.5057  0.8038
 3524TIP3   OH232206   2.749   1.812   7.626  0.2744  0.0520  0.5559
 3524TIP3    H132207   2.686   1.858   7.570  0.7102 -0.0654 -0.0476
 3524TIP3    H232208   2.831   1.814   7.576  0.1235 -2.0959  0.1170
 3525TIP3   OH232209   4.564   2.511   2.231 -0.5646  0.1921  0.3124
 3525TIP3    H132210   4.588   2.420   2.251 -0.9627 -0.3535 -1.4767
 3525TIP3    H232211   4.604   2.562   2.301  1.8914 -1.1013 -0.0296
 3526TIP3   OH232212   2.871   1.724   0.549 -0.2565 -0.3376 -0.0898
 3526TIP3    H132213   2.804   1.749   0.485  0.3166  1.2835 -0.1000
 3526TIP3    H232214   2.839   1.758   0.632  0.7468  0.9092 -0.1778
 3527TIP3   OH232215   0.842   1.581   2.791 -0.4012 -0.2243  0.1588
 3527TIP3    H132216   0.927   1.538   2.796 -0.7481 -1.0513 -0.6065
 3527TIP3    H232217   0.853   1.648   2.723 -0.6163 -1.0048 -0.6706
 3528TIP3   OH232218   2.755   4.012   7.640  0.5783  0.1072 -0.6169
 3528TIP3    H132219   2.834   4.065   7.654  0.9043 -0.9540  2.3622
 3528TIP3    H232220   2.685   4.063   7.682  0.2255 -0.2119 -0.8135
 3529TIP3   OH232221   5.766   5.939   1.235  0.2286  0.0443  1.1334
 3529TIP3    H132222   5.727   6.027   1.238 -0.3978 -0.1659 -0.0789
 3529TIP3    H232223   5.700   5.885   1.191  0.4192 -1.1465  2.2543
 3530TIP3   OH232224   6.129   2.580   8.473  0.2504  0.2082  0.4171
 3530TIP3    H132225   6.221   2.604   8.461 -0.3104  1.9758 -0.8119
 3530TIP3    H232226   6.111   2.519   8.401  0.4609 -0.2098  0.7116
 3531TIP3   OH232227   3.377   4.716   7.661 -0.0545  0.0495 -0.1719
 3531TIP3    H132228   3.306   4.696   7.600  0.5441 -2.3964 -0.1390
 3531TIP3    H232229   3.434   4.775   7.612 -1.3649  0.9323 -0.6880
 3532TIP3   OH232230   1.725   0.076   2.326  0.4751  0.2488  0.0385
 3532TIP3    H132231   1.635   0.052   2.346  1.0260 -0.9929  1.1473
 3532TIP3    H232232   1.733   0.063   2.232 -0.3908 -0.0315 -0.0043
 3533TIP3   OH232233   2.477   5.312   1.036 -0.1330 -0.0768 -0.1470
 3533TIP3    H132234   2.438   5.225   1.034  0.2058 -0.3051  1.6669
 3533TIP3    H232235   2.569   5.298   1.057 -0.6199  0.7535  3.2239
 3534TIP3   OH232236   3.936   5.524   1.953  0.9929  0.2025  0.6189
 3534TIP3    H132237   3.934   5.575   2.034 -0.2558 -0.0600  0.7718
 3534TIP3    H232238   3.925   5.434   1.981  0.5501  0.1101  0.1654
 3535TIP3   OH232239   6.097   2.379   8.293 -0.3816  0.2851  0.2688
 3535TIP3    H132240   6.035   2.342   8.356  0.3754 -0.2414  0.7216
 3535TIP3    H232241   6.047   2.386   8.212 -0.8070 -0.9058  0.4118
 3536TIP3   OH232242   0.636   0.511   8.503 -0.1130 -0.6746  0.7159
 3536TIP3    H132243   0.658   0.598   8.468 -1.8322 -0.5057 -0.0634
 3536TIP3    H232244   0.554   0.525   8.551  0.0014 -1.7292  1.2379
 3537TIP3   OH232245   6.596   4.717   2.333  0.1459  0.0512 -0.0773
 3537TIP3    H132246   6.543   4.649   2.289  0.0774  0.6628 -0.9558
 3537TIP3    H232247   6.615   4.679   2.419 -2.0018 -0.0716  0.4089
 3538TIP3   OH232248   6.424   3.257   9.027 -0.0216  0.0732 -0.2745
 3538TIP3    H132249   6.457   3.308   9.101 -0.5370  2.4282 -1.5914
 3538TIP3    H232250   6.490   3.189   9.013  0.9927  0.7239  1.1525
 3539TIP3   OH232251   4.363   4.631   2.353  0.1916  0.0937 -0.1441
 3539TIP3    H132252   4.334   4.721   2.337 -1.2298 -0.2002  0.6336
 3539TIP3    H232253   4.300   4.597   2.416  2.5522 -0.4617  2.0562
 3540TIP3   OH232254   3.004   1.871   7.498  0.5679  0.5472  0.2746
 3540TIP3    H132255   3.041   1.949   7.539  0.2226  1.1007 -0.4470
 3540TIP3    H232256   2.958   1.904   7.421 -2.3264  0.0658  1.6551
 3541TIP3   OH232257   5.116   1.023   8.451  0.2476  0.2070  0.1263
 3541TIP3    H132258   5.202   1.029   8.409 -0.0063 -0.1338 -0.4596
 3541TIP3    H232259   5.103   1.109   8.491  0.7473  0.3488 -0.0040
 3542TIP3   OH232260   4.423   5.541   8.313  1.0044  0.0942  0.1291
 3542TIP3    H132261   4.432   5.636   8.306  1.0629 -0.0378 -2.4089
 3542TIP3    H232262   4.331   5.528   8.339  0.4639  0.8496 -1.2802
 3543TIP3   OH232263   3.527   3.243   8.928  0.4323  0.0200  0.6960
 3543TIP3    H132264   3.487   3.175   8.981  0.4419 -0.3577  0.2225
 3543TIP3    H232265   3.615   3.254   8.965  0.2665  0.1062  1.0663
 3544TIP3   OH232266   3.901   2.806   7.514  0.5182 -0.1007  0.4931
 3544TIP3    H132267   3.986   2.802   7.558  1.2618  1.0280 -0.7664
 3544TIP3    H232268   3.909   2.879   7.453 -0.6137 -1.3042 -1.1880
 3545TIP3   OH232269   0.310   6.604   7.690 -0.1667  1.0101  0.0683
 3545TIP3    H132270   0.254   6.566   7.622 -1.4088 -0.2881  1.7232
 3545TIP3    H232271   0.267   6.687   7.712 -1.4167  0.1224  1.1738
 3546TIP3   OH232272   4.801   3.160   0.242 -0.0361  0.9121 -0.2490
 3546TIP3    H132273   4.889   3.198   0.238 -0.0801  1.0599  0.1708
 3546TIP3    H232274   4.761   3.185   0.159  0.3933  0.6564 -0.5355
 3547TIP3   OH232275   4.009   0.810   1.980  0.3760 -0.3295  0.2986
 3547TIP3    H132276   3.929   0.761   1.958  0.8643 -0.7380 -0.6396
 3547TIP3    H232277   3.996   0.837   2.071 -0.9451 -0.1589  0.0918
 3548TIP3   OH232278   5.981   5.619   2.404 -0.7467 -0.2245  0.0722
 3548TIP3    H132279   6.005   5.664   2.485 -0.0825  1.1471 -0.8528
 3548TIP3    H232280   5.886   5.612   2.407 -0.6686 -1.0090  1.3686
 3549TIP3   OH232281   4.229   3.307   1.308  0.1795  0.2976 -0.3440
 3549TIP3    H132282   4.150   3.297   1.254 -1.5686  1.0793  1.8749
 3549TIP3    H232283   4.219   3.393   1.349  2.2889  0.4687 -0.0786
 3550TIP3   OH232284   6.129   5.868   8.518  0.1519 -0.4109 -0.3548
 3550TIP3    H132285   6.170   5.942   8.564  2.2428  0.1807 -2.9293
 3550TIP3    H232286   6.181   5.792   8.545 -0.0137 -0.4298 -0.0857
 3551TIP3   OH232287   0.028   2.456   8.321 -0.6332 -0.0566 -0.4862
 3551TIP3    H132288   0.020   2.549   8.301 -1.4161  0.1936  0.8570
 3551TIP3    H232289   0.121   2.436   8.307 -0.3830  1.0123 -0.4458
 3552TIP3   OH232290   3.634   1.408   8.261  0.2622 -0.0721  0.0121
 3552TIP3    H132291   3.646   1.468   8.335  1.2630  0.0313 -0.2138
 3552TIP3    H232292   3.721   1.404   8.219 -0.4712  0.5205 -1.6588
 3553TIP3   OH232293   4.994   1.942   0.501  0.0368  0.2799  0.0345
 3553TIP3    H132294   4.911   1.987   0.519  0.7246  0.6604  2.5716
 3553TIP3    H232295   5.055   2.012   0.477 -0.0235  0.1378 -0.5656
 3554TIP3   OH232296   2.307   4.729   8.023 -0.3737  0.4843 -0.0415
 3554TIP3    H132297   2.281   4.758   7.936 -1.9326 -1.1405 -0.1544
 3554TIP3    H232298   2.356   4.648   8.009 -0.3852  0.3597  0.5773
 3555TIP3   OH232299   1.008   6.304   0.221 -0.8328 -0.3818  0.2274
 3555TIP3    H132300   0.960   6.374   0.265 -0.4925  0.3539 -0.5474
 3555TIP3    H232301   1.062   6.265   0.289 -0.7141  0.3827  0.5790
 3556TIP3   OH232302   3.230   5.854   7.499  0.3508  0.4427 -0.2055
 3556TIP3    H132303   3.170   5.885   7.431  0.3550 -0.0996 -0.4631
 3556TIP3    H232304   3.298   5.921   7.504 -0.1131  0.9161 -0.1213
 3557TIP3   OH232305   4.257   1.760   8.081 -0.4351 -0.2052 -0.2203
 3557TIP3    H132306   4.342   1.786   8.043 -0.6765 -0.3730 -0.8971
 3557TIP3    H232307   4.196   1.826   8.047 -0.0822  1.9199  2.8814
 3558TIP3   OH232308   5.715   0.414   0.460  0.0561  0.4423  0.0278
 3558TIP3    H132309   5.791   0.396   0.405 -0.9605 -1.0682 -0.9634
 3558TIP3    H232310   5.749   0.416   0.549  1.0934 -1.4452 -0.2896
 3559TIP3   OH232311   1.597   0.068   7.676  0.0613  0.0664  0.3551
 3559TIP3    H132312   1.690   0.063   7.656 -0.3047 -2.5457 -1.1974
 3559TIP3    H232313   1.593   0.082   7.771  1.9587  2.6627  0.1403
 3560TIP3   OH232314   1.632   3.879   0.719 -0.0218  0.3201  0.5540
 3560TIP3    H132315   1.654   3.855   0.629 -0.5341  0.9910  0.2416
 3560TIP3    H232316   1.699   3.837   0.772  0.5338  0.2664 -0.1769
 3561TIP3   OH232317   4.260   0.743   9.077 -0.4372  0.7575  0.0247
 3561TIP3    H132318   4.293   0.672   9.132 -0.0962  0.6987 -0.2554
 3561TIP3    H232319   4.294   0.724   8.990 -1.0590  0.7988 -0.2326
 3562TIP3   OH232320   1.637   3.608   7.981 -0.0534 -0.2415  0.2359
 3562TIP3    H132321   1.690   3.687   7.985 -0.4741  0.0885 -0.3866
 3562TIP3    H232322   1.700   3.536   7.988  0.4566  0.1414 -0.2806
 3563TIP3   OH232323   4.198   4.354   9.003 -0.5588 -0.4263 -0.2572
 3563TIP3    H132324   4.248   4.326   8.926 -0.7067 -0.5757 -0.2991
 3563TIP3    H232325   4.176   4.446   8.985  0.0527 -0.2333 -0.0549
 3564TIP3   OH232326   0.806   2.596   8.248 -0.0560  0.3145 -0.0288
 3564TIP3    H132327   0.868   2.654   8.292  0.7362 -0.5982  0.0886
 3564TIP3    H232328   0.745   2.655   8.204 -0.7200  1.2718  2.0572
 3565TIP3   OH232329   5.374   4.030   2.542 -0.0340  0.2783  0.4271
 3565TIP3    H132330   5.399   4.006   2.631  1.7835  1.4507  0.2753
 3565TIP3    H232331   5.364   4.126   2.545  1.4981  0.5229 -0.9156
 3566TIP3   OH232332   2.775   1.564   2.116  1.1100 -0.3211 -0.2097
 3566TIP3    H132333   2.721   1.541   2.040  2.6545  0.8247 -1.7489
 3566TIP3    H232334   2.778   1.484   2.168 -0.3575 -1.0134 -1.1088
 3567TIP3   OH232335   1.186   5.124   1.519 -0.4923  0.1424 -0.0734
 3567TIP3    H132336   1.157   5.198   1.570 -0.9711  0.5308 -0.8876
 3567TIP3    H232337   1.222   5.162   1.439 -0.2774 -0.4718 -0.2798
 3568TIP3   OH232338   0.145   3.474   0.717  0.2336  0.0250  0.2658
 3568TIP3    H132339   0.167   3.412   0.648  1.4254 -0.8134  1.3476
 3568TIP3    H232340   0.195   3.552   0.696  2.0739 -0.8544  1.1053
 3569TIP3   OH232341   4.157   1.127   1.536 -0.2492  0.0872  0.2978
 3569TIP3    H132342   4.093   1.198   1.538  0.3053  0.5812  1.3784
 3569TIP3    H232343   4.108   1.052   1.503 -1.1839  0.6496  0.3605
 3570TIP3   OH232344   5.356   4.834   8.279 -0.6098 -0.0015  0.4561
 3570TIP3    H132345   5.294   4.774   8.237 -2.4442  1.4313  0.9590
 3570TIP3    H232346   5.366   4.800   8.368 -1.3649  0.2041  0.6325
 3571TIP3   OH232347   2.283   4.734   2.844  0.4970  0.2503 -0.2600
 3571TIP3    H132348   2.258   4.645   2.869  1.7253 -0.3615 -1.0871
 3571TIP3    H232349   2.200   4.781   2.836 -0.1949 -0.9157 -0.1654
 3572TIP3   OH232350   0.097   6.410   8.651  0.2973  0.1980  0.2043
 3572TIP3    H132351   0.105   6.455   8.736 -0.2005  0.7131 -0.0093
 3572TIP3    H232352   0.187   6.389   8.627  0.4606  0.1890  0.7886
 3573TIP3   OH232353   3.740   5.013   3.029  0.2565 -0.6257  0.2279
 3573TIP3    H132354   3.654   5.020   2.987 -0.6726 -1.6627  1.8564
 3573TIP3    H232355   3.802   5.037   2.960 -1.2605 -0.9563 -1.3375
 3574TIP3   OH232356   3.399   6.407   1.988 -0.2440 -0.0345  0.0732
 3574TIP3    H132357   3.407   6.353   2.067 -0.9341 -1.1505 -0.5841
 3574TIP3    H232358   3.306   6.403   1.966  0.2321 -1.4396 -1.9124
 3575TIP3   OH232359   2.092   2.060   1.372 -0.0331  0.1005  0.3965
 3575TIP3    H132360   2.024   1.997   1.394 -0.3634  1.0751  2.2784
 3575TIP3    H232361   2.172   2.007   1.368 -0.5799 -0.7304  0.0123
 3576TIP3   OH232362   6.166   4.576   0.375  0.0575  0.1752  0.4517
 3576TIP3    H132363   6.157   4.615   0.288  1.6342 -1.3778 -0.4717
 3576TIP3    H232364   6.107   4.628   0.431  0.0967  2.1464 -1.2147
 3577TIP3   OH232365   0.764   2.768   0.657  0.2305  0.1383 -0.5867
 3577TIP3    H132366   0.839   2.709   0.651  0.2275 -0.0029  0.5985
 3577TIP3    H232367   0.688   2.709   0.659  0.1313  0.2511 -0.8851
 3578TIP3   OH232368   4.500   5.440   2.579 -0.2999  0.2116 -0.3565
 3578TIP3    H132369   4.439   5.485   2.638 -1.1074 -0.1062 -0.9265
 3578TIP3    H232370   4.562   5.396   2.637 -0.4494  0.7682  0.2349
 3579TIP3   OH232371   1.872   0.438   0.861 -0.0785 -0.1368 -0.0173
 3579TIP3    H132372   1.913   0.521   0.838 -1.2813  0.3365 -0.5353
 3579TIP3    H232373   1.792   0.435   0.809 -0.4304 -1.2882  0.5419
 3580TIP3   OH232374   0.688   4.470   2.249 -0.1300  0.2089  0.1919
 3580TIP3    H132375   0.696   4.377   2.272 -0.3519  0.5204  1.6331
 3580TIP3    H232376   0.653   4.511   2.328 -0.2368  1.4945 -0.4988
 3581TIP3   OH232377   2.147   2.026   7.610 -0.5531 -0.2550 -0.2786
 3581TIP3    H132378   2.057   2.000   7.627 -0.5717  0.0864  0.1597
 3581TIP3    H232379   2.169   2.085   7.682 -0.1799  0.1397 -0.7112
 3582TIP3   OH232380   4.833   3.219   8.420  0.0008  0.1337  0.1582
 3582TIP3    H132381   4.831   3.300   8.369 -0.6403  0.0869  0.1007
 3582TIP3    H232382   4.902   3.166   8.379  2.8514  1.9362  2.2035
 3583TIP3   OH232383   2.907   2.187   7.849  0.2125 -0.2607  0.2592
 3583TIP3    H132384   2.856   2.111   7.877 -1.0884  0.3235 -0.4437
 3583TIP3    H232385   2.842   2.246   7.810  1.1675  1.2781  0.9110
 3584TIP3   OH232386   3.984   0.134   1.107  0.6294  0.5046  0.6502
 3584TIP3    H132387   4.020   0.201   1.166 -1.0268  2.6701 -0.6728
 3584TIP3    H232388   3.928   0.182   1.046  0.0686 -1.9978 -0.9731
 3585TIP3   OH232389   0.272   5.149   7.967 -0.2853  0.1459  0.6662
 3585TIP3    H132390   0.186   5.116   7.994  0.3333 -1.8032  0.3550
 3585TIP3    H232391   0.317   5.073   7.932  1.5843  1.1454  0.7989
 3586TIP3   OH232392   4.261   4.873   2.218  0.0063  0.0577  0.7925
 3586TIP3    H132393   4.170   4.849   2.201 -0.2119  0.3691  1.4943
 3586TIP3    H232394   4.256   4.941   2.285  0.6592  1.3769 -0.4411
 3587TIP3   OH232395   6.068   0.406   1.379  0.2163  0.2437  0.4894
 3587TIP3    H132396   6.042   0.379   1.291  0.0929 -0.4952  0.7496
 3587TIP3    H232397   6.075   0.325   1.429 -1.9511  0.7673  1.7843
 3588TIP3   OH232398   6.367   4.137   8.798 -0.4705  0.1669 -0.0517
 3588TIP3    H132399   6.417   4.208   8.759  1.4864 -1.0659  0.0993
 3588TIP3    H232400   6.319   4.099   8.725  1.0091 -0.3776 -0.7750
 3589TIP3   OH232401   0.826   2.747   1.880  0.3852 -0.1150  0.6397
 3589TIP3    H132402   0.798   2.661   1.910  0.0601  0.4160  1.9023
 3589TIP3    H232403   0.745   2.788   1.848  0.5705 -0.3319 -0.1317
 3590TIP3   OH232404   3.152   0.855   7.008  0.3141 -0.1145  0.1604
 3590TIP3    H132405   3.059   0.875   7.017 -0.1159 -1.6011 -0.6721
 3590TIP3    H232406   3.197   0.933   7.041 -1.2228  1.5433 -1.5028
 3591TIP3   OH232407   3.421   5.498   6.995  0.0454 -0.6348  0.0372
 3591TIP3    H132408   3.397   5.407   6.978 -0.4544 -1.4438  4.2054
 3591TIP3    H232409   3.511   5.495   7.026  0.6130  0.5863 -1.3416
 3592TIP3   OH232410   5.932   1.406   7.636  0.1863 -0.0258 -0.0378
 3592TIP3    H132411   5.963   1.360   7.558 -0.6446 -0.4716 -0.1221
 3592TIP3    H232412   5.979   1.489   7.635  2.9741 -1.4634  0.9869
 3593TIP3   OH232413   0.922   0.363   3.090  0.0840 -0.4183 -0.2977
 3593TIP3    H132414   0.858   0.429   3.117  1.3304  0.3827  0.8618
 3593TIP3    H232415   0.975   0.348   3.169  0.8335 -1.6221 -0.9985
 3594TIP3   OH232416   4.318   2.677   7.883  0.2568 -0.1040 -0.1828
 3594TIP3    H132417   4.244   2.681   7.943  0.4052 -2.3193  0.2329
 3594TIP3    H232418   4.379   2.744   7.915 -1.1534  1.1425 -0.0110
 3595TIP3   OH232419   4.920   1.210   8.486 -0.2392 -0.2743 -0.1405
 3595TIP3    H132420   4.843   1.157   8.506 -0.6430  0.6199  0.7327
 3595TIP3    H232421   4.889   1.274   8.422 -0.0642 -0.2933 -0.2464
 3596TIP3   OH232422   3.317   0.806   2.437 -0.0149 -0.1877  0.4839
 3596TIP3    H132423   3.380   0.877   2.454  0.5146 -0.7002  0.7093
 3596TIP3    H232424   3.273   0.793   2.521 -1.5353  1.2058 -0.0504
 3597TIP3   OH232425   0.772   3.421   2.724 -0.1200  0.1001  0.5626
 3597TIP3    H132426   0.865   3.405   2.736  0.5481  0.5448 -3.0175
 3597TIP3    H232427   0.736   3.335   2.700 -0.1846  0.3487 -0.2451
 3598TIP3   OH232428   4.982   0.066   2.295  0.0587 -0.4489 -0.1111
 3598TIP3    H132429   5.070   0.101   2.314 -0.4062  1.6140 -1.4174
 3598TIP3    H232430   4.930   0.093   2.371  0.3267 -0.7607  0.1855
 3599TIP3   OH232431   3.349   5.357   8.325  0.0583 -0.3144 -0.2724
 3599TIP3    H132432   3.370   5.301   8.399 -1.1318  0.0799  0.3788
 3599TIP3    H232433   3.383   5.310   8.248  0.4300 -1.1779  0.4089
 3600TIP3   OH232434   3.682   6.364   8.846  0.0495 -0.1474 -0.2790
 3600TIP3    H132435   3.719   6.425   8.910  3.0809 -0.9868 -1.0562
 3600TIP3    H232436   3.648   6.292   8.898 -1.6893  1.2174  0.5447
 3601TIP3   OH232437   1.719   2.456   1.839 -0.1637  0.5609 -0.3833
 3601TIP3    H132438   1.751   2.367   1.823 -1.9156 -0.2575  0.3683
 3601TIP3    H232439   1.699   2.457   1.932  0.4152  1.9742 -0.2555
 3602TIP3   OH232440   4.445   2.821   0.614 -0.3164 -0.4016 -0.2781
 3602TIP3    H132441   4.460   2.728   0.626 -1.1299 -0.5624 -0.4472
 3602TIP3    H232442   4.351   2.832   0.625 -0.7066 -0.0943 -3.1698
 3603TIP3   OH232443   6.621   0.425   7.051 -0.1114  0.3572  0.2735
 3603TIP3    H132444   6.594   0.484   7.121  0.9390  1.1140  0.0572
 3603TIP3    H232445   6.541   0.378   7.028 -0.5067  0.1740  1.8808
 3604TIP3   OH232446   1.130   6.484   0.627  0.2311  0.1966 -0.1745
 3604TIP3    H132447   1.181   6.464   0.706 -0.2428  0.3313  0.1692
 3604TIP3    H232448   1.176   6.558   0.587  1.9269 -1.4233 -1.3862
 3605TIP3   OH232449   3.045   3.430   2.079  0.0633  0.1092  0.0781
 3605TIP3    H132450   3.027   3.416   1.986  0.4554  1.0143 -0.1383
 3605TIP3    H232451   3.124   3.378   2.096  0.0317 -0.0025 -0.1054
 3606TIP3   OH232452   0.066   0.512   1.335 -0.1517  0.0222  0.2625
 3606TIP3    H132453   0.035   0.426   1.362  1.2588 -0.3580  0.7450
 3606TIP3    H232454   0.139   0.531   1.394 -0.5826  1.6573  0.3268
 3607TIP3   OH232455   2.669   5.222   1.502 -0.3020 -0.1832  0.2701
 3607TIP3    H132456   2.585   5.241   1.461 -0.6937 -0.8425  0.7504
 3607TIP3    H232457   2.669   5.127   1.514  0.7277 -0.2492 -0.1848
 3608TIP3   OH232458   2.217   5.709   8.413  0.1875  0.1762 -0.1591
 3608TIP3    H132459   2.273   5.639   8.448  1.2356  0.6830 -0.7813
 3608TIP3    H232460   2.129   5.682   8.438  0.6406 -0.9173  0.3924
 3609TIP3   OH232461   4.792   1.357   7.874  0.7211 -0.3217 -0.4853
 3609TIP3    H132462   4.882   1.368   7.843  0.4364  2.0128 -0.6308
 3609TIP3    H232463   4.738   1.368   7.795  0.2579 -1.6421 -0.3893
 3610TIP3   OH232464   2.802   5.871   8.402 -0.0162 -0.6146  0.4235
 3610TIP3    H132465   2.877   5.883   8.344 -0.1530 -1.4489  0.0645
 3610TIP3    H232466   2.767   5.959   8.415 -0.2876 -0.4631 -1.1654
 3611TIP3   OH232467   2.086   1.034   0.307 -0.2968 -0.5937  0.1986
 3611TIP3    H132468   2.037   1.098   0.357 -0.5087 -0.0909 -0.6265
 3611TIP3    H232469   2.023   1.000   0.243  0.1105 -0.8032 -0.0990
 3612TIP3   OH232470   4.417   0.025   7.178 -0.8501  0.2042 -0.1598
 3612TIP3    H132471   4.500   0.044   7.222 -0.7240 -0.6963  0.0154
 3612TIP3    H232472   4.423  -0.068   7.155 -1.2517  0.4648 -1.3528
 3613TIP3   OH232473   0.780   3.574   0.405 -0.0801 -0.2378 -0.2097
 3613TIP3    H132474   0.692   3.545   0.381  0.7365 -1.5554 -1.7621
 3613TIP3    H232475   0.820   3.497   0.447  0.3639  0.3499  0.4742
 3614TIP3   OH232476   1.121   3.261   9.193 -0.0844  0.4142 -0.0299
 3614TIP3    H132477   1.216   3.252   9.201  0.0861 -0.0238 -1.9273
 3614TIP3    H232478   1.097   3.329   9.255  1.2551 -0.4527  1.5152
 3615TIP3   OH232479   4.461   2.298   8.366 -0.0760 -0.1704  0.1506
 3615TIP3    H132480   4.531   2.234   8.385  0.1626  0.1018  0.1960
 3615TIP3    H232481   4.504   2.365   8.313 -0.1719  0.2701  0.6265
 3616TIP3   OH232482   1.106   6.371   2.636  0.2143  0.0229  0.6918
 3616TIP3    H132483   1.067   6.458   2.649 -0.1395 -0.0275 -0.0199
 3616TIP3    H232484   1.046   6.326   2.577  1.4090 -0.0053 -0.5368
 3617TIP3   OH232485   4.578   0.898   2.374 -0.5139  0.1471  0.4477
 3617TIP3    H132486   4.521   0.941   2.310 -1.8782 -0.4886  1.1701
 3617TIP3    H232487   4.617   0.825   2.327 -0.2672  0.6092 -0.0709
 3618TIP3   OH232488   1.232   2.378   9.162  0.4080 -0.1209  0.5958
 3618TIP3    H132489   1.214   2.462   9.204 -0.6021  0.4190 -0.8149
 3618TIP3    H232490   1.292   2.333   9.221  1.5898  1.9035  1.0131
 3619TIP3   OH232491   6.327   1.461   1.178  0.1248 -0.2204 -0.0545
 3619TIP3    H132492   6.383   1.399   1.132 -1.2672 -0.1445 -1.9863
 3619TIP3    H232493   6.240   1.420   1.177 -0.2194  0.3911  1.4153
 3620TIP3   OH232494   6.519   2.866   1.744 -0.2753 -0.3356 -0.3600
 3620TIP3    H132495   6.575   2.881   1.669  0.5494  0.4261  0.3942
 3620TIP3    H232496   6.485   2.777   1.731  1.7372 -1.1314 -0.4209
 3621TIP3   OH232497   6.660   3.345   1.626 -0.1592 -0.2260  0.3067
 3621TIP3    H132498   6.626   3.420   1.675  1.3561 -0.0618  1.1711
 3621TIP3    H232499   6.622   3.354   1.539 -0.1193  1.4624  0.4305
 3622TIP3   OH232500   5.823   0.397   0.706 -0.0152 -0.3861 -0.0072
 3622TIP3    H132501   5.854   0.486   0.725  0.3195  0.0837 -2.4195
 3622TIP3    H232502   5.868   0.342   0.769 -0.2113  1.1378  1.5345
 3623TIP3   OH232503   0.755   3.048   1.928 -0.4799 -0.1556  0.0393
 3623TIP3    H132504   0.820   2.983   1.956 -1.0641 -0.6323  0.3220
 3623TIP3    H232505   0.723   3.087   2.009  0.0112  0.6462 -0.1387
 3624TIP3   OH232506   3.671   4.962   7.206  0.1397 -0.2189 -0.0910
 3624TIP3    H132507   3.644   4.870   7.196  1.5043 -0.5644 -0.8763
 3624TIP3    H232508   3.695   4.989   7.118  1.7029  0.2386  0.4417
 3625TIP3   OH232509   1.510   3.969   9.178  0.6457 -0.8313 -0.2228
 3625TIP3    H132510   1.570   4.027   9.224  0.0396  0.0777 -0.5627
 3625TIP3    H232511   1.562   3.935   9.105  1.4475 -1.8702  0.7830
 3626TIP3   OH232512   4.222   2.442   7.647 -0.0769 -0.0644 -0.6885
 3626TIP3    H132513   4.165   2.379   7.603  0.9391 -0.7198 -1.1246
 3626TIP3    H232514   4.165   2.490   7.706 -1.4146  0.5407 -2.4064
 3627TIP3   OH232515   1.863   1.386   0.739 -0.4874 -0.7481 -0.3292
 3627TIP3    H132516   1.782   1.336   0.728 -0.9093 -0.4886  1.2811
 3627TIP3    H232517   1.833   1.474   0.764  0.2841 -0.4413 -0.4573
 3628TIP3   OH232518   3.226   0.217   2.385  0.6185  0.2789 -0.2100
 3628TIP3    H132519   3.286   0.152   2.350 -0.2588 -1.4808  1.3572
 3628TIP3    H232520   3.152   0.217   2.323 -0.0893 -1.4416  0.5706
 3629TIP3   OH232521   6.236   0.685   2.338  0.6297  0.4792 -0.5443
 3629TIP3    H132522   6.253   0.645   2.253 -1.3224 -1.3220 -0.1714
 3629TIP3    H232523   6.278   0.627   2.401 -1.0135 -0.2962 -0.0918
 3630TIP3   OH232524   0.563   5.441   8.486  0.7813  0.9283 -0.5024
 3630TIP3    H132525   0.574   5.478   8.574 -0.5951  0.6044 -0.1697
 3630TIP3    H232526   0.499   5.371   8.498  0.7560  0.7277 -1.7288
 3631TIP3   OH232527   0.595   1.954   7.295 -0.1585 -0.1846 -0.3246
 3631TIP3    H132528   0.562   1.905   7.371 -1.7229 -0.4385 -1.1376
 3631TIP3    H232529   0.690   1.949   7.303 -0.2311  0.9028  2.3396
 3632TIP3   OH232530   0.425   3.678   8.764 -0.3515  0.2624  0.0066
 3632TIP3    H132531   0.448   3.601   8.816  0.2179 -0.2723 -0.9797
 3632TIP3    H232532   0.348   3.714   8.806 -1.2411 -1.4420 -0.0611
 3633TIP3   OH232533   5.468   3.729   8.025 -0.1465  0.8197 -0.8469
 3633TIP3    H132534   5.527   3.686   7.964 -0.1646 -0.3148 -0.0944
 3633TIP3    H232535   5.434   3.805   7.977 -0.3853 -0.1909 -2.3459
 3634TIP3   OH232536   5.816   0.296   1.991  0.1032  0.1711  0.1591
 3634TIP3    H132537   5.828   0.346   2.072 -1.1336 -0.2943  0.6553
 3634TIP3    H232538   5.732   0.251   2.003 -0.6557  0.9492 -1.8221
 3635TIP3   OH232539   6.399   2.225   1.216  0.4306  0.2852 -0.5795
 3635TIP3    H132540   6.493   2.237   1.227  0.5179 -0.2608 -0.6684
 3635TIP3    H232541   6.385   2.131   1.231 -0.3389  0.6283  1.1118
 3636TIP3   OH232542   2.659   5.029   1.172 -0.0066 -0.4969  0.1697
 3636TIP3    H132543   2.671   4.989   1.258 -1.2718  0.5265  0.8653
 3636TIP3    H232544   2.671   4.958   1.110 -1.6191 -1.8423  1.3298
 3637TIP3   OH232545   0.242   1.316   0.120 -0.5410  0.0690 -0.2594
 3637TIP3    H132546   0.172   1.261   0.156 -1.1949  0.4125 -0.9800
 3637TIP3    H232547   0.315   1.302   0.180 -1.2734 -0.1626  0.6199
 3638TIP3   OH232548   6.586   3.596   0.845 -0.0379 -0.5629  0.1473
 3638TIP3    H132549   6.601   3.585   0.939  2.0123 -0.6757 -0.1551
 3638TIP3    H232550   6.667   3.634   0.812 -0.7029 -0.5807 -1.6029
 3639TIP3   OH232551   0.204   2.751   1.887  0.1869 -0.4907 -0.0984
 3639TIP3    H132552   0.186   2.841   1.915  2.8785  1.4262 -3.6773
 3639TIP3    H232553   0.118   2.710   1.883 -1.2944  2.2950  0.5850
 3640TIP3   OH232554   5.498   4.010   2.775  0.2141  0.2346  0.2068
 3640TIP3    H132555   5.476   4.051   2.859  1.3609  0.2983  0.5033
 3640TIP3    H232556   5.578   4.056   2.747 -0.4873  0.6393 -1.2312
 3641TIP3   OH232557   5.793   4.610   0.411 -0.5014  0.3609  0.2563
 3641TIP3    H132558   5.827   4.536   0.361 -0.4105  0.7752 -0.3144
 3641TIP3    H232559   5.698   4.598   0.409 -0.4380 -0.3614  1.1629
 3642TIP3   OH232560   5.245   1.560   8.460 -0.1725  0.4644 -0.4130
 3642TIP3    H132561   5.303   1.493   8.495  0.1161 -0.0278 -1.7737
 3642TIP3    H232562   5.201   1.596   8.537  2.5866  1.5180  0.8059
 3643TIP3   OH232563   3.168   4.157   7.482  0.0975  0.4293 -0.3927
 3643TIP3    H132564   3.209   4.163   7.569  0.8613 -0.0718 -0.7037
 3643TIP3    H232565   3.223   4.212   7.427 -0.0400  0.2750 -0.6824
 3644TIP3   OH232566   4.189   2.221   1.825 -0.8570 -0.0995  0.0718
 3644TIP3    H132567   4.168   2.141   1.777  2.0583 -1.3942  0.7403
 3644TIP3    H232568   4.169   2.200   1.916  2.4749 -1.2206  0.6638
 3645TIP3   OH232569   3.726   3.743   2.945  0.9672  0.0019  0.1356
 3645TIP3    H132570   3.661   3.690   2.991 -0.7469  1.0656 -0.9445
 3645TIP3    H232571   3.695   3.744   2.854  2.8746  0.0085 -0.5461
 3646TIP3   OH232572   4.816   6.327   2.239  0.2530  0.0601  0.1149
 3646TIP3    H132573   4.853   6.399   2.289  0.3798  0.3328 -0.3604
 3646TIP3    H232574   4.722   6.332   2.253  0.0122  1.7170 -1.6845
 3647TIP3   OH232575   5.475   5.399   8.262 -0.1319  0.2937  0.7787
 3647TIP3    H132576   5.390   5.379   8.303 -0.3317 -0.3971  0.0436
 3647TIP3    H232577   5.483   5.335   8.192 -0.7445  2.6779 -1.6262
 3648TIP3   OH232578   4.968   5.305   0.512 -0.6166 -0.0517  0.3627
 3648TIP3    H132579   4.907   5.264   0.450 -0.5886  1.1996 -0.5200
 3648TIP3    H232580   5.053   5.301   0.468 -0.4546  0.1688  0.6568
 3649TIP3   OH232581   6.326   2.517   8.104  0.1799  0.4544 -0.7332
 3649TIP3    H132582   6.253   2.455   8.106  0.5770 -0.0305 -1.0773
 3649TIP3    H232583   6.353   2.520   8.012  0.9005  0.2696 -0.5285
 3650TIP3   OH232584   2.565   3.317   7.919 -0.7686  0.2481  0.2566
 3650TIP3    H132585   2.562   3.246   7.983  1.5608 -2.2817 -2.1904
 3650TIP3    H232586   2.643   3.368   7.942  0.2439 -0.8418 -0.6276
 3651TIP3   OH232587   3.914   2.964   7.082 -0.0274  0.3126  0.1672
 3651TIP3    H132588   3.829   3.008   7.078  0.3178  1.2291  1.8758
 3651TIP3    H232589   3.954   2.981   6.997 -0.9721  1.0769 -0.1440
 3652TIP3   OH232590   6.096   5.901   1.784 -0.2115  0.0526  0.3558
 3652TIP3    H132591   6.162   5.848   1.739 -2.9982 -2.2546 -1.3890
 3652TIP3    H232592   6.042   5.837   1.831 -0.6690  1.9439  2.5869
 3653TIP3   OH232593   0.143   2.370   1.736 -0.8516 -0.5286  0.0527
 3653TIP3    H132594   0.218   2.428   1.751 -1.2672 -0.4205  1.8543
 3653TIP3    H232595   0.182   2.289   1.704  0.0201 -0.3576  0.6431
 3654TIP3   OH232596   1.211   2.235   0.211 -0.0186  0.3371 -0.2205
 3654TIP3    H132597   1.166   2.316   0.233 -1.8336 -1.0385  1.4627
 3654TIP3    H232598   1.288   2.234   0.267  0.5321  1.2896 -0.9258
 3655TIP3   OH232599   2.727   1.382   1.787  0.2905  0.5284  0.1620
 3655TIP3    H132600   2.653   1.390   1.847  0.6222  0.5507  0.5761
 3655TIP3    H232601   2.766   1.469   1.785  0.3695  0.4904  0.0316
 3656TIP3   OH232602   5.663   1.717   2.418  0.2282  0.4067  0.0240
 3656TIP3    H132603   5.573   1.733   2.448  0.0844 -0.8224  0.2757
 3656TIP3    H232604   5.675   1.623   2.426  1.0503  0.3653 -1.4284
 3657TIP3   OH232605   0.686   1.147   8.118  0.5142  0.1223  0.0505
 3657TIP3    H132606   0.658   1.193   8.039  1.0131 -0.1136 -0.2747
 3657TIP3    H232607   0.607   1.106   8.152 -0.1885  2.1937  1.0300
 3658TIP3   OH232608   5.544   5.811   1.955 -0.1915 -0.0966  0.0652
 3658TIP3    H132609   5.518   5.735   2.007  2.7449 -0.3826  1.3423
 3658TIP3    H232610   5.591   5.867   2.016 -1.6898  2.5122 -1.0045
 3659TIP3   OH232611   4.950   5.066   2.441 -0.0787  0.1063  0.2675
 3659TIP3    H132612   4.923   5.143   2.392 -1.5040 -0.8062 -0.4367
 3659TIP3    H232613   5.017   5.099   2.502  1.3285  1.3700 -1.8436
 3660TIP3   OH232614   6.669   2.383   1.949  0.3066 -0.4286 -0.0559
 3660TIP3    H132615   6.591   2.331   1.931 -0.4145  1.0231 -1.3604
 3660TIP3    H232616   6.726   2.367   1.874  0.8903 -0.7803  0.4538
 3661TIP3   OH232617   2.889   0.907   7.014 -0.2381 -0.2612 -0.3771
 3661TIP3    H132618   2.821   0.858   6.967  0.3302  1.3850 -3.1636
 3661TIP3    H232619   2.843   0.979   7.056 -0.5023 -0.4624 -0.3220
 3662TIP3   OH232620   6.117   0.611   0.087 -0.4997 -0.6233  0.1512
 3662TIP3    H132621   6.066   0.598   0.007 -0.4840 -1.3071  0.2467
 3662TIP3    H232622   6.179   0.539   0.088  1.0622  0.6465 -0.3961
 3663TIP3   OH232623   2.604   6.236   8.783  0.2277  1.0024 -0.1204
 3663TIP3    H132624   2.645   6.242   8.869  1.0536  0.0947 -0.4334
 3663TIP3    H232625   2.677   6.246   8.721  0.0277 -0.7845 -0.6842
 3664TIP3   OH232626   0.715   4.036   3.098  0.1031  0.1245 -0.2498
 3664TIP3    H132627   0.736   3.944   3.116  0.3818  0.3847  0.7630
 3664TIP3    H232628   0.705   4.039   3.002 -0.2534 -1.0269 -0.2699
 3665TIP3   OH232629   3.153   2.074   0.059  0.6285 -0.0192 -0.0829
 3665TIP3    H132630   3.128   2.079  -0.033 -0.9092  1.3048  0.3527
 3665TIP3    H232631   3.136   2.162   0.093 -1.6649 -1.1800  2.1120
 3666TIP3   OH232632   2.016   1.177   2.369  0.5459  0.0564  0.0204
 3666TIP3    H132633   2.050   1.266   2.380  1.9088 -0.3202 -0.8835
 3666TIP3    H232634   2.034   1.133   2.452 -2.1101  1.1804  1.3107
 3667TIP3   OH232635   0.939   2.929   2.143 -0.0895 -0.2431 -0.0781
 3667TIP3    H132636   0.890   2.847   2.142  1.9963 -1.5798  0.7582
 3667TIP3    H232637   0.916   2.971   2.226  0.7462 -1.2530  0.6827
 3668TIP3   OH232638   0.725   2.456   1.699 -0.0504 -0.5263 -0.2333
 3668TIP3    H132639   0.684   2.538   1.671 -0.5699 -0.6051  0.2784
 3668TIP3    H232640   0.692   2.442   1.787  1.1839 -0.5314  0.2434
 3669TIP3   OH232641   4.005   0.578   0.065  0.4079  0.3954 -0.4733
 3669TIP3    H132642   3.943   0.574  -0.008  1.3471  0.8423 -1.3204
 3669TIP3    H232643   4.091   0.566   0.024  0.9478  0.5913  0.5752
 3670TIP3   OH232644   1.467   5.514   1.266  0.0830  0.6696 -0.8529
 3670TIP3    H132645   1.450   5.470   1.183  1.6056  0.1578 -0.9279
 3670TIP3    H232646   1.448   5.606   1.249 -1.3632  0.3282 -1.2233
 3671TIP3   OH232647   5.893   1.371   1.770  0.5017  0.4575  0.4977
 3671TIP3    H132648   5.910   1.404   1.859 -0.8262  2.0296  0.2117
 3671TIP3    H232649   5.810   1.324   1.778  0.7141  0.0193  0.1998
 3672TIP3   OH232650   3.236   1.151   0.415 -0.2979 -0.1522 -0.5598
 3672TIP3    H132651   3.245   1.076   0.356 -1.0689 -0.3050 -0.4966
 3672TIP3    H232652   3.142   1.153   0.437  0.2052 -1.2405  2.1128
 3673TIP3   OH232653   0.351   3.288   0.982 -0.3364 -0.0016 -0.1128
 3673TIP3    H132654   0.444   3.273   0.968  0.1269  2.2456  0.3158
 3673TIP3    H232655   0.308   3.214   0.937  1.5759 -0.2943 -1.5702
 3674TIP3   OH232656   5.997   5.218   8.047 -0.0071  0.0541 -0.3587
 3674TIP3    H132657   6.052   5.140   8.048  2.0342  1.4100  0.5484
 3674TIP3    H232658   5.999   5.246   7.955 -0.9922 -1.0838 -0.7478
 3675TIP3   OH232659   2.192   0.326   2.545 -0.0970 -0.2721 -0.1682
 3675TIP3    H132660   2.233   0.249   2.585  2.7026 -0.4555 -3.0707
 3675TIP3    H232661   2.159   0.295   2.461 -0.5780  1.3332 -0.6061
 3676TIP3   OH232662   4.767   6.168   0.475 -0.8432 -0.4575 -0.2434
 3676TIP3    H132663   4.820   6.239   0.512 -0.7452  0.2182 -1.6056
 3676TIP3    H232664   4.677   6.202   0.477 -1.1336 -1.2054  1.1354
 3677TIP3   OH232665   3.491   6.268   2.200  0.1234  0.1744 -0.5279
 3677TIP3    H132666   3.553   6.199   2.176  0.8557  0.4603  0.4774
 3677TIP3    H232667   3.462   6.246   2.288  0.6271  1.3173 -0.0518
 3678TIP3   OH232668   1.402   0.758   1.260  0.1802 -0.3754 -0.1241
 3678TIP3    H132669   1.350   0.755   1.340 -2.6421 -0.9199 -1.8309
 3678TIP3    H232670   1.375   0.839   1.217  1.5936 -0.1291 -0.5969
 3679TIP3   OH232671   1.926   4.796   7.605 -0.2726 -0.0202 -0.3859
 3679TIP3    H132672   1.976   4.878   7.596  0.1916 -0.2898 -0.3196
 3679TIP3    H232673   1.958   4.742   7.533 -0.1320 -0.3673 -0.0632
 3680TIP3   OH232674   5.288   2.488   1.144 -0.3945  0.0453 -0.1535
 3680TIP3    H132675   5.380   2.462   1.145 -0.6595 -0.9527  1.0031
 3680TIP3    H232676   5.285   2.563   1.084  1.0806 -0.1807 -0.5614
 3681TIP3   OH232677   2.810   1.148   1.938 -0.8228  0.1551 -0.5933
 3681TIP3    H132678   2.781   1.224   1.888  1.1926  1.6982  0.4368
 3681TIP3    H232679   2.904   1.141   1.919 -0.6952 -1.2338  0.4075
 3682TIP3   OH232680   6.471   4.344   8.084  0.6284  0.6466  0.2913
 3682TIP3    H132681   6.554   4.299   8.068 -0.4771 -1.3195 -0.2924
 3682TIP3    H232682   6.489   4.436   8.064  1.9811 -0.1174 -2.5996
 3683TIP3   OH232683   3.013   5.552   1.138 -0.1617 -0.3528 -0.2510
 3683TIP3    H132684   2.968   5.522   1.059  0.2447  0.1740 -0.6934
 3683TIP3    H232685   2.952   5.613   1.179 -0.7089 -1.2350  0.2868
 3684TIP3   OH232686   5.776   4.670   7.897 -0.0963 -0.7029 -0.0569
 3684TIP3    H132687   5.690   4.645   7.861  0.0097 -1.1765  0.0073
 3684TIP3    H232688   5.767   4.763   7.917 -0.1272 -0.3897 -1.4125
 3685TIP3   OH232689   4.178   5.634   2.483  0.1410 -0.0791 -0.6444
 3685TIP3    H132690   4.207   5.586   2.405  3.9525  2.3899 -0.9894
 3685TIP3    H232691   4.208   5.581   2.556  0.6598 -0.2228 -0.9534
 3686TIP3   OH232692   2.551   5.924   8.206 -0.3230 -0.0130 -0.1813
 3686TIP3    H132693   2.493   5.963   8.141  0.2829  1.0246 -0.1356
 3686TIP3    H232694   2.508   5.940   8.289 -0.0516  0.6286 -0.1584
 3687TIP3   OH232695   4.652   2.711   1.629  0.0173 -0.4384 -0.8828
 3687TIP3    H132696   4.581   2.728   1.568  0.2931  0.3838 -0.9879
 3687TIP3    H232697   4.701   2.639   1.589 -0.9443 -1.2443 -0.6361
 3688TIP3   OH232698   6.321   3.578   7.928  0.2971 -0.8251  0.6622
 3688TIP3    H132699   6.389   3.606   7.867  1.0974 -2.4297  0.7528
 3688TIP3    H232700   6.297   3.490   7.898  0.7922 -1.7049  2.6839
 3689TIP3   OH232701   1.875   5.818   0.543  0.0934 -0.3067 -0.2391
 3689TIP3    H132702   1.885   5.912   0.559 -1.7188  0.0755 -1.0218
 3689TIP3    H232703   1.963   5.786   0.527  0.5566  1.7365 -2.3085
 3690TIP3   OH232704   5.523   1.556   8.291  0.0199  0.0121 -0.3706
 3690TIP3    H132705   5.513   1.601   8.207 -1.9720 -1.6205 -1.0903
 3690TIP3    H232706   5.441   1.574   8.337  0.7608  0.2200  0.9192
 3691TIP3   OH232707   5.515   1.278   8.221 -0.6140  0.0296 -0.0077
 3691TIP3    H132708   5.536   1.359   8.267  1.2068  0.5339 -1.5799
 3691TIP3    H232709   5.527   1.300   8.128  0.8182 -2.2340 -0.4486
 3692TIP3   OH232710   1.964   0.213   0.455 -0.5472 -0.2837  0.0201
 3692TIP3    H132711   1.903   0.262   0.401 -1.7613 -1.0666  0.6513
 3692TIP3    H232712   1.909   0.162   0.514  0.7264  0.1988  1.7070
 3693TIP3   OH232713   2.946   1.411   2.367 -0.0945 -0.7209 -0.0274
 3693TIP3    H132714   2.881   1.384   2.433 -0.5457  0.4535  0.0263
 3693TIP3    H232715   2.936   1.346   2.298  1.5514 -2.9971  1.7173
 3694TIP3   OH232716   5.917   3.823   8.147 -0.3641  0.2410  0.2391
 3694TIP3    H132717   6.010   3.803   8.138 -0.6422 -1.4717  0.6627
 3694TIP3    H232718   5.908   3.913   8.117  1.4162  0.4205  0.1511
 3695TIP3   OH232719   1.523   1.757   2.615 -0.3606 -0.2507 -0.1665
 3695TIP3    H132720   1.469   1.701   2.671 -1.1317 -0.0130 -0.6614
 3695TIP3    H232721   1.490   1.743   2.527 -0.5264  0.9261 -0.3059
 3696TIP3   OH232722   3.143   2.730   0.065  0.3671 -0.2791 -0.0561
 3696TIP3    H132723   3.129   2.676   0.144  2.0574  0.1030  0.5458
 3696TIP3    H232724   3.186   2.671   0.003 -0.2866 -0.3734 -0.4220
 3697TIP3   OH232725   0.798   1.519   0.165  0.2713  0.2563 -0.9710
 3697TIP3    H132726   0.785   1.580   0.238 -2.3200 -0.6651 -0.5363
 3697TIP3    H232727   0.713   1.519   0.120  0.3190 -2.6297 -1.2263
 3698TIP3   OH232728   4.257   0.803   2.241 -0.2429 -0.3002 -0.3229
 3698TIP3    H132729   4.260   0.783   2.147  0.5474  1.2194 -0.6569
 3698TIP3    H232730   4.172   0.843   2.254  0.4397  1.4025 -0.8486
 3699TIP3   OH232731   6.097   1.437   3.538 -0.0319  0.2169  0.3120
 3699TIP3    H132732   6.144   1.520   3.546 -1.8013  1.2623  0.3266
 3699TIP3    H232733   6.053   1.442   3.454 -1.1853 -0.1306  0.8740
 3700TIP3   OH232734   0.038   3.640   1.168 -0.8623  0.1754 -0.0864
 3700TIP3    H132735   0.117   3.694   1.177 -0.4985  0.2719 -3.0643
 3700TIP3    H232736  -0.033   3.703   1.156 -0.8881  0.0483 -0.6212
 3701TIP3   OH232737   3.152   4.062   0.977  0.1541 -0.0847  0.1946
 3701TIP3    H132738   3.071   4.052   0.927  1.3957  1.1726 -2.2233
 3701TIP3    H232739   3.186   4.147   0.952  1.5930  0.0112  2.1941
 3702TIP3   OH232740   3.305   5.074   0.226 -0.3201  0.1954  0.3584
 3702TIP3    H132741   3.218   5.104   0.199 -0.2642  0.5693  0.5811
 3702TIP3    H232742   3.361   5.094   0.151 -0.5603 -0.7443 -0.0871
 3703TIP3   OH232743   3.493   2.265   0.194  0.0617  0.4196 -0.6752
 3703TIP3    H132744   3.443   2.228   0.266  0.6964 -1.9289 -1.3595
 3703TIP3    H232745   3.440   2.339   0.164 -1.7657 -0.4679  0.1997
 3704TIP3   OH232746   3.729   1.614   8.685  0.5527 -0.3477  0.2257
 3704TIP3    H132747   3.795   1.565   8.734  1.1032  1.4614  1.4005
 3704TIP3    H232748   3.767   1.625   8.598  0.2694 -2.2045 -0.1866
 3705TIP3   OH232749   4.390   3.450   0.474  0.3174 -0.6624 -0.4670
 3705TIP3    H132750   4.437   3.488   0.400  0.9811 -0.6771 -0.0678
 3705TIP3    H232751   4.458   3.402   0.523 -0.1685 -0.9045 -0.0194
 3706TIP3   OH232752   1.350   4.671   2.168 -0.6726 -0.0159  1.1283
 3706TIP3    H132753   1.389   4.747   2.212  0.4512  0.9009 -1.2701
 3706TIP3    H232754   1.256   4.688   2.171 -0.4815  1.1193  1.2819
 3707TIP3   OH232755   0.459   1.011   2.759 -0.2643 -0.2850  0.1991
 3707TIP3    H132756   0.513   1.021   2.838  0.3655 -2.7208  0.1726
 3707TIP3    H232757   0.393   0.946   2.784 -1.9422  1.1142 -0.4218
 3708TIP3   OH232758   4.754   3.124   8.659  0.7664  0.1198 -0.0237
 3708TIP3    H132759   4.789   3.146   8.573  0.3715  1.0074  0.0320
 3708TIP3    H232760   4.824   3.146   8.720  0.4705  1.0245  0.0083
 3709TIP3   OH232761   1.302   0.971   9.078 -0.1942 -0.2427  0.0041
 3709TIP3    H132762   1.320   1.056   9.119 -2.9669 -0.1952  1.3882
 3709TIP3    H232763   1.326   0.983   8.986 -0.5245  2.0814  0.1554
 3710TIP3   OH232764   1.057   2.783   1.146  0.1998  0.3835 -0.4480
 3710TIP3    H132765   1.129   2.846   1.142  0.0957  0.6256  1.0055
 3710TIP3    H232766   1.028   2.786   1.237  0.3902 -1.9845 -0.2477
 3711TIP3   OH232767   3.776   4.685   3.006 -0.1443 -0.2317 -0.3375
 3711TIP3    H132768   3.700   4.670   2.949 -0.6567  0.9662  0.0056
 3711TIP3    H232769   3.764   4.774   3.038  0.5377 -0.6253  1.0587
 3712TIP3   OH232770   0.526   3.306   0.668 -0.1521  0.3499 -0.1505
 3712TIP3    H132771   0.544   3.238   0.733  0.0063 -0.1204 -0.6822
 3712TIP3    H232772   0.589   3.290   0.598 -0.8406  0.3638 -0.7850
 3713TIP3   OH232773   3.027   4.028   8.236 -0.5243  0.3290  0.2341
 3713TIP3    H132774   3.094   4.021   8.168 -2.3803 -1.5392 -1.5633
 3713TIP3    H232775   2.944   4.028   8.187 -1.9152  0.0735  2.4576
 3714TIP3   OH232776   3.792   1.018   7.762  0.5993 -0.2590  0.1343
 3714TIP3    H132777   3.870   1.037   7.815 -0.7879 -1.3276  2.7655
 3714TIP3    H232778   3.816   0.939   7.714  1.7149  0.4054 -0.4506
 3715TIP3   OH232779   5.210   6.362   0.270 -0.1910 -0.0146  0.0861
 3715TIP3    H132780   5.275   6.292   0.256  0.5476  0.3747  1.3861
 3715TIP3    H232781   5.133   6.317   0.305  0.1715 -0.2349  0.6225
 3716TIP3   OH232782   4.109   1.782   1.277  0.0498 -0.3833 -0.5574
 3716TIP3    H132783   4.168   1.788   1.352  0.0501  2.7785 -0.6803
 3716TIP3    H232784   4.022   1.773   1.316  0.0766  0.9529 -0.1636
 3717TIP3   OH232785   1.340   1.121   2.766 -0.2645  0.0008  0.0748
 3717TIP3    H132786   1.338   1.067   2.687  0.8942  0.6854 -0.4455
 3717TIP3    H232787   1.326   1.210   2.734 -2.1091  0.0701  0.9129
 3718TIP3   OH232788   5.335   4.309   1.921  0.2666  0.6847  0.1626
 3718TIP3    H132789   5.308   4.217   1.921  1.2982  0.3648  1.0432
 3718TIP3    H232790   5.252   4.357   1.914 -0.5765 -0.2725  2.5312
 3719TIP3   OH232791   6.498   1.591   2.342 -0.1362 -0.7610  0.0231
 3719TIP3    H132792   6.592   1.608   2.338 -0.2185 -0.3329 -0.2703
 3719TIP3    H232793   6.472   1.577   2.251 -0.6126  0.6817 -0.0950
 3720TIP3   OH232794   4.614   3.960   8.654 -0.0791 -0.1721  0.1088
 3720TIP3    H132795   4.578   3.911   8.580 -1.1956  1.0548 -0.1962
 3720TIP3    H232796   4.547   3.951   8.723  0.2935 -0.1253  0.4797
 3721TIP3   OH232797   1.547   1.058   0.561  0.8320  0.2748  0.5765
 3721TIP3    H132798   1.579   0.977   0.601  0.6634  1.3257  3.0721
 3721TIP3    H232799   1.623   1.095   0.517  1.4127 -0.2992  1.0728
 3722TIP3   OH232800   4.657   5.647   2.755  0.3041  0.3405 -0.0573
 3722TIP3    H132801   4.687   5.558   2.742  0.2175  0.4511 -1.1012
 3722TIP3    H232802   4.578   5.638   2.808 -0.6439 -0.3461 -1.5324
 3723TIP3   OH232803   1.050   3.131   0.511  0.0867  0.7786  0.3568
 3723TIP3    H132804   1.054   3.117   0.606  0.1828 -1.3702  0.0995
 3723TIP3    H232805   1.040   3.225   0.501  1.3498  1.2210  2.4765
 3724TIP3   OH232806   5.963   0.280   8.342 -0.0468 -0.0714  0.3132
 3724TIP3    H132807   5.964   0.289   8.437  0.3756 -1.3875  0.4502
 3724TIP3    H232808   5.897   0.344   8.313  0.0415  0.5642  1.4487
 3725TIP3   OH232809   1.313   4.206   1.783 -0.4719 -0.0827 -0.0125
 3725TIP3    H132810   1.276   4.215   1.871  0.4069  3.2961  0.1415
 3725TIP3    H232811   1.238   4.188   1.727 -1.3770  0.0447  1.1255
 3726TIP3   OH232812   2.306   5.197   2.031  0.2494 -0.0957  0.3629
 3726TIP3    H132813   2.342   5.274   2.076  1.4910 -0.8658  0.7102
 3726TIP3    H232814   2.380   5.139   2.018 -0.4065 -0.6508 -1.1756
 3727TIP3   OH232815   5.654   1.507   1.121 -0.3306 -0.0459 -0.6265
 3727TIP3    H132816   5.681   1.591   1.083 -0.8659  1.4304  2.0327
 3727TIP3    H232817   5.700   1.502   1.204 -1.3548 -1.7653 -0.1067
 3728TIP3   OH232818   0.470   2.627   1.208 -0.4146  0.4128 -0.5218
 3728TIP3    H132819   0.399   2.616   1.145 -0.4922  1.0151 -0.5482
 3728TIP3    H232820   0.511   2.540   1.214 -1.1898  0.0467 -0.4579
 3729TIP3   OH232821   4.118   0.988   7.874 -0.3876  0.3967 -0.2324
 3729TIP3    H132822   4.138   1.041   7.797 -0.0669 -0.3410 -0.6682
 3729TIP3    H232823   4.165   0.906   7.860  0.6359  0.6746  1.2988
 3730TIP3   OH232824   3.095   6.188   1.611 -0.3478 -0.0610  0.3523
 3730TIP3    H132825   3.008   6.169   1.576 -0.8958 -0.2424  1.7692
 3730TIP3    H232826   3.151   6.118   1.576 -0.9354 -0.4040  0.0954
 3731TIP3   OH232827   1.050   4.307   8.038  0.1478  0.4922  0.8255
 3731TIP3    H132828   1.053   4.303   8.134 -0.0527  0.1256  0.8197
 3731TIP3    H232829   1.121   4.366   8.014  0.5374  0.1677  1.1741
 3732TIP3   OH232830   1.026   2.300   0.810  0.2239 -0.5810  0.2475
 3732TIP3    H132831   0.969   2.377   0.822  2.4849  1.2848 -0.1688
 3732TIP3    H232832   1.063   2.284   0.897  0.3446 -0.6765  0.1794
 3733TIP3   OH232833   4.720   2.624   8.122 -0.4837 -0.6543 -0.3762
 3733TIP3    H132834   4.761   2.625   8.036  0.1527  1.9915 -0.1297
 3733TIP3    H232835   4.790   2.595   8.181  0.4729  1.6734 -0.2569
 3734TIP3   OH232836   0.170   4.082   2.338  0.0352  0.1207  0.8056
 3734TIP3    H132837   0.139   4.096   2.248  2.7851 -0.9514 -0.4224
 3734TIP3    H232838   0.122   4.145   2.390 -2.3290  0.1637 -1.2564
 3735TIP3   OH232839   1.460   3.381   2.613  0.6916  0.2182  0.4810
 3735TIP3    H132840   1.376   3.378   2.567  1.0518  1.6481 -0.3191
 3735TIP3    H232841   1.436   3.393   2.705 -0.0570 -3.4543  0.9463
 3736TIP3   OH232842   4.867   0.382   2.655  0.1469 -0.7083 -0.5255
 3736TIP3    H132843   4.875   0.332   2.737  0.7548 -1.8059 -1.2287
 3736TIP3    H232844   4.802   0.449   2.674 -0.0813 -1.2534  0.7153
 3737TIP3   OH232845   3.302   5.560   7.614  0.0799 -0.0428 -0.0391
 3737TIP3    H132846   3.294   5.656   7.609 -0.5471 -0.0443  0.8349
 3737TIP3    H232847   3.396   5.544   7.614  0.2369  0.6850  1.4779
 3738TIP3   OH232848   3.086   5.577   0.814  0.2922  0.5354 -0.0850
 3738TIP3    H132849   3.107   5.636   0.741  0.6824  0.7988  0.2384
 3738TIP3    H232850   3.043   5.633   0.879 -1.4534  0.0023 -0.7340
 3739TIP3   OH232851   4.304   0.846   1.943  0.0977  0.6710 -0.0076
 3739TIP3    H132852   4.257   0.763   1.950 -0.5609  1.1378  1.6413
 3739TIP3    H232853   4.237   0.908   1.915  0.2635  0.8954  0.0906
 3740TIP3   OH232854   5.898   2.280   8.467  0.1161 -0.0252  0.3503
 3740TIP3    H132855   5.810   2.307   8.441  1.2832  3.1143 -0.7874
 3740TIP3    H232856   5.906   2.311   8.557  0.4103  0.7106  0.0771
 3741TIP3   OH232857   1.799   1.014   1.412  0.3137 -0.5390  0.4960
 3741TIP3    H132858   1.857   0.944   1.441  1.1503  0.1993  0.6764
 3741TIP3    H232859   1.853   1.093   1.418 -1.1060  0.3692  1.8963
 3742TIP3   OH232860   0.564   6.199   8.425 -0.0121  0.3653 -0.1115
 3742TIP3    H132861   0.633   6.264   8.408 -0.3316  0.6325 -0.4359
 3742TIP3    H232862   0.489   6.231   8.373  0.2592 -1.0148 -1.4207
 3743TIP3   OH232863   3.040   4.594   1.815 -0.1651 -0.1859 -0.0414
 3743TIP3    H132864   3.103   4.522   1.811  0.7358  0.6254 -1.4380
 3743TIP3    H232865   2.957   4.556   1.787 -0.2771 -1.2067  1.5616
 3744TIP3   OH232866   6.078   4.006   8.387  0.5130  0.7362  0.5096
 3744TIP3    H132867   6.093   4.024   8.294  0.7112  1.9909  0.7717
 3744TIP3    H232868   6.155   4.041   8.431  2.5964 -3.5748  0.8730
 3745TIP3   OH232869   4.862   6.277   0.933 -0.5475 -0.2603  0.0704
 3745TIP3    H132870   4.788   6.261   0.992 -0.3089 -0.2449  0.3723
 3745TIP3    H232871   4.826   6.335   0.865 -0.6236  0.3381  0.6151
 3746TIP3   OH232872   4.780   5.560   8.458 -0.1601 -0.1440  0.6617
 3746TIP3    H132873   4.760   5.614   8.381  2.2026  1.3369  0.9778
 3746TIP3    H232874   4.697   5.551   8.504 -0.7511  3.1869  0.5084
 3747TIP3   OH232875   0.660   0.494   0.892 -0.0365  0.9004  0.0505
 3747TIP3    H132876   0.582   0.542   0.918 -0.2494 -0.0502  1.2570
 3747TIP3    H232877   0.634   0.445   0.814 -0.2185  1.6700 -0.3732
 3748TIP3   OH232878   4.828   1.515   2.551 -0.1813  0.3205 -0.1364
 3748TIP3    H132879   4.741   1.498   2.586  0.1430  0.8451  1.0095
 3748TIP3    H232880   4.885   1.451   2.596  0.1552  0.6042 -0.1517
 3749TIP3   OH232881   1.706   0.686   2.369 -0.0055 -0.6215  0.0923
 3749TIP3    H132882   1.648   0.747   2.322 -0.0909 -0.8969 -0.1631
 3749TIP3    H232883   1.646   0.628   2.415  0.0789  0.1499  1.2073
 3750TIP3   OH232884   5.082   6.527   9.189  0.3281  0.0243  0.2021
 3750TIP3    H132885   5.176   6.513   9.190  0.8657  2.8876 -1.5388
 3750TIP3    H232886   5.063   6.568   9.273  0.0350 -2.9880  1.7731
 3751TIP3   OH232887   4.518   6.234   8.374  0.1742 -0.4649 -0.2623
 3751TIP3    H132888   4.547   6.280   8.453  1.3913 -0.3271 -0.7642
 3751TIP3    H232889   4.447   6.177   8.404  1.7073 -1.6798  1.3121
 3752TIP3   OH232890   5.678   1.138   1.456  0.1324  0.0633  0.2412
 3752TIP3    H132891   5.687   1.224   1.414 -0.1807  0.3665  0.7851
 3752TIP3    H232892   5.603   1.148   1.515  1.4677  0.1194  2.0069
 3753TIP3   OH232893   0.104   6.277   6.931  0.2536  0.0142  0.5772
 3753TIP3    H132894   0.056   6.257   7.012  0.9780  1.7581  1.4803
 3753TIP3    H232895   0.038   6.313   6.872 -0.1566 -0.6741  0.6004
 3754TIP3   OH232896   0.910   4.194   8.806 -0.6547  0.2646  0.0820
 3754TIP3    H132897   0.824   4.207   8.846 -0.8669  0.8480 -0.5390
 3754TIP3    H232898   0.935   4.281   8.775  0.1818  0.1094  0.2951
 3755TIP3   OH232899   5.851   1.577   0.805 -0.3400  0.7646  0.2003
 3755TIP3    H132900   5.768   1.607   0.843 -0.9267  0.1288 -0.5516
 3755TIP3    H232901   5.842   1.594   0.712 -1.3135 -3.0159 -0.5279
 3756TIP3   OH232902   3.459   0.680   8.921 -0.4526  0.7461 -0.3890
 3756TIP3    H132903   3.447   0.759   8.868 -1.2102  1.3514  0.6633
 3756TIP3    H232904   3.518   0.625   8.869 -0.3460  1.7697 -1.3763
 3757TIP3   OH232905   3.000   0.176   0.955 -0.0087  0.0679 -0.2242
 3757TIP3    H132906   3.095   0.173   0.948  0.0797 -1.1544  1.1573
 3757TIP3    H232907   2.982   0.254   1.007  0.2427  0.1768 -0.2999
 3758TIP3   OH232908   5.675   5.708   2.849  0.2422 -0.0311 -0.6284
 3758TIP3    H132909   5.765   5.708   2.881  0.9729  2.0295 -2.4435
 3758TIP3    H232910   5.682   5.723   2.755 -1.9885  0.6748 -0.7592
 3759TIP3   OH232911   4.800   4.817   7.801  0.5387  0.1872 -0.3824
 3759TIP3    H132912   4.749   4.736   7.815 -0.2820  0.6229 -0.7813
 3759TIP3    H232913   4.742   4.887   7.830  0.6285  0.7516 -1.5252
 3760TIP3   OH232914   0.090   0.377   3.253 -0.1293  0.6810  0.1755
 3760TIP3    H132915   0.079   0.470   3.232  1.1485  0.3268 -2.3413
 3760TIP3    H232916   0.181   0.369   3.282 -0.3982  0.2702  0.9570
 3761TIP3   OH232917   1.545   4.731   8.251 -0.4240  0.1261  0.6228
 3761TIP3    H132918   1.465   4.717   8.200 -0.4522 -0.3259  0.7945
 3761TIP3    H232919   1.613   4.684   8.203  0.1644  2.1092 -0.6127
 3762TIP3   OH232920   2.795   2.587   0.678  0.1868  0.3580 -0.0629
 3762TIP3    H132921   2.819   2.496   0.664 -0.1902  0.2445  0.0033
 3762TIP3    H232922   2.788   2.624   0.590 -0.7663  0.0222 -0.1410
 3763TIP3   OH232923   1.768   5.763   7.751 -0.0433  0.1469  0.6693
 3763TIP3    H132924   1.727   5.811   7.822 -0.1193 -0.7518  1.2494
 3763TIP3    H232925   1.702   5.700   7.723  0.3272 -0.1500  0.4482
 3764TIP3   OH232926   5.514   2.321   0.781  0.5658  0.3700 -0.0272
 3764TIP3    H132927   5.436   2.307   0.728  1.0764 -0.8864 -0.4946
 3764TIP3    H232928   5.517   2.246   0.841  0.5553  1.2370  1.0977
 3765TIP3   OH232929   5.066   1.919   1.298 -0.3001 -0.7041  0.0260
 3765TIP3    H132930   5.094   1.868   1.374 -1.3710 -0.8625  0.3299
 3765TIP3    H232931   5.148   1.942   1.253  0.2252 -3.0559 -0.3783
 3766TIP3   OH232932   2.286   0.161   9.128  0.1573 -0.3298  0.1803
 3766TIP3    H132933   2.278   0.097   9.057 -0.4653 -1.8418  1.5586
 3766TIP3    H232934   2.361   0.130   9.179 -1.0590 -0.8650  1.7067
 3767TIP3   OH232935   0.888   6.561   7.657 -0.5069  0.2210 -0.5902
 3767TIP3    H132936   0.882   6.496   7.586 -2.7276  2.0189 -2.1970
 3767TIP3    H232937   0.981   6.584   7.660 -0.1102 -1.0494 -1.8321
 3768TIP3   OH232938   4.844   1.737   8.989 -0.1381 -0.1371 -0.5620
 3768TIP3    H132939   4.900   1.793   9.043  1.2226 -1.0902 -0.9110
 3768TIP3    H232940   4.853   1.650   9.029 -1.1868 -0.3611 -0.7933
 3769TIP3   OH232941   0.873   4.294   0.484 -0.3705 -0.3565 -0.2251
 3769TIP3    H132942   0.969   4.290   0.487 -0.2925  1.0672 -0.2612
 3769TIP3    H232943   0.848   4.224   0.423  0.7116 -0.0578 -1.0360
 3770TIP3   OH232944   3.336   6.572   0.035  0.4796 -0.0145  0.4785
 3770TIP3    H132945   3.271   6.600  -0.030  1.3581  1.4891  0.2174
 3770TIP3    H232946   3.348   6.478   0.018 -1.3540 -0.2651  0.3215
 3771TIP3   OH232947   4.202   6.012   0.516  0.1388 -0.3785 -0.7151
 3771TIP3    H132948   4.178   6.000   0.424  1.1454 -0.9911 -0.9209
 3771TIP3    H232949   4.139   5.960   0.565  0.1905 -0.8439 -1.1363
 3772TIP3   OH232950   3.917   1.195   1.173 -0.1550 -0.0235  0.0845
 3772TIP3    H132951   3.842   1.231   1.221 -1.5150 -2.6220  0.1107
 3772TIP3    H232952   3.880   1.171   1.088  0.9759 -0.2168 -0.3575
 3773TIP3   OH232953   0.844   0.179   8.115  0.0997  0.0355  0.1111
 3773TIP3    H132954   0.910   0.152   8.179 -0.2298  0.2248  0.5413
 3773TIP3    H232955   0.891   0.184   8.032  0.3168 -1.1464  0.1529
 3774TIP3   OH232956   2.089   6.593   2.743  0.2339 -0.6248  0.7087
 3774TIP3    H132957   2.157   6.661   2.748 -0.1914  0.0457 -1.4570
 3774TIP3    H232958   2.088   6.567   2.651 -1.0905 -2.0673  1.0920
 3775TIP3   OH232959   4.981   0.469   8.100  0.1480  0.5040  0.0580
 3775TIP3    H132960   4.982   0.547   8.045 -3.2630  0.5476 -0.1729
 3775TIP3    H232961   4.889   0.457   8.122  0.4093 -3.7217 -0.3302
 3776TIP3   OH232962   5.291   1.665   1.246 -0.8373  0.5448 -0.2541
 3776TIP3    H132963   5.250   1.751   1.244  1.7437  1.8702 -1.3171
 3776TIP3    H232964   5.383   1.683   1.266 -0.2152 -1.9550 -0.5469
 3777TIP3   OH232965   5.173   2.812   0.259  0.0898 -0.2269  0.3695
 3777TIP3    H132966   5.240   2.775   0.202  0.3403  2.4915 -1.3147
 3777TIP3    H232967   5.222   2.857   0.327  0.0937  1.6846 -0.8108
 3778TIP3   OH232968   2.734   4.147   2.401  0.4261 -0.0493 -0.3164
 3778TIP3    H132969   2.714   4.235   2.431  1.5454  0.5245 -1.1801
 3778TIP3    H232970   2.672   4.132   2.330  1.6278  0.9341 -1.6356
 3779TIP3   OH232971   2.128   3.668   8.460 -0.2560 -0.0701 -0.4018
 3779TIP3    H132972   2.139   3.728   8.386 -0.5050  1.3447  0.6577
 3779TIP3    H232973   2.212   3.673   8.506 -0.3714 -0.3543 -0.1629
 3780TIP3   OH232974   1.027   3.741   9.158  0.4414 -0.1630 -0.1942
 3780TIP3    H132975   0.970   3.702   9.091  0.8256 -0.1971 -0.5004
 3780TIP3    H232976   1.054   3.667   9.212 -2.7869  0.2228  2.3002
 3781TIP3   OH232977   3.273   0.474   7.887 -0.6705 -0.0747 -0.6483
 3781TIP3    H132978   3.208   0.485   7.818  0.9165 -0.9715 -2.3826
 3781TIP3    H232979   3.283   0.379   7.896 -0.5616  0.0330  0.5704
 3782TIP3   OH232980   2.768   2.469   8.316 -0.1422  0.3740 -0.1032
 3782TIP3    H132981   2.787   2.559   8.343 -0.5121  0.0886  1.1831
 3782TIP3    H232982   2.842   2.418   8.350  1.0325  0.4111 -2.4345
 3783TIP3   OH232983   0.123   1.031   7.994 -0.6949  0.3438 -0.3826
 3783TIP3    H132984   0.126   0.936   7.999 -1.7300  0.2818 -0.7094
 3783TIP3    H232985   0.109   1.050   7.901  1.5671  0.9049 -0.6864
 3784TIP3   OH232986   1.731   0.275   0.141  0.0196 -0.1756 -0.0877
 3784TIP3    H132987   1.791   0.331   0.190  0.4043 -0.9877  0.3883
 3784TIP3    H232988   1.786   0.204   0.108 -0.2632  0.2509 -1.5611
 3785TIP3   OH232989   5.620   5.954   2.211  0.6818 -0.3320  0.8838
 3785TIP3    H132990   5.697   5.967   2.267  0.6175 -2.0606  1.4658
 3785TIP3    H232991   5.567   5.891   2.260  0.9568 -2.5114 -1.4161
 3786TIP3   OH232992   0.871   3.217   0.798 -0.5860  0.3723 -0.7736
 3786TIP3    H132993   0.887   3.125   0.774  0.7730  0.1714  0.7164
 3786TIP3    H232994   0.787   3.216   0.843 -0.0894 -0.3507  0.1702
 3787TIP3   OH232995   5.248   5.100   8.645  0.0692 -0.9471  0.4170
 3787TIP3    H132996   5.254   5.113   8.740  1.0426  1.4740  0.1160
 3787TIP3    H232997   5.336   5.121   8.613 -1.0052  1.4216 -1.2587
 3788TIP3   OH232998   5.896   3.223   0.469 -0.2703  0.8110  0.3423
 3788TIP3    H132999   5.867   3.309   0.499 -1.7600  0.9407 -1.2736
 3788TIP3    H233000   5.907   3.234   0.374 -2.0601 -1.1400 -0.1616
 3789TIP3   OH233001   1.472   5.364   9.114  0.7887  0.0857  0.0206
 3789TIP3    H133002   1.494   5.343   9.023  0.6542  0.9416 -0.2135
 3789TIP3    H233003   1.541   5.321   9.165  1.0060 -0.1936 -0.4959
 3790TIP3   OH233004   1.473   5.178   7.588  0.0058 -0.0198 -0.2415
 3790TIP3    H133005   1.525   5.114   7.636 -0.8765 -0.8480 -0.3661
 3790TIP3    H233006   1.385   5.173   7.627  0.2952  2.3146  0.8949
 3791TIP3   OH233007   6.379   2.333   7.900 -0.5649  0.3221  0.2702
 3791TIP3    H133008   6.369   2.251   7.947  1.3906  0.7802  1.6062
 3791TIP3    H233009   6.311   2.330   7.833 -0.4088 -2.4920  0.0933
 3792TIP3   OH233010   0.914   5.012   7.745 -0.2782 -0.1273  0.1890
 3792TIP3    H133011   0.947   5.030   7.656  0.5418  3.1091  0.9982
 3792TIP3    H233012   0.976   4.949   7.781 -1.3869 -2.5470 -1.9017
 3793TIP3   OH233013   4.655   2.354   8.686 -0.6678 -0.4254 -0.0346
 3793TIP3    H133014   4.579   2.412   8.678 -1.4125 -1.1651  1.3868
 3793TIP3    H233015   4.675   2.352   8.779  0.0096 -1.6262 -0.1813
 3794TIP3   OH233016   2.472   1.298   1.380  0.0122  0.1132 -0.2005
 3794TIP3    H133017   2.414   1.280   1.455  1.8221  0.0693  1.2646
 3794TIP3    H233018   2.541   1.233   1.387  2.4440  2.5548  0.5910
 3795TIP3   OH233019   1.075   2.804   9.140  1.1481  0.4052 -0.0507
 3795TIP3    H133020   1.027   2.885   9.156 -2.1844 -1.4902  0.4598
 3795TIP3    H233021   1.161   2.833   9.112  0.4361  4.0906  0.9758
 3796TIP3   OH233022   2.885   4.210   0.272 -0.3872  0.0742  0.0908
 3796TIP3    H133023   2.977   4.233   0.287  0.4452 -0.9324 -2.6534
 3796TIP3    H233024   2.888   4.117   0.249 -2.0932  0.0280 -0.0308
 3797TIP3   OH233025   0.231   0.708   0.220  0.1405 -0.2691 -0.1556
 3797TIP3    H133026   0.271   0.697   0.134 -0.1923  0.4915 -0.4078
 3797TIP3    H233027   0.282   0.777   0.261 -0.4042  0.1391 -0.1663
 3798TIP3   OH233028   6.185   3.782   8.102  0.2422 -0.4200 -0.1314
 3798TIP3    H133029   6.196   3.690   8.078 -3.2774 -0.3311 -2.8799
 3798TIP3    H233030   6.238   3.830   8.039 -0.2241 -0.5173 -0.6044
 3799TIP3   OH233031   1.097   1.316   2.526  0.2329 -0.0933 -0.3057
 3799TIP3    H133032   1.063   1.236   2.565 -2.2731  0.8197 -0.4265
 3799TIP3    H233033   1.105   1.296   2.433  1.6459 -0.8015 -0.0599
 3800TIP3   OH233034   1.748   5.903   8.841  0.3483 -0.2889  0.2276
 3800TIP3    H133035   1.826   5.929   8.792  0.6277  0.8253  1.2146
 3800TIP3    H233036   1.675   5.947   8.797  0.5456  0.3674  0.5526
 3801TIP3   OH233037   0.914   1.311   0.288  0.1894 -0.3308 -0.5022
 3801TIP3    H133038   0.870   1.384   0.245  1.9545 -0.3992 -2.6152
 3801TIP3    H233039   0.940   1.345   0.374 -2.3811  0.2194  0.1368
 3802TIP3   OH233040   0.537   1.975   1.122  0.1515  0.1788  0.3430
 3802TIP3    H133041   0.496   1.890   1.106 -0.4013  0.2956  1.0685
 3802TIP3    H233042   0.612   1.977   1.064 -0.1254 -0.5960 -0.0540
 3803TIP3   OH233043   6.163   5.093   2.100 -0.2560  0.2764 -0.4921
 3803TIP3    H133044   6.107   5.032   2.053  0.1102 -0.2220 -0.2878
 3803TIP3    H233045   6.136   5.085   2.192 -1.2465  1.5396 -0.6480
 3804TIP3   OH233046   5.743   4.713   0.893  0.2041 -0.2428  0.1370
 3804TIP3    H133047   5.695   4.687   0.815  2.7104 -0.8012 -1.3284
 3804TIP3    H233048   5.692   4.785   0.930 -0.0160  1.5241 -3.2334
 3805TIP3   OH233049   1.441   3.993   8.819 -0.1642 -0.0214  0.0453
 3805TIP3    H133050   1.345   4.000   8.816 -0.4128 -2.1917  1.0105
 3805TIP3    H233051   1.462   3.993   8.912  0.5990 -1.1276 -0.1149
 3806TIP3   OH233052   3.554   2.613   0.690 -0.0405 -0.1653  0.4259
 3806TIP3    H133053   3.627   2.619   0.752  2.0693 -1.5189 -1.7635
 3806TIP3    H233054   3.531   2.520   0.690 -0.7491  0.0076 -0.0233
 3807TIP3   OH233055   1.389   1.826   2.097  0.1096  0.8175  0.2780
 3807TIP3    H133056   1.409   1.740   2.133  0.1854 -0.8581 -3.3463
 3807TIP3    H233057   1.300   1.817   2.061  0.5161  1.8721 -1.0880
 3808TIP3   OH233058   1.307   2.500   3.220 -0.1590  1.0690 -0.1449
 3808TIP3    H133059   1.308   2.577   3.163  0.8728  1.0076 -0.2307
 3808TIP3    H233060   1.399   2.477   3.230 -0.3343  0.9010  1.3164
 3809TIP3   OH233061   1.545   2.156   1.680 -0.3255  0.0938  0.1058
 3809TIP3    H133062   1.557   2.065   1.707 -0.5545  0.5340  1.8383
 3809TIP3    H233063   1.628   2.180   1.640 -1.2096 -1.7091 -3.2069
 3810TIP3   OH233064   1.094   2.324   3.235  0.7705 -0.3851  0.1048
 3810TIP3    H133065   1.051   2.301   3.317  0.5712 -1.7559 -0.3451
 3810TIP3    H233066   1.163   2.386   3.260  0.0429  0.0222  1.1520
 3811TIP3   OH233067   2.637   5.646   0.090  0.5341  0.4396  0.2236
 3811TIP3    H133068   2.558   5.673   0.136 -0.4906  0.0690 -1.2493
 3811TIP3    H233069   2.667   5.725   0.044  0.0827  0.1875 -0.5154
 3812TIP3   OH233070   6.152   2.784   1.645 -0.7465 -0.2069 -0.1608
 3812TIP3    H133071   6.145   2.826   1.731 -0.1779  0.6388 -0.5162
 3812TIP3    H233072   6.124   2.694   1.660 -0.4071 -0.1364  0.9659
 3813TIP3   OH233073   1.976   6.180   7.695 -0.2482 -0.3412  0.6443
 3813TIP3    H133074   2.017   6.127   7.764  0.6949 -1.7904 -0.9377
 3813TIP3    H233075   2.008   6.142   7.614 -3.0138 -0.0837 -0.6813
 3814TIP3   OH233076   1.743   2.089   1.996  0.1540  0.3477 -0.3395
 3814TIP3    H133077   1.658   2.081   2.039  0.2581 -1.7652 -0.4444
 3814TIP3    H233078   1.803   2.040   2.053  1.2232  1.3632 -0.5410
 3815TIP3   OH233079   1.257   1.750   0.225 -0.4472 -0.5821  0.1991
 3815TIP3    H133080   1.322   1.722   0.289  0.3261 -0.7106 -0.6240
 3815TIP3    H233081   1.180   1.773   0.277  0.8633  1.4165  1.3540
 3816TIP3   OH233082   4.431   3.654   7.157 -0.2893  0.1647 -0.2784
 3816TIP3    H133083   4.460   3.652   7.248 -1.9031  1.3616  0.3120
 3816TIP3    H233084   4.511   3.664   7.106  0.8303 -2.2191  0.8549
 3817TIP3   OH233085   3.942   1.430   2.463  0.3234 -0.1887  0.0272
 3817TIP3    H133086   3.853   1.395   2.470 -0.0551  0.2046 -2.1822
 3817TIP3    H233087   3.975   1.429   2.553 -2.1254  0.2526  0.9996
 3818TIP3   OH233088   6.400   6.366   1.146 -0.1868 -0.3755 -1.0394
 3818TIP3    H133089   6.325   6.410   1.106 -1.6448 -0.4185  1.4441
 3818TIP3    H233090   6.362   6.312   1.216  2.0502 -1.4683 -0.5803
 3819TIP3   OH233091   2.756   2.400   0.179 -0.1389  0.2190 -0.6999
 3819TIP3    H133092   2.687   2.334   0.181 -1.1012  1.2034  0.6829
 3819TIP3    H233093   2.813   2.373   0.107 -2.0895 -0.5160 -2.0783
 3820TIP3   OH233094   0.351   6.003   3.079  0.6337 -0.0181 -1.0456
 3820TIP3    H133095   0.354   5.911   3.105 -2.3891  0.0341 -0.1557
 3820TIP3    H233096   0.292   6.004   3.004  0.1000  1.2784 -0.6260
 3821TIP3   OH233097   4.855   0.191   2.840 -0.0231 -0.3998 -0.6020
 3821TIP3    H133098   4.813   0.107   2.823  0.3462 -0.2747 -2.2925
 3821TIP3    H233099   4.948   0.173   2.837  0.0612  0.1090 -1.2807
 3822TIP3   OH233100   1.813   0.030   9.186 -0.4389  0.2802 -0.1031
 3822TIP3    H133101   1.857  -0.046   9.224 -2.1001 -0.4877  0.3643
 3822TIP3    H233102   1.739  -0.006   9.137 -0.1790  1.4839 -1.4336
 3823TIP3   OH233103   5.734   4.812   9.123 -0.2046 -0.7056  0.2393
 3823TIP3    H133104   5.661   4.793   9.065 -0.3150  0.1691  0.0778
 3823TIP3    H233105   5.721   4.903   9.149  0.1070 -0.9408  1.2617
 3824TIP3   OH233106   4.090   0.708   1.744 -0.1662 -0.3327 -0.2497
 3824TIP3    H133107   4.096   0.734   1.836 -0.1339 -2.3421  0.3794
 3824TIP3    H233108   3.998   0.720   1.721 -1.1870 -3.5829  1.3943
 3825TIP3   OH233109   1.727   2.564   2.718 -0.1256 -0.2406 -0.3544
 3825TIP3    H133110   1.683   2.516   2.788 -1.9400  1.2349 -0.4099
 3825TIP3    H233111   1.778   2.497   2.672 -0.4047 -1.5901  1.1842
 3826TIP3   OH233112   2.235   4.037   6.776  0.0329 -0.5581  0.1316
 3826TIP3    H133113   2.256   4.041   6.683  0.0824 -0.9941  0.1235
 3826TIP3    H233114   2.168   3.968   6.783  2.4170 -2.9841  0.8458
 3827TIP3   OH233115   4.952   1.453   1.549 -0.2062 -0.2789 -1.0223
 3827TIP3    H133116   4.899   1.527   1.519  0.2955  0.8763  0.7555
 3827TIP3    H233117   4.887   1.392   1.586 -0.4007  1.0610  1.0106
 3828TIP3   OH233118   1.398   0.677   7.749  0.2070  0.1732 -0.1365
 3828TIP3    H133119   1.448   0.636   7.678 -0.8100  1.7636 -1.8901
 3828TIP3    H233120   1.306   0.663   7.724 -0.1799  0.4264  1.0985
 3829TIP3   OH233121   0.589   3.060   0.796  0.2818  0.6063  0.2493
 3829TIP3    H133122   0.641   3.068   0.876  1.1299 -0.1302 -0.2184
 3829TIP3    H233123   0.498   3.061   0.827  0.4453  3.8861  0.9026
 3830TIP3   OH233124   2.024   6.460   8.128  0.5649 -0.4441 -0.0084
 3830TIP3    H133125   2.112   6.496   8.137 -0.1642  1.1303  1.3000
 3830TIP3    H233126   2.009   6.458   8.034  1.6850  0.0385 -0.2216
 3831TIP3   OH233127   6.639   2.687   1.418  0.2910  0.2663 -0.0752
 3831TIP3    H133128   6.555   2.673   1.461  0.5655 -1.5802 -0.0905
 3831TIP3    H233129   6.670   2.771   1.454  1.1167 -1.6847  4.3917
 3832TIP3   OH233130   0.457   1.861   0.822  0.0806  0.2164 -0.3433
 3832TIP3    H133131   0.443   1.884   0.730  1.4725 -0.3687 -0.7180
 3832TIP3    H233132   0.532   1.915   0.849 -1.5558  1.9251  1.0817
 3833TIP3   OH233133   1.946   4.772   0.639 -0.1382  0.3029 -0.2811
 3833TIP3    H133134   2.032   4.755   0.601  0.0506 -1.6066  0.8509
 3833TIP3    H233135   1.885   4.758   0.567  0.3440 -1.0860 -0.4402
 3834TIP3   OH233136   3.055   0.699   1.234 -0.6601 -0.1515 -0.4701
 3834TIP3    H133137   3.113   0.629   1.263 -1.5896 -1.1366 -0.8964
 3834TIP3    H233138   3.019   0.736   1.315  1.7420  1.5835 -0.1070
 3835TIP3   OH233139   6.215   4.622   1.598  0.0257  0.0414 -0.0099
 3835TIP3    H133140   6.160   4.669   1.661  0.0369 -0.3270  0.2760
 3835TIP3    H233141   6.278   4.574   1.651 -0.3255 -0.7258 -0.2691
 3836TIP3   OH233142   2.268   3.419   8.912  0.0827 -0.0607  0.0189
 3836TIP3    H133143   2.300   3.509   8.907  0.5207 -0.2502 -0.7401
 3836TIP3    H233144   2.302   3.386   8.995  1.0575  0.0511 -0.3252
 3837TIP3   OH233145   2.493   3.296   0.513  0.1713  0.0706  0.3505
 3837TIP3    H133146   2.516   3.389   0.503  0.4918  0.1993  2.0424
 3837TIP3    H233147   2.446   3.291   0.596 -1.5528 -1.0179 -0.6298
 3838TIP3   OH233148   3.642   3.532   1.147  0.2450 -0.1394  0.1236
 3838TIP3    H133149   3.605   3.612   1.109  1.1461 -0.0071 -0.5091
 3838TIP3    H233150   3.577   3.464   1.128 -0.2418  0.3200  0.1235
 3839TIP3   OH233151   5.352   2.939   8.583  0.3146  0.0301 -0.2334
 3839TIP3    H133152   5.302   2.919   8.662 -2.1961  2.7809 -0.9545
 3839TIP3    H233153   5.345   2.860   8.529 -2.5928 -0.0354  0.0989
 3840TIP3   OH233154   0.796   4.318   3.113 -0.4683  0.2367  0.1488
 3840TIP3    H133155   0.723   4.371   3.145 -1.5266 -0.7274 -0.5998
 3840TIP3    H233156   0.758   4.232   3.098  1.1973 -0.7625  1.2846
 3841TIP3   OH233157   3.836   1.787   0.514 -0.2442 -0.0939 -0.7783
 3841TIP3    H133158   3.847   1.870   0.468 -0.1471  0.1866 -0.2623
 3841TIP3    H233159   3.871   1.721   0.455  1.4596  0.4374 -0.4087
 3842TIP3   OH233160   3.375   0.594   0.049  0.1323  0.2290 -0.3750
 3842TIP3    H133161   3.343   0.575   0.137 -0.6853 -0.3566 -0.7927
 3842TIP3    H233162   3.403   0.509   0.015 -0.3549  0.3169 -0.9959
 3843TIP3   OH233163   2.964   6.395   7.377 -0.7420  0.4056  0.0993
 3843TIP3    H133164   2.961   6.479   7.330  0.1885 -0.1698 -1.0228
 3843TIP3    H233165   3.033   6.345   7.334  0.2069 -0.1386  2.1469
 3844TIP3   OH233166   4.187   4.323   2.220 -0.5383 -0.0149  0.1811
 3844TIP3    H133167   4.141   4.241   2.235 -0.7781 -0.1975 -1.3528
 3844TIP3    H233168   4.133   4.389   2.264 -1.5461 -0.4134 -0.3951
 3845TIP3   OH233169   1.906   6.081   9.121 -0.1219  0.3553  0.3326
 3845TIP3    H133170   1.844   6.127   9.065  0.7609  1.3075  0.1080
 3845TIP3    H233171   1.863   6.078   9.207 -0.2416  1.5200  0.3282
 3846TIP3   OH233172   3.196   1.307   0.741 -0.6391  0.4881 -0.2087
 3846TIP3    H133173   3.117   1.254   0.731  0.0034 -0.3907 -0.8061
 3846TIP3    H233174   3.258   1.270   0.678  0.6550  0.3680  1.0592
 3847TIP3   OH233175   2.173   1.787   2.075  0.4636  0.1662 -0.2284
 3847TIP3    H133176   2.103   1.759   2.016  0.9290  0.0350 -0.7254
 3847TIP3    H233177   2.250   1.794   2.019  0.7167  0.8862  0.1995
 3848TIP3   OH233178   4.734   3.708   2.540  0.2769 -0.3524 -0.0569
 3848TIP3    H133179   4.725   3.620   2.503 -0.3557 -0.5998  0.6594
 3848TIP3    H233180   4.648   3.727   2.578  0.1033  0.9665 -1.0191
 3849TIP3   OH233181   3.439   1.601   8.078 -0.3059 -0.3938  0.0559
 3849TIP3    H133182   3.490   1.598   7.997 -1.3440 -0.6407 -0.6038
 3849TIP3    H233183   3.355   1.638   8.053 -0.3423  0.3432  1.2036
 3850TIP3   OH233184   2.626   6.122   8.411 -0.1250  0.0866  0.3785
 3850TIP3    H133185   2.548   6.178   8.412 -1.7461 -2.0259  0.2496
 3850TIP3    H233186   2.675   6.148   8.488  0.5521  3.3634 -0.9782
 3851TIP3   OH233187   6.563   4.823   0.511  0.2293  0.0470  0.2053
 3851TIP3    H133188   6.592   4.764   0.441  1.5053  0.4515  0.3818
 3851TIP3    H233189   6.622   4.805   0.584 -0.3554  0.4590  0.7886
 3852TIP3   OH233190   6.002   2.645   2.154 -0.3740 -0.0484 -0.6516
 3852TIP3    H133191   5.970   2.685   2.073 -1.2266  1.2923  0.2869
 3852TIP3    H233192   6.010   2.719   2.215  3.4898 -0.4877 -0.4373
 3853TIP3   OH233193   1.369   3.308   1.522  0.6083  0.5381 -0.3354
 3853TIP3    H133194   1.284   3.302   1.477  0.6610 -0.8210 -0.3008
 3853TIP3    H233195   1.356   3.377   1.587 -0.3435  0.6394 -0.6071
 3854TIP3   OH233196   3.188   3.620   1.071  0.1625  0.0682 -0.3430
 3854TIP3    H133197   3.196   3.592   0.980  0.4909  1.2436 -0.6953
 3854TIP3    H233198   3.103   3.665   1.075 -0.4530 -1.0837  0.2624
 3855TIP3   OH233199   1.458   1.857   1.056  0.0442 -0.1986  0.0714
 3855TIP3    H133200   1.523   1.814   1.112  1.4179 -1.1972 -2.1204
 3855TIP3    H233201   1.374   1.840   1.098  0.9495 -1.4872  1.4431
 3856TIP3   OH233202   6.588   0.569   0.683 -0.7783 -0.4392  0.4154
 3856TIP3    H133203   6.626   0.656   0.686 -0.0245 -0.7878  1.8721
 3856TIP3    H233204   6.498   0.583   0.652 -0.7274  0.8602  0.7993
 3857TIP3   OH233205   2.864   6.109   7.721  0.7394 -0.3554  0.2298
 3857TIP3    H133206   2.934   6.078   7.779  0.2878 -0.7960  0.5471
 3857TIP3    H233207   2.882   6.202   7.710  1.0497 -0.3435  0.7811
 3858TIP3   OH233208   5.850   0.712   2.283 -0.1546 -0.4918 -0.0900
 3858TIP3    H133209   5.762   0.697   2.315 -0.5482  0.9631 -0.4243
 3858TIP3    H233210   5.838   0.757   2.199  0.8840 -1.9208 -1.0568
 3859TIP3   OH233211   4.040   1.165   2.261  0.3595 -0.1759  0.0836
 3859TIP3    H133212   4.026   1.239   2.319 -2.6368  0.8250 -1.6571
 3859TIP3    H233213   4.083   1.202   2.184 -1.3594 -0.0864 -0.8931
 3860TIP3   OH233214   3.642   2.565   8.180  0.1712  0.0984 -0.2399
 3860TIP3    H133215   3.666   2.622   8.108 -1.1986 -0.5405 -1.2440
 3860TIP3    H233216   3.547   2.563   8.179  0.1470 -0.8018  0.8959
 3861TIP3   OH233217   4.548   4.629   0.448 -0.7511  0.1510  0.2204
 3861TIP3    H133218   4.562   4.723   0.461 -0.4367  0.3011 -1.0621
 3861TIP3    H233219   4.458   4.622   0.415 -0.5088  0.0741 -0.4230
 3862TIP3   OH233220   6.574   0.291   1.120 -0.1858 -0.5420  0.3878
 3862TIP3    H133221   6.597   0.383   1.104  0.8973 -0.8456  0.0979
 3862TIP3    H233222   6.633   0.242   1.063 -2.3959 -1.3718 -1.3546
 3863TIP3   OH233223   4.344   1.128   9.032 -0.0687  0.6849  0.2431
 3863TIP3    H133224   4.368   1.054   8.977 -1.9947 -0.8563  1.3490
 3863TIP3    H233225   4.263   1.162   8.993 -1.6245 -0.6014  2.1293
 3864TIP3   OH233226   0.574   4.329   0.524 -0.3917 -0.2279  0.5577
 3864TIP3    H133227   0.638   4.265   0.495 -0.9343 -0.3998 -0.2934
 3864TIP3    H233228   0.500   4.319   0.463 -2.3139 -1.7773  2.9528
 3865TIP3   OH233229   5.764   5.328   8.550  0.5382 -0.5762  0.1889
 3865TIP3    H133230   5.814   5.271   8.608  0.3023  1.5526  2.6763
 3865TIP3    H233231   5.822   5.404   8.535 -0.2056 -0.1543 -0.6909
 3866TIP3   OH233232   1.271   6.266   2.391 -0.1204 -0.5316  0.0852
 3866TIP3    H133233   1.212   6.210   2.341  0.3231  0.0503 -1.1142
 3866TIP3    H233234   1.229   6.274   2.477 -1.3171 -0.8676 -0.4454
 3867TIP3   OH233235   4.382   6.316   0.902 -0.2539  0.2608 -0.1783
 3867TIP3    H133236   4.438   6.293   0.975 -0.2311 -2.2910 -0.8875
 3867TIP3    H233237   4.431   6.382   0.852  0.6583  0.4239  0.9153
 3868TIP3   OH233238   4.955   5.894   9.056 -0.0752  0.6175 -0.6228
 3868TIP3    H133239   4.975   5.821   8.998 -0.1858  1.4213 -1.7144
 3868TIP3    H233240   4.999   5.969   9.016 -0.0625  1.1752  0.4052
 3869TIP3   OH233241   1.065   4.346   1.591 -0.3849  0.2182 -0.8067
 3869TIP3    H133242   1.145   4.357   1.539  0.1105 -0.4253 -0.1896
 3869TIP3    H233243   1.016   4.427   1.576  1.0139  1.2350 -0.1059
 3870TIP3   OH233244   2.554   5.198   7.464 -0.0491  0.2722  0.1958
 3870TIP3    H133245   2.614   5.243   7.404  1.2188  1.8646  2.5002
 3870TIP3    H233246   2.487   5.263   7.484 -0.6620 -0.3637  0.2571
 3871TIP3   OH233247   3.603   4.734   2.805  0.2160  0.5814 -0.3183
 3871TIP3    H133248   3.515   4.757   2.776 -0.7677 -2.8983 -0.5132
 3871TIP3    H233249   3.657   4.809   2.778 -2.5975  2.8367 -0.1848
 3872TIP3   OH233250   0.664   5.328   7.980 -0.2671 -0.6403 -0.2686
 3872TIP3    H133251   0.626   5.332   7.892 -0.8814 -0.3349  0.0025
 3872TIP3    H233252   0.636   5.410   8.022  1.7223  0.1830 -0.4601
 3873TIP3   OH233253   1.556   2.981   1.373  0.0071 -0.8114 -0.4643
 3873TIP3    H133254   1.623   3.021   1.429 -0.0526  0.2986 -1.1558
 3873TIP3    H233255   1.536   2.898   1.416  0.8606 -0.5535  0.4816
 3874TIP3   OH233256   3.965   1.485   1.345 -0.8126  1.1538  0.4479
 3874TIP3    H133257   3.886   1.438   1.321 -1.1346  1.2989  1.1961
 3874TIP3    H233258   3.950   1.514   1.435 -1.0477  3.5372 -0.2687
 3875TIP3   OH233259   6.484   2.614   0.930 -0.0693  0.3157  0.2259
 3875TIP3    H133260   6.477   2.525   0.964 -1.5689 -1.4861 -4.0942
 3875TIP3    H233261   6.575   2.638   0.944  0.2890 -1.6698  1.8952
 3876TIP3   OH233262   1.508   1.154   3.230  0.1127  0.5358 -0.6119
 3876TIP3    H133263   1.471   1.180   3.146 -1.5692  0.0740 -0.0671
 3876TIP3    H233264   1.599   1.134   3.212 -0.6321 -1.2842 -2.6952
 3877TIP3   OH233265   4.841   0.503   0.235 -0.2838 -0.1343  0.4798
 3877TIP3    H133266   4.761   0.451   0.221  0.6203 -1.6153  0.5463
 3877TIP3    H233267   4.912   0.443   0.213  0.8161  1.8730 -2.0031
 3878TIP3   OH233268   4.284   0.950   8.207 -0.0387 -0.1250 -0.1330
 3878TIP3    H133269   4.329   1.027   8.172  0.3141  0.8659  2.2738
 3878TIP3    H233270   4.228   0.985   8.276  0.6501 -2.0844  1.5187
 3879TIP3   OH233271   6.453   3.695   1.217 -0.1020 -0.1353  0.0357
 3879TIP3    H133272   6.374   3.641   1.220 -1.0993  1.0650 -2.3154
 3879TIP3    H233273   6.421   3.785   1.220  1.1635  0.3819 -0.9245
 3880TIP3   OH233274   2.332   3.465   1.601 -0.4312 -0.2378 -0.4311
 3880TIP3    H133275   2.351   3.521   1.676  1.3065 -0.2156 -0.8491
 3880TIP3    H233276   2.321   3.378   1.639 -0.4827 -0.0697 -0.0563
 3881TIP3   OH233277   3.630   1.261   8.782 -0.3850 -0.7401 -0.3039
 3881TIP3    H133278   3.654   1.231   8.694  1.6903 -3.7040  1.0864
 3881TIP3    H233279   3.714   1.281   8.823 -1.1991 -0.7305  1.4202
 3882TIP3   OH233280   0.471   1.834   7.509 -0.0309 -0.3587  0.2387
 3882TIP3    H133281   0.390   1.881   7.530 -1.0586 -1.2512 -1.4657
 3882TIP3    H233282   0.457   1.746   7.542 -0.9428 -1.2754 -2.3319
 3883TIP3   OH233283   3.577   3.607   7.474  0.8145  0.2497  0.6050
 3883TIP3    H133284   3.622   3.634   7.554  0.4095  1.6824  0.3664
 3883TIP3    H233285   3.485   3.603   7.498  0.7789 -0.1005  0.4137
 3884TIP3   OH233286   3.449   2.277   3.449  0.4329  0.6640 -0.5915
 3884TIP3    H133287   3.377   2.326   3.409  0.3646 -0.8928 -2.5245
 3884TIP3    H233288   3.523   2.290   3.390  0.4189 -1.4678 -1.1794
 3885TIP3   OH233289   5.151   4.700   2.956 -0.0151  0.2591 -0.2568
 3885TIP3    H133290   5.110   4.765   3.012  0.8163  1.2113 -0.7240
 3885TIP3    H233291   5.096   4.696   2.878  0.3071  0.9171 -0.5227
 3886TIP3   OH233292   4.154   4.283   7.867 -0.3574 -0.2118 -0.1687
 3886TIP3    H133293   4.105   4.280   7.785 -1.1402  2.3242  0.1028
 3886TIP3    H233294   4.095   4.248   7.932 -1.2610  1.3116 -0.1164
 3887TIP3   OH233295   1.902   4.051   1.134  0.3165  0.4402 -0.2715
 3887TIP3    H133296   1.851   4.054   1.215  0.4999 -1.8352  0.0087
 3887TIP3    H233297   1.842   4.080   1.066 -0.8269 -0.5119  0.2944
 3888TIP3   OH233298   0.398   2.272   1.385  0.8931 -0.3508  0.1375
 3888TIP3    H133299   0.386   2.351   1.439  0.3334 -0.0230 -0.4436
 3888TIP3    H233300   0.470   2.294   1.327  0.6453 -0.2047 -0.1199
 3889TIP3   OH233301   0.067   6.352   7.762  0.0535  0.0328  0.2370
 3889TIP3    H133302   0.062   6.407   7.683  0.8697  0.7860  0.6860
 3889TIP3    H233303   0.109   6.409   7.827 -0.4443 -0.6440  1.1582
 3890TIP3   OH233304   2.984   0.391   2.895 -0.4703  0.1017  0.1188
 3890TIP3    H133305   2.932   0.317   2.865  1.5407 -1.9216  1.3097
 3890TIP3    H233306   2.958   0.404   2.986 -1.1165  1.1929 -0.1990
 3891TIP3   OH233307   6.243   2.689   0.037 -0.3856 -0.2747  0.2765
 3891TIP3    H133308   6.243   2.681   0.133 -2.3541 -2.6849  0.1781
 3891TIP3    H233309   6.158   2.727   0.017  0.4455  1.2404 -0.5168
 3892TIP3   OH233310   6.622   1.342   0.238 -0.5193  0.1572  0.1999
 3892TIP3    H133311   6.565   1.322   0.164  2.0244  0.4530 -1.9718
 3892TIP3    H233312   6.643   1.256   0.276  1.8049 -0.5315 -2.3806
 3893TIP3   OH233313   0.833   6.192   0.570  0.0901 -0.1087 -0.1644
 3893TIP3    H133314   0.743   6.223   0.558  0.0162  0.0808  0.8102
 3893TIP3    H233315   0.886   6.249   0.515 -0.2801  0.4158  0.0198
 3894TIP3   OH233316   2.009   6.645   8.980 -0.0606 -0.8088  0.0162
 3894TIP3    H133317   2.100   6.633   8.954  0.2319  0.6885  0.2267
 3894TIP3    H233318   2.009   6.636   9.075 -0.3415 -1.8940 -0.0760
 3895TIP3   OH233319   5.582   6.618   7.838  0.0783 -0.1125 -0.6021
 3895TIP3    H133320   5.611   6.691   7.892  0.4816 -0.2924 -0.5742
 3895TIP3    H233321   5.592   6.541   7.894  1.4490 -0.4347 -1.2391
 3896TIP3   OH233322   6.345   6.208   0.758  0.2057  0.6074  0.4038
 3896TIP3    H133323   6.298   6.212   0.675  1.1638  0.8732 -0.1529
 3896TIP3    H233324   6.278   6.192   0.824 -0.4509 -0.8461 -0.5503
 3897TIP3   OH233325   5.616   5.768   1.117 -0.0056  0.0579  0.0925
 3897TIP3    H133326   5.532   5.742   1.081  0.4915 -0.2610 -0.8666
 3897TIP3    H233327   5.647   5.690   1.165 -0.0085 -0.0118 -0.0186
 3898TIP3   OH233328   2.110   4.510   1.110 -0.4071 -0.2607 -0.6424
 3898TIP3    H133329   2.084   4.509   1.018 -0.1748 -0.8330 -0.7059
 3898TIP3    H233330   2.147   4.423   1.125 -0.5025 -0.1894  0.0107
 3899TIP3   OH233331   0.647   0.398   0.063 -0.3586  0.0838  0.3875
 3899TIP3    H133332   0.642   0.493   0.047 -0.3205  0.3187  1.6511
 3899TIP3    H233333   0.618   0.359  -0.019 -1.9810  1.2114  0.3646
 3900TIP3   OH233334   6.157   2.368   7.753 -0.2839  0.3104  0.3459
 3900TIP3    H133335   6.102   2.291   7.764 -1.0955  0.9805  1.1350
 3900TIP3    H233336   6.143   2.395   7.662  2.5162 -2.3050 -1.0297
 3901TIP3   OH233337   4.653   5.058   2.482 -0.4169 -0.3276 -0.1184
 3901TIP3    H133338   4.707   5.087   2.409  0.6219 -0.8912  0.4135
 3901TIP3    H233339   4.701   5.086   2.560 -0.3198 -1.7876  0.3803
 3902TIP3   OH233340   4.810   1.842   1.931  0.3991  0.6772 -0.9664
 3902TIP3    H133341   4.824   1.771   1.868 -0.2380 -0.6689  0.3324
 3902TIP3    H233342   4.865   1.818   2.006  0.7468  1.9689 -0.7867
 3903TIP3   OH233343   2.087   3.775   8.189 -0.3076  0.1054  0.2181
 3903TIP3    H133344   2.012   3.773   8.249 -0.7870  1.7125 -0.2844
 3903TIP3    H233345   2.053   3.737   8.108 -0.8770  1.5798 -0.2764
 3904TIP3   OH233346   5.040   2.572   2.806  0.3561  0.3218 -0.5087
 3904TIP3    H133347   5.010   2.485   2.831  1.6353 -0.3351 -1.1534
 3904TIP3    H233348   5.003   2.630   2.872 -1.9437 -0.4499 -1.0427
 3905TIP3   OH233349   0.948   5.038   0.492 -0.1013  0.1663 -0.0661
 3905TIP3    H133350   1.028   5.055   0.442 -0.7335 -0.1351 -1.2212
 3905TIP3    H233351   0.915   5.125   0.515 -1.6071  0.5537 -3.1663
 3906TIP3   OH233352   2.338   3.529   2.746 -0.3800  0.0110  0.4242
 3906TIP3    H133353   2.280   3.479   2.689  0.1368  3.3147 -3.4856
 3906TIP3    H233354   2.280   3.589   2.792 -0.5333 -0.8440  1.3904
 3907TIP3   OH233355   3.337   6.378   0.262  0.3307 -0.5774  0.5450
 3907TIP3    H133356   3.253   6.422   0.276  1.1238  0.3668  2.7223
 3907TIP3    H233357   3.341   6.364   0.167 -1.9265  0.0412  0.2969
 3908TIP3   OH233358   3.457   5.560   1.360 -0.2916 -0.1762 -0.1307
 3908TIP3    H133359   3.434   5.629   1.298  1.4176  0.2612 -0.3265
 3908TIP3    H233360   3.532   5.515   1.319 -1.6178 -2.4454 -0.2180
 3909TIP3   OH233361   5.500   4.570   7.696  0.3951 -0.3760  0.1519
 3909TIP3    H133362   5.416   4.585   7.652 -0.5443 -0.2156  1.9230
 3909TIP3    H233363   5.477   4.523   7.776  1.8405  0.8346  1.3221
 3910TIP3   OH233364   5.431   5.937   0.188 -0.0646 -0.0955  0.1981
 3910TIP3    H133365   5.425   6.026   0.221 -0.8799 -0.1761  0.2868
 3910TIP3    H233366   5.524   5.923   0.171  0.1306  0.5757  0.7169
 3911TIP3   OH233367   4.823   0.444   0.732  0.3994  0.5449  0.3275
 3911TIP3    H133368   4.819   0.488   0.818  2.2294 -0.1615  0.8140
 3911TIP3    H233369   4.802   0.513   0.670  2.8663  2.1430  1.0993
 3912TIP3   OH233370   4.876   2.611   0.495 -1.0134  0.4501  1.0343
 3912TIP3    H133371   4.816   2.538   0.480 -0.5016  0.1452  0.4207
 3912TIP3    H233372   4.879   2.658   0.412 -0.0929  0.2254  0.9293
 3913TIP3   OH233373   5.606   1.624   8.760  0.4134 -0.0969 -0.1336
 3913TIP3    H133374   5.698   1.637   8.737  0.1958  0.8843 -0.5067
 3913TIP3    H233375   5.606   1.609   8.855  1.1144 -1.9941 -0.3916
 3914TIP3   OH233376   0.182   6.680   9.160 -0.2125 -0.0506  0.1595
 3914TIP3    H133377   0.197   6.736   9.236 -1.3082 -1.3337  1.3852
 3914TIP3    H233378   0.147   6.599   9.197  0.6408 -1.2848 -1.6046
 3915TIP3   OH233379   1.230   0.741   2.006  0.4323  0.3058 -0.7235
 3915TIP3    H133380   1.161   0.803   2.031  0.8411  1.4387 -2.2527
 3915TIP3    H233381   1.278   0.786   1.937  2.8289 -0.3806  0.4179
 3916TIP3   OH233382   2.365   5.913   8.866 -0.5800 -0.1179 -0.4442
 3916TIP3    H133383   2.404   5.982   8.813 -2.0003 -0.1581 -1.6004
 3916TIP3    H233384   2.317   5.859   8.804  0.8856 -2.4861  0.3533
 3917TIP3   OH233385   3.010   1.609   1.217 -0.5694  0.5779  0.1739
 3917TIP3    H133386   3.075   1.670   1.182 -0.0082 -0.0968  0.0146
 3917TIP3    H233387   3.035   1.524   1.180 -0.8125  0.0944  1.0955
 3918TIP3   OH233388   0.312   2.918   8.823  0.6961 -0.0190  0.6846
 3918TIP3    H133389   0.231   2.941   8.779  0.4470  1.0145  1.6356
 3918TIP3    H233390   0.366   2.877   8.755  0.3982  1.6382 -0.6237
 3919TIP3   OH233391   5.030   6.514   2.705  0.6196  0.1207 -0.3209
 3919TIP3    H133392   4.983   6.525   2.787  0.6033  1.3899 -0.4816
 3919TIP3    H233393   4.997   6.583   2.649 -0.8092 -1.8822 -2.1154
 3920TIP3   OH233394   3.001   3.675   0.228  0.7146 -0.0968 -0.4360
 3920TIP3    H133395   3.059   3.632   0.291 -2.0383 -0.6754  1.9785
 3920TIP3    H233396   2.998   3.616   0.153  2.4129 -0.5365 -0.1839
 3921TIP3   OH233397   0.504   2.995   1.584 -0.5592 -0.2171  1.0452
 3921TIP3    H133398   0.491   3.089   1.567  1.5018  0.2620  1.7955
 3921TIP3    H233399   0.430   2.953   1.541 -0.7790  1.6478 -0.5823
 3922TIP3   OH233400   2.941   1.447   8.262 -0.5722  0.3945 -0.0177
 3922TIP3    H133401   2.993   1.430   8.341 -0.1887 -0.1742 -0.3853
 3922TIP3    H233402   2.870   1.504   8.292 -0.1053  0.6537  0.6210
 3923TIP3   OH233403   1.676   4.674   7.427  0.0209  0.5235  0.3329
 3923TIP3    H133404   1.608   4.729   7.388  0.9778  0.3094 -1.7699
 3923TIP3    H233405   1.758   4.721   7.409  0.5409  0.3833  2.1183
 3924TIP3   OH233406   2.958   1.632   2.873 -0.7013 -0.0123 -0.7835
 3924TIP3    H133407   3.000   1.716   2.856  0.1112  0.0317  1.1664
 3924TIP3    H233408   2.875   1.636   2.826 -1.0235  2.1944 -0.1082
 3925TIP3   OH233409   4.044   5.042   2.420 -0.1044 -0.3691 -0.1469
 3925TIP3    H133410   4.047   4.947   2.431  0.6948 -1.0019 -4.1264
 3925TIP3    H233411   4.109   5.075   2.482 -0.6533 -2.3258  1.5924
 3926TIP3   OH233412   0.975   0.290   0.353 -0.0960  0.0217  0.5976
 3926TIP3    H133413   1.060   0.278   0.397 -0.3868  0.1005  1.1867
 3926TIP3    H233414   0.988   0.366   0.297  0.9091 -1.2603 -1.0311
 3927TIP3   OH233415   1.019   2.760   7.641  0.0587  0.3823  0.4243
 3927TIP3    H133416   0.992   2.703   7.713  2.2345 -1.7170 -0.2830
 3927TIP3    H233417   1.115   2.760   7.645  0.2110  0.8253 -1.9843
 3928TIP3   OH233418   6.033   2.124   2.200  0.1946  0.8116 -0.5840
 3928TIP3    H133419   6.102   2.062   2.178 -1.7647 -2.0459  0.6110
 3928TIP3    H233420   6.045   2.143   2.293 -1.9308 -1.8309  0.3788
 3929TIP3   OH233421   4.017   4.445   8.174  0.0258 -0.1434  0.0760
 3929TIP3    H133422   3.971   4.476   8.252  0.3740  1.1635 -0.2129
 3929TIP3    H233423   3.967   4.483   8.101 -1.0243 -2.3337 -0.4283
 3930TIP3   OH233424   4.837   2.021   3.015 -0.4339  0.6317 -0.3403
 3930TIP3    H133425   4.799   1.953   3.070 -0.6224 -0.1793 -1.4307
 3930TIP3    H233426   4.820   2.103   3.062 -0.5874 -0.0257  0.7853
 3931TIP3   OH233427   5.490   0.834   8.260 -0.0717 -0.0988  0.0132
 3931TIP3    H133428   5.433   0.760   8.242  0.4514 -0.4605 -0.1872
 3931TIP3    H233429   5.431   0.903   8.291 -0.5791 -0.5485  0.0678
 3932TIP3   OH233430   1.039   1.133   0.139  0.5465  0.0169 -0.0443
 3932TIP3    H133431   0.996   1.208   0.180 -0.6598 -1.0661  0.7262
 3932TIP3    H233432   1.076   1.168   0.058 -2.1282  0.9299 -0.9606
 3933TIP3   OH233433   0.791   2.866   7.517 -0.1390  0.4530  0.6103
 3933TIP3    H133434   0.848   2.825   7.582 -1.0814 -0.7506  0.7101
 3933TIP3    H233435   0.844   2.937   7.480  0.5391  0.9779  2.4597
 3934TIP3   OH233436   6.308   0.739   0.812  0.5795 -0.2504 -0.7592
 3934TIP3    H133437   6.316   0.706   0.722 -0.4621 -0.5831 -0.7504
 3934TIP3    H233438   6.315   0.661   0.867  0.9989 -0.0748 -0.5602
 3935TIP3   OH233439   3.339   1.227   2.338  0.0659  0.2462  0.2268
 3935TIP3    H133440   3.416   1.273   2.373  1.2863 -1.5288  0.0580
 3935TIP3    H233441   3.354   1.135   2.361 -2.4661 -0.0642  0.9381
 3936TIP3   OH233442   3.268   0.567   2.331  0.0807 -0.2554 -0.0304
 3936TIP3    H133443   3.250   0.600   2.243  1.1781 -1.0986 -0.6055
 3936TIP3    H233444   3.275   0.645   2.386 -1.6961  0.2413 -0.4473
 3937TIP3   OH233445   1.531   0.922   7.447 -0.2358  0.9897  0.1909
 3937TIP3    H133446   1.552   0.844   7.395 -2.7340 -0.3136  0.9513
 3937TIP3    H233447   1.609   0.977   7.440  2.9713 -2.7744  1.8803
 3938TIP3   OH233448   0.145   6.565   2.401  0.2055 -0.4255 -0.1655
 3938TIP3    H133449   0.161   6.544   2.309 -1.7834 -1.3237 -0.3664
 3938TIP3    H233450   0.187   6.495   2.449 -0.8829 -1.3901 -0.5540
 3939TIP3   OH233451   4.714   6.041   1.698  0.6681 -0.2853  0.3658
 3939TIP3    H133452   4.785   6.101   1.675 -0.5062  0.6477 -0.9961
 3939TIP3    H233453   4.651   6.095   1.746 -0.4477 -0.3520 -0.9570
 3940TIP3   OH233454   3.744   2.612   1.796 -0.1988 -0.9440 -0.1352
 3940TIP3    H133455   3.700   2.541   1.749  0.4453 -0.9366 -0.7560
 3940TIP3    H233456   3.817   2.570   1.840  0.3369 -0.6291 -0.7117
 3941TIP3   OH233457   5.559   4.826   2.402  0.4326  0.1492  0.2827
 3941TIP3    H133458   5.473   4.865   2.415  0.0634 -0.7350  0.5717
 3941TIP3    H233459   5.609   4.893   2.355  0.9943  2.5228  3.8077
 3942TIP3   OH233460   1.146   2.310   2.656 -0.1444  0.3368 -0.1839
 3942TIP3    H133461   1.077   2.345   2.600 -1.3907 -0.1190  1.0095
 3942TIP3    H233462   1.109   2.314   2.745  0.4985 -1.9016  0.2604
 3943TIP3   OH233463   2.888   0.386   0.238 -0.2868 -0.0094 -0.5216
 3943TIP3    H133464   2.911   0.473   0.272  0.8972  0.5506 -2.6003
 3943TIP3    H233465   2.907   0.327   0.311 -0.7835  1.4038  0.8269
 3944TIP3   OH233466   4.313   4.916   8.564  0.3774  0.3504  0.0923
 3944TIP3    H133467   4.392   4.865   8.543 -0.7786 -1.5253  0.0612
 3944TIP3    H233468   4.245   4.879   8.508 -0.5000  2.0866 -0.0529
 3945TIP3   OH233469   5.088   3.919   2.607  0.1794 -0.2610  0.6778
 3945TIP3    H133470   5.106   4.010   2.628 -1.9034  0.2460  0.4740
 3945TIP3    H233471   5.007   3.899   2.654  0.5372 -1.9797  0.6332
 3946TIP3   OH233472   0.882   3.148   0.264  0.2081 -0.0655 -0.4891
 3946TIP3    H133473   0.787   3.161   0.270  0.1748 -0.1470 -0.8220
 3946TIP3    H233474   0.895   3.058   0.296  0.1260 -0.2029 -0.8417
 3947TIP3   OH233475   1.390   3.280   0.004 -0.2882  0.9138 -0.3788
 3947TIP3    H133476   1.447   3.205   0.019 -0.0515  1.1011 -0.3393
 3947TIP3    H233477   1.425   3.349   0.060 -1.5061  0.5593  0.8883
 3948TIP3   OH233478   5.035   4.518   8.979 -0.1107  0.3920 -0.2664
 3948TIP3    H133479   5.119   4.481   9.008 -0.2287 -0.6447 -1.1586
 3948TIP3    H233480   4.992   4.445   8.934 -0.9902  1.2431 -0.8304
 3949TIP3   OH233481   4.626   2.339   2.004  0.7532 -0.2889 -0.6004
 3949TIP3    H133482   4.629   2.405   2.073 -1.9310  1.2574 -1.8175
 3949TIP3    H233483   4.682   2.373   1.935  1.1993 -0.4434 -0.3177
 3950TIP3   OH233484   2.925   6.115   2.119  0.3075  0.0746 -0.1571
 3950TIP3    H133485   2.892   6.031   2.085  1.1187 -0.7294  0.9544
 3950TIP3    H233486   2.846   6.167   2.134 -0.4541 -1.4262  1.4526
 3951TIP3   OH233487   3.242   1.075   1.549 -0.0651 -0.1086  0.7787
 3951TIP3    H133488   3.169   1.135   1.531  0.0230  0.4356  2.0695
 3951TIP3    H233489   3.298   1.081   1.472 -0.1830  1.3191  0.7764
 3952TIP3   OH233490   5.753   0.574   7.227 -0.2835 -0.3970 -0.3280
 3952TIP3    H133491   5.765   0.498   7.170 -2.4056  0.3512 -1.9125
 3952TIP3    H233492   5.736   0.647   7.167 -0.1132  0.9720  1.2034
 3953TIP3   OH233493   1.156   6.552   1.289  0.2733 -0.6006  0.4067
 3953TIP3    H133494   1.243   6.553   1.250  0.0994  0.2814 -0.0010
 3953TIP3    H233495   1.130   6.645   1.291  1.1291 -0.2664  4.5410
 3954TIP3   OH233496   2.188   2.689   7.976  0.2336  0.5358 -0.7097
 3954TIP3    H133497   2.245   2.614   7.960 -0.0825  0.2482 -0.4936
 3954TIP3    H233498   2.112   2.653   8.020  1.2113  1.3459  1.8173
 3955TIP3   OH233499   0.482   5.783   0.898  0.2960 -0.1564  0.4283
 3955TIP3    H133500   0.414   5.850   0.894  0.9948  0.5186 -0.6059
 3955TIP3    H233501   0.486   5.748   0.809  1.3665 -0.1130  0.4470
 3956TIP3   OH233502   1.834   6.260   0.459  0.2999 -0.1245 -0.6017
 3956TIP3    H133503   1.794   6.225   0.379  1.0560 -1.5931 -0.3541
 3956TIP3    H233504   1.789   6.344   0.472 -1.2000 -0.7414 -1.4943
 3957TIP3   OH233505   2.576   4.054   8.760  0.4440 -0.0203 -0.6247
 3957TIP3    H133506   2.509   4.006   8.710  0.9646 -0.4216 -0.9508
 3957TIP3    H233507   2.560   4.146   8.738 -1.2745  0.1006  0.8737
 3958TIP3   OH233508   3.492   0.385   9.035  0.1279 -0.7752  1.1998
 3958TIP3    H133509   3.560   0.401   8.969 -0.9539 -2.2570 -0.3679
 3958TIP3    H233510   3.431   0.457   9.025 -0.4337 -1.3859 -0.0258
 3959TIP3   OH233511   4.489   3.162   2.171  0.4036 -0.0698  0.4720
 3959TIP3    H133512   4.485   3.201   2.258 -0.1313  0.3875  0.2474
 3959TIP3    H233513   4.428   3.214   2.118 -2.1004 -2.5647  0.6762
 3960TIP3   OH233514   5.686   4.043   0.752 -0.0258  0.2132  0.2127
 3960TIP3    H133515   5.594   4.057   0.730 -0.3237  0.6608  1.6840
 3960TIP3    H233516   5.709   4.115   0.810  1.3461  0.2611 -0.3267
 3961TIP3   OH233517   6.258   5.726   1.651  0.4597 -0.0084  0.3557
 3961TIP3    H133518   6.226   5.636   1.644  0.5862  0.0462 -1.3269
 3961TIP3    H233519   6.350   5.721   1.627  0.7011  0.4584  1.1349
 3962TIP3   OH233520   1.187   2.829   0.691 -0.2479  0.2058  0.5355
 3962TIP3    H133521   1.193   2.772   0.768  2.7676  0.0788  0.3458
 3962TIP3    H233522   1.261   2.889   0.701 -2.0680  2.7698 -0.3554
 3963TIP3   OH233523   4.268   4.831   7.570 -0.4431  0.9253 -0.1264
 3963TIP3    H133524   4.245   4.922   7.586 -1.9003  0.7948 -1.2420
 3963TIP3    H233525   4.183   4.785   7.566  0.2208 -1.2513  4.2853
 3964TIP3   OH233526   0.424   6.282   7.846  0.4192 -0.2893 -0.5348
 3964TIP3    H133527   0.373   6.207   7.878  2.1137 -0.8912  0.9381
 3964TIP3    H233528   0.413   6.280   7.751 -0.2896 -1.8601 -0.4585
 3965TIP3   OH233529   2.364   2.291   1.663  0.3018  0.2716 -0.1198
 3965TIP3    H133530   2.294   2.296   1.729 -1.5344 -0.4678 -1.8797
 3965TIP3    H233531   2.424   2.361   1.686 -1.6148  1.6852  0.8818
 3966TIP3   OH233532   3.070   5.847   0.877 -0.1080 -0.1000 -0.6582
 3966TIP3    H133533   3.089   5.868   0.786  2.2856 -1.4978 -0.5870
 3966TIP3    H233534   3.118   5.912   0.928 -0.3791 -0.0910 -0.4070
 3967TIP3   OH233535   1.903   2.234   1.821 -0.1248 -0.5679  1.0680
 3967TIP3    H133536   1.876   2.180   1.895  0.5226  0.5599  2.1761
 3967TIP3    H233537   1.993   2.260   1.843 -0.3060  0.6682  0.4155
 3968TIP3   OH233538   4.652   1.218   2.065 -0.3118 -0.3351 -0.0191
 3968TIP3    H133539   4.738   1.200   2.027 -0.0447  0.5690  0.1259
 3968TIP3    H233540   4.650   1.314   2.076 -0.9260 -0.4403  0.9236
 3969TIP3   OH233541   0.059   5.537   1.129 -0.3819 -0.5548 -0.6685
 3969TIP3    H133542   0.027   5.447   1.134 -0.5557 -0.4532  0.2852
 3969TIP3    H233543  -0.004   5.587   1.181 -0.2423  0.1035 -1.1275
 3970TIP3   OH233544   5.085   0.771   8.274  0.2171 -0.1688 -0.1370
 3970TIP3    H133545   5.147   0.816   8.331 -0.9331  0.8904  0.3046
 3970TIP3    H233546   5.074   0.685   8.313  1.6265 -0.4929 -0.3961
 3971TIP3   OH233547   0.745   5.512   2.843 -0.1769  0.5450 -0.2598
 3971TIP3    H133548   0.657   5.492   2.811  0.5263  0.9777 -2.7234
 3971TIP3    H233549   0.731   5.565   2.921 -2.2218  3.0719 -2.1592
 3972TIP3   OH233550   3.719   3.244   8.462 -0.0153 -0.3681  0.0491
 3972TIP3    H133551   3.732   3.150   8.452 -0.2359 -0.3665 -0.2901
 3972TIP3    H233552   3.719   3.278   8.372  1.2454  0.1232  0.2099
 3973TIP3   OH233553   6.393   0.761   0.244  0.4395  0.9222 -0.1599
 3973TIP3    H133554   6.321   0.701   0.263  0.8319  0.3939 -0.3100
 3973TIP3    H233555   6.401   0.815   0.322  0.3537  0.4917  0.1485
 3974TIP3   OH233556   3.553   4.340   0.933 -0.2928 -0.7673 -0.4917
 3974TIP3    H133557   3.638   4.339   0.976  0.0326 -1.4131 -1.1149
 3974TIP3    H233558   3.573   4.322   0.841 -1.1184 -1.1763 -0.6039
 3975TIP3   OH233559   2.239   2.727   1.741  0.9526 -0.7198 -0.2009
 3975TIP3    H133560   2.187   2.790   1.692 -1.2576 -2.6593 -0.5360
 3975TIP3    H233561   2.296   2.780   1.797 -0.9911  1.5486 -0.2315
 3976TIP3   OH233562   3.751   5.920   7.424  0.7206 -0.5774 -0.0716
 3976TIP3    H133563   3.726   5.858   7.356 -2.4114 -0.8642  1.1769
 3976TIP3    H233564   3.812   5.979   7.381  0.0945 -1.6877 -2.6676
 3977TIP3   OH233565   0.305   5.039   0.900  0.4747 -0.9161  0.0935
 3977TIP3    H133566   0.256   4.969   0.943 -2.1780 -0.8198 -2.5193
 3977TIP3    H233567   0.303   5.111   0.963 -1.7369 -1.3504  0.6063
 3978TIP3   OH233568   4.694   5.935   1.967  0.0411 -0.4913  0.0009
 3978TIP3    H133569   4.716   5.915   1.877 -0.6700 -0.5353 -0.1735
 3978TIP3    H233570   4.630   6.007   1.961 -0.5429 -0.9595  0.4263
 3979TIP3   OH233571   6.298   1.951   1.073  0.4765 -0.2266 -0.3005
 3979TIP3    H133572   6.203   1.958   1.080  0.2205 -0.8931 -2.3982
 3979TIP3    H233573   6.321   1.876   1.128 -0.7494 -2.5375 -2.7408
 3980TIP3   OH233574   4.276   4.573   0.608  0.4191 -0.4892 -0.1483
 3980TIP3    H133575   4.189   4.552   0.642  0.1656  0.2926 -0.2856
 3980TIP3    H233576   4.311   4.638   0.669  0.7977 -0.6012 -0.2431
 3981TIP3   OH233577   2.028   1.224   0.510  0.1577  0.1149  0.3143
 3981TIP3    H133578   2.005   1.267   0.428  0.1201  0.6446  0.5932
 3981TIP3    H233579   1.982   1.275   0.577  0.8463  0.1990  0.7304
 3982TIP3   OH233580   2.357   1.088   0.205 -0.1400 -0.2268 -0.3312
 3982TIP3    H133581   2.313   1.099   0.120 -2.1920  2.0790  0.8901
 3982TIP3    H233582   2.289   1.050   0.262 -0.0856  1.7700  1.1751
 3983TIP3   OH233583   2.811   6.662   8.765 -0.9239 -0.0461 -0.0686
 3983TIP3    H133584   2.735   6.714   8.793 -0.8980  1.0496 -1.9013
 3983TIP3    H233585   2.812   6.669   8.670  0.9475 -0.8149 -0.1540
 3984TIP3   OH233586   3.282   1.451   8.741  0.7798 -0.1146 -0.1031
 3984TIP3    H133587   3.266   1.357   8.752  0.2949 -0.2039 -1.4124
 3984TIP3    H233588   3.328   1.477   8.821 -0.3895 -1.1611  0.9682
 3985TIP3   OH233589   6.208   1.160   2.698 -0.4413 -0.5898  0.5854
 3985TIP3    H133590   6.216   1.120   2.611  0.0362  1.3781 -0.3389
 3985TIP3    H233591   6.114   1.166   2.713 -0.7198  2.1172 -1.4059
 3986TIP3   OH233592   6.082   3.058   8.654  0.1645  0.4540 -0.6269
 3986TIP3    H133593   6.109   2.967   8.639 -0.7025  0.2801 -1.2033
 3986TIP3    H233594   6.032   3.082   8.575 -1.1218  0.8349  0.2640
 3987TIP3   OH233595   2.074   6.047   7.924 -0.2490  0.1102 -0.1558
 3987TIP3    H133596   1.992   6.061   7.971  0.0319  0.0068  0.3688
 3987TIP3    H233597   2.119   5.978   7.973  1.0440  1.5254  0.7522
 3988TIP3   OH233598   4.965   4.726   6.836 -0.6346  0.0706  0.2255
 3988TIP3    H133599   4.977   4.821   6.837 -2.2131  0.3016 -0.5880
 3988TIP3    H233600   4.892   4.711   6.776  2.4315 -1.9889 -3.4546
 3989TIP3   OH233601   4.195   6.394   0.217 -0.4969  0.0550  0.6774
 3989TIP3    H133602   4.101   6.375   0.222 -1.0867  2.2011 -1.0133
 3989TIP3    H233603   4.200   6.489   0.206  1.5332 -0.3491 -4.5680
 3990TIP3   OH233604   1.497   5.916   2.532  0.4130  0.0630  0.1571
 3990TIP3    H133605   1.583   5.923   2.572  0.5545  0.4852 -0.2161
 3990TIP3    H233606   1.498   5.980   2.461 -0.9048  1.5423  1.3970
 3991TIP3   OH233607   3.147   4.508   8.001 -0.1250 -0.0233 -0.1353
 3991TIP3    H133608   3.203   4.498   7.924  1.5533  0.1537  0.9971
 3991TIP3    H233609   3.205   4.489   8.075 -1.2913  1.2263  1.1662
 3992TIP3   OH233610   1.053   3.220   1.012  0.5059 -0.2064 -0.2208
 3992TIP3    H133611   1.136   3.181   0.984  0.5831 -0.2076  0.0071
 3992TIP3    H233612   0.998   3.218   0.934  0.5033 -0.7924 -0.2048
 3993TIP3   OH233613   0.960   4.272   0.073  0.4905  0.3206  0.2878
 3993TIP3    H133614   0.866   4.260   0.058  0.7116 -1.4801  0.1274
 3993TIP3    H233615   1.000   4.191   0.041  2.1223  1.1171  0.2228
 3994TIP3   OH233616   6.094   1.020   1.104 -0.3108  0.4339  0.2727
 3994TIP3    H133617   6.027   0.993   1.041 -0.6636  1.8460  0.0049
 3994TIP3    H233618   6.044   1.063   1.174  0.3431  4.2845 -1.3311
 3995TIP3   OH233619   5.966   0.405   0.290 -0.1522 -1.0533 -0.8615
 3995TIP3    H133620   5.945   0.322   0.247  1.5820 -1.6231 -0.6767
 3995TIP3    H233621   6.061   0.401   0.306 -0.3403  0.1720  0.8393
 3996TIP3   OH233622   1.077   5.394   3.079 -0.1674  0.1290 -0.0939
 3996TIP3    H133623   1.169   5.390   3.050 -0.8110  1.1290 -2.5412
 3996TIP3    H233624   1.078   5.455   3.152  1.3140 -1.0468  0.9293
 3997TIP3   OH233625   4.629   0.534   6.970  0.6683 -0.4859 -0.0659
 3997TIP3    H133626   4.664   0.446   6.956  0.9617 -0.2203 -1.0046
 3997TIP3    H233627   4.545   0.534   6.924  0.2148 -0.5639  0.7310
 3998TIP3   OH233628   5.752   2.941   9.101  0.7721 -0.5708  0.2664
 3998TIP3    H133629   5.802   2.869   9.141  0.1856 -1.1915 -0.0881
 3998TIP3    H233630   5.802   2.963   9.022  0.1133 -1.7279 -0.5153
 3999TIP3   OH233631   1.395   1.633   8.329 -0.1021 -0.1915 -0.2838
 3999TIP3    H133632   1.485   1.623   8.359 -0.0240 -0.3102 -0.5537
 3999TIP3    H233633   1.394   1.595   8.241 -0.0370  1.2279 -0.9305
 4000TIP3   OH233634   0.623   5.544   8.786 -0.4796  0.2418  0.4142
 4000TIP3    H133635   0.592   5.491   8.860 -2.1606  0.0627 -0.3561
 4000TIP3    H233636   0.718   5.531   8.785 -0.8347 -3.2775 -0.0911
 4001TIP3   OH233637   5.945   6.122   0.108  0.1422  0.4035  0.3833
 4001TIP3    H133638   5.919   6.035   0.078  1.6194 -0.5403  1.6991
 4001TIP3    H233639   5.995   6.159   0.035  0.9966 -0.5698  0.4550
 4002TIP3   OH233640   1.545   2.442   2.914 -0.1774  0.0485 -0.2304
 4002TIP3    H133641   1.496   2.522   2.935 -0.2982 -0.2061  0.4754
 4002TIP3    H233642   1.488   2.395   2.853  0.6215  1.2718 -1.9981
 4003TIP3   OH233643   0.101   1.011   1.317  0.1554  0.7084  0.0212
 4003TIP3    H133644   0.042   1.062   1.372 -0.8897 -1.1620  0.7349
 4003TIP3    H233645   0.110   0.928   1.363  1.7725  0.2309 -1.1020
 4004TIP3   OH233646   0.530   1.278   0.198  0.2772 -0.0454  0.4388
 4004TIP3    H133647   0.542   1.372   0.192 -2.6287  0.3500 -1.0191
 4004TIP3    H233648   0.595   1.242   0.137  1.1276  1.0432  0.6857
 4005TIP3   OH233649   6.155   0.112   1.053 -0.3799 -0.0295  0.8468
 4005TIP3    H133650   6.104   0.069   1.122  1.2389 -1.5931  1.1481
 4005TIP3    H233651   6.209   0.175   1.100  0.5121 -0.8922  1.0234
 4006TIP3   OH233652   6.299   2.656   2.304 -0.6091 -0.5353  0.1689
 4006TIP3    H133653   6.307   2.707   2.223 -0.9411  0.1626  0.5713
 4006TIP3    H233654   6.374   2.596   2.301 -0.4001 -0.2595 -0.4722
 4007TIP3   OH233655   5.704   1.399   0.442  0.0154  0.4374 -0.0779
 4007TIP3    H133656   5.796   1.400   0.417  0.0696 -1.6274 -0.1617
 4007TIP3    H233657   5.663   1.338   0.381 -1.0258 -0.0989  1.0986
 4008TIP3   OH233658   5.072   4.504   6.974 -0.2286  0.6140 -0.0142
 4008TIP3    H133659   5.042   4.590   6.942 -0.2877  2.3784  4.0963
 4008TIP3    H233660   4.994   4.465   7.013  0.2295 -0.4533 -0.1396
 4009TIP3   OH233661   3.361   2.293   1.520 -0.7792 -0.7961 -0.0198
 4009TIP3    H133662   3.275   2.335   1.527 -0.3508  0.1326 -0.1930
 4009TIP3    H233663   3.382   2.267   1.610  0.0320  1.6319  0.5895
 4010TIP3   OH233664   3.741   6.127   8.254  0.8582  0.5894 -0.8716
 4010TIP3    H133665   3.651   6.094   8.248  1.4489 -0.8570 -2.9068
 4010TIP3    H233666   3.767   6.110   8.344  0.6028 -3.3906 -1.3843
 4011TIP3   OH233667   4.587   2.370   0.870 -0.2302  0.6054  0.1575
 4011TIP3    H133668   4.668   2.319   0.867 -1.1378 -0.8610 -0.6475
 4011TIP3    H233669   4.517   2.306   0.858 -1.5324  1.8384  0.7538
 4012TIP3   OH233670   6.363   4.173   2.046  0.4930 -0.4965 -0.1669
 4012TIP3    H133671   6.407   4.253   2.019  0.1603  0.2874  1.4731
 4012TIP3    H233672   6.429   4.104   2.037  1.5403  0.3754  0.6323
 4013TIP3   OH233673   4.318   3.088   8.351 -0.2255 -0.6771  0.6352
 4013TIP3    H133674   4.239   3.140   8.335  0.8247  0.5254 -0.9447
 4013TIP3    H233675   4.379   3.150   8.391  1.1004 -0.5946 -1.3967
 4014TIP3   OH233676   5.814   3.336   2.129 -0.1311 -0.6462  0.1242
 4014TIP3    H133677   5.748   3.378   2.074 -0.1882 -0.5821  0.2412
 4014TIP3    H233678   5.790   3.360   2.219  1.3199  1.2582  0.0731
 4015TIP3   OH233679   3.291   3.922   0.456 -0.0103  0.1880  0.5588
 4015TIP3    H133680   3.276   4.007   0.498 -0.2882  0.6125 -0.3596
 4015TIP3    H233681   3.314   3.944   0.365 -1.1991 -0.7409  0.0035
 4016TIP3   OH233682   3.449   5.196   8.141  0.8261  0.1505 -0.2771
 4016TIP3    H133683   3.469   5.102   8.144 -1.8473 -0.4880  0.7774
 4016TIP3    H233684   3.385   5.204   8.070  0.1590  0.9647  0.4014
 4017TIP3   OH233685   2.207   1.620   2.745 -0.8141  0.7767 -0.1316
 4017TIP3    H133686   2.299   1.645   2.760 -0.2004 -1.3403 -0.0995
 4017TIP3    H233687   2.158   1.675   2.806  0.7182 -0.0076  1.9479
 4018TIP3   OH233688   1.124   2.101   8.778  0.5330 -0.1689  0.3179
 4018TIP3    H133689   1.106   2.171   8.716  2.8044 -0.7229 -1.0948
 4018TIP3    H233690   1.038   2.060   8.793 -0.1613  0.1116 -2.3312
 4019TIP3   OH233691   5.686   2.336   1.225 -0.1520  0.0442  0.9869
 4019TIP3    H133692   5.624   2.407   1.241  0.9427  1.0991  0.7249
 4019TIP3    H233693   5.768   2.380   1.204 -0.3136 -1.1567 -3.0808
 4020TIP3   OH233694   1.173   0.384   8.374  0.1913 -0.3214 -0.8177
 4020TIP3    H133695   1.237   0.395   8.444 -1.1034 -1.1745  0.5569
 4020TIP3    H233696   1.119   0.463   8.378 -1.3408 -1.3638  0.7811
 4021TIP3   OH233697   6.560   5.540   8.613  0.6771 -0.0018  0.6380
 4021TIP3    H133698   6.526   5.485   8.542 -3.8925  1.8499  1.0386
 4021TIP3    H233699   6.652   5.555   8.589  0.6433 -3.1747 -2.3515
 4022TIP3   OH233700   5.416   6.032   1.539  0.3757  0.0927  0.6414
 4022TIP3    H133701   5.423   5.954   1.595 -0.0663  0.7646  1.6570
 4022TIP3    H233702   5.321   6.043   1.526  0.4464  0.3534  0.3465
 4023TIP3   OH233703   6.112   6.355   2.354 -0.4000 -0.0751 -0.5785
 4023TIP3    H133704   6.018   6.364   2.369 -0.1857  1.6407 -0.0021
 4023TIP3    H233705   6.141   6.443   2.331  0.9064 -0.7893 -1.7963
 4024TIP3   OH233706   0.586   2.247   0.326  0.4151  0.1215  0.3207
 4024TIP3    H133707   0.578   2.178   0.261 -0.6495  0.3848  0.1562
 4024TIP3    H233708   0.679   2.270   0.326  0.4671 -0.0256 -0.9544
 4025TIP3   OH233709   2.687   3.679   1.160 -0.1576  0.1271 -0.5423
 4025TIP3    H133710   2.626   3.612   1.192 -0.1524  1.0783  1.6083
 4025TIP3    H233711   2.760   3.677   1.221 -0.0391  1.9074 -0.5639
 4026TIP3   OH233712   3.993   6.094   1.332 -0.2370  0.1270 -0.4550
 4026TIP3    H133713   3.915   6.108   1.386  1.8613  1.9830  2.3465
 4026TIP3    H233714   4.041   6.176   1.338  2.6981 -1.4497 -0.7660
 4027TIP3   OH233715   5.752   1.354   8.459  0.2290  0.1566 -0.3451
 4027TIP3    H133716   5.662   1.355   8.494 -0.1405  3.1779 -1.1436
 4027TIP3    H233717   5.742   1.324   8.369  0.0417  0.3310 -0.3841
 4028TIP3   OH233718   1.878   0.066   7.689  0.4767  0.2060  0.3318
 4028TIP3    H133719   1.928   0.142   7.721  2.2516 -1.0896  0.8421
 4028TIP3    H233720   1.941   0.017   7.636 -0.1889 -1.5678  1.0874
 4029TIP3   OH233721   6.156   2.575   3.030 -0.5258  0.2483  0.5328
 4029TIP3    H133722   6.069   2.557   2.994  0.4193  0.7715 -2.2646
 4029TIP3    H233723   6.168   2.509   3.098 -3.4818  0.8151  1.7913
 4030TIP3   OH233724   0.378   6.589   2.182  0.8867 -0.4785  0.1496
 4030TIP3    H133725   0.456   6.616   2.134  1.6903 -0.8375  1.2086
 4030TIP3    H233726   0.411   6.539   2.256 -0.4581 -3.0544 -0.8665
 4031TIP3   OH233727   5.599   5.080   8.779  0.1749  0.0922  0.5969
 4031TIP3    H133728   5.546   5.138   8.724  0.1245 -0.1185  0.4200
 4031TIP3    H233729   5.649   5.139   8.835  0.9375  0.3520 -0.3240
 4032TIP3   OH233730   4.511   1.890   0.374  0.7087  0.1793 -0.0861
 4032TIP3    H133731   4.537   1.813   0.324  0.3048  0.2323 -0.3841
 4032TIP3    H233732   4.514   1.962   0.311  0.3565  0.2739  0.0015
 4033TIP3   OH233733   5.876   4.702   1.868  0.1274 -0.3566  0.8910
 4033TIP3    H133734   5.810   4.658   1.922 -0.8156 -0.8469 -0.5935
 4033TIP3    H233735   5.960   4.669   1.901 -0.3676 -0.1273  2.4656
 4034TIP3   OH233736   0.597   5.868   0.372 -0.1635 -0.3084 -0.4678
 4034TIP3    H133737   0.530   5.799   0.369  0.4246 -0.8714 -1.0584
 4034TIP3    H233738   0.596   5.898   0.463 -1.9005  0.3926 -0.6849
 4035TIP3   OH233739   2.514   6.187   7.628  0.4408  0.1288  0.2717
 4035TIP3    H133740   2.428   6.218   7.600  0.5518  1.9981  1.8352
 4035TIP3    H233741   2.497   6.137   7.708  0.6802 -0.7617 -0.2179
 4036TIP3   OH233742   4.369   3.277   8.771 -0.0531 -0.1373 -0.5916
 4036TIP3    H133743   4.314   3.206   8.804  1.8198 -0.1883  2.9654
 4036TIP3    H233744   4.458   3.245   8.780  0.7553  1.6570 -1.5979
 4037TIP3   OH233745   3.120   5.681   8.479 -0.1177 -0.5284  0.1073
 4037TIP3    H133746   3.039   5.633   8.464 -0.2610 -0.2835  0.0960
 4037TIP3    H233747   3.126   5.690   8.574 -1.0663  1.0815  0.0502
 4038TIP3   OH233748   5.123   2.699   3.346  0.4409  0.3460 -0.0450
 4038TIP3    H133749   5.119   2.644   3.424  0.8012  0.1618 -0.1571
 4038TIP3    H233750   5.032   2.703   3.316  0.3601  0.0926  0.1585
 4039TIP3   OH233751   0.143   4.680   2.576 -0.3943  0.2248  0.2729
 4039TIP3    H133752   0.077   4.614   2.561 -1.0096  1.2627 -1.9339
 4039TIP3    H233753   0.224   4.642   2.542 -0.5007  0.1530  0.1004
 4040TIP3   OH233754   1.576   1.255   1.186  0.5146  0.6953  0.1053
 4040TIP3    H133755   1.593   1.161   1.193  2.7755  1.1265  1.3395
 4040TIP3    H233756   1.658   1.291   1.153 -0.7099  2.1409 -1.4907
 4041TIP3   OH233757   4.032   5.499   8.154 -0.1395 -0.7797 -0.4254
 4041TIP3    H133758   4.003   5.455   8.074 -0.1710  0.0984 -0.9092
 4041TIP3    H233759   4.019   5.592   8.136  0.4734 -0.5334  0.3587
 4042TIP3   OH233760   6.399   2.661   7.802  0.2383 -0.3450  0.8566
 4042TIP3    H133761   6.318   2.643   7.753  1.3935  1.0211 -1.7672
 4042TIP3    H233762   6.411   2.756   7.794  2.3001 -0.5728  0.7879
 4043TIP3   OH233763   0.931   2.348   3.011 -0.3839 -0.0502  0.7076
 4043TIP3    H133764   0.961   2.431   2.974 -1.0221 -0.3670 -0.5970
 4043TIP3    H233765   0.982   2.338   3.091  2.1403  0.0083 -0.7626
 4044TIP3   OH233766   2.531   2.741   8.164  0.5550 -0.4461  0.5848
 4044TIP3    H133767   2.521   2.788   8.246  1.7800  2.3719 -0.7438
 4044TIP3    H233768   2.597   2.674   8.182  0.9088  0.2249  1.8726
 4045TIP3   OH233769   0.296   1.415   7.977  0.3311 -0.3197  0.1528
 4045TIP3    H133770   0.252   1.377   7.901 -0.0700  0.3873  0.0222
 4045TIP3    H233771   0.385   1.433   7.946  0.6766 -1.6015  0.3683
 4046TIP3   OH233772   4.686   5.960   2.915 -0.0546 -0.1919  0.1907
 4046TIP3    H133773   4.692   5.889   2.978  3.8590 -1.0235 -0.8946
 4046TIP3    H233774   4.720   6.037   2.961 -1.7985  0.4317  0.5247
 4047TIP3   OH233775   3.782   1.020   0.415 -0.4395  0.0033 -0.0826
 4047TIP3    H133776   3.793   0.925   0.414  0.7558  0.1196  0.4085
 4047TIP3    H233777   3.836   1.050   0.487  1.6620  1.3229 -2.0603
 4048TIP3   OH233778   6.189   5.137   7.479 -0.4623 -0.6902  0.0848
 4048TIP3    H133779   6.161   5.207   7.420 -0.0436 -0.0844  0.6001
 4048TIP3    H233780   6.237   5.076   7.422  1.4392  0.7517  0.0790
 4049TIP3   OH233781   0.678   0.497   8.007  0.1579  0.0223  0.2156
 4049TIP3    H133782   0.755   0.487   8.063 -0.9335 -0.8541  1.6401
 4049TIP3    H233783   0.714   0.512   7.920  1.9457 -0.8950  0.7361
 4050TIP3   OH233784   0.922   1.262   9.129 -0.1335  0.4341  0.2582
 4050TIP3    H133785   0.836   1.261   9.171  0.3388 -0.5439  1.2499
 4050TIP3    H233786   0.936   1.173   9.098 -0.9162  1.3144 -3.0696
 4051TIP3   OH233787   5.423   4.055   1.821  0.3371  0.6965 -0.4747
 4051TIP3    H133788   5.456   3.965   1.817 -0.6528  0.1342  1.9742
 4051TIP3    H233789   5.498   4.107   1.848  0.4821  0.2578  0.0010
 4052TIP3   OH233790   5.578   3.899   1.433  0.0025  0.0823 -0.4226
 4052TIP3    H133791   5.495   3.880   1.478  0.8700  0.1911  1.3148
 4052TIP3    H233792   5.564   3.984   1.391 -0.0400  1.2882  1.8746
 4053TIP3   OH233793   2.818   0.822   8.567 -0.0091  0.0354  0.1542
 4053TIP3    H133794   2.861   0.907   8.576 -1.6043  1.0674 -1.2435
 4053TIP3    H233795   2.733   0.834   8.609 -0.3310 -0.8034 -0.2388
 4054TIP3   OH233796   6.081   1.390   2.544  0.3999 -0.1220  0.4376
 4054TIP3    H133797   6.124   1.311   2.509 -0.3888 -0.1963 -0.3717
 4054TIP3    H233798   6.018   1.356   2.608  0.1521 -0.1418  0.1835
 4055TIP3   OH233799   4.365   2.189   1.129  0.1334 -1.4360 -0.7553
 4055TIP3    H133800   4.277   2.151   1.126  0.2000 -1.5775 -0.9304
 4055TIP3    H233801   4.353   2.276   1.167  0.0425 -1.8452  0.1813
 4056TIP3   OH233802   2.011   3.760   2.184 -0.7489  0.4590  0.0061
 4056TIP3    H133803   2.035   3.668   2.195 -0.7241  0.2583 -1.5988
 4056TIP3    H233804   2.001   3.793   2.274  0.9114 -0.6534  0.6311
 4057TIP3   OH233805   5.196   5.786   7.396 -0.5320 -0.1785 -0.0060
 4057TIP3    H133806   5.199   5.748   7.308 -2.8051 -0.5837  0.0269
 4057TIP3    H233807   5.256   5.733   7.448 -1.5966 -2.0229 -0.5922
 4058TIP3   OH233808   3.705   6.022   7.841  0.3380 -0.0914  0.3019
 4058TIP3    H133809   3.738   5.951   7.786 -1.7490 -1.0667  0.2053
 4058TIP3    H233810   3.767   6.028   7.914  1.0907 -1.3288 -0.2196
 4059TIP3   OH233811   3.746   5.119   2.144 -0.1330  0.5749 -1.0465
 4059TIP3    H133812   3.664   5.071   2.138 -0.4790  1.1747 -1.1571
 4059TIP3    H233813   3.758   5.134   2.238 -0.2261  0.6073 -1.0396
 4060TIP3   OH233814   6.041   0.604   1.045  0.5598 -0.7371 -0.5658
 4060TIP3    H133815   6.005   0.536   1.102  0.4673  1.2283  1.9338
 4060TIP3    H233816   5.968   0.629   0.988 -0.4883 -0.4073  0.8574
 4061TIP3   OH233817   6.248   5.869   1.362 -0.0498 -0.3720 -0.4475
 4061TIP3    H133818   6.205   5.900   1.442  2.1018  2.5592 -0.2689
 4061TIP3    H233819   6.298   5.792   1.390 -0.5844 -0.3393  0.6392
 4062TIP3   OH233820   4.447   0.628   8.840 -0.0375  0.3625  0.1534
 4062TIP3    H133821   4.503   0.671   8.775 -1.0855  1.5275 -0.0113
 4062TIP3    H233822   4.506   0.609   8.912  0.6617  1.2509 -0.1548
 4063TIP3   OH233823   6.663   2.907   0.391  0.2304  0.3914 -0.4318
 4063TIP3    H133824   6.582   2.865   0.363 -0.4528  0.8619  0.7565
 4063TIP3    H233825   6.657   2.908   0.487  0.2868  3.0039 -0.3842
 4064TIP3   OH233826   1.318   0.456   2.019 -0.4281 -0.1201 -0.2822
 4064TIP3    H133827   1.318   0.546   1.986  0.6985 -0.1233 -0.3146
 4064TIP3    H233828   1.370   0.460   2.100 -1.1534 -0.5733  0.2212
 4065TIP3   OH233829   5.377   4.482   1.494  0.2691 -0.0652  0.1099
 4065TIP3    H133830   5.395   4.482   1.588  0.6907 -1.1764  0.0511
 4065TIP3    H233831   5.281   4.482   1.488  0.2159  1.8391  0.4913
 4066TIP3   OH233832   1.197   2.359   2.944  0.5718 -0.4537  0.3827
 4066TIP3    H133833   1.134   2.429   2.927  0.8172 -0.5978 -1.2836
 4066TIP3    H233834   1.226   2.375   3.034 -0.2710  0.8636  0.4584
 4067TIP3   OH233835   2.214   4.474   9.019  0.6769  0.0729  0.4476
 4067TIP3    H133836   2.173   4.489   9.105  1.0171  0.5688  0.5258
 4067TIP3    H233837   2.301   4.514   9.027  0.7097  0.1131 -0.1249
 4068TIP3   OH233838   2.317   2.020   8.826 -0.3166  0.5416  0.5379
 4068TIP3    H133839   2.366   2.064   8.757  0.9367 -0.2743  0.8640
 4068TIP3    H233840   2.378   1.953   8.858 -1.3897  0.0020  1.4822
 4069TIP3   OH233841   4.487   1.907   2.798  0.0117  0.2711  0.7801
 4069TIP3    H133842   4.467   1.883   2.889  1.5221 -0.0255  1.0585
 4069TIP3    H233843   4.549   1.980   2.806  1.6982 -0.9988  0.0605
 4070TIP3   OH233844   0.596   5.903   8.306  0.4173 -0.5704  0.3395
 4070TIP3    H133845   0.680   5.944   8.287 -0.9330  2.0753 -0.4424
 4070TIP3    H233846   0.560   5.881   8.220 -1.0766  1.4844  0.3607
 4071TIP3   OH233847   6.326   5.817   2.074 -0.0021  0.7178 -0.1200
 4071TIP3    H133848   6.262   5.848   2.010  1.2099 -1.1898 -2.4366
 4071TIP3    H233849   6.274   5.796   2.152 -1.7184  2.0261 -0.8368
 4072TIP3   OH233850   0.476   6.079   8.721 -0.9760  0.3049  0.0446
 4072TIP3    H133851   0.480   6.157   8.777  1.1282  0.0005  0.4016
 4072TIP3    H233852   0.525   6.012   8.768 -0.4546 -0.4273 -1.4604
 4073TIP3   OH233853   1.529   5.086   1.151  0.0804  0.0977  0.1761
 4073TIP3    H133854   1.617   5.094   1.115  1.2828 -0.6530  2.7741
 4073TIP3    H233855   1.501   4.997   1.128  0.1675  0.1765 -0.2471
 4074TIP3   OH233856   0.784   1.066   7.750  0.1251  0.2978 -0.0390
 4074TIP3    H133857   0.746   1.069   7.662  1.0319  3.3534 -0.4218
 4074TIP3    H233858   0.715   1.100   7.807  0.4050  0.6718  0.0734
 4075TIP3   OH233859   2.996   4.873   1.966  0.2283  0.0172 -0.3985
 4075TIP3    H133860   3.051   4.796   1.950 -0.3127 -0.3613 -0.4647
 4075TIP3    H233861   2.906   4.841   1.954  0.0099  0.7179 -0.6716
 4076TIP3   OH233862   0.464   5.525   1.062  0.3613 -0.3142  1.0584
 4076TIP3    H133863   0.492   5.600   1.011  0.4177 -0.8068  0.3527
 4076TIP3    H233864   0.537   5.463   1.057  0.0786 -0.6591  1.1391
 4077TIP3   OH233865   6.601   5.113   7.436 -0.6874 -0.6369  0.1702
 4077TIP3    H133866   6.662   5.070   7.496 -1.3588 -1.3010  0.3939
 4077TIP3    H233867   6.606   5.206   7.459  1.8667 -0.3122 -1.2764
 4078TIP3   OH233868   2.371   5.646   0.982 -0.2222 -0.5190  0.5700
 4078TIP3    H133869   2.369   5.582   0.911 -3.0174  0.6873 -0.5774
 4078TIP3    H233870   2.449   5.623   1.033  1.8932 -1.5188 -2.7789
 4079TIP3   OH233871   0.003   0.212   0.164  0.1492  0.0342 -0.4656
 4079TIP3    H133872  -0.042   0.253   0.237  1.4421  0.3158  0.2100
 4079TIP3    H233873   0.096   0.224   0.184  0.5310 -0.9335 -1.5651
 4080TIP3   OH233874   4.319   1.508   0.578 -0.0924 -0.5570  0.4263
 4080TIP3    H133875   4.412   1.488   0.584  0.5071  1.2764 -1.4505
 4080TIP3    H233876   4.291   1.520   0.669  1.1340 -2.5202  1.1080
 4081TIP3   OH233877   6.180   2.741   8.140  0.2239  0.1257  0.2793
 4081TIP3    H133878   6.182   2.758   8.046  0.1876  0.7839  0.3887
 4081TIP3    H233879   6.236   2.665   8.152 -0.6372 -0.6293 -0.3989
 4082TIP3   OH233880   0.610   6.689   7.999 -0.4120  0.1695 -0.0500
 4082TIP3    H133881   0.527   6.641   7.995 -1.3532  1.8124 -1.3358
 4082TIP3    H233882   0.629   6.696   8.092 -1.6727 -0.2850  0.2643
 4083TIP3   OH233883   1.306   4.850   8.633 -0.0822  0.5467 -0.2357
 4083TIP3    H133884   1.393   4.852   8.673  0.6976  0.9223 -1.8654
 4083TIP3    H233885   1.316   4.793   8.557 -1.8440 -1.1802  0.7615
 4084TIP3   OH233886   0.895   0.366   8.585  0.4925  0.0202 -0.2591
 4084TIP3    H133887   0.822   0.421   8.557  1.1779  1.0613 -0.0610
 4084TIP3    H233888   0.973   0.418   8.565  1.1142 -0.3913  0.9976
 4085TIP3   OH233889   2.302   3.458   6.966 -0.0827  0.7997 -0.5500
 4085TIP3    H133890   2.209   3.444   6.946 -0.7443  2.2942  1.2206
 4085TIP3    H233891   2.333   3.512   6.893 -0.7179  0.6310 -0.9587
 4086TIP3   OH233892   4.886   0.703   0.830 -0.5635 -0.2534  0.1122
 4086TIP3    H133893   4.974   0.707   0.867 -0.3183 -0.8976 -0.3598
 4086TIP3    H233894   4.885   0.770   0.762  0.5013 -1.9552 -1.7205
 4087TIP3   OH233895   2.764   2.739   1.721 -0.1603  0.3318 -0.2259
 4087TIP3    H133896   2.669   2.736   1.727 -0.1588  1.3162  0.5731
 4087TIP3    H233897   2.789   2.649   1.698 -1.3788  0.5010 -2.5086
 4088TIP3   OH233898   5.582   4.624   2.631  0.3348 -0.8743 -0.2362
 4088TIP3    H133899   5.569   4.689   2.562  3.1867 -0.8691 -0.9018
 4088TIP3    H233900   5.572   4.673   2.713  1.1837  0.1369 -0.7196
 4089TIP3   OH233901   4.774   5.947   8.454  0.2347  0.4993  0.1285
 4089TIP3    H133902   4.852   5.914   8.499  0.3400 -0.2670 -0.5983
 4089TIP3    H233903   4.738   6.012   8.515  0.7356 -0.0386  1.0281
 4090TIP3   OH233904   4.138   5.897   7.240  0.0927 -0.0456 -0.0452
 4090TIP3    H133905   4.150   5.951   7.318 -2.3778  0.9707 -0.2693
 4090TIP3    H233906   4.182   5.945   7.170 -0.9183  1.0006  0.0239
 4091TIP3   OH233907   5.065   6.007   7.054  0.3289 -0.3834 -0.4327
 4091TIP3    H133908   5.063   5.914   7.078  0.6973  0.1241  1.7506
 4091TIP3    H233909   5.126   6.047   7.116  0.4504  1.2801 -1.5592
 4092TIP3   OH233910   5.195   4.990   7.934  0.6002 -0.1489  0.1680
 4092TIP3    H133911   5.176   4.906   7.976 -0.6015 -0.3471 -0.7195
 4092TIP3    H233912   5.233   4.967   7.849  2.6327  0.2431  0.9340
 4093TIP3   OH233913   1.832   5.362   8.067 -0.0970  0.1428  0.0777
 4093TIP3    H133914   1.837   5.267   8.064  0.0042  0.1675 -1.5410
 4093TIP3    H233915   1.858   5.390   7.979 -1.2284  1.5996  0.1668
 4094TIP3   OH233916   2.766   1.469   7.506 -0.0135  1.0667  0.2685
 4094TIP3    H133917   2.835   1.536   7.503 -0.8967  1.9840  0.0347
 4094TIP3    H233918   2.684   1.518   7.500 -0.6628 -0.1485 -1.7180
 4095TIP3   OH233919   3.886   2.581   2.445 -0.0218  0.2561  0.1886
 4095TIP3    H133920   3.860   2.490   2.431 -0.6465  0.3061  0.9504
 4095TIP3    H233921   3.967   2.591   2.396 -0.3357 -0.5094 -0.4955
 4096TIP3   OH233922   3.068   5.781   1.678 -0.1898 -0.4301 -0.0181
 4096TIP3    H133923   3.110   5.760   1.761 -0.9302  0.3026  0.5564
 4096TIP3    H233924   3.130   5.839   1.634 -0.1193 -0.2217  0.3524
 4097TIP3   OH233925   4.927   0.409   2.266  0.0483 -0.2727  0.1678
 4097TIP3    H133926   4.990   0.459   2.214 -1.4020  1.6582  0.1224
 4097TIP3    H233927   4.979   0.367   2.334  1.3871  1.2746  0.1593
 4098TIP3   OH233928   2.126   0.120   0.155 -0.0937  0.1721  0.7457
 4098TIP3    H133929   2.046   0.096   0.109  0.0299 -1.0271  1.1110
 4098TIP3    H233930   2.194   0.122   0.088 -0.1388 -0.3927  0.6786
 4099TIP3   OH233931   5.536   0.690   0.737 -0.3131  0.6138 -0.1648
 4099TIP3    H133932   5.547   0.785   0.739 -0.0051  0.5946 -0.6658
 4099TIP3    H233933   5.527   0.669   0.644 -0.3999  0.1571 -0.0553
 4100TIP3   OH233934   2.113   0.900   8.071  0.1899 -0.2595 -0.4227
 4100TIP3    H133935   2.024   0.871   8.056  0.4789 -0.5125 -1.7982
 4100TIP3    H233936   2.167   0.823   8.055  0.6790 -0.0641  0.2079
 4101TIP3   OH233937   1.173   2.117   2.210 -0.6701  0.2784 -0.5633
 4101TIP3    H133938   1.211   2.063   2.142 -0.4738  1.1079 -1.1196
 4101TIP3    H233939   1.137   2.193   2.164 -0.2140  1.0307  0.2837
 4102TIP3   OH233940   1.192   6.367   3.338  0.1552  0.2933 -0.4828
 4102TIP3    H133941   1.096   6.359   3.345  0.3235 -2.7888 -0.2968
 4102TIP3    H233942   1.213   6.327   3.254  1.5308 -3.4460  1.4177
 4103TIP3   OH233943   0.851   3.753   1.451  0.6077 -0.0851 -0.2823
 4103TIP3    H133944   0.764   3.756   1.492  1.0423 -0.3786  0.7016
 4103TIP3    H233945   0.851   3.671   1.402  0.4711 -0.2856  0.0474
 4104TIP3   OH233946   0.662   4.298   8.905 -0.0417 -0.2569  0.8265
 4104TIP3    H133947   0.676   4.391   8.888  1.5491 -0.3042  1.7028
 4104TIP3    H233948   0.627   4.294   8.993  1.8080 -0.5599  1.5889
 4105TIP3   OH233949   2.052   6.118   7.410 -0.0161 -0.1267 -0.0164
 4105TIP3    H133950   2.134   6.152   7.376  0.1974 -0.0910  0.5264
 4105TIP3    H233951   2.019   6.061   7.341 -0.0911  0.7295 -0.6971
 4106TIP3   OH233952   6.082   4.702   0.145 -0.0814 -0.3285  0.7449
 4106TIP3    H133953   6.049   4.725   0.058  0.8535  2.9076  1.1096
 4106TIP3    H233954   6.116   4.785   0.180  1.9284 -2.0348  3.1583
 4107TIP3   OH233955   2.151   5.811   0.718  0.6016 -0.0783  0.4097
 4107TIP3    H133956   2.151   5.890   0.664  0.1103 -0.2354  0.1785
 4107TIP3    H233957   2.244   5.795   0.736  0.7862 -0.0842 -0.4830
 4108TIP3   OH233958   6.346   6.114   9.094  0.1063 -0.0742 -0.5643
 4108TIP3    H133959   6.358   6.203   9.126 -1.9987  0.0196  0.1272
 4108TIP3    H233960   6.399   6.060   9.152  1.5014  0.7025 -1.0642
 4109TIP3   OH233961   6.458   4.655   8.025 -0.2107 -0.1721  0.3833
 4109TIP3    H133962   6.409   4.723   7.978  2.0907  0.4708 -1.2682
 4109TIP3    H233963   6.482   4.696   8.108  2.0206  1.5371 -0.9971
 4110TIP3   OH233964   4.294   1.675   0.277 -0.0578 -0.3094  0.3589
 4110TIP3    H133965   4.316   1.582   0.275 -0.8804 -0.5074  0.2677
 4110TIP3    H233966   4.323   1.705   0.364  1.5870 -0.2822 -0.1549
 4111TIP3   OH233967   1.388   0.649   2.897 -1.1283  0.2033  0.2044
 4111TIP3    H133968   1.440   0.728   2.915 -2.5190  1.0371  0.6694
 4111TIP3    H233969   1.368   0.613   2.983  1.4054 -2.0184 -0.0059
 4112TIP3   OH233970   5.171   3.430   1.380 -0.7552  0.0580  0.0848
 4112TIP3    H133971   5.088   3.448   1.423  0.0894 -0.8810  2.2710
 4112TIP3    H233972   5.210   3.359   1.431  2.9840  2.7761  1.4965
 4113TIP3   OH233973   0.061   4.519   0.956 -0.1375 -0.8200 -0.4260
 4113TIP3    H133974   0.059   4.595   0.898 -0.5929  0.0106  0.6620
 4113TIP3    H233975  -0.030   4.495   0.968 -0.2106  0.2629  1.5271
 4114TIP3   OH233976   3.782   4.298   1.413 -0.3313 -0.2652  0.4920
 4114TIP3    H133977   3.853   4.312   1.351  0.0422  0.2439  1.0313
 4114TIP3    H233978   3.710   4.351   1.378 -1.2216 -2.4439 -1.2587
 4115TIP3   OH233979   5.136   0.667   0.550 -0.0006 -0.5802 -0.3947
 4115TIP3    H133980   5.152   0.667   0.644  0.7371 -0.3141 -0.5128
 4115TIP3    H233981   5.175   0.585   0.519 -0.0195 -0.5458 -0.5089
 4116TIP3   OH233982   5.177   4.099   0.378 -0.2505 -0.0435  0.8837
 4116TIP3    H133983   5.235   4.025   0.360  1.7071  0.9835  2.5140
 4116TIP3    H233984   5.090   4.060   0.386  0.5388 -1.9925  0.5761
 4117TIP3   OH233985   6.051   5.871   2.165  0.3090 -0.0526  0.6203
 4117TIP3    H133986   6.098   5.838   2.242 -1.5414  1.7843  2.6879
 4117TIP3    H233987   5.959   5.876   2.193 -0.2682  1.7460 -1.3241
 4118TIP3   OH233988   2.035   1.812   0.440  0.3274  0.0720  0.4832
 4118TIP3    H133989   2.063   1.779   0.355 -0.4757  1.9963 -0.5971
 4118TIP3    H233990   1.983   1.890   0.419 -0.8354 -0.0507  2.6916
 4119TIP3   OH233991   3.137   5.342   0.588 -0.1604 -0.3275  0.0111
 4119TIP3    H133992   3.200   5.412   0.574 -1.5410  0.6985 -1.4945
 4119TIP3    H233993   3.181   5.263   0.557  0.8470  0.1325  0.2413
 4120TIP3   OH233994   5.318   4.969   2.399 -0.4267 -0.2374 -1.3213
 4120TIP3    H133995   5.283   5.035   2.339 -0.7830  0.4416 -0.3932
 4120TIP3    H233996   5.278   4.990   2.484 -0.4002 -1.5362 -0.9654
 4121TIP3   OH233997   0.045   0.615   0.387  0.7952  0.2490  0.2371
 4121TIP3    H133998   0.025   0.680   0.454 -0.1309  0.6809 -0.4363
 4121TIP3    H233999   0.104   0.661   0.326  0.8924  0.1544  0.2594
 4122TIP3   OH234000   1.577   4.445   1.857 -0.4816 -0.1208  0.1595
 4122TIP3    H134001   1.655   4.468   1.808 -0.2035  1.3642  1.2289
 4122TIP3    H234002   1.534   4.529   1.875 -1.0855 -0.6903  1.5747
 4123TIP3   OH234003   0.994   2.500   1.653  0.2817  0.0545  0.4823
 4123TIP3    H134004   1.041   2.421   1.680 -0.0827 -0.9213 -1.5040
 4123TIP3    H234005   0.903   2.481   1.674  0.1373 -0.2567 -0.4001
 4124TIP3   OH234006   5.205   5.725   1.860  0.3906 -0.2691  0.1727
 4124TIP3    H134007   5.133   5.664   1.878  1.2126 -1.2315  0.2500
 4124TIP3    H234008   5.232   5.756   1.946  0.0797  0.0826  0.1445
 4125TIP3   OH234009   1.021   6.264   7.984  0.4995  0.0748 -0.0477
 4125TIP3    H134010   1.027   6.229   7.895 -0.0942 -0.7934  0.2391
 4125TIP3    H234011   1.036   6.187   8.040  2.7689  0.9289  0.6279
 4126TIP3   OH234012   6.461   2.198   7.560 -0.0490  0.7350  0.4471
 4126TIP3    H134013   6.367   2.184   7.572  0.1427 -2.8796 -1.0512
 4126TIP3    H234014   6.502   2.142   7.626  1.0064  0.4807 -0.4019
 4127TIP3   OH234015   1.111   0.562   8.634  0.2967 -0.0261 -0.1859
 4127TIP3    H134016   1.201   0.531   8.623  0.9270  1.1693  1.1957
 4127TIP3    H234017   1.094   0.612   8.554  1.1327  0.3113 -0.1719
 4128TIP3   OH234018   5.806   0.484   8.676 -0.1211 -0.1901  0.3370
 4128TIP3    H134019   5.848   0.547   8.735 -0.8509  0.3455  0.3005
 4128TIP3    H234020   5.737   0.534   8.633  1.3116 -0.1865 -2.0862
 4129TIP3   OH234021   1.365   5.276   2.103 -0.6180 -0.0664 -0.4667
 4129TIP3    H134022   1.277   5.311   2.113 -0.8988 -1.0070  0.5202
 4129TIP3    H234023   1.379   5.223   2.182  1.6027  1.7032  0.4561
 4130TIP3   OH234024   2.707   2.565   8.596 -0.0847  0.0241 -0.0723
 4130TIP3    H134025   2.636   2.569   8.532  0.5555 -0.2757 -0.8111
 4130TIP3    H234026   2.666   2.590   8.679 -0.7261  1.3070 -0.7548
 4131TIP3   OH234027   5.342   2.970   0.443 -0.0819  0.5482  0.2999
 4131TIP3    H134028   5.399   2.915   0.497  0.4470  0.0474 -0.7552
 4131TIP3    H234029   5.311   3.038   0.504  0.8669  0.2723  1.1199
 4132TIP3   OH234030   6.451   5.700   1.401  0.1433  0.4545 -0.4373
 4132TIP3    H134031   6.504   5.750   1.338 -0.1105  1.2895 -0.0036
 4132TIP3    H234032   6.515   5.671   1.467  0.3926 -0.3354 -1.0189
 4133TIP3   OH234033   1.965   0.948   1.852  0.1042  0.8202  0.5140
 4133TIP3    H134034   1.973   1.027   1.905  0.1723  0.3726  1.1786
 4133TIP3    H234035   2.055   0.921   1.835  0.1485  1.8575 -1.2325
 4134TIP3   OH234036   2.356   1.846   0.292  0.8089  0.0877  0.3256
 4134TIP3    H134037   2.311   1.768   0.323  1.2674 -0.0099  0.7654
 4134TIP3    H234038   2.386   1.890   0.371 -0.7464  1.5359  0.1700
 4135TIP3   OH234039   1.401   3.165   1.738  0.0681 -0.3111 -0.4157
 4135TIP3    H134040   1.448   3.083   1.753  0.1223 -0.2557 -0.2738
 4135TIP3    H234041   1.367   3.158   1.649 -0.3986 -0.7203 -0.2123
 4136TIP3   OH234042   3.634   1.858   3.150  0.0978  0.1459 -0.3538
 4136TIP3    H134043   3.546   1.860   3.187 -0.1659 -2.6166 -0.6254
 4136TIP3    H234044   3.690   1.893   3.219 -1.0369  0.7066  0.3143
 4137TIP3   OH234045   3.478   4.377   0.020  0.1744  0.3966  0.2669
 4137TIP3    H134046   3.440   4.415   0.099 -1.2692 -0.9682  0.2877
 4137TIP3    H234047   3.408   4.323  -0.017  1.0451  0.4469 -1.5755
 4138TIP3   OH234048   3.818   5.160   2.402  0.1707  0.1355 -0.3663
 4138TIP3    H134049   3.753   5.098   2.433 -0.1636  0.6430 -0.0269
 4138TIP3    H234050   3.900   5.110   2.397 -0.5080 -0.8678 -2.1323
 4139TIP3   OH234051   3.497   5.859   0.736  0.0474  0.0106 -0.4328
 4139TIP3    H134052   3.458   5.907   0.809  2.2036 -0.4065  1.0966
 4139TIP3    H234053   3.543   5.927   0.686  1.2619 -0.1131  0.4781
 4140TIP3   OH234054   4.608   1.470   2.697  0.5450  0.6571 -0.2057
 4140TIP3    H134055   4.617   1.532   2.770  0.8516  0.4617 -0.0784
 4140TIP3    H234056   4.603   1.384   2.739  0.3188  0.5760 -0.3943
 4141TIP3   OH234057   3.595   2.416   1.406  0.1676 -0.2732 -0.3061
 4141TIP3    H134058   3.571   2.507   1.426  1.0195 -0.1183  0.0474
 4141TIP3    H234059   3.688   2.411   1.426 -0.4293 -1.9927  2.4921
 4142TIP3   OH234060   1.149   0.119   1.204 -0.7206 -0.3953  0.0842
 4142TIP3    H134061   1.119   0.203   1.170 -1.0351 -1.1734 -1.6548
 4142TIP3    H234062   1.175   0.069   1.126 -1.0733 -2.1103  1.0166
 4143TIP3   OH234063   3.251   2.834   0.723 -0.4625 -0.1205  0.2961
 4143TIP3    H134064   3.192   2.781   0.776 -0.6557 -1.5831 -1.3046
 4143TIP3    H234065   3.329   2.845   0.778 -1.7339  0.8786  1.9784
 4144TIP3   OH234066   6.019   5.394   0.729  0.2356 -0.0416 -0.2844
 4144TIP3    H134067   6.041   5.300   0.732 -2.6723 -0.8400 -1.0429
 4144TIP3    H234068   6.051   5.428   0.812  0.1303 -2.0209  0.6282
 4145TIP3   OH234069   3.985   4.115   8.020 -0.0657  0.0462  0.2914
 4145TIP3    H134070   3.984   4.046   8.087  0.7252 -0.0090  0.2456
 4145TIP3    H234071   3.903   4.164   8.036 -1.1214 -1.4650 -0.2931
 4146TIP3   OH234072   1.495   2.391   0.083 -0.8499  0.4245 -0.5198
 4146TIP3    H134073   1.528   2.435   0.005 -1.5205  1.6252 -0.1456
 4146TIP3    H234074   1.571   2.381   0.139 -0.6061  0.6933 -0.8014
 4147TIP3   OH234075   3.157   0.620   8.379  0.4704  0.0065 -0.9858
 4147TIP3    H134076   3.130   0.642   8.290  1.7843  0.9539 -1.1876
 4147TIP3    H234077   3.251   0.634   8.379  0.5302 -0.2762  0.4802
 4148TIP3   OH234078   5.755   2.659   8.767  0.3190 -0.0671  0.1711
 4148TIP3    H134079   5.709   2.580   8.796  0.9629 -0.5216 -0.0229
 4148TIP3    H234080   5.720   2.676   8.679 -0.8221  0.6712  0.7475
 4149TIP3   OH234081   1.845   1.999   8.959 -0.0541 -0.0708  0.0451
 4149TIP3    H134082   1.813   2.087   8.976  0.1689  0.1310 -0.5525
 4149TIP3    H234083   1.888   1.973   9.040 -2.4875 -0.7170  1.2289
 4150TIP3   OH234084   0.406   1.893   0.528 -0.2205  0.0947  0.3971
 4150TIP3    H134085   0.426   1.958   0.461  0.4013 -0.2147  0.2767
 4150TIP3    H234086   0.426   1.809   0.487 -2.1125 -0.2786  0.1480
 4151TIP3   OH234087   3.202   6.271   8.993  0.1258  0.3278  0.0905
 4151TIP3    H134088   3.250   6.347   8.960  1.8143 -0.4673  0.6400
 4151TIP3    H234089   3.253   6.240   9.067 -0.0158 -1.8610 -0.6498
 4152TIP3   OH234090   5.563   3.644   7.236  0.5022  0.4323 -0.9048
 4152TIP3    H134091   5.629   3.609   7.175  0.1283 -1.7103 -0.1661
 4152TIP3    H234092   5.580   3.599   7.318  0.4056  2.6033  0.3742
 4153TIP3   OH234093   6.380   4.470   0.476 -0.1377 -0.3035  0.0584
 4153TIP3    H134094   6.296   4.491   0.434 -0.6020  1.3568  1.6744
 4153TIP3    H234095   6.371   4.379   0.505 -1.0898 -0.3722 -0.4189
 4154TIP3   OH234096   1.010   5.356   0.769 -0.0597 -0.5575  0.8737
 4154TIP3    H134097   0.974   5.434   0.812  0.7127  0.4962 -0.3443
 4154TIP3    H234098   0.965   5.283   0.812 -1.2889  0.5720  1.5920
 4155TIP3   OH234099   1.460   4.448   0.813  1.0399 -0.1698 -0.6436
 4155TIP3    H134100   1.548   4.482   0.824  1.1082 -0.0609 -1.4497
 4155TIP3    H234101   1.469   4.353   0.820  1.1042 -0.1179 -0.0100
 4156TIP3   OH234102   2.966   2.286   8.116  0.2515  0.2554  0.5221
 4156TIP3    H134103   2.977   2.235   8.036  0.0041  0.0193  0.6339
 4156TIP3    H234104   3.022   2.243   8.180  2.1906  1.7398 -0.0752
 4157TIP3   OH234105   3.277   4.144   8.639  0.7666  0.8826 -0.2030
 4157TIP3    H134106   3.346   4.189   8.687  2.4162 -0.2766 -1.3573
 4157TIP3    H234107   3.282   4.180   8.550 -0.2284  0.8689 -0.2853
 4158TIP3   OH234108   2.986   4.935   0.578 -0.3772 -0.4155 -0.1752
 4158TIP3    H134109   2.921   4.867   0.561 -2.2428  1.4755 -1.0499
 4158TIP3    H234110   3.017   4.917   0.667 -1.3832 -1.9306 -0.1092
 4159TIP3   OH234111   1.320   1.354   8.673 -0.3589  0.5181  0.4529
 4159TIP3    H134112   1.265   1.403   8.612  0.5003  0.9343 -0.0009
 4159TIP3    H234113   1.258   1.312   8.732 -1.2557 -0.4306 -1.0981
 4160TIP3   OH234114   5.714   3.662   6.975 -0.4580  0.3167 -0.0358
 4160TIP3    H134115   5.799   3.677   7.016 -0.2623  1.5585 -0.8417
 4160TIP3    H234116   5.700   3.739   6.920 -1.2842 -0.7182 -1.3215
 4161TIP3   OH234117   4.794   2.638   7.805  0.4573 -0.0628 -0.2893
 4161TIP3    H134118   4.776   2.554   7.764  0.6490  0.2315 -1.0047
 4161TIP3    H234119   4.810   2.698   7.731  1.7942  0.2686  0.2238
 4162TIP3   OH234120   4.911   1.462   1.164  0.0657  0.7048 -1.0687
 4162TIP3    H134121   4.910   1.557   1.172  0.6310  0.7182 -1.1181
 4162TIP3    H234122   4.965   1.445   1.087 -0.0939  0.3453 -1.1048
 4163TIP3   OH234123   3.964   0.041   0.606 -0.8210  0.1814  0.0987
 4163TIP3    H134124   4.048   0.086   0.604 -1.6514  1.9866 -3.4589
 4163TIP3    H234125   3.977  -0.036   0.550 -0.9139 -0.9971  1.6400
 4164TIP3   OH234126   3.612   2.001   0.169 -0.1869  0.1573 -0.2373
 4164TIP3    H134127   3.562   1.937   0.219 -0.7035  0.4680 -0.3401
 4164TIP3    H234128   3.580   2.086   0.201  0.4037  0.3609 -0.1844
 4165TIP3   OH234129   3.049   4.426   8.780  0.2638 -0.2614  0.2245
 4165TIP3    H134130   2.971   4.390   8.737  2.0987 -2.5625 -1.4788
 4165TIP3    H234131   3.095   4.349   8.813  2.3950  0.8998  0.1064
 4166TIP3   OH234132   0.506   1.246   2.574 -0.7677  0.0551 -0.2553
 4166TIP3    H134133   0.435   1.201   2.620 -1.1328  1.5809  0.7180
 4166TIP3    H234134   0.462   1.300   2.508 -0.6513  1.8303  1.0494
 4167TIP3   OH234135   5.054   2.206   8.824 -0.1579  0.5874  0.5215
 4167TIP3    H134136   4.964   2.183   8.847 -0.5470  0.7491 -0.7938
 4167TIP3    H234137   5.077   2.274   8.887 -0.5610 -0.2081  1.5624
 4168TIP3   OH234138   0.208   4.893   8.630  0.0935 -0.2128 -0.1203
 4168TIP3    H134139   0.297   4.914   8.656  0.5908 -0.5960 -1.4262
 4168TIP3    H234140   0.175   4.973   8.589 -0.3524  0.0866  0.7936
 4169TIP3   OH234141   1.039   5.059   8.746 -0.1952 -0.4917  0.5264
 4169TIP3    H134142   1.125   5.101   8.745 -0.8286  0.8914 -0.8108
 4169TIP3    H234143   1.002   5.080   8.660 -1.1570 -2.6046  0.3643
 4170TIP3   OH234144   1.773   6.156   1.194 -0.1038  0.3091  0.0588
 4170TIP3    H134145   1.699   6.182   1.139  2.1625  2.4790 -2.1993
 4170TIP3    H234146   1.787   6.231   1.252  1.2347  0.6056 -0.6180
 4171TIP3   OH234147   1.779   2.857   0.082 -0.4578 -0.2098  0.0696
 4171TIP3    H134148   1.817   2.774   0.052 -3.7502 -2.0829  0.5581
 4171TIP3    H234149   1.765   2.844   0.176 -1.3654  0.7610  0.0882
 4172TIP3   OH234150   3.658   3.100   7.056 -0.1865 -0.2691 -0.5151
 4172TIP3    H134151   3.563   3.107   7.057 -0.2084 -0.5943 -0.0651
 4172TIP3    H234152   3.687   3.180   7.013 -0.6326  0.2363  0.0961
 4173TIP3   OH234153   1.608   3.452   2.162 -0.1802  0.2705 -0.6239
 4173TIP3    H134154   1.554   3.416   2.091 -1.2373  0.5110  0.0334
 4173TIP3    H234155   1.548   3.508   2.211  0.7719  0.8135 -0.0632
 4174TIP3   OH234156   3.080   3.220   9.003 -0.1271 -0.5240 -0.1598
 4174TIP3    H134157   3.015   3.233   8.934 -0.6387 -3.6083 -0.4141
 4174TIP3    H234158   3.076   3.126   9.022  1.4718 -0.1482  2.6287
 4175TIP3   OH234159   5.263   2.741   1.008 -0.2957 -0.1934  0.6343
 4175TIP3    H134160   5.207   2.809   0.970 -1.4140 -1.4906 -0.1235
 4175TIP3    H234161   5.337   2.734   0.947 -0.6718 -0.3318  0.1902
 4176TIP3   OH234162   2.893   4.523   8.972  0.0437 -0.5939 -0.5807
 4176TIP3    H134163   2.980   4.494   8.943 -0.7465 -3.7231 -0.2033
 4176TIP3    H234164   2.857   4.569   8.897  1.9087  0.5913 -0.8193
 4177TIP3   OH234165   3.287   3.686   9.097 -0.6464 -0.0622 -0.1143
 4177TIP3    H134166   3.207   3.637   9.077 -0.7997 -0.0689  0.4870
 4177TIP3    H234167   3.256   3.776   9.113 -0.6443 -0.2264  0.8879
 4178TIP3   OH234168   2.260   0.033   0.889  0.0586  0.4737 -0.1046
 4178TIP3    H134169   2.270  -0.056   0.923 -2.2132  0.0785 -0.3311
 4178TIP3    H234170   2.260   0.089   0.967 -2.0650 -0.1217  0.3718
 4179TIP3   OH234171   6.253   1.974   0.081  0.1313 -0.1728  0.9580
 4179TIP3    H134172   6.342   2.009   0.082 -0.0201  0.3674 -0.8613
 4179TIP3    H234173   6.223   1.987  -0.009 -2.3270  0.9932  1.8447
 4180TIP3   OH234174   0.907   1.418   3.207  0.0831  0.1689  0.4133
 4180TIP3    H134175   0.994   1.450   3.229 -0.7004  1.5635  1.7484
 4180TIP3    H234176   0.877   1.373   3.286 -0.7686  0.6066  0.3624
 4181TIP3   OH234177   3.444   2.519   2.835 -0.1029 -0.8428 -0.1161
 4181TIP3    H134178   3.497   2.598   2.825 -1.5117 -0.0066 -1.5410
 4181TIP3    H234179   3.496   2.462   2.892  0.3993  1.6091  2.1006
 4182TIP3   OH234180   5.764   1.478   2.212  0.0193  0.4402  0.3625
 4182TIP3    H134181   5.725   1.400   2.172 -2.9177  1.1110  1.6042
 4182TIP3    H234182   5.751   1.466   2.306  3.0109  0.7562  0.9111
 4183TIP3   OH234183   2.382   4.032   2.304 -0.3448  0.1793 -0.4762
 4183TIP3    H134184   2.372   4.093   2.376 -0.1726 -0.4925  0.1224
 4183TIP3    H234185   2.295   4.027   2.264 -1.9819 -3.3979  2.9066
 4184TIP3   OH234186   3.061   2.980   0.495 -0.3731 -0.0078  0.1888
 4184TIP3    H134187   3.085   3.071   0.479  1.3173 -0.4514 -0.0276
 4184TIP3    H234188   2.999   2.959   0.425 -0.1521  0.7488 -0.2456
 4185TIP3   OH234189   5.725   2.314   1.854  0.6111 -0.1241  0.1384
 4185TIP3    H134190   5.677   2.297   1.935  2.0587 -0.9422  0.8688
 4185TIP3    H234191   5.817   2.308   1.879  1.0997 -1.4978 -1.7941
 4186TIP3   OH234192   4.724   6.189   2.622 -0.8336 -0.2495  0.5262
 4186TIP3    H134193   4.746   6.167   2.531 -2.4607 -1.1047  0.3102
 4186TIP3    H234194   4.711   6.284   2.621  0.8174  0.0132  0.2663
 4187TIP3   OH234195   4.986   1.781   3.229 -0.5627 -0.5120  0.3880
 4187TIP3    H134196   4.958   1.780   3.137 -1.2362  1.4169  0.5176
 4187TIP3    H234197   4.969   1.871   3.257  0.6415 -0.7881  2.1058
 4188TIP3   OH234198   2.224   2.066   2.122  0.0691 -0.3340 -0.0251
 4188TIP3    H134199   2.297   2.071   2.060 -0.4177 -0.1605 -0.5850
 4188TIP3    H234200   2.189   1.978   2.110  0.4775 -0.5834  0.5800
 4189TIP3   OH234201   4.097   6.526   8.751 -0.0612  0.8150 -0.2720
 4189TIP3    H134202   4.050   6.607   8.774 -1.7444 -0.3458  0.5667
 4189TIP3    H234203   4.172   6.525   8.810 -1.7644  0.2384  2.0263
 4190TIP3   OH234204   6.407   2.983   0.166  0.2339  0.0671  0.4354
 4190TIP3    H134205   6.429   2.891   0.175  1.9429  0.4285  0.3590
 4190TIP3    H234206   6.485   3.030   0.198 -0.5065  1.4772  0.2741
 4191TIP3   OH234207   1.700   4.074   2.592  0.0979  0.2008 -0.2831
 4191TIP3    H134208   1.769   4.112   2.538 -1.3724  1.9868 -0.9915
 4191TIP3    H234209   1.723   3.981   2.599  0.5562 -0.0362 -3.6457
 4192TIP3   OH234210   2.676   3.987   1.104 -0.4732 -0.0821  0.4729
 4192TIP3    H134211   2.675   3.892   1.103 -1.9301 -0.0770 -0.3292
 4192TIP3    H234212   2.637   4.013   1.020  1.3815  1.2351 -0.0488
 4193TIP3   OH234213   4.713   0.328   7.755  0.1834 -0.9293 -0.4152
 4193TIP3    H134214   4.704   0.423   7.749 -1.2122 -0.9790  0.3638
 4193TIP3    H234215   4.801   0.314   7.790 -0.4120  0.1843  1.6807
 4194TIP3   OH234216   4.905   2.426   8.623 -0.1460 -0.1897  0.0471
 4194TIP3    H134217   4.879   2.501   8.569  0.4684 -0.0164 -0.0229
 4194TIP3    H234218   4.823   2.385   8.649 -0.5458  0.9633  0.7229
 4195TIP3   OH234219   4.157   3.680   8.124 -0.4544  0.2926 -0.5309
 4195TIP3    H134220   4.093   3.708   8.059 -1.4393  0.5451  0.5110
 4195TIP3    H234221   4.119   3.600   8.162  1.0494 -1.0176 -1.6120
 4196TIP3   OH234222   0.040   2.832   2.783 -0.0342  0.7370  0.3424
 4196TIP3    H134223  -0.026   2.883   2.830  0.9424 -0.3887  3.1072
 4196TIP3    H234224   0.060   2.886   2.705 -0.5895  3.5443  1.9933
 4197TIP3   OH234225   5.534   6.680   8.264 -0.6848  0.5311 -0.1436
 4197TIP3    H134226   5.565   6.712   8.179 -1.6654  0.1578 -0.6618
 4197TIP3    H234227   5.444   6.713   8.270 -1.0935 -0.5978  0.1263
 4198TIP3   OH234228   4.666   5.722   0.124 -0.1511  0.2396  0.4118
 4198TIP3    H134229   4.743   5.770   0.094 -0.0979 -0.3191 -0.3662
 4198TIP3    H234230   4.685   5.702   0.216  1.8565 -2.1887 -0.4151
 4199TIP3   OH234231   3.455   6.071   0.162  0.9742  0.1531 -0.2760
 4199TIP3    H134232   3.515   5.996   0.163 -0.2326 -0.8550 -0.7867
 4199TIP3    H234233   3.406   6.063   0.244  0.5894  0.1585 -0.5029
 4200TIP3   OH234234   5.533   5.641   8.128 -0.4090 -0.2138 -0.3160
 4200TIP3    H134235   5.458   5.627   8.071  1.1255 -2.4578 -1.9676
 4200TIP3    H234236   5.519   5.582   8.201 -0.7968  0.2319 -0.0264
 4201TIP3   OH234237   1.366   5.393   1.028 -0.2505 -0.2766 -0.1278
 4201TIP3    H134238   1.337   5.321   0.971  0.2892 -0.7792  0.2226
 4201TIP3    H234239   1.366   5.470   0.971  2.3290 -1.1210 -1.4246
 4202TIP3   OH234240   3.848   0.859   9.099 -0.0842 -0.4301  0.4708
 4202TIP3    H134241   3.799   0.908   9.033  0.2126  0.9664  1.2326
 4202TIP3    H234242   3.784   0.799   9.137 -0.5022 -0.5459 -0.3970
 4203TIP3   OH234243   3.690   0.953   8.322  0.8084 -0.0615 -0.1125
 4203TIP3    H134244   3.679   0.990   8.235  1.7921 -0.8103 -0.5651
 4203TIP3    H234245   3.679   0.859   8.310  1.3161 -0.2060  0.5035
 4204TIP3   OH234246   1.899   2.629   7.804  0.0506  0.1164  0.6436
 4204TIP3    H134247   1.860   2.661   7.722 -1.0488  0.3880  1.2604
 4204TIP3    H234248   1.935   2.543   7.781 -1.7550 -0.5764  0.2729
 4205TIP3   OH234249   4.876   3.348   7.650  0.1402  0.3790  0.5878
 4205TIP3    H134250   4.944   3.281   7.650  0.8410  1.0580  1.5462
 4205TIP3    H234251   4.812   3.318   7.584 -0.2577 -1.8936  1.8920
 4206TIP3   OH234252   3.017   0.201   0.439 -0.0736 -0.2172  0.1970
 4206TIP3    H134253   3.047   0.111   0.454 -1.4918 -0.8763 -0.7521
 4206TIP3    H234254   3.012   0.239   0.527  3.4390 -0.0172  0.4542
 4207TIP3   OH234255   5.593   4.180   8.842  0.2231 -0.1954 -0.4580
 4207TIP3    H134256   5.589   4.103   8.785 -0.6608 -0.7944  0.3794
 4207TIP3    H234257   5.571   4.147   8.929 -1.7734  1.2666 -0.3426
 4208TIP3   OH234258   5.283   0.152   8.749 -0.1992  0.0832 -0.2049
 4208TIP3    H134259   5.225   0.111   8.813  0.6498 -1.9745 -0.6626
 4208TIP3    H234260   5.232   0.156   8.669  0.3421 -2.0324 -0.6969
 4209TIP3   OH234261   3.137   6.633   0.476  0.0691  0.3643  0.3205
 4209TIP3    H134262   3.137   6.650   0.570 -0.5698  0.6928  0.2669
 4209TIP3    H234263   3.230   6.623   0.454  0.1438 -1.6742  1.3143
 4210TIP3   OH234264   6.030   3.079   1.175  0.0094  0.0116  0.1915
 4210TIP3    H134265   5.968   3.043   1.239  0.4773 -0.3889  0.4201
 4210TIP3    H234266   5.992   3.164   1.151 -0.5245 -0.1386  0.4852
 4211TIP3   OH234267   6.369   1.011   7.458 -0.0640  0.4699 -1.1029
 4211TIP3    H134268   6.351   0.935   7.403 -1.4876  0.6691 -0.9623
 4211TIP3    H234269   6.442   0.984   7.513 -1.5674 -1.4437  0.1009
 4212TIP3   OH234270   1.772   0.419   0.404  0.8750  0.2623  0.0180
 4212TIP3    H134271   1.824   0.499   0.412 -0.8653  1.2759  2.0597
 4212TIP3    H234272   1.681   0.449   0.409  0.1451 -1.7423 -0.4400
 4213TIP3   OH234273   2.194   4.080   1.858 -0.4307 -0.0447 -0.0169
 4213TIP3    H134274   2.158   4.163   1.890  0.1208 -0.4636  1.8292
 4213TIP3    H234275   2.123   4.017   1.871 -1.0251  0.1903 -1.8824
 4214TIP3   OH234276   5.639   4.814   8.728 -0.1619  0.5035 -0.1815
 4214TIP3    H134277   5.638   4.909   8.736 -0.9802  0.4326  0.6823
 4214TIP3    H234278   5.603   4.782   8.811  0.4088 -0.5698 -0.3267
 4215TIP3   OH234279   0.461   0.955   7.215  0.2447  0.4791 -0.3505
 4215TIP3    H134280   0.421   1.006   7.286 -0.1695  0.2154 -0.3883
 4215TIP3    H234281   0.389   0.940   7.153  0.4961  0.3180 -0.6063
 4216TIP3   OH234282   3.842   5.162   1.682 -0.7745 -0.1662  0.2403
 4216TIP3    H134283   3.800   5.076   1.693 -0.5944 -0.2346  0.4056
 4216TIP3    H234284   3.786   5.222   1.732  0.5170 -0.6161  2.3866
 4217TIP3   OH234285   6.361   6.013   2.921 -0.6639 -0.7230  0.4012
 4217TIP3    H134286   6.452   6.032   2.898 -0.6746  0.2584  1.1261
 4217TIP3    H234287   6.349   5.921   2.896  0.1875 -0.5537 -0.7255
 4218TIP3   OH234288   2.923   3.076   1.826  0.1810 -0.0357 -0.0109
 4218TIP3    H134289   3.017   3.095   1.819  0.1902  0.2116  0.6967
 4218TIP3    H234290   2.903   3.023   1.749  0.6043  1.0719 -0.9046
 4219TIP3   OH234291   6.046   3.738   8.429 -0.2763 -0.9219  0.2770
 4219TIP3    H134292   6.053   3.832   8.411 -1.0248 -0.9586 -0.2157
 4219TIP3    H234293   6.071   3.697   8.346  1.7210 -1.2078  0.9709
 4220TIP3   OH234294   5.359   0.381   0.937  0.2846  0.6054 -0.0740
 4220TIP3    H134295   5.424   0.340   0.879 -0.1173 -0.5479  0.2615
 4220TIP3    H234296   5.348   0.319   1.008  1.2325  2.2776  1.6219
 4221TIP3   OH234297   3.437   5.555   8.602 -0.8869 -0.3494 -0.0385
 4221TIP3    H134298   3.460   5.642   8.634  0.6887 -0.2808 -1.2318
 4221TIP3    H234299   3.412   5.569   8.511 -1.3959 -1.0539 -0.0147
 4222TIP3   OH234300   4.636   6.053   0.916 -0.5597 -0.5437  0.2365
 4222TIP3    H134301   4.671   5.971   0.880 -1.0054 -1.2274  1.2798
 4222TIP3    H234302   4.563   6.075   0.859 -0.8275 -1.2286  0.3049
 4223TIP3   OH234303   5.636   1.416   2.510  0.0079  0.1227  0.1891
 4223TIP3    H134304   5.650   1.324   2.531 -0.8184 -0.2086 -0.6347
 4223TIP3    H234305   5.549   1.436   2.546  0.6669  0.9220  1.4054
 4224TIP3   OH234306   3.808   3.556   1.934 -0.4061 -0.1624  0.1376
 4224TIP3    H134307   3.842   3.645   1.924 -1.4857  0.2596  0.0835
 4224TIP3    H234308   3.770   3.535   1.849  0.7036 -1.0632 -0.1518
 4225TIP3   OH234309   6.322   5.231   8.807  1.8308  0.3938  0.0022
 4225TIP3    H134310   6.295   5.265   8.892 -0.0721  1.2776 -0.9046
 4225TIP3    H234311   6.267   5.153   8.793  1.0893  1.0781 -1.0187
 4226TIP3   OH234312   6.081   6.215   9.098  0.7140  0.7430 -0.1551
 4226TIP3    H134313   6.110   6.304   9.112  1.3477  0.7594 -1.4098
 4226TIP3    H234314   6.160   6.167   9.074  0.1788  0.1515 -0.8106
 4227TIP3   OH234315   4.066   4.066   2.276  0.3292  0.2944 -0.0825
 4227TIP3    H134316   4.132   4.037   2.339 -0.0195  0.8533  0.5496
 4227TIP3    H234317   3.983   4.060   2.323  0.0245  0.3965 -0.5975
 4228TIP3   OH234318   4.554   4.853   2.162 -0.4411  0.0848  0.1727
 4228TIP3    H134319   4.479   4.895   2.205 -0.7861 -0.8507  0.5312
 4228TIP3    H234320   4.519   4.821   2.079 -0.2668  0.2288  0.0445
 4229TIP3   OH234321   4.228   0.543   1.972 -0.1920 -0.0946 -0.4629
 4229TIP3    H134322   4.171   0.514   2.044  0.6499 -2.9314 -0.8084
 4229TIP3    H234323   4.316   0.520   2.001  0.2866 -0.1257 -1.8822
 4230TIP3   OH234324   0.069   4.653   1.839 -0.5422 -0.1555 -0.3340
 4230TIP3    H134325   0.032   4.649   1.751  0.7191 -0.5470 -0.8673
 4230TIP3    H234326   0.161   4.673   1.825 -0.5792  1.1028  0.9677
 4231TIP3   OH234327   2.259   6.430   6.894  0.1349 -0.3249  0.3756
 4231TIP3    H134328   2.232   6.423   6.986  0.0555 -0.0887  0.3727
 4231TIP3    H234329   2.308   6.350   6.877  0.8585  0.0018  0.8601
 4232TIP3   OH234330   3.497   6.042   2.675 -0.3850 -0.0912 -0.2458
 4232TIP3    H134331   3.473   6.087   2.756  0.5414  0.5637 -0.3174
 4232TIP3    H234332   3.481   5.949   2.693 -2.4819  0.2485 -0.1455
 4233TIP3   OH234333   5.907   5.563   8.130  0.5128 -0.2378  0.1450
 4233TIP3    H134334   5.872   5.583   8.216  0.5617  0.0269  0.1016
 4233TIP3    H234335   5.830   5.564   8.072  0.7142  1.2629 -0.1169
 4234TIP3   OH234336   4.251   2.891   7.348 -0.6119 -0.1184  0.4507
 4234TIP3    H134337   4.217   2.853   7.267 -0.0997  1.1869 -0.4035
 4234TIP3    H234338   4.173   2.927   7.392 -1.2058 -2.5769  1.5767
 4235TIP3   OH234339   1.295   1.876   8.899 -0.4057  0.2828  0.0231
 4235TIP3    H134340   1.389   1.886   8.916  0.0847 -1.7678 -1.0067
 4235TIP3    H234341   1.256   1.867   8.985  0.6481 -0.7063  0.4331
 4236TIP3   OH234342   0.444   3.484   8.165  0.4368  0.2748 -0.4688
 4236TIP3    H134343   0.417   3.520   8.249 -0.2411 -0.0742 -0.5260
 4236TIP3    H234344   0.372   3.505   8.105  0.3661 -0.5142 -0.6741
 4237TIP3   OH234345   6.398   1.534   8.245  0.1155 -0.5353  0.2198
 4237TIP3    H134346   6.466   1.475   8.278  0.6653 -0.4449 -0.6953
 4237TIP3    H234347   6.443   1.588   8.181 -0.9941 -1.0335 -1.0337
 4238TIP3   OH234348   1.587   5.669   8.002  0.2091 -0.8301  0.4660
 4238TIP3    H134349   1.508   5.724   8.003  1.1373  0.5657  0.3163
 4238TIP3    H234350   1.570   5.604   7.934  0.8335  2.0984 -2.7831
 4239TIP3   OH234351   0.406   2.396   2.340 -0.5272  0.2054 -0.1988
 4239TIP3    H134352   0.475   2.340   2.375 -0.1861  2.2685  2.8054
 4239TIP3    H234353   0.436   2.485   2.360 -3.1626  1.2500 -0.5427
 4240TIP3   OH234354   5.468   5.914   3.212 -0.1552 -0.3855 -0.4832
 4240TIP3    H134355   5.388   5.893   3.164 -1.5951 -0.4560  1.7956
 4240TIP3    H234356   5.532   5.934   3.144 -2.7173  2.0646 -2.4262
 4241TIP3   OH234357   1.759   3.779   1.222  0.1672 -0.4674  0.4452
 4241TIP3    H134358   1.671   3.817   1.214  0.9013  0.9174 -2.2978
 4241TIP3    H234359   1.760   3.709   1.157  1.5098  0.5110 -0.6347
 4242TIP3   OH234360   1.355   4.202   9.061  0.9760  0.2542 -0.1054
 4242TIP3    H134361   1.435   4.231   9.017  0.0158  0.0621 -2.1319
 4242TIP3    H234362   1.376   4.116   9.095  1.3868 -0.1975 -1.4383
 4243TIP3   OH234363   2.823   2.572   0.391 -0.0696 -0.0975  0.2968
 4243TIP3    H134364   2.788   2.498   0.342  0.4431  0.1698 -0.4983
 4243TIP3    H234365   2.916   2.553   0.402  0.0142  0.3003  0.3122
 4244TIP3   OH234366   0.437   5.483   1.712 -0.1606 -0.0095  0.2260
 4244TIP3    H134367   0.401   5.543   1.647  0.3138 -0.4774 -0.4906
 4244TIP3    H234368   0.366   5.420   1.728 -0.4011  0.3138  0.4253
 4245TIP3   OH234369   4.649   3.248   8.898  0.4687 -0.2777  1.0876
 4245TIP3    H134370   4.674   3.224   8.808 -0.2917  1.3407  0.3972
 4245TIP3    H234371   4.639   3.165   8.944 -0.6239 -1.2120 -0.7450
 4246TIP3   OH234372   0.345   3.928   9.077  0.4801  1.0115  0.2663
 4246TIP3    H134373   0.274   3.875   9.042  0.7812  0.5280  0.3831
 4246TIP3    H234374   0.417   3.916   9.015  0.3879  1.6879  0.0191
 4247TIP3   OH234375   1.189   0.611   7.983  0.4112  0.2582 -0.4677
 4247TIP3    H134376   1.226   0.696   7.960  0.2952  0.5413  0.3577
 4247TIP3    H234377   1.244   0.579   8.054 -0.5347  0.4048  0.3580
 4248TIP3   OH234378   4.856   3.849   2.753 -0.1141 -0.2293  0.6343
 4248TIP3    H134379   4.821   3.787   2.690  1.8097 -0.7178 -0.0212
 4248TIP3    H234380   4.780   3.899   2.784 -1.2319 -0.7000 -1.2609
 4249TIP3   OH234381   3.384   1.957   1.722 -0.0037  0.3334  0.9433
 4249TIP3    H134382   3.297   1.965   1.760 -0.0670  0.4813  0.7712
 4249TIP3    H234383   3.419   2.046   1.724  0.1052  0.2913  0.9225
 4250TIP3   OH234384   5.261   1.670   0.334  0.2378 -0.2529 -0.4294
 4250TIP3    H134385   5.279   1.744   0.275 -2.0672  0.5624 -0.2229
 4250TIP3    H234386   5.176   1.637   0.305 -0.8660  0.0102  2.2370
 4251TIP3   OH234387   3.341   4.835   2.768  0.1246  0.3299 -0.2841
 4251TIP3    H134388   3.364   4.907   2.710  1.8805 -0.9419 -1.2706
 4251TIP3    H234389   3.305   4.768   2.709  1.3939 -0.7600  0.1445
 4252TIP3   OH234390   2.338   6.568   1.416 -0.3605 -0.5414  0.3536
 4252TIP3    H134391   2.289   6.510   1.358  1.0800 -1.0966 -0.3677
 4252TIP3    H234392   2.382   6.509   1.477 -0.2956 -0.0881  0.7497
 4253TIP3   OH234393   4.743   4.816   1.977 -0.3030 -0.6299  0.0372
 4253TIP3    H134394   4.675   4.801   1.911  0.4135 -2.4136 -0.3411
 4253TIP3    H234395   4.697   4.810   2.061 -0.9679  0.2637 -0.2504
 4254TIP3   OH234396   5.880   5.258   2.409 -0.3638  0.2918 -0.0555
 4254TIP3    H134397   5.842   5.316   2.475 -0.7981 -0.4708  0.3908
 4254TIP3    H234398   5.967   5.295   2.391  0.5893 -0.5148  2.3886
 4255TIP3   OH234399   1.153   4.862   0.959  0.3576 -0.3608  0.4296
 4255TIP3    H134400   1.152   4.894   0.869 -0.1443 -0.3861  0.4260
 4255TIP3    H234401   1.187   4.773   0.952  0.5299 -0.2856  0.2934
 4256TIP3   OH234402   2.669   2.262   2.034  0.0111 -0.6289 -0.0339
 4256TIP3    H134403   2.717   2.341   2.009  0.3067  0.4149  3.3697
 4256TIP3    H234404   2.580   2.293   2.052 -0.1218 -1.2352  0.3880
 4257TIP3   OH234405   1.824   2.426   8.491 -0.9359  0.0726 -0.0020
 4257TIP3    H134406   1.771   2.498   8.455 -0.0744  1.0536  0.6198
 4257TIP3    H234407   1.854   2.459   8.576  0.5170 -0.5218 -0.2550
 4258TIP3   OH234408   4.929   4.813   8.546  0.0204 -0.5290 -0.1502
 4258TIP3    H134409   4.993   4.769   8.490  0.0631 -2.2554  1.1664
 4258TIP3    H234410   4.919   4.754   8.621 -1.9478  0.4746  0.4268
 4259TIP3   OH234411   5.168   0.172   8.479 -0.0490  0.1542 -0.3269
 4259TIP3    H134412   5.155   0.080   8.499 -1.1593  0.2065 -0.7531
 4259TIP3    H234413   5.209   0.172   8.392  1.2298  0.0416  0.2514
 4260TIP3   OH234414   5.510   4.702   1.386  0.6458  0.3469  0.2181
 4260TIP3    H134415   5.473   4.619   1.416  2.4179 -0.1934  0.9981
 4260TIP3    H234416   5.486   4.765   1.453  1.2870 -0.0370  0.8138
 4261TIP3   OH234417   3.648   6.617   7.558  0.0119 -0.8397 -0.0107
 4261TIP3    H134418   3.629   6.630   7.465  2.3176 -1.7812 -0.6800
 4261TIP3    H234419   3.706   6.541   7.560 -0.7946 -1.4816  2.3252
 4262TIP3   OH234420   2.752   5.847   1.977  0.2083 -0.6827 -0.0373
 4262TIP3    H134421   2.663   5.840   2.012  0.3396 -0.1912  0.4063
 4262TIP3    H234422   2.798   5.773   2.015  0.1966 -0.4830  0.3640
 4263TIP3   OH234423   5.237   4.271   0.108 -0.0874  0.6305  0.3124
 4263TIP3    H134424   5.183   4.233   0.039  1.7872 -2.6587  0.4618
 4263TIP3    H234425   5.222   4.215   0.184  0.3478  2.2231  1.6323
 4264TIP3   OH234426   4.951   4.035   2.397 -0.5944  0.4753  0.0861
 4264TIP3    H134427   5.007   4.081   2.459  0.5783  0.0703 -0.6411
 4264TIP3    H234428   4.957   3.943   2.422 -0.5316  0.3726 -0.2984
 4265TIP3   OH234429   1.333   5.757   0.291  0.0221 -0.0109 -0.6824
 4265TIP3    H134430   1.299   5.846   0.289 -0.2581 -0.1267 -2.0363
 4265TIP3    H234431   1.428   5.767   0.300 -0.1472  0.3666  0.8791
 4266TIP3   OH234432   3.649   5.525   0.210  0.4920 -0.0758  0.0450
 4266TIP3    H134433   3.706   5.495   0.281 -0.4154  1.0967  1.3393
 4266TIP3    H234434   3.573   5.467   0.214  0.7566 -0.4622 -0.4545
 4267TIP3   OH234435   0.767   6.451   0.353  0.5660  0.1002 -0.1417
 4267TIP3    H134436   0.756   6.514   0.282  1.1374 -0.1218 -0.4316
 4267TIP3    H234437   0.711   6.484   0.424  1.7049  1.5427  0.1230
 4268TIP3   OH234438   5.068   6.222   0.664 -0.2575 -0.3863  0.1005
 4268TIP3    H134439   4.997   6.186   0.717 -0.8843 -0.1665 -0.5804
 4268TIP3    H234440   5.063   6.174   0.582  0.5435 -0.5371  0.1335
 4269TIP3   OH234441   0.112   0.768   8.175 -0.1313 -0.5517  0.1182
 4269TIP3    H134442   0.165   0.693   8.202 -1.4291 -1.4137  0.3489
 4269TIP3    H234443   0.154   0.843   8.217  1.1510 -1.1402 -0.0575
 4270TIP3   OH234444   3.223   5.612   0.014  0.7189 -0.2013  0.1027
 4270TIP3    H134445   3.255   5.587   0.101 -0.1965 -0.9417  0.2424
 4270TIP3    H234446   3.136   5.647   0.029  0.0017 -1.5560 -0.6238
 4271TIP3   OH234447   3.389   4.372   8.883 -0.4221  0.3619 -0.0415
 4271TIP3    H134448   3.405   4.452   8.934 -0.5044  0.1050  0.3946
 4271TIP3    H234449   3.295   4.357   8.891 -0.7108  1.1768 -1.5637
 4272TIP3   OH234450   1.236   4.605   0.911  0.2963 -0.5116 -0.6893
 4272TIP3    H134451   1.200   4.547   0.979  1.0693 -0.5806 -0.3280
 4272TIP3    H234452   1.320   4.565   0.887  0.7728  0.3706 -0.5379
 4273TIP3   OH234453   5.130   4.971   0.825  0.4633  0.2057  0.2621
 4273TIP3    H134454   5.052   4.917   0.829  1.0068 -0.5946  0.1618
 4273TIP3    H234455   5.191   4.922   0.770  1.1797  0.6454  0.6438
 4274TIP3   OH234456   0.785   3.348   9.138  0.4301  0.3297 -0.5978
 4274TIP3    H134457   0.818   3.407   9.071  1.7559  1.1991  0.7606
 4274TIP3    H234458   0.831   3.373   9.218 -0.4684 -1.2172  0.4770
 4275TIP3   OH234459   5.155   3.393   1.088 -0.0640  0.4172  0.3233
 4275TIP3    H134460   5.181   3.480   1.058  0.1901  0.6974  1.3212
 4275TIP3    H234461   5.151   3.401   1.184  0.3651 -0.7739  0.4543
 4276TIP3   OH234462   2.001   4.335   7.596 -0.1665 -0.8017  0.1444
 4276TIP3    H134463   2.050   4.365   7.520 -1.5018 -1.6678 -1.1322
 4276TIP3    H234464   1.916   4.378   7.588 -0.1834 -0.5507  1.4225
 4277TIP3   OH234465   4.053   2.006   8.188  0.7390  0.4325  0.2532
 4277TIP3    H134466   4.066   1.991   8.094  1.8878 -0.3089  0.5090
 4277TIP3    H234467   4.107   2.083   8.208  0.0758  0.9197  0.2217
 4278TIP3   OH234468   3.457   4.910   8.151  0.2189 -0.2054  0.1245
 4278TIP3    H134469   3.390   4.877   8.211  0.2511 -1.1897 -0.3575
 4278TIP3    H234470   3.434   4.873   8.066  0.8490  0.1948 -0.2330
 4279TIP3   OH234471   5.204   1.185   0.868 -0.3342 -0.0950  0.2059
 4279TIP3    H134472   5.221   1.276   0.841 -1.4280 -0.2339 -1.0714
 4279TIP3    H234473   5.110   1.184   0.888 -0.4758 -1.0798 -0.4511
 4280TIP3   OH234474   4.629   0.040   0.939  0.1428  0.2367 -0.1157
 4280TIP3    H134475   4.543   0.017   0.902 -0.2569  2.4292 -0.7449
 4280TIP3    H234476   4.620   0.024   1.033 -0.0174 -2.0873 -0.4753
 4281TIP3   OH234477   2.439   6.377   1.622 -0.6204  0.0247 -0.1051
 4281TIP3    H134478   2.444   6.285   1.646  0.2294  0.3850  1.1997
 4281TIP3    H234479   2.529   6.400   1.596 -0.3212  0.9842  1.6303
 4282TIP3   OH234480   4.558   2.796   7.745 -0.3025  0.1062  0.0740
 4282TIP3    H134481   4.508   2.715   7.730 -1.0876  0.6690 -0.4196
 4282TIP3    H234482   4.617   2.774   7.818 -0.0491 -1.1009 -0.4606
 4283TIP3   OH234483   5.422   3.116   0.257 -0.8312 -0.0646  0.0970
 4283TIP3    H134484   5.382   3.085   0.176  0.3545 -3.3831  0.6320
 4283TIP3    H234485   5.386   3.059   0.325  3.4917 -2.3491  0.8038
 4284TIP3   OH234486   5.697   1.131   1.864  0.1392 -0.0275  0.4872
 4284TIP3    H134487   5.781   1.112   1.904 -0.5116 -0.5674  1.6524
 4284TIP3    H234488   5.658   1.045   1.846 -0.2950  0.2149  0.2418
 4285TIP3   OH234489   6.457   4.759   8.294 -0.7922  0.0419 -0.2584
 4285TIP3    H134490   6.520   4.711   8.348  1.6455  1.5922 -1.5446
 4285TIP3    H234491   6.427   4.831   8.350  1.3508  1.3576 -0.7094
 4286TIP3   OH234492   0.534   0.255   2.264  0.2210  0.1948  0.0533
 4286TIP3    H134493   0.500   0.345   2.265 -0.4800 -0.0225 -1.7373
 4286TIP3    H234494   0.458   0.201   2.284  0.7406 -0.0190  1.6063
 4287TIP3   OH234495   2.053   1.538   0.519  0.0538 -0.0823 -0.0932
 4287TIP3    H134496   2.002   1.619   0.516  0.6122  0.4735  2.7222
 4287TIP3    H234497   2.017   1.489   0.593  1.6400 -1.0547  0.0760
 4288TIP3   OH234498   6.289   1.042   9.113 -0.0257  0.3469  0.0862
 4288TIP3    H134499   6.325   0.955   9.130  1.5318  0.6484 -1.4479
 4288TIP3    H234500   6.310   1.059   9.021 -0.1912  2.3948  0.3963
 4289TIP3   OH234501   5.525   0.149   7.664  0.0512  0.2738  0.1408
 4289TIP3    H134502   5.438   0.175   7.695 -0.4009 -0.5956 -0.3501
 4289TIP3    H234503   5.546   0.070   7.713  0.2405  0.0762 -0.2476
 4290TIP3   OH234504   3.749   5.622   0.719  0.2032  0.2893 -0.2067
 4290TIP3    H134505   3.677   5.684   0.704  0.1736 -0.1199 -2.1404
 4290TIP3    H234506   3.802   5.662   0.787 -1.6866  0.7484  1.0805
 4291TIP3   OH234507   1.061   5.382   1.844 -0.2156 -0.2859 -0.1067
 4291TIP3    H134508   1.147   5.388   1.802 -1.1514  0.6859 -2.0456
 4291TIP3    H234509   1.054   5.290   1.872  2.4041  0.1510  2.4479
 4292TIP3   OH234510   5.014   5.786   1.631  0.3251 -0.3442 -0.3751
 4292TIP3    H134511   5.018   5.725   1.558  0.8445 -1.6064  0.6577
 4292TIP3    H234512   4.993   5.731   1.707  1.6565  0.6010  0.7315
 4293TIP3   OH234513   4.103   5.945   0.939  0.0664  0.3046  0.0708
 4293TIP3    H134514   4.025   5.901   0.970 -0.6620  2.1821  1.0610
 4293TIP3    H234515   4.076   5.986   0.856  0.4063 -0.1323 -0.2630
 4294TIP3   OH234516   3.137   5.336   8.658 -0.0521  0.3391 -0.2226
 4294TIP3    H134517   3.062   5.369   8.707 -0.1824 -0.2722  0.0079
 4294TIP3    H234518   3.213   5.351   8.715  0.0782  1.3947 -0.6570
 4295TIP3   OH234519   3.753   1.290   0.695  0.5493 -0.1052  0.1007
 4295TIP3    H134520   3.700   1.339   0.633 -0.9330 -0.2764  1.1688
 4295TIP3    H234521   3.787   1.356   0.755 -0.9863 -0.2444  1.2026
 4296TIP3   OH234522   4.958   4.018   0.556 -0.1557 -0.2866 -0.0394
 4296TIP3    H134523   4.886   4.073   0.525 -1.3476 -1.4511  0.5706
 4296TIP3    H234524   4.952   4.022   0.652  0.2759 -0.7935  0.0150
 4297TIP3   OH234525   0.880   4.351   2.684  0.0211  0.5450 -0.2322
 4297TIP3    H134526   0.801   4.318   2.641  0.1326 -2.0427  1.3193
 4297TIP3    H234527   0.946   4.282   2.670  1.2410  1.4852  0.6243
 4298TIP3   OH234528   4.263   5.991   8.752 -0.1123  0.0181 -0.3866
 4298TIP3    H134529   4.327   5.970   8.820  0.8072 -1.5106 -1.6708
 4298TIP3    H234530   4.184   6.018   8.800  0.7753 -0.2236  1.2537
 4299TIP3   OH234531   2.910   1.364   2.656 -0.1478  0.0245  0.0924
 4299TIP3    H134532   2.963   1.336   2.731  0.6488 -0.4215 -0.6216
 4299TIP3    H234533   2.847   1.426   2.694  0.2236 -0.2043  1.1311
 4300TIP3   OH234534   2.635   3.357   1.200  0.2569 -0.3863  0.5165
 4300TIP3    H134535   2.622   3.342   1.293  0.2479  3.7591  1.3993
 4300TIP3    H234536   2.549   3.381   1.167  0.5758 -0.1317 -0.1566
 4301TIP3   OH234537   4.501   1.555   1.380  0.4405  0.3456 -0.0125
 4301TIP3    H134538   4.413   1.588   1.363  0.7772  1.9298  1.1137
 4301TIP3    H234539   4.535   1.531   1.293 -0.7292  0.6410 -0.5721
 4302TIP3   OH234540   1.510   5.299   1.424 -0.0033  0.3624 -0.3992
 4302TIP3    H134541   1.433   5.277   1.372 -1.0830  0.7442  0.9541
 4302TIP3    H234542   1.527   5.391   1.405  0.3651  0.1770 -0.9865
 4303TIP3   OH234543   2.424   1.201   0.957  0.3999 -0.2296 -0.2375
 4303TIP3    H134544   2.467   1.274   1.002  1.9702  0.0976 -2.1229
 4303TIP3    H234545   2.365   1.243   0.894  1.1803 -0.5446 -1.2052
 4304TIP3   OH234546   6.391   1.805   8.634 -0.7818 -0.4985 -0.2318
 4304TIP3    H134547   6.374   1.887   8.680 -0.4107 -0.1801 -0.6402
 4304TIP3    H234548   6.357   1.737   8.691  0.1601 -0.1585  0.7674
 4305TIP3   OH234549   5.367   0.556   1.709  0.9683  0.2072  0.6545
 4305TIP3    H134550   5.429   0.616   1.666 -0.4827  1.0128 -0.4133
 4305TIP3    H234551   5.321   0.610   1.773 -1.3924  0.7470 -1.3266
 4306TIP3   OH234552   3.744   2.481   0.999  0.6740  0.3928 -0.0248
 4306TIP3    H134553   3.823   2.488   1.053  1.8190  1.4940 -1.7288
 4306TIP3    H234554   3.774   2.442   0.917 -0.1392  2.4449 -1.3805
 4307TIP3   OH234555   4.649   0.597   9.069 -0.1618  0.3642  0.0441
 4307TIP3    H134556   4.742   0.617   9.065 -0.7102  3.4237  0.6716
 4307TIP3    H234557   4.611   0.668   9.121 -2.9205 -0.5246 -0.6126
 4308TIP3   OH234558   6.074   4.485   2.542  0.0909  0.1744  0.4463
 4308TIP3    H134559   6.095   4.569   2.583 -0.8628  0.1538  1.0084
 4308TIP3    H234560   5.983   4.494   2.514 -0.5587 -1.1987  1.9561
 4309TIP3   OH234561   5.731   5.205   8.082 -0.3650 -0.3195 -0.4392
 4309TIP3    H134562   5.823   5.230   8.084 -0.3091 -0.5598  0.1601
 4309TIP3    H234563   5.721   5.141   8.152 -0.8761 -0.6990 -0.8414
 4310TIP3   OH234564   2.943   2.893   0.731  0.4347  0.5988 -0.5945
 4310TIP3    H134565   3.005   2.842   0.782 -1.7153 -1.0804  0.5377
 4310TIP3    H234566   2.982   2.900   0.644  2.1688 -0.3631  0.0650
 4311TIP3   OH234567   5.585   4.072   1.224  0.1670  0.2481  0.6974
 4311TIP3    H134568   5.681   4.068   1.217  0.0300  0.0678 -3.0153
 4311TIP3    H234569   5.566   4.165   1.230  0.5440  0.4488 -0.8793
 4312TIP3   OH234570   2.310   5.292   1.773  0.6118  0.2420 -0.0292
 4312TIP3    H134571   2.314   5.241   1.855 -1.9929  0.5403  0.3564
 4312TIP3    H234572   2.329   5.227   1.705  0.3476 -0.5880  0.6553
 4313TIP3   OH234573   2.881   5.529   8.414  0.2690 -0.0865  0.4852
 4313TIP3    H134574   2.814   5.488   8.468 -1.4079 -0.5951 -1.8601
 4313TIP3    H234575   2.945   5.459   8.399  0.8573  0.1108  1.8679
 4314TIP3   OH234576   4.976   0.248   0.490  0.2627  0.3893 -0.0433
 4314TIP3    H134577   4.932   0.179   0.439  0.7254 -1.1446  1.5191
 4314TIP3    H234578   5.050   0.275   0.435  0.3469 -0.7164 -0.5077
 4315TIP3   OH234579   6.282   0.334   1.169  0.4469 -0.8471 -0.6879
 4315TIP3    H134580   6.373   0.305   1.177  0.7855  0.5539  1.3659
 4315TIP3    H234581   6.280   0.418   1.215 -1.7877 -0.6003 -1.1529
 4316TIP3   OH234582   2.096   1.400   0.109  0.0752  0.2292 -0.0585
 4316TIP3    H134583   2.180   1.445   0.115 -0.9275  2.1766  0.1758
 4316TIP3    H234584   2.114   1.311   0.140  1.6911  1.0783  1.6210
 4317TIP3   OH234585   1.219   0.719   7.388 -0.4303  0.0069 -0.7362
 4317TIP3    H134586   1.281   0.772   7.437  0.5574 -1.4760 -0.2869
 4317TIP3    H234587   1.134   0.759   7.404  0.2594  1.3501 -0.3373
 4318TIP3   OH234588   6.323   1.428   0.765 -0.3020 -0.3887  0.2739
 4318TIP3    H134589   6.405   1.382   0.783  2.1112  1.9112 -3.5674
 4318TIP3    H234590   6.317   1.430   0.670 -3.9876  1.1167  0.3695
 4319TIP3   OH234591   5.361   6.407   8.082 -0.5908 -0.6150  0.0496
 4319TIP3    H134592   5.336   6.319   8.111  0.0081 -1.6705 -2.3974
 4319TIP3    H234593   5.454   6.400   8.063 -0.3023  0.8714  0.7411
 4320TIP3   OH234594   0.951   5.262   7.873 -0.3262  0.1927  0.2109
 4320TIP3    H134595   0.954   5.185   7.816 -1.5049  2.1998 -2.8308
 4320TIP3    H234596   0.860   5.291   7.869  0.4609  2.8105 -0.3413
 4321TIP3   OH234597   4.146   6.387   7.954 -0.3078  0.2371  0.2438
 4321TIP3    H134598   4.077   6.450   7.931  0.9111  1.4437 -0.2643
 4321TIP3    H234599   4.105   6.302   7.943 -2.2693  0.9208  1.7393
 4322TIP3   OH234600   3.531   0.476   8.543 -0.8372 -0.0722  0.0409
 4322TIP3    H134601   3.581   0.499   8.620  0.2246  0.5976 -0.8169
 4322TIP3    H234602   3.440   0.472   8.573 -0.5170  0.8036  1.1807
 4323TIP3   OH234603   3.035   1.172   9.135 -0.0524  0.1956  0.2106
 4323TIP3    H134604   3.061   1.255   9.095  2.4642  1.3348  3.6986
 4323TIP3    H234605   3.107   1.150   9.194 -1.3909 -3.6581  0.7151
 4324TIP3   OH234606   2.145   6.590   0.342 -0.2507  0.0030  0.1674
 4324TIP3    H134607   2.142   6.496   0.362  0.8555  0.2630  1.7233
 4324TIP3    H234608   2.205   6.596   0.267  0.6970 -0.4360  0.8667
 4325TIP3   OH234609   2.191   4.261   2.167  0.5518  0.0618  0.3794
 4325TIP3    H134610   2.146   4.192   2.215  1.2263  0.4756  1.6593
 4325TIP3    H234611   2.132   4.282   2.095  0.3659 -1.8867 -0.1053
 4326TIP3   OH234612   5.918   4.801   8.174  0.5234  0.6488  0.7064
 4326TIP3    H134613   5.919   4.799   8.270 -0.6784 -1.3668  0.7254
 4326TIP3    H234614   5.849   4.865   8.153  0.2588  0.5372  1.2097
 4327TIP3   OH234615   4.525   3.316   1.769  0.3432 -0.0768  0.4411
 4327TIP3    H134616   4.573   3.250   1.718  0.1931  0.5764 -0.5660
 4327TIP3    H234617   4.485   3.266   1.839 -1.0786 -1.3766 -1.1971
 4328TIP3   OH234618   2.705   1.213   2.468  0.4035 -0.4309 -0.6104
 4328TIP3    H134619   2.679   1.161   2.392 -0.8385 -0.1584 -0.3885
 4328TIP3    H234620   2.791   1.179   2.491  0.8599 -0.4438 -2.1999
 4329TIP3   OH234621   4.385   1.213   0.822 -0.0916  0.0919  0.3565
 4329TIP3    H134622   4.309   1.252   0.865  0.1282  0.8428  0.0942
 4329TIP3    H234623   4.358   1.124   0.799 -0.3313 -0.1960  1.7052
 4330TIP3   OH234624   1.288   4.783   0.519 -0.2573 -0.0674  0.0335
 4330TIP3    H134625   1.329   4.707   0.560 -0.6107  0.2697  1.0306
 4330TIP3    H234626   1.266   4.753   0.431  1.3480 -0.5096 -0.2465
 4331TIP3   OH234627   5.266   0.818   1.416 -0.0215 -0.0271  0.5935
 4331TIP3    H134628   5.269   0.756   1.343  1.3385 -0.1689  0.7549
 4331TIP3    H234629   5.355   0.821   1.450 -0.4140  0.7940  1.6304
 4332TIP3   OH234630   2.387   4.489   7.932 -0.3865  0.1839  0.2622
 4332TIP3    H134631   2.365   4.485   7.839  0.5365 -0.7464  0.0716
 4332TIP3    H234632   2.397   4.398   7.959  1.4382  0.4967  0.7651
 4333TIP3   OH234633   2.732   3.627   8.061 -0.0623 -0.0423 -0.2501
 4333TIP3    H134634   2.796   3.646   8.129  0.5159 -0.1694 -0.7515
 4333TIP3    H234635   2.784   3.595   7.987 -0.8624 -2.8605  0.2517
 4334TIP3   OH234636   5.261   1.200   2.010 -0.2939 -0.0492 -0.0194
 4334TIP3    H134637   5.325   1.212   1.940  1.5686 -0.9226  1.4379
 4334TIP3    H234638   5.262   1.284   2.057  0.9049 -0.5295  0.8513
 4335TIP3   OH234639   4.003   2.548   7.811  0.5553  0.5471 -0.4178
 4335TIP3    H134640   4.012   2.643   7.824 -1.6067  0.5506  1.8904
 4335TIP3    H234641   3.916   2.538   7.772  1.0441 -0.4827 -1.2890
 4336TIP3   OH234642   2.039   1.557   1.773 -0.0165 -0.1935 -0.4959
 4336TIP3    H134643   1.988   1.594   1.845  0.5899  1.0833 -0.6996
 4336TIP3    H234644   2.030   1.620   1.702 -0.8033 -1.5635 -1.6448
 4337TIP3   OH234645   5.674   3.331   0.992 -0.2161 -0.1885 -0.1895
 4337TIP3    H134646   5.743   3.397   0.998 -1.0139  0.7050 -0.7707
 4337TIP3    H234647   5.645   3.333   0.901  0.2057 -1.8394 -0.4074
 4338TIP3   OH234648   0.799   4.825   8.945  0.2357  0.1467  0.0310
 4338TIP3    H134649   0.805   4.909   8.901 -3.0233  0.2845 -0.4239
 4338TIP3    H234650   0.846   4.836   9.027 -0.6012  2.6365  0.2400
 4339TIP3   OH234651   6.454   4.405   1.121 -0.2968  0.9292 -0.1116
 4339TIP3    H134652   6.459   4.435   1.030 -0.6685 -0.0628 -0.4803
 4339TIP3    H234653   6.378   4.450   1.158 -1.0529  0.2079 -0.7524
 4340TIP3   OH234654   2.329   0.013   2.831 -0.7339  0.1766  0.1335
 4340TIP3    H134655   2.329  -0.082   2.819 -1.6075  0.0219  1.1626
 4340TIP3    H234656   2.379   0.047   2.757  0.3825 -1.1390  0.2515
 4341TIP3   OH234657   5.563   3.148   9.130 -0.1337  0.6742 -0.0201
 4341TIP3    H134658   5.624   3.075   9.126 -0.3622  0.5326 -2.5764
 4341TIP3    H234659   5.477   3.108   9.147 -0.4309  0.1373 -2.4192
 4342TIP3   OH234660   4.920   0.237   8.651 -0.2428  0.2049  0.4381
 4342TIP3    H134661   4.937   0.320   8.607 -1.2961  1.5321  2.3783
 4342TIP3    H234662   4.843   0.201   8.607  0.0868  0.3613 -0.2694
 4343TIP3   OH234663   1.875   3.431   7.964 -0.1334  0.0976  0.0619
 4343TIP3    H134664   1.901   3.459   7.876  1.2918  0.3371  0.5412
 4343TIP3    H234665   1.838   3.343   7.950 -1.5798  0.8191 -0.9909
 4344TIP3   OH234666   4.676   6.380   8.566 -0.1066 -0.4278 -0.4201
 4344TIP3    H134667   4.754   6.414   8.523  0.2650 -0.3947  0.2737
 4344TIP3    H234668   4.660   6.440   8.639  0.6155 -1.7630  0.8838
 4345TIP3   OH234669   5.575   3.793   1.136  0.5412  0.1243 -0.5022
 4345TIP3    H134670   5.518   3.843   1.077  1.0573  0.9782 -0.2956
 4345TIP3    H234671   5.651   3.850   1.150  1.3340 -0.8908 -0.5785
 4346TIP3   OH234672   6.046   3.766   1.679 -0.0522  0.2382 -0.0526
 4346TIP3    H134673   5.952   3.775   1.670 -0.0819  0.3271  0.3229
 4346TIP3    H234674   6.075   3.726   1.597 -0.2856  1.1308 -0.5818
 4347TIP3   OH234675   4.246   6.344   2.662  0.6980  0.2511 -0.6190
 4347TIP3    H134676   4.191   6.423   2.664  0.1193 -0.1437  1.1461
 4347TIP3    H234677   4.335   6.377   2.669  0.4278  0.7771  0.9610
 4348TIP3   OH234678   5.037   1.419   0.892 -0.2452  0.2455 -0.0136
 4348TIP3    H134679   5.072   1.408   0.804 -0.0935  0.9350 -0.0492
 4348TIP3    H234680   5.104   1.470   0.938 -1.2030  1.6292 -0.0992
 4349TIP3   OH234681   0.749   0.953   7.341  0.2290  0.3506  0.0755
 4349TIP3    H134682   0.678   0.939   7.279  0.7902  0.4562 -0.6008
 4349TIP3    H234683   0.712   1.010   7.408 -0.6269 -0.4218  0.2778
 4350TIP3   OH234684   1.064   4.195   0.917 -0.9791  0.0825 -0.2093
 4350TIP3    H134685   1.093   4.198   0.826 -1.9215  0.2104 -0.5170
 4350TIP3    H234686   1.087   4.282   0.952 -2.7695  0.9480 -1.0369
 4351TIP3   OH234687   6.572   1.024   0.590  0.2518  0.0664  0.2807
 4351TIP3    H134688   6.524   1.024   0.507 -1.5971  1.7613  1.2684
 4351TIP3    H234689   6.629   1.100   0.585 -1.4007  1.4243  1.3389
 4352TIP3   OH234690   1.228   1.212   2.044 -0.0763 -0.1154  0.0670
 4352TIP3    H134691   1.186   1.287   2.002  0.0093 -0.4228 -0.5692
 4352TIP3    H234692   1.172   1.193   2.120 -0.3660  0.2850 -0.0413
 4353TIP3   OH234693   6.519   1.402   8.664 -0.4469  0.1138  0.4135
 4353TIP3    H134694   6.448   1.408   8.601 -0.3114  0.4324  0.2899
 4353TIP3    H234695   6.508   1.478   8.721 -1.0944 -0.6500  1.3333
 4354TIP3   OH234696   4.532   5.988   8.123 -0.0101  0.5322 -0.9441
 4354TIP3    H134697   4.475   6.064   8.109  0.7121  0.6885 -3.5581
 4354TIP3    H234698   4.619   6.025   8.138 -0.2097  0.2426  1.2323
 4355TIP3   OH234699   4.342   6.201   0.313  0.0440  0.1496  0.3181
 4355TIP3    H134700   4.296   6.281   0.289  3.7866  2.2729 -0.5553
 4355TIP3    H234701   4.311   6.136   0.251  1.3204  2.6429 -3.2915
 4356TIP3   OH234702   0.212   6.201   2.100 -0.0874 -0.1068  0.1124
 4356TIP3    H134703   0.258   6.143   2.160  0.4511  0.5410  0.3311
 4356TIP3    H234704   0.278   6.265   2.072 -0.1348 -0.8077 -1.7249
 4357TIP3   OH234705   5.893   0.853   1.783  0.0189  0.0862 -0.5082
 4357TIP3    H134706   5.803   0.832   1.758  0.3403 -0.3436 -1.3511
 4357TIP3    H234707   5.928   0.899   1.707  0.1116  1.4309  0.3359
 4358TIP3   OH234708   3.058   4.218   2.080  0.6367 -0.0495 -0.1889
 4358TIP3    H134709   3.061   4.297   2.135  3.1113 -0.3646  0.2295
 4358TIP3    H234710   3.006   4.156   2.131 -1.2448  1.2005 -0.4686
 4359TIP3   OH234711   1.111   0.512   0.883  0.4295 -0.4326  0.9752
 4359TIP3    H134712   1.180   0.569   0.916  0.2886  0.0400  0.4614
 4359TIP3    H234713   1.049   0.571   0.839  1.0429 -1.1169 -0.8848
 4360TIP3   OH234714   4.797   5.157   8.315  0.0991  0.4434  0.4286
 4360TIP3    H134715   4.876   5.190   8.358  0.2585  0.1956  0.3337
 4360TIP3    H234716   4.830   5.109   8.239 -0.1184 -0.0275  0.6281
 4361TIP3   OH234717   5.537   0.975   2.311  0.2142  0.1237 -0.0531
 4361TIP3    H134718   5.450   0.989   2.347  0.4881  2.6709 -0.2038
 4361TIP3    H234719   5.525   0.909   2.243 -1.6735  0.7983 -0.4272
 4362TIP3   OH234720   2.637   6.364   1.828  0.1667 -0.3670 -0.1654
 4362TIP3    H134721   2.637   6.429   1.898  0.7662 -0.7126  0.1619
 4362TIP3    H234722   2.546   6.360   1.799 -0.4464 -1.4707  1.7464
 4363TIP3   OH234723   0.734   0.965   2.108  0.0270 -0.2866 -0.4398
 4363TIP3    H134724   0.701   0.876   2.096 -0.1875 -0.1426 -0.9543
 4363TIP3    H234725   0.730   0.980   2.202 -1.7975 -0.1250 -0.4980
 4364TIP3   OH234726   0.438   5.019   2.031  0.1029 -0.4144  0.3044
 4364TIP3    H134727   0.514   5.063   2.067 -0.4273  0.0134  0.9188
 4364TIP3    H234728   0.431   5.052   1.941  0.2676  0.0208  0.4528
 4365TIP3   OH234729   4.594   0.175   7.378  0.0899  0.1948 -0.5171
 4365TIP3    H134730   4.569   0.237   7.309  0.3437  0.2250 -0.5830
 4365TIP3    H234731   4.687   0.190   7.390  0.2049 -0.3449 -0.7078
 4366TIP3   OH234732   2.245   6.025   7.703 -0.1787 -0.0618  0.4573
 4366TIP3    H134733   2.179   5.987   7.645 -0.8731  2.5588 -0.6176
 4366TIP3    H234734   2.203   6.026   7.789 -0.7433 -0.2979  0.1900
 4367TIP3   OH234735   2.226   4.379   0.212  0.2686 -0.4840 -0.0514
 4367TIP3    H134736   2.180   4.409   0.134  0.4927 -0.0791 -0.0318
 4367TIP3    H234737   2.236   4.284   0.200  0.7928 -0.3421 -0.7689
 4368TIP3   OH234738   4.652   1.937   0.005  0.1398  0.0388 -0.2194
 4368TIP3    H134739   4.566   1.912   0.039 -0.3247  0.5490 -0.9928
 4368TIP3    H234740   4.667   2.025   0.039  0.2267  0.0661 -0.3266
 4369TIP3   OH234741   6.088   0.062   7.895 -0.0540 -0.5978  0.0359
 4369TIP3    H134742   6.017   0.001   7.918 -0.4823 -0.6342 -1.3203
 4369TIP3    H234743   6.146   0.060   7.971 -0.9628 -1.3754  0.7361
 4370TIP3   OH234744   0.919   6.329   2.050  0.4302  0.0658 -0.5437
 4370TIP3    H134745   0.992   6.383   2.079 -1.2362  1.0040  2.3454
 4370TIP3    H234746   0.929   6.246   2.098 -0.8538  0.5836  0.7124
 4371TIP3   OH234747   6.386   5.101   1.428  0.6797  0.0502 -0.2863
 4371TIP3    H134748   6.467   5.128   1.471  0.7046  0.9239 -0.8482
 4371TIP3    H234749   6.415   5.043   1.358  0.6074 -1.7226  1.0904
 4372TIP3   OH234750   6.085   1.213   1.676 -0.0885  0.6116  0.0303
 4372TIP3    H134751   6.159   1.231   1.733 -1.0195  2.4386  0.7588
 4372TIP3    H234752   6.018   1.276   1.703 -1.2197  0.3226 -1.8778
 4373TIP3   OH234753   5.442   2.159   8.602 -0.2076  0.3426 -0.0122
 4373TIP3    H134754   5.522   2.172   8.654 -0.2018  0.1592  0.0267
 4373TIP3    H234755   5.419   2.246   8.570  1.0293  0.1470 -1.5329
 4374TIP3   OH234756   0.680   5.024   7.915  0.3411 -0.7959  0.0465
 4374TIP3    H134757   0.746   5.022   7.845 -0.6688 -0.9857 -0.9365
 4374TIP3    H234758   0.597   5.012   7.869 -0.3610 -0.8127  1.2862
 4375TIP3   OH234759   1.034   1.237   2.228  0.0469  0.1928 -0.1294
 4375TIP3    H134760   0.977   1.186   2.286 -0.6109  0.2523 -0.7130
 4375TIP3    H234761   0.988   1.319   2.214  0.5019  0.4362 -0.2402
 4376TIP3   OH234762   4.952   2.578   0.044  0.5621 -0.0588  0.0988
 4376TIP3    H134763   4.945   2.647   0.110 -0.0761 -1.1660  1.2354
 4376TIP3    H234764   4.861   2.559   0.020  0.7792  0.2093 -1.0039
 4377TIP3   OH234765   1.810   4.893   2.383  0.1876  0.5774 -0.8131
 4377TIP3    H134766   1.810   4.952   2.308  0.6513  2.7213  0.7680
 4377TIP3    H234767   1.783   4.949   2.457  0.2844 -1.3006  0.7166
 4378TIP3   OH234768   6.272   6.197   2.211 -0.3287  0.3548 -0.2486
 4378TIP3    H134769   6.203   6.226   2.270 -0.2959  0.1549 -0.1124
 4378TIP3    H234770   6.332   6.271   2.207 -0.7843  0.7053 -0.7328
 4379TIP3   OH234771   2.911   3.689   1.341  0.1551 -0.2582 -0.4536
 4379TIP3    H134772   2.944   3.675   1.430 -0.0072 -0.7123 -0.4620
 4379TIP3    H234773   2.990   3.687   1.286  0.1010 -1.7971 -0.5284
 4380TIP3   OH234774   2.526   1.572   7.886 -0.0405 -0.1956  0.5369
 4380TIP3    H134775   2.480   1.525   7.816  0.1878  1.9414 -1.1475
 4380TIP3    H234776   2.456   1.617   7.933  0.0009  0.4591 -0.0019
 4381TIP3   OH234777   6.218   4.604   0.931  0.0495  0.1318  0.0490
 4381TIP3    H134778   6.142   4.611   0.873  0.2159  1.4181 -0.0463
 4381TIP3    H234779   6.230   4.693   0.965  1.1947 -0.1746  0.4831
 4382TIP3   OH234780   3.874   1.639   7.910 -0.2678 -0.0796 -0.1980
 4382TIP3    H134781   3.808   1.605   7.850  1.3692 -0.9292 -1.6420
 4382TIP3    H234782   3.951   1.585   7.893 -0.4185 -2.3562  4.7245
 4383TIP3   OH234783   3.663   5.436   1.615 -0.7401 -0.1523  0.4519
 4383TIP3    H134784   3.567   5.434   1.623 -0.6629 -2.1067  1.3998
 4383TIP3    H234785   3.690   5.512   1.668 -1.7520  0.4271  0.1640
 4384TIP3   OH234786   2.104   4.682   1.936 -0.0778 -0.0198  0.6951
 4384TIP3    H134787   2.109   4.773   1.963 -0.3734  0.6809 -1.3760
 4384TIP3    H234788   2.026   4.678   1.879  1.6498 -0.7587 -1.7945
 4385TIP3   OH234789   6.317   5.709   8.293 -0.0743 -0.6322 -0.4218
 4385TIP3    H134790   6.226   5.735   8.281  0.4435  1.3010 -0.5782
 4385TIP3    H234791   6.332   5.640   8.228 -0.5050  1.4457 -2.8874
 4386TIP3   OH234792   4.802   2.648   8.478  0.4984  0.2074  0.0994
 4386TIP3    H134793   4.850   2.683   8.403 -0.8129  1.2873 -0.2735
 4386TIP3    H234794   4.749   2.721   8.509 -1.7735 -1.2036 -0.2216
 4387TIP3   OH234795   1.684   1.065   9.037 -0.2406  0.7167 -0.3835
 4387TIP3    H134796   1.592   1.054   9.014 -0.4460  0.6163  0.4229
 4387TIP3    H234797   1.703   1.157   9.021 -1.2817  1.4303  2.0524
 4388TIP3   OH234798   5.124   6.623   0.466 -0.4662 -0.4822  0.1413
 4388TIP3    H134799   5.148   6.709   0.432 -0.3760 -1.2225 -1.7947
 4388TIP3    H234800   5.200   6.595   0.518 -1.1587  1.2560  2.2438
 4389TIP3   OH234801   4.878   3.721   8.547  0.0948  0.3294  0.3773
 4389TIP3    H134802   4.832   3.792   8.592 -0.4792 -0.6546  1.4160
 4389TIP3    H234803   4.896   3.657   8.616  0.5598 -0.5441 -0.5304
 4390TIP3   OH234804   3.211   0.791   2.696  0.0838 -0.4547  0.8204
 4390TIP3    H134805   3.141   0.725   2.691  0.8995 -1.2643 -2.6528
 4390TIP3    H234806   3.173   0.862   2.748 -3.1093 -1.1384 -0.3212
 4391TIP3   OH234807   5.394   0.484   8.015 -0.0255  0.6579 -1.0593
 4391TIP3    H134808   5.351   0.399   8.015 -2.2103  1.6989 -0.1663
 4391TIP3    H234809   5.366   0.526   7.934  0.8137  0.6581 -1.3605
 4392TIP3   OH234810   3.919   5.788   1.644 -0.3682  0.1749  0.0243
 4392TIP3    H134811   3.879   5.749   1.566 -0.8484  1.0637 -0.1922
 4392TIP3    H234812   3.999   5.830   1.611 -1.2421  1.6860 -0.2598
 4393TIP3   OH234813   4.231   2.294   8.573 -0.2793 -0.7074 -0.0262
 4393TIP3    H134814   4.172   2.220   8.562  0.7287 -1.4150 -0.8154
 4393TIP3    H234815   4.273   2.305   8.488 -0.0028  0.4219  0.2378
 4394TIP3   OH234816   5.939   4.270   0.046 -0.9164 -0.3176 -0.3060
 4394TIP3    H134817   5.991   4.287  -0.033  2.7761  0.1469  2.0078
 4394TIP3    H234818   5.965   4.183   0.074  1.8550  1.3592  2.9944
 4395TIP3   OH234819   0.192   4.327   0.107  0.1477 -0.4705  0.2952
 4395TIP3    H134820   0.226   4.301   0.022  0.7937 -2.4677  1.0933
 4395TIP3    H234821   0.106   4.365   0.088  0.5822 -0.1913 -1.2768
 4396TIP3   OH234822   3.796   1.323   0.353  0.4160 -0.0074 -0.8381
 4396TIP3    H134823   3.814   1.231   0.371 -0.1197  0.1320  0.5250
 4396TIP3    H234824   3.848   1.342   0.275  0.5186 -1.4601 -1.1602
 4397TIP3   OH234825   3.373   5.986   0.423 -0.0472 -0.3056 -0.5133
 4397TIP3    H134826   3.323   5.995   0.505  0.1952  0.4994 -0.4475
 4397TIP3    H234827   3.328   5.916   0.376  0.9560 -2.1714  1.1411
 4398TIP3   OH234828   4.381   6.495   8.023  0.1489 -0.0690  0.1138
 4398TIP3    H134829   4.367   6.460   8.112 -1.3227 -1.4037 -0.5953
 4398TIP3    H234830   4.311   6.456   7.971 -0.0060  1.9876 -1.3148
 4399TIP3   OH234831   0.737   2.971   8.393  0.5319 -0.2124  0.2223
 4399TIP3    H134832   0.810   3.032   8.383 -0.6287  1.1220 -0.3071
 4399TIP3    H234833   0.704   2.959   8.304  0.4350 -1.2471  0.3838
 4400TIP3   OH234834   3.823   0.336   7.779  0.5682 -0.0545  0.3972
 4400TIP3    H134835   3.742   0.334   7.728  0.4821 -0.0264  0.5318
 4400TIP3    H234836   3.876   0.265   7.744  0.3708 -0.2504  0.4967
 4401TIP3   OH234837   2.343   1.044   1.933 -0.0763  0.4121 -0.6342
 4401TIP3    H134838   2.331   0.974   1.869 -0.5831 -0.2359  0.1627
 4401TIP3    H234839   2.429   1.027   1.971 -0.6756 -0.4609  0.3706
 4402TIP3   OH234840   5.711   0.850   3.280  0.4858  0.2085 -0.0875
 4402TIP3    H134841   5.656   0.805   3.344 -0.9787  0.4489 -1.1348
 4402TIP3    H234842   5.760   0.914   3.332 -0.4982  0.2427  0.8351
 4403TIP3   OH234843   3.413   2.569   0.171  0.2136  0.1223  0.3082
 4403TIP3    H134844   3.427   2.535   0.259  1.1753  1.6219  0.7873
 4403TIP3    H234845   3.425   2.664   0.180  2.3976  0.1565 -1.7687
 4404TIP3   OH234846   5.190   0.294   8.023 -0.0765 -0.0295 -0.7073
 4404TIP3    H134847   5.156   0.219   7.974 -0.2419 -0.2301 -0.2834
 4404TIP3    H234848   5.113   0.348   8.040 -0.0849 -0.1768 -0.2851
 4405TIP3   OH234849   5.977   3.528   1.906 -0.1820 -0.9880 -0.3453
 4405TIP3    H134850   5.899   3.526   1.851 -1.5087 -0.1078  1.4068
 4405TIP3    H234851   5.968   3.452   1.964 -0.8815  0.2412  1.2532
 4406TIP3   OH234852   5.921   2.473   1.229 -0.0168 -0.3562  0.0931
 4406TIP3    H134853   5.981   2.547   1.231  0.6982 -0.9417  1.4948
 4406TIP3    H234854   5.977   2.396   1.236 -0.8244 -0.9902 -0.2232
 4407TIP3   OH234855   5.955   2.328   1.604  0.2992 -0.5682  0.3788
 4407TIP3    H134856   5.940   2.241   1.566 -0.7218 -0.3623  0.2749
 4407TIP3    H234857   5.876   2.377   1.582  0.8335  0.3711  0.5001
 4408TIP3   OH234858   1.995   3.570   9.126  0.2996 -0.5294 -0.0340
 4408TIP3    H134859   1.956   3.617   9.052  1.4760 -0.2585 -0.5042
 4408TIP3    H234860   1.997   3.635   9.197 -1.4596 -0.9862  0.4948
 4409TIP3   OH234861   4.444   6.171   0.568 -0.4816 -0.1759  0.3477
 4409TIP3    H134862   4.400   6.103   0.618  0.3734 -0.5453  0.6059
 4409TIP3    H234863   4.402   6.168   0.482  0.5381 -2.0558 -0.1360
 4410TIP3   OH234864   4.857   6.513   0.543  0.2998  0.1349  0.2385
 4410TIP3    H134865   4.825   6.571   0.612  0.2646  0.4369 -0.0288
 4410TIP3    H234866   4.948   6.539   0.530  1.1079 -1.6377  1.9556
 4411TIP3   OH234867   1.315   0.404   7.286  0.0322  0.0863 -0.1908
 4411TIP3    H134868   1.300   0.315   7.253 -0.6301 -0.4710  1.5076
 4411TIP3    H234869   1.397   0.431   7.245  0.0909 -1.1819 -0.9792
 4412TIP3   OH234870   6.542   5.614   0.242  0.0295  0.0141  0.4053
 4412TIP3    H134871   6.605   5.596   0.312 -0.0117 -1.7470  0.0170
 4412TIP3    H234872   6.482   5.540   0.244  0.2681 -0.2881 -1.7610
 4413TIP3   OH234873   0.171   5.001   2.128  0.4912 -0.1606  0.0730
 4413TIP3    H134874   0.240   5.018   2.064 -0.1493 -0.9817 -0.8508
 4413TIP3    H234875   0.213   5.018   2.213  1.1211  1.7157 -0.5551
 4414TIP3   OH234876   6.105   1.254   2.113 -0.0051  0.0286  0.0663
 4414TIP3    H134877   6.033   1.196   2.090  0.2672  0.2351 -1.3586
 4414TIP3    H234878   6.070   1.342   2.098  0.3250  0.1573  0.0579
 4415TIP3   OH234879   4.329   2.397   7.997 -0.6137 -0.3799  0.1148
 4415TIP3    H134880   4.298   2.339   7.927 -0.5739 -1.7551  1.1927
 4415TIP3    H234881   4.333   2.483   7.956 -2.7368 -0.7171 -0.9541
 4416TIP3   OH234882   5.866   2.685   1.908  0.0651  0.4440  0.3945
 4416TIP3    H134883   5.796   2.667   1.846 -0.6180  2.9415  0.3367
 4416TIP3    H234884   5.868   2.781   1.915  2.0065  0.3495  2.0817
 4417TIP3   OH234885   3.992   2.127   0.036  0.1041 -0.6066 -0.2602
 4417TIP3    H134886   4.000   2.043   0.081  1.2075 -0.0424  0.6488
 4417TIP3    H234887   4.074   2.136  -0.013  1.2267  1.0769  1.7364
 4418TIP3   OH234888   1.417   5.878   8.750  0.4659  0.4006 -0.5970
 4418TIP3    H134889   1.415   5.852   8.842  0.0621  0.8964 -0.4610
 4418TIP3    H234890   1.470   5.958   8.749 -1.6235  1.8871 -0.3757
 4419TIP3   OH234891   1.745   5.930   2.252  0.3900  0.3510 -0.4423
 4419TIP3    H134892   1.728   5.976   2.334 -0.9223  0.9094 -1.0104
 4419TIP3    H234893   1.731   5.838   2.273 -1.5502  0.6247 -0.4082
 4420TIP3   OH234894   3.882   1.861   1.110  0.5043  0.2872 -0.3164
 4420TIP3    H134895   3.812   1.926   1.119  0.2137 -0.1018  0.3443
 4420TIP3    H234896   3.963   1.911   1.123  0.4024  0.8468 -1.6523
 4421TIP3   OH234897   2.103   1.397   1.511 -0.1178 -0.4960 -0.8946
 4421TIP3    H134898   2.099   1.443   1.595  1.7866  0.4628 -1.2615
 4421TIP3    H234899   2.017   1.357   1.501 -0.5319 -0.3080  1.3247
 4422TIP3   OH234900   4.329   2.441   8.787 -0.1680  0.0788 -0.2620
 4422TIP3    H134901   4.325   2.361   8.735  0.3432 -0.5493  0.6457
 4422TIP3    H234902   4.275   2.504   8.738 -1.8770 -1.2564 -0.1819
 4423TIP3   OH234903   1.130   3.939   0.259  0.3122  0.2593 -0.2895
 4423TIP3    H134904   1.207   3.887   0.234  0.1101  0.1966 -0.7910
 4423TIP3    H234905   1.068   3.875   0.294  0.2994  0.2439 -0.3398
 4424TIP3   OH234906   4.694   0.642   1.961  0.1258 -0.5826  0.3525
 4424TIP3    H134907   4.665   0.732   1.947  1.6142 -0.0449  0.5217
 4424TIP3    H234908   4.739   0.618   1.880 -1.5619 -1.7606 -0.3035
 4425TIP3   OH234909   1.537   5.623   7.701  0.0854  0.2400  0.3108
 4425TIP3    H134910   1.450   5.636   7.663  1.1081 -0.2155 -2.3522
 4425TIP3    H234911   1.529   5.542   7.751 -1.2062  0.6489  0.8366
 4426TIP3   OH234912   4.408   2.067   8.608  0.3490  0.3994 -0.5158
 4426TIP3    H134913   4.385   2.160   8.608  2.8433  1.0971  0.5695
 4426TIP3    H234914   4.381   2.036   8.522  0.0999  2.3105 -1.1841
 4427TIP3   OH234915   4.927   1.096   2.608 -0.8651  0.0958 -0.4813
 4427TIP3    H134916   4.840   1.130   2.630 -0.8543  0.0159 -0.3088
 4427TIP3    H234917   4.973   1.092   2.692  0.8102  4.2126 -0.9927
 4428TIP3   OH234918   0.928   4.918   0.202  0.5565 -0.4895 -0.2140
 4428TIP3    H134919   0.978   5.000   0.208  0.0789 -0.1135 -1.1719
 4428TIP3    H234920   0.847   4.937   0.250 -0.4979  0.3727 -2.1863
 4429TIP3   OH234921   6.347   0.930   2.456  0.0888 -0.5175 -0.2540
 4429TIP3    H134922   6.401   0.945   2.533  0.3397 -0.3764 -0.4570
 4429TIP3    H234923   6.364   0.839   2.432 -1.2282 -1.0881  0.8170
 4430TIP3   OH234924   5.338   6.482   9.131  0.0169  0.6482 -0.1267
 4430TIP3    H134925   5.382   6.463   9.215 -0.6157 -1.7776 -0.2694
 4430TIP3    H234926   5.398   6.541   9.086  0.7251  1.4208  1.7344
 4431TIP3   OH234927   1.039   5.787   2.480  0.0349  0.5318  0.0368
 4431TIP3    H134928   1.121   5.739   2.479  0.3584  1.0576  0.6939
 4431TIP3    H234929   1.053   5.859   2.542 -0.3509  1.6411 -1.1148
 4432TIP3   OH234930   1.987   5.086   7.818 -0.0351 -0.0281 -0.5102
 4432TIP3    H134931   2.004   5.060   7.727  1.0298 -1.1688 -0.0149
 4432TIP3    H234932   1.933   5.165   7.811  0.3947  0.1526 -2.1326
 4433TIP3   OH234933   0.401   3.577   2.364 -0.2675 -0.7713  0.4356
 4433TIP3    H134934   0.463   3.578   2.291 -0.7856 -0.2188 -0.0051
 4433TIP3    H234935   0.431   3.505   2.420  0.3132 -1.0044 -0.1626
 4434TIP3   OH234936   1.169   0.499   0.373 -0.0759 -0.1180 -0.0605
 4434TIP3    H134937   1.152   0.563   0.442 -0.4882 -0.8869  0.5585
 4434TIP3    H234938   1.139   0.542   0.293  2.5794  1.7490 -0.1859
 4435TIP3   OH234939   0.468   1.133   9.071 -0.0525 -0.3975  0.4264
 4435TIP3    H134940   0.390   1.149   9.123 -1.1584  0.4421 -1.3946
 4435TIP3    H234941   0.450   1.050   9.025 -0.6544  0.6025 -1.2481
 4436TIP3   OH234942   0.668   3.519   8.593 -0.2596 -0.7508  0.7580
 4436TIP3    H134943   0.668   3.454   8.663 -1.4284 -0.9119  0.6410
 4436TIP3    H234944   0.758   3.522   8.562  0.1831 -0.9905  1.9798
 4437TIP3   OH234945   5.847   5.808   0.730 -0.0065  0.0478  0.1171
 4437TIP3    H134946   5.857   5.877   0.664  0.0023  1.1933  1.2830
 4437TIP3    H234947   5.770   5.833   0.781 -0.1260 -0.9234  0.4502
 4438TIP3   OH234948   2.090   6.500   8.601 -0.0464  0.3363 -0.4057
 4438TIP3    H134949   2.001   6.516   8.631  0.5345  2.7759  0.2530
 4438TIP3    H234950   2.134   6.460   8.675  0.3852  2.8378  0.7951
 4439TIP3   OH234951   6.549   0.566   7.268 -0.3313  0.2431 -0.8482
 4439TIP3    H134952   6.517   0.521   7.347  0.7110 -0.3193 -0.7239
 4439TIP3    H234953   6.526   0.658   7.281 -1.0775 -0.0061 -0.3617
 4440TIP3   OH234954   1.985   3.611   7.565  0.2267 -0.4665  0.3429
 4440TIP3    H134955   2.052   3.583   7.627 -0.4987  1.3466  2.0414
 4440TIP3    H234956   2.029   3.676   7.510 -0.0478  0.6302  1.3757
 4441TIP3   OH234957   1.171   6.016   2.311  0.3160  0.5866  0.4779
 4441TIP3    H134958   1.211   6.052   2.232 -1.7280  0.4160 -0.6873
 4441TIP3    H234959   1.200   5.925   2.312  1.1933  0.8528  0.5225
 4442TIP3   OH234960   2.802   5.609   8.814 -0.1579  0.3350 -0.6222
 4442TIP3    H134961   2.739   5.651   8.755 -1.5860  0.6576  1.0485
 4442TIP3    H234962   2.773   5.635   8.901  2.5249  0.7532  0.2189
 4443TIP3   OH234963   1.111   5.373   8.296 -0.0093  0.3146 -0.7905
 4443TIP3    H134964   1.150   5.294   8.332 -0.7023 -0.3150 -1.3943
 4443TIP3    H234965   1.170   5.399   8.225 -0.1448 -0.0540 -1.0397
 4444TIP3   OH234966   4.611   2.877   8.549 -0.1491 -0.1148  0.0950
 4444TIP3    H134967   4.656   2.956   8.579 -0.2180 -0.2877  0.6652
 4444TIP3    H234968   4.558   2.850   8.623 -0.7428 -0.2510 -0.3694
 4445TIP3   OH234969   4.514   3.750   2.696 -0.1370 -0.4172 -0.4054
 4445TIP3    H134970   4.437   3.785   2.651 -1.4257 -0.3375  1.7114
 4445TIP3    H234971   4.529   3.812   2.768 -0.9393 -2.7440  1.9349
 4446TIP3   OH234972   4.640   2.473   0.006  0.2975 -0.1363  0.4273
 4446TIP3    H134973   4.643   2.499   0.098  0.3796 -0.6129  0.5630
 4446TIP3    H234974   4.546   2.465  -0.014  0.2982 -1.3236  0.8487
 4447TIP3   OH234975   0.248   1.591   0.755  0.1190 -0.0798  0.0133
 4447TIP3    H134976   0.216   1.530   0.822 -0.7533  0.2821 -0.0606
 4447TIP3    H234977   0.340   1.566   0.742 -0.1413 -1.2023  0.1847
 4448TIP3   OH234978   5.916   5.430   1.088 -0.0161 -0.8473 -0.3742
 4448TIP3    H134979   5.954   5.380   1.159  0.0262 -1.0394 -0.5300
 4448TIP3    H234980   5.843   5.478   1.128  2.1259  1.8578  0.6197
 4449TIP3   OH234981   0.143   5.305   7.260  0.6639 -0.3730  0.0738
 4449TIP3    H134982   0.062   5.343   7.293  0.6616  0.2725 -0.6364
 4449TIP3    H234983   0.150   5.339   7.170  1.6305 -0.5563  0.0704
 4450TIP3   OH234984   5.653   4.362   8.431 -0.1849 -0.2531 -0.2904
 4450TIP3    H134985   5.712   4.412   8.487  1.1758 -1.6335 -0.4204
 4450TIP3    H234986   5.596   4.316   8.493 -0.7545  0.6347 -0.1458
 4451TIP3   OH234987   0.236   0.205   8.424  0.8433  0.1657 -0.5875
 4451TIP3    H134988   0.323   0.208   8.384  0.9418  0.3219 -0.3639
 4451TIP3    H234989   0.250   0.232   8.515  0.6084 -0.1093 -0.4682
 4452TIP3   OH234990   6.563   2.630   2.733 -0.4422 -0.4812  1.0554
 4452TIP3    H134991   6.630   2.698   2.742 -1.1114  0.6877 -1.5553
 4452TIP3    H234992   6.586   2.585   2.652 -1.7553 -1.3110  1.1131
 4453TIP3   OH234993   3.869   6.458   0.850 -0.0937  0.3287  0.0850
 4453TIP3    H134994   3.861   6.383   0.792  0.0825 -0.9688  1.6844
 4453TIP3    H234995   3.910   6.424   0.929 -0.9249  1.8981  1.2566
 4454TIP3   OH234996   5.742   2.096   7.869  0.2868 -0.4246  0.0118
 4454TIP3    H134997   5.767   2.058   7.953  1.5084 -2.0738 -1.0289
 4454TIP3    H234998   5.693   2.027   7.825 -0.0923  0.3158 -0.7683
 4455TIP3   OH234999   3.911   4.226   8.678  0.1729 -0.5151  0.2980
 4455TIP3    H135000   3.867   4.178   8.608  0.2789  1.2186 -1.0372
 4455TIP3    H235001   3.960   4.160   8.726  0.2394 -1.7452 -1.3777
 4456TIP3   OH235002   4.329   2.431   1.281  0.3267  0.1604 -0.0747
 4456TIP3    H135003   4.298   2.511   1.238  0.3479  0.6699  0.8387
 4456TIP3    H235004   4.422   2.428   1.262  0.4343  0.6592  0.3660
 4457TIP3   OH235005   2.073   1.789   2.914  0.4253 -0.0821 -0.2293
 4457TIP3    H135006   2.144   1.853   2.927 -0.1917  0.5457  0.0914
 4457TIP3    H235007   1.997   1.828   2.958 -0.3177 -0.3989 -1.2091
 4458TIP3   OH235008   3.544   1.075   2.877  0.0809  0.3586  0.5151
 4458TIP3    H135009   3.590   1.140   2.823  0.2850 -0.8588 -0.8416
 4458TIP3    H235010   3.512   1.010   2.814 -2.2066  0.3647  1.5733
 4459TIP3   OH235011   4.267   2.908   0.957  0.1148 -0.2454  0.5062
 4459TIP3    H135012   4.215   2.914   0.876  0.1585  2.0073  0.5592
 4459TIP3    H235013   4.333   2.842   0.939  1.2953  1.4612 -2.0602
 4460TIP3   OH235014   0.678   6.689   7.449 -0.5473 -0.0641 -0.6530
 4460TIP3    H135015   0.692   6.651   7.536 -1.5714 -1.0411 -0.8954
 4460TIP3    H235016   0.629   6.770   7.466 -0.3765 -0.0342 -0.2958
 4461TIP3   OH235017   5.212   3.479   1.794 -0.2069 -0.0330 -0.2367
 4461TIP3    H135018   5.241   3.491   1.884  0.2156 -1.7556 -0.1019
 4461TIP3    H235019   5.211   3.384   1.781 -0.9023  0.1468 -1.8432
 4462TIP3   OH235020   3.594   1.858   8.710  0.1610 -0.3989  1.0119
 4462TIP3    H135021   3.638   1.915   8.647 -1.6813 -0.5587 -0.4919
 4462TIP3    H235022   3.639   1.774   8.703  0.7483 -0.0743  0.8267
 4463TIP3   OH235023   2.232   3.265   0.208 -0.0577 -0.3530  0.2841
 4463TIP3    H135024   2.307   3.325   0.211 -0.6586  0.3789  0.9642
 4463TIP3    H235025   2.254   3.195   0.269  0.5383 -0.7126 -0.3285
 4464TIP3   OH235026   0.715   4.570   1.807  0.1753 -0.1244  0.0550
 4464TIP3    H135027   0.778   4.541   1.741  1.1307  2.4092 -0.2576
 4464TIP3    H235028   0.656   4.629   1.760 -2.0129 -1.8474  0.5163
 4465TIP3   OH235029   2.528   6.413   7.975 -0.4348 -0.7154  0.1304
 4465TIP3    H135030   2.553   6.444   7.888  0.2249 -1.5582  0.0075
 4465TIP3    H235031   2.536   6.318   7.970 -1.5500 -0.8584  0.7628
 4466TIP3   OH235032   5.714   5.882   0.151 -0.0993 -0.4380  0.2060
 4466TIP3    H135033   5.689   5.860   0.062 -0.4401 -1.0976  0.4573
 4466TIP3    H235034   5.810   5.878   0.151  0.1153  2.3581 -0.8177
 4467TIP3   OH235035   4.035   6.459   2.239 -0.5439 -0.4480  0.4737
 4467TIP3    H135036   4.126   6.483   2.219 -0.2406 -1.4751  0.5932
 4467TIP3    H235037   3.993   6.543   2.261  0.8159 -0.1483  2.1755
 4468TIP3   OH235038   2.268   2.973   8.658  0.5807 -0.1898 -0.2382
 4468TIP3    H135039   2.284   2.879   8.664  1.7604  0.0822  1.5965
 4468TIP3    H235040   2.347   3.008   8.617  0.1668  0.0275 -0.8676
 4469TIP3   OH235041   2.207   3.568   7.717 -0.0175  1.0464 -0.3518
 4469TIP3    H135042   2.292   3.603   7.743  0.5326 -0.1152 -0.5111
 4469TIP3    H235043   2.208   3.477   7.747 -1.0865  0.9255 -0.6266
 4470TIP3   OH235044   6.267   4.276   0.832 -0.5756  0.3033  0.0520
 4470TIP3    H135045   6.230   4.364   0.828 -0.9002  0.1300 -1.4617
 4470TIP3    H235046   6.251   4.239   0.745  1.0513 -0.6519  0.1085
 4471TIP3   OH235047   6.161   3.215   1.827 -0.1634  0.2909  0.3551
 4471TIP3    H135048   6.116   3.281   1.775 -1.6404 -1.6941 -1.0319
 4471TIP3    H235049   6.235   3.188   1.773  1.3812  1.7990  1.5849
 4472TIP3   OH235050   0.171   5.798   8.638  0.5737  0.1144 -0.8271
 4472TIP3    H135051   0.145   5.806   8.547  1.8223 -1.3750 -1.3492
 4472TIP3    H235052   0.181   5.704   8.653 -0.5130  0.2563  1.1295
 4473TIP3   OH235053   5.261   3.662   1.288  0.2296 -0.1201 -0.1159
 4473TIP3    H135054   5.281   3.717   1.364 -0.0970 -0.8393  0.5009
 4473TIP3    H235055   5.232   3.579   1.325  1.5803 -1.0418 -1.0281
 4474TIP3   OH235056   2.906   6.370   7.670 -0.4975 -0.7278 -0.1568
 4474TIP3    H135057   2.914   6.459   7.707 -2.8212 -0.2771 -0.5423
 4474TIP3    H235058   2.932   6.380   7.578 -3.2309  0.2588 -0.9320
 4475TIP3   OH235059   3.786   6.043   3.212  0.1206 -0.4407  0.4298
 4475TIP3    H135060   3.766   6.061   3.121 -0.5201 -1.1042  0.4238
 4475TIP3    H235061   3.847   6.112   3.238  0.7398 -0.5607 -0.6500
 4476TIP3   OH235062   1.466   0.042   2.390 -0.0818  0.2854 -0.0718
 4476TIP3    H135063   1.399   0.107   2.413 -0.1899  0.8338 -1.7790
 4476TIP3    H235064   1.419  -0.040   2.381 -0.1566  0.2217  0.8781
 4477TIP3   OH235065   5.725   2.299   0.499  0.0089  0.3524 -0.1950
 4477TIP3    H135066   5.780   2.339   0.432  0.1267 -0.5566 -0.6539
 4477TIP3    H235067   5.636   2.304   0.463  0.0156  0.2628 -0.2246
 4478TIP3   OH235068   0.203   0.886   9.168 -0.3181  0.1203 -0.2918
 4478TIP3    H135069   0.250   0.863   9.248 -0.9305  0.4332  0.1629
 4478TIP3    H235070   0.270   0.884   9.099 -0.1393 -1.9684 -0.1121
 4479TIP3   OH235071   1.710   6.275   7.709  0.0870  0.4579  0.3735
 4479TIP3    H135072   1.792   6.234   7.681 -0.0516  0.7354 -0.4842
 4479TIP3    H235073   1.646   6.204   7.710  0.6138 -0.0453  2.3975
 4480TIP3   OH235074   1.982   3.916   1.941  0.2865 -0.0717  0.3664
 4480TIP3    H135075   2.002   3.887   2.030 -0.8248 -0.2543  0.5757
 4480TIP3    H235076   1.963   3.835   1.893 -1.5404  0.1469  0.6193
 4481TIP3   OH235077   5.008   4.457   1.595  0.3461  0.5470  0.2870
 4481TIP3    H135078   4.979   4.383   1.648 -0.4675 -0.7014 -1.7953
 4481TIP3    H235079   4.934   4.518   1.595  0.7436  1.0632  1.3923
 4482TIP3   OH235080   1.175   3.710   2.404 -0.2375  0.9602  0.2555
 4482TIP3    H135081   1.117   3.648   2.449 -1.2034  2.3458  1.0103
 4482TIP3    H235082   1.196   3.775   2.471  0.0418  1.9120 -0.7324
 4483TIP3   OH235083   2.412   1.630   8.313 -0.1560 -0.1337  0.3736
 4483TIP3    H135084   2.363   1.641   8.231  0.8813  0.7059 -0.1621
 4483TIP3    H235085   2.397   1.712   8.361 -0.0461 -0.2649  0.6320
 4484TIP3   OH235086   2.530   2.540   0.601 -0.1871  0.1778  0.5473
 4484TIP3    H135087   2.522   2.473   0.533  0.0381 -0.1350  0.8261
 4484TIP3    H235088   2.624   2.550   0.614 -0.2319  0.1821  0.8658
 4485TIP3   OH235089   0.356   1.084   7.792 -0.2136  0.3933  0.4185
 4485TIP3    H135090   0.406   1.150   7.745 -0.4131  0.4270  0.2543
 4485TIP3    H235091   0.267   1.091   7.758 -0.2356  0.0374  0.3939
 4486TIP3   OH235092   2.371   4.747   2.589  0.3703 -0.6725 -0.2763
 4486TIP3    H135093   2.385   4.840   2.573  2.1533 -0.7066  0.7111
 4486TIP3    H235094   2.355   4.741   2.684  0.1109 -1.3500 -0.3546
 4487TIP3   OH235095   6.435   4.075   8.183 -0.0265 -0.0632 -0.2168
 4487TIP3    H135096   6.462   4.154   8.138  2.0424 -0.5778  0.0157
 4487TIP3    H235097   6.437   4.007   8.116  2.2579 -0.6679  0.3650
 4488TIP3   OH235098   4.346   0.183   6.919 -0.2692 -0.2976  0.2046
 4488TIP3    H135099   4.367   0.193   7.012 -0.4611  0.0402  0.2106
 4488TIP3    H235100   4.277   0.117   6.917  1.4111 -2.1376  0.1209
 4489TIP3   OH235101   1.176   0.580   9.035 -0.4950  0.2104  0.4222
 4489TIP3    H135102   1.224   0.599   9.116  0.9746  0.6536 -0.5196
 4489TIP3    H235103   1.175   0.485   9.030 -1.4891  0.1360  1.4410
 4490TIP3   OH235104   0.703   2.819   0.350  0.0900  0.1952 -0.1395
 4490TIP3    H135105   0.699   2.737   0.301 -0.2919 -0.6435  1.2196
 4490TIP3    H235106   0.795   2.826   0.376  0.0422 -0.0310  0.0973
 4491TIP3   OH235107   4.368   0.473   1.740 -0.2907 -0.6210 -0.0807
 4491TIP3    H135108   4.308   0.492   1.811 -0.2352 -0.5059 -0.0642
 4491TIP3    H235109   4.405   0.558   1.716 -0.2988 -0.6607 -0.2364
 4492TIP3   OH235110   5.313   5.408   0.177  1.0058 -0.7016 -0.1151
 4492TIP3    H135111   5.361   5.489   0.160 -1.4151  1.5358  2.5319
 4492TIP3    H235112   5.248   5.403   0.107  1.1761 -0.3877 -0.2962
 4493TIP3   OH235113   5.840   2.929   7.400  0.3630 -0.0654  0.1592
 4493TIP3    H135114   5.816   3.016   7.368  0.0360  0.4410  1.6650
 4493TIP3    H235115   5.908   2.946   7.465  3.2794 -1.2996 -2.3707
 4494TIP3   OH235116   0.035   5.007   7.990 -0.1208  0.3127  0.1047
 4494TIP3    H135117   0.044   4.928   7.936 -1.9935 -1.4284  2.1644
 4494TIP3    H235118  -0.047   5.047   7.960 -0.0687  0.5166  0.2330
 4495TIP3   OH235119   1.478   4.478   8.718  0.4696  0.0931  0.2959
 4495TIP3    H135120   1.524   4.464   8.636 -0.7029 -0.4036 -0.3041
 4495TIP3    H235121   1.385   4.477   8.694  0.0888 -0.4867  1.6772
 4496TIP3   OH235122   1.907   0.507   2.221  0.4383  0.1589 -0.1776
 4496TIP3    H135123   1.881   0.465   2.303 -0.6589 -1.0977 -1.1219
 4496TIP3    H235124   1.893   0.601   2.236  1.2726  0.0630  1.4039
 4497TIP3   OH235125   4.394   1.851   1.187  0.8664  0.4969 -0.2367
 4497TIP3    H135126   4.323   1.846   1.250  3.1731 -1.1315  2.4883
 4497TIP3    H235127   4.377   1.780   1.125 -1.6633  2.3891 -1.9000
 4498TIP3   OH235128   2.162   6.101   9.077  0.1077 -0.0562 -0.1875
 4498TIP3    H135129   2.072   6.071   9.068  0.3745 -0.9971  0.2264
 4498TIP3    H235130   2.199   6.090   8.989  0.0819 -0.5397 -0.1397
 4499TIP3   OH235131   2.545   5.751   1.555 -0.4110  0.4403  0.2219
 4499TIP3    H135132   2.529   5.717   1.467 -2.8701  1.8873  0.0335
 4499TIP3    H235133   2.524   5.679   1.613  1.0228 -0.4574 -0.3300
 4500TIP3   OH235134   0.059   5.350   0.611 -0.0088  0.4473  0.0380
 4500TIP3    H135135   0.116   5.274   0.609 -2.7963 -1.8871  1.4612
 4500TIP3    H235136  -0.011   5.330   0.550 -0.1232  2.5689 -0.6197
 4501TIP3   OH235137   5.827   4.485   8.648  0.8848  0.1958  0.2214
 4501TIP3    H135138   5.836   4.574   8.614  1.3922  0.2911  0.5853
 4501TIP3    H235139   5.916   4.450   8.646  1.0497  0.4157  2.0057
 4502TIP3   OH235140   2.569   3.436   8.628 -0.2135  0.7165  0.2890
 4502TIP3    H135141   2.522   3.419   8.547  1.4396  1.0020 -0.7913
 4502TIP3    H235142   2.591   3.349   8.662  2.7587  0.4631 -1.8902
 4503TIP3   OH235143   2.877   2.352   0.596  0.6767  0.6979  0.1289
 4503TIP3    H135144   2.949   2.318   0.543  0.2437 -0.4841  0.2888
 4503TIP3    H235145   2.830   2.275   0.628  0.5472  1.3878  1.7289
 4504TIP3   OH235146   1.706   6.482   7.943  0.5363 -0.0396  0.0478
 4504TIP3    H135147   1.799   6.470   7.920  0.4493 -0.7065  0.0262
 4504TIP3    H235148   1.708   6.532   8.025  0.9440 -0.6699  0.4379
 4505TIP3   OH235149   4.390   1.158   0.411 -0.2592  0.5963  0.5079
 4505TIP3    H135150   4.302   1.184   0.384 -0.1976 -0.0698 -0.3851
 4505TIP3    H235151   4.382   1.067   0.439  0.1443  0.5336  0.4342
 4506TIP3   OH235152   1.377   2.143   2.938 -0.3028  0.0866  0.1865
 4506TIP3    H135153   1.347   2.229   2.910  0.6915  0.2498 -0.3931
 4506TIP3    H235154   1.387   2.151   3.033 -0.6270  0.4754  0.1915
 4507TIP3   OH235155   5.470   0.064   7.199 -0.1446 -0.5572  0.2789
 4507TIP3    H135156   5.491   0.124   7.271  0.7683 -1.1982  0.5654
 4507TIP3    H235157   5.413  -0.002   7.238 -0.3233 -0.4439  0.2102
 4508TIP3   OH235158   4.817   4.146   8.614  0.9767 -0.8034  0.0420
 4508TIP3    H135159   4.744   4.085   8.620 -0.6670  1.1298  0.5140
 4508TIP3    H235160   4.839   4.147   8.521 -0.7617 -0.1641 -0.4046
 4509TIP3   OH235161   1.554   0.557   0.177  0.2220 -0.3377  0.4967
 4509TIP3    H135162   1.632   0.544   0.123  0.3221  1.7614  0.0497
 4509TIP3    H235163   1.575   0.632   0.233 -1.1912 -0.2119  0.9098
 4510TIP3   OH235164   0.141   5.256   0.267 -0.5688  0.5033  0.0998
 4510TIP3    H135165   0.076   5.265   0.197  0.0705  0.9709 -0.4490
 4510TIP3    H235166   0.122   5.171   0.306  0.0674 -0.5097 -1.6982
 4511TIP3   OH235167   1.525   2.571   7.578  0.4592  0.5408  0.1376
 4511TIP3    H135168   1.517   2.485   7.619  0.3233  1.1591  1.4293
 4511TIP3    H235169   1.473   2.563   7.498 -1.2001  0.0018  1.2159
 4512TIP3   OH235170   0.828   2.090   8.585  0.6227 -0.2519 -0.0734
 4512TIP3    H135171   0.907   2.137   8.559  1.1840 -1.6532 -1.0123
 4512TIP3    H235172   0.845   2.062   8.675  0.3033  1.2186  0.4803
 4513TIP3   OH235173   3.735   0.211   8.638 -0.8124  0.0982  0.6210
 4513TIP3    H135174   3.830   0.224   8.637 -0.6635 -0.9721 -0.6298
 4513TIP3    H235175   3.701   0.294   8.673  0.4740  1.2805 -0.7631
 4514TIP3   OH235176   4.237   3.151   1.677 -0.3976 -0.3956  0.3395
 4514TIP3    H135177   4.263   3.119   1.764 -1.0637  0.6304  0.9375
 4514TIP3    H235178   4.309   3.207   1.650  0.2434 -1.4563 -0.2032
 4515TIP3   OH235179   1.641   3.823   9.001  0.2618 -0.2794  0.2139
 4515TIP3    H135180   1.691   3.846   8.923 -0.7677 -1.3224 -0.7965
 4515TIP3    H235181   1.679   3.740   9.031  0.7486  0.1877  0.9233
 4516TIP3   OH235182   4.637   0.022   0.598  0.0627  0.4797  0.0301
 4516TIP3    H135183   4.545  -0.002   0.607  0.1849 -0.1747 -0.4374
 4516TIP3    H235184   4.635   0.118   0.588 -0.3639  0.7977  2.5735
 4517TIP3   OH235185   5.379   5.729   0.745 -0.1649 -0.0201 -0.0058
 4517TIP3    H135186   5.458   5.777   0.768 -0.8698  0.6047  1.2108
 4517TIP3    H235187   5.353   5.685   0.826 -0.7742 -0.6458 -0.5259
 4518TIP3   OH235188   5.079   1.523   8.240  0.2870 -0.1445  0.1530
 4518TIP3    H135189   5.148   1.553   8.299 -1.3389  1.2649  1.4773
 4518TIP3    H235190   5.113   1.539   8.152  1.7406  0.2378  0.7510
 4519TIP3   OH235191   3.181   2.956   1.815 -0.1949  0.1520  0.1271
 4519TIP3    H135192   3.126   2.888   1.854 -0.0822  1.2484  2.3749
 4519TIP3    H235193   3.224   2.913   1.741 -0.8958 -1.9078  0.8497
 4520TIP3   OH235194   3.940   3.252   7.434  0.0492 -0.0950  0.4083
 4520TIP3    H135195   3.846   3.270   7.430  0.0689  0.0419 -3.8741
 4520TIP3    H235196   3.979   3.319   7.379  2.2374 -2.2467 -0.8158
 4521TIP3   OH235197   0.825   4.049   1.395 -0.0847 -0.2499 -0.0165
 4521TIP3    H135198   0.751   4.039   1.336  1.2581 -1.1947 -1.6550
 4521TIP3    H235199   0.853   3.959   1.414  1.1305  0.0710 -0.1457
 4522TIP3   OH235200   4.590   3.272   0.060  0.2908 -0.2433  0.1274
 4522TIP3    H135201   4.660   3.318   0.013  0.7828  0.5576  1.5755
 4522TIP3    H235202   4.513   3.326   0.048 -0.5981 -1.8943 -2.7826
 4523TIP3   OH235203   0.145   2.283   8.051  0.3711 -0.1620  0.0128
 4523TIP3    H135204   0.193   2.246   7.978 -0.1451 -0.5532 -0.1344
 4523TIP3    H235205   0.065   2.319   8.012 -0.2136 -0.9471  0.4610
 4524TIP3   OH235206   6.586   0.076   9.170  0.3848 -0.2154  0.4041
 4524TIP3    H135207   6.617   0.127   9.245 -0.8891 -0.8299  1.3910
 4524TIP3    H235208   6.665   0.037   9.133  0.9468 -0.6597  2.0100
 4525TIP3   OH235209   2.061   0.264   8.217 -0.6129  0.1751  0.1252
 4525TIP3    H135210   2.017   0.190   8.258 -1.6778  1.1119  0.7555
 4525TIP3    H235211   2.150   0.260   8.250 -0.7573 -0.6081  0.4404
 4526TIP3   OH235212   0.638   6.340   2.103  0.3955 -0.0987  0.3623
 4526TIP3    H135213   0.724   6.328   2.064  0.1898  0.1129 -0.1666
 4526TIP3    H235214   0.645   6.420   2.154  0.4702  0.0019  0.1935
 4527TIP3   OH235215   2.722   2.340   1.363 -0.9422 -0.3575  0.5326
 4527TIP3    H135216   2.810   2.364   1.335 -1.8280  0.7881 -1.5235
 4527TIP3    H235217   2.733   2.310   1.453  1.5728 -0.5387  0.2485
 4528TIP3   OH235218   3.469   3.635   1.492 -0.0679 -0.0108 -0.6085
 4528TIP3    H135219   3.412   3.591   1.429 -0.8481 -0.2110  0.2166
 4528TIP3    H235220   3.513   3.703   1.442  0.3139 -0.9994 -1.6612
 4529TIP3   OH235221   3.937   1.585   2.704  0.3344  0.3809  0.0919
 4529TIP3    H135222   3.995   1.590   2.780 -0.9826  0.5761  1.1132
 4529TIP3    H235223   3.849   1.580   2.741 -0.3388  0.4933 -1.4263
 4530TIP3   OH235224   1.122   5.276   2.298  0.7016 -0.5444 -0.1688
 4530TIP3    H135225   1.076   5.355   2.269  1.5024 -0.0210 -0.0507
 4530TIP3    H235226   1.073   5.246   2.374  0.8887  0.3475  0.3157
 4531TIP3   OH235227   5.415   6.139   2.097  0.4642 -0.5637  0.0947
 4531TIP3    H135228   5.466   6.135   2.016 -0.3279 -2.0257 -0.3753
 4531TIP3    H235229   5.456   6.074   2.155  1.4887  0.9983  1.1817
 4532TIP3   OH235230   1.823   0.063   2.065 -0.1366 -0.4508  0.7257
 4532TIP3    H135231   1.871  -0.017   2.044 -1.3908 -1.5319  1.6959
 4532TIP3    H235232   1.866   0.132   2.015  0.4718 -1.8741 -0.8033
 4533TIP3   OH235233   4.688   0.537   1.130 -0.8542  0.1742  0.3173
 4533TIP3    H135234   4.648   0.569   1.211  0.7042 -0.5796  1.4461
 4533TIP3    H235235   4.763   0.595   1.116 -0.4048 -0.4514  0.1038
 4534TIP3   OH235236   5.772   3.627   8.738 -0.1633  0.1521 -0.4292
 4534TIP3    H135237   5.783   3.698   8.676  1.1955 -0.6218 -1.1124
 4534TIP3    H235238   5.858   3.585   8.742 -0.3000 -0.0340  1.7220
 4535TIP3   OH235239   1.033   0.468   7.442 -0.1638 -0.0488  0.0580
 4535TIP3    H135240   0.958   0.526   7.429 -0.9153 -1.1391 -0.6524
 4535TIP3    H235241   0.994   0.382   7.459  0.8970 -0.8576 -1.3785
 4536TIP3   OH235242   2.302   2.718   2.928  0.3383  0.0390 -0.2254
 4536TIP3    H135243   2.334   2.805   2.954 -0.4333  0.5370 -0.8901
 4536TIP3    H235244   2.372   2.683   2.874  2.1208 -1.1431  2.5913
 4537TIP3   OH235245   2.392   4.468   2.198 -0.2086 -0.1973  0.5482
 4537TIP3    H135246   2.333   4.392   2.203 -1.0199  0.4669  1.4567
 4537TIP3    H235247   2.363   4.525   2.268 -3.2786  3.5523 -3.2202
 4538TIP3   OH235248   2.686   0.318   0.037  0.4692 -0.1353 -0.3904
 4538TIP3    H135249   2.622   0.387   0.053  0.1586 -0.3882 -0.5447
 4538TIP3    H235250   2.765   0.348   0.083  0.6537  0.8092 -1.2759
 4539TIP3   OH235251   0.269   1.873   2.372 -0.2051  0.3044  0.0597
 4539TIP3    H135252   0.241   1.878   2.280  1.8420  1.4282 -0.5718
 4539TIP3    H235253   0.238   1.956   2.410 -0.0113  0.3787  0.0562
 4540TIP3   OH235254   5.203   1.855   1.522 -0.2073 -0.2315  0.0514
 4540TIP3    H135255   5.157   1.813   1.595  1.0456  1.7491  2.1541
 4540TIP3    H235256   5.286   1.884   1.560  0.2619  1.4134 -2.0236
 4541TIP3   OH235257   6.327   6.214   0.458 -0.4346 -0.1292 -0.3724
 4541TIP3    H135258   6.242   6.243   0.425 -0.3691 -0.3077 -0.7047
 4541TIP3    H235259   6.385   6.289   0.443 -0.4433 -0.1509 -0.5201
 4542TIP3   OH235260   2.475   4.202   2.034 -0.0813  0.2780  0.0074
 4542TIP3    H135261   2.524   4.277   2.069  0.4133  0.4303 -0.9899
 4542TIP3    H235262   2.409   4.184   2.102  0.5163  0.8876  0.7817
 4543TIP3   OH235263   1.533   1.874   1.739 -0.1672  0.0168 -0.0332
 4543TIP3    H135264   1.479   1.795   1.734  0.5357 -0.9101  3.7853
 4543TIP3    H235265   1.615   1.845   1.779 -0.2186  2.7149  2.3643
 4544TIP3   OH235266   2.243   4.007   8.375  0.0788 -0.5557 -0.4507
 4544TIP3    H135267   2.197   4.009   8.291  0.6038 -0.4980 -0.7418
 4544TIP3    H235268   2.334   3.991   8.351  0.2126 -0.6394  0.1177
 4545TIP3   OH235269   0.535   1.817   1.500  0.2436 -0.0711  0.1971
 4545TIP3    H135270   0.591   1.888   1.468 -0.7049  0.4947 -0.2348
 4545TIP3    H235271   0.454   1.825   1.450  0.1155 -1.4741  0.1356
 4546TIP3   OH235272   4.597   0.231   7.037 -0.3604 -0.3221 -0.2326
 4546TIP3    H135273   4.684   0.192   7.042 -0.4943 -0.5148  1.1120
 4546TIP3    H235274   4.548   0.174   6.978  0.2236 -0.6154 -0.4402
 4547TIP3   OH235275   5.019   2.146   1.423 -0.4073  0.3101  0.0695
 4547TIP3    H135276   5.027   2.058   1.387  0.8968  0.0118  1.0218
 4547TIP3    H235277   5.001   2.133   1.516 -1.4983  1.0619 -0.0132
 4548TIP3   OH235278   4.489   2.855   1.457 -0.5737 -0.3245 -0.4374
 4548TIP3    H135279   4.473   2.871   1.550 -0.9949 -2.4230 -0.1166
 4548TIP3    H235280   4.476   2.941   1.416  0.5500  0.8672  1.5316
 4549TIP3   OH235281   3.913   2.104   7.369  0.3789 -0.4425  0.1941
 4549TIP3    H135282   3.881   2.023   7.408 -1.9083 -0.1581 -0.8898
 4549TIP3    H235283   3.899   2.092   7.275  2.5278  0.2035 -0.2507
 4550TIP3   OH235284   2.062   5.115   1.166  0.5355  0.2732  0.6983
 4550TIP3    H135285   2.032   5.146   1.081  0.2465  1.3510  1.1721
 4550TIP3    H235286   2.091   5.025   1.150  0.0301  0.2900 -0.4279
 4551TIP3   OH235287   2.418   5.146   0.343 -0.2469  0.2448 -0.3421
 4551TIP3    H135288   2.496   5.093   0.361  0.8919  2.1915  0.7685
 4551TIP3    H235289   2.348   5.082   0.331  1.3583 -1.5475 -0.6714
 4552TIP3   OH235290   3.069   5.882   7.836 -0.2959  0.0177  0.0587
 4552TIP3    H135291   3.071   5.804   7.890 -0.4520  0.2201  0.3589
 4552TIP3    H235292   2.977   5.891   7.809 -0.2280 -0.0573 -0.2087
 4553TIP3   OH235293   3.722   2.224   9.196 -0.4314 -0.0170 -0.0639
 4553TIP3    H135294   3.684   2.197   9.280  2.4510  0.1725  1.4049
 4553TIP3    H235295   3.806   2.179   9.192  0.1126  1.0536 -2.2625
 4554TIP3   OH235296   6.463   6.570   2.760  0.0058  0.4687  0.1001
 4554TIP3    H135297   6.487   6.478   2.773  0.5286  0.6429  0.3918
 4554TIP3    H235298   6.435   6.575   2.668  0.2509  0.0801  0.0045
 4555TIP3   OH235299   5.435   1.337   1.453  0.1881 -0.3968 -0.3667
 4555TIP3    H135300   5.344   1.359   1.436  0.1510  0.4505  0.7975
 4555TIP3    H235301   5.470   1.414   1.500  1.3891 -0.8610 -0.4633
 4556TIP3   OH235302   5.922   1.812   9.172 -0.0828  0.6308 -0.1468
 4556TIP3    H135303   5.967   1.797   9.256  0.8536 -1.7236 -0.9754
 4556TIP3    H235304   5.829   1.808   9.193  0.1442 -0.1600  0.7601
 4557TIP3   OH235305   1.369   2.790   1.611 -0.1335  0.1476 -0.8207
 4557TIP3    H135306   1.347   2.699   1.588  0.2985  0.8376 -4.4276
 4557TIP3    H235307   1.321   2.805   1.693 -1.9408 -2.6629 -1.1979
 4558TIP3   OH235308   1.603   3.866   7.228 -0.3875 -0.0110  0.0799
 4558TIP3    H135309   1.675   3.923   7.199  0.8898 -0.2111  2.5440
 4558TIP3    H235310   1.638   3.821   7.305 -2.6157 -1.3948  0.3728
 4559TIP3   OH235311   4.152   1.724   2.543  0.0980 -0.0330 -0.5334
 4559TIP3    H135312   4.079   1.677   2.585 -0.9458  1.9671  0.0078
 4559TIP3    H235313   4.223   1.660   2.540 -0.8565 -1.2709  1.2931
 4560TIP3   OH235314   4.624   5.112   2.195  0.2226 -0.2806 -0.4023
 4560TIP3    H135315   4.533   5.129   2.220 -0.2411 -0.2042 -2.0198
 4560TIP3    H235316   4.625   5.020   2.170  0.7602 -0.4601  0.2527
 4561TIP3   OH235317   6.170   2.028   8.483  0.3620 -0.1206  0.5481
 4561TIP3    H135318   6.164   2.040   8.389  2.9623 -1.3618  0.1347
 4561TIP3    H235319   6.147   1.936   8.497 -3.0245  0.7427  1.5987
 4562TIP3   OH235320   4.815   3.470   9.191  0.2270  0.5598 -0.2772
 4562TIP3    H135321   4.900   3.466   9.235  0.6318  1.8976 -0.8854
 4562TIP3    H235322   4.827   3.534   9.121 -0.8864 -0.2897 -1.2796
 4563TIP3   OH235323   3.900   3.854   1.002  0.1722 -0.3282 -0.2677
 4563TIP3    H135324   3.825   3.868   1.058  0.0546 -2.7842  0.2996
 4563TIP3    H235325   3.976   3.868   1.058  0.0779 -0.8552 -0.0029
 4564TIP3   OH235326   1.450   4.542   0.543  0.1821  0.3195  0.2331
 4564TIP3    H135327   1.476   4.465   0.492  0.1527  0.3931  0.1057
 4564TIP3    H235328   1.456   4.514   0.634  0.3670  0.2266  0.1931
 4565TIP3   OH235329   1.354   2.856   0.292  0.5300  0.1445  0.0661
 4565TIP3    H135330   1.410   2.908   0.350 -0.2021 -0.2547  1.1421
 4565TIP3    H235331   1.396   2.770   0.288 -0.5893 -0.5443  1.8488
 4566TIP3   OH235332   6.333   1.150   0.910  0.2213  0.4097 -0.4868
 4566TIP3    H135333   6.250   1.186   0.941  0.4839  0.4171  0.2346
 4566TIP3    H235334   6.399   1.192   0.966  0.4997 -1.5890  0.7826
 4567TIP3   OH235335   3.952   6.076   7.097  0.1075  0.4332 -0.0939
 4567TIP3    H135336   4.026   6.131   7.071  0.3714  0.5060  0.7957
 4567TIP3    H235337   3.959   6.069   7.192 -0.2047 -0.7418 -0.1424
 4568TIP3   OH235338   5.109   6.562   8.076  0.7248 -0.7349  0.4451
 4568TIP3    H135339   5.085   6.524   8.161  0.0494 -0.0810  0.5563
 4568TIP3    H235340   5.182   6.507   8.045  1.5869 -0.4362  1.8652
 4569TIP3   OH235341   0.054   0.120   2.525  0.5732 -0.2946 -0.3202
 4569TIP3    H135342   0.055   0.035   2.481  1.5057 -0.0689 -0.7348
 4569TIP3    H235343  -0.033   0.156   2.505  2.1720  1.5828 -5.4265
 4570TIP3   OH235344   2.192   2.221   7.788 -0.5502 -0.2170 -0.5717
 4570TIP3    H135345   2.147   2.301   7.762 -0.3252  0.1931  0.2841
 4570TIP3    H235346   2.285   2.239   7.771 -0.5478 -0.4709 -0.8294
 4571TIP3   OH235347   1.998   2.405   7.679  0.0567  0.0997 -0.3810
 4571TIP3    H135348   2.030   2.482   7.632 -0.4037  0.2428 -0.4568
 4571TIP3    H235349   1.961   2.348   7.611 -0.6928  0.3470 -0.1893
 4572TIP3   OH235350   4.781   0.178   2.050  0.3056 -0.2635  0.0901
 4572TIP3    H135351   4.824   0.257   2.019 -0.0239 -0.0970  0.0501
 4572TIP3    H235352   4.805   0.171   2.142  2.0043 -1.2301 -0.3855
 4573TIP3   OH235353   0.276   0.498   7.835  0.3224  0.3022 -0.2284
 4573TIP3    H135354   0.224   0.479   7.913  1.1233  1.0526  0.5096
 4573TIP3    H235355   0.346   0.434   7.836  1.2441  1.2745  0.5697
 4574TIP3   OH235356   3.677   3.994   0.304  0.4157  0.2432  0.1761
 4574TIP3    H135357   3.652   3.903   0.284 -1.1667  0.9819 -1.4594
 4574TIP3    H235358   3.697   3.993   0.397  0.5429 -1.8107  0.1832
 4575TIP3   OH235359   1.027   2.377   2.041  0.6343  0.2145  0.4124
 4575TIP3    H135360   1.075   2.426   2.107  0.2248  2.7298 -1.0401
 4575TIP3    H235361   0.948   2.428   2.025 -0.3244 -1.4637 -0.4980
 4576TIP3   OH235362   5.311   3.389   8.645  0.0552  0.6828  0.5282
 4576TIP3    H135363   5.396   3.425   8.669  1.3254 -1.5349 -0.4267
 4576TIP3    H235364   5.295   3.320   8.709 -1.1208  1.1515  0.7735
 4577TIP3   OH235365   4.576   4.795   2.504 -0.1305 -0.2559 -0.3505
 4577TIP3    H135366   4.613   4.883   2.504  3.2251 -1.4568  1.4879
 4577TIP3    H235367   4.632   4.746   2.443  1.5656 -2.1818  2.5359
 4578TIP3   OH235368   0.269   2.799   2.183  0.1776 -0.0556 -0.0355
 4578TIP3    H135369   0.283   2.745   2.106  1.7848  0.4505 -0.1241
 4578TIP3    H235370   0.174   2.813   2.185  0.0547 -0.4970 -1.6085
 4579TIP3   OH235371   1.407   4.628   2.966  0.1620 -0.1731  0.3135
 4579TIP3    H135372   1.385   4.712   3.006  0.3535 -0.9272  2.1055
 4579TIP3    H235373   1.438   4.650   2.878 -1.4607  1.4601  0.0957
 4580TIP3   OH235374   3.104   5.511   8.989  0.0134 -0.4807  0.2433
 4580TIP3    H135375   3.148   5.545   9.066 -1.2498 -0.3053  0.9243
 4580TIP3    H235376   3.142   5.424   8.975  3.1464  0.9963 -1.4121
 4581TIP3   OH235377   5.215   4.301   8.189 -0.3833  0.3951  0.6141
 4581TIP3    H135378   5.257   4.340   8.266  1.3672  1.5300 -0.8275
 4581TIP3    H235379   5.207   4.208   8.211  1.1041  0.4934  1.7579
 4582TIP3   OH235380   5.005   1.570   0.160 -0.4624 -0.3382 -0.2260
 4582TIP3    H135381   4.921   1.559   0.117 -1.6448  2.8347  0.8969
 4582TIP3    H235382   4.985   1.564   0.254  0.1497  1.9513  0.1279
 4583TIP3   OH235383   4.975   2.536   7.098 -0.0000  0.0722  0.3906
 4583TIP3    H135384   4.949   2.607   7.157  1.0395  0.9430 -0.1625
 4583TIP3    H235385   4.971   2.457   7.153  0.6339  0.8148  1.5592
 4584TIP3   OH235386   2.599   0.967   1.938 -0.2893 -0.5671  0.2695
 4584TIP3    H135387   2.647   1.049   1.946 -0.9775  0.2978 -2.8397
 4584TIP3    H235388   2.639   0.909   2.002  2.0614  1.3557  0.7021
 4585TIP3   OH235389   1.833   6.307   8.790  1.0118  0.9116 -0.9680
 4585TIP3    H135390   1.793   6.387   8.756 -1.0826 -0.0173 -0.8020
 4585TIP3    H235391   1.810   6.306   8.882 -0.7794 -0.8519 -1.3722
 4586TIP3   OH235392   3.518   1.781   0.326 -0.2951 -0.3841  0.1285
 4586TIP3    H135393   3.534   1.713   0.260  0.5042  0.4576 -0.5704
 4586TIP3    H235394   3.432   1.760   0.362 -0.4251 -1.2744 -0.6711
 4587TIP3   OH235395   3.937   4.236   8.991 -0.3767  0.2450  0.2698
 4587TIP3    H135396   3.892   4.255   9.074 -2.2117  1.7737 -0.9811
 4587TIP3    H235397   4.012   4.296   8.990 -0.9085  0.9246  0.4016
 4588TIP3   OH235398   6.179   2.162   0.279  0.2324 -0.2200 -0.3090
 4588TIP3    H135399   6.240   2.129   0.345 -0.0097 -0.0317  0.0141
 4588TIP3    H235400   6.167   2.089   0.218  0.5389 -0.3602 -0.2045
 4589TIP3   OH235401   1.501   1.234   2.951 -0.0936 -0.2477  0.0193
 4589TIP3    H135402   1.455   1.198   2.875  0.6877  1.2617 -1.2565
 4589TIP3    H235403   1.503   1.328   2.934  0.3155  0.0947  1.8259
 4590TIP3   OH235404   6.160   5.414   2.764 -0.0166 -0.1047  0.5120
 4590TIP3    H135405   6.169   5.508   2.777 -0.6694  0.0515 -0.0763
 4590TIP3    H235406   6.216   5.375   2.831  1.6667  0.7147 -0.3514
 4591TIP3   OH235407   0.556   0.243   0.280 -0.4889 -0.7949  0.0059
 4591TIP3    H135408   0.613   0.174   0.315  0.0923 -0.1683  0.3315
 4591TIP3    H235409   0.616   0.306   0.242 -0.7689  0.9164  2.1913
 4592TIP3   OH235410   1.656   0.254   3.349 -0.0599  0.9250  0.2066
 4592TIP3    H135411   1.562   0.246   3.335 -0.0446 -1.1673  0.8881
 4592TIP3    H235412   1.665   0.279   3.441  0.0486  1.1887  0.1247
 4593TIP3   OH235413   0.224   2.103   8.877  0.0157  0.2912  0.0711
 4593TIP3    H135414   0.160   2.079   8.810  0.4589 -1.7616  0.3180
 4593TIP3    H235415   0.194   2.058   8.956  1.2695 -0.0313  0.3971
 4594TIP3   OH235416   2.268   0.387   0.925 -0.2505 -0.5289 -0.0913
 4594TIP3    H135417   2.218   0.375   1.006 -1.2172  1.8622 -0.2426
 4594TIP3    H235418   2.213   0.349   0.857 -0.8982  0.1473  0.0290
 4595TIP3   OH235419   0.774   1.278   2.549 -0.3703 -0.4443  0.4086
 4595TIP3    H135420   0.685   1.246   2.564 -0.7946  0.1644 -0.6897
 4595TIP3    H235421   0.762   1.366   2.514  0.6636 -0.3778  0.1866
 4596TIP3   OH235422   2.034   2.935   0.406 -0.4320 -0.3264 -0.1710
 4596TIP3    H135423   2.046   2.850   0.449  1.4283  0.0027  0.0247
 4596TIP3    H235424   2.064   2.920   0.316 -0.8051 -0.0517 -0.3442
 4597TIP3   OH235425   2.862   1.741   0.250  0.8075 -0.2851  0.5087
 4597TIP3    H135426   2.886   1.649   0.244  0.8301 -0.2961  0.7601
 4597TIP3    H235427   2.766   1.741   0.254  0.6256 -0.1616 -2.1031
 4598TIP3   OH235428   3.593   3.518   2.459 -0.8712  0.6811 -0.8032
 4598TIP3    H135429   3.569   3.501   2.550  0.1007  0.8527 -0.5080
 4598TIP3    H235430   3.509   3.533   2.415 -1.4389 -0.5192 -0.1804
 4599TIP3   OH235431   0.487   4.959   8.718 -0.0575 -0.3254  0.0914
 4599TIP3    H135432   0.442   5.032   8.759 -1.6890 -0.4298 -1.3426
 4599TIP3    H235433   0.493   4.893   8.786 -2.2423 -0.3225  0.3731
 4600TIP3   OH235434   6.078   0.787   3.318 -0.3438 -0.0582 -0.0403
 4600TIP3    H135435   6.003   0.832   3.356  0.3597  2.0216 -0.9297
 4600TIP3    H235436   6.145   0.855   3.311  1.4136 -1.6733  0.0955
 4601TIP3   OH235437   4.915   2.489   7.570  0.1531  1.0725  0.6106
 4601TIP3    H135438   4.836   2.503   7.519  0.8929 -0.6364 -1.1431
 4601TIP3    H235439   4.946   2.577   7.592  0.0205  1.9627 -2.3302
 4602TIP3   OH235440   1.044   0.708   7.137 -0.3898  0.0220  0.7699
 4602TIP3    H135441   1.124   0.659   7.158  0.2044  0.3840 -0.5182
 4602TIP3    H235442   0.990   0.645   7.089  0.4814  0.6393 -1.1096
 4603TIP3   OH235443   4.377   2.060   8.894  0.2120 -0.2536 -0.0156
 4603TIP3    H135444   4.442   1.992   8.910 -0.2812 -0.5711  0.6599
 4603TIP3    H235445   4.391   2.085   8.802  0.5683 -1.0749 -0.1906
 4604TIP3   OH235446   5.782   2.092   9.108 -0.6623 -0.5965 -0.1628
 4604TIP3    H135447   5.721   2.039   9.055 -0.7284 -0.3133 -0.3749
 4604TIP3    H235448   5.788   2.046   9.192 -1.8057 -0.2056  0.1540
 4605TIP3   OH235449   0.711   1.985   2.319  0.2871 -0.1490 -0.4573
 4605TIP3    H135450   0.718   2.039   2.241  0.1938 -0.5619 -0.7537
 4605TIP3    H235451   0.783   1.922   2.312 -0.5312 -1.0633 -0.9076
 4606TIP3   OH235452   4.200   6.224   1.608 -0.1604  0.5560 -0.2036
 4606TIP3    H135453   4.254   6.198   1.533 -0.6769  0.3333 -0.5035
 4606TIP3    H235454   4.230   6.312   1.630  0.7329  0.2124  0.0098
 4607TIP3   OH235455   1.391   5.429   8.709  0.2003 -0.6072 -0.1842
 4607TIP3    H135456   1.360   5.339   8.710  1.8814 -1.2214  1.1711
 4607TIP3    H235457   1.477   5.426   8.750  0.2117  1.6426  0.1180
 4608TIP3   OH235458   2.444   1.065   0.485 -0.4982 -0.0674 -0.3740
 4608TIP3    H135459   2.421   1.070   0.392 -0.4709 -0.7757 -0.4222
 4608TIP3    H235460   2.513   1.000   0.490 -0.1648  0.3109  0.0906
 4609TIP3   OH235461   2.569   4.616   1.217 -0.3664 -0.3262  0.4795
 4609TIP3    H135462   2.609   4.701   1.199 -0.9363 -0.4150 -1.3844
 4609TIP3    H235463   2.642   4.555   1.215 -0.3951 -0.3936 -2.2193
 4610TIP3   OH235464   6.169   3.969   7.011  0.2289  0.0502  0.5038
 4610TIP3    H135465   6.212   3.888   7.041  0.5475  0.5251  1.3651
 4610TIP3    H235466   6.220   4.039   7.051  1.0240  0.7685 -1.6066
 4611TIP3   OH235467   5.296   1.235   2.665 -0.0202  1.1358  0.0027
 4611TIP3    H135468   5.349   1.230   2.745 -1.0137  0.7754  0.6732
 4611TIP3    H235469   5.287   1.144   2.637 -0.4318  1.1738  0.0054
 4612TIP3   OH235470   3.218   3.535   0.307  0.1100  0.1433  0.0982
 4612TIP3    H135471   3.288   3.487   0.262  1.4103  2.3268 -0.3183
 4612TIP3    H235472   3.258   3.567   0.387 -0.2522  1.7900 -0.3429
 4613TIP3   OH235473   0.554   0.115   9.203  0.1923 -0.2893  0.0404
 4613TIP3    H135474   0.530   0.150   9.288 -0.6031 -0.7753  0.0243
 4613TIP3    H235475   0.541   0.021   9.211 -1.3568 -0.2146 -1.0528
 4614TIP3   OH235476   4.815   5.525   1.659 -0.4138  0.0766 -0.5905
 4614TIP3    H135477   4.849   5.521   1.748 -1.0246 -0.3996 -0.3706
 4614TIP3    H235478   4.775   5.611   1.652 -0.6860 -0.0218 -0.2764
 4615TIP3   OH235479   1.352   0.519   2.661 -0.0091  0.4513 -0.4330
 4615TIP3    H135480   1.276   0.469   2.692  1.0587 -0.9515  0.0357
 4615TIP3    H235481   1.363   0.589   2.726 -1.2645  1.0642 -0.8577
 4616TIP3   OH235482   6.197   5.305   2.521  0.1411 -0.2893 -0.3257
 4616TIP3    H135483   6.160   5.347   2.599  0.1524 -1.3420  0.2728
 4616TIP3    H235484   6.292   5.315   2.532  0.3851 -3.1350  1.5004
 4617TIP3   OH235485   3.495   4.887   0.162 -0.3989  0.2585  0.0548
 4617TIP3    H135486   3.527   4.879   0.252 -1.2298 -3.6071  0.1868
 4617TIP3    H235487   3.416   4.940   0.170  0.7329  1.8644  1.1970
 4618TIP3   OH235488   2.596   3.573   0.491 -0.6014  0.2190  0.2273
 4618TIP3    H135489   2.596   3.657   0.537  0.1493  0.7001 -0.6388
 4618TIP3    H235490   2.688   3.549   0.485 -0.7758 -0.3948 -0.0248
 4619TIP3   OH235491   0.760   4.125   0.300 -0.0369  0.0597 -0.4019
 4619TIP3    H135492   0.726   4.036   0.289 -0.6085  0.0398  1.3097
 4619TIP3    H235493   0.748   4.165   0.214 -1.1156 -1.0640 -0.8121
 4620TIP3   OH235494   5.488   6.505   8.671 -0.5018 -0.2284  0.2396
 4620TIP3    H135495   5.521   6.574   8.614 -2.0816 -0.4329 -0.9840
 4620TIP3    H235496   5.482   6.428   8.614  0.1805 -1.0869  1.3008
 4621TIP3   OH235497   0.412   4.415   1.761  0.8344 -0.3220  0.4934
 4621TIP3    H135498   0.454   4.357   1.824  1.6803 -0.0214  0.2231
 4621TIP3    H235499   0.431   4.503   1.793 -2.0722 -0.1290  1.9780
 4622TIP3   OH235500   6.483   2.734   0.234 -0.7406 -0.2056 -0.1619
 4622TIP3    H135501   6.548   2.691   0.180  0.4164 -1.1481  1.8526
 4622TIP3    H235502   6.424   2.664   0.262 -0.9838  0.1532  0.2572
 4623TIP3   OH235503   4.705   0.465   8.166  0.0504  0.3773 -0.4047
 4623TIP3    H135504   4.643   0.408   8.211 -0.4942  2.0333  1.0521
 4623TIP3    H235505   4.652   0.513   8.102  0.5190 -0.7234 -1.6770
 4624TIP3   OH235506   0.465   2.897   0.149 -0.6662  0.1362 -0.1963
 4624TIP3    H135507   0.404   2.896   0.075  0.0499 -0.4291 -0.7855
 4624TIP3    H235508   0.483   2.805   0.167 -0.8393  0.2666  0.7036
 4625TIP3   OH235509   5.780   2.044   2.136  0.3071 -0.0295 -0.3732
 4625TIP3    H135510   5.722   2.014   2.206 -0.3573 -0.6146 -1.1627
 4625TIP3    H235511   5.864   2.058   2.179  0.3541 -1.9492  0.2565
 4626TIP3   OH235512   0.605   4.364   1.972 -0.1806 -0.2586  0.1425
 4626TIP3    H135513   0.630   4.403   2.056  1.9041 -1.3173  0.0785
 4626TIP3    H235514   0.650   4.417   1.906 -1.1988  0.1092 -0.2680
 4627TIP3   OH235515   2.676   6.387   1.510 -0.2187 -0.0679 -0.0944
 4627TIP3    H135516   2.690   6.326   1.438  0.3182  0.3238 -0.3228
 4627TIP3    H235517   2.761   6.394   1.553 -0.0423  1.2157 -0.6128
 4628TIP3   OH235518   5.053   4.599   0.759 -0.6105  0.0926  0.1574
 4628TIP3    H135519   5.031   4.511   0.727  1.0643 -0.2782 -0.1023
 4628TIP3    H235520   5.048   4.655   0.682 -1.8712  0.2912  0.3606
 4629TIP3   OH235521   0.335   1.082   7.423  0.5732 -0.1608 -0.0487
 4629TIP3    H135522   0.323   1.167   7.466 -0.3518  1.9090 -3.9388
 4629TIP3    H235523   0.252   1.037   7.434  0.9131 -0.4313  1.6419
 4630TIP3   OH235524   6.566   5.102   8.795 -0.0601 -0.4648 -0.0948
 4630TIP3    H135525   6.475   5.130   8.781 -0.2172 -0.2300  1.3108
 4630TIP3    H235526   6.618   5.177   8.765 -0.3899  0.1209  0.7661
 4631TIP3   OH235527   5.843   3.282   1.237 -0.0133 -0.2172 -0.3942
 4631TIP3    H135528   5.821   3.367   1.276  0.0610  0.3422 -1.5605
 4631TIP3    H235529   5.816   3.289   1.146 -1.5987 -2.0371 -0.1448
 4632TIP3   OH235530   6.279   1.219   0.261  0.6682  0.0588 -0.8713
 4632TIP3    H135531   6.361   1.211   0.212  0.8484  0.4416 -0.6363
 4632TIP3    H235532   6.256   1.128   0.282  0.8651 -0.0718 -1.2095
 4633TIP3   OH235533   4.821   4.657   1.589 -0.1828 -0.4081  0.1250
 4633TIP3    H135534   4.725   4.659   1.590 -0.3102 -0.9958 -2.6539
 4633TIP3    H235535   4.846   4.748   1.576 -0.2840 -0.1047  1.8814
 4634TIP3   OH235536   0.486   5.654   0.653 -0.1082  0.4222 -0.3253
 4634TIP3    H135537   0.430   5.579   0.672 -1.1411  1.5532  1.3675
 4634TIP3    H235538   0.450   5.692   0.573 -1.6253  0.9630  0.5859
 4635TIP3   OH235539   6.494   6.409   0.398 -0.2463 -0.1165  0.5447
 4635TIP3    H135540   6.588   6.392   0.397 -0.1444  0.4534  0.3636
 4635TIP3    H235541   6.485   6.497   0.363 -1.1526 -1.6790 -3.7729
 4636TIP3   OH235542   2.001   3.188   2.263 -0.3305 -0.1495 -0.4365
 4636TIP3    H135543   1.922   3.193   2.316 -1.2353 -1.8337 -1.5175
 4636TIP3    H235544   2.002   3.098   2.230  1.2883  0.2450 -1.5995
 4637TIP3   OH235545   5.736   6.471   7.444  0.3761  0.2196 -0.1134
 4637TIP3    H135546   5.792   6.403   7.405  1.8105  1.8267 -0.9943
 4637TIP3    H235547   5.768   6.479   7.534  0.2645 -0.2097 -0.0352
 4638TIP3   OH235548   6.283   3.046   0.390  0.4309 -0.1280 -0.2283
 4638TIP3    H135549   6.316   3.004   0.311 -0.7862 -0.5029 -0.5634
 4638TIP3    H235550   6.336   3.125   0.400  1.5805 -0.8314 -0.5791
 4639TIP3   OH235551   3.416   1.727   2.506  0.0600 -0.2081  0.2055
 4639TIP3    H135552   3.411   1.811   2.460 -0.2890  0.1669  0.9254
 4639TIP3    H235553   3.416   1.662   2.436 -1.8799  0.2830 -0.3130
 4640TIP3   OH235554   3.482   4.155   7.519  0.1352  0.1194  0.0650
 4640TIP3    H135555   3.459   4.219   7.452 -0.0684  0.3330  0.3424
 4640TIP3    H235556   3.569   4.181   7.548 -0.0924  0.4842  0.4316
 4641TIP3   OH235557   1.325   0.282   1.805  0.4720 -0.0704 -0.1916
 4641TIP3    H135558   1.336   0.344   1.877  0.4728 -0.7903  0.4365
 4641TIP3    H235559   1.412   0.277   1.765  0.0726  1.7162 -1.4240
 4642TIP3   OH235560   5.957   3.783   9.008 -0.5332  0.0820 -0.0400
 4642TIP3    H135561   6.016   3.822   8.943 -1.4442  1.0622 -0.3168
 4642TIP3    H235562   5.975   3.689   9.004  0.8314  0.3350 -0.2788
 4643TIP3   OH235563   6.684   4.939   1.679  0.2367 -0.3366 -0.4972
 4643TIP3    H135564   6.775   4.939   1.708  0.1288 -0.7795 -0.1514
 4643TIP3    H235565   6.673   5.024   1.636  0.8150 -0.2868 -0.5568
 4644TIP3   OH235566   1.989   2.915   8.722 -0.2653 -0.5220 -0.1690
 4644TIP3    H135567   1.993   2.874   8.808 -0.1072 -1.8288 -0.7690
 4644TIP3    H235568   2.080   2.938   8.701 -0.1765 -1.0042 -0.3384
 4645TIP3   OH235569   1.053   0.124   8.564  0.4241 -0.0859 -0.0016
 4645TIP3    H135570   1.055   0.143   8.470  0.1948  0.7069  0.1426
 4645TIP3    H235571   1.008   0.199   8.602 -2.0444 -1.6850  0.4506
 4646TIP3   OH235572   3.565   0.753   1.141  0.1405  0.0136 -0.1202
 4646TIP3    H135573   3.506   0.816   1.100  0.3881  0.4915  0.2451
 4646TIP3    H235574   3.521   0.669   1.132 -1.2017  0.5327  1.2826
 4647TIP3   OH235575   5.359   1.980   8.354  0.0552  0.1874 -0.1043
 4647TIP3    H135576   5.423   1.923   8.397  1.0236  0.5906 -0.9605
 4647TIP3    H235577   5.344   2.050   8.417 -3.5160 -2.4303  2.3429
 4648TIP3   OH235578   6.284   1.694   2.473 -0.0847  0.1471 -0.1853
 4648TIP3    H135579   6.310   1.708   2.564 -0.3496 -2.8839  0.4504
 4648TIP3    H235580   6.361   1.655   2.431  0.3694  2.3721 -1.6051
 4649TIP3   OH235581   1.401   3.797   8.614  0.1030 -0.1224  0.1441
 4649TIP3    H135582   1.368   3.713   8.645 -0.8158  0.9890  2.4348
 4649TIP3    H235583   1.416   3.848   8.694 -0.6355  2.3633 -1.1834
 4650TIP3   OH235584   1.452   3.761   0.909  0.2992 -0.3816 -0.1784
 4650TIP3    H135585   1.519   3.810   0.863 -0.3015  2.2208  1.4697
 4650TIP3    H235586   1.494   3.731   0.990  0.1146 -0.8110 -0.2369
 4651TIP3   OH235587   5.285   1.053   2.375  0.3460 -0.3716 -0.4252
 4651TIP3    H135588   5.245   0.966   2.369  0.2199 -0.2188 -2.6956
 4651TIP3    H235589   5.212   1.114   2.361  0.4370  0.1370  1.1247
 4652TIP3   OH235590   3.105   1.159   1.013  0.1137  0.1129 -0.2130
 4652TIP3    H135591   3.098   1.065   1.029 -0.7736  0.3469  0.8991
 4652TIP3    H235592   3.035   1.178   0.950  1.5619 -0.2682 -2.0305
 4653TIP3   OH235593   1.808   1.374   1.083 -0.3958 -0.2558 -0.4962
 4653TIP3    H135594   1.846   1.432   1.149 -2.4333  0.0203  0.5024
 4653TIP3    H235595   1.780   1.432   1.012 -2.4860  0.0823  0.5275
 4654TIP3   OH235596   0.697   2.299   9.124  0.5551  0.1992  0.4091
 4654TIP3    H135597   0.754   2.288   9.200 -0.4064  0.5243  1.2146
 4654TIP3    H235598   0.694   2.394   9.110  1.2594  0.1002 -0.4688
 4655TIP3   OH235599   0.509   0.328   0.731  0.0026 -0.9158  0.3982
 4655TIP3    H135600   0.485   0.383   0.657 -0.8733  0.0848  1.3684
 4655TIP3    H235601   0.484   0.239   0.705 -1.2088 -0.4416 -0.1432
 4656TIP3   OH235602   3.925   2.280   8.645 -0.5465 -0.1287 -0.2586
 4656TIP3    H135603   4.006   2.241   8.680  0.7419 -0.1940 -3.0595
 4656TIP3    H235604   3.865   2.205   8.636  0.6175 -0.9062 -2.1150
 4657TIP3   OH235605   1.998   2.569   1.991  0.4279  0.4022  0.4947
 4657TIP3    H135606   1.954   2.517   1.924  1.4434 -1.6874  1.3390
 4657TIP3    H235607   1.927   2.595   2.051  0.0072 -0.9669  0.6256
 4658TIP3   OH235608   4.176   2.875   1.553 -0.3714  0.0566  0.1632
 4658TIP3    H135609   4.149   2.815   1.622 -0.4341 -0.8609 -0.6249
 4658TIP3    H235610   4.220   2.947   1.598 -2.4401  0.6501  1.3332
 4659TIP3   OH235611   4.205   5.481   2.684  0.1889  0.1747 -0.6134
 4659TIP3    H135612   4.282   5.505   2.736 -0.2802 -0.2987  0.3232
 4659TIP3    H235613   4.169   5.404   2.729 -0.2200 -0.2577 -1.6602
 4660TIP3   OH235614   5.884   4.577   1.314  0.4515  1.0263  0.7431
 4660TIP3    H135615   5.796   4.584   1.275  0.5079 -2.5083 -0.3231
 4660TIP3    H235616   5.868   4.570   1.408 -0.6045 -0.9959  0.4675
 4661TIP3   OH235617   3.632   6.024   0.563 -0.2591  0.5493  0.2148
 4661TIP3    H135618   3.558   6.010   0.504 -0.0056  0.7264 -0.1540
 4661TIP3    H235619   3.695   6.074   0.511 -0.5993  1.9096  1.0755
 4662TIP3   OH235620   1.379   2.411   0.420 -0.0843 -0.4965 -0.3975
 4662TIP3    H135621   1.439   2.340   0.396  1.6321 -0.0207  2.0464
 4662TIP3    H235622   1.415   2.489   0.377  1.5145 -0.1122  1.4609
 4663TIP3   OH235623   6.048   1.677   8.978  0.4631 -0.1753  0.2399
 4663TIP3    H135624   6.011   1.717   9.057  0.7559  0.8656 -0.1295
 4663TIP3    H235625   6.018   1.733   8.906 -0.4797 -1.5645 -0.5084
 4664TIP3   OH235626   3.862   5.803   7.667 -0.2818 -0.0288  0.7128
 4664TIP3    H135627   3.854   5.844   7.581  0.5398 -3.0440 -0.9448
 4664TIP3    H235628   3.773   5.775   7.688 -0.3348 -0.1480  0.3411
 4665TIP3   OH235629   1.422   2.659   7.336  0.3524 -0.1898 -0.0570
 4665TIP3    H135630   1.329   2.669   7.317 -0.2321 -0.7636  2.1663
 4665TIP3    H235631   1.451   2.746   7.363  0.5225  0.0404 -0.9779
 4666TIP3   OH235632   5.104   3.037   1.471  0.1728 -0.5491  0.3861
 4666TIP3    H135633   5.184   3.040   1.419  0.5941 -0.2509  1.0310
 4666TIP3    H235634   5.043   3.094   1.426  0.3347 -0.7516 -0.0938
 4667TIP3   OH235635   6.454   4.362   8.703  0.3789 -0.0544  0.2193
 4667TIP3    H135636   6.500   4.441   8.730  3.5321 -1.3690 -0.8163
 4667TIP3    H235637   6.460   4.362   8.607  0.9594 -1.7357  0.2178
 4668TIP3   OH235638   0.932   5.723   0.488  0.2048  0.2976  0.0318
 4668TIP3    H135639   0.951   5.642   0.440  1.4186  0.7479 -0.2801
 4668TIP3    H235640   0.839   5.738   0.474  0.5669  0.6178 -2.5522
 4669TIP3   OH235641   0.811   1.558   1.376  0.0751 -0.8894 -0.3651
 4669TIP3    H135642   0.859   1.641   1.373 -2.0920  0.4308 -2.7630
 4669TIP3    H235643   0.738   1.574   1.435  0.7579 -1.8490  0.7927
 4670TIP3   OH235644   3.988   2.224   1.236 -0.1527 -0.1051  0.8327
 4670TIP3    H135645   4.004   2.183   1.321  1.4389 -3.8915 -1.0858
 4670TIP3    H235646   3.903   2.191   1.209  0.3261 -0.7215  0.0413
 4671TIP3   OH235647   3.041   1.978   2.114 -0.3015 -0.0492  0.2040
 4671TIP3    H135648   2.971   2.012   2.170  1.0781  1.0083  1.3733
 4671TIP3    H235649   3.077   2.055   2.071  0.0531 -0.5926 -0.4862
 4672TIP3   OH235650   1.898   5.203   0.414 -0.6250  0.2710 -0.2610
 4672TIP3    H135651   1.853   5.286   0.396  0.2834  1.0433  0.8419
 4672TIP3    H235652   1.899   5.157   0.331  0.4532  2.1690 -1.3646
 4673TIP3   OH235653   6.680   3.947   1.233 -0.5756 -0.5226 -0.6320
 4673TIP3    H135654   6.592   3.959   1.268 -0.3409 -0.1491 -0.1615
 4673TIP3    H235655   6.715   4.035   1.227  0.0645 -0.7282 -0.0342
 4674TIP3   OH235656   4.071   3.205   8.259  0.1941  0.3424  0.2031
 4674TIP3    H135657   4.103   3.221   8.170  2.2441  2.6081  1.2467
 4674TIP3    H235658   4.024   3.284   8.283 -0.5744 -0.3524  1.0761
 4675TIP3   OH235659   1.301   1.002   2.273  0.3573  0.0166  0.4374
 4675TIP3    H135660   1.384   0.960   2.248  1.0697  1.9374 -0.6310
 4675TIP3    H235661   1.307   1.009   2.369  1.5186  0.2901  0.3632
 4676TIP3   OH235662   1.612   0.415   2.793  0.2692  0.6132  0.4773
 4676TIP3    H135663   1.690   0.417   2.738 -0.0554  2.9458  0.0131
 4676TIP3    H235664   1.601   0.505   2.822 -1.4794  0.0588  1.6560
 4677TIP3   OH235665   2.584   4.113   7.835  0.2004 -0.2878 -0.1283
 4677TIP3    H135666   2.509   4.161   7.871  0.0162  0.5154 -1.5251
 4677TIP3    H235667   2.656   4.133   7.895 -0.4365 -0.1974  0.6234
 4678TIP3   OH235668   0.565   6.540   1.642 -0.0397 -0.3646  0.1267
 4678TIP3    H135669   0.613   6.515   1.720  0.9955 -1.7530 -0.9084
 4678TIP3    H235670   0.481   6.495   1.650  0.2095 -0.8121  0.2691
 4679TIP3   OH235671   0.095   4.774   7.845 -0.4227 -0.1170  0.1689
 4679TIP3    H135672   0.132   4.758   7.759 -1.8155 -0.6082 -0.3637
 4679TIP3    H235673   0.046   4.695   7.866 -2.2027  0.9501  0.2627
 4680TIP3   OH235674   1.676   4.423   1.017 -0.3923 -0.1801 -0.4052
 4680TIP3    H135675   1.672   4.360   1.090 -1.9101 -0.2022 -0.4721
 4680TIP3    H235676   1.636   4.502   1.052  1.5680  0.8300 -0.3069
 4681TIP3   OH235677   4.969   1.137   7.265 -0.7641 -0.5258  0.5564
 4681TIP3    H135678   4.941   1.047   7.251  0.3192 -0.8811  0.6220
 4681TIP3    H235679   5.062   1.138   7.242 -0.9085  0.7175 -0.0613
 4682TIP3   OH235680   5.543   1.807   0.314 -0.1668 -0.1106 -0.3798
 4682TIP3    H135681   5.522   1.898   0.337  1.6865  0.7758 -1.9021
 4682TIP3    H235682   5.631   1.812   0.275 -1.5930 -1.8838 -4.3565
 4683TIP3   OH235683   4.486   1.801   2.228 -0.2089  0.2550  0.3898
 4683TIP3    H135684   4.568   1.775   2.270 -0.4801  1.0147  1.4484
 4683TIP3    H235685   4.451   1.870   2.285 -1.1720  0.5205 -0.4905
 4684TIP3   OH235686   4.840   1.714   8.395 -0.0524 -0.2293  0.1425
 4684TIP3    H135687   4.827   1.809   8.391 -2.9666 -0.5342  0.2986
 4684TIP3    H235688   4.848   1.687   8.303  0.5415  0.1265  0.0851
 4685TIP3   OH235689   4.474   4.431   0.007  0.5592 -0.0180  0.4228
 4685TIP3    H135690   4.484   4.344   0.047 -0.4673 -1.5369 -2.3164
 4685TIP3    H235691   4.383   4.433  -0.021  1.2443  0.8245 -1.9261
 4686TIP3   OH235692   6.383   4.429   8.446 -0.5823 -0.5199 -0.3448
 4686TIP3    H135693   6.467   4.420   8.401  0.3224  0.1902  1.1092
 4686TIP3    H235694   6.327   4.475   8.384  0.2546 -0.5891 -1.1730
 4687TIP3   OH235695   2.941   0.474   3.161  0.2114 -0.4118  0.5061
 4687TIP3    H135696   2.930   0.385   3.196 -1.7341 -0.0529  0.8972
 4687TIP3    H235697   2.855   0.515   3.173  1.3662  1.9045  1.3534
 4688TIP3   OH235698   2.921   0.393   1.074 -0.2573 -0.6462  0.4792
 4688TIP3    H135699   2.974   0.471   1.055  0.5559 -1.6875 -1.8218
 4688TIP3    H235700   2.853   0.425   1.133  1.1721  1.3818  1.1397
 4689TIP3   OH235701   1.181   2.916   8.453  0.3401 -0.4829  0.3813
 4689TIP3    H135702   1.228   2.886   8.531  1.3101 -0.9529 -0.3592
 4689TIP3    H235703   1.191   2.844   8.390  1.6077  0.8223 -0.9947
 4690TIP3   OH235704   5.214   0.865   2.871 -0.6312  0.0651  0.5962
 4690TIP3    H135705   5.130   0.837   2.835 -0.8136  0.4036  0.7534
 4690TIP3    H235706   5.232   0.804   2.942  0.2266 -1.2574 -0.6855
 4691TIP3   OH235707   3.699   3.368   7.406  0.3523 -0.2762  0.3010
 4691TIP3    H135708   3.663   3.450   7.438 -0.4574 -0.7724  0.7100
 4691TIP3    H235709   3.637   3.339   7.339  2.3658  1.0970 -2.3462
 4692TIP3   OH235710   2.653   5.214   8.751  0.8010  0.0113  0.0109
 4692TIP3    H135711   2.590   5.143   8.763  1.1206 -0.2391  0.2155
 4692TIP3    H235712   2.626   5.280   8.814  0.6542 -0.0334 -0.0045
 4693TIP3   OH235713   2.320   3.012   2.972  0.3850  0.0091 -0.1130
 4693TIP3    H135714   2.242   3.046   2.929  0.3856 -1.8461 -1.7358
 4693TIP3    H235715   2.392   3.065   2.936 -0.0523  1.7576  1.4282
 4694TIP3   OH235716   3.847   1.793   2.925  0.1795  0.6173 -0.7213
 4694TIP3    H135717   3.813   1.839   3.001  2.0049 -0.9675  1.1608
 4694TIP3    H235718   3.852   1.701   2.952  3.5184  0.3882 -1.6798
 4695TIP3   OH235719   6.059   0.711   7.527 -0.3530  0.2632 -0.0449
 4695TIP3    H135720   5.978   0.705   7.476 -0.0989 -0.7315 -0.3621
 4695TIP3    H235721   6.125   0.670   7.471 -0.1259 -1.1645  1.1888
 4696TIP3   OH235722   1.709   5.359   2.297 -0.1246 -0.0250  0.3315
 4696TIP3    H135723   1.687   5.267   2.311 -0.4049 -0.2592 -1.4225
 4696TIP3    H235724   1.669   5.405   2.371  0.0648 -1.2963  1.2632
 4697TIP3   OH235725   4.518   3.482   6.879 -0.1185 -0.2101  0.1033
 4697TIP3    H135726   4.547   3.425   6.950 -0.3997 -2.2175 -1.3317
 4697TIP3    H235727   4.423   3.474   6.879 -0.1463  0.0643 -0.2791
 4698TIP3   OH235728   3.815   2.469   0.564 -0.2119 -0.1799  0.0001
 4698TIP3    H135729   3.749   2.479   0.494  0.6940 -1.5110 -1.1060
 4698TIP3    H235730   3.870   2.546   0.555 -0.4654 -0.0328 -0.3688
 4699TIP3   OH235731   3.158   5.206   0.844 -0.3694 -0.3045  0.3050
 4699TIP3    H135732   3.085   5.152   0.874 -0.9264 -1.0757 -2.2069
 4699TIP3    H235733   3.125   5.248   0.765  0.6400  2.4484  1.2395
 4700TIP3   OH235734   4.849   6.473   8.951  0.0018  0.2385  0.4072
 4700TIP3    H135735   4.800   6.526   8.889  0.5949  1.5716  1.0467
 4700TIP3    H235736   4.828   6.382   8.927  0.8397  0.6641 -2.2614
 4701TIP3   OH235737   3.989   4.788   0.752  0.0228 -0.1209 -0.1443
 4701TIP3    H135738   4.040   4.806   0.673  0.4125 -0.8095 -0.0636
 4701TIP3    H235739   3.946   4.870   0.772  0.2008  0.1619 -0.8742
 4702TIP3   OH235740   4.166   3.636   1.063 -0.4810  0.1993 -0.4464
 4702TIP3    H135741   4.164   3.729   1.084 -0.9095 -0.4037  2.5833
 4702TIP3    H235742   4.246   3.603   1.105 -0.6138 -0.9133 -1.0181
 4703TIP3   OH235743   0.009   2.954   1.543 -0.5243 -0.3455  0.1034
 4703TIP3    H135744   0.067   2.986   1.612 -2.0033 -0.4024  1.4220
 4703TIP3    H235745  -0.040   3.032   1.515 -0.3138 -0.4272 -0.5149
 4704TIP3   OH235746   5.686   6.421   8.918  0.6015  0.1321 -0.1472
 4704TIP3    H135747   5.723   6.334   8.927 -0.7392 -0.3789  0.7401
 4704TIP3    H235748   5.733   6.460   8.845  1.2208 -1.3318 -0.5613
 4705TIP3   OH235749   0.129   2.406   2.302  0.0227 -0.1353 -0.0075
 4705TIP3    H135750   0.220   2.436   2.304 -0.0617  0.2865 -1.3119
 4705TIP3    H235751   0.085   2.466   2.240 -1.7228  1.2073  2.3393
 4706TIP3   OH235752   2.396   1.658   1.149  0.3089 -0.0622 -0.1211
 4706TIP3    H135753   2.481   1.670   1.190  1.0727 -2.5360 -0.8250
 4706TIP3    H235754   2.400   1.710   1.069  0.5113  1.1026  0.6134
 4707TIP3   OH235755   4.068   1.462   0.430 -0.0538 -0.2644  0.4001
 4707TIP3    H135756   4.087   1.377   0.390  0.0285  0.0881 -0.3215
 4707TIP3    H235757   4.154   1.496   0.456  0.0781  0.2395 -0.6415
 4708TIP3   OH235758   1.674   4.711   0.396 -0.4059 -0.9806  0.1759
 4708TIP3    H135759   1.614   4.642   0.427 -0.3683 -1.2171 -0.2648
 4708TIP3    H235760   1.627   4.793   0.414 -1.7684 -1.2187 -1.9506
 4709TIP3   OH235761   4.741   0.513   7.337  0.0475 -0.0567  0.7193
 4709TIP3    H135762   4.751   0.430   7.384  1.4570  0.0020  0.5665
 4709TIP3    H235763   4.823   0.523   7.287 -1.1131  0.2130 -1.2383
 4710TIP3   OH235764   4.842   3.100   7.925  0.2976  0.1802  0.0525
 4710TIP3    H135765   4.861   3.122   7.834  1.1765 -0.9466 -0.0636
 4710TIP3    H235766   4.747   3.109   7.933  0.3261  1.3446 -0.6620
 4711TIP3   OH235767   3.022   4.686   7.163 -0.0703 -0.3826  0.1428
 4711TIP3    H135768   3.077   4.633   7.105 -0.1614 -0.0508 -0.2566
 4711TIP3    H235769   3.060   4.773   7.159  0.1571 -0.4474  0.9037
 4712TIP3   OH235770   4.596   2.326   8.049 -0.2552  0.0160  0.4600
 4712TIP3    H135771   4.649   2.367   8.116 -0.7120  1.4723 -0.0413
 4712TIP3    H235772   4.519   2.382   8.040  0.2724  0.4672 -1.9881
 4713TIP3   OH235773   5.645   1.929   8.903 -0.3062 -0.0320 -0.0026
 4713TIP3    H135774   5.564   1.978   8.918 -0.9178 -0.3336 -2.0655
 4713TIP3    H235775   5.615   1.843   8.875  0.7636 -0.7737  1.0659
 4714TIP3   OH235776   3.657   1.492   0.533  0.5039 -0.0145 -1.0260
 4714TIP3    H135777   3.728   1.458   0.478 -1.9792 -1.2194 -3.8499
 4714TIP3    H235778   3.635   1.576   0.494 -0.1347 -0.0378 -0.7301
 4715TIP3   OH235779   1.629   0.176   8.528 -0.0406 -0.1623 -0.4513
 4715TIP3    H135780   1.642   0.112   8.598 -0.8219 -0.4296 -0.5345
 4715TIP3    H235781   1.717   0.204   8.504  0.4659 -2.3796 -1.4822
 4716TIP3   OH235782   2.849   0.575   7.958  0.0855 -0.4302  0.1149
 4716TIP3    H135783   2.907   0.606   8.027 -2.1186 -1.1568  2.4854
 4716TIP3    H235784   2.814   0.654   7.918 -2.2240  0.2941  3.1925
 4717TIP3   OH235785   3.987   0.996   3.268 -0.5479 -0.0080  0.4883
 4717TIP3    H135786   3.958   0.907   3.250  1.0476 -0.4492 -0.0704
 4717TIP3    H235787   4.074   0.985   3.306 -0.0487  1.3269 -0.2162
 4718TIP3   OH235788   1.989   1.027   2.962  0.1745  0.1237 -0.4249
 4718TIP3    H135789   1.917   0.963   2.962  0.1192  0.1721 -1.2914
 4718TIP3    H235790   2.066   0.976   2.937  0.2268  0.2933 -0.6128
 4719TIP3   OH235791   1.634   1.934   0.095 -0.2765  0.0671 -0.4161
 4719TIP3    H135792   1.572   1.997   0.058 -0.6374 -0.0011  0.0666
 4719TIP3    H235793   1.625   1.944   0.190  1.7785  1.3830 -0.2838
 4720TIP3   OH235794   2.692   1.267   8.460  0.2742  0.3741  0.0302
 4720TIP3    H135795   2.610   1.233   8.426 -0.6941  1.8856  0.6921
 4720TIP3    H235796   2.699   1.355   8.422 -0.3329  1.7122  2.7533
 4721TIP3   OH235797   5.783   1.568   0.176  0.1150  0.4011 -0.2036
 4721TIP3    H135798   5.688   1.569   0.171  0.1612 -0.0355 -1.6217
 4721TIP3    H235799   5.806   1.651   0.219 -0.9100  0.1827  0.8179
 4722TIP3   OH235800   6.125   2.754   0.323  0.1433  0.1452 -0.9123
 4722TIP3    H135801   6.038   2.789   0.303 -0.1384  0.2283  0.3748
 4722TIP3    H235802   6.181   2.831   0.327 -0.1507  0.3198  0.2857
 4723TIP3   OH235803   5.582   3.239   8.283  0.3435  0.1093  0.4683
 4723TIP3    H135804   5.541   3.227   8.369 -1.8461 -0.4326 -0.5844
 4723TIP3    H235805   5.557   3.327   8.256 -0.9885 -0.5713 -0.5992
 4724TIP3   OH235806   3.266   2.513   7.548 -0.0266 -0.6295  0.4969
 4724TIP3    H135807   3.341   2.510   7.608 -1.9801 -1.6172  3.0685
 4724TIP3    H235808   3.252   2.606   7.532  2.3360 -0.4263 -0.9647
 4725TIP3   OH235809   3.896   4.940   0.499 -0.1422  0.3252 -0.1472
 4725TIP3    H135810   3.920   5.003   0.567 -1.0913  0.7641 -0.2097
 4725TIP3    H235811   3.904   4.988   0.417 -1.9926  0.7458 -0.1196
 4726TIP3   OH235812   6.001   6.221   1.187  0.4220 -0.5927 -0.1629
 4726TIP3    H135813   5.911   6.251   1.192  0.5486 -0.0910 -0.7568
 4726TIP3    H235814   6.030   6.214   1.279 -0.1558 -0.5905  0.0203
 4727TIP3   OH235815   3.646   4.182   8.443 -0.0847 -0.0433  0.0543
 4727TIP3    H135816   3.570   4.149   8.395 -0.4162  2.1051 -0.9966
 4727TIP3    H235817   3.614   4.197   8.532 -0.4468 -0.6724  0.0349
 4728TIP3   OH235818   4.149   1.468   1.562  0.0700  0.3567 -0.1843
 4728TIP3    H135819   4.078   1.520   1.600 -0.2625  0.1016 -0.4449
 4728TIP3    H235820   4.112   1.434   1.480  0.9665  1.3693 -1.0324
 4729TIP3   OH235821   4.466   0.390   0.570  0.4271 -0.7889  0.2480
 4729TIP3    H135822   4.500   0.362   0.655 -3.0182  0.4990  2.2774
 4729TIP3    H235823   4.532   0.451   0.537  2.3985 -2.1852  1.3881
 4730TIP3   OH235824   3.276   4.611   0.802 -0.1792 -0.5530  0.6528
 4730TIP3    H135825   3.260   4.541   0.739 -1.4519  0.5446 -0.3051
 4730TIP3    H235826   3.364   4.642   0.783 -0.3377 -0.6182 -0.2107
 4731TIP3   OH235827   1.863   6.535   0.638  0.4181 -0.1661  0.1090
 4731TIP3    H135828   1.874   6.578   0.553  0.1098 -0.5042 -0.1073
 4731TIP3    H235829   1.953   6.520   0.669  0.5311  0.4509  0.1025
 4732TIP3   OH235830   5.430   3.378   9.022  0.7327 -0.0570  0.1227
 4732TIP3    H135831   5.360   3.334   8.973 -0.3858 -0.1026  1.6721
 4732TIP3    H235832   5.505   3.319   9.015  1.0796  0.5557 -2.6030
 4733TIP3   OH235833   2.846   5.937   1.713 -0.1637 -0.1173 -0.0558
 4733TIP3    H135834   2.800   5.896   1.786  0.3167 -0.1714  0.2209
 4733TIP3    H235835   2.935   5.902   1.718 -0.7868 -2.3073 -2.3247
 4734TIP3   OH235836   3.300   1.580   0.980  0.2238 -0.0497  0.1788
 4734TIP3    H135837   3.378   1.564   0.927 -0.8357 -2.4434 -0.7971
 4734TIP3    H235838   3.235   1.614   0.918 -0.1724 -0.1734  0.5159
 4735TIP3   OH235839   3.889   1.731   0.782  0.3094 -0.2576  0.5692
 4735TIP3    H135840   3.910   1.749   0.690  0.9489 -0.4798  0.6655
 4735TIP3    H235841   3.948   1.787   0.831  0.5020 -0.7073  0.8509
 4736TIP3   OH235842   0.460   1.135   0.470 -0.2621  0.3205 -0.3851
 4736TIP3    H135843   0.522   1.142   0.543 -0.6015  2.2601 -0.2228
 4736TIP3    H235844   0.492   1.198   0.405 -1.1971  0.2284 -0.9536
 4737TIP3   OH235845   3.226   3.236   1.693  0.0895  0.2096 -0.5655
 4737TIP3    H135846   3.226   3.287   1.612 -1.2329 -0.0090 -0.7291
 4737TIP3    H235847   3.178   3.156   1.671  0.1994 -0.0997  0.2784
 4738TIP3   OH235848   3.191   6.113   2.155 -0.2603  0.0264 -0.1453
 4738TIP3    H135849   3.207   6.164   2.234  0.1694 -0.9317  0.4053
 4738TIP3    H235850   3.098   6.124   2.138 -0.3053  0.4451  0.3502
 4739TIP3   OH235851   1.258   1.427   3.065  0.4737  0.5829 -0.0406
 4739TIP3    H135852   1.349   1.413   3.041  0.3002 -1.4445  0.3222
 4739TIP3    H235853   1.215   1.451   2.982  1.1682  0.6985 -0.3767
 4740TIP3   OH235854   6.016   0.063   0.280 -0.2953 -0.3175  0.2174
 4740TIP3    H135855   6.028   0.015   0.198  0.5476  1.7940 -0.9596
 4740TIP3    H235856   5.931   0.032   0.313 -0.8300 -0.9649 -1.6337
 4741TIP3   OH235857   0.745   4.356   8.175 -0.1946 -0.1279  0.0906
 4741TIP3    H135858   0.784   4.323   8.094  0.2229  1.4846 -0.3910
 4741TIP3    H235859   0.679   4.418   8.147 -1.1138 -0.6659  0.9818
 4742TIP3   OH235860   1.723   5.278   1.887  0.2318 -0.2529 -0.4937
 4742TIP3    H135861   1.752   5.359   1.930 -0.6787 -0.2085  0.0483
 4742TIP3    H235862   1.802   5.224   1.883  0.1041 -0.8946  2.6561
 4743TIP3   OH235863   2.487   1.542   1.564 -0.6317 -0.1924  0.6093
 4743TIP3    H135864   2.514   1.464   1.515  1.8278 -0.5600  2.3382
 4743TIP3    H235865   2.432   1.509   1.634  0.8322 -0.5211  1.6527
 4744TIP3   OH235866   1.396   0.115   8.871 -0.0721  0.6474 -0.0605
 4744TIP3    H135867   1.304   0.135   8.853 -0.0722  0.2725 -0.5103
 4744TIP3    H235868   1.409   0.141   8.962 -0.2298  2.0687 -0.4143
 4745TIP3   OH235869   5.884   1.085   0.598 -0.1361  0.3485 -0.0364
 4745TIP3    H135870   5.950   1.124   0.657  1.8994 -1.3883 -1.0409
 4745TIP3    H235871   5.803   1.131   0.620  1.1252  1.7334  2.1403
 4746TIP3   OH235872   2.971   0.535   1.635 -0.2728  0.6021 -0.0504
 4746TIP3    H135873   3.043   0.561   1.578  0.6448 -0.4960  0.5749
 4746TIP3    H235874   2.896   0.527   1.576  0.6148 -0.3574 -1.1035
 4747TIP3   OH235875   3.135   1.856   0.744 -0.1180 -0.5474 -0.3511
 4747TIP3    H135876   3.147   1.767   0.776  1.8611 -1.5345 -3.3867
 4747TIP3    H235877   3.133   1.910   0.823  1.1127 -3.0142  1.5046
 4748TIP3   OH235878   5.194   4.678   1.298  0.1619  0.0221  0.2309
 4748TIP3    H135879   5.135   4.739   1.255  0.9143 -0.4692 -1.5806
 4748TIP3    H235880   5.222   4.618   1.229  1.2927 -0.9212  1.4429
 4749TIP3   OH235881   6.286   4.809   9.156  0.1640  0.3538  0.1774
 4749TIP3    H135882   6.259   4.729   9.110 -2.5983  0.6111  1.1687
 4749TIP3    H235883   6.330   4.778   9.234 -0.2492 -0.2077  0.1993
 4750TIP3   OH235884   5.961   6.178   7.573 -0.1066  0.2658 -0.0557
 4750TIP3    H135885   5.958   6.187   7.477  0.3014 -1.1995 -0.2406
 4750TIP3    H235886   6.050   6.204   7.596  0.0145 -0.0375 -0.1693
 4751TIP3   OH235887   1.960   3.394   0.372  0.3517  0.4800  0.3252
 4751TIP3    H135888   2.008   3.350   0.443  0.0983 -0.0810  0.1534
 4751TIP3    H235889   2.021   3.395   0.299  0.7223  1.3248  0.6286
 4752TIP3   OH235890   0.694   1.510   2.425  0.2553 -0.2327 -0.1046
 4752TIP3    H135891   0.639   1.577   2.384  1.2293  0.0704 -0.9682
 4752TIP3    H235892   0.764   1.495   2.362  0.0780 -2.0653  0.0913
 4753TIP3   OH235893   1.343   2.158   8.426 -0.2834 -0.3124 -0.3307
 4753TIP3    H135894   1.342   2.203   8.341 -2.3412 -1.2456 -0.8501
 4753TIP3    H235895   1.327   2.066   8.405  2.7910 -1.2281  0.8103
 4754TIP3   OH235896   4.378   1.282   2.436  0.3467  0.4381  0.5092
 4754TIP3    H135897   4.438   1.225   2.389  1.1224  0.5975  1.2825
 4754TIP3    H235898   4.322   1.320   2.368 -0.9974 -2.1157  0.0719
 4755TIP3   OH235899   4.451   3.829   1.278  0.1108 -0.0767 -0.3450
 4755TIP3    H135900   4.438   3.755   1.218  1.5129 -0.5293 -0.1292
 4755TIP3    H235901   4.362   3.851   1.308 -0.5954  0.0073 -2.3568
 4756TIP3   OH235902   2.734   2.068   0.465 -0.0064  0.1103 -0.2062
 4756TIP3    H135903   2.645   2.094   0.444 -0.0846  0.5980  0.6912
 4756TIP3    H235904   2.773   2.045   0.380 -0.5482  1.2525 -0.7857
 4757TIP3   OH235905   0.929   5.515   2.308  0.2903 -0.0935 -0.3515
 4757TIP3    H135906   0.863   5.478   2.250  0.1307  1.4621 -1.2235
 4757TIP3    H235907   0.880   5.546   2.384  0.3920 -1.3487  0.2570
 4758TIP3   OH235908   5.319   3.018   6.908  0.1312  0.0771  0.0113
 4758TIP3    H135909   5.261   2.948   6.878  0.7505 -1.0284  1.2966
 4758TIP3    H235910   5.359   2.984   6.988  0.9763  1.6399  0.2991
 4759TIP3   OH235911   2.413   3.314   8.445 -0.1640 -0.7061  0.7194
 4759TIP3    H135912   2.367   3.380   8.392  0.4461  0.5809  1.7235
 4759TIP3    H235913   2.471   3.269   8.384 -0.3421 -0.0678  0.0680
 4760TIP3   OH235914   2.183   2.329   8.114 -0.0767  0.1552 -0.3346
 4760TIP3    H135915   2.123   2.394   8.077  1.5625  1.5952 -0.6115
 4760TIP3    H235916   2.176   2.254   8.056 -0.5596  0.8383 -1.1793
 4761TIP3   OH235917   6.364   4.945   7.364  0.3075  0.4018 -0.2318
 4761TIP3    H135918   6.368   4.850   7.379 -2.1484  0.3795  0.7096
 4761TIP3    H235919   6.456   4.973   7.366  1.0191 -1.7709  0.7232
 4762TIP3   OH235920   1.508   4.926   0.461 -0.2894  0.3234 -0.7045
 4762TIP3    H135921   1.524   4.983   0.535 -1.1589  0.5914 -0.7098
 4762TIP3    H235922   1.414   4.906   0.466 -0.2476 -0.0882 -1.4179
 4763TIP3   OH235923   1.024   0.190   0.871 -0.2094  0.0913 -0.7281
 4763TIP3    H135924   1.075   0.271   0.872 -0.3829  0.2136  0.6310
 4763TIP3    H235925   0.935   0.219   0.893  0.2914 -0.7466  3.0561
 4764TIP3   OH235926   2.062   0.788   2.756  0.1656 -0.2668 -0.2993
 4764TIP3    H135927   2.006   0.721   2.795  0.9163 -0.5183  0.3575
 4764TIP3    H235928   2.111   0.824   2.829 -1.3499  2.1522 -0.3308
 4765TIP3   OH235929   3.966   4.763   7.291 -0.2647 -0.5325  0.0287
 4765TIP3    H135930   4.003   4.848   7.271  0.5840 -1.0048 -0.4670
 4765TIP3    H235931   3.932   4.771   7.380  1.0039 -0.0747  0.4829
 4766TIP3   OH235932   2.373   1.798   8.629 -0.5619 -0.0050  0.6921
 4766TIP3    H135933   2.308   1.842   8.573 -0.3268 -1.3579 -0.7366
 4766TIP3    H235934   2.325   1.726   8.669 -0.1212 -0.5968  0.1729
 4767TIP3   OH235935   4.820   0.714   6.961  0.0601  0.1289 -0.5062
 4767TIP3    H135936   4.889   0.654   6.931 -1.1914 -1.0890 -1.0879
 4767TIP3    H235937   4.744   0.657   6.974 -1.4185  1.7137 -1.8566
 4768TIP3   OH235938   5.606   0.682   2.389 -0.0741  0.1535 -0.1803
 4768TIP3    H135939   5.603   0.645   2.477 -2.2609  2.0355  0.6352
 4768TIP3    H235940   5.528   0.737   2.383 -0.2015 -0.1662 -3.4526
 4769TIP3   OH235941   3.631   6.164   9.014 -0.3843  0.1162  0.0541
 4769TIP3    H135942   3.723   6.154   9.038  0.0320  0.1808 -1.4301
 4769TIP3    H235943   3.601   6.075   8.993 -0.1923  0.2922 -1.0209
 4770TIP3   OH235944   0.197   0.190   0.662  0.5303 -0.1693  0.0974
 4770TIP3    H135945   0.124   0.225   0.713 -0.7268 -0.5910 -1.3436
 4770TIP3    H235946   0.232   0.265   0.615 -0.9471 -0.4335 -1.5254
 4771TIP3   OH235947   5.500   1.940   2.606  0.7431  0.4482 -0.6870
 4771TIP3    H135948   5.554   1.927   2.684 -1.0038  0.6613  0.5929
 4771TIP3    H235949   5.411   1.920   2.634  0.3008 -1.8994 -3.2400
 4772TIP3   OH235950   3.361   2.536   8.319 -0.1471 -0.1067 -0.5619
 4772TIP3    H135951   3.294   2.563   8.257 -0.0386  2.1940  0.2427
 4772TIP3    H235952   3.328   2.453   8.355 -2.4684  0.8179 -0.3853
 4773TIP3   OH235953   3.459   4.989   7.765  0.2816  0.2010  0.2678
 4773TIP3    H135954   3.470   4.924   7.834 -0.2298  0.0368  0.1986
 4773TIP3    H235955   3.391   4.953   7.708  1.6923 -0.3421 -1.1340
 4774TIP3   OH235956   6.096   1.212   7.775  0.1588  0.3466  0.0770
 4774TIP3    H135957   6.062   1.137   7.823  0.0493  1.8658  2.5866
 4774TIP3    H235958   6.022   1.273   7.769  0.7117  1.0107 -0.2049
 4775TIP3   OH235959   4.954   5.013   6.916  0.0016  0.3296 -0.1183
 4775TIP3    H135960   5.038   5.006   6.961 -0.7534 -3.0099  1.0364
 4775TIP3    H235961   4.890   5.026   6.986 -0.9454 -2.6045 -0.3146
 4776TIP3   OH235962   3.994   2.497   1.582  0.3317  0.1292 -0.2680
 4776TIP3    H135963   3.929   2.435   1.615 -0.3423  0.0341 -1.6842
 4776TIP3    H235964   3.942   2.568   1.545  1.0966  1.9420  1.9330
 4777TIP3   OH235965   5.893   6.270   8.878 -0.3920 -0.1431 -0.8880
 4777TIP3    H135966   5.931   6.206   8.817 -0.8894  0.3140 -1.7057
 4777TIP3    H235967   5.914   6.236   8.965 -1.1319 -1.7413 -1.2836
 4778TIP3   OH235968   6.285   3.210   1.215 -0.1455 -0.0312 -0.1541
 4778TIP3    H135969   6.329   3.202   1.131  0.0851 -1.2738  0.0670
 4778TIP3    H235970   6.192   3.205   1.193 -0.1114  0.3237 -0.3944
 4779TIP3   OH235971   1.772   1.009   7.321 -0.8080 -0.3534 -0.0760
 4779TIP3    H135972   1.813   0.926   7.296 -0.1560 -1.0346  2.8889
 4779TIP3    H235973   1.810   1.073   7.260 -0.0946 -1.9475 -1.3923
 4780TIP3   OH235974   2.762   1.688   2.523 -0.7791  0.3342 -0.3683
 4780TIP3    H135975   2.838   1.658   2.472  0.2261  0.3663  1.0597
 4780TIP3    H235976   2.760   1.631   2.599 -3.5141 -1.0833 -1.3594
 4781TIP3   OH235977   6.527   2.273   0.724  0.0917  0.2605  0.2138
 4781TIP3    H135978   6.466   2.288   0.796  0.7199  1.1240  0.5906
 4781TIP3    H235979   6.602   2.328   0.745  1.0882 -0.9200 -0.1492
 4782TIP3   OH235980   2.988   0.427   2.428 -0.3845  0.1687  0.0577
 4782TIP3    H135981   2.964   0.437   2.336 -0.4716  0.7058  0.1358
 4782TIP3    H235982   2.906   0.403   2.471 -0.1784 -0.8962 -0.1283
 4783TIP3   OH235983   3.998   5.923   8.592  0.3465  0.5718  0.2736
 4783TIP3    H135984   4.046   5.962   8.664  0.5179 -0.8217  0.9559
 4783TIP3    H235985   3.911   5.961   8.597 -0.7396 -1.8621  3.3748
 4784TIP3   OH235986   6.027   0.729   2.514 -0.1884  0.7467 -0.0832
 4784TIP3    H135987   5.990   0.690   2.434 -0.6356 -2.8328  1.6761
 4784TIP3    H235988   6.119   0.745   2.492 -0.8597  2.3648 -2.0503
 4785TIP3   OH235989   3.448   1.101   1.919  0.1976  0.3647 -0.2190
 4785TIP3    H135990   3.380   1.035   1.934  0.2180  0.3647 -0.1202
 4785TIP3    H235991   3.400   1.181   1.899  0.1742  0.3012 -0.4195
 4786TIP3   OH235992   2.290   6.417   8.446  0.1387  0.2965  0.0270
 4786TIP3    H135993   2.207   6.419   8.494  0.4631 -0.1627  0.6202
 4786TIP3    H235994   2.268   6.376   8.362 -0.7534  2.4897 -0.8973
 4787TIP3   OH235995   5.241   1.741   8.691  0.0422 -0.4197  0.1802
 4787TIP3    H135996   5.235   1.827   8.732  0.5723 -1.0437  1.6387
 4787TIP3    H235997   5.248   1.680   8.764 -3.3813 -2.0383 -0.6358
 4788TIP3   OH235998   6.144   3.801   8.798 -0.4554  0.5725 -0.0279
 4788TIP3    H135999   6.230   3.827   8.829 -1.1193  0.9106  1.6663
 4788TIP3    H236000   6.160   3.725   8.741  1.0758  1.6617 -1.1249
 4789TIP3   OH236001   5.568   1.053   7.402  0.3451 -0.0185 -0.0151
 4789TIP3    H136002   5.520   1.128   7.365  1.2446 -0.1012 -1.4529
 4789TIP3    H236003   5.633   1.093   7.460  1.3115  0.4184 -1.3383
 4790TIP3   OH236004   5.339   3.854   1.522  0.0840  0.2990 -0.2475
 4790TIP3    H136005   5.288   3.931   1.495  0.6258  1.6774  2.3078
 4790TIP3    H236006   5.281   3.808   1.583  0.3753 -0.4580 -0.5314
 4791TIP3   OH236007   0.128   5.816   0.628 -0.1270  0.1029 -0.0872
 4791TIP3    H136008   0.137   5.904   0.664 -0.5445  0.3596 -0.5995
 4791TIP3    H236009   0.063   5.773   0.683  0.2021  0.0504  0.2690
 4792TIP3   OH236010   1.112   6.034   3.156  0.5257  0.2999 -0.2299
 4792TIP3    H136011   1.177   5.969   3.183 -0.5286 -0.3795  0.7677
 4792TIP3    H236012   1.164   6.109   3.127  1.7549 -0.5050 -0.1755
 4793TIP3   OH236013   0.113   2.487   0.786  0.4553  0.1575 -0.5933
 4793TIP3    H136014   0.095   2.465   0.694 -1.9384 -2.0401  0.2810
 4793TIP3    H236015   0.192   2.437   0.807  0.2890 -0.3368 -1.1141
 4794TIP3   OH236016   6.116   1.706   1.884 -0.0378 -0.6257  0.3884
 4794TIP3    H136017   6.167   1.632   1.851  0.0138 -0.1914 -0.5103
 4794TIP3    H236018   6.046   1.717   1.820 -0.2812 -0.1504  0.7375
 4795TIP3   OH236019   4.282   4.060   0.832  0.6342  0.2822  0.7527
 4795TIP3    H136020   4.309   4.147   0.862  0.3423  0.6253  0.0480
 4795TIP3    H236021   4.337   4.000   0.883  0.2282  0.8325  1.8840
 4796TIP3   OH236022   3.915   4.594   8.367 -0.1219 -0.3202 -0.4855
 4796TIP3    H136023   3.829   4.634   8.350 -0.2031 -0.4345 -0.3388
 4796TIP3    H236024   3.904   4.547   8.449 -0.3207 -1.5118 -1.1789
 4797TIP3   OH236025   4.299   5.724   0.190  0.5000  0.1833 -0.1620
 4797TIP3    H136026   4.356   5.689   0.121 -1.7715 -1.4982 -1.2865
 4797TIP3    H236027   4.275   5.647   0.242 -0.0750  1.0069  0.8195
 4798TIP3   OH236028   3.109   4.424   0.081 -0.3521 -0.6864 -0.1213
 4798TIP3    H136029   3.065   4.350   0.039 -1.3060  0.5108 -1.2788
 4798TIP3    H236030   3.044   4.494   0.083  1.5145  1.2555 -2.1273
 4799TIP3   OH236031   5.731   5.515   8.320 -0.1352  0.1079 -0.7074
 4799TIP3    H136032   5.653   5.460   8.326 -2.0405  2.7378  1.0286
 4799TIP3    H236033   5.773   5.507   8.405 -0.9789  1.9625 -0.0700
 4800TIP3   OH236034   3.479   5.839   1.489  0.0677 -0.3247 -0.0492
 4800TIP3    H136035   3.539   5.866   1.419 -1.7707 -0.1811 -1.6734
 4800TIP3    H236036   3.473   5.744   1.479 -0.5853 -0.2453 -0.4260
 4801TIP3   OH236037   0.362   6.318   8.258  0.0219 -0.6354 -0.6766
 4801TIP3    H136038   0.292   6.332   8.195  0.9723 -1.1844 -1.9076
 4801TIP3    H236039   0.395   6.406   8.278 -0.6626 -0.4160 -0.4797
 4802TIP3   OH236040   0.214   6.378   8.042  0.1573  0.2806 -0.0361
 4802TIP3    H136041   0.213   6.308   7.976  2.0586 -0.2763  0.4772
 4802TIP3    H236042   0.289   6.431   8.019 -0.0435  0.9458  0.8370
 4803TIP3   OH236043   3.089   6.466   7.946  0.4507 -0.8684 -0.0926
 4803TIP3    H136044   3.031   6.394   7.967 -0.6825  0.8564  3.5327
 4803TIP3    H236045   3.035   6.528   7.897  0.1460 -0.6668  0.4900
 4804TIP3   OH236046   5.497   6.075   1.843  0.5482  0.2933 -0.2398
 4804TIP3    H136047   5.481   5.981   1.851  1.3995  0.0316 -1.4015
 4804TIP3    H236048   5.446   6.102   1.768  2.0289  0.2968 -1.2885
 4805TIP3   OH236049   5.086   1.339   8.624  0.2932 -0.1097  0.2163
 4805TIP3    H136050   5.072   1.428   8.591  1.7591 -0.5604 -1.8234
 4805TIP3    H236051   5.027   1.285   8.572  0.4143 -0.5031  0.4852
 4806TIP3   OH236052   1.362   1.020   8.782 -0.1836  0.4656 -0.4328
 4806TIP3    H136053   1.380   1.034   8.689 -0.8415 -1.0717 -0.8179
 4806TIP3    H236054   1.272   0.989   8.785 -0.9431  2.5899  0.9441
 4807TIP3   OH236055   2.006   3.176   0.553 -0.3346  0.3184  0.2782
 4807TIP3    H136056   2.017   3.098   0.499 -0.7785  0.5637 -0.1693
 4807TIP3    H236057   2.049   3.154   0.635  2.2426  0.6792 -0.8660
 4808TIP3   OH236058   6.146   3.787   0.188  0.8208  0.5614  0.0063
 4808TIP3    H136059   6.231   3.745   0.177  0.4044  0.0015 -1.2880
 4808TIP3    H236060   6.133   3.837   0.107  0.7892  2.2901  1.0375
 4809TIP3   OH236061   3.526   0.565   0.871 -0.2530 -0.6262  0.2767
 4809TIP3    H136062   3.480   0.641   0.835 -0.5916 -0.6823  0.5825
 4809TIP3    H236063   3.534   0.504   0.797 -1.7390 -1.1184  0.4831
 4810TIP3   OH236064   4.294   1.648   1.005 -0.2407 -0.0604 -0.2690
 4810TIP3    H136065   4.320   1.561   1.034  0.2928  0.8013  2.0428
 4810TIP3    H236066   4.210   1.664   1.048  0.4500  1.1666  0.6870
 4811TIP3   OH236067   6.224   6.685   2.237  0.3283 -0.1464  0.2185
 4811TIP3    H136068   6.286   6.752   2.207  1.0337 -1.4831 -1.4682
 4811TIP3    H236069   6.258   6.658   2.322  1.3026  0.0953 -0.0808
 4812TIP3   OH236070   2.371   3.473   8.209  0.2166 -0.4140 -0.4044
 4812TIP3    H136071   2.290   3.431   8.180 -0.2005 -0.3377  0.5932
 4812TIP3    H236072   2.380   3.549   8.152 -0.1324 -0.7145 -0.8719
 4813TIP3   OH236073   1.909   6.509   1.965  0.7204  0.3913 -0.2346
 4813TIP3    H136074   1.929   6.520   1.872  0.5952 -2.6435 -0.7182
 4813TIP3    H236075   1.813   6.505   1.968  0.5202  3.2216  0.5039
 4814TIP3   OH236076   4.845   4.275   0.520 -0.0276  0.9520 -0.1026
 4814TIP3    H136077   4.856   4.322   0.438 -2.1093  1.3084 -0.2223
 4814TIP3    H236078   4.765   4.311   0.558 -0.0320 -0.4020  1.2640
 4815TIP3   OH236079   3.676   4.790   0.998 -0.1058  0.7946  0.2579
 4815TIP3    H136080   3.743   4.724   1.014 -0.5626  0.4288  0.6888
 4815TIP3    H236081   3.693   4.858   1.063  0.3590  1.1058 -0.1802
 4816TIP3   OH236082   5.122   4.648   8.451  0.6312 -0.1118 -0.0106
 4816TIP3    H136083   5.138   4.614   8.540 -0.9297 -1.0875 -0.0681
 4816TIP3    H236084   5.158   4.580   8.393 -0.2427 -0.4902 -0.1189
 4817TIP3   OH236085   4.197   0.286   1.226 -0.8084  0.5969  0.0645
 4817TIP3    H136086   4.188   0.335   1.308  0.0598 -0.5130  0.8554
 4817TIP3    H236087   4.230   0.350   1.163 -1.1905  1.3908  0.6618
 4818TIP3   OH236088   4.255   5.187   2.549  0.1094  0.3061 -0.6668
 4818TIP3    H136089   4.226   5.185   2.640  1.5863 -0.9966 -0.1708
 4818TIP3    H236090   4.318   5.260   2.546  0.0806  0.3324 -0.6431
 4819TIP3   OH236091   1.851   1.952   8.109 -0.0635  0.0301  0.2467
 4819TIP3    H136092   1.783   1.992   8.163 -0.4760 -0.5293  0.1511
 4819TIP3    H236093   1.932   1.965   8.158 -0.3087  0.2756  0.5902
 4820TIP3   OH236094   0.622   0.108   8.267 -0.0730 -0.3559 -0.8739
 4820TIP3    H136095   0.602   0.200   8.283 -1.7448 -0.4025 -2.4105
 4820TIP3    H236096   0.706   0.109   8.220 -0.4546  0.4593 -1.5646
 4821TIP3   OH236097   2.019   3.885   0.832  0.4250  0.0613 -0.2724
 4821TIP3    H136098   1.943   3.836   0.863 -0.7031  1.5461 -0.6213
 4821TIP3    H236099   1.985   3.971   0.809  2.3549  1.0558  0.3690
 4822TIP3   OH236100   1.495   3.871   1.196 -0.4702 -0.5315  0.1918
 4822TIP3    H136101   1.421   3.822   1.160 -0.1585  0.0360 -1.2840
 4822TIP3    H236102   1.477   3.962   1.175  0.3076 -0.3066  0.4601
 4823TIP3   OH236103   4.111   3.732   0.144  0.4642  0.0497  0.1017
 4823TIP3    H136104   4.155   3.665   0.093 -0.2223  1.2798 -2.2296
 4823TIP3    H236105   4.025   3.694   0.164  1.0832 -0.8080  1.2272
 4824TIP3   OH236106   0.080   5.835   1.608 -0.7305  0.2454 -0.0129
 4824TIP3    H136107   0.107   5.830   1.516  0.2819  0.2996  0.2691
 4824TIP3    H236108  -0.014   5.851   1.604 -0.8491 -0.5600 -1.0371
 4825TIP3   OH236109   4.021   6.033   8.843 -0.5646  0.3499 -0.1724
 4825TIP3    H136110   4.003   6.124   8.821 -0.6626  0.6879  1.1980
 4825TIP3    H236111   3.961   6.013   8.914 -1.5384 -1.2456 -1.3636
 4826TIP3   OH236112   6.132   5.725   9.139 -0.4574 -0.2549  0.6084
 4826TIP3    H136113   6.135   5.800   9.079 -1.6050 -0.0329  0.7890
 4826TIP3    H236114   6.179   5.656   9.093  1.6863  0.9020  0.9522
 4827TIP3   OH236115   2.508   0.544   0.299  0.3245  0.3916 -0.2512
 4827TIP3    H136116   2.448   0.601   0.346 -0.3186 -0.9972  0.6880
 4827TIP3    H236117   2.541   0.484   0.366  2.3220  0.7421 -0.8612
 4828TIP3   OH236118   1.431   2.352   2.668 -0.6182  0.0765 -0.5710
 4828TIP3    H136119   1.337   2.348   2.687 -0.1163 -0.3287  2.3455
 4828TIP3    H236120   1.443   2.435   2.622 -2.0293  1.8917  2.0645
 4829TIP3   OH236121   1.728   0.944   8.379  0.7054  0.2081  0.1605
 4829TIP3    H136122   1.695   0.854   8.375 -0.3037  0.4927  1.2472
 4829TIP3    H236123   1.735   0.972   8.288 -0.6451 -0.4079 -0.1574
 4830TIP3   OH236124   2.454   4.564   8.394 -0.2687  0.3359  0.1637
 4830TIP3    H136125   2.405   4.641   8.365  1.4068  1.7901  1.0047
 4830TIP3    H236126   2.403   4.530   8.468 -1.4578  0.0989 -0.7310
 4831TIP3   OH236127   4.388   6.669   0.758  0.2642 -0.2313 -0.1487
 4831TIP3    H136128   4.355   6.733   0.821  1.3786 -0.1755  0.4134
 4831TIP3    H236129   4.312   6.642   0.708 -0.4511  0.5526  0.4994
 4832TIP3   OH236130   3.453   5.193   2.316 -0.0974 -0.2216 -0.0038
 4832TIP3    H136131   3.384   5.227   2.374  0.2666 -0.7521  0.7578
 4832TIP3    H236132   3.508   5.140   2.374 -0.5543 -1.9695 -1.1203
 4833TIP3   OH236133   0.267   1.618   7.371 -0.4594 -0.0505 -0.2723
 4833TIP3    H136134   0.265   1.686   7.303  0.9624  0.1328 -0.1518
 4833TIP3    H236135   0.338   1.560   7.345 -0.0910 -0.1454  0.8838
 4834TIP3   OH236136   4.158   5.702   1.760 -0.0840 -0.4475  0.3591
 4834TIP3    H136137   4.172   5.703   1.665  0.4981 -0.3104  0.4436
 4834TIP3    H236138   4.063   5.690   1.770 -0.0467 -1.2925 -0.2317
 4835TIP3   OH236139   3.481   3.324   7.233  0.7334  0.2846 -0.3895
 4835TIP3    H136140   3.444   3.241   7.202  0.6223 -0.1573  0.8852
 4835TIP3    H236141   3.497   3.374   7.153 -1.2390 -0.0864 -1.0580
 4836TIP3   OH236142   2.158   4.714   7.745 -0.3915  0.0440 -0.2017
 4836TIP3    H136143   2.083   4.704   7.687 -0.7075  0.4847  0.1245
 4836TIP3    H236144   2.169   4.808   7.754 -1.3548  0.0324  1.7189
 4837TIP3   OH236145   6.153   2.846   8.967 -0.1908  0.2362 -0.2574
 4837TIP3    H136146   6.141   2.940   8.983 -1.3373 -0.1478  1.4333
 4837TIP3    H236147   6.246   2.831   8.982 -0.3638  0.7740  1.6616
 4838TIP3   OH236148   5.035   2.827   0.628  0.1467 -0.2872 -0.2403
 4838TIP3    H136149   4.959   2.781   0.591  0.3489 -1.2479  0.4955
 4838TIP3    H236150   5.104   2.761   0.629  0.1863 -0.2604  1.6886
 4839TIP3   OH236151   5.715   0.579   9.179 -0.5957 -0.2953  0.0317
 4839TIP3    H136152   5.773   0.654   9.166 -1.2232  0.2634  0.3885
 4839TIP3    H236153   5.701   0.544   9.091 -2.0214  1.3429 -0.4659
 4840TIP3   OH236154   4.322   4.976   8.132  0.2752  0.0722 -0.6338
 4840TIP3    H136155   4.323   4.881   8.120 -1.1164 -0.1283  0.4757
 4840TIP3    H236156   4.400   4.994   8.184  1.2916 -0.2583 -1.9989
 4841TIP3   OH236157   3.807   3.985   0.533 -0.2264  0.0513 -0.2569
 4841TIP3    H136158   3.832   4.004   0.624 -3.2431 -0.1476  0.7107
 4841TIP3    H236159   3.875   3.925   0.501  0.8240  0.0012  1.8949
 4842TIP3   OH236160   3.173   4.384   1.146 -0.2759 -0.7330 -0.2732
 4842TIP3    H136161   3.179   4.363   1.239  2.1596 -0.3441 -0.2783
 4842TIP3    H236162   3.232   4.322   1.103 -0.7703 -0.4105 -1.4796
 4843TIP3   OH236163   5.753   1.047   9.160 -0.0354  0.0208 -0.2162
 4843TIP3    H136164   5.784   1.035   9.250 -0.0839  0.4071 -0.1460
 4843TIP3    H236165   5.714   1.134   9.160 -0.7249 -0.2815 -0.4176
 4844TIP3   OH236166   5.598   0.061   0.716  0.2112 -0.3790  0.1491
 4844TIP3    H136167   5.531   0.015   0.766 -1.0524  1.9333  0.7377
 4844TIP3    H236168   5.681   0.037   0.758 -0.4967 -1.1969  1.1091
 4845TIP3   OH236169   4.903   0.414   1.881  0.5404 -0.0218  0.2199
 4845TIP3    H136170   4.886   0.487   1.822  1.8290  0.1841  0.0675
 4845TIP3    H236171   4.969   0.447   1.942  1.6710 -1.2508 -0.2826
 4846TIP3   OH236172   5.669   4.302   0.014 -0.4528  0.6979  0.5236
 4846TIP3    H136173   5.644   4.321   0.104  2.0604  0.9439  1.2314
 4846TIP3    H236174   5.763   4.287   0.017 -0.3114  0.5400 -2.0441
 4847TIP3   OH236175   0.557   2.813   1.802 -0.1193  0.4402  0.1823
 4847TIP3    H136176   0.495   2.779   1.867  0.3963 -1.5570 -0.3078
 4847TIP3    H236177   0.506   2.878   1.753 -1.0322  0.7268  1.4346
 4848TIP3   OH236178   2.935   4.020   0.609 -0.2880 -0.0118  0.6490
 4848TIP3    H136179   2.990   4.088   0.570 -1.6520 -0.1355 -1.7318
 4848TIP3    H236180   2.982   3.938   0.591 -0.5969 -0.0101 -0.2206
 4849TIP3   OH236181   5.931   0.003   2.234 -0.3178  0.1429 -0.2746
 4849TIP3    H136182   5.990   0.009   2.158 -0.2491 -0.2557 -0.2573
 4849TIP3    H236183   5.849   0.040   2.204 -0.7402 -1.3182 -1.0188
 4850TIP3   OH236184   2.486   0.846   9.014  0.2941 -0.1053  0.2040
 4850TIP3    H136185   2.524   0.824   9.098  0.9999  0.4470  0.0414
 4850TIP3    H236186   2.409   0.790   9.006  0.6423 -0.6809  0.8824
 4851TIP3   OH236187   2.597   4.570   2.591 -0.4236  0.1760  0.1155
 4851TIP3    H136188   2.654   4.639   2.626 -0.8607  1.7541 -2.0468
 4851TIP3    H236189   2.510   4.609   2.588 -0.5338 -0.0906 -1.9246
 4852TIP3   OH236190   3.234   6.382   8.210 -0.0443  0.0422 -0.1989
 4852TIP3    H136191   3.316   6.347   8.246  0.0670 -0.0292 -0.5168
 4852TIP3    H236192   3.192   6.308   8.168 -0.4497 -0.0009  0.2681
 4853TIP3   OH236193   4.283   0.694   1.302  0.3138 -0.0994 -0.1761
 4853TIP3    H136194   4.294   0.600   1.284  1.2188  0.0923 -0.6731
 4853TIP3    H236195   4.230   0.726   1.229  0.4198 -0.1378 -0.2716
 4854TIP3   OH236196   0.682   1.179   0.005 -0.7600 -0.1091  0.2453
 4854TIP3    H136197   0.611   1.165  -0.058 -1.2798 -0.4236  0.8873
 4854TIP3    H236198   0.690   1.095   0.051 -0.5767  0.1957  0.7855
 4855TIP3   OH236199   3.962   2.715   0.560 -0.1043  0.3360 -0.1911
 4855TIP3    H136200   3.926   2.794   0.601 -1.3038  0.6449 -1.7637
 4855TIP3    H236201   3.978   2.739   0.469  0.7227 -0.8796 -0.4038
 4856TIP3   OH236202   0.097   2.649   9.196 -0.7185 -0.0849  0.3020
 4856TIP3    H136203   0.098   2.722   9.258 -0.3040 -0.0938  0.3063
 4856TIP3    H236204   0.096   2.691   9.110 -1.8860 -0.0648  0.3025
 4857TIP3   OH236205   3.484   2.043   1.430 -0.3485  0.0839  0.0124
 4857TIP3    H136206   3.407   2.014   1.478 -0.8345  0.7268 -0.3740
 4857TIP3    H236207   3.473   2.137   1.420  0.8942  0.3191  0.6782
 4858TIP3   OH236208   1.894   2.361   9.126  0.2662 -0.1877  0.1515
 4858TIP3    H136209   1.881   2.429   9.192  1.9343 -0.0156  0.3375
 4858TIP3    H236210   1.892   2.279   9.176  1.7010 -0.0469  0.4657
 4859TIP3   OH236211   1.329   6.566   8.341  0.2927  0.2443  0.3944
 4859TIP3    H136212   1.362   6.655   8.353  2.3693 -0.5431  0.9558
 4859TIP3    H236213   1.318   6.557   8.247 -0.6918  1.3223  0.3798
 4860TIP3   OH236214   5.965   6.421   8.587  0.7965  0.1700 -0.7613
 4860TIP3    H136215   6.041   6.464   8.548  0.4440  0.7944 -0.7639
 4860TIP3    H236216   5.916   6.492   8.629  0.2802 -0.2478 -0.6491
 4861TIP3   OH236217   2.388   5.042   1.121  0.3703  0.4093 -0.0334
 4861TIP3    H136218   2.473   5.033   1.164  0.5972 -1.5300 -0.7969
 4861TIP3    H236219   2.325   5.017   1.188  0.5233  0.0752 -0.0139
 4862TIP3   OH236220   5.817   1.217   8.191  0.1040  0.8487  0.3558
 4862TIP3    H136221   5.762   1.151   8.148  1.1983 -0.0288  0.2526
 4862TIP3    H236222   5.816   1.292   8.132 -1.7692  1.2476  0.8311
 4863TIP3   OH236223   3.529   4.059   8.217 -0.2673  0.2059  0.2872
 4863TIP3    H136224   3.536   3.996   8.146 -0.2875 -0.0682  0.5287
 4863TIP3    H236225   3.469   4.019   8.279 -0.8448  0.7829  0.1061
 4864TIP3   OH236226   0.741   1.456   0.774  0.2344 -0.8189  0.1354
 4864TIP3    H136227   0.676   1.502   0.826  0.1858  0.4941 -1.0181
 4864TIP3    H236228   0.756   1.374   0.820 -1.1012 -0.4708  1.2336
 4865TIP3   OH236229   1.068   0.697   0.540  0.0165  0.4687 -0.2920
 4865TIP3    H136230   1.010   0.660   0.607 -0.4223  0.6784 -0.5474
 4865TIP3    H236231   1.022   0.776   0.509  1.1498  1.5012  0.5718
 4866TIP3   OH236232   6.584   0.425   9.093 -0.7136  0.3375 -0.2190
 4866TIP3    H136233   6.573   0.406   9.186  0.1648 -0.4634 -0.2608
 4866TIP3    H236234   6.639   0.502   9.091 -0.2139 -0.0108 -0.0733
 4867TIP3   OH236235   4.340   2.718   2.161  0.1959  0.3034 -0.1935
 4867TIP3    H136236   4.255   2.691   2.126  0.6358  1.4261 -2.3661
 4867TIP3    H236237   4.392   2.638   2.162  0.2603  0.2386 -2.6497
 4868TIP3   OH236238   1.120   2.489   2.277  0.0948  0.1711  0.5700
 4868TIP3    H136239   1.111   2.403   2.318  0.3778 -0.3437 -0.4170
 4868TIP3    H236240   1.035   2.532   2.291  0.1764  0.0234  1.6704
 4869TIP3   OH236241   6.086   1.204   8.290 -0.1169  0.2770 -0.3152
 4869TIP3    H136242   6.001   1.202   8.248 -0.7807  1.8859  0.8200
 4869TIP3    H236243   6.123   1.289   8.265  2.0296 -1.1153 -2.3097
 4870TIP3   OH236244   5.916   4.948   2.044 -0.3375 -0.0054 -0.2338
 4870TIP3    H136245   5.933   4.884   1.975  0.9088  0.3219 -0.2453
 4870TIP3    H236246   5.891   4.895   2.120 -2.6976 -0.3222 -1.1691
 4871TIP3   OH236247   0.582   1.627   2.647 -0.2929 -0.5269  0.4770
 4871TIP3    H136248   0.660   1.576   2.622  0.9724  0.7946  1.5580
 4871TIP3    H236249   0.570   1.689   2.575 -0.1555 -0.5292  0.4515
 4872TIP3   OH236250   6.026   2.775   7.247 -0.2004  0.3763  0.1772
 4872TIP3    H136251   5.946   2.826   7.265 -1.0957 -0.2102 -1.7802
 4872TIP3    H236252   6.098   2.835   7.265 -1.1226  1.2647  0.9979
 4873TIP3   OH236253   4.399   5.777   0.486  0.2024  0.0858  0.1620
 4873TIP3    H136254   4.402   5.764   0.391 -0.0947 -1.4764  0.3395
 4873TIP3    H236255   4.336   5.848   0.498 -0.3268 -0.2023 -0.7807
 4874TIP3   OH236256   0.511   5.719   1.384 -0.0077 -0.5551  0.0712
 4874TIP3    H136257   0.469   5.747   1.465 -0.1859  0.8111 -0.4564
 4874TIP3    H236258   0.605   5.735   1.398  0.1064 -1.4983  0.4437
 4875TIP3   OH236259   0.261   6.258   1.124  0.1603 -0.2290  0.0352
 4875TIP3    H136260   0.297   6.265   1.212  1.1415 -1.5852 -0.2347
 4875TIP3    H236261   0.243   6.165   1.112 -1.2346  0.0991 -0.7206
 4876TIP3   OH236262   6.003   5.841   0.174 -0.5245  0.5973 -0.4142
 4876TIP3    H136263   6.067   5.892   0.223 -0.1551  0.0342 -0.3044
 4876TIP3    H236264   6.055   5.791   0.111 -0.8711  0.2851 -0.4560
 4877TIP3   OH236265   3.925   0.552   1.456  0.4053  0.7087  0.1632
 4877TIP3    H136266   3.903   0.568   1.548 -0.7456  1.5592 -0.2313
 4877TIP3    H236267   3.877   0.619   1.408  1.6049  0.7686 -1.0183
 4878TIP3   OH236268   5.460   4.787   8.955 -0.5052  0.0121  0.5677
 4878TIP3    H136269   5.369   4.759   8.945 -1.0494  1.0775  2.1804
 4878TIP3    H236270   5.463   4.831   9.039  1.1953  1.2813 -0.0950
 4879TIP3   OH236271   4.768   4.758   0.598  0.1461 -0.2972  0.3178
 4879TIP3    H136272   4.820   4.690   0.555  0.4353  0.2117 -0.1486
 4879TIP3    H236273   4.825   4.836   0.597  0.6025 -0.5229  2.5727
 4880TIP3   OH236274   1.541   0.379   1.014  0.2383  0.0597 -0.6851
 4880TIP3    H136275   1.594   0.378   0.934 -0.4834  1.9629 -1.2457
 4880TIP3    H236276   1.491   0.298   1.011 -0.2611  0.3866 -2.5331
 4881TIP3   OH236277   5.773   6.044   8.714  0.4072  0.7513 -0.2517
 4881TIP3    H136278   5.814   6.016   8.796  2.8139  1.6559 -1.0481
 4881TIP3    H236279   5.802   5.980   8.650 -1.4624  0.0526 -0.4533
 4882TIP3   OH236280   2.990   0.693   0.316  0.2008 -0.1461  0.3136
 4882TIP3    H136281   2.995   0.659   0.405 -0.2861 -0.2822  0.2943
 4882TIP3    H236282   3.078   0.681   0.280  0.1660 -0.9338  0.4729
 4883TIP3   OH236283   6.314   5.758   2.612 -0.1207  0.3585 -0.0197
 4883TIP3    H136284   6.253   5.830   2.622  0.9444  1.1151  1.3808
 4883TIP3    H236285   6.353   5.747   2.698 -0.4732 -2.1337 -0.1007
 4884TIP3   OH236286   0.246   3.410   8.679 -0.0082 -0.0980  0.3278
 4884TIP3    H136287   0.328   3.458   8.695  1.0303 -0.6401 -2.6773
 4884TIP3    H236288   0.187   3.476   8.643 -0.0486 -0.1967  0.2126
 4885TIP3   OH236289   1.463   5.571   0.616  0.0511  0.0193  0.3435
 4885TIP3    H136290   1.402   5.574   0.542 -0.2579  0.1387  0.5982
 4885TIP3    H236291   1.416   5.615   0.687 -0.2119 -1.2925  1.0064
 4886TIP3   OH236292   0.581   6.548   7.684  0.2251 -0.3763  0.4725
 4886TIP3    H136293   0.589   6.480   7.618 -1.1179  1.4469 -1.7127
 4886TIP3    H236294   0.487   6.565   7.691  0.4772  0.8710  1.3696
 4887TIP3   OH236295   5.624   5.113   2.727  0.5041 -0.6498 -0.1026
 4887TIP3    H136296   5.716   5.113   2.752  0.3858 -1.0654  0.3283
 4887TIP3    H236297   5.593   5.025   2.748 -0.5569  0.1300  1.8529
 4888TIP3   OH236298   6.543   0.709   8.110 -0.6379 -0.4046  0.2649
 4888TIP3    H136299   6.631   0.746   8.118 -1.4427  1.9909 -0.8344
 4888TIP3    H236300   6.553   0.635   8.050  0.6555 -0.3602  0.4060
 4889TIP3   OH236301   5.123   0.467   0.822 -0.0807  0.0651  0.2575
 4889TIP3    H136302   5.062   0.496   0.890 -1.5272 -2.4857  0.1723
 4889TIP3    H236303   5.192   0.420   0.869  1.3607  2.0621  0.2599
 4890TIP3   OH236304   3.141   5.404   6.970  0.1813 -0.1777  0.3974
 4890TIP3    H136305   3.114   5.323   6.926 -1.1358  0.8107 -0.7339
 4890TIP3    H236306   3.165   5.463   6.898 -0.0329  0.8186  1.1251
 4891TIP3   OH236307   4.152   6.098   2.987 -0.1134  0.0671 -0.1996
 4891TIP3    H136308   4.179   6.041   2.915 -0.2620 -0.5584  0.2354
 4891TIP3    H236309   4.076   6.145   2.953 -0.2134 -0.2619 -0.4336
 4892TIP3   OH236310   1.713   5.042   7.138 -1.2919 -0.4458  0.2749
 4892TIP3    H136311   1.746   5.065   7.051  0.1904 -0.6372  0.7666
 4892TIP3    H236312   1.676   5.124   7.172 -1.3305 -0.2228 -0.2855
 4893TIP3   OH236313   1.140   4.926   0.690 -0.2362  0.1788 -0.0736
 4893TIP3    H136314   1.194   4.864   0.640  0.1144 -0.9003  1.5523
 4893TIP3    H236315   1.090   4.973   0.624 -0.0599 -1.4203 -1.4226
 4894TIP3   OH236316   1.091   4.047   9.167  0.4090 -0.3047  0.2991
 4894TIP3    H136317   1.154   4.061   9.097 -0.2771 -1.5086 -0.6144
 4894TIP3    H236318   1.143   4.017   9.241  0.9949 -0.6193 -0.2257
 4895TIP3   OH236319   4.827   0.607   1.715  0.2562  0.3699  0.0627
 4895TIP3    H136320   4.897   0.666   1.685  0.5807 -0.6528 -1.2612
 4895TIP3    H236321   4.748   0.641   1.672  0.3686  0.1064 -0.3582
 4896TIP3   OH236322   1.333   6.253   0.027  0.2908  0.6043  0.0810
 4896TIP3    H136323   1.305   6.263  -0.064 -0.1173 -0.3462  0.0813
 4896TIP3    H236324   1.255   6.222   0.072  0.4244  1.3158  0.8143
 4897TIP3   OH236325   5.723   1.764   0.970  0.4333 -0.3932 -0.5615
 4897TIP3    H136326   5.802   1.819   0.974  0.5486 -0.3352 -2.7173
 4897TIP3    H236327   5.652   1.826   0.952  0.0923 -0.6119  0.0153
 4898TIP3   OH236328   0.409   5.062   0.300 -0.2760 -0.3569  0.0958
 4898TIP3    H136329   0.348   5.128   0.267 -0.7666 -2.0109 -2.6485
 4898TIP3    H236330   0.354   4.999   0.347 -0.2763 -0.3856  0.0576
 4899TIP3   OH236331   0.317   2.670   8.574 -0.1288 -0.2135 -0.1316
 4899TIP3    H136332   0.385   2.737   8.576  0.1989 -0.5421  1.9487
 4899TIP3    H236333   0.359   2.596   8.529  0.2997  0.1539 -0.3528
 4900TIP3   OH236334   1.273   5.919   0.902 -0.1119  0.2906 -0.2334
 4900TIP3    H136335   1.337   5.943   0.835  0.0858  1.0936  0.2221
 4900TIP3    H236336   1.208   5.867   0.856  0.4011  0.2200 -0.8927
 4901TIP3   OH236337   4.816   5.636   7.358 -0.4226  0.0982  0.2537
 4901TIP3    H136338   4.746   5.575   7.381 -0.2185 -0.9320 -1.6428
 4901TIP3    H236339   4.770   5.713   7.322 -0.6280  0.2011  0.7324
 4902TIP3   OH236340   5.352   3.059   1.309  0.2679 -0.3685 -0.2568
 4902TIP3    H136341   5.368   3.153   1.318 -0.3113 -0.3948  1.5998
 4902TIP3    H236342   5.355   3.042   1.215 -1.5127  1.8703 -0.7999
 4903TIP3   OH236343   4.520   4.981   0.630  0.2492  0.2349 -0.4930
 4903TIP3    H136344   4.608   5.009   0.655  0.0711  0.8470 -0.5117
 4903TIP3    H236345   4.472   4.975   0.713  0.3422 -0.2202 -0.4719
 4904TIP3   OH236346   5.076   1.388   1.804 -0.0900 -0.1978  0.0082
 4904TIP3    H136347   5.053   1.437   1.726  0.6974  0.1335 -0.0224
 4904TIP3    H236348   5.068   1.296   1.778 -1.0573 -0.0933 -0.0853
 4905TIP3   OH236349   2.741   1.830   2.072 -0.3134  0.0429  0.5843
 4905TIP3    H136350   2.732   1.857   2.163  1.9226 -2.0590  1.5228
 4905TIP3    H236351   2.746   1.735   2.075  0.6884 -0.0423 -1.6292
 4906TIP3   OH236352   1.079   2.704   7.363  0.4851 -0.2080  0.2854
 4906TIP3    H136353   1.053   2.727   7.453  1.6929  0.4783  0.4828
 4906TIP3    H236354   1.015   2.750   7.308  1.2273  1.4816  0.7518
 4907TIP3   OH236355   5.324   3.679   9.169  0.7560 -0.4643 -0.0613
 4907TIP3    H136356   5.318   3.774   9.163  0.2773 -0.5708 -2.2142
 4907TIP3    H236357   5.416   3.661   9.187  0.6589  0.4113  1.4275
 4908TIP3   OH236358   1.272   6.583   9.031 -0.3277  0.4391  0.4309
 4908TIP3    H136359   1.198   6.591   9.091 -0.6241  2.1774 -0.0980
 4908TIP3    H236360   1.234   6.598   8.944  0.4127 -0.0938  0.0063
 4909TIP3   OH236361   5.593   6.597   3.040 -0.0312 -0.3393  0.5339
 4909TIP3    H136362   5.507   6.637   3.055 -0.1657  0.0982 -1.1555
 4909TIP3    H236363   5.655   6.665   3.064 -0.2561  0.8706 -1.9694
 4910TIP3   OH236364   4.350   5.330   6.790 -0.2976  0.0759  0.7628
 4910TIP3    H136365   4.442   5.357   6.795 -0.3913  0.4128  0.6809
 4910TIP3    H236366   4.301   5.410   6.808 -0.5730 -0.2576  1.5403
 4911TIP3   OH236367   4.783   0.920   1.825  0.0294 -0.2384  0.5816
 4911TIP3    H136368   4.850   0.880   1.881  1.8105  0.4430 -0.9553
 4911TIP3    H236369   4.771   1.008   1.860  2.5853  0.9042 -1.1082
 4912TIP3   OH236370   4.362   1.414   1.139  0.0653  0.3419  0.2365
 4912TIP3    H136371   4.348   1.329   1.179  0.7079  0.6922  1.2608
 4912TIP3    H236372   4.456   1.431   1.152  0.4503  0.2062 -1.9959
 4913TIP3   OH236373   5.258   5.688   1.020 -0.4024 -0.0509  0.2102
 4913TIP3    H136374   5.218   5.721   1.100 -3.2284 -0.1841 -1.0021
 4913TIP3    H236375   5.267   5.594   1.034  1.6958  0.2643  1.3130
 4914TIP3   OH236376   2.111   0.932   2.167 -0.3352  0.2008  0.2423
 4914TIP3    H136377   2.042   0.866   2.175 -2.2378  2.3221  3.4594
 4914TIP3    H236378   2.087   0.982   2.089 -1.8263  0.1797  0.6516
 4915TIP3   OH236379   6.454   2.461   7.573  0.1326 -0.2163 -0.2079
 4915TIP3    H136380   6.466   2.369   7.551 -1.3373 -0.4701 -0.0786
 4915TIP3    H236381   6.377   2.487   7.522 -0.5666  0.4422  1.1451
 4916TIP3   OH236382   1.590   5.383   0.744 -0.0709  0.6061  0.1536
 4916TIP3    H136383   1.646   5.415   0.815 -0.1605  1.2236 -0.0435
 4916TIP3    H236384   1.556   5.463   0.703  0.6170  0.2758 -1.0996
 4917TIP3   OH236385   4.198   2.317   1.487  0.0808  0.3002  0.0237
 4917TIP3    H136386   4.135   2.387   1.507  0.2709  0.9699 -1.5465
 4917TIP3    H236387   4.245   2.349   1.409  3.7220  0.7245  2.1535
 4918TIP3   OH236388   5.659   6.493   2.207 -0.5197  0.5736  0.1795
 4918TIP3    H136389   5.713   6.431   2.159 -1.5645  0.6579 -1.1379
 4918TIP3    H236390   5.601   6.531   2.142 -1.5734  1.1474  1.4005
 4919TIP3   OH236391   1.534   0.670   1.036  0.3528  0.2403  0.3102
 4919TIP3    H136392   1.489   0.690   1.118 -0.2379 -1.3242  0.4069
 4919TIP3    H236393   1.554   0.576   1.042 -0.3425 -0.0785 -1.6052
 4920TIP3   OH236394   3.409   3.091   1.916  0.2688 -0.6787 -0.0569
 4920TIP3    H136395   3.336   3.057   1.865 -0.3299 -0.0217  0.3550
 4920TIP3    H236396   3.430   3.021   1.978 -0.1677 -0.7771 -0.0179
 4921TIP3   OH236397   2.523   2.859   8.776 -0.2368 -0.5942  0.0377
 4921TIP3    H136398   2.503   2.766   8.761 -2.5941 -0.0661 -0.4997
 4921TIP3    H236399   2.584   2.859   8.850 -1.7026 -2.5170  1.3562
 4922TIP3   OH236400   0.163   0.176   7.713  0.0641  0.1244 -0.4599
 4922TIP3    H136401   0.150   0.267   7.689 -1.9196 -0.1785 -0.7332
 4922TIP3    H236402   0.168   0.177   7.809 -1.3226  0.4138 -0.3700
 4923TIP3   OH236403   5.196   2.754   2.662 -0.6032  0.3557  0.3110
 4923TIP3    H136404   5.239   2.794   2.738 -0.1181 -0.7750  0.6563
 4923TIP3    H236405   5.140   2.686   2.699  1.2517 -1.6882 -0.3937
 4924TIP3   OH236406   2.747   0.748   1.367 -0.4793 -0.1806  0.1374
 4924TIP3    H136407   2.723   0.673   1.421 -1.7001  0.1080  0.0316
 4924TIP3    H236408   2.827   0.781   1.407 -0.3539 -1.0682  0.6558
 4925TIP3   OH236409   5.925   1.130   0.236  0.3132  0.1217 -0.0552
 4925TIP3    H136410   5.979   1.057   0.205 -0.4706 -0.0794 -1.0052
 4925TIP3    H236411   5.988   1.198   0.262  1.0429 -0.7634  0.5368
 4926TIP3   OH236412   5.908   0.991   3.418 -0.3588 -0.2300 -0.2122
 4926TIP3    H136413   5.886   1.032   3.501 -1.1322  0.6731 -0.8399
 4926TIP3    H236414   5.905   1.062   3.354 -1.0405 -1.1222 -1.2163
 4927TIP3   OH236415   5.852   5.830   8.549  1.0725 -0.7382  0.6287
 4927TIP3    H136416   5.829   5.851   8.459 -0.6541  1.2021  1.4220
 4927TIP3    H236417   5.947   5.837   8.553  1.1226 -0.3143 -0.9114
 4928TIP3   OH236418   3.105   4.018   1.353 -0.2778  0.8651 -0.2947
 4928TIP3    H136419   3.130   4.029   1.262 -1.1449  0.6840 -0.5696
 4928TIP3    H236420   3.011   4.035   1.354 -0.2454  1.0296  0.5938
 4929TIP3   OH236421   3.632   1.455   9.119  0.2933 -0.0671  0.6004
 4929TIP3    H136422   3.719   1.425   9.091  1.4220  2.1395  1.5032
 4929TIP3    H236423   3.646   1.489   9.208 -1.9530 -1.4622  1.5913
 4930TIP3   OH236424   3.753   2.090   1.107 -0.6931  0.0287 -0.5113
 4930TIP3    H136425   3.696   2.158   1.143  1.1708  1.3140  0.1957
 4930TIP3    H236426   3.739   2.094   1.012  0.6964  2.7725 -0.7012
 4931TIP3   OH236427   2.941   1.096   2.599  0.2389  0.5261 -0.3008
 4931TIP3    H136428   2.946   1.191   2.605 -1.1101  0.6670 -0.9136
 4931TIP3    H236429   3.012   1.064   2.654  1.2453  1.8907 -0.7641
 4932TIP3   OH236430   6.523   0.982   2.660  0.1661  0.2994  0.6931
 4932TIP3    H136431   6.469   1.016   2.732 -0.0443 -0.8079  1.0774
 4932TIP3    H236432   6.611   0.975   2.697  0.1389  0.1126  0.7252
 4933TIP3   OH236433   3.190   4.363   1.863 -0.2754  0.0469  0.5915
 4933TIP3    H136434   3.161   4.291   1.919  2.7560  0.3237  2.7368
 4933TIP3    H236435   3.213   4.321   1.780 -3.1108 -0.6412  0.0575
 4934TIP3   OH236436   5.309   1.049   8.267 -0.3856 -0.1295 -0.0475
 4934TIP3    H136437   5.237   1.106   8.242 -0.1441 -0.6413 -2.1008
 4934TIP3    H236438   5.383   1.109   8.280 -0.9008  0.2952  1.0105
 4935TIP3   OH236439   1.956   0.382   7.992  0.0507  0.3647  0.3753
 4935TIP3    H136440   2.012   0.360   8.066  0.6955  2.1092  0.4382
 4935TIP3    H236441   2.001   0.345   7.916  0.3401  0.1783  0.6365
 4936TIP3   OH236442   0.332   2.945   0.598  0.0926 -0.4221 -0.2164
 4936TIP3    H136443   0.353   3.005   0.527  0.5340 -0.5225 -0.1709
 4936TIP3    H236444   0.253   2.982   0.638 -1.7223 -1.6992 -2.3330
 4937TIP3   OH236445   1.615   1.442   1.398 -0.1739 -0.5149 -0.3261
 4937TIP3    H136446   1.591   1.390   1.321 -0.2186 -0.4723 -0.3410
 4937TIP3    H236447   1.585   1.531   1.377 -0.7067 -0.6191 -0.0192
 4938TIP3   OH236448   0.201   4.043   0.797  0.0757  0.4931 -0.6061
 4938TIP3    H136449   0.220   4.109   0.730  0.4866  1.8488  0.7961
 4938TIP3    H236450   0.166   4.093   0.871  0.6652 -0.8267  0.6086
 4939TIP3   OH236451   5.535   5.210   2.113 -0.1536 -1.0741  0.4468
 4939TIP3    H136452   5.551   5.152   2.187  1.8212 -0.8216  0.2770
 4939TIP3    H236453   5.601   5.184   2.048 -1.5409 -0.9792 -1.0447
 4940TIP3   OH236454   0.645   1.623   1.853  0.2325 -0.3632 -0.3412
 4940TIP3    H136455   0.700   1.547   1.873  1.2721  0.4148 -0.1477
 4940TIP3    H236456   0.555   1.591   1.864  0.6717 -1.1235  1.3672
 4941TIP3   OH236457   5.561   3.945   7.634  0.3279  0.9888  0.2334
 4941TIP3    H136458   5.485   3.924   7.579  0.4453 -1.7119  0.9735
 4941TIP3    H236459   5.539   3.909   7.720  2.1095  0.8557  0.6759
 4942TIP3   OH236460   5.322   3.632   0.997  0.3180  0.3639  0.4010
 4942TIP3    H136461   5.344   3.673   1.080  0.1793  0.6535  0.2954
 4942TIP3    H236462   5.336   3.700   0.931 -0.2174  0.3453  0.2564
 4943TIP3   OH236463   5.631   1.992   2.841  0.0399 -0.3256 -0.5572
 4943TIP3    H136464   5.715   2.025   2.872 -0.0791 -1.3451  0.9827
 4943TIP3    H236465   5.569   2.063   2.857 -0.0082 -0.7963  1.6487
 4944TIP3   OH236466   5.905   5.161   6.936  0.0688  1.0043  0.2530
 4944TIP3    H136467   5.894   5.174   7.031  2.3865  0.4348  0.6672
 4944TIP3    H236468   5.953   5.238   6.907  0.4271  0.6057 -0.2191
 4945TIP3   OH236469   4.802   6.181   0.146 -0.0613 -0.2386 -0.1697
 4945TIP3    H136470   4.732   6.118   0.133 -0.2496  0.0068 -0.3528
 4945TIP3    H236471   4.760   6.256   0.188  0.2285 -0.3718  0.3679
 4946TIP3   OH236472   4.267   0.137   9.091  0.0948  0.5534 -0.2590
 4946TIP3    H136473   4.358   0.110   9.104 -0.2864 -0.4374  0.4392
 4946TIP3    H236474   4.216   0.058   9.108 -0.9122  1.1596 -0.4129
 4947TIP3   OH236475   3.880   0.796   7.632  0.2155 -0.2625 -0.1758
 4947TIP3    H136476   3.971   0.788   7.605 -0.2522  0.3081 -2.0663
 4947TIP3    H236477   3.864   0.719   7.688  1.2916 -1.4681 -1.4698
 4948TIP3   OH236478   4.346   6.391   8.247 -0.0087  0.1362  0.0330
 4948TIP3    H136479   4.271   6.362   8.298 -0.0465  1.6606  0.8952
 4948TIP3    H236480   4.421   6.381   8.306  0.0576  1.2256  0.1429
 4949TIP3   OH236481   5.885   3.452   0.162 -0.2858  0.5381 -0.7079
 4949TIP3    H136482   5.841   3.461   0.078 -1.2981 -2.1895 -0.5792
 4949TIP3    H236483   5.867   3.533   0.208 -2.6485  0.7144 -1.8200
 4950TIP3   OH236484   3.918   3.269   1.782  0.5564 -0.4393 -0.6360
 4950TIP3    H136485   3.852   3.226   1.836  0.3854 -0.8802 -1.1935
 4950TIP3    H236486   3.969   3.197   1.745 -0.7331 -0.2868 -2.8777
 4951TIP3   OH236487   1.645   4.404   0.371 -0.6830  0.2149  0.4567
 4951TIP3    H136488   1.592   4.341   0.322 -0.3536 -0.4777  0.9717
 4951TIP3    H236489   1.710   4.435   0.307 -1.4709  0.7887 -0.0732
 4952TIP3   OH236490   5.819   1.426   9.145 -0.8498 -0.0328  0.2811
 4952TIP3    H136491   5.837   1.473   9.226 -0.0601  0.3355 -0.0898
 4952TIP3    H236492   5.898   1.374   9.129 -1.3174 -0.7297  0.1636
 4953TIP3   OH236493   0.920   1.229   8.675 -0.2318  0.0729 -0.2184
 4953TIP3    H136494   0.915   1.313   8.720  1.8965  0.2241 -0.1742
 4953TIP3    H236495   0.893   1.249   8.585 -1.0517  0.5111  0.1153
 4954TIP3   OH236496   1.593   3.661   3.018 -0.6627  0.1400 -0.2726
 4954TIP3    H136497   1.541   3.721   3.071 -0.2600  0.1305  0.1415
 4954TIP3    H236498   1.684   3.678   3.044 -0.5756 -1.0150  0.2499
 4955TIP3   OH236499   2.785   6.290   8.580 -0.3681  0.0641 -0.0825
 4955TIP3    H136500   2.854   6.347   8.617 -1.1766  0.9858  0.0473
 4955TIP3    H236501   2.729   6.350   8.531 -0.1092 -0.9352 -1.6548
 4956TIP3   OH236502   1.858   3.981   8.844  0.1900 -0.6980  0.3303
 4956TIP3    H136503   1.928   3.938   8.796 -0.0694  0.0741 -0.7638
 4956TIP3    H236504   1.816   4.040   8.780 -2.1187 -1.8823  0.6417
 4957TIP3   OH236505   5.319   2.730   3.182  0.2579 -0.3452 -0.2504
 4957TIP3    H136506   5.383   2.660   3.197  0.6595  0.1237  0.3020
 4957TIP3    H236507   5.263   2.728   3.260  1.3925  1.1088  0.6399
 4958TIP3   OH236508   1.762   2.288   1.566 -0.1864  0.4168  0.5391
 4958TIP3    H136509   1.793   2.373   1.533  3.1252 -0.8926 -0.0871
 4958TIP3    H236510   1.824   2.265   1.634 -0.9468 -1.5830  0.6138
 4959TIP3   OH236511   1.129   5.086   1.114 -0.2952 -0.6738  0.8502
 4959TIP3    H136512   1.126   5.021   1.044  0.1304 -0.8327  0.9730
 4959TIP3    H236513   1.048   5.073   1.163  1.0603 -3.1390  2.6559
 4960TIP3   OH236514   4.624   4.949   3.067  0.6920 -0.7540 -0.0324
 4960TIP3    H136515   4.696   4.988   3.116 -0.2963  0.8149  0.2425
 4960TIP3    H236516   4.646   4.966   2.975  0.7727 -0.4741  0.0383
 4961TIP3   OH236517   0.708   3.765   0.033  0.1055  0.1363 -0.1931
 4961TIP3    H136518   0.731   3.853   0.002  0.4854 -0.0124 -0.3433
 4961TIP3    H236519   0.688   3.777   0.126  0.3659  0.3449 -0.1615
 4962TIP3   OH236520   6.107   5.262   1.920 -0.1519  0.1259 -0.1129
 4962TIP3    H136521   6.136   5.185   1.969  0.1957  0.2259 -0.1598
 4962TIP3    H236522   6.099   5.331   1.987  1.5601  0.6102 -0.3623
 4963TIP3   OH236523   6.534   4.972   1.193 -0.0621 -0.1506 -0.1978
 4963TIP3    H136524   6.561   4.880   1.187 -0.1237 -0.2579  0.9647
 4963TIP3    H236525   6.499   4.992   1.107 -2.3833 -1.9591  0.2328
 4964TIP3   OH236526   4.537   4.066   1.167  0.3360  0.1146 -0.2329
 4964TIP3    H136527   4.513   3.975   1.184 -2.0041  0.6993  0.0161
 4964TIP3    H236528   4.459   4.116   1.192  1.1840  2.1027 -1.3338
 4965TIP3   OH236529   3.618   0.726   9.191  0.1252  0.4111 -0.1870
 4965TIP3    H136530   3.562   0.716   9.268 -0.0432  2.0814 -0.0630
 4965TIP3    H236531   3.560   0.709   9.117 -0.2237  0.8348 -0.0118
 4966TIP3   OH236532   5.860   4.836   2.290 -0.0130  0.2790  0.4141
 4966TIP3    H136533   5.879   4.746   2.317  0.4563  0.3716  0.4127
 4966TIP3    H236534   5.880   4.889   2.368 -1.2592  0.2915  0.7425
 4967TIP3   OH236535   6.190   0.538   7.911 -0.3497  0.1684 -0.4382
 4967TIP3    H136536   6.224   0.449   7.899  1.3546  0.8471 -0.9954
 4967TIP3    H236537   6.195   0.553   8.005 -0.3171 -0.2077 -0.3778
 4968TIP3   OH236538   3.834   4.095   2.395 -0.7232 -0.0816  0.0143
 4968TIP3    H136539   3.822   4.189   2.408  0.6691 -0.0138  1.0653
 4968TIP3    H236540   3.798   4.055   2.474 -2.2641 -0.5517 -0.8756
 4969TIP3   OH236541   4.256   0.664   0.872  0.5287 -0.2828  0.2804
 4969TIP3    H136542   4.235   0.703   0.957  0.1794  0.7639 -0.2751
 4969TIP3    H236543   4.349   0.641   0.879  0.7660  0.7239  0.5954
 4970TIP3   OH236544   6.630   3.491   2.831  0.1337  0.2573  0.4501
 4970TIP3    H136545   6.630   3.396   2.844  2.9638  0.1959  0.6955
 4970TIP3    H236546   6.643   3.527   2.919  2.1300  0.6592  0.0446
 4971TIP3   OH236547   4.982   3.744   8.844  0.4394 -0.1612 -0.2311
 4971TIP3    H136548   5.068   3.702   8.842 -0.3471 -2.0598 -4.2973
 4971TIP3    H236549   4.997   3.831   8.806  0.5659 -0.7030 -1.4823
 4972TIP3   OH236550   5.820   0.551   8.347 -0.2282  0.3812 -0.4838
 4972TIP3    H136551   5.903   0.527   8.389 -1.0379  0.8401  1.4392
 4972TIP3    H236552   5.806   0.642   8.370 -1.4007  0.2421 -0.5924
 4973TIP3   OH236553   2.778   0.045   1.451 -0.4616 -0.6245 -0.2728
 4973TIP3    H136554   2.768   0.043   1.546  1.3761  0.3656 -0.0030
 4973TIP3    H236555   2.872   0.057   1.437 -0.7346 -0.3551 -2.2084
 4974TIP3   OH236556   4.879   0.048   9.169 -0.2682  0.2783  0.1706
 4974TIP3    H136557   4.921   0.021   9.250  2.2814 -0.6360 -1.3512
 4974TIP3    H236558   4.899   0.142   9.162  1.2229 -0.0514 -0.3121
 4975TIP3   OH236559   0.608   2.266   7.840 -0.2519 -0.0759 -0.5032
 4975TIP3    H136560   0.603   2.203   7.768 -0.2826 -2.0255  1.1023
 4975TIP3    H236561   0.518   2.277   7.869 -0.2743  0.9183 -0.8983
 4976TIP3   OH236562   0.876   1.531   8.487 -0.1903  0.0294  0.3145
 4976TIP3    H136563   0.971   1.540   8.499 -0.1093  0.0413 -0.2706
 4976TIP3    H236564   0.848   1.616   8.453 -0.0593 -0.6069 -1.5112
 4977TIP3   OH236565   3.522   4.173   1.757  0.0312 -0.0702 -0.2518
 4977TIP3    H136566   3.432   4.147   1.778 -0.3091  1.8738  0.9048
 4977TIP3    H236567   3.568   4.090   1.741 -1.8395 -1.1196 -0.4254
 4978TIP3   OH236568   0.769   1.230   1.423  0.3185 -0.2729 -0.2326
 4978TIP3    H136569   0.712   1.306   1.437  1.1956  0.5158 -0.8630
 4978TIP3    H236570   0.852   1.254   1.465  0.1895 -1.4524  0.7629
 4979TIP3   OH236571   4.571   4.966   1.203  0.4759  0.2174 -0.0662
 4979TIP3    H136572   4.593   4.926   1.287 -1.1415  0.0366  0.3096
 4979TIP3    H236573   4.544   5.055   1.225 -1.3620 -0.2829 -0.1817
 4980TIP3   OH236574   4.088   4.708   8.676 -0.3280 -0.0118  0.3698
 4980TIP3    H136575   4.174   4.679   8.645  0.7402  0.9537  2.2184
 4980TIP3    H236576   4.026   4.647   8.637  1.4574 -2.5856  1.2821
 4981TIP3   OH236577   2.459   6.305   0.703 -0.5990  0.8793  0.3801
 4981TIP3    H136578   2.530   6.362   0.675  1.1649 -0.7548  1.3198
 4981TIP3    H236579   2.463   6.305   0.799  1.2326 -2.7651  0.4621
 4982TIP3   OH236580   4.327   4.621   8.586  0.1379 -0.3225  0.3891
 4982TIP3    H136581   4.281   4.595   8.506 -1.4756  0.2938  1.0554
 4982TIP3    H236582   4.410   4.574   8.583 -0.9143 -2.2513 -0.4584
 4983TIP3   OH236583   2.561   3.335   7.003 -0.6766  0.2401 -0.0963
 4983TIP3    H136584   2.549   3.245   6.973 -0.3444  0.2622 -0.3006
 4983TIP3    H236585   2.481   3.380   6.974  0.4592  0.7287 -2.7633
 4984TIP3   OH236586   4.285   0.145   0.994 -0.2945 -0.4414  0.3376
 4984TIP3    H136587   4.361   0.198   1.018 -1.5979  1.9886 -0.5480
 4984TIP3    H236588   4.216   0.173   1.054 -1.3270 -0.2437 -0.8896
 4985TIP3   OH236589   4.783   4.844   1.032  0.3552 -0.0057 -0.2805
 4985TIP3    H136590   4.748   4.764   0.993 -1.0968  0.3284  0.2679
 4985TIP3    H236591   4.710   4.880   1.082  1.2481  1.2063  0.1964
 4986TIP3   OH236592   3.045   5.407   1.371  0.4580  0.4568  0.3578
 4986TIP3    H136593   2.989   5.336   1.341  0.2117  0.9097 -0.2805
 4986TIP3    H236594   3.050   5.467   1.297  0.4004  1.2675  0.9864
 4987TIP3   OH236595   3.033   4.997   1.643 -0.3316  0.1898 -0.2334
 4987TIP3    H136596   2.977   4.960   1.711  0.0642  0.3787  0.2085
 4987TIP3    H236597   3.011   5.091   1.642 -1.0488  0.0251 -1.0702
 4988TIP3   OH236598   2.940   3.868   8.461  0.1629 -0.2061  0.6065
 4988TIP3    H136599   3.011   3.852   8.523  1.1416  0.4543 -0.3225
 4988TIP3    H236600   2.980   3.917   8.390 -0.6899 -1.8207 -1.0672
 4989TIP3   OH236601   5.133   5.709   1.373  0.3645  0.1896 -0.4860
 4989TIP3    H136602   5.171   5.643   1.316  0.4710 -0.2429  0.0800
 4989TIP3    H236603   5.171   5.792   1.343  1.1832 -0.1507 -0.4031
 4990TIP3   OH236604   3.198   2.834   8.320 -0.0174  0.1438 -0.3372
 4990TIP3    H136605   3.196   2.766   8.252 -0.4957  0.2337 -0.4203
 4990TIP3    H236606   3.277   2.884   8.301  0.7752 -0.8704  0.2066
 4991TIP3   OH236607   0.591   4.363   1.562 -0.3975 -0.7455  0.1793
 4991TIP3    H136608   0.529   4.396   1.627 -1.0480 -0.1614 -0.7156
 4991TIP3    H236609   0.551   4.385   1.478  1.1164 -0.1843 -0.4210
 4992TIP3   OH236610   4.104   1.842   2.296  0.4089 -0.8068 -0.1444
 4992TIP3    H136611   4.156   1.829   2.376 -0.6100  1.0101  0.8524
 4992TIP3    H236612   4.029   1.783   2.307  0.4513 -0.8236  0.0706
 4993TIP3   OH236613   1.334   2.522   1.509  0.1837  0.1866 -0.9207
 4993TIP3    H136614   1.284   2.454   1.463  0.3373 -0.2164 -0.5035
 4993TIP3    H236615   1.381   2.474   1.577 -0.3519  0.8264 -0.0870
 4994TIP3   OH236616   5.001   2.513   8.007  0.1498 -0.4447  0.0358
 4994TIP3    H136617   5.013   2.467   7.924 -3.1919 -0.9847 -0.2836
 4994TIP3    H236618   5.040   2.599   7.992  0.6477 -0.9298 -1.6633
 4995TIP3   OH236619   0.272   1.547   2.678  0.3642 -0.4869  0.4713
 4995TIP3    H136620   0.309   1.634   2.660 -1.8898  0.4561  0.0374
 4995TIP3    H236621   0.252   1.548   2.772  2.4182 -1.4385  0.9618
 4996TIP3   OH236622   0.511   1.311   8.372 -0.2894  0.9175 -0.3037
 4996TIP3    H136623   0.466   1.254   8.310  0.3984  0.3504 -0.3013
 4996TIP3    H236624   0.467   1.395   8.365 -2.0126  0.1181  0.4396
 4997TIP3   OH236625   5.182   4.928   7.039 -0.0823  0.1606 -0.1652
 4997TIP3    H136626   5.272   4.901   7.017 -0.1068  1.6430 -2.4522
 4997TIP3    H236627   5.194   4.995   7.106  0.5472  0.3708 -0.4707
 4998TIP3   OH236628   5.524   0.857   9.184 -0.1168  0.0735 -0.3834
 4998TIP3    H136629   5.602   0.885   9.134 -0.9800  0.3190 -1.6560
 4998TIP3    H236630   5.451   0.874   9.124 -1.0948 -0.7312  0.5568
 4999TIP3   OH236631   3.026   1.262   1.593  0.0472 -0.3349  0.3922
 4999TIP3    H136632   2.986   1.256   1.506  1.9101 -0.9446 -0.4768
 4999TIP3    H236633   2.986   1.191   1.643  0.0298 -0.9397 -0.4559
 5000TIP3   OH236634   3.173   6.156   8.545 -0.2118 -0.5264 -0.0647
 5000TIP3    H136635   3.142   6.178   8.457 -0.0092 -0.5470 -0.1419
 5000TIP3    H236636   3.096   6.119   8.589 -0.2740 -0.6582 -0.2821
 5001TIP3   OH236637   2.381   0.944   2.255  0.5060  0.7576  0.3452
 5001TIP3    H136638   2.292   0.949   2.221  1.1974 -2.3427 -2.3757
 5001TIP3    H236639   2.384   0.862   2.304  2.6228 -1.2083 -2.7331
 5002TIP3   OH236640   6.383   2.647   3.218 -0.4602 -0.0650  0.3332
 5002TIP3    H136641   6.460   2.593   3.204 -0.9780 -0.8696  0.5022
 5002TIP3    H236642   6.332   2.600   3.284 -2.2258 -0.7727 -1.4327
 5003TIP3   OH236643   5.259   6.017   0.764 -0.1909  0.1904 -0.0791
 5003TIP3    H136644   5.285   5.927   0.741 -1.6443 -0.2807  0.0134
 5003TIP3    H236645   5.166   6.010   0.785  0.1774  1.2970  2.2274
 5004TIP3   OH236646   0.854   4.520   1.586 -0.7334  0.1968 -0.1394
 5004TIP3    H136647   0.837   4.596   1.530  0.8281  0.7649  0.1100
 5004TIP3    H236648   0.787   4.456   1.560 -1.1434  1.0958 -1.4089
 5005TIP3   OH236649   0.333   4.373   7.876 -0.0179 -0.1974  0.0719
 5005TIP3    H136650   0.248   4.369   7.919 -0.2169  0.0240 -0.2974
 5005TIP3    H236651   0.313   4.368   7.783  0.1792  2.3136 -0.1647
 5006TIP3   OH236652   1.864   0.684   8.075  0.0717 -0.1505  0.1595
 5006TIP3    H136653   1.808   0.759   8.089 -0.7682 -0.3916 -1.5734
 5006TIP3    H236654   1.917   0.708   7.998  0.5032 -0.9304  0.2008
 5007TIP3   OH236655   1.764   3.907   1.626  0.9793  0.0658  0.1906
 5007TIP3    H136656   1.747   3.871   1.712 -0.6206 -0.8560 -0.4789
 5007TIP3    H236657   1.855   3.884   1.608  1.2842  0.1359  1.5368
 5008TIP3   OH236658   4.472   4.774   3.180 -0.0874  0.6056 -0.6137
 5008TIP3    H136659   4.382   4.801   3.165  0.1599  1.3780 -0.7466
 5008TIP3    H236660   4.524   4.836   3.129  0.4514 -0.7693 -1.8199
 5009TIP3   OH236661   0.053   4.432   8.162  0.2457  0.0866 -0.0932
 5009TIP3    H136662   0.007   4.432   8.246  0.4399  0.3097  0.0136
 5009TIP3    H236663   0.129   4.376   8.175  0.3759  0.2689 -0.0649
 5010TIP3   OH236664   2.280   3.485   1.310  0.6859 -0.4417 -0.2644
 5010TIP3    H136665   2.335   3.419   1.266  2.2369  1.1415 -0.8179
 5010TIP3    H236666   2.307   3.480   1.401  1.0159 -0.3738 -0.3553
 5011TIP3   OH236667   0.971   3.935   7.564 -0.1222  0.0970 -0.2412
 5011TIP3    H136668   0.934   3.863   7.513  0.4016 -0.9214  0.7680
 5011TIP3    H236669   1.066   3.927   7.551 -0.0321  0.2973  0.2649
 5012TIP3   OH236670   2.412   2.912   9.182  0.5796 -0.1679 -0.1081
 5012TIP3    H136671   2.455   2.962   9.113  1.5836 -1.3722 -0.3825
 5012TIP3    H236672   2.460   2.830   9.186 -0.8794 -1.0380  0.4813
 5013TIP3   OH236673   6.266   0.571   2.101  1.0224 -0.0746 -0.8800
 5013TIP3    H136674   6.305   0.648   2.059  1.9567 -0.1551 -0.2084
 5013TIP3    H236675   6.179   0.563   2.062  0.9943  1.1957 -1.1031
 5014TIP3   OH236676   2.235   6.346   1.309  0.4504 -0.0062  0.5713
 5014TIP3    H136677   2.283   6.265   1.296  1.2824  0.6830 -0.9542
 5014TIP3    H236678   2.159   6.339   1.251  0.4856  0.2687  0.4884
 5015TIP3   OH236679   3.440   2.092   0.403 -0.0713  0.5687 -0.5735
 5015TIP3    H136680   3.360   2.083   0.454 -0.6412  0.2900 -1.4862
 5015TIP3    H236681   3.485   2.008   0.413  0.0741  0.6967 -0.1246
 5016TIP3   OH236682   3.416   1.774   0.625  0.2254 -0.0048  0.3869
 5016TIP3    H136683   3.403   1.682   0.603  1.4723 -0.0687 -0.1762
 5016TIP3    H236684   3.328   1.811   0.626 -0.2519 -1.0850  0.1250
 5017TIP3   OH236685   2.406   5.725   1.822  0.3187  0.1319  0.5252
 5017TIP3    H136686   2.367   5.688   1.901 -1.4363  1.9999  0.6193
 5017TIP3    H236687   2.446   5.651   1.778 -2.8021 -1.9088  0.7872
 5018TIP3   OH236688   2.494   6.277   0.974 -0.4485 -0.7431  0.1516
 5018TIP3    H136689   2.541   6.211   1.023  1.9739  1.1512  0.5624
 5018TIP3    H236690   2.469   6.343   1.040 -0.2792  0.1228 -0.6283
 5019TIP3   OH236691   4.211   3.039   7.609  0.1512  0.0946  0.3584
 5019TIP3    H136692   4.301   3.055   7.578  0.5525 -1.2743  0.7490
 5019TIP3    H236693   4.183   3.124   7.644  1.2592  0.5687  0.1614
 5020TIP3   OH236694   5.049   3.578   7.580  0.1949 -1.0033  0.3352
 5020TIP3    H136695   4.960   3.547   7.569  0.1994 -0.7670 -0.5024
 5020TIP3    H236696   5.083   3.583   7.490  0.8465 -0.5140  0.6034
 5021TIP3   OH236697   0.236   1.585   2.966 -0.2312 -0.1201  0.0474
 5021TIP3    H136698   0.238   1.679   2.983 -1.1887 -0.2392  0.8974
 5021TIP3    H236699   0.248   1.545   3.052 -3.3092 -0.7463  0.2906
 5022TIP3   OH236700   4.475   6.254   9.126  0.0533 -0.0066  0.1714
 5022TIP3    H136701   4.523   6.315   9.182 -0.4638 -0.1287  0.7554
 5022TIP3    H236702   4.543   6.214   9.072  0.1959  2.8800 -2.0398
 5023TIP3   OH236703   2.506   1.671   2.483  0.6057 -0.4136 -0.2001
 5023TIP3    H136704   2.600   1.687   2.493  0.5228 -0.2710  0.3467
 5023TIP3    H236705   2.470   1.684   2.570 -0.1782  1.2611 -0.7304
 5024TIP3   OH236706   3.542   1.854   8.219 -0.5338 -0.4744  0.3742
 5024TIP3    H136707   3.495   1.771   8.207 -1.7529  0.3605 -0.8091
 5024TIP3    H236708   3.623   1.843   8.169  0.1822 -1.5695  1.6679
 5025TIP3   OH236709   4.924   2.283   7.206  0.3044  0.2394  0.4952
 5025TIP3    H136710   4.934   2.198   7.250  2.5239 -0.5759 -1.4068
 5025TIP3    H236711   4.852   2.269   7.145  1.5389 -0.7650 -0.7809
 5026TIP3   OH236712   4.688   3.819   1.456 -0.0558  0.0278  0.0096
 5026TIP3    H136713   4.631   3.839   1.382 -0.9191  0.6086  0.8123
 5026TIP3    H236714   4.770   3.864   1.436 -0.8687  1.6808  0.2283
 5027TIP3   OH236715   0.967   2.272   2.416 -0.5360  0.2140  0.2883
 5027TIP3    H136716   0.960   2.210   2.489  1.3716 -1.9567 -1.2246
 5027TIP3    H236717   0.921   2.230   2.344  0.3212  0.8007 -0.6273
 5028TIP3   OH236718   4.553   0.129   0.275 -0.2072  0.0797 -0.0588
 5028TIP3    H136719   4.531   0.036   0.269 -1.9378  0.5410 -3.3931
 5028TIP3    H236720   4.475   0.171   0.312  1.1866  0.1666  3.1085
 5029TIP3   OH236721   4.420   4.455   2.141 -0.1334  0.3340  0.1171
 5029TIP3    H136722   4.441   4.523   2.205  1.1946 -0.1407  0.2121
 5029TIP3    H236723   4.324   4.450   2.142 -0.3500  2.9651 -0.7090
 5030TIP3   OH236724   1.101   0.297   0.001  0.1607  0.0231  0.1939
 5030TIP3    H136725   1.095   0.336   0.089  0.6776  0.3777  0.0817
 5030TIP3    H236726   1.190   0.318  -0.027 -0.0519  0.0355 -0.4766
 5031TIP3   OH236727   1.286   1.983   1.690 -0.0531  0.1434  0.2960
 5031TIP3    H136728   1.289   1.892   1.660  0.4821  0.2283  0.0806
 5031TIP3    H236729   1.373   2.018   1.669  0.0468  0.4467  1.1787
 5032TIP3   OH236730   6.148   3.922   9.152  0.1306  0.4155  0.8818
 5032TIP3    H136731   6.165   3.982   9.080  0.9022 -0.7956  0.0321
 5032TIP3    H236732   6.071   3.872   9.125 -0.8239  1.3304  1.8092
 5033TIP3   OH236733   0.282   5.993   1.149 -0.4685  0.2736 -0.3639
 5033TIP3    H136734   0.264   5.920   1.208  2.2178  0.0552  0.3159
 5033TIP3    H236735   0.377   6.004   1.153 -0.3398  1.1942 -3.5644
 5034TIP3   OH236736   1.897   1.882   0.014 -0.2036  0.0217 -0.0510
 5034TIP3    H136737   1.939   1.804   0.051  0.9931 -0.3039 -1.9527
 5034TIP3    H236738   1.809   1.882   0.051  0.7511 -0.4975  2.3867
 5035TIP3   OH236739   5.058   1.239   0.111 -0.1273 -0.3117  0.6713
 5035TIP3    H136740   4.980   1.277   0.152  0.8051  0.5684  1.6842
 5035TIP3    H236741   5.023   1.180   0.044 -1.6604  0.6151  0.5922
 5036TIP3   OH236742   0.892   6.659   0.644  0.1056 -0.2761 -0.5661
 5036TIP3    H136743   0.814   6.603   0.644 -0.7744  0.8599  1.4445
 5036TIP3    H236744   0.964   6.598   0.627 -1.0334 -1.6201 -0.8641
 5037TIP3   OH236745   2.742   2.410   7.973 -0.9973 -0.1038  0.1579
 5037TIP3    H136746   2.782   2.341   8.025  0.7906  1.4086  0.9107
 5037TIP3    H236747   2.728   2.371   7.887  2.1175 -0.7849 -0.1512
 5038TIP3   OH236748   5.511   5.266   8.604  0.5067 -0.2336 -0.0567
 5038TIP3    H136749   5.454   5.319   8.549 -0.0128 -0.6964  0.0334
 5038TIP3    H236750   5.599   5.295   8.581  0.2118  1.4741  0.7994
 5039TIP3   OH236751   5.783   5.163   1.956  0.2480  0.1586  0.1180
 5039TIP3    H136752   5.852   5.183   1.893 -1.4465 -0.9124 -2.2098
 5039TIP3    H236753   5.815   5.088   2.005  0.9655  0.0450 -0.5232
 5040TIP3   OH236754   5.930   5.045   7.313  0.2254 -0.2089 -0.0799
 5040TIP3    H136755   5.970   5.008   7.234  0.2280 -0.0420 -0.1572
 5040TIP3    H236756   5.919   5.138   7.293  0.5713 -0.0943  0.2563
 5041TIP3   OH236757   1.757   5.144   8.302 -0.4353  0.1393  0.0731
 5041TIP3    H136758   1.781   5.108   8.217  2.0888 -0.2122  0.8408
 5041TIP3    H236759   1.736   5.067   8.356 -1.6733  0.3356 -0.1077
 5042TIP3   OH236760   6.601   5.512   8.184 -0.0605 -0.2056 -0.4821
 5042TIP3    H136761   6.627   5.602   8.203 -0.1357 -0.5574  1.4425
 5042TIP3    H236762   6.530   5.521   8.121 -1.5358  1.2308  1.2743
 5043TIP3   OH236763   1.467   2.558   8.827  0.1023 -0.0401  0.2176
 5043TIP3    H136764   1.503   2.537   8.741 -0.4115 -1.6756  0.3606
 5043TIP3    H236765   1.498   2.646   8.846 -0.5507  0.7404 -2.0583
 5044TIP3   OH236766   1.356   1.149   0.071 -0.5357 -0.3477 -0.2416
 5044TIP3    H136767   1.427   1.097   0.108 -1.2168 -0.1652  1.4463
 5044TIP3    H236768   1.311   1.186   0.148 -1.3019  1.0693 -1.3177
 5045TIP3   OH236769   5.912   5.432   7.656 -0.4488 -0.2794 -0.2131
 5045TIP3    H136770   5.942   5.485   7.583 -0.6161  0.4764  0.2574
 5045TIP3    H236771   5.818   5.421   7.640 -0.2184 -1.4389 -0.9254
 5046TIP3   OH236772   5.854   2.927   8.504  0.0475  0.3707  0.0311
 5046TIP3    H136773   5.894   3.001   8.460  1.0001  0.8028  1.5491
 5046TIP3    H236774   5.765   2.956   8.524  0.2851  0.9590  0.2482
 5047TIP3   OH236775   1.606   2.998   2.459  0.0289 -0.3572  0.0227
 5047TIP3    H136776   1.685   2.971   2.411  0.1217 -1.3266  0.7101
 5047TIP3    H236777   1.561   2.917   2.480 -0.9224  0.1629  0.0637
 5048TIP3   OH236778   4.595   4.852   8.538  0.2781 -0.3199  0.3635
 5048TIP3    H136779   4.632   4.806   8.463  1.0003 -2.4467  1.9100
 5048TIP3    H236780   4.670   4.892   8.582 -0.1753  1.1850 -0.1818
 5049TIP3   OH236781   4.131   6.288   0.560 -0.1782 -0.1889  0.0291
 5049TIP3    H136782   4.165   6.207   0.523  0.9123  0.6586 -0.8985
 5049TIP3    H236783   4.146   6.279   0.654  2.5052  0.0055 -0.2831
 5050TIP3   OH236784   2.649   5.128   7.715  0.7311  0.5059 -0.0106
 5050TIP3    H136785   2.734   5.163   7.741  0.6208  0.1391  0.8693
 5050TIP3    H236786   2.632   5.168   7.629  1.9209  0.3441 -0.3387
 5051TIP3   OH236787   6.647   6.410   8.387 -0.0222 -0.1023 -0.0625
 5051TIP3    H136788   6.627   6.322   8.354 -1.7129  1.0389 -2.3961
 5051TIP3    H236789   6.688   6.395   8.472  0.8237 -3.1722 -0.8629
 5052TIP3   OH236790   6.456   0.212   1.609  0.6752  0.0790  0.2151
 5052TIP3    H136791   6.484   0.159   1.535  1.2711 -0.3452  0.7336
 5052TIP3    H236792   6.432   0.297   1.571  0.0165 -0.4449 -0.5794
 5053TIP3   OH236793   5.041   5.461   7.978  0.1850  0.4659 -0.3375
 5053TIP3    H136794   4.946   5.447   7.976  0.3329 -1.4371  1.8063
 5053TIP3    H236795   5.076   5.397   7.916  0.1728 -0.6396  0.7618
 5054TIP3   OH236796   5.181   3.201   7.953 -1.1067  0.1262  0.0035
 5054TIP3    H136797   5.235   3.272   7.987 -3.0676  2.0964 -0.7637
 5054TIP3    H236798   5.130   3.171   8.028 -0.5238 -0.2342  0.2563
 5055TIP3   OH236799   5.372   0.975   2.682 -0.2053  0.2124  0.1516
 5055TIP3    H136800   5.418   1.035   2.741 -0.4090  0.7884 -0.2712
 5055TIP3    H236801   5.312   0.927   2.738  1.3652 -1.0247  0.8376
 5056TIP3   OH236802   0.994   0.206   7.886 -0.0409 -0.1376 -0.4995
 5056TIP3    H136803   0.978   0.282   7.830 -0.4371  0.2647  0.1428
 5056TIP3    H236804   1.017   0.136   7.826  0.5957  0.5584 -1.0888
 5057TIP3   OH236805   2.422   6.483   0.093 -0.1030  0.2170  0.3109
 5057TIP3    H136806   2.422   6.428   0.171 -0.7728  0.8034  0.7337
 5057TIP3    H236807   2.458   6.567   0.122  1.5950 -0.1812 -0.4942
 5058TIP3   OH236808   1.671   3.046   9.042 -0.5205 -0.2620 -0.3925
 5058TIP3    H136809   1.653   2.980   9.109 -2.0182  0.3715 -0.1086
 5058TIP3    H236810   1.589   3.052   8.992 -0.7203  1.8907  0.0849
 5059TIP3   OH236811   2.400   4.064   0.981 -0.9405 -0.4257  0.2157
 5059TIP3    H136812   2.468   4.092   0.920  0.9629  1.9947  3.1873
 5059TIP3    H236813   2.400   3.969   0.974  2.4939 -0.5224 -0.2563
 5060TIP3   OH236814   4.308   0.440   1.061 -0.4935  0.5289  0.3209
 5060TIP3    H136815   4.372   0.370   1.049 -0.0360  1.0386 -0.2818
 5060TIP3    H236816   4.313   0.491   0.980 -3.3078 -0.7367 -0.8051
 5061TIP3   OH236817   4.847   6.024   8.192  0.9872  0.2162 -0.0493
 5061TIP3    H136818   4.856   5.935   8.159 -0.2943  0.1413 -0.2751
 5061TIP3    H236819   4.833   6.014   8.286 -3.4608 -0.2681 -0.5122
 5062TIP3   OH236820   2.072   5.369   2.057 -0.1676  0.5100 -0.4803
 5062TIP3    H136821   2.122   5.304   2.008  0.2614  1.8824 -1.9128
 5062TIP3    H236822   2.138   5.429   2.091 -0.6755  1.0264 -0.4048
 5063TIP3   OH236823   0.085   3.207   2.200 -0.6069  0.2024 -0.3416
 5063TIP3    H136824   0.081   3.296   2.233 -0.6524  0.3802 -0.8231
 5063TIP3    H236825   0.120   3.156   2.273  2.9866  1.1980 -1.1351
 5064TIP3   OH236826   0.121   0.488   2.298 -0.3404 -0.1256 -0.4626
 5064TIP3    H136827   0.152   0.570   2.260  0.4824  0.3314  1.0897
 5064TIP3    H236828   0.167   0.481   2.382 -0.5084 -2.1015 -0.4669
 5065TIP3   OH236829   1.934   3.603   0.562  0.4158  0.1275  0.0900
 5065TIP3    H136830   2.016   3.635   0.599  0.4981  0.2007 -0.1569
 5065TIP3    H236831   1.959   3.525   0.513  0.5956  1.0611 -1.3429
 5066TIP3   OH236832   5.757   5.568   1.248 -0.0890  0.0800 -0.4507
 5066TIP3    H136833   5.753   5.514   1.328  0.4584  2.3183  1.1797
 5066TIP3    H236834   5.840   5.615   1.256 -0.7290  1.4604 -1.6097
 5067TIP3   OH236835   3.634   3.202   0.950  0.1486  0.2807  0.5059
 5067TIP3    H136836   3.699   3.269   0.928  0.4126  0.6939  2.3399
 5067TIP3    H236837   3.649   3.185   1.043 -0.6775 -1.5091  0.3388
 5068TIP3   OH236838   3.492   4.461   7.629 -0.2463 -0.4756  0.2542
 5068TIP3    H136839   3.580   4.421   7.626  0.0137  0.1261 -1.5741
 5068TIP3    H236840   3.509   4.555   7.630 -0.8633 -0.3535 -0.4251
 5069TIP3   OH236841   5.068   0.591   2.017 -0.6546 -0.1148 -0.1492
 5069TIP3    H136842   5.086   0.650   1.943  0.0630  1.0154  0.8868
 5069TIP3    H236843   5.105   0.636   2.093 -1.2513 -1.3156  0.8882
 5070TIP3   OH236844   2.407   0.712   1.050 -0.1126 -0.0976 -0.1445
 5070TIP3    H136845   2.452   0.765   1.116 -0.3484  0.0464 -0.0975
 5070TIP3    H236846   2.384   0.774   0.982  1.8875 -0.5677 -1.3217
 5071TIP3   OH236847   2.829   5.709   9.104 -1.0015 -0.1746  0.1799
 5071TIP3    H136848   2.813   5.798   9.073 -1.1805 -0.1515  0.3318
 5071TIP3    H236849   2.902   5.718   9.165 -1.9450  0.1064  1.3076
 5072TIP3   OH236850   2.151   3.777   6.779 -0.0175 -0.3390 -0.0833
 5072TIP3    H136851   2.115   3.724   6.850  1.2231  0.4974  1.2345
 5072TIP3    H236852   2.218   3.722   6.740 -1.0871 -1.0171 -1.0117
 5073TIP3   OH236853   2.596   0.759   8.088 -0.1235 -0.6126 -0.0711
 5073TIP3    H136854   2.665   0.806   8.042  0.6504 -2.2242 -0.6306
 5073TIP3    H236855   2.587   0.805   8.171 -1.2468  2.1025 -1.5565
 5074TIP3   OH236856   1.275   5.125   8.401  0.3370 -0.2509  0.0968
 5074TIP3    H136857   1.351   5.180   8.386 -0.5276  0.6142 -1.3758
 5074TIP3    H236858   1.298   5.072   8.478  1.7608  1.1296  0.6738
 5075TIP3   OH236859   5.663   5.863   9.085  0.9466 -0.0135  0.4194
 5075TIP3    H136860   5.608   5.790   9.060 -0.3866  0.8645  0.7030
 5075TIP3    H236861   5.678   5.911   9.003 -0.6762  1.0241  0.6808
 5076TIP3   OH236862   1.076   0.088   8.283  0.1642  0.2188 -0.5199
 5076TIP3    H136863   1.124   0.036   8.218  1.1815 -0.9379  1.0770
 5076TIP3    H236864   1.101   0.178   8.264 -0.9634  0.1224 -2.8114
 5077TIP3   OH236865   0.236   6.547   0.670 -0.4145 -0.2390  0.2194
 5077TIP3    H136866   0.263   6.459   0.647  0.6062 -0.0066  0.4830
 5077TIP3    H236867   0.206   6.541   0.760 -1.8783 -0.6212 -0.2724
 5078TIP3   OH236868   1.144   3.179   8.233 -0.6992  0.3347 -0.4885
 5078TIP3    H136869   1.144   3.252   8.171  0.4428  1.3564  0.6609
 5078TIP3    H236870   1.154   3.101   8.178  1.6089  1.2935 -1.5622
 5079TIP3   OH236871   0.065   6.398   1.588 -0.1258  0.0325 -0.7893
 5079TIP3    H136872   0.053   6.310   1.625 -2.4149  0.1640 -1.1181
 5079TIP3    H236873  -0.008   6.449   1.622  1.3565  1.9574 -0.3182
 5080TIP3   OH236874   3.638   5.213   1.439  0.3029  0.5805  0.1522
 5080TIP3    H136875   3.657   5.285   1.499  2.2897 -0.6941  1.1356
 5080TIP3    H236876   3.570   5.162   1.484  1.0049  0.2413  0.8653
 5081TIP3   OH236877   1.317   5.189   1.286 -0.0062 -0.6667  0.4528
 5081TIP3    H136878   1.234   5.156   1.251  1.0103 -2.0230 -0.8148
 5081TIP3    H236879   1.383   5.153   1.227  1.4779  0.5014  1.3536
 5082TIP3   OH236880   4.294   4.501   8.320  0.2675  0.0859 -0.1836
 5082TIP3    H136881   4.370   4.451   8.290  0.7928  1.9708 -2.1997
 5082TIP3    H236882   4.226   4.482   8.255 -0.0799  0.6112  0.0242
 5083TIP3   OH236883   2.171   0.641   8.673  0.5780  0.1424 -0.4451
 5083TIP3    H136884   2.193   0.610   8.585  0.1617 -1.9065  0.1352
 5083TIP3    H236885   2.165   0.562   8.726  0.5876  1.3199  1.3998
 5084TIP3   OH236886   4.446   2.703   0.940 -0.5786  0.3162 -0.5433
 5084TIP3    H136887   4.492   2.721   1.022 -0.5631 -1.5371 -0.1208
 5084TIP3    H236888   4.516   2.701   0.874 -0.0496 -1.9987  0.0217
 5085TIP3   OH236889   2.222   6.470   0.968 -0.2465 -0.1271 -0.4424
 5085TIP3    H136890   2.137   6.430   0.989 -0.7367  1.6110  1.1671
 5085TIP3    H236891   2.286   6.416   1.013 -0.7954  0.2674  0.8384
 5086TIP3   OH236892   3.261   2.252   7.862  0.8403 -0.1327 -0.2142
 5086TIP3    H136893   3.231   2.182   7.920  2.0341  0.7252  1.4956
 5086TIP3    H236894   3.312   2.207   7.795 -1.1731 -1.2211 -1.1319
 5087TIP3   OH236895   4.971   4.013   1.915  0.4353  0.4118 -0.0883
 5087TIP3    H136896   5.008   3.952   1.978 -0.7103 -0.3231 -0.0869
 5087TIP3    H236897   5.034   4.015   1.844  1.1755  0.3346  0.5452
 5088TIP3   OH236898   5.638   0.025   8.522  0.2987 -0.2175  0.1158
 5088TIP3    H136899   5.625  -0.007   8.433 -0.1045  0.2901 -0.0126
 5088TIP3    H236900   5.613   0.118   8.519  0.7628 -0.0642  0.6419
 5089TIP3   OH236901   0.564   0.271   1.051  0.3794  0.5569  0.4197
 5089TIP3    H136902   0.627   0.217   1.003  0.2990 -1.4535  2.4357
 5089TIP3    H236903   0.568   0.357   1.008 -0.1819 -1.2106 -3.5814
 5090TIP3   OH236904   0.018   4.630   8.369 -0.4522  0.0642  0.5335
 5090TIP3    H136905   0.076   4.624   8.293 -0.9332  1.8376 -0.0416
 5090TIP3    H236906   0.077   4.635   8.444  0.1371  0.7563  0.0499
 5091TIP3   OH236907   0.582   5.381   0.122 -0.2643 -0.9520 -0.6276
 5091TIP3    H136908   0.583   5.468   0.082 -0.0316 -1.7565 -2.4935
 5091TIP3    H236909   0.670   5.369   0.156 -0.6203 -0.0368  0.7036
 5092TIP3   OH236910   4.698   5.742   8.266  0.0682 -0.2228 -0.0772
 5092TIP3    H136911   4.726   5.772   8.180  0.3666  0.0228  0.1026
 5092TIP3    H236912   4.677   5.823   8.314  0.4061 -0.3288  0.2493
 5093TIP3   OH236913   2.093   2.030   0.735 -0.1766  0.6070  0.3808
 5093TIP3    H136914   2.087   1.939   0.764  1.1830  0.6058  0.7365
 5093TIP3    H236915   2.164   2.067   0.788 -0.7887  1.9107  0.3203
 5094TIP3   OH236916   0.417   6.672   8.645  0.7016 -0.1127 -0.0975
 5094TIP3    H136917   0.326   6.688   8.667  0.2875 -1.2595 -0.8729
 5094TIP3    H236918   0.466   6.701   8.722 -0.3559 -0.0306  0.5596
 5095TIP3   OH236919   3.199   4.885   8.262  0.1964  0.0765 -0.1288
 5095TIP3    H136920   3.138   4.948   8.224  1.0473  0.3226 -1.1484
 5095TIP3    H236921   3.150   4.843   8.333 -1.1185  0.3276 -0.8497
 5096TIP3   OH236922   3.612   1.735   7.847  0.6474  0.1332  0.0581
 5096TIP3    H136923   3.583   1.766   7.932  0.9999 -2.2266  1.1127
 5096TIP3    H236924   3.585   1.804   7.786 -1.5678  0.8960  1.7667
 5097TIP3   OH236925   4.735   3.372   0.948 -0.2195 -0.3592  0.0212
 5097TIP3    H136926   4.803   3.356   0.883  0.3782 -1.9932  0.9970
 5097TIP3    H236927   4.653   3.369   0.898  0.2169 -1.6125 -0.6536
 5098TIP3   OH236928   3.273   3.215   8.241  0.5248 -0.2527 -0.7880
 5098TIP3    H136929   3.287   3.185   8.151 -1.6208 -0.1594 -1.2047
 5098TIP3    H236930   3.214   3.150   8.279  0.3221  0.4426  0.1198
 5099TIP3   OH236931   5.591   2.947   1.882  0.2144 -0.3028 -0.1226
 5099TIP3    H136932   5.649   3.023   1.888 -0.1650 -0.0937  1.0710
 5099TIP3    H236933   5.628   2.895   1.811  1.5277  0.1209  0.2196
 5100TIP3   OH236934   6.042   2.580   7.492  0.2686 -0.3446  0.1927
 5100TIP3    H136935   6.011   2.633   7.418  0.9430 -0.5795 -0.2678
 5100TIP3    H236936   6.133   2.559   7.470 -0.0994 -2.0582  0.1535
 5101TIP3   OH236937   5.816   3.847   8.562 -0.3004  0.3954 -0.7003
 5101TIP3    H136938   5.787   3.899   8.487 -1.6785 -0.0332 -0.5060
 5101TIP3    H236939   5.901   3.812   8.537 -0.9164 -0.0642 -2.2380
 5102TIP3   OH236940   4.028   0.468   0.914 -0.1178  0.3785 -0.2181
 5102TIP3    H136941   4.086   0.396   0.889 -0.3769 -0.0555  0.4005
 5102TIP3    H236942   4.082   0.524   0.969  0.3434  1.1368 -1.4221
 5103TIP3   OH236943   2.027   4.865   0.887  0.1938 -0.3448 -0.5613
 5103TIP3    H136944   2.019   4.960   0.876  1.1758 -0.1815 -0.0048
 5103TIP3    H236945   1.976   4.828   0.816 -2.1866  0.5633  0.5742
 5104TIP3   OH236946   2.197   4.390   8.778 -0.1042  0.4200  0.0782
 5104TIP3    H136947   2.192   4.447   8.854  0.5470  0.5926 -0.0030
 5104TIP3    H236948   2.198   4.302   8.814 -2.6604  0.3455  0.1578
 5105TIP3   OH236949   3.656   3.068   0.362  0.1730  0.2230 -0.1181
 5105TIP3    H136950   3.577   3.055   0.310 -0.4053  1.6477  0.3549
 5105TIP3    H236951   3.700   3.144   0.322  0.2281  0.7153  0.8437
 5106TIP3   OH236952   3.972   5.249   8.689  0.0914  0.1759  0.1542
 5106TIP3    H136953   3.972   5.241   8.784 -0.1076  0.4584  0.1796
 5106TIP3    H236954   3.971   5.159   8.657 -0.9283  0.0806  0.4202
 5107TIP3   OH236955   0.223   1.334   2.476 -0.0356  0.0041  0.9853
 5107TIP3    H136956   0.226   1.286   2.559 -2.8123  1.0231  1.7637
 5107TIP3    H236957   0.241   1.425   2.500  0.1895  0.1579  0.2702
 5108TIP3   OH236958   3.461   4.250   0.410  0.5128  0.4654  0.1737
 5108TIP3    H136959   3.463   4.193   0.487  0.2429  0.0584 -0.1138
 5108TIP3    H236960   3.420   4.331   0.441 -0.3759 -0.0071  0.2643
 5109TIP3   OH236961   3.766   3.235   9.096  0.4999 -0.0797 -0.1721
 5109TIP3    H136962   3.848   3.275   9.067 -0.3076  1.0734 -0.9677
 5109TIP3    H236963   3.751   3.271   9.183  1.3356 -1.0832  0.4009
 5110TIP3   OH236964   0.401   4.883   8.197 -0.1941 -0.3391  0.3249
 5110TIP3    H136965   0.456   4.957   8.170  1.6144 -0.9145  2.1743
 5110TIP3    H236966   0.462   4.818   8.231 -1.9476 -1.5156  1.4171
 5111TIP3   OH236967   3.047   5.328   8.379 -0.1691 -0.5580 -0.5518
 5111TIP3    H136968   3.134   5.311   8.343 -1.0116 -2.2761 -1.9663
 5111TIP3    H236969   3.054   5.306   8.472  0.7546 -1.3383 -0.7931
 5112TIP3   OH236970   5.687   2.177   8.770  0.4106 -0.0216  0.2382
 5112TIP3    H136971   5.782   2.191   8.777  0.4092 -0.7412  2.1799
 5112TIP3    H236972   5.671   2.095   8.817 -1.0918 -0.3509 -0.7703
 5113TIP3   OH236973   4.251   2.615   7.415  0.2193 -0.6300 -0.1263
 5113TIP3    H136974   4.268   2.561   7.492 -1.3595 -0.4639  0.3562
 5113TIP3    H236975   4.157   2.607   7.400 -0.0988  2.0308  0.0171
 5114TIP3   OH236976   1.120   4.209   0.333 -0.0591  0.0930 -0.3794
 5114TIP3    H136977   1.129   4.118   0.360 -1.5864  0.3656  1.2562
 5114TIP3    H236978   1.067   4.205   0.253  0.0078 -0.4548 -0.4024
 5115TIP3   OH236979   4.832   3.116   1.738  0.9053  0.5039  0.0216
 5115TIP3    H136980   4.771   3.112   1.665 -0.9687 -0.0234  1.5168
 5115TIP3    H236981   4.864   3.206   1.738  1.6993  0.2512 -1.9867
 5116TIP3   OH236982   3.349   4.618   1.931 -0.2727  0.6723 -0.5391
 5116TIP3    H136983   3.283   4.551   1.946  0.5636 -0.0988 -0.1813
 5116TIP3    H236984   3.421   4.571   1.888  2.0002  0.3888  3.1529
 5117TIP3   OH236985   3.074   0.926   0.164  0.0170 -0.0689  0.4385
 5117TIP3    H136986   3.117   0.881   0.092  0.0822 -0.7225  0.8850
 5117TIP3    H236987   3.028   0.858   0.212 -0.2889  0.4072  0.8380
 5118TIP3   OH236988   4.404   0.805   8.526 -0.0842 -0.3249  0.7797
 5118TIP3    H136989   4.386   0.899   8.517 -1.3659 -0.4948  1.2542
 5118TIP3    H236990   4.442   0.780   8.443 -0.7724  0.4109  0.2203
 5119TIP3   OH236991   4.886   5.765   8.071  0.1851 -0.1419 -0.2945
 5119TIP3    H136992   4.836   5.748   7.991 -1.6261  0.6718  0.6109
 5119TIP3    H236993   4.916   5.678   8.099 -0.3740 -0.6053 -1.0891
 5120TIP3   OH236994   5.458   5.707   1.394  0.0192  0.3214 -0.0126
 5120TIP3    H136995   5.438   5.735   1.483 -0.7684 -1.4346  0.3978
 5120TIP3    H236996   5.408   5.766   1.338 -0.7550  0.4243  0.7697
 5121TIP3   OH236997   4.792   3.718   1.943  0.2097  0.2628 -0.0696
 5121TIP3    H136998   4.755   3.727   1.855 -1.2584  1.0619  0.6019
 5121TIP3    H236999   4.734   3.657   1.988 -1.3137  2.6871  1.4795
 5122TIP3   OH237000   4.492   0.326   8.674 -0.1217 -0.7950 -0.3409
 5122TIP3    H137001   4.443   0.264   8.729 -0.9695  0.3026  0.2036
 5122TIP3    H237002   4.427   0.392   8.650  1.2297  1.2359  1.1597
 5123TIP3   OH237003   0.596   4.693   8.262  0.1375 -0.4257 -0.7082
 5123TIP3    H137004   0.664   4.680   8.196  0.4809  0.0866 -0.4723
 5123TIP3    H237005   0.586   4.608   8.303  0.2007 -0.6539 -1.1605
 5124TIP3   OH237006   2.910   3.228   8.787 -0.3065  0.9066 -0.0349
 5124TIP3    H137007   2.880   3.228   8.696 -0.5604  1.4421  0.0485
 5124TIP3    H237008   2.832   3.204   8.837 -0.5193  1.9540  0.1524
 5125TIP3   OH237009   1.110   4.505   0.662  0.3452  0.4844 -0.2596
 5125TIP3    H137010   1.178   4.548   0.714  0.8097  0.2550 -0.6776
 5125TIP3    H237011   1.028   4.543   0.694  0.4538 -0.9351  1.9220
 5126TIP3   OH237012   1.722   0.065   3.024 -0.8397 -0.0577 -0.1127
 5126TIP3    H137013   1.699   0.158   3.025 -3.1665 -0.5526  0.6850
 5126TIP3    H237014   1.717   0.041   2.931 -0.5386  0.5380 -0.2926
 5127TIP3   OH237015   2.396   6.619   1.898  0.5990 -0.2900  0.0785
 5127TIP3    H137016   2.476   6.651   1.939 -0.4005  1.3669  0.8805
 5127TIP3    H237017   2.333   6.613   1.970 -0.5819  0.5056 -0.8421
 5128TIP3   OH237018   4.335   1.901   7.457  0.0894 -0.3271 -0.0804
 5128TIP3    H137019   4.334   1.838   7.529  0.0269 -1.1417 -0.7836
 5128TIP3    H237020   4.412   1.955   7.474 -1.2612  1.0862  1.9280
 5129TIP3   OH237021   1.538   0.797   9.145 -0.1331  0.2797 -0.1484
 5129TIP3    H137022   1.570   0.836   9.226 -1.4140 -1.0090  1.0458
 5129TIP3    H237023   1.466   0.853   9.117  0.8308  1.1842 -0.8754
 5130TIP3   OH237024   4.233   6.354   3.101 -0.0771 -0.8527  1.2156
 5130TIP3    H137025   4.198   6.269   3.072  1.1625 -1.4002  1.2529
 5130TIP3    H237026   4.158   6.398   3.141 -0.7591 -1.9112  1.1587
 5131TIP3   OH237027   0.077   2.254   9.091  0.2473 -0.0840  0.1837
 5131TIP3    H137028  -0.009   2.281   9.124  0.2405 -1.0968  1.0878
 5131TIP3    H237029   0.117   2.207   9.165  0.9098 -1.0384 -0.7405
 5132TIP3   OH237030   1.097   4.704   2.150  0.7276 -0.1196  0.3408
 5132TIP3    H137031   1.052   4.788   2.156 -0.4199 -0.7632  1.2133
 5132TIP3    H237032   1.029   4.642   2.124  1.5469 -0.7918 -0.2588
 5133TIP3   OH237033   2.530   3.418   2.581  0.0670 -0.0190 -0.2289
 5133TIP3    H137034   2.471   3.456   2.646 -1.0832  0.4339 -1.4883
 5133TIP3    H237035   2.501   3.328   2.572  1.9473 -0.9237  1.7824
 5134TIP3   OH237036   3.349   6.126   1.219  0.0927 -0.1247 -0.5252
 5134TIP3    H137037   3.393   6.211   1.225 -0.1078  0.1744 -2.6121
 5134TIP3    H237038   3.419   6.063   1.203  0.0056  0.0524 -1.6890
 5135TIP3   OH237039   5.683   1.432   2.797 -0.2946  0.5385 -0.0816
 5135TIP3    H137040   5.664   1.394   2.882  0.7363  0.5607  0.1764
 5135TIP3    H237041   5.771   1.401   2.776 -0.8075 -0.0693 -1.4778
 5136TIP3   OH237042   2.807   3.954   8.851 -0.4183  0.0670  0.5849
 5136TIP3    H137043   2.713   3.970   8.838 -0.1466  2.2214  0.9330
 5136TIP3    H237044   2.850   4.005   8.782  0.5146 -2.9345 -1.2523
 5137TIP3   OH237045   0.079   1.736   1.016  0.2112  0.7520 -0.0890
 5137TIP3    H137046   0.102   1.789   0.939 -1.5819  2.4469  0.4622
 5137TIP3    H237047   0.012   1.675   0.983 -0.1156  1.0712 -0.0286
 5138TIP3   OH237048   1.096   1.416   1.895  0.2494 -0.0139 -0.0132
 5138TIP3    H137049   1.091   1.497   1.946 -1.2286  0.1108 -0.3071
 5138TIP3    H237050   1.037   1.430   1.821  2.8654  0.0899 -2.2482
 5139TIP3   OH237051   0.250   4.522   8.823 -0.0425 -0.1543  0.2376
 5139TIP3    H137052   0.225   4.557   8.738  0.0349 -2.6077 -0.8952
 5139TIP3    H237053   0.167   4.500   8.865 -0.1131  1.7033  1.1505
 5140TIP3   OH237054   4.850   3.000   9.104  0.1220  0.1834 -0.1621
 5140TIP3    H137055   4.906   2.926   9.129 -0.8995 -0.1185  1.4021
 5140TIP3    H237056   4.911   3.071   9.085  1.1235 -1.0033 -1.6299
 5141TIP3   OH237057   4.407   4.400   7.946 -0.0370 -0.7146 -0.0071
 5141TIP3    H137058   4.321   4.370   7.917 -0.8667  0.5326  1.0601
 5141TIP3    H237059   4.393   4.489   7.975  1.4957 -0.7105  0.8277
 5142TIP3   OH237060   3.879   3.547   8.780  0.0297  0.0503  0.3395
 5142TIP3    H137061   3.850   3.499   8.702 -1.3397 -0.4213  1.1099
 5142TIP3    H237062   3.853   3.638   8.763 -1.7354 -0.3089  0.8799
 5143TIP3   OH237063   1.684   1.550   0.912  0.3392  0.3217 -0.0740
 5143TIP3    H137064   1.719   1.626   0.959  0.5178 -0.4704  1.1082
 5143TIP3    H237065   1.598   1.536   0.950 -0.2466  0.6931 -1.1974
 5144TIP3   OH237066   4.556   3.490   8.204 -0.7596  0.2346 -0.0684
 5144TIP3    H137067   4.627   3.513   8.264 -0.3658  0.1003 -0.4811
 5144TIP3    H237068   4.477   3.526   8.246 -0.7175 -1.1526  1.2720
 5145TIP3   OH237069   4.513   0.182   1.967  0.0167  0.3068  0.3024
 5145TIP3    H137070   4.596   0.177   2.015  0.9829  0.7006 -1.2778
 5145TIP3    H237071   4.503   0.275   1.947 -1.9691  0.6388  2.3662
 5146TIP3   OH237072   1.785   1.020   7.632  0.4921  0.5765  0.3580
 5146TIP3    H137073   1.804   0.926   7.640 -0.5058  0.3970  0.8206
 5146TIP3    H237074   1.839   1.049   7.559  0.0647 -0.5900 -0.4650
 5147TIP3   OH237075   5.276   2.170   1.933  0.2643 -0.4730  0.0093
 5147TIP3    H137076   5.227   2.098   1.892 -0.1963 -0.3742  0.3731
 5147TIP3    H237077   5.313   2.219   1.859  1.4212 -1.6426 -0.2271
 5148TIP3   OH237078   5.893   2.129   7.636 -0.0303 -0.0262  0.0052
 5148TIP3    H137079   5.801   2.121   7.615  0.0739 -0.0940 -0.4323
 5148TIP3    H237080   5.900   2.100   7.727 -0.6948  1.4950  0.5763
 5149TIP3   OH237081   2.280   2.723   8.561 -0.8757  0.3150  0.5478
 5149TIP3    H137082   2.187   2.706   8.546 -0.6807  0.7097 -1.2287
 5149TIP3    H237083   2.319   2.636   8.568 -1.0506  0.1039 -0.9062
 5150TIP3   OH237084   5.166   6.526   7.572 -0.5245 -0.2323 -0.3500
 5150TIP3    H137085   5.218   6.555   7.497  0.6264  1.7625  1.1330
 5150TIP3    H237086   5.232   6.507   7.640 -1.6202 -0.0295  0.7970
 5151TIP3   OH237087   1.571   0.997   0.197  0.1422  0.5182  0.2223
 5151TIP3    H137088   1.585   0.920   0.253  0.5925  0.2343 -0.2752
 5151TIP3    H237089   1.652   1.047   0.204  1.0345 -0.5415 -1.7520
 5152TIP3   OH237090   4.021   4.963   8.885 -0.5966  0.1444 -0.3092
 5152TIP3    H137091   3.999   4.872   8.866 -1.6277  0.4873 -0.8417
 5152TIP3    H237092   4.117   4.966   8.879 -0.5570 -0.8778 -0.3687
 5153TIP3   OH237093   4.853   3.989   0.859 -0.5170  0.1309  0.1163
 5153TIP3    H137094   4.918   3.971   0.927 -0.6798  0.3913  0.3398
 5153TIP3    H237095   4.818   4.076   0.881 -1.8535 -0.5388  0.7145
 5154TIP3   OH237096   3.076   5.964   8.142  0.0961 -0.1906 -0.4871
 5154TIP3    H137097   3.023   5.885   8.135 -0.7092  0.3737 -0.8188
 5154TIP3    H237098   3.157   5.934   8.184 -0.2535 -1.1600 -0.4733
 5155TIP3   OH237099   6.218   3.276   2.370  0.1821  0.2514 -0.4753
 5155TIP3    H137100   6.260   3.296   2.286 -0.2692  0.4561 -0.6554
 5155TIP3    H237101   6.274   3.208   2.408  1.8646  1.9340  0.2397
 5156TIP3   OH237102   5.676   6.270   0.284 -0.9599  0.9871  0.9527
 5156TIP3    H137103   5.724   6.343   0.323  2.2622  0.6360 -1.9225
 5156TIP3    H237104   5.713   6.192   0.324  0.1782  0.7623 -0.4467
 5157TIP3   OH237105   3.896   3.713   8.390  0.0232 -1.2412  0.8026
 5157TIP3    H137106   3.977   3.684   8.432  0.2191 -0.0690  1.2625
 5157TIP3    H237107   3.837   3.732   8.463  1.0283  2.8109  0.7843
 5158TIP3   OH237108   2.048   3.197   1.380  0.3491  0.7297  0.1682
 5158TIP3    H137109   2.080   3.236   1.461  2.0691  0.7869 -0.4858
 5158TIP3    H237110   1.964   3.240   1.363  1.0802  2.4397  0.7002
 5159TIP3   OH237111   5.309   3.683   2.690  0.2874 -0.1849  0.4803
 5159TIP3    H137112   5.308   3.724   2.777  0.2430 -2.6959  1.7613
 5159TIP3    H237113   5.256   3.604   2.701  0.4803 -0.6877 -1.7894
 5160TIP3   OH237114   0.703   5.255   8.348  0.2653  0.1518 -0.2115
 5160TIP3    H137115   0.775   5.217   8.399  0.2655  1.3666  0.7347
 5160TIP3    H237116   0.686   5.339   8.390 -2.9514 -0.8761  0.7999
 5161TIP3   OH237117   3.705   5.095   2.701  0.3457 -0.7155  0.0625
 5161TIP3    H137118   3.635   5.125   2.759  0.8404 -0.1840  0.4021
 5161TIP3    H237119   3.786   5.123   2.745  0.7565 -1.0266 -0.4851
 5162TIP3   OH237120   0.773   3.723   7.164 -0.2268  0.2999 -0.2087
 5162TIP3    H137121   0.683   3.701   7.190 -0.9746  1.2090 -1.8257
 5162TIP3    H237122   0.828   3.664   7.215 -1.8626 -1.7778 -0.6865
 5163TIP3   OH237123   6.395   0.667   3.211 -0.2084  0.3085  0.1922
 5163TIP3    H137124   6.447   0.732   3.163  0.4437 -0.0233  0.4443
 5163TIP3    H237125   6.354   0.717   3.281  0.7551  0.3468  0.7382
 5164TIP3   OH237126   4.972   6.294   8.679  0.4250 -0.6332 -0.7176
 5164TIP3    H137127   4.931   6.324   8.598 -0.7432  1.0863  0.4484
 5164TIP3    H237128   4.960   6.199   8.678 -0.3157 -0.5464 -2.1555
 5165TIP3   OH237129   1.396   6.379   1.180  0.1994  0.2680 -0.1393
 5165TIP3    H137130   1.318   6.334   1.148  0.2089 -1.4459  2.0162
 5165TIP3    H237131   1.453   6.386   1.103 -1.8674  1.2181 -1.6655
 5166TIP3   OH237132   5.024   0.832   2.252 -0.0031 -0.0228  0.1353
 5166TIP3    H137133   4.950   0.863   2.202  0.0641  0.6558  0.4445
 5166TIP3    H237134   4.988   0.810   2.338  0.2623  0.9865  0.5189
 5167TIP3   OH237135   5.192   6.279   2.046 -0.0176 -0.3301  0.2770
 5167TIP3    H137136   5.220   6.329   1.969 -0.5218  0.1768  0.4063
 5167TIP3    H237137   5.266   6.223   2.067  0.1086 -0.5129 -0.6078
 5168TIP3   OH237138   1.614   4.225   1.192  0.3610  0.4209 -0.2984
 5168TIP3    H137139   1.527   4.262   1.207 -0.1535 -0.6369 -0.5805
 5168TIP3    H237140   1.603   4.169   1.115  1.2097  0.0102 -0.1274
 5169TIP3   OH237141   2.793   6.241   1.309  0.2023  0.5173  0.6143
 5169TIP3    H137142   2.787   6.326   1.266 -0.7119 -1.0262 -2.6445
 5169TIP3    H237143   2.883   6.214   1.296  0.2176  0.5199  0.7106
 5170TIP3   OH237144   5.992   0.574   1.975  0.0938 -0.3851  0.1255
 5170TIP3    H137145   5.910   0.530   1.996  0.1026 -0.7644 -0.6225
 5170TIP3    H237146   5.975   0.621   1.893 -0.1593  1.6890  1.2846
 5171TIP3   OH237147   5.975   6.255   7.303 -0.1472 -0.2577 -0.1745
 5171TIP3    H137148   5.985   6.228   7.212  0.2688  0.0682 -0.2285
 5171TIP3    H237149   6.049   6.314   7.319 -0.3661 -0.1049  0.2952
 5172TIP3   OH237150   5.855   1.895   2.512  0.5580 -0.5415  0.3145
 5172TIP3    H137151   5.930   1.882   2.454  0.2678  0.5133 -0.3066
 5172TIP3    H237152   5.785   1.845   2.471  0.2783  0.4200 -0.4169
 5173TIP3   OH237153   5.450   1.759   1.763  0.2515  0.2624 -0.2861
 5173TIP3    H137154   5.386   1.790   1.828 -0.9135 -0.9333 -0.8003
 5173TIP3    H237155   5.515   1.829   1.757 -1.3882  1.8631 -0.2483
 5174TIP3   OH237156   0.090   5.856   8.366  0.5136  0.0440  0.2893
 5174TIP3    H137157  -0.001   5.848   8.395  0.6379 -1.9031  0.2420
 5174TIP3    H237158   0.093   5.812   8.281  2.3054 -3.9235  2.1701
 5175TIP3   OH237159   6.676   2.298   0.265  0.2117 -0.1176 -0.3707
 5175TIP3    H137160   6.678   2.322   0.358  1.4731  0.4544 -0.5206
 5175TIP3    H237161   6.622   2.365   0.224 -0.8807 -0.7297  0.0221
 5176TIP3   OH237162   4.899   5.006   8.075  0.2280  0.2771 -0.5628
 5176TIP3    H137163   4.860   4.975   7.993 -0.1905  0.5717 -0.4810
 5176TIP3    H237164   4.991   4.981   8.070  0.0313 -0.4226 -0.7706
 5177TIP3   OH237165   3.622   1.939   0.600 -0.9324  1.0258  0.0820
 5177TIP3    H137166   3.699   1.883   0.594 -0.5231  1.6619 -0.8182
 5177TIP3    H237167   3.551   1.880   0.626 -0.0228  0.5637  1.6827
 5178TIP3   OH237168   4.584   5.460   6.813  0.1782 -1.2500  0.0338
 5178TIP3    H137169   4.652   5.403   6.849 -0.9256 -1.7431  1.4502
 5178TIP3    H237170   4.557   5.515   6.887 -0.9102 -1.0261 -0.5129
 5179TIP3   OH237171   0.482   3.325   7.907 -0.4385 -0.0350  0.6437
 5179TIP3    H137172   0.416   3.381   7.866  1.1916  0.3913 -1.5304
 5179TIP3    H237173   0.508   3.264   7.838  0.4000 -1.1650  1.9038
 5180TIP3   OH237174   1.829   3.877   7.722  0.5425 -0.5664  0.6170
 5180TIP3    H137175   1.853   3.898   7.632  1.0048 -0.8778  0.6631
 5180TIP3    H237176   1.737   3.902   7.729  0.7764  0.3763  0.3542
 5181TIP3   OH237177   4.606   5.920   7.782 -0.0211 -0.5669  0.2733
 5181TIP3    H137178   4.622   5.920   7.688  1.1773  0.7719  0.4460
 5181TIP3    H237179   4.662   5.851   7.816  0.4851 -0.2274  0.1358
 5182TIP3   OH237180   3.945   1.891   8.417  0.1005  0.4510  0.5609
 5182TIP3    H137181   3.915   1.973   8.456  0.5341  0.0842  1.7005
 5182TIP3    H237182   3.981   1.917   8.332 -1.0759  1.2350  0.2766
 5183TIP3   OH237183   1.014   4.058   7.792 -0.2063  0.1459  0.2660
 5183TIP3    H137184   1.021   3.999   7.717  1.4787 -0.2718  0.7003
 5183TIP3    H237185   1.041   4.143   7.759  3.0291 -0.5100  0.8396
 5184TIP3   OH237186   2.902   0.014   8.469  0.2411 -0.3333 -0.3650
 5184TIP3    H137187   2.921  -0.059   8.410  0.7444 -0.1787 -0.3988
 5184TIP3    H237188   2.983   0.027   8.518 -0.5750 -1.3363  1.3520
 5185TIP3   OH237189   5.474   4.850   7.319  0.2249 -0.3409  0.2377
 5185TIP3    H137190   5.471   4.929   7.264  1.3542 -0.8902 -0.6696
 5185TIP3    H237191   5.383   4.831   7.339 -0.0291  1.9998  1.7059
 5186TIP3   OH237192   5.556   6.448   0.097 -0.3865 -0.8501 -0.4913
 5186TIP3    H137193   5.631   6.504   0.078 -1.0153 -0.4698 -1.9741
 5186TIP3    H237194   5.594   6.372   0.141  0.8015 -0.4648 -0.8113
 5187TIP3   OH237195   6.231   1.651   0.469 -0.1569  0.0267 -0.3669
 5187TIP3    H137196   6.274   1.717   0.523 -0.6498 -0.3626  0.5235
 5187TIP3    H237197   6.238   1.685   0.379 -0.4262  1.2994  0.0771
 5188TIP3   OH237198   5.867   5.587   0.050 -0.6498  0.0982 -0.0943
 5188TIP3    H137199   5.908   5.639  -0.019 -1.1314  1.4124  0.5612
 5188TIP3    H237200   5.773   5.588   0.028 -0.5337 -1.5747 -0.7461
 5189TIP3   OH237201   4.192   0.411   9.105 -0.2671 -0.2041  0.3410
 5189TIP3    H137202   4.169   0.441   9.017  0.6546  0.1854  0.2253
 5189TIP3    H237203   4.223   0.321   9.092 -2.9143 -1.2823  0.6724
 5190TIP3   OH237204   0.959   6.682   3.286 -0.0367 -0.6878 -0.3010
 5190TIP3    H137205   0.915   6.684   3.371  2.2030 -0.7193  0.9592
 5190TIP3    H237206   0.889   6.667   3.223 -1.8399 -0.3123  1.4896
 5191TIP3   OH237207   2.507   1.171   2.251 -0.2276  0.1015  0.0943
 5191TIP3    H137208   2.454   1.092   2.241 -0.9297  0.6341 -0.5631
 5191TIP3    H237209   2.443   1.241   2.262  0.2891  0.8591 -1.3731
 5192TIP3   OH237210   0.823   5.300   0.208 -0.7599 -0.5891 -0.6289
 5192TIP3    H137211   0.790   5.247   0.281 -0.4828 -0.8379 -0.6802
 5192TIP3    H237212   0.870   5.237   0.153 -0.5717 -0.3168 -0.7786
 5193TIP3   OH237213   4.609   2.089   1.439  0.0919  0.1185 -0.1286
 5193TIP3    H137214   4.685   2.098   1.497  0.2290 -0.3518 -0.2236
 5193TIP3    H237215   4.533   2.107   1.494  0.2078 -0.5323  0.2519
 5194TIP3   OH237216   1.842   0.160   1.164  0.1031 -0.4782 -0.0993
 5194TIP3    H137217   1.767   0.174   1.222 -1.0476  0.1231 -1.6480
 5194TIP3    H237218   1.883   0.080   1.196 -1.6359 -1.2307  0.3661
 5195TIP3   OH237219   4.688   2.657   2.454 -0.2267  0.2279 -0.1785
 5195TIP3    H137220   4.700   2.638   2.547  1.0634 -0.0820 -0.3803
 5195TIP3    H237221   4.760   2.611   2.411 -1.2020 -0.2037 -1.4116
 5196TIP3   OH237222   3.741   0.486   0.485  0.3805  0.0203  0.4896
 5196TIP3    H137223   3.686   0.479   0.563 -0.5287  0.8253 -0.0504
 5196TIP3    H237224   3.764   0.579   0.480  2.8432 -0.4744  1.3655
 5197TIP3   OH237225   0.197   4.272   1.849 -0.6143  0.1592 -0.1455
 5197TIP3    H137226   0.253   4.345   1.820  0.1845 -0.6300 -0.6515
 5197TIP3    H237227   0.258   4.199   1.861 -1.6622 -1.1342 -2.0699
 5198TIP3   OH237228   3.408   0.629   2.982 -0.6689  0.5326 -0.0432
 5198TIP3    H137229   3.312   0.630   2.990 -0.6328  2.7433  0.9292
 5198TIP3    H237230   3.439   0.649   3.070  0.6984  0.1549 -0.4226
 5199TIP3   OH237231   4.825   3.674   6.580 -0.0006 -0.1059  0.2316
 5199TIP3    H137232   4.914   3.664   6.613  0.2913  0.3106 -0.4165
 5199TIP3    H237233   4.799   3.585   6.557 -0.4601 -0.5218  2.1555
 5200TIP3   OH237234   3.202   4.666   1.083 -0.3103  0.4209 -0.2397
 5200TIP3    H137235   3.168   4.577   1.093  3.5779 -1.2043  0.4354
 5200TIP3    H237236   3.226   4.673   0.991 -1.5246  1.2399 -0.5258
 5201TIP3   OH237237   6.643   1.835   2.620 -0.2459 -0.0161  0.0054
 5201TIP3    H137238   6.620   1.926   2.601 -0.0969  0.6067  2.4710
 5201TIP3    H237239   6.665   1.835   2.713 -0.0015 -2.5476  0.0081
 5202TIP3   OH237240   0.239   6.125   2.536 -0.0116 -0.0177 -0.0112
 5202TIP3    H137241   0.187   6.074   2.474 -1.4834  1.0451  0.2913
 5202TIP3    H237242   0.295   6.060   2.580 -0.4681 -1.0739 -0.9427
 5203TIP3   OH237243   0.793   1.843   1.958 -0.5979  0.3367  0.0504
 5203TIP3    H137244   0.738   1.777   1.915  3.0737 -1.0100 -3.2718
 5203TIP3    H237245   0.867   1.794   1.994  1.5711  2.3523 -1.2811
 5204TIP3   OH237246   4.575   0.132   7.640 -0.6998  0.2888 -0.1825
 5204TIP3    H137247   4.631   0.193   7.689  1.4801 -1.2909 -0.5760
 5204TIP3    H237248   4.571   0.169   7.552 -2.0985  1.5016  0.3321
 5205TIP3   OH237249   4.263   2.621   8.593 -0.2749  0.2546 -0.6023
 5205TIP3    H137250   4.290   2.580   8.511  0.2752  3.5400 -2.2516
 5205TIP3    H237251   4.189   2.676   8.568 -1.7788 -0.5653  1.7148
 5206TIP3   OH237252   0.532   2.673   8.870 -0.4137  0.0370 -0.5077
 5206TIP3    H137253   0.519   2.714   8.784  0.4084 -0.7158 -1.0057
 5206TIP3    H237254   0.555   2.582   8.850  0.4787  0.0240  0.4857
 5207TIP3   OH237255   0.734   1.815   2.927 -0.3161  0.2580  0.0937
 5207TIP3    H137256   0.810   1.873   2.927  0.0003 -0.1467 -0.3336
 5207TIP3    H237257   0.760   1.741   2.871 -1.2384  0.4046 -0.5607
 5208TIP3   OH237258   0.936   6.293   2.419  0.1655  0.3749  0.1137
 5208TIP3    H137259   0.930   6.243   2.337  0.0149  0.9013 -0.2041
 5208TIP3    H237260   0.851   6.279   2.461 -0.3521  1.3593 -0.5699
 5209TIP3   OH237261   2.002   2.911   1.862  0.0879  0.0978 -0.2703
 5209TIP3    H137262   1.972   2.822   1.849  0.0866  0.1790 -0.8273
 5209TIP3    H237263   2.045   2.935   1.780  3.2237 -0.5970  1.0098
 5210TIP3   OH237264   1.592   1.064   7.811 -0.0503  0.1828  0.4002
 5210TIP3    H137265   1.666   1.044   7.753  0.1318  0.2146  0.6179
 5210TIP3    H237266   1.516   1.070   7.753  0.3278  1.4054 -0.0037
 5211TIP3   OH237267   4.355   0.699   8.233  0.2054  0.4829 -0.3702
 5211TIP3    H137268   4.293   0.628   8.250  1.4407 -0.1076  2.2994
 5211TIP3    H237269   4.301   0.778   8.228 -0.8921 -0.1549  0.8377
 5212TIP3   OH237270   5.947   4.232   8.899 -0.9025  0.4091  0.5269
 5212TIP3    H137271   5.951   4.224   8.803  1.1265 -0.6662  0.6541
 5212TIP3    H237272   5.945   4.326   8.915 -0.6185  0.6145 -0.5683
 5213TIP3   OH237273   4.362   4.318   0.589  0.3878 -0.6617  0.5346
 5213TIP3    H137274   4.336   4.405   0.558 -0.5137 -1.8478 -2.4690
 5213TIP3    H237275   4.455   4.312   0.566  0.1268 -0.9244 -0.5241
 5214TIP3   OH237276   0.787   0.136   2.198 -0.5660 -0.3314  0.1064
 5214TIP3    H137277   0.806   0.043   2.212  1.1134 -0.1865 -0.8562
 5214TIP3    H237278   0.699   0.148   2.232 -0.5388 -2.1125  0.9368
 5215TIP3   OH237279   1.635   0.370   3.598  0.0921 -0.2856 -0.6048
 5215TIP3    H137280   1.598   0.454   3.626  1.4126  0.5122 -1.1574
 5215TIP3    H237281   1.569   0.305   3.624 -1.5088  1.0207 -1.2206
 5216TIP3   OH237282   4.594   5.590   7.066 -0.1610 -0.2165  0.0294
 5216TIP3    H137283   4.671   5.540   7.092 -1.4210 -2.1450  0.2789
 5216TIP3    H237284   4.621   5.682   7.073  1.3373 -0.7502  2.5485
 5217TIP3   OH237285   4.533   1.432   3.028  0.5029  0.1286  0.0204
 5217TIP3    H137286   4.482   1.360   3.065  0.5658 -1.1793 -2.2471
 5217TIP3    H237287   4.624   1.412   3.052  0.3496  0.3172  0.7481
 5218TIP3   OH237288   4.522   6.466   7.081 -0.3079  0.6883 -0.0657
 5218TIP3    H137289   4.566   6.417   7.013 -2.6537 -0.2731 -0.9778
 5218TIP3    H237290   4.554   6.428   7.163  1.2054  0.6897 -0.6153
 5219TIP3   OH237291   3.021   4.088   2.325 -0.1039 -0.0211  0.1238
 5219TIP3    H137292   2.936   4.112   2.362  0.4708 -0.7656  2.0675
 5219TIP3    H237293   3.028   3.994   2.342  1.2965  0.1138  0.4050
 5220TIP3   OH237294   3.248   2.093   2.512 -0.4577  0.4040  0.3547
 5220TIP3    H137295   3.168   2.052   2.478 -1.2458  0.8714  1.5937
 5220TIP3    H237296   3.234   2.099   2.606  0.9041  0.8156  0.5539
 5221TIP3   OH237297   4.532   5.151   1.874  0.2105  0.2453  0.4868
 5221TIP3    H137298   4.488   5.078   1.918 -1.1113  0.7956  0.1214
 5221TIP3    H237299   4.561   5.115   1.790 -0.9942  0.2742  0.0351
 5222TIP3   OH237300   1.673   4.715   8.656  0.5355 -0.1282  0.1403
 5222TIP3    H137301   1.748   4.657   8.668 -0.1587 -0.9325  0.7866
 5222TIP3    H237302   1.640   4.730   8.745 -0.4261 -0.2921 -0.1765
 5223TIP3   OH237303   2.146   1.462   3.355 -0.2360  0.2942 -0.8525
 5223TIP3    H137304   2.219   1.478   3.415  0.2355  0.0368 -1.3397
 5223TIP3    H237305   2.068   1.459   3.410  0.0254  1.3070 -0.4021
 5224TIP3   OH237306   2.946   2.049   0.308 -0.1394  0.2704 -0.1937
 5224TIP3    H137307   2.980   1.972   0.353  2.0610  1.0282 -0.4599
 5224TIP3    H237308   2.975   2.040   0.217 -1.9299  0.2617 -0.8066
 5225TIP3   OH237309   2.463   1.727   7.189  0.2699  0.2397 -0.1263
 5225TIP3    H137310   2.384   1.711   7.138  0.5935  1.6933 -1.1497
 5225TIP3    H237311   2.438   1.793   7.253  0.2610 -0.4786  0.6334
 5226TIP3   OH237312   0.797   1.631   1.072  0.0372  0.3607  0.4386
 5226TIP3    H137313   0.709   1.608   1.043 -0.1941 -0.2571  1.5514
 5226TIP3    H237314   0.788   1.645   1.166  1.2734 -0.5699  0.7229
 5227TIP3   OH237315   3.149   3.100   7.749 -0.4776 -0.6573  0.2801
 5227TIP3    H137316   3.185   3.086   7.662 -1.7999 -1.5557 -0.1666
 5227TIP3    H237317   3.059   3.066   7.744 -0.4377 -1.1903  2.1241
 5228TIP3   OH237318   3.767   2.493   7.685 -0.1040  0.2263 -0.0825
 5228TIP3    H137319   3.714   2.563   7.645 -0.9485  0.3296  1.1679
 5228TIP3    H237320   3.772   2.425   7.617 -3.8991 -0.8525  0.4923
 5229TIP3   OH237321   4.552   1.259   8.302  0.3365 -0.5253  0.2321
 5229TIP3    H137322   4.579   1.316   8.374  1.1388 -1.0180  0.3331
 5229TIP3    H237323   4.634   1.228   8.264 -0.0243 -2.9464  1.2378
 5230TIP3   OH237324   2.692   1.188   1.591  0.0674 -0.4533  0.0642
 5230TIP3    H137325   2.673   1.239   1.670 -0.8063 -1.2514  0.3902
 5230TIP3    H237326   2.760   1.126   1.618  1.0655  0.4512 -0.3084
 5231TIP3   OH237327   0.934   3.777   1.145  0.3786  0.3411  0.3158
 5231TIP3    H137328   0.854   3.768   1.197 -0.2552 -2.3876 -0.9603
 5231TIP3    H237329   0.918   3.854   1.089  0.1018  1.8455  2.3385
 5232TIP3   OH237330   2.196   2.391   2.153 -0.1293 -0.5720 -0.4796
 5232TIP3    H137331   2.192   2.412   2.246  0.6607  0.0654 -0.5794
 5232TIP3    H237332   2.120   2.435   2.115  0.5983  0.7930 -0.4228
 5233TIP3   OH237333   6.043   2.146   7.909 -0.5094 -0.3727 -0.3628
 5233TIP3    H137334   5.971   2.130   7.970 -0.0691 -0.9018  0.0242
 5233TIP3    H237335   6.095   2.066   7.911  0.7366  0.4175  0.2537
 5234TIP3   OH237336   3.193   2.572   0.608  0.0874 -0.0156 -0.3780
 5234TIP3    H137337   3.168   2.544   0.696  0.6414 -1.8722 -0.7603
 5234TIP3    H237338   3.249   2.649   0.622 -1.2886  0.8142  0.7639
 5235TIP3   OH237339   4.125   3.677   8.906  0.2108 -0.1316 -0.1564
 5235TIP3    H137340   4.050   3.719   8.862  0.0307  0.3360  0.5834
 5235TIP3    H237341   4.157   3.613   8.842 -0.8133 -0.3347 -0.4912
 5236TIP3   OH237342   1.266   2.744   7.731 -0.4533 -0.8609 -0.1414
 5236TIP3    H137343   1.259   2.650   7.747  0.1837 -0.9076 -0.1207
 5236TIP3    H237344   1.347   2.754   7.681 -1.2426 -0.4750 -1.3890
 5237TIP3   OH237345   1.922   1.738   1.972 -0.5355  0.0819 -0.2662
 5237TIP3    H137346   1.881   1.779   1.896 -1.0204  0.7311  0.3405
 5237TIP3    H237347   1.849   1.716   2.030 -0.1343 -0.0035  0.2142
 5238TIP3   OH237348   3.636   2.890   8.948 -0.1293  0.4797  0.2009
 5238TIP3    H137349   3.605   2.954   9.011 -0.4376 -0.1035  0.6525
 5238TIP3    H237350   3.606   2.806   8.982  0.1114  0.1099 -0.4745
 5239TIP3   OH237351   0.817   6.625   3.048 -0.0552 -0.1092 -0.7829
 5239TIP3    H137352   0.804   6.556   2.982 -2.0753  0.7974 -1.4269
 5239TIP3    H237353   0.822   6.706   2.997  1.4153  0.3281  0.0189
 5240TIP3   OH237354   6.281   6.212   1.350  0.0260 -0.1781 -0.1672
 5240TIP3    H137355   6.317   6.123   1.350 -1.1803 -0.6803 -0.1006
 5240TIP3    H237356   6.205   6.208   1.407  0.4995  1.1446  0.6049
 5241TIP3   OH237357   1.963   3.245   7.189  0.4896 -0.2435 -0.3360
 5241TIP3    H137358   2.018   3.171   7.216  0.0927 -0.3667  0.1443
 5241TIP3    H237359   1.875   3.208   7.181  0.3939  0.0492 -0.6742
 5242TIP3   OH237360   5.874   3.894   2.265 -0.4698  0.2183  0.2939
 5242TIP3    H137361   5.829   3.810   2.269  0.8416 -0.6361 -1.5667
 5242TIP3    H237362   5.877   3.916   2.172 -0.0357  1.9136  0.6737
 5243TIP3   OH237363   6.096   6.314   8.131  0.0975  0.3539  0.4482
 5243TIP3    H137364   6.158   6.292   8.062 -0.5140 -1.5929  0.4439
 5243TIP3    H237365   6.090   6.234   8.184  0.7140  1.8161  2.9223
 5244TIP3   OH237366   2.905   1.012   1.699  0.3322  0.1443 -0.4164
 5244TIP3    H137367   2.978   1.023   1.760 -0.3239  1.6313  0.1663
 5244TIP3    H237368   2.850   0.945   1.738  0.5354  0.2210  0.0018
 5245TIP3   OH237369   0.754   2.181   1.582  0.1311 -0.1526  0.8897
 5245TIP3    H137370   0.726   2.144   1.498  2.2906  0.4407 -0.1895
 5245TIP3    H237371   0.717   2.269   1.583  1.2239  0.3497 -0.1484
 5246TIP3   OH237372   4.958   4.894   1.520  0.0302 -0.6259  0.2324
 5246TIP3    H137373   4.975   4.912   1.428 -0.1172 -2.2950 -0.1623
 5246TIP3    H237374   5.044   4.872   1.557  0.1295  0.2837  0.5770
 5247TIP3   OH237375   4.101   1.389   3.354 -0.3091  0.4584  0.2628
 5247TIP3    H137376   4.012   1.356   3.340 -1.4005  1.4469  3.8167
 5247TIP3    H237377   4.148   1.315   3.393 -0.8526  1.0902  2.2058
 5248TIP3   OH237378   2.912   5.031   0.862  0.0658  0.4998 -0.2744
 5248TIP3    H137379   2.925   4.960   0.924 -1.0843 -0.8027 -1.4544
 5248TIP3    H237380   2.826   5.015   0.824  0.8560  1.0295 -2.4538
 5249TIP3   OH237381   1.404   1.524   2.049  0.2178  0.1538  0.1712
 5249TIP3    H137382   1.357   1.482   2.121  1.6109 -0.3432  0.8487
 5249TIP3    H237383   1.367   1.486   1.970 -1.5486  0.9301  0.5969
 5250TIP3   OH237384   6.417   6.314   0.081 -0.2165 -0.1587  0.1808
 5250TIP3    H137385   6.483   6.264   0.130 -0.7745 -1.3045 -0.2090
 5250TIP3    H237386   6.428   6.404   0.112  2.4102 -0.0400 -0.7829
 5251TIP3   OH237387   0.146   0.002   0.464 -0.2423 -0.2060 -0.2192
 5251TIP3    H137388   0.182  -0.070   0.516 -1.1038  0.6988  1.7204
 5251TIP3    H237389   0.161   0.080   0.517 -1.8255  0.6670 -0.9783
 5252TIP3   OH237390   3.860   1.465   0.865 -0.0386 -0.1697 -0.3586
 5252TIP3    H137391   3.853   1.553   0.827 -0.4381  0.2433  0.6328
 5252TIP3    H237392   3.921   1.475   0.938  0.7999 -0.9728 -0.9218
 5253TIP3   OH237393   0.897   3.057   1.599 -0.8754  0.8040 -0.8611
 5253TIP3    H137394   0.830   2.990   1.590 -1.4921  1.0710  1.2457
 5253TIP3    H237395   0.868   3.129   1.543 -1.7929  0.5193 -0.7536
 5254TIP3   OH237396   4.786   1.278   2.875  0.0250  0.1778  0.0258
 5254TIP3    H137397   4.806   1.319   2.959  0.5678  1.6534 -0.7920
 5254TIP3    H237398   4.855   1.310   2.817  0.2216 -1.5893 -0.7621
 5255TIP3   OH237399   4.933   4.235   0.111  0.4819 -0.0093 -0.8182
 5255TIP3    H137400   4.843   4.268   0.115  0.9092  1.1185  1.3873
 5255TIP3    H237401   4.928   4.148   0.151  0.6243  0.8732  1.2523
 5256TIP3   OH237402   6.492   5.978   0.125  0.0046  0.0899 -0.0540
 5256TIP3    H137403   6.512   6.012   0.212 -2.6611  0.9548  0.3256
 5256TIP3    H237404   6.556   5.909   0.110  0.9619  0.3917  2.2790
 5257TIP3   OH237405   0.862   0.674   1.691 -0.0997  0.0391 -0.3044
 5257TIP3    H137406   0.852   0.624   1.773 -0.4093  1.3470  0.4912
 5257TIP3    H237407   0.795   0.638   1.633 -1.0845  0.2781  0.6513
 5258TIP3   OH237408   2.560   4.418   0.097  0.2553 -0.5068  0.5753
 5258TIP3    H137409   2.541   4.340   0.150 -0.5553 -0.1150  0.8749
 5258TIP3    H237410   2.633   4.460   0.142  0.5335 -0.9578  0.5530
 5259TIP3   OH237411   5.296   3.941   8.820 -0.1768  0.2299  0.3533
 5259TIP3    H137412   5.315   3.862   8.870 -0.0173  0.2230  0.2834
 5259TIP3    H237413   5.208   3.928   8.786 -0.2090  0.1483  0.4669
 5260TIP3   OH237414   5.402   0.638   7.778  0.2023 -0.4594  0.3069
 5260TIP3    H137415   5.372   0.567   7.722  0.3727  0.0267 -0.4126
 5260TIP3    H237416   5.443   0.701   7.718  2.6221 -1.0598  1.2071
 5261TIP3   OH237417   2.706   4.508   7.298  0.4689 -0.1300 -0.5018
 5261TIP3    H137418   2.680   4.557   7.376  1.0878  1.0103 -0.9811
 5261TIP3    H237419   2.765   4.567   7.251  0.1963 -0.8346 -1.7823
 5262TIP3   OH237420   2.175   4.047   1.489  0.2180  0.7868  0.0589
 5262TIP3    H137421   2.177   4.038   1.393 -2.0570 -2.9293  0.1340
 5262TIP3    H237422   2.266   4.038   1.516  0.6925 -0.2135 -1.7124
 5263TIP3   OH237423   1.908   2.050   0.376 -0.5302 -0.5949 -0.6043
 5263TIP3    H137424   1.920   2.142   0.352 -0.1458 -0.3788  0.3743
 5263TIP3    H237425   1.834   2.052   0.436  0.1613 -0.7770  0.2658
 5264TIP3   OH237426   5.178   3.438   8.216  0.0583  0.5232  0.3480
 5264TIP3    H137427   5.084   3.427   8.206 -0.0229  2.1953 -1.3727
 5264TIP3    H237428   5.208   3.468   8.130  2.2344 -0.3052  0.7433
 5265TIP3   OH237429   3.510   3.849   0.778 -0.3419 -0.0741 -0.4694
 5265TIP3    H137430   3.469   3.873   0.695 -3.2337 -1.8894  0.3146
 5265TIP3    H237431   3.524   3.755   0.771  0.0378 -0.1309  0.8674
 5266TIP3   OH237432   6.606   1.918   0.482  0.1529 -0.1898  0.2001
 5266TIP3    H137433   6.676   1.907   0.419 -0.9593  1.0214 -1.3328
 5266TIP3    H237434   6.643   1.972   0.551  0.9554 -0.2452 -0.1842
 5267TIP3   OH237435   1.980   6.083   0.597 -0.1610 -0.1385  0.1155
 5267TIP3    H137436   2.040   6.129   0.655 -0.8782 -0.1122  0.8552
 5267TIP3    H237437   1.935   6.153   0.549  0.2115 -0.1499 -0.2551
 5268TIP3   OH237438   0.346   3.703   0.140  0.2134  0.1634  0.0829
 5268TIP3    H137439   0.347   3.701   0.045  1.0153 -1.2829  0.0905
 5268TIP3    H237440   0.266   3.752   0.163 -0.8602 -0.8518 -1.3257
 5269TIP3   OH237441   1.148   1.576   8.483  0.3384 -0.4265  0.2080
 5269TIP3    H137442   1.162   1.631   8.561  0.9962 -0.9631  0.4826
 5269TIP3    H237443   1.217   1.603   8.423 -0.1019 -0.0919 -0.1530
 5270TIP3   OH237444   4.449   4.222   7.561  0.2871  0.4501 -0.0726
 5270TIP3    H137445   4.471   4.134   7.593 -0.1491  0.1699 -0.5278
 5270TIP3    H237446   4.361   4.213   7.525 -0.0275  1.2331  0.4767
 5271TIP3   OH237447   1.504   5.878   0.667 -0.3271  0.2743 -0.0966
 5271TIP3    H137448   1.565   5.869   0.594  0.0051  0.1659  0.1940
 5271TIP3    H237449   1.531   5.810   0.729 -0.1375  0.8515  0.4610
 5272TIP3   OH237450   1.308   4.667   8.106  0.2632  0.3708 -0.2018
 5272TIP3    H137451   1.286   4.600   8.172 -1.1515  0.8102 -0.2122
 5272TIP3    H237452   1.281   4.629   8.023  0.9010  0.3352 -0.4019
 5273TIP3   OH237453   0.810   4.678   0.049  0.5873 -0.0552 -0.6085
 5273TIP3    H137454   0.743   4.634   0.102  0.9376  0.6824  0.4804
 5273TIP3    H237455   0.865   4.723   0.113  0.9824  0.9229 -1.6062
 5274TIP3   OH237456   0.036   1.239   1.977 -0.0843 -0.3136 -0.5258
 5274TIP3    H137457   0.053   1.250   2.071 -1.5245 -1.2989 -0.1250
 5274TIP3    H237458   0.013   1.326   1.946  2.6930  0.5227 -0.5128
 5275TIP3   OH237459   1.422   3.432   8.822 -0.3109  0.0328  0.3229
 5275TIP3    H137460   1.423   3.464   8.731 -3.5045  0.9460  0.5022
 5275TIP3    H237461   1.500   3.471   8.861  0.5113  0.5873 -1.6953
 5276TIP3   OH237462   4.281   0.674   0.603  0.1855  0.1574  0.7562
 5276TIP3    H137463   4.353   0.612   0.596 -1.0544 -1.2181 -0.3073
 5276TIP3    H237464   4.273   0.692   0.697  1.1285 -0.6140  0.9942
 5277TIP3   OH237465   6.327   6.029   8.349 -0.4042 -0.3705 -0.1802
 5277TIP3    H137466   6.322   5.942   8.389  1.4934 -1.0816 -1.3403
 5277TIP3    H237467   6.386   6.078   8.407  0.8034 -0.7892 -1.0282
 5278TIP3   OH237468   4.056   0.113   7.834 -0.0395  0.4434  0.7136
 5278TIP3    H137469   4.026   0.050   7.899  2.4649 -2.5376 -0.7662
 5278TIP3    H237470   4.148   0.126   7.854  1.0739 -1.2777 -2.5608
 5279TIP3   OH237471   4.642   3.988   0.652 -0.0253 -0.6454 -0.8064
 5279TIP3    H137472   4.717   3.974   0.710 -1.8312 -0.8229  1.6530
 5279TIP3    H237473   4.676   3.973   0.564  2.8131 -0.6320  0.1949
 5280TIP3   OH237474   5.910   3.690   0.975 -0.0598  0.3595  0.1167
 5280TIP3    H137475   5.995   3.683   1.019 -0.7781  0.0636  1.4926
 5280TIP3    H237476   5.920   3.765   0.917  1.6016 -0.5146 -0.8287
 5281TIP3   OH237477   6.068   2.897   2.974  0.3871 -0.0880  0.2148
 5281TIP3    H137478   5.984   2.863   3.006 -0.1476  0.1291 -0.9155
 5281TIP3    H237479   6.068   2.989   2.998  0.6231 -0.2420  0.8334
 5282TIP3   OH237480   0.739   6.452   1.866 -0.0309  0.0268 -0.0394
 5282TIP3    H137481   0.822   6.436   1.910 -0.9192 -0.3712  1.5636
 5282TIP3    H237482   0.756   6.431   1.774  2.3828  2.6018 -0.3083
 5283TIP3   OH237483   1.160   1.600   8.778  0.3764  0.2164  0.5852
 5283TIP3    H137484   1.238   1.548   8.798 -0.8411 -0.7809  3.2702
 5283TIP3    H237485   1.194   1.688   8.762  2.1854 -0.5664 -0.1798
 5284TIP3   OH237486   6.259   3.020   2.185  0.0720  0.7855  0.0889
 5284TIP3    H137487   6.195   2.979   2.244 -0.3357  0.3102 -0.6592
 5284TIP3    H237488   6.205   3.064   2.119  0.4289 -1.0827 -1.5796
 5285TIP3   OH237489   4.670   1.100   8.802 -0.0718 -0.2480  0.1781
 5285TIP3    H137490   4.662   1.194   8.789  0.4920 -0.2255 -0.0650
 5285TIP3    H237491   4.581   1.070   8.820 -0.5110  0.0969 -1.2613
 5286TIP3   OH237492   2.366   4.351   1.712 -0.1089  0.0419 -0.2114
 5286TIP3    H137493   2.396   4.409   1.781 -0.8928  0.1889  0.0181
 5286TIP3    H237494   2.353   4.267   1.755 -1.1685  0.2832 -0.0369
 5287TIP3   OH237495   1.552   2.811   8.538 -0.0204  0.6270 -0.5424
 5287TIP3    H137496   1.531   2.824   8.630  0.3475 -0.9847 -0.1939
 5287TIP3    H237497   1.479   2.758   8.504  0.5174  0.0419 -0.8124
 5288TIP3   OH237498   4.930   1.191   9.061  0.3595  0.1619 -0.1445
 5288TIP3    H137499   4.861   1.166   8.999 -0.2105 -0.4904  0.7215
 5288TIP3    H237500   4.998   1.124   9.048  0.1323 -0.1191  0.1069
 5289TIP3   OH237501   3.856   2.794   7.946  0.1184  0.2476 -0.3729
 5289TIP3    H137502   3.913   2.870   7.930 -0.3633  0.8402  0.6048
 5289TIP3    H237503   3.904   2.743   8.011 -0.0997  0.3458 -0.1315
 5290TIP3   OH237504   6.034   1.289   7.414 -0.0598  0.2492  0.2592
 5290TIP3    H137505   6.059   1.205   7.452 -1.4968  0.3815  1.6265
 5290TIP3    H237506   6.025   1.271   7.320 -0.8428 -1.2880  0.5832
 5291TIP3   OH237507   2.568   0.207   8.095 -0.4904  0.2058 -0.2065
 5291TIP3    H137508   2.505   0.163   8.152 -1.0812  2.5892  1.1342
 5291TIP3    H237509   2.566   0.299   8.124  2.6282  0.6295 -1.0111
 5292TIP3   OH237510   1.233   1.199   1.229 -0.0466 -0.0242  0.6308
 5292TIP3    H137511   1.317   1.163   1.199 -1.3622 -2.3649 -0.5117
 5292TIP3    H237512   1.196   1.241   1.152  0.0007  0.9664  1.1234
 5293TIP3   OH237513   5.331   3.474   7.003  0.2531 -0.4436 -0.3380
 5293TIP3    H137514   5.391   3.541   7.035 -0.5603  0.0710  0.1487
 5293TIP3    H237515   5.388   3.407   6.965  1.1117  0.1867 -0.1950
 5294TIP3   OH237516   2.006   4.713   8.321  0.2323 -0.4081  0.5608
 5294TIP3    H137517   2.072   4.656   8.282  0.5285 -0.0873  0.5886
 5294TIP3    H237518   2.054   4.793   8.345 -0.0956 -0.3065  0.8909
 5295TIP3   OH237519   1.439   3.632   2.321 -0.3725 -0.2456 -0.1903
 5295TIP3    H137520   1.491   3.702   2.362  0.1636 -1.4166  1.2325
 5295TIP3    H237521   1.350   3.646   2.355 -1.0316  1.5958 -2.4137
 5296TIP3   OH237522   2.724   0.908   1.056 -0.6261 -0.1822  0.4439
 5296TIP3    H137523   2.777   0.980   1.089 -0.4350 -0.0579 -0.1211
 5296TIP3    H237524   2.662   0.890   1.126  0.2086 -0.3831  1.1592
 5297TIP3   OH237525   3.463   0.497   1.112  0.1730 -0.7287  0.4646
 5297TIP3    H137526   3.529   0.438   1.146 -0.3073 -1.4667  0.1305
 5297TIP3    H237527   3.485   0.507   1.019 -0.1264 -0.9007  0.3746
 5298TIP3   OH237528   3.884   1.633   0.269  0.1930  0.0914  0.5325
 5298TIP3    H137529   3.970   1.602   0.299 -0.3986 -0.9782  1.1777
 5298TIP3    H237530   3.887   1.624   0.174  1.8933  2.9851  0.2021
 5299TIP3   OH237531   3.972   4.484   0.075 -0.1622  0.2022  0.6359
 5299TIP3    H137532   3.880   4.458   0.084 -0.1040 -0.2559 -0.0571
 5299TIP3    H237533   3.972   4.546   0.002 -0.1539  1.4657  1.6610
 5300TIP3   OH237534   5.036   1.126   1.748  0.5467 -0.6352  0.3393
 5300TIP3    H137535   4.954   1.114   1.700 -0.4267 -2.0860  2.2212
 5300TIP3    H237536   5.104   1.098   1.687 -0.5596 -1.5218 -0.5213
 5301TIP3   OH237537   6.079   1.299   9.122 -0.3006  0.3229 -0.5121
 5301TIP3    H137538   6.133   1.292   9.201 -1.6098 -0.0696  0.3883
 5301TIP3    H237539   6.137   1.271   9.051  0.1549 -1.9870  0.6406
 5302TIP3   OH237540   1.787   4.524   7.627  0.4437  0.1310 -0.3909
 5302TIP3    H137541   1.732   4.592   7.588  0.5134 -0.3601 -1.3812
 5302TIP3    H237542   1.792   4.547   7.720 -0.6589  0.7099 -0.4585
 5303TIP3   OH237543   6.601   1.671   8.072  0.3206 -0.5130  0.3105
 5303TIP3    H137544   6.589   1.761   8.042  0.1634 -0.9150 -0.8865
 5303TIP3    H237545   6.695   1.657   8.067  0.2887 -0.5977 -0.0468
 5304TIP3   OH237546   1.959   0.639   8.844 -0.3157 -0.1088  0.3570
 5304TIP3    H137547   1.906   0.717   8.830 -1.1888 -0.5788  0.9471
 5304TIP3    H237548   2.032   0.648   8.783  0.5240  1.9716  1.5520
 5305TIP3   OH237549   1.582   4.663   0.114 -0.6137 -0.2995  0.3101
 5305TIP3    H137550   1.510   4.726   0.118 -0.7576 -0.3279 -1.1653
 5305TIP3    H237551   1.626   4.671   0.199 -1.4869  0.7451  0.6903
 5306TIP3   OH237552   2.818   5.149   8.023  0.0287  0.0809 -0.2700
 5306TIP3    H137553   2.751   5.091   8.060  1.7106 -0.2180  2.5383
 5306TIP3    H237554   2.782   5.237   8.034 -0.3740 -0.1323  0.1745
 5307TIP3   OH237555   1.423   6.662   1.251  0.1004 -0.0467  0.0377
 5307TIP3    H137556   1.491   6.601   1.223 -1.1139 -1.0787 -0.7134
 5307TIP3    H237557   1.451   6.689   1.339  2.6287  1.2837 -1.0576
 5308TIP3   OH237558   3.057   0.713   8.127  0.3480  0.4012 -0.1756
 5308TIP3    H137559   2.991   0.758   8.179  0.6622  0.1974  0.4008
 5308TIP3    H237560   3.102   0.783   8.079 -0.4935  0.5138 -0.8228
 5309TIP3   OH237561   2.335   3.704   8.930  0.0827 -0.5848  0.6025
 5309TIP3    H137562   2.324   3.758   9.008 -2.2969 -0.5404  0.3268
 5309TIP3    H237563   2.429   3.705   8.912  0.3294  2.0313  1.6072
 5310TIP3   OH237564   1.927   5.774   6.807  0.2761 -0.0412  0.2494
 5310TIP3    H137565   1.874   5.702   6.773 -2.1646  1.6405  0.2020
 5310TIP3    H237566   1.917   5.769   6.902 -0.6641  0.7520  0.2003
 5311TIP3   OH237567   0.598   5.657   9.184  0.1627 -0.4240 -0.4011
 5311TIP3    H137568   0.599   5.741   9.138 -0.0082 -0.1531  0.0775
 5311TIP3    H237569   0.565   5.678   9.272 -1.5755 -1.2721 -0.8119
 5312TIP3   OH237570   3.298   4.183   9.148  0.1506 -0.1917  0.1256
 5312TIP3    H137571   3.204   4.193   9.160  0.4154  1.4032  1.0960
 5312TIP3    H237572   3.306   4.120   9.077 -1.6913  1.6979 -1.8987
 5313TIP3   OH237573   0.017   4.187   7.982 -0.4537  0.8680  0.7342
 5313TIP3    H137574   0.009   4.095   7.956  1.9410  0.6878  0.4764
 5313TIP3    H237575   0.079   4.186   8.054 -1.4993  2.1713  1.7102
 5314TIP3   OH237576   1.357   5.639   0.877  0.4373  0.0731  0.0357
 5314TIP3    H137577   1.395   5.722   0.905  2.6861 -0.6095 -0.7390
 5314TIP3    H237578   1.263   5.652   0.884  0.7364  2.4649  0.5119
 5315TIP3   OH237579   0.855   4.623   2.079  0.3961 -0.0287  0.4161
 5315TIP3    H137580   0.799   4.589   2.148  2.2589 -0.4858  1.8010
 5315TIP3    H237581   0.822   4.583   1.999 -2.2752  1.0693  0.8619
 5316TIP3   OH237582   5.659   0.751   8.642 -0.2208  0.4482 -0.0704
 5316TIP3    H137583   5.681   0.785   8.728 -0.9298  3.3680 -0.9286
 5316TIP3    H237584   5.563   0.754   8.639 -0.1946  0.6350 -1.0434
 5317TIP3   OH237585   2.565   0.062   8.598  0.7717  0.1403 -0.3654
 5317TIP3    H137586   2.586   0.138   8.544  0.6841  0.4503  0.0304
 5317TIP3    H237587   2.498   0.093   8.659  0.9644 -0.1640  0.0102
 5318TIP3   OH237588   1.820   1.116   0.187 -0.3341  0.6062 -0.1182
 5318TIP3    H137589   1.815   1.156   0.100  2.1558  0.8759 -0.2168
 5318TIP3    H237590   1.825   1.190   0.247  0.3377  0.4489  0.0310
 5319TIP3   OH237591   0.129   6.073   9.076  0.0124 -0.7825  0.1053
 5319TIP3    H137592   0.127   6.169   9.072 -0.8991 -0.7312  1.1758
 5319TIP3    H237593   0.132   6.053   9.169 -1.3134 -1.7936 -0.0361
 5320TIP3   OH237594   6.325   4.473   1.815  0.1236 -0.3957 -0.2238
 5320TIP3    H137595   6.308   4.394   1.762 -1.8920 -0.9467  1.1345
 5320TIP3    H237596   6.382   4.442   1.885 -0.3602 -0.5863  0.0942
 5321TIP3   OH237597   2.090   1.741   2.327  0.1607 -0.1428 -0.1003
 5321TIP3    H137598   2.036   1.819   2.342 -0.6441 -0.6255 -0.4104
 5321TIP3    H237599   2.126   1.754   2.239 -0.4871 -0.4066 -0.4117
 5322TIP3   OH237600   5.995   4.201   2.648  0.0752 -0.5963  0.6673
 5322TIP3    H137601   5.984   4.293   2.671 -0.2728 -0.3469 -0.4559
 5322TIP3    H237602   5.984   4.198   2.553  0.9578 -1.6697  0.5841
 5323TIP3   OH237603   4.982   3.619   1.523 -0.1006 -0.1448 -0.1451
 5323TIP3    H137604   4.909   3.568   1.560  0.5800 -1.7103 -0.8742
 5323TIP3    H237605   4.939   3.684   1.467 -1.0143  0.3355  1.0862
 5324TIP3   OH237606   5.301   4.417   9.065 -0.0029 -0.0909 -0.2425
 5324TIP3    H137607   5.295   4.376   9.151  0.4773 -1.2233 -0.7345
 5324TIP3    H237608   5.381   4.470   9.068  1.1850 -1.7869 -0.6517
 5325TIP3   OH237609   1.191   1.471   1.566  0.0264  0.3791  0.2472
 5325TIP3    H137610   1.142   1.534   1.619 -2.3353  1.0367 -2.4447
 5325TIP3    H237611   1.124   1.412   1.531  1.3878  0.1529 -2.1673
 5326TIP3   OH237612   6.340   5.180   8.519 -0.2625  0.0043  0.1765
 5326TIP3    H137613   6.339   5.237   8.596  0.3365 -1.8308  1.6101
 5326TIP3    H237614   6.415   5.209   8.468  1.7560 -1.1962  2.2885
 5327TIP3   OH237615   0.378   3.522   1.420 -0.2320 -0.3357  0.5792
 5327TIP3    H137616   0.313   3.577   1.464 -0.1310 -0.7636  1.2892
 5327TIP3    H237617   0.461   3.570   1.430 -0.3789  0.0626 -0.0582
 5328TIP3   OH237618   4.674   5.359   7.649 -0.0122  0.4344  0.3583
 5328TIP3    H137619   4.757   5.405   7.652  1.1246 -1.4234 -0.6364
 5328TIP3    H237620   4.621   5.410   7.587  1.9451 -0.5698 -2.3692
 5329TIP3   OH237621   5.994   5.736   1.269 -0.2722 -0.7796  0.1409
 5329TIP3    H137622   5.935   5.809   1.249 -0.3629 -0.8320  0.2210
 5329TIP3    H237623   6.072   5.755   1.217 -0.1914 -0.4822  0.3639
 5330TIP3   OH237624   1.127   4.203   0.668  0.2265  0.6762 -0.1678
 5330TIP3    H137625   1.130   4.298   0.657  1.2476  0.8373  1.1908
 5330TIP3    H237626   1.164   4.168   0.588 -1.9228  1.3050 -1.5383
 5331TIP3   OH237627   2.892   0.329   1.777  0.6396  0.8301  0.0421
 5331TIP3    H137628   2.840   0.357   1.852  1.3449  1.0864  0.4419
 5331TIP3    H237629   2.901   0.408   1.723 -1.7730  0.1577 -1.4988
 5332TIP3   OH237630   0.319   0.377   8.634 -0.1005 -0.4581  0.3196
 5332TIP3    H137631   0.284   0.430   8.706  0.1406  0.2276 -0.0569
 5332TIP3    H237632   0.386   0.323   8.675  0.1261  0.0219  0.5930
 5333TIP3   OH237633   2.950   3.388   1.293  0.1484  0.2733  0.1274
 5333TIP3    H137634   2.915   3.477   1.289  2.4573  1.3204  1.0108
 5333TIP3    H237635   2.974   3.368   1.202 -0.1523  0.6441 -0.0399
 5334TIP3   OH237636   3.714   2.094   8.593  0.9979 -0.8002  0.6509
 5334TIP3    H137637   3.668   2.160   8.644  0.7325 -0.0101 -0.5716
 5334TIP3    H237638   3.660   2.082   8.515  2.6878 -0.0432 -0.6915
 5335TIP3   OH237639   6.560   1.902   1.688  0.4143  0.3538 -0.5012
 5335TIP3    H137640   6.490   1.968   1.690 -0.5659 -0.6353 -0.8170
 5335TIP3    H237641   6.606   1.918   1.606 -0.2389  0.2387 -0.8978
 5336TIP3   OH237642   6.153   3.578   0.447 -0.2083 -0.6936 -0.3677
 5336TIP3    H137643   6.115   3.653   0.491  1.8950 -0.0429  0.4405
 5336TIP3    H237644   6.158   3.604   0.355  2.8703  1.3270  0.2343
 5337TIP3   OH237645   1.254   1.815   8.640 -0.3751  0.1698  0.2568
 5337TIP3    H137646   1.256   1.873   8.716  0.6448 -0.5331  0.7977
 5337TIP3    H237647   1.294   1.866   8.569 -2.7584  1.4042 -0.2863
 5338TIP3   OH237648   0.570   3.911   8.906  0.4760  0.4549  0.2327
 5338TIP3    H137649   0.646   3.890   8.960  1.6407  2.8652 -0.3205
 5338TIP3    H237650   0.573   3.846   8.835  0.7864 -0.7499  1.3129
 5339TIP3   OH237651   6.198   4.038   7.833  0.0316  0.5665 -0.0844
 5339TIP3    H137652   6.253   4.110   7.803 -0.3419  0.3161 -1.4493
 5339TIP3    H237653   6.178   3.989   7.754  0.3787 -1.1226  0.8240
 5340TIP3   OH237654   5.411   1.514   0.476 -0.2276 -0.3145  0.2788
 5340TIP3    H137655   5.354   1.586   0.449 -1.9709 -1.2498  1.2796
 5340TIP3    H237656   5.498   1.541   0.448 -1.0763  1.3802 -0.9327
 5341TIP3   OH237657   2.571   4.853   7.106  0.4340  0.0517  0.3841
 5341TIP3    H137658   2.511   4.850   7.032 -0.7884  0.1555  1.3346
 5341TIP3    H237659   2.600   4.943   7.110 -1.4554  0.6715  1.4926
 5342TIP3   OH237660   3.424   1.737   9.143  0.1746  0.5023 -0.3876
 5342TIP3    H137661   3.465   1.659   9.180 -2.8459 -1.1391 -0.2177
 5342TIP3    H237662   3.354   1.759   9.204 -0.5684  1.9146 -1.6607
 5343TIP3   OH237663   5.560   4.440   7.324  0.2099 -0.2816 -0.1287
 5343TIP3    H137664   5.514   4.357   7.322  0.0280 -0.1924  0.1967
 5343TIP3    H237665   5.596   4.450   7.236 -1.2600  0.1382 -0.7088
 5344TIP3   OH237666   4.751   1.212   0.177 -0.1756  0.4224  0.3009
 5344TIP3    H137667   4.730   1.119   0.166 -0.6601  0.6511 -0.8209
 5344TIP3    H237668   4.791   1.217   0.264  0.2603 -0.9085  0.2042
 5345TIP3   OH237669   2.024   6.308   0.200  0.4076 -0.8064 -0.5287
 5345TIP3    H137670   2.103   6.256   0.189  0.9748 -0.1130  0.1147
 5345TIP3    H237671   1.953   6.245   0.197  1.1889 -2.1672  3.2005
 5346TIP3   OH237672   2.997   6.121   8.894  0.3556  0.3756  0.2478
 5346TIP3    H137673   3.086   6.156   8.890 -0.4314  2.8937  2.0120
 5346TIP3    H237674   2.943   6.188   8.850 -0.8807 -0.1762  0.8675
 5347TIP3   OH237675   5.802   2.599   8.458  0.3919  0.1791  0.1449
 5347TIP3    H137676   5.713   2.628   8.477 -0.0930 -0.2965 -1.2831
 5347TIP3    H237677   5.794   2.507   8.436  1.4189 -0.1699  1.1116
 5348TIP3   OH237678   2.632   6.415   7.702 -0.0490  0.1130  0.1264
 5348TIP3    H137679   2.723   6.404   7.674 -0.3167 -0.4591 -0.5257
 5348TIP3    H237680   2.589   6.334   7.676 -0.5945  0.1012  1.0616
 5349TIP3   OH237681   5.827   3.924   0.508  0.6507  0.2370  0.2562
 5349TIP3    H137682   5.766   3.945   0.578  1.9638 -0.4323  1.6743
 5349TIP3    H237683   5.821   3.998   0.448 -1.9904 -0.1215 -0.0351
 5350TIP3   OH237684   0.428   1.006   8.047  0.5469 -0.0597 -0.4099
 5350TIP3    H137685   0.504   0.951   8.027  0.0824 -0.9175  0.0971
 5350TIP3    H237686   0.384   1.018   7.963  0.3774 -0.9075 -0.4544
 5351TIP3   OH237687   1.741   1.670   2.395  0.2528  0.1120 -0.3080
 5351TIP3    H137688   1.758   1.697   2.305  0.1718  0.2360 -0.2863
 5351TIP3    H237689   1.654   1.631   2.392 -0.0977  0.8723 -0.1240
 5352TIP3   OH237690   4.712   4.473   2.659 -0.6851  0.7714 -0.2817
 5352TIP3    H137691   4.660   4.456   2.581  0.5818  0.1437 -1.0328
 5352TIP3    H237692   4.724   4.386   2.698  1.0394  0.6633 -0.9712
 5353TIP3   OH237693   0.175   3.147   0.070  0.0567  0.2434  0.2926
 5353TIP3    H137694   0.201   3.233   0.103 -0.4850  0.1961  0.8650
 5353TIP3    H237695   0.232   3.132  -0.006  0.9324  0.6171  0.8503
 5354TIP3   OH237696   3.588   5.788   7.735 -0.0508 -0.0714 -0.2808
 5354TIP3    H137697   3.549   5.754   7.815 -1.1880 -0.1386 -0.8417
 5354TIP3    H237698   3.536   5.865   7.713  1.5515  1.1888  0.1419
 5355TIP3   OH237699   3.489   5.993   7.528  0.9257 -0.3295  0.1733
 5355TIP3    H137700   3.573   5.959   7.495  1.2082  0.6236 -0.1082
 5355TIP3    H237701   3.467   6.065   7.469 -0.4578 -1.0164 -0.1727
 5356TIP3   OH237702   5.706   3.423   2.383  0.9386 -0.0128 -0.3604
 5356TIP3    H137703   5.777   3.382   2.432  1.1382 -2.0246 -2.1833
 5356TIP3    H237704   5.626   3.399   2.431  1.1077 -2.1227 -1.0519
 5357TIP3   OH237705   0.201   4.412   1.179  0.3505 -0.1234  0.2468
 5357TIP3    H137706   0.280   4.457   1.209  0.1062  0.3751  0.1507
 5357TIP3    H237707   0.159   4.474   1.119  0.5366 -0.8725 -0.6844
 5358TIP3   OH237708   4.910   1.747   2.183  0.3329 -0.5419  0.0264
 5358TIP3    H137709   4.838   1.720   2.241  0.8244 -1.2419  0.3325
 5358TIP3    H237710   4.987   1.704   2.221  1.2372  1.6015  0.7500
 5359TIP3   OH237711   4.002   2.998   7.343 -0.3600 -0.2512  0.2242
 5359TIP3    H137712   3.959   2.992   7.257 -1.0124  0.2391  0.5050
 5359TIP3    H237713   3.997   3.090   7.366 -0.5550 -0.4423  0.9710
 5360TIP3   OH237714   1.254   2.617   0.891 -0.1565  0.3141  1.1669
 5360TIP3    H137715   1.169   2.605   0.934  0.3185 -3.6473  1.3837
 5360TIP3    H237716   1.256   2.551   0.822  2.5731  0.5090  0.9335
 5361TIP3   OH237717   6.620   6.346   2.826  0.2859 -0.3505 -0.0323
 5361TIP3    H137718   6.695   6.334   2.768 -0.5256  0.0846 -1.2062
 5361TIP3    H237719   6.594   6.257   2.851  0.6236 -0.5428 -0.3555
 5362TIP3   OH237720   3.484   0.725   0.646 -0.1990  0.4020  0.3455
 5362TIP3    H137721   3.489   0.799   0.706 -0.1792 -1.0756  2.2921
 5362TIP3    H237722   3.573   0.712   0.615  0.0521  0.4056  1.0451
 5363TIP3   OH237723   3.364   1.134   1.240 -0.5760  0.5558 -0.0025
 5363TIP3    H137724   3.452   1.107   1.215 -0.5220  1.4704 -0.9051
 5363TIP3    H237725   3.350   1.215   1.191 -2.2443 -0.0305 -0.5821
 5364TIP3   OH237726   0.538   6.631   1.961 -0.4366  0.4038  0.0891
 5364TIP3    H137727   0.622   6.598   1.929  0.1685  1.1754  0.8220
 5364TIP3    H237728   0.549   6.726   1.965 -1.0792  0.4600  0.9036
 5365TIP3   OH237729   1.780   3.100   8.330  0.0828  0.2259  0.0730
 5365TIP3    H137730   1.867   3.078   8.363 -0.2147 -0.0935  0.6557
 5365TIP3    H237731   1.794   3.120   8.237  0.8752  0.8415  0.3176
 5366TIP3   OH237732   5.721   1.868   7.709  0.3535 -0.1322 -0.0195
 5366TIP3    H137733   5.710   1.862   7.614 -2.1259 -0.7111  0.2194
 5366TIP3    H237734   5.634   1.846   7.744  0.3676  2.7890  2.2881
 5367TIP3   OH237735   6.673   4.453   0.007 -0.0041  0.0139 -0.7001
 5367TIP3    H137736   6.668   4.547  -0.010 -2.3903  0.5986  2.2634
 5367TIP3    H237737   6.584   4.422  -0.003  0.4260 -1.5700  0.0216
 5368TIP3   OH237738   4.487   1.111   7.902 -0.5628  0.3541 -1.0157
 5368TIP3    H137739   4.542   1.135   7.977 -0.0026  0.0691 -1.3267
 5368TIP3    H237740   4.398   1.134   7.929 -0.4905 -0.5653  0.0799
 5369TIP3   OH237741   1.853   5.719   1.101  0.6647 -0.3674  0.1707
 5369TIP3    H137742   1.860   5.800   1.051 -0.5803 -0.1999  0.2412
 5369TIP3    H237743   1.917   5.661   1.060 -0.4957 -0.3379 -1.8561
 5370TIP3   OH237744   1.338   0.442   8.166  0.0328  0.3220  0.1582
 5370TIP3    H137745   1.320   0.358   8.124  1.8887 -0.1505  0.2249
 5370TIP3    H237746   1.279   0.444   8.241 -0.2096 -0.8072  0.0200
 5371TIP3   OH237747   1.157   6.000   2.627 -0.1239  0.2126  0.0078
 5371TIP3    H137748   1.066   5.975   2.641 -0.1725 -0.0265 -0.6968
 5371TIP3    H237749   1.163   6.017   2.533  0.5456  0.2892  0.0588
 5372TIP3   OH237750   5.429   4.823   1.114 -0.3000 -0.2692 -0.0886
 5372TIP3    H137751   5.412   4.850   1.204  0.3555  0.2939 -0.1276
 5372TIP3    H237752   5.489   4.889   1.080  0.7376 -1.3531 -0.4233
 5373TIP3   OH237753   2.426   6.639   3.086  0.1221  0.0335 -0.4365
 5373TIP3    H137754   2.410   6.694   3.010  2.1608 -1.6683 -2.2684
 5373TIP3    H237755   2.514   6.604   3.072  1.4507  1.0562  3.6912
 5374TIP3   OH237756   0.997   4.338   1.910  0.0517  0.5031 -0.4142
 5374TIP3    H137757   1.008   4.433   1.911 -0.5657  0.5791  0.5498
 5374TIP3    H237758   0.998   4.314   1.817 -1.0571  1.5985 -0.7277
 5375TIP3   OH237759   0.711   6.484   1.280  0.4019 -0.0312  0.0393
 5375TIP3    H137760   0.755   6.554   1.329 -0.5291  0.6727 -0.0975
 5375TIP3    H237761   0.734   6.501   1.189 -1.4900  1.4040 -0.2419
 5376TIP3   OH237762   3.613   3.177   1.237  0.2602  0.5390  0.0017
 5376TIP3    H137763   3.656   3.236   1.299 -1.0312  0.5356  0.9213
 5376TIP3    H237764   3.670   3.100   1.233  0.3417  0.5170  1.2269
 5377TIP3   OH237765   2.879   4.580   0.943  0.0727  0.2288 -0.0288
 5377TIP3    H137766   2.910   4.531   0.867 -1.0686  0.1372 -0.4410
 5377TIP3    H237767   2.912   4.669   0.929  0.5077  0.0363 -0.2495
 5378TIP3   OH237768   0.422   1.842   8.430 -0.3900  0.1143 -0.3323
 5378TIP3    H137769   0.394   1.864   8.341  0.2695  1.2515 -0.2676
 5378TIP3    H237770   0.466   1.920   8.462  1.5848 -1.0985  0.0981
 5379TIP3   OH237771   6.531   2.582   9.028 -0.0213 -0.6110  0.2941
 5379TIP3    H137772   6.476   2.661   9.032  0.1839 -0.4127 -0.5827
 5379TIP3    H237773   6.607   2.603   9.083  0.0893 -0.1483 -0.0305
 5380TIP3   OH237774   6.673   0.232   3.046  0.0707 -0.0869 -0.0992
 5380TIP3    H137775   6.725   0.153   3.029 -0.0087 -0.1949  0.1559
 5380TIP3    H237776   6.710   0.267   3.127 -0.4982 -0.3697  0.2891
 5381TIP3   OH237777   2.935   2.121   0.958  0.1808  0.4305 -0.0756
 5381TIP3    H137778   2.930   2.102   0.864 -0.7408  0.9326 -0.1385
 5381TIP3    H237779   2.953   2.215   0.962  1.6763  0.1629  0.2555
 5382TIP3   OH237780   0.832   0.430   0.620  0.2558 -0.7271  0.1040
 5382TIP3    H137781   0.781   0.466   0.547 -1.4356 -0.2063  1.4892
 5382TIP3    H237782   0.783   0.353   0.648  0.1303 -0.1326  1.5659
 5383TIP3   OH237783   5.131   3.124   1.999  0.1884 -0.4897 -0.0479
 5383TIP3    H137784   5.116   3.212   2.033 -0.4954 -0.5947 -0.0683
 5383TIP3    H237785   5.155   3.138   1.907  0.8939 -0.2790  0.1620
 5384TIP3   OH237786   3.763   4.242   0.444 -0.1090  0.4053  0.7493
 5384TIP3    H137787   3.699   4.221   0.376  1.5625 -0.2194 -0.7097
 5384TIP3    H237788   3.765   4.165   0.500 -1.0869  0.6986  1.2180
 5385TIP3   OH237789   4.933   0.760   7.375  0.1082 -0.0049  0.5254
 5385TIP3    H137790   4.978   0.692   7.325  1.3396  1.2878 -0.1836
 5385TIP3    H237791   4.880   0.807   7.310 -0.8719 -0.3546  1.0399
 5386TIP3   OH237792   4.823   3.279   0.513 -0.7585 -0.4823 -0.0625
 5386TIP3    H137793   4.911   3.247   0.534 -0.4147  0.1185 -0.5500
 5386TIP3    H237794   4.837   3.342   0.442 -1.4911  0.2431  0.4207
 5387TIP3   OH237795   2.511   2.244   0.671 -0.0937 -0.2290 -0.6565
 5387TIP3    H137796   2.526   2.337   0.687 -0.7025 -0.0676 -0.9851
 5387TIP3    H237797   2.454   2.215   0.743 -1.4926  0.1191 -1.5682
 5388TIP3   OH237798   5.245   2.023   8.741  0.3956 -0.3878 -0.2308
 5388TIP3    H137799   5.310   2.078   8.698  0.8764  0.0618  1.0346
 5388TIP3    H237800   5.173   2.082   8.761  0.1457 -0.6072 -0.4828
 5389TIP3   OH237801   5.405   6.181   7.765  0.2942 -0.0739 -0.1656
 5389TIP3    H137802   5.420   6.246   7.696 -0.8289  0.2172 -0.1603
 5389TIP3    H237803   5.486   6.180   7.816  0.8119  0.3479 -0.9640
 5390TIP3   OH237804   3.129   1.475   3.039 -0.2396 -0.0611  0.0393
 5390TIP3    H137805   3.045   1.519   3.048 -0.6237 -0.6707 -0.4776
 5390TIP3    H237806   3.108   1.391   2.998  0.6809  0.0244 -0.6408
 5391TIP3   OH237807   6.092   5.338   7.323 -0.0486  0.1515  0.0177
 5391TIP3    H137808   6.100   5.399   7.250 -2.5904 -1.1070 -1.4307
 5391TIP3    H237809   5.998   5.327   7.335  0.2960 -3.3075  0.3528
 5392TIP3   OH237810   3.763   2.874   1.712 -0.1914 -0.4663 -0.0729
 5392TIP3    H137811   3.797   2.929   1.783 -1.1096  0.7403 -0.5379
 5392TIP3    H237812   3.759   2.787   1.750  0.8048 -0.1313  0.8599
 5393TIP3   OH237813   4.281   6.000   0.043  0.1444  0.3515 -0.6337
 5393TIP3    H137814   4.329   6.036  -0.032  1.3537 -2.1474 -1.1824
 5393TIP3    H237815   4.251   5.914   0.012 -0.1121 -0.3540  1.4527
 5394TIP3   OH237816   6.637   6.339   3.196 -0.4217  0.6281  0.1450
 5394TIP3    H137817   6.705   6.280   3.164  0.3536  1.3317  0.4729
 5394TIP3    H237818   6.661   6.425   3.162 -0.9301  0.9569  0.5989
 5395TIP3   OH237819   3.257   5.446   1.038  0.2930 -0.1072  0.0871
 5395TIP3    H137820   3.187   5.472   1.098  1.2042 -1.7144  1.9557
 5395TIP3    H237821   3.213   5.436   0.953 -0.8931  2.9923  0.2048
 5396TIP3   OH237822   5.281   4.364   0.496 -0.0226 -0.4497  0.2884
 5396TIP3    H137823   5.278   4.283   0.446 -2.4535 -0.4672  0.3215
 5396TIP3    H237824   5.230   4.346   0.575  1.7871  0.2873  1.7208
 5397TIP3   OH237825   5.482   4.522   0.427  0.8434  0.6738 -0.4296
 5397TIP3    H137826   5.532   4.462   0.372  1.0405  0.2848  0.1544
 5397TIP3    H237827   5.401   4.475   0.445  0.8475  0.7313 -0.2612
 5398TIP3   OH237828   6.296   4.842   7.882 -0.1364 -0.0492 -0.3687
 5398TIP3    H137829   6.220   4.896   7.903  0.1731  0.6058 -0.9064
 5398TIP3    H237830   6.311   4.858   7.789  0.3592 -0.5617 -0.3804
 5399TIP3   OH237831   6.389   6.384   3.348 -0.6208 -0.1016 -0.2314
 5399TIP3    H137832   6.411   6.371   3.256 -0.3188 -0.8423 -0.0526
 5399TIP3    H237833   6.414   6.303   3.392 -1.7857 -0.1870  0.3240
 5400TIP3   OH237834   1.345   0.408   1.471  0.1793 -0.1070  0.7088
 5400TIP3    H137835   1.279   0.476   1.486 -1.1520 -0.5162 -2.5276
 5400TIP3    H237836   1.424   0.456   1.447 -0.6238  0.3773 -1.1072
 5401TIP3   OH237837   6.604   5.715   0.744 -0.0716  0.0230  0.5024
 5401TIP3    H137838   6.523   5.758   0.717  0.9106  1.1848 -0.7524
 5401TIP3    H237839   6.576   5.630   0.778 -1.7414  0.0916 -0.5782
 5402TIP3   OH237840   5.110   6.161   8.225 -0.4826  0.3945 -0.1454
 5402TIP3    H137841   5.172   6.153   8.153  1.3030  1.2887  1.2032
 5402TIP3    H237842   5.050   6.230   8.197  0.4500  1.0389 -0.6180
 5403TIP3   OH237843   1.042   2.012   1.528  0.8820 -0.2421 -0.2146
 5403TIP3    H137844   1.085   1.999   1.613  0.0578 -1.2791  0.0621
 5403TIP3    H237845   1.029   2.106   1.522  2.0085 -0.0330  0.2732
 5404TIP3   OH237846   6.351   3.077   1.698 -0.4074 -0.1295 -0.3529
 5404TIP3    H137847   6.375   2.996   1.742 -0.6620 -0.5685 -1.0130
 5404TIP3    H237848   6.410   3.083   1.623  2.1945  2.2092  1.6916
 5405TIP3   OH237849   1.698   4.727   7.860  0.5358  0.1988  0.4986
 5405TIP3    H137850   1.737   4.791   7.800 -0.8741  0.2734 -0.3905
 5405TIP3    H237851   1.773   4.677   7.893  1.3703  0.0057 -1.4974
 5406TIP3   OH237852   5.440   1.470   2.255  0.5597  0.3759 -0.3713
 5406TIP3    H137853   5.370   1.487   2.192  1.7002  1.1699 -1.4557
 5406TIP3    H237854   5.400   1.487   2.341 -0.3936  1.4586 -1.0070
 5407TIP3   OH237855   2.328   1.294   8.195  0.3292  0.1505  0.0795
 5407TIP3    H137856   2.258   1.336   8.145 -0.5295 -0.6873  0.5377
 5407TIP3    H237857   2.408   1.331   8.160 -0.3671  1.7454  0.1058
 5408TIP3   OH237858   1.177   2.700   0.435  0.1901  0.8161  0.3332
 5408TIP3    H137859   1.187   2.689   0.530 -1.3843  3.2545  0.8873
 5408TIP3    H237860   1.246   2.762   0.411  1.3240 -0.6806 -0.3785
 5409TIP3   OH237861   2.629   5.594   7.441 -0.0554 -0.0080 -0.6635
 5409TIP3    H137862   2.592   5.568   7.356  0.6414 -0.9034 -0.7123
 5409TIP3    H237863   2.707   5.645   7.418 -0.0225 -0.0145 -0.5674
 5410TIP3   OH237864   2.036   4.098   8.145 -0.5995 -0.2422 -0.3142
 5410TIP3    H137865   1.954   4.052   8.125  0.1139 -1.9475  0.4607
 5410TIP3    H237866   2.101   4.055   8.089 -0.1471  0.8152 -0.6212
 5411TIP3   OH237867   6.159   0.934   0.713  0.3987 -0.4655 -0.5175
 5411TIP3    H137868   6.164   0.839   0.720  0.6748 -0.6667 -2.7246
 5411TIP3    H237869   6.235   0.965   0.764  1.6822 -1.5694 -1.6738
 5412TIP3   OH237870   1.492   3.476   0.870 -0.0175 -0.6630 -0.0138
 5412TIP3    H137871   1.466   3.563   0.840  0.3755 -0.4244  0.3336
 5412TIP3    H237872   1.498   3.424   0.789  3.2359  0.5368 -0.7151
 5413TIP3   OH237873   0.516   6.326   0.634 -0.1249  0.6525  0.5186
 5413TIP3    H137874   0.453   6.334   0.563  1.5164 -0.0533 -1.0999
 5413TIP3    H237875   0.476   6.264   0.696 -0.2299 -1.3050 -1.4062
 5414TIP3   OH237876   1.082   5.855   7.735  0.1091  0.0280  0.3430
 5414TIP3    H137877   1.156   5.821   7.785 -0.1561 -0.7148  0.2427
 5414TIP3    H237878   1.110   5.851   7.644 -0.1281 -0.4673  0.2861
 5415TIP3   OH237879   0.284   5.991   0.873  0.4329 -0.0863 -0.3442
 5415TIP3    H137880   0.199   6.009   0.833 -0.3004 -0.8354  0.8227
 5415TIP3    H237881   0.268   5.995   0.967  1.4710 -1.2194 -0.0871
 5416TIP3   OH237882   2.719   4.813   2.661  0.1884  0.1587 -0.5446
 5416TIP3    H137883   2.719   4.844   2.571  0.5596  1.8712 -0.0008
 5416TIP3    H237884   2.812   4.805   2.684  0.1036  0.1751 -0.1805
 5417TIP3   OH237885   4.091   5.625   7.187 -0.0916  0.3181  0.1355
 5417TIP3    H137886   4.074   5.719   7.182  0.5002  0.3722 -1.3785
 5417TIP3    H237887   4.005   5.586   7.202 -0.5182  1.0170 -0.4255
 5418TIP3   OH237888   5.286   2.634   9.195  0.3338 -0.4911  0.0828
 5418TIP3    H137889   5.321   2.591   9.117  0.8001 -0.4296  0.2556
 5418TIP3    H237890   5.321   2.723   9.190  0.1589 -0.4138  0.2307
 5419TIP3   OH237891   5.255   2.790   1.272  0.2218 -0.3859 -0.2725
 5419TIP3    H137892   5.259   2.885   1.270 -1.2986 -0.2822  0.3835
 5419TIP3    H237893   5.276   2.763   1.182 -1.3631  0.6857 -1.0065
 5420TIP3   OH237894   3.020   2.363   2.319  0.1781  0.0104  0.4470
 5420TIP3    H137895   3.067   2.432   2.272  0.9471 -1.7543 -1.5591
 5420TIP3    H237896   3.049   2.372   2.410  0.3844  2.1788  0.2216
 5421TIP3   OH237897   5.380   5.614   2.052 -0.5157  0.6949  0.5167
 5421TIP3    H137898   5.311   5.672   2.086 -1.1485  0.1319  0.2202
 5421TIP3    H237899   5.408   5.564   2.128  1.2607  2.5520  1.1684
 5422TIP3   OH237900   2.403   4.754   0.588  0.0937 -0.5201  0.4657
 5422TIP3    H137901   2.357   4.684   0.542 -1.1997 -0.5875  1.8038
 5422TIP3    H237902   2.422   4.819   0.520  0.4615 -1.7260 -0.6095
 5423TIP3   OH237903   5.614   5.788   2.572 -0.2979 -0.1221  0.0870
 5423TIP3    H137904   5.540   5.837   2.607 -0.2683 -0.5849  0.8286
 5423TIP3    H237905   5.681   5.855   2.554 -0.3300  0.1385  0.8886
 5424TIP3   OH237906   3.810   3.172   8.008 -0.1986  0.1093 -0.4425
 5424TIP3    H137907   3.898   3.149   7.976  0.4513  2.8068 -0.8300
 5424TIP3    H237908   3.772   3.088   8.035  2.8209 -1.0558  0.6089
 5425TIP3   OH237909   1.692   1.362   8.977 -0.0775  0.9737 -0.4495
 5425TIP3    H137910   1.606   1.322   8.991  0.6855 -0.9938 -1.0614
 5425TIP3    H237911   1.692   1.387   8.885  0.0448  0.8494 -0.4839
 5426TIP3   OH237912   3.095   1.413   7.468  0.3040 -0.2835 -0.1521
 5426TIP3    H137913   3.035   1.464   7.414  0.4792  0.6119  0.4832
 5426TIP3    H237914   3.180   1.421   7.424  1.0687  2.7062  1.5931
 5427TIP3   OH237915   2.624   6.136   2.044  0.4285 -0.4464  0.2085
 5427TIP3    H137916   2.569   6.208   2.013 -1.5063 -1.0963  1.9124
 5427TIP3    H237917   2.605   6.063   1.986  0.1268 -0.4276  0.2843
 5428TIP3   OH237918   4.322   6.521   0.501 -0.1813  0.0251  0.2130
 5428TIP3    H137919   4.252   6.460   0.478 -0.1239  0.8563 -2.5508
 5428TIP3    H237920   4.281   6.608   0.496  0.0995  0.3511  2.6065
 5429TIP3   OH237921   2.171   0.777   0.410  0.1456  0.2140 -0.2773
 5429TIP3    H137922   2.253   0.744   0.373 -0.3781 -0.1024 -1.2053
 5429TIP3    H237923   2.159   0.863   0.368 -0.1571  0.1157 -0.3925
 5430TIP3   OH237924   5.903   1.023   1.575 -0.1770  0.3946 -0.0418
 5430TIP3    H137925   5.813   1.056   1.576  0.8140  3.4886 -0.8312
 5430TIP3    H237926   5.957   1.099   1.597  2.3629 -0.9456 -1.1221
 5431TIP3   OH237927   6.432   6.276   8.166 -0.3331 -0.0992  0.0984
 5431TIP3    H137928   6.395   6.194   8.196  0.6247  0.6131  3.7303
 5431TIP3    H237929   6.509   6.251   8.115 -1.3326 -1.4006 -0.8503
 5432TIP3   OH237930   2.557   0.903   8.319  0.1355 -0.0081  0.3676
 5432TIP3    H137931   2.555   0.996   8.343  0.6686 -0.0144  0.4490
 5432TIP3    H237932   2.525   0.858   8.397 -2.2228  0.2294 -0.4043
 5433TIP3   OH237933   1.094   3.548   1.065  0.1685 -0.1238  0.4398
 5433TIP3    H137934   1.085   3.640   1.090 -0.1374 -0.5660  2.0910
 5433TIP3    H237935   1.172   3.518   1.112  0.1678 -0.7504  0.0556
 5434TIP3   OH237936   6.104   5.549   0.954  0.5303 -0.5723 -0.2860
 5434TIP3    H137937   6.036   5.502   1.002 -0.6928 -0.9077 -2.2324
 5434TIP3    H237938   6.181   5.543   1.010 -0.3340 -2.4676  0.8122
 5435TIP3   OH237939   4.606   6.250   8.088 -0.1588  0.3803 -0.3360
 5435TIP3    H137940   4.568   6.334   8.060 -0.5898  0.8795  1.5942
 5435TIP3    H237941   4.599   6.252   8.183  0.1905 -1.7006 -0.2328
 5436TIP3   OH237942   4.188   3.404   2.417  0.6684 -0.4247  0.4809
 5436TIP3    H137943   4.230   3.490   2.421  1.5498 -0.8821  1.9498
 5436TIP3    H237944   4.159   3.387   2.507  2.2436 -2.4392  0.6975
 5437TIP3   OH237945   3.162   0.774   7.756 -0.3404 -0.8335 -0.1632
 5437TIP3    H137946   3.158   0.691   7.803 -1.4998 -0.8052 -0.1942
 5437TIP3    H237947   3.224   0.758   7.685  1.9383 -0.7010  1.6399
 5438TIP3   OH237948   1.250   5.191   0.863 -0.4799  0.1805  0.0947
 5438TIP3    H137949   1.242   5.153   0.950 -2.5341 -2.3421 -1.0389
 5438TIP3    H237950   1.166   5.234   0.848  0.1931  1.4020 -0.3466
 5439TIP3   OH237951   4.377   0.567   2.356  0.0665  0.1487  0.5930
 5439TIP3    H137952   4.337   0.640   2.309  0.9886 -0.0093 -0.4751
 5439TIP3    H237953   4.360   0.586   2.448 -0.8811  1.0032  0.2548
 5440TIP3   OH237954   4.360   3.425   9.198  0.2616 -0.0239 -0.8483
 5440TIP3    H137955   4.318   3.379   9.126 -0.1152 -0.5636 -0.2997
 5440TIP3    H237956   4.347   3.518   9.179  1.2423 -0.1277 -2.0932
 5441TIP3   OH237957   2.641   0.313   8.489  0.1696 -0.5258  0.2670
 5441TIP3    H137958   2.722   0.326   8.538  0.1970 -0.9728  0.3373
 5441TIP3    H237959   2.598   0.399   8.491  1.4569  0.2165 -1.2734
 5442TIP3   OH237960   1.058   1.267   2.857  0.4765  0.0115  0.5906
 5442TIP3    H137961   1.065   1.362   2.852 -0.8309  0.2592  2.4684
 5442TIP3    H237962   1.046   1.239   2.766 -1.8529  1.9159  0.2337
 5443TIP3   OH237963   4.717   3.786   8.952  0.3520  0.2336 -0.2354
 5443TIP3    H137964   4.674   3.867   8.924 -0.3747 -0.6214 -1.7294
 5443TIP3    H237965   4.808   3.797   8.925  0.3603  0.7238 -0.0252
 5444TIP3   OH237966   6.458   2.307   2.695  0.2255 -0.1600 -0.4491
 5444TIP3    H137967   6.538   2.351   2.665 -0.3713  1.1632 -0.1839
 5444TIP3    H237968   6.456   2.324   2.790  0.3173 -1.3535 -0.2150
 5445TIP3   OH237969   1.443   3.466   8.124 -0.8648  0.8924 -0.2743
 5445TIP3    H137970   1.419   3.536   8.185 -0.0755  1.2048 -0.3098
 5445TIP3    H237971   1.510   3.505   8.068 -0.4076  0.1072 -0.2920
 5446TIP3   OH237972   3.435   0.711   8.372  0.7542 -0.1118 -0.2490
 5446TIP3    H137973   3.464   0.659   8.297  0.7144  0.8448 -0.9481
 5446TIP3    H237974   3.489   0.680   8.445 -0.0933 -1.9696 -0.3486
 5447TIP3   OH237975   5.733   2.020   0.566  0.2077 -0.0891 -0.1590
 5447TIP3    H137976   5.653   2.039   0.517  0.7646 -0.5510 -1.3010
 5447TIP3    H237977   5.765   2.106   0.594  0.0019  0.2135 -0.8283
 5448TIP3   OH237978   2.237   5.240   8.364 -0.9016 -0.0715  0.6519
 5448TIP3    H137979   2.264   5.273   8.449 -0.0107  0.2087  0.2715
 5448TIP3    H237980   2.317   5.237   8.312 -0.8282 -3.1008  0.7316
 5449TIP3   OH237981   3.201   5.091   0.483  0.8727 -0.2786 -0.3142
 5449TIP3    H137982   3.227   5.069   0.393  0.9378 -1.6889  0.0325
 5449TIP3    H237983   3.148   5.017   0.511 -0.8324  1.0562  0.1321
 5450TIP3   OH237984   0.876   5.152   0.936  0.1092  0.4445 -0.0009
 5450TIP3    H137985   0.821   5.099   0.878  1.2241 -0.4482 -0.2853
 5450TIP3    H237986   0.880   5.102   1.017 -1.5457  1.7522  0.9288
 5451TIP3   OH237987   4.144   5.531   8.380 -0.3101 -0.2426 -0.2511
 5451TIP3    H137988   4.095   5.526   8.297  0.2908 -0.9126 -0.5841
 5451TIP3    H237989   4.110   5.608   8.424 -0.7676  0.0230 -1.0505
 5452TIP3   OH237990   6.456   2.861   8.903 -0.1509 -0.5292 -0.3266
 5452TIP3    H137991   6.404   2.905   8.837 -2.3725 -2.0698  0.3112
 5452TIP3    H237992   6.499   2.933   8.950 -2.3023  0.8980 -0.3889
 5453TIP3   OH237993   5.270   6.120   8.748  0.6463 -0.3862 -0.4770
 5453TIP3    H137994   5.283   6.195   8.806  0.2044  0.2915 -1.2329
 5453TIP3    H237995   5.356   6.107   8.707  0.0239  1.7233 -2.6737
 5454TIP3   OH237996   2.729   2.038   1.880 -0.2014 -0.5806  0.1674
 5454TIP3    H137997   2.743   1.976   1.951  2.8523  0.0347  0.2411
 5454TIP3    H237998   2.737   2.124   1.921  0.8140 -0.2193 -0.7409
 5455TIP3   OH237999   1.516   2.632   0.291 -0.4830  0.0837  0.3502
 5455TIP3    H138000   1.536   2.577   0.215  0.4108  0.9959 -0.1178
 5455TIP3    H238001   1.602   2.652   0.328 -0.8474  0.4950  0.9802
 5456TIP3   OH238002   0.576   2.874   7.268 -0.1071  0.2718 -0.0655
 5456TIP3    H138003   0.570   2.969   7.253  0.4707  1.1047  3.8620
 5456TIP3    H238004   0.485   2.844   7.269 -0.3036  0.7648 -1.0743
 5457TIP3   OH238005   2.957   1.673   2.352  0.2706  0.2349  0.6680
 5457TIP3    H138006   2.973   1.580   2.370 -1.0086  0.4662  3.4191
 5457TIP3    H238007   2.899   1.673   2.277  0.2023 -1.1935  0.6879
 5458TIP3   OH238008   0.772   0.775   1.277  0.4365 -0.2996 -0.0667
 5458TIP3    H138009   0.808   0.755   1.190  1.6258 -0.1713  0.3751
 5458TIP3    H238010   0.713   0.703   1.295 -0.2801 -0.0316 -1.2307
 5459TIP3   OH238011   1.592   0.578   8.465 -0.8473  0.2878 -0.1314
 5459TIP3    H138012   1.632   0.608   8.546 -2.2244  1.4284  0.1582
 5459TIP3    H238013   1.545   0.654   8.431  0.8984  0.3116 -2.8088
 5460TIP3   OH238014   1.112   1.015   0.645 -0.3512  0.3126 -0.4706
 5460TIP3    H138015   1.144   0.984   0.560 -2.3066  1.0603 -1.5346
 5460TIP3    H238016   1.047   1.081   0.623 -0.8536  0.5623  1.6313
 5461TIP3   OH238017   2.475   6.594   7.464  0.2710  0.4882 -0.6469
 5461TIP3    H138018   2.425   6.632   7.392 -0.4158  0.4979 -0.1758
 5461TIP3    H238019   2.521   6.669   7.504 -0.0974  0.6322 -0.4900
 5462TIP3   OH238020   4.984   4.967   2.789  0.3230 -0.2604  0.2923
 5462TIP3    H138021   4.944   5.054   2.785  2.5281  0.7767 -0.9969
 5462TIP3    H238022   4.985   4.945   2.882 -0.4854  0.9716  0.6149
 5463TIP3   OH238023   3.792   4.551   1.123 -0.0892 -0.1762  0.1575
 5463TIP3    H138024   3.838   4.490   1.180  0.2696  1.3426  1.5771
 5463TIP3    H238025   3.701   4.550   1.155 -0.4704 -1.1634 -0.8930
 5464TIP3   OH238026   1.569   0.067   7.955 -0.2455 -0.4222  0.0513
 5464TIP3    H138027   1.652   0.048   7.999  0.6370  0.7617 -1.0680
 5464TIP3    H238028   1.509  -0.001   7.987  1.9920 -3.3860 -1.5974
 5465TIP3   OH238029   2.732   1.710   8.588  0.0318  0.0696  0.2409
 5465TIP3    H138030   2.735   1.709   8.684  1.5639  1.1873  0.2409
 5465TIP3    H238031   2.801   1.772   8.563 -0.4473 -0.0982 -1.5833
 5466TIP3   OH238032   6.339   3.295   2.138  0.4232 -0.4179  0.4169
 5466TIP3    H138033   6.278   3.350   2.089 -0.3051  0.8267  2.6027
 5466TIP3    H238034   6.414   3.286   2.080 -1.0395 -0.4303 -1.5895
 5467TIP3   OH238035   4.663   3.435   8.600  1.0030  0.3210  0.0066
 5467TIP3    H138036   4.590   3.483   8.638  0.2273  0.3629 -1.4709
 5467TIP3    H238037   4.739   3.461   8.653 -0.1067 -0.1554  1.9297
 5468TIP3   OH238038   2.453   6.615   2.216 -0.6538  0.3277  0.0488
 5468TIP3    H138039   2.443   6.616   2.311  2.8414  0.0786  0.5597
 5468TIP3    H238040   2.445   6.707   2.190 -0.2302  0.5863  0.8050
 5469TIP3   OH238041   0.375   5.012   9.196 -0.0872  1.0786  0.1820
 5469TIP3    H138042   0.330   4.931   9.221 -1.2569  2.0976  1.5395
 5469TIP3    H238043   0.462   5.004   9.233 -0.3575  0.6573  0.7373
 5470TIP3   OH238044   1.609   2.518   9.068  0.5536  0.6869  0.8979
 5470TIP3    H138045   1.679   2.454   9.053  0.3561  0.4360  1.0322
 5470TIP3    H238046   1.549   2.505   8.994 -0.7767 -1.0236  2.1712
 5471TIP3   OH238047   1.313   1.217   0.590 -0.3145 -0.1605  0.1993
 5471TIP3    H138048   1.273   1.133   0.607 -0.3330 -0.0518  0.6925
 5471TIP3    H238049   1.407   1.200   0.593 -0.3154 -0.0651  0.7942
 5472TIP3   OH238050   3.327   6.484   8.853 -0.1143 -0.3546 -0.6091
 5472TIP3    H138051   3.352   6.430   8.778  0.9112 -1.7640  0.6901
 5472TIP3    H238052   3.393   6.553   8.855  0.4415 -0.8881 -0.4220
 5473TIP3   OH238053   5.202   4.799   7.339  0.1187 -0.1218 -0.0873
 5473TIP3    H138054   5.209   4.717   7.290 -0.9443 -0.5408  0.4299
 5473TIP3    H238055   5.116   4.833   7.316  0.7722  1.1666 -0.7470
 5474TIP3   OH238056   5.437   2.836   7.089  0.2216 -0.0022 -0.9393
 5474TIP3    H138057   5.529   2.852   7.109  0.0234 -0.6540  0.6839
 5474TIP3    H238058   5.403   2.790   7.166 -1.4648  0.2110 -1.5004
 5475TIP3   OH238059   3.445   5.570   0.776 -0.6523 -0.2078 -0.5817
 5475TIP3    H138060   3.425   5.575   0.870 -0.9969  1.2982 -0.7150
 5475TIP3    H238061   3.460   5.660   0.750  1.1685 -0.7500 -1.6323
 5476TIP3   OH238062   1.466   3.125   8.845  0.2042 -0.0539  0.6820
 5476TIP3    H138063   1.389   3.174   8.873  0.5466  0.5880  0.5139
 5476TIP3    H238064   1.488   3.162   8.760  0.1033 -0.9268  0.2634
 5477TIP3   OH238065   5.367   5.868   7.720  0.0041  0.0178 -0.1387
 5477TIP3    H138066   5.289   5.901   7.765  0.6908  0.4057  0.7776
 5477TIP3    H238067   5.432   5.856   7.789  0.4978 -1.1050 -0.7749
 5478TIP3   OH238068   0.373   4.725   0.435 -0.2761 -0.2516  0.0181
 5478TIP3    H138069   0.317   4.672   0.379 -2.0138  1.5276 -0.0398
 5478TIP3    H238070   0.328   4.809   0.441  3.1093  1.8520 -1.2063
 5479TIP3   OH238071   2.350   0.959   0.830 -0.1352 -0.5897 -0.1559
 5479TIP3    H138072   2.297   1.012   0.770  0.6897 -0.1372 -0.5000
 5479TIP3    H238073   2.419   1.018   0.860 -0.5366 -0.7966  1.2706
 5480TIP3   OH238074   4.709   5.893   2.239  0.1876  0.1918  0.1572
 5480TIP3    H138075   4.745   5.966   2.289 -0.5887  0.2164  0.7033
 5480TIP3    H238076   4.714   5.921   2.148  0.1264  0.8238  0.3427
 5481TIP3   OH238077   0.175   5.637   1.424 -0.4430 -0.1514  0.1842
 5481TIP3    H138078   0.232   5.681   1.489 -1.8339  1.5936  0.2867
 5481TIP3    H238079   0.221   5.649   1.341  0.7878 -1.4016  0.6343
 5482TIP3   OH238080   4.111   1.278   8.979  0.2148 -0.4004  0.2890
 5482TIP3    H138081   4.137   1.365   8.948  0.6394  0.0732  1.8797
 5482TIP3    H238082   4.085   1.292   9.070  1.2654 -2.1099  0.8887
 5483TIP3   OH238083   0.454   0.061   0.715  0.2081 -0.0525 -0.1601
 5483TIP3    H138084   0.434   0.035   0.805 -0.7717  0.1404 -0.3164
 5483TIP3    H238085   0.369   0.063   0.671  0.8529 -2.7174 -1.7902
 5484TIP3   OH238086   4.311   5.266   0.188  0.7087 -0.0537  0.8467
 5484TIP3    H138087   4.323   5.195   0.126  1.7102 -0.4124  1.4262
 5484TIP3    H238088   4.399   5.301   0.201  0.2709  1.1096  0.7904
 5485TIP3   OH238089   3.870   5.909   2.141  0.1781 -0.4241  0.0868
 5485TIP3    H138090   3.875   5.898   2.046  0.6835  0.7059 -0.0298
 5485TIP3    H238091   3.937   5.849   2.175  0.7694 -0.0153 -0.3417
 5486TIP3   OH238092   6.427   4.167   1.468  0.6185  0.5130 -0.3240
 5486TIP3    H138093   6.473   4.153   1.551 -0.2998  0.8173  0.2586
 5486TIP3    H238094   6.479   4.235   1.424  0.9094  0.6199  0.1679
 5487TIP3   OH238095   1.342   2.680   1.944 -0.3633 -0.4787  0.4719
 5487TIP3    H138096   1.261   2.708   1.901 -0.1664  0.6825  0.8317
 5487TIP3    H238097   1.365   2.599   1.899 -1.0435 -0.1554 -0.5082
 5488TIP3   OH238098   5.031   1.544   3.346  0.1055  0.1766 -0.2275
 5488TIP3    H138099   4.966   1.483   3.311 -1.0632  1.1400  0.2148
 5488TIP3    H238100   5.012   1.627   3.303  0.9287  0.5196  0.0507
 5489TIP3   OH238101   4.229   1.204   2.050  0.0433 -0.0823  0.0874
 5489TIP3    H138102   4.228   1.281   1.994 -1.8770  0.3214  0.5972
 5489TIP3    H238103   4.216   1.130   1.990 -0.5031  0.2124 -0.1597
 5490TIP3   OH238104   2.807   4.647   1.410  0.1228 -0.0359 -0.0622
 5490TIP3    H138105   2.785   4.620   1.499 -1.3644 -1.4317 -0.8094
 5490TIP3    H238106   2.862   4.577   1.376 -2.4195 -1.4840 -1.4608
 5491TIP3   OH238107   6.609   4.717   1.557  0.4743 -0.0138 -0.4402
 5491TIP3    H138108   6.640   4.794   1.604  0.4094 -0.5254  0.4532
 5491TIP3    H238109   6.687   4.681   1.516  0.2028  1.7179 -2.7039
 5492TIP3   OH238110   0.907   1.054   2.416 -0.2132  0.2974  0.5883
 5492TIP3    H138111   0.884   1.117   2.484 -0.3404  0.1424  0.6912
 5492TIP3    H238112   0.857   0.975   2.439 -2.5067  1.1091 -1.2391
 5493TIP3   OH238113   3.928   5.258   8.341 -0.2094 -0.2534 -0.1341
 5493TIP3    H138114   3.934   5.321   8.413  0.7521 -0.7485  0.2350
 5493TIP3    H238115   3.978   5.298   8.270 -1.1248  0.2170 -0.5284
 5494TIP3   OH238116   4.673   3.246   8.117 -0.3932 -0.3723 -0.5624
 5494TIP3    H138117   4.670   3.196   8.198  2.2582 -0.4674 -0.4315
 5494TIP3    H238118   4.604   3.311   8.126 -1.0051 -1.1959  1.1816
 5495TIP3   OH238119   1.996   6.146   2.000 -0.0240 -0.9753  0.1163
 5495TIP3    H138120   2.086   6.115   1.995  0.0882 -0.6433  0.0875
 5495TIP3    H238121   1.997   6.232   1.957 -0.1152 -0.4473  1.1339
 5496TIP3   OH238122   4.530   4.414   8.544  0.4665 -0.4754  0.1007
 5496TIP3    H138123   4.506   4.324   8.524 -0.4595 -0.2330  0.0536
 5496TIP3    H238124   4.558   4.451   8.460 -0.0159 -0.4711 -0.0630
 5497TIP3   OH238125   5.199   2.394   7.805 -0.5263 -0.0995  0.1334
 5497TIP3    H138126   5.155   2.356   7.729  0.6254  0.4866 -0.8592
 5497TIP3    H238127   5.291   2.369   7.794  0.3993  3.2007 -0.8044
 5498TIP3   OH238128   1.567   6.643   8.703 -0.1863  0.4462 -0.0941
 5498TIP3    H138129   1.521   6.560   8.687  0.3335  0.0802  0.2573
 5498TIP3    H238130   1.499   6.702   8.735 -0.3447 -0.2362  0.8826
 5499TIP3   OH238131   3.467   0.151   1.173  0.1036  0.3680  0.2120
 5499TIP3    H138132   3.475   0.144   1.268  1.7318 -1.4026  0.0178
 5499TIP3    H238133   3.530   0.219   1.148 -0.7346  1.2318  0.4386
 5500TIP3   OH238134   4.551   4.658   1.539  0.2605 -0.2783 -0.1563
 5500TIP3    H138135   4.464   4.634   1.510  0.1870 -0.1353 -0.0550
 5500TIP3    H238136   4.578   4.729   1.481  1.0095 -1.4690 -1.3157
 5501TIP3   OH238137   0.288   5.084   1.252 -0.3169  0.0998  0.1139
 5501TIP3    H138138   0.285   5.002   1.203 -1.0375  0.1124  0.1299
 5501TIP3    H238139   0.201   5.092   1.291  0.1736  0.1834  1.2376
 5502TIP3   OH238140   1.938   0.857   1.598  0.0034  0.5410  0.0470
 5502TIP3    H138141   1.946   0.867   1.693 -0.5286  0.3222  0.1200
 5502TIP3    H238142   2.028   0.855   1.566  0.2659 -1.5600  0.7890
 5503TIP3   OH238143   1.233   3.688   7.785 -0.6767  0.3952 -0.0010
 5503TIP3    H138144   1.164   3.755   7.782 -0.9608  0.1236  0.4608
 5503TIP3    H238145   1.195   3.612   7.741 -0.8451  0.0875  0.6708
 5504TIP3   OH238146   0.631   4.170   0.988 -0.4141 -0.0274 -0.2753
 5504TIP3    H138147   0.537   4.180   0.975 -0.3538 -0.3250 -0.9858
 5504TIP3    H238148   0.671   4.221   0.918 -0.0368  0.5474  0.3563
 5505TIP3   OH238149   4.125   1.028   1.831 -0.0843  0.0526  0.5168
 5505TIP3    H138150   4.072   0.950   1.852  0.1835  0.1347  1.5447
 5505TIP3    H238151   4.080   1.068   1.757 -0.1542 -1.1523 -0.1211
 5506TIP3   OH238152   1.049   3.947   0.751  0.0436 -0.3197  0.4775
 5506TIP3    H138153   1.002   3.937   0.834  0.3228 -0.7732  0.5804
 5506TIP3    H238154   1.068   4.041   0.747  0.3629 -0.3504  1.1092
 5507TIP3   OH238155   4.715   3.162   7.470 -0.0404  0.4798 -0.6046
 5507TIP3    H138156   4.752   3.077   7.448 -0.9245 -0.0725 -0.0218
 5507TIP3    H238157   4.738   3.218   7.396  1.5797  0.0630 -0.4389
 5508TIP3   OH238158   5.176   1.396   8.878  0.5946 -0.1648  0.5163
 5508TIP3    H138159   5.159   1.393   8.784 -0.7096 -1.0312  0.7573
 5508TIP3    H238160   5.173   1.489   8.901 -1.3808 -0.0742  0.0677
 5509TIP3   OH238161   0.647   4.890   8.527 -0.3806 -0.1007  0.3281
 5509TIP3    H138162   0.582   4.925   8.587 -0.4388  1.0524 -0.3896
 5509TIP3    H238163   0.717   4.858   8.584  0.3003  2.4238  1.0265
 5510TIP3   OH238164   5.307   5.463   1.519 -0.4762 -0.1374 -1.1667
 5510TIP3    H138165   5.329   5.543   1.472 -0.0508  0.7605  0.4730
 5510TIP3    H238166   5.336   5.480   1.609  1.7424 -2.9971 -1.2153
 5511TIP3   OH238167   1.642   5.309   7.190 -0.7525 -0.3600 -0.3995
 5511TIP3    H138168   1.618   5.395   7.156  0.4031  0.5716  0.9847
 5511TIP3    H238169   1.602   5.306   7.277 -2.0908 -1.9084 -1.0108
 5512TIP3   OH238170   1.327   3.798   0.133 -0.1374 -0.1417 -0.0514
 5512TIP3    H138171   1.278   3.817   0.053  1.0266  0.0853 -0.7365
 5512TIP3    H238172   1.418   3.820   0.111 -0.0515  1.9364  1.9800
 5513TIP3   OH238173   3.970   0.237   7.374  0.3615  0.4740 -0.2624
 5513TIP3    H138174   3.962   0.186   7.454  0.2789  0.7246 -0.1070
 5513TIP3    H238175   3.941   0.178   7.305  3.3925 -0.8337 -0.5438
 5514TIP3   OH238176   0.326   6.028   8.403  0.3975 -0.4714  0.1526
 5514TIP3    H138177   0.303   6.120   8.388 -0.4691 -0.5037  1.2238
 5514TIP3    H238178   0.243   5.983   8.416  0.8947 -1.0279  1.6580
 5515TIP3   OH238179   5.927   5.520   0.497 -0.1172 -0.2120 -0.0400
 5515TIP3    H138180   5.843   5.544   0.537 -0.0348  1.3061 -0.7072
 5515TIP3    H238181   5.978   5.484   0.570 -0.6102  0.8242  0.8605
 5516TIP3   OH238182   0.556   3.524   1.732 -0.1503  0.1460  0.0118
 5516TIP3    H138183   0.478   3.545   1.783  0.1989 -0.2947  0.7426
 5516TIP3    H238184   0.583   3.438   1.764  0.9412  0.5189  0.1350
 5517TIP3   OH238185   2.112   3.232   9.075  0.2458  0.2841 -0.5159
 5517TIP3    H138186   2.204   3.222   9.099  0.1845 -0.4957 -0.5610
 5517TIP3    H238187   2.067   3.165   9.127  0.0173 -0.9302 -2.1863
 5518TIP3   OH238188   0.309   5.603   8.850 -0.0304 -0.0010 -0.0697
 5518TIP3    H138189   0.383   5.558   8.891  0.7360 -0.1164 -1.5028
 5518TIP3    H238190   0.320   5.694   8.876  1.2067  0.1594 -0.9992
 5519TIP3   OH238191   3.377   6.612   1.543 -0.2661  0.2343 -0.6422
 5519TIP3    H138192   3.363   6.585   1.453 -2.9263 -0.7182 -0.0362
 5519TIP3    H238193   3.315   6.559   1.594 -0.3755  2.2606  1.5011
 5520TIP3   OH238194   3.557   0.420   8.286  0.0022 -0.3986 -0.0029
 5520TIP3    H138195   3.538   0.400   8.377 -0.6751  3.1262  0.7818
 5520TIP3    H238196   3.500   0.361   8.236 -0.0975 -1.9327  1.8231
 5521TIP3   OH238197   2.164   2.338   1.460  0.4663  0.1340 -0.3359
 5521TIP3    H138198   2.125   2.252   1.443  0.7053  0.0080 -0.2525
 5521TIP3    H238199   2.232   2.321   1.526  0.6769  0.3460 -0.4963
 5522TIP3   OH238200   3.668   3.048   3.370  0.0583  0.0130 -0.3737
 5522TIP3    H138201   3.641   2.978   3.430 -0.8600 -0.5326 -1.3769
 5522TIP3    H238202   3.712   3.002   3.298  1.6976  0.7105  0.1554
 5523TIP3   OH238203   5.742   6.313   1.239  0.3500 -0.5495  0.3109
 5523TIP3    H138204   5.735   6.341   1.330 -0.5141 -0.1360  0.1218
 5523TIP3    H238205   5.668   6.253   1.226 -0.5317  0.6869 -0.5673
 5524TIP3   OH238206   3.725   5.332   8.907 -0.0107 -0.6593  0.1497
 5524TIP3    H138207   3.810   5.289   8.918 -0.4035 -1.7269 -0.7921
 5524TIP3    H238208   3.746   5.416   8.865  0.6394 -0.5423  0.6854
 5525TIP3   OH238209   3.623   2.590   2.567 -0.1369  0.2280  0.5056
 5525TIP3    H138210   3.619   2.520   2.502  0.5002 -0.7410  1.4722
 5525TIP3    H238211   3.710   2.628   2.556  0.0846 -0.1319  0.9708
 5526TIP3   OH238212   2.142   1.116   1.348 -0.7772 -0.3146 -0.2444
 5526TIP3    H138213   2.158   1.063   1.270 -0.8942 -0.9691  0.1697
 5526TIP3    H238214   2.147   1.206   1.317 -0.0899 -0.5575 -0.8654
 5527TIP3   OH238215   4.340   1.932   2.566 -0.0382  0.2015 -0.1616
 5527TIP3    H138216   4.375   1.890   2.645 -0.8100  0.1823  0.1762
 5527TIP3    H238217   4.257   1.887   2.550  0.0476  0.3014 -0.9105
 5528TIP3   OH238218   5.346   0.637   0.318  0.0214  0.3449 -0.3471
 5528TIP3    H138219   5.317   0.728   0.318 -0.5149  0.1840  0.2201
 5528TIP3    H238220   5.419   0.635   0.379 -1.1213  0.0645  1.0617
 5529TIP3   OH238221   4.975   5.570   1.888  0.2248 -0.9189  0.5985
 5529TIP3    H138222   4.991   5.482   1.922 -0.0413 -0.9313  0.6884
 5529TIP3    H238223   4.914   5.610   1.950 -0.2695 -0.9448  0.1330
 5530TIP3   OH238224   5.792   2.629   0.957 -0.2937 -0.3144  0.6166
 5530TIP3    H138225   5.790   2.716   0.918  0.5936 -0.9452 -0.9320
 5530TIP3    H238226   5.877   2.625   1.001 -0.2092 -0.4892  0.4396
 5531TIP3   OH238227   1.810   3.836   7.983  0.2842  0.0526 -0.0861
 5531TIP3    H138228   1.838   3.859   7.894  1.0136 -0.9028 -0.1167
 5531TIP3    H238229   1.773   3.917   8.018 -0.0393  0.4387 -1.2677
 5532TIP3   OH238230   4.953   2.462   0.842  0.1833 -0.1264 -0.3703
 5532TIP3    H138231   4.886   2.482   0.908  0.3838  0.1459 -0.2503
 5532TIP3    H238232   4.914   2.392   0.790 -0.0238 -0.2666 -0.0322
 5533TIP3   OH238233   4.308   6.536   8.925  0.0031 -0.5291 -0.6583
 5533TIP3    H138234   4.348   6.459   8.964  0.1247 -0.1101  0.0654
 5533TIP3    H238235   4.236   6.559   8.984  0.5338  0.4396 -0.3589
 5534TIP3   OH238236   3.570   3.850   8.010 -0.3616  0.5472 -0.2528
 5534TIP3    H138237   3.662   3.835   7.988  0.0574  1.2413  0.9269
 5534TIP3    H238238   3.532   3.763   8.015  0.8836  0.0490  1.8556
 5535TIP3   OH238239   2.856   3.254   0.010 -0.0898  0.1445 -0.4934
 5535TIP3    H138240   2.810   3.242  -0.073  0.8530 -0.2450 -0.9807
 5535TIP3    H238241   2.949   3.254  -0.015  0.1853  0.4386  0.5151
 5536TIP3   OH238242   3.998   4.723   7.555 -0.0534 -0.3072  0.3290
 5536TIP3    H138243   3.921   4.770   7.586  1.2248  1.0569  1.5769
 5536TIP3    H238244   4.001   4.643   7.608 -0.5702 -0.3556  0.2889
 5537TIP3   OH238245   6.567   1.383   8.373  0.2610 -0.3557  0.0476
 5537TIP3    H138246   6.620   1.323   8.322 -1.0298 -1.1119 -0.4501
 5537TIP3    H238247   6.593   1.368   8.464  1.5210 -0.0511 -0.2470
 5538TIP3   OH238248   0.092   0.683   7.305 -0.0368 -0.1632  0.2191
 5538TIP3    H138249   0.084   0.726   7.390 -0.2652  0.0884  0.0742
 5538TIP3    H238250   0.022   0.618   7.305 -0.6491  0.4785 -0.1431
 5539TIP3   OH238251   4.713   5.373   8.736  0.0139 -0.3621  0.2434
 5539TIP3    H138252   4.694   5.323   8.815  2.9932 -0.5891  0.9614
 5539TIP3    H238253   4.628   5.387   8.694 -1.5322 -1.1975  2.8937
 5540TIP3   OH238254   5.758   2.720   2.587  0.5831  0.3449 -0.1930
 5540TIP3    H138255   5.832   2.780   2.601 -0.3562  0.9251  2.8297
 5540TIP3    H238256   5.726   2.700   2.675 -3.2123  0.5412 -1.3595
 5541TIP3   OH238257   1.207   1.140   8.090  0.4704 -0.6482  0.0033
 5541TIP3    H138258   1.187   1.049   8.070 -1.6907 -0.1752 -0.1925
 5541TIP3    H238259   1.227   1.180   8.006 -0.5914 -0.5059 -0.1956
 5542TIP3   OH238260   6.165   5.573   7.086  0.2552 -0.4647 -0.1957
 5542TIP3    H138261   6.254   5.551   7.114 -0.1455 -0.5677  1.0445
 5542TIP3    H238262   6.142   5.652   7.136 -0.0903 -0.0054 -1.0514
 5543TIP3   OH238263   1.256   4.329   2.537 -0.1895 -0.0055 -0.3910
 5543TIP3    H138264   1.199   4.262   2.575 -0.8366  0.6628 -0.1602
 5543TIP3    H238265   1.233   4.330   2.444  1.4576 -1.7052 -0.8828
 5544TIP3   OH238266   4.963   0.913   0.649 -0.3450 -0.4838  0.2401
 5544TIP3    H138267   4.992   0.841   0.593  0.5799 -0.7981  1.0906
 5544TIP3    H238268   5.044   0.951   0.683 -0.8247  0.7809  0.0505
 5545TIP3   OH238269   5.547   2.556   1.753  0.3415  0.2466 -0.0029
 5545TIP3    H138270   5.457   2.562   1.785  0.1069  1.7143 -0.8407
 5545TIP3    H238271   5.580   2.474   1.790 -2.1114 -1.6420 -1.6828
 5546TIP3   OH238272   3.891   2.470   2.741  0.0262 -0.0125  0.2759
 5546TIP3    H138273   3.871   2.490   2.650 -0.8197 -0.4097  0.3605
 5546TIP3    H238274   3.859   2.545   2.791  0.6202  0.2714  0.2476
 5547TIP3   OH238275   0.238   5.348   2.411 -0.0128 -0.2653  0.2546
 5547TIP3    H138276   0.254   5.363   2.505 -1.6922  1.5131  0.3331
 5547TIP3    H238277   0.160   5.293   2.409  1.0008 -1.7373 -0.1346
 5548TIP3   OH238278   1.442   2.799   0.924  0.7580  0.4440  0.6819
 5548TIP3    H138279   1.517   2.740   0.923  1.2211  1.0235  0.1566
 5548TIP3    H238280   1.366   2.741   0.930  1.2137 -0.1835  0.5113
 5549TIP3   OH238281   0.444   2.000   9.132 -0.6148 -0.2507 -0.3442
 5549TIP3    H138282   0.409   2.079   9.174  1.8032  0.7906 -0.0888
 5549TIP3    H238283   0.442   2.020   9.039  1.3461  0.8414 -0.2230
 5550TIP3   OH238284   2.052   1.379   8.926 -0.2436 -0.0309  0.3486
 5550TIP3    H138285   1.990   1.442   8.963 -0.5414  1.0242 -1.7740
 5550TIP3    H238286   2.034   1.380   8.832  1.8737 -0.9654 -0.1362
 5551TIP3   OH238287   3.589   6.683   9.189 -0.0527  0.3965 -0.0788
 5551TIP3    H138288   3.581   6.716   9.099 -0.0563 -0.5065 -0.4220
 5551TIP3    H238289   3.499   6.667   9.217 -0.0651  0.9084  0.1766
 5552TIP3   OH238290   6.531   5.597   1.709 -0.6387 -0.0381 -0.1934
 5552TIP3    H138291   6.623   5.622   1.715 -0.5127 -0.3748 -0.6301
 5552TIP3    H238292   6.498   5.605   1.798  0.1601 -1.2406  0.2335
 5553TIP3   OH238293   2.869   1.630   1.829  0.0421 -0.3823  0.1287
 5553TIP3    H138294   2.888   1.557   1.887  0.3205  0.4295  1.0930
 5553TIP3    H238295   2.937   1.695   1.849 -2.2605  1.6417  1.9457
 5554TIP3   OH238296   5.642   4.595   1.150 -0.2523  0.1685  0.0861
 5554TIP3    H138297   5.562   4.643   1.168 -0.1234  0.0083  1.1131
 5554TIP3    H238298   5.661   4.614   1.058 -2.0221 -0.6222 -0.4779
 5555TIP3   OH238299   5.853   1.760   1.754 -0.0339 -0.5375 -0.2441
 5555TIP3    H138300   5.811   1.814   1.821  0.6635 -1.2687  0.8214
 5555TIP3    H238301   5.823   1.671   1.773 -1.1641 -0.5691 -1.9718
 5556TIP3   OH238302   3.637   1.551   0.191  0.0873  0.0852  0.2910
 5556TIP3    H138303   3.657   1.469   0.235  1.0765  1.0740  1.7851
 5556TIP3    H238304   3.714   1.606   0.207  0.5125  0.5370 -2.6971
 5557TIP3   OH238305   3.131   0.620   3.017  0.4151 -0.4446 -0.4515
 5557TIP3    H138306   3.069   0.580   3.078  1.5495 -0.5393  0.6807
 5557TIP3    H238307   3.079   0.639   2.939 -1.0261 -0.5477  0.4466
 5558TIP3   OH238308   5.114   2.518   2.388 -0.0837  0.1758 -0.2869
 5558TIP3    H138309   5.146   2.432   2.360  1.4797  0.9485 -1.0299
 5558TIP3    H238310   5.183   2.579   2.361 -1.7091  1.8333 -0.9066
 5559TIP3   OH238311   0.873   5.724   8.519  0.1999  0.0463 -0.6725
 5559TIP3    H138312   0.794   5.715   8.572 -1.1509 -0.4307 -2.6637
 5559TIP3    H238313   0.943   5.735   8.583 -1.3498 -0.3198  1.1919
 5560TIP3   OH238314   6.637   3.058   9.029  0.1031  0.1346 -0.4568
 5560TIP3    H138315   6.669   3.121   8.965  0.0137 -1.4638 -2.1257
 5560TIP3    H238316   6.707   3.053   9.094 -0.0294  2.1695 -0.0719
 5561TIP3   OH238317   4.518   3.434   0.761  0.3397  0.4163 -0.2492
 5561TIP3    H138318   4.423   3.442   0.752  0.2471  0.7793  0.8421
 5561TIP3    H238319   4.539   3.349   0.724 -0.6339 -0.3451  0.8820
 5562TIP3   OH238320   2.936   5.762   7.606 -0.1204  0.6574  0.3021
 5562TIP3    H138321   2.932   5.702   7.531 -1.2277  0.4428  0.5106
 5562TIP3    H238322   3.022   5.803   7.599 -0.4193  1.0771 -1.4198
 5563TIP3   OH238323   4.627   2.055   8.026  0.1100  0.1863  0.1537
 5563TIP3    H138324   4.692   2.071   7.958  1.9282  0.5142  1.8734
 5563TIP3    H238325   4.607   2.142   8.061  0.0566 -0.0691  0.7732
 5564TIP3   OH238326   2.274   5.440   1.174 -0.1012  0.0316  0.1029
 5564TIP3    H138327   2.344   5.412   1.115 -1.1157  0.1204 -1.1586
 5564TIP3    H238328   2.195   5.439   1.121 -1.4119 -1.7894  1.9233
 5565TIP3   OH238329   2.985   1.699   8.982  0.1449  0.0438  0.2453
 5565TIP3    H138330   2.975   1.604   8.975  1.0867  0.0295 -1.1992
 5565TIP3    H238331   2.903   1.735   8.948 -0.0587 -0.2397  0.4374
 5566TIP3   OH238332   2.502   3.904   8.281  0.1989 -0.2301  0.0075
 5566TIP3    H138333   2.558   3.902   8.203  1.0657 -1.1291  0.6289
 5566TIP3    H238334   2.562   3.915   8.354 -0.4289 -1.1275  0.6857
 5567TIP3   OH238335   3.788   2.351   7.471 -0.2710 -0.0668  0.5956
 5567TIP3    H138336   3.735   2.370   7.393  1.1696  0.6209 -0.2482
 5567TIP3    H238337   3.832   2.269   7.451  1.5742  1.0576 -0.1564
 5568TIP3   OH238338   0.718   5.724   3.035  0.2180 -0.5810 -0.0757
 5568TIP3    H138339   0.695   5.798   3.091  0.5544 -0.7216  0.2511
 5568TIP3    H238340   0.752   5.658   3.095 -1.0679 -1.4139 -0.2319
 5569TIP3   OH238341   5.826   0.628   0.218 -0.4262  0.2150  0.3018
 5569TIP3    H138342   5.767   0.605   0.146 -1.5115  0.1360  1.1863
 5569TIP3    H238343   5.875   0.548   0.236  0.4638  0.4633 -0.8799
 5570TIP3   OH238344   5.311   0.414   8.540 -0.0472  0.4264 -0.3283
 5570TIP3    H138345   5.271   0.470   8.473 -1.0813 -0.3682 -0.3990
 5570TIP3    H238346   5.250   0.341   8.548  0.2306  0.3536  1.2623
 5571TIP3   OH238347   0.897   3.560   8.953  0.2072  0.2947 -0.0871
 5571TIP3    H138348   0.959   3.514   8.896  2.3562  0.0244  2.2939
 5571TIP3    H238349   0.879   3.643   8.908 -0.6507 -1.1237 -2.5616
 5572TIP3   OH238350   5.601   5.212   1.300  0.1748 -0.5585  0.1997
 5572TIP3    H138351   5.652   5.194   1.221  0.0258 -0.8332  0.1678
 5572TIP3    H238352   5.664   5.208   1.371  0.7889  1.8700 -0.1005
 5573TIP3   OH238353   5.140   2.246   0.930  0.5106 -0.5631  0.0052
 5573TIP3    H138354   5.106   2.330   0.898 -0.6432 -1.4674 -1.2724
 5573TIP3    H238355   5.129   2.251   1.025 -0.3849  0.3852 -0.1240
 5574TIP3   OH238356   2.384   4.946   2.344  0.1352 -0.2782  0.3993
 5574TIP3    H138357   2.321   4.877   2.321 -0.8533  1.0352 -1.0557
 5574TIP3    H238358   2.467   4.900   2.355 -0.4447 -1.6880 -0.7470
 5575TIP3   OH238359   0.627   3.262   1.769 -0.2332  0.4406 -0.2249
 5575TIP3    H138360   0.634   3.240   1.676  1.4741  0.7161 -0.1864
 5575TIP3    H238361   0.698   3.214   1.811 -0.3254  1.1534  0.7848
 5576TIP3   OH238362   4.029   3.975   8.545  0.0178  0.5027 -0.7384
 5576TIP3    H138363   3.985   4.014   8.469 -0.2072  0.6644 -0.5259
 5576TIP3    H238364   4.121   3.969   8.519 -0.3878 -1.5800 -1.9410
 5577TIP3   OH238365   6.443   0.310   2.804  0.0279 -0.1592 -0.8049
 5577TIP3    H138366   6.382   0.268   2.743  1.4878  0.4604 -2.8022
 5577TIP3    H238367   6.527   0.269   2.785  0.5440  0.1115  0.7850
 5578TIP3   OH238368   3.764   0.760   0.586  0.6126  0.4268 -0.0687
 5578TIP3    H138369   3.772   0.845   0.629  2.5296  0.6991 -0.8287
 5578TIP3    H238370   3.847   0.716   0.604 -0.2997 -1.2582  0.2092
 5579TIP3   OH238371   1.435   4.746   1.687  0.3746 -0.2334 -0.4039
 5579TIP3    H138372   1.468   4.836   1.678 -0.9902  0.4663  1.0382
 5579TIP3    H238373   1.404   4.741   1.777 -1.4428 -1.5002 -1.0514
 5580TIP3   OH238374   2.017   3.853   1.585 -0.1544  0.4757  0.2615
 5580TIP3    H138375   2.043   3.936   1.545 -0.0563  0.3725  0.1105
 5580TIP3    H238376   2.095   3.798   1.578  0.2837  0.8759  1.7431
 5581TIP3   OH238377   0.186   2.385   3.192  0.5000 -0.3347 -0.2477
 5581TIP3    H138378   0.174   2.291   3.175  1.5109 -0.6581  0.6727
 5581TIP3    H238379   0.249   2.413   3.125 -1.8200  0.3708 -2.2949
 5582TIP3   OH238380   0.863   0.777   7.935  0.0181 -0.2550 -0.0112
 5582TIP3    H138381   0.884   0.694   7.978  2.6761  0.3637  0.0651
 5582TIP3    H238382   0.904   0.769   7.849 -1.4885  0.2055 -0.7872
 5583TIP3   OH238383   4.189   5.445   2.286 -0.3721  0.0287 -0.0167
 5583TIP3    H138384   4.136   5.381   2.238 -0.4681  1.2234 -1.5852
 5583TIP3    H238385   4.265   5.461   2.231  0.2161  0.4557  0.8809
 5584TIP3   OH238386   0.081   1.069   0.312  1.0299 -0.0435  0.0297
 5584TIP3    H138387   0.098   0.975   0.303  1.0577 -0.1072  0.7186
 5584TIP3    H238388   0.127   1.095   0.391  1.8962  0.7836 -0.7164
 5585TIP3   OH238389   2.885   0.399   8.896 -0.0183  0.3993 -0.1768
 5585TIP3    H138390   2.865   0.409   8.803  2.3437 -0.8017 -0.9011
 5585TIP3    H238391   2.928   0.314   8.901 -1.7712 -0.4533  2.3759
 5586TIP3   OH238392   5.005   3.688   0.887  0.0737 -0.0306 -0.6098
 5586TIP3    H138393   5.066   3.708   0.816 -0.3159  1.3393 -0.5755
 5586TIP3    H238394   4.918   3.704   0.850 -0.1215  1.0644  0.2610
 5587TIP3   OH238395   5.228   6.362   1.783 -0.4051 -0.1908 -0.1928
 5587TIP3    H138396   5.181   6.441   1.811 -1.6434 -1.1179  0.4875
 5587TIP3    H238397   5.266   6.385   1.699 -1.1298  0.9942 -0.2255
 5588TIP3   OH238398   5.273   6.458   8.353  0.1461  0.3249  0.2161
 5588TIP3    H138399   5.315   6.471   8.268 -0.3444  0.6043  0.0115
 5588TIP3    H238400   5.331   6.397   8.399  0.0444 -0.4150 -0.5971
 5589TIP3   OH238401   5.733   2.480   1.556  0.3581 -0.2558 -0.9364
 5589TIP3    H138402   5.714   2.487   1.462  1.0799  1.3104 -0.9964
 5589TIP3    H238403   5.670   2.538   1.598 -1.6563 -2.8097 -0.1341
 5590TIP3   OH238404   1.979   1.784   8.310 -0.3269  0.4711  0.0045
 5590TIP3    H138405   1.895   1.825   8.334  0.4896  1.4515  1.3496
 5590TIP3    H238406   2.043   1.827   8.366  0.9253 -1.0986 -0.1591
 5591TIP3   OH238407   2.439   2.402   2.080 -0.0753  0.0197 -0.1393
 5591TIP3    H138408   2.353   2.379   2.115 -0.3095  0.8356 -0.1665
 5591TIP3    H238409   2.420   2.452   2.001  0.4389 -0.7718 -0.7787
 5592TIP3   OH238410   3.648   6.384   0.492 -0.3772 -0.2225  0.6814
 5592TIP3    H138411   3.715   6.335   0.540 -1.0137 -0.0028  1.8569
 5592TIP3    H238412   3.653   6.351   0.403  0.9865 -0.5252  0.8442
 5593TIP3   OH238413   2.876   5.359   0.368  0.5011 -0.5202 -0.5801
 5593TIP3    H138414   2.874   5.263   0.370 -0.6104 -0.5252 -1.1886
 5593TIP3    H238415   2.789   5.385   0.339  0.8146  0.6826 -0.5303
 5594TIP3   OH238416   1.280   3.158   8.483 -0.1149  0.1085  0.1531
 5594TIP3    H138417   1.227   3.083   8.511  2.4360 -1.5262  0.9546
 5594TIP3    H238418   1.260   3.168   8.390 -1.0755 -1.0802  0.1993
 5595TIP3   OH238419   5.014   4.948   3.058  0.0304  0.4875  0.0878
 5595TIP3    H138420   4.939   4.985   3.106 -0.5047 -1.8645  1.1791
 5595TIP3    H238421   5.086   4.950   3.120  0.3072  0.7315 -0.2357
 5596TIP3   OH238422   3.595   6.300   1.635  0.2862 -0.2342 -0.5126
 5596TIP3    H138423   3.555   6.231   1.688 -0.1248  0.2178 -0.2260
 5596TIP3    H238424   3.538   6.376   1.648 -0.3390 -0.3458 -2.2681
 5597TIP3   OH238425   5.358   2.652   8.650 -0.1751 -0.0085 -0.2145
 5597TIP3    H138426   5.329   2.574   8.698 -0.5580  0.3984  0.2360
 5597TIP3    H238427   5.278   2.685   8.609 -0.2534  0.7694  0.5227
 5598TIP3   OH238428   0.960   5.331   1.259  0.1217  0.0485 -0.1909
 5598TIP3    H138429   0.966   5.331   1.354 -0.0865 -2.2864 -0.1290
 5598TIP3    H238430   0.898   5.262   1.238 -2.6448  2.7864 -1.9531
 5599TIP3   OH238431   3.392   3.363   1.050 -0.1333 -0.4445 -0.1502
 5599TIP3    H138432   3.339   3.416   0.991  0.0632 -1.0372 -0.8583
 5599TIP3    H238433   3.441   3.304   0.993  0.3129 -0.7904  0.5782
 5600TIP3   OH238434   4.000   2.139   1.512  0.0905  0.3303  0.0689
 5600TIP3    H138435   4.090   2.169   1.499 -0.7555  2.3405 -1.5859
 5600TIP3    H238436   3.958   2.209   1.562 -1.0848  0.4603 -1.0493
 5601TIP3   OH238437   4.356   3.583   2.161 -0.4283  0.1071 -0.4127
 5601TIP3    H138438   4.343   3.581   2.255  1.3481 -0.1363 -0.1282
 5601TIP3    H238439   4.338   3.674   2.136  2.7381  1.2132  0.8408
 5602TIP3   OH238440   4.528   1.883   8.233  0.0751  0.2455 -0.7608
 5602TIP3    H138441   4.552   1.919   8.148  0.6464  0.5695 -0.4665
 5602TIP3    H238442   4.557   1.948   8.297  1.9767 -1.0960 -0.1504
 5603TIP3   OH238443   1.239   2.977   2.738  0.1587 -0.0366 -0.6018
 5603TIP3    H138444   1.190   3.026   2.804 -2.6430 -0.6107 -2.0785
 5603TIP3    H238445   1.245   2.888   2.774  1.6453  0.3763  0.2780
 5604TIP3   OH238446   2.627   3.127   1.679 -0.1953 -0.3041  0.0822
 5604TIP3    H138447   2.641   3.043   1.723  1.5704 -0.5758 -0.9090
 5604TIP3    H238448   2.716   3.162   1.666 -0.8447  1.2208 -0.4750
 5605TIP3   OH238449   6.026   2.198   9.000 -0.2407 -0.4922 -0.1379
 5605TIP3    H138450   5.955   2.162   9.053  0.4952  0.1508  1.3286
 5605TIP3    H238451   6.090   2.127   8.994 -0.8911 -1.0068 -1.3000
 5606TIP3   OH238452   2.673   1.997   9.185 -0.2856  0.4022 -0.2544
 5606TIP3    H138453   2.703   2.047   9.109 -1.1763 -0.2964 -1.0801
 5606TIP3    H238454   2.744   1.934   9.201 -0.5541 -0.1324 -1.1505
 5607TIP3   OH238455   2.087   1.858   3.422  0.2359 -0.0416 -0.0299
 5607TIP3    H138456   1.993   1.873   3.434 -0.0452 -0.0654 -1.9074
 5607TIP3    H238457   2.094   1.763   3.409  0.7567 -0.2803  1.7889
 5608TIP3   OH238458   2.109   2.304   8.961 -0.5732  0.2198  0.0170
 5608TIP3    H138459   2.145   2.385   8.926  1.3135 -1.1581 -1.4594
 5608TIP3    H238460   2.048   2.332   9.029  0.4901  2.8271  0.0080
 5609TIP3   OH238461   2.368   4.207   7.997 -0.0810  0.1610 -0.3002
 5609TIP3    H138462   2.324   4.126   7.973  1.0782 -0.8259  0.7571
 5609TIP3    H238463   2.342   4.223   8.087  2.1450 -0.8265  0.6036
 5610TIP3   OH238464   2.183   4.011   1.209  0.3524 -0.8720 -0.6647
 5610TIP3    H138465   2.108   4.069   1.199  0.8204  0.5575  2.6706
 5610TIP3    H238466   2.244   4.037   1.141 -0.5370  0.7417 -0.8856
 5611TIP3   OH238467   3.479   4.453   1.758 -0.6713  0.2196  0.6957
 5611TIP3    H138468   3.573   4.473   1.759 -0.8831  1.3627  0.0020
 5611TIP3    H238469   3.475   4.361   1.734  0.2482  0.6620 -1.3765
 5612TIP3   OH238470   0.384   6.657   7.367 -0.3720  0.7625  0.3398
 5612TIP3    H138471   0.326   6.582   7.358 -0.2660  0.7187 -0.0042
 5612TIP3    H238472   0.329   6.732   7.345 -0.5285  0.8054  0.8706
 5613TIP3   OH238473   2.617   0.075   0.796 -0.1303 -0.1547  0.1467
 5613TIP3    H138474   2.524   0.078   0.821 -0.3475  0.5342 -0.6768
 5613TIP3    H238475   2.630  -0.015   0.767 -0.7423 -0.0829 -0.3950
 5614TIP3   OH238476   1.950   5.422   1.768  0.2562  0.3006  0.0941
 5614TIP3    H138477   1.965   5.337   1.809 -2.4821  0.6150  1.9873
 5614TIP3    H238478   1.976   5.485   1.834  0.0386  0.9096 -0.3904
 5615TIP3   OH238479   2.754   6.587   8.078 -0.5447 -0.1600 -0.1396
 5615TIP3    H138480   2.672   6.540   8.066 -1.5289  0.8771  1.8828
 5615TIP3    H238481   2.766   6.637   7.998 -0.6141 -2.1114 -1.4252
 5616TIP3   OH238482   4.876   1.469   1.968 -0.1515  0.5021 -0.1323
 5616TIP3    H138483   4.905   1.450   2.057 -0.2083 -0.9298 -0.3921
 5616TIP3    H238484   4.940   1.425   1.912 -0.5042  0.8016 -0.7831
 5617TIP3   OH238485   1.291   4.019   2.268  0.2416 -0.1912 -0.8583
 5617TIP3    H138486   1.264   4.038   2.179 -1.4035 -0.2379 -0.3945
 5617TIP3    H238487   1.378   3.980   2.259  0.1199 -0.1518 -2.4176
 5618TIP3   OH238488   3.112   2.007   1.799  0.3185  0.2477  0.4631
 5618TIP3    H138489   3.114   2.098   1.827 -1.0957  0.1801  0.8455
 5618TIP3    H238490   3.048   2.005   1.728  0.9791 -0.2958 -0.1287
 5619TIP3   OH238491   4.961   2.186   2.722 -0.5338  0.2655  0.5331
 5619TIP3    H138492   4.941   2.244   2.796  1.4331  1.4788  0.2208
 5619TIP3    H238493   5.054   2.166   2.733 -0.8891 -1.8836 -0.0674
 5620TIP3   OH238494   3.272   3.420   7.405 -0.2649 -0.1571  0.1568
 5620TIP3    H138495   3.196   3.426   7.347 -0.1664 -0.3564  0.0100
 5620TIP3    H238496   3.339   3.377   7.353 -0.3136 -0.7245  0.5530
 5621TIP3   OH238497   0.002   0.757   1.976 -0.3705 -0.3630 -0.2142
 5621TIP3    H138498  -0.000   0.847   2.006  0.7279 -0.3636 -0.0859
 5621TIP3    H238499  -0.025   0.705   2.052 -2.1916 -0.0965 -0.6323
 5622TIP3   OH238500   5.585   5.216   7.369  0.4400 -0.4446  0.2749
 5622TIP3    H138501   5.577   5.158   7.293 -0.5295 -0.6892  0.5502
 5622TIP3    H238502   5.513   5.190   7.426  1.8202 -1.0641  1.8280
 5623TIP3   OH238503   3.467   6.277   2.838  0.1877  0.5958 -0.8713
 5623TIP3    H138504   3.376   6.249   2.835  0.1590  0.6987 -0.9402
 5623TIP3    H238505   3.476   6.341   2.768  0.5091 -0.0078 -1.3914
 5624TIP3   OH238506   2.584   1.976   8.575  0.3137  0.1004  0.0199
 5624TIP3    H138507   2.516   1.909   8.579 -0.2023  0.6197  0.0306
 5624TIP3    H238508   2.630   1.969   8.659 -1.1131  1.1738  0.9391
 5625TIP3   OH238509   2.028   5.976   1.320  1.3649  0.6138  0.0672
 5625TIP3    H138510   2.072   5.947   1.399  1.9863  1.9817  0.2601
 5625TIP3    H238511   1.935   5.964   1.339  1.5665 -2.2744 -0.3389
 5626TIP3   OH238512   3.431   5.995   2.087 -0.1684  0.0291  0.4079
 5626TIP3    H138513   3.358   6.052   2.109 -0.3992 -0.1375  0.0637
 5626TIP3    H238514   3.416   5.915   2.139 -0.6454 -0.3137 -0.2542
 5627TIP3   OH238515   1.254   4.846   1.914 -0.4332  0.5468  0.5765
 5627TIP3    H138516   1.178   4.858   1.857  0.4546 -0.8030 -0.9781
 5627TIP3    H238517   1.217   4.813   1.996 -1.6378  1.3321  0.3703
 5628TIP3   OH238518   6.614   0.786   2.444 -0.9042  0.0092 -0.0965
 5628TIP3    H138519   6.615   0.735   2.525  0.6851  0.8045  0.4167
 5628TIP3    H238520   6.611   0.877   2.472 -0.5216  0.2932 -0.9415
 5629TIP3   OH238521   2.005   0.802   9.107  0.1208 -0.0119  0.3857
 5629TIP3    H138522   1.924   0.841   9.140  0.0120  0.1389 -0.0513
 5629TIP3    H238523   1.978   0.753   9.030 -0.0466 -2.4508  1.8913
 5630TIP3   OH238524   0.473   6.566   8.362 -0.8089  0.1858 -0.0775
 5630TIP3    H138525   0.492   6.640   8.304 -1.8500  0.3501 -0.2186
 5630TIP3    H238526   0.474   6.605   8.450  2.0806 -0.3001  0.2183
 5631TIP3   OH238527   3.564   3.007   2.165 -0.7776 -0.0185 -0.9771
 5631TIP3    H138528   3.624   2.951   2.115  1.6876  0.3282  1.4346
 5631TIP3    H238529   3.520   2.947   2.225  0.6769  0.3428  0.4934
 5632TIP3   OH238530   1.012   2.585   0.973  0.5859 -0.1064 -0.2535
 5632TIP3    H138531   0.921   2.556   0.968  1.0877 -1.5888 -1.2694
 5632TIP3    H238532   1.012   2.652   1.041 -1.9395  2.5677 -2.6067
 5633TIP3   OH238533   6.480   0.006   1.382 -0.0026  0.0956 -0.0174
 5633TIP3    H138534   6.515  -0.022   1.298  2.4010 -0.3129  1.0374
 5633TIP3    H238535   6.488  -0.071   1.438 -0.7820  0.6101  0.8286
 5634TIP3   OH238536   1.274   5.776   2.267  0.6077 -0.1553 -0.1311
 5634TIP3    H138537   1.230   5.716   2.208 -0.1220 -0.6353  0.8594
 5634TIP3    H238538   1.300   5.722   2.342  1.1377  0.5051  0.1810
 5635TIP3   OH238539   2.102   1.282   8.374 -1.2141 -0.0771 -0.4244
 5635TIP3    H138540   2.182   1.320   8.338  0.0237 -1.6502  0.5192
 5635TIP3    H238541   2.094   1.197   8.331 -1.0476 -0.9411  1.1606
 5636TIP3   OH238542   4.482   3.111   0.260  0.1846 -0.1768  0.2857
 5636TIP3    H138543   4.523   3.025   0.250  2.2598  0.8579 -0.5000
 5636TIP3    H238544   4.512   3.162   0.185 -1.9965  0.9196  0.0568
 5637TIP3   OH238545   4.150   4.856   1.029 -0.7267  0.4862 -0.2203
 5637TIP3    H138546   4.106   4.936   1.001 -1.9705 -0.4081 -0.9743
 5637TIP3    H238547   4.084   4.787   1.016  0.1334 -0.5914  0.8602
 5638TIP3   OH238548   0.689   6.296   0.084  0.6540 -0.1376  0.3054
 5638TIP3    H138549   0.784   6.307   0.085  0.8618 -1.5542 -0.5496
 5638TIP3    H238550   0.673   6.216   0.135 -0.0261 -0.1700  0.0559
 5639TIP3   OH238551   0.296   6.674   1.714  0.2198 -0.6290  0.0486
 5639TIP3    H138552   0.234   6.666   1.787  0.0594 -1.6693 -0.1950
 5639TIP3    H238553   0.381   6.655   1.753  0.1838 -0.8012  0.0419
 5640TIP3   OH238554   0.231   0.628   1.944 -0.1931 -0.4472 -0.1518
 5640TIP3    H138555   0.192   0.547   1.910  0.1771 -0.6544 -0.0911
 5640TIP3    H238556   0.157   0.688   1.954 -0.5513 -0.9544  0.3054
 5641TIP3   OH238557   1.112   3.740   8.688 -0.3221  0.2995  0.0014
 5641TIP3    H138558   1.159   3.749   8.771 -2.5911 -0.7773  1.4835
 5641TIP3    H238559   1.129   3.823   8.643  1.6875  0.5635  1.1001
 5642TIP3   OH238560   4.971   0.773   2.816 -0.1085  0.1100 -0.5334
 5642TIP3    H138561   4.970   0.727   2.901  1.7436 -0.0816 -0.5805
 5642TIP3    H238562   4.935   0.859   2.835  2.8049  1.0755  1.1099
 5643TIP3   OH238563   0.357   6.363   8.622 -0.1273  0.1748  0.3297
 5643TIP3    H138564   0.369   6.341   8.714 -4.1046  2.3990  1.6154
 5643TIP3    H238565   0.409   6.443   8.609 -1.7730  1.5282  1.6005
 5644TIP3   OH238566   4.913   2.539   2.551  0.3137  0.1716 -0.3774
 5644TIP3    H138567   4.951   2.550   2.639 -0.5804 -0.9521  0.1770
 5644TIP3    H238568   4.988   2.519   2.495  0.6668 -1.3320  0.5624
 5645TIP3   OH238569   2.271   1.975   2.957  0.0556 -0.0737 -0.3973
 5645TIP3    H138570   2.265   2.068   2.934 -0.4593  0.3891  1.4086
 5645TIP3    H238571   2.308   1.975   3.046 -0.1649 -1.5819 -0.2856
 5646TIP3   OH238572   0.152   0.396   2.568 -0.3122  0.4999  0.2179
 5646TIP3    H138573   0.128   0.405   2.660  1.4312 -2.3252  1.0878
 5646TIP3    H238574   0.098   0.323   2.537  0.0318  0.6024 -0.6336
 5647TIP3   OH238575   3.803   4.237   0.993  0.2503  0.4485 -0.5537
 5647TIP3    H138576   3.818   4.313   0.936  0.5967  0.3662 -0.5737
 5647TIP3    H238577   3.883   4.231   1.046 -0.0536  0.5033 -0.0866
 5648TIP3   OH238578   4.661   3.600   0.341 -0.2519 -0.1634 -0.1696
 5648TIP3    H138579   4.592   3.606   0.275 -0.4251 -1.3231 -0.1055
 5648TIP3    H238580   4.736   3.565   0.294 -0.3262 -0.8335  0.2020
 5649TIP3   OH238581   1.176   3.461   0.767 -0.1893  0.0035  0.1118
 5649TIP3    H138582   1.218   3.546   0.762 -1.2729  0.4966 -1.3147
 5649TIP3    H238583   1.136   3.459   0.854  1.0350  0.3293  0.7060
 5650TIP3   OH238584   5.591   3.028   8.472 -0.2217  0.0261 -0.0110
 5650TIP3    H138585   5.497   3.031   8.492 -0.0224 -0.2579  1.0131
 5650TIP3    H238586   5.597   3.059   8.382 -1.3228 -0.1553 -0.1609
 5651TIP3   OH238587   2.308   1.577   0.030 -0.1505  0.2722  0.2425
 5651TIP3    H138588   2.369   1.648   0.010  2.4243 -2.5796 -3.5577
 5651TIP3    H238589   2.227   1.603  -0.013  1.1710  0.5210 -2.3346
 5652TIP3   OH238590   6.414   0.209   9.010  0.0128 -0.3445  0.0922
 5652TIP3    H138591   6.466   0.159   9.073  0.8461 -0.6879 -0.8544
 5652TIP3    H238592   6.461   0.292   9.001  1.3919 -1.2859 -2.0266
 5653TIP3   OH238593   0.926   3.083   9.191 -0.4932 -0.3963 -0.1235
 5653TIP3    H138594   0.912   3.119   9.278 -1.2551  1.0925 -0.8090
 5653TIP3    H238595   0.982   3.148   9.147 -0.3005 -1.0074 -0.7989
 5654TIP3   OH238596   1.686   1.031   2.520 -0.3069  0.0715  0.2682
 5654TIP3    H138597   1.710   1.120   2.546 -0.3856  0.7401 -1.8086
 5654TIP3    H238598   1.714   1.024   2.429  0.3601 -2.2943  0.5788
 5655TIP3   OH238599   0.157   1.647   2.105  0.1121  0.0534 -0.5576
 5655TIP3    H138600   0.082   1.619   2.052  0.8647 -1.3800 -0.9115
 5655TIP3    H238601   0.185   1.730   2.065 -1.5399  0.8650 -0.1245
 5656TIP3   OH238602   2.175   2.569   8.873  0.5090  0.4536 -0.7324
 5656TIP3    H138603   2.181   2.623   8.952  1.2267 -1.6561  0.7720
 5656TIP3    H238604   2.112   2.614   8.817 -0.7368  1.5923  1.4485
 5657TIP3   OH238605   3.256   0.356   0.270  0.0577  0.7344 -0.0267
 5657TIP3    H138606   3.223   0.299   0.340  0.5704  0.6022  0.1074
 5657TIP3    H238607   3.320   0.412   0.312 -0.8873  1.8572 -0.0216
 5658TIP3   OH238608   1.615   2.590   2.364  0.0210 -1.1438  0.3732
 5658TIP3    H138609   1.532   2.599   2.317  0.7903  1.4562 -0.6430
 5658TIP3    H238610   1.607   2.650   2.438  1.8727  1.1555 -1.1731
 5659TIP3   OH238611   3.637   1.610   1.630  0.7839  0.2006 -0.4212
 5659TIP3    H138612   3.612   1.547   1.696 -1.3846  2.6442  1.3071
 5659TIP3    H238613   3.585   1.588   1.553 -1.8581  1.2005  0.9669
 5660TIP3   OH238614   3.312   1.367   3.218 -0.3799 -0.4316  0.7348
 5660TIP3    H138615   3.252   1.367   3.292 -0.2177 -0.2271  0.8684
 5660TIP3    H238616   3.262   1.408   3.147  0.1164  1.2044  1.2843
 5661TIP3   OH238617   2.343   0.659   2.360  0.4519  0.2972 -0.0083
 5661TIP3    H138618   2.283   0.631   2.291  0.2366  1.6084 -0.3666
 5661TIP3    H238619   2.362   0.578   2.408 -1.1281 -0.2579 -0.2412
 5662TIP3   OH238620   6.262   0.216   8.359  0.0852 -0.0533 -0.5340
 5662TIP3    H138621   6.313   0.232   8.438  1.1544 -0.4477 -1.1218
 5662TIP3    H238622   6.177   0.187   8.390  0.2683  0.4537  0.4695
 5663TIP3   OH238623   4.191   2.549   8.218  0.0622 -0.1720  0.3325
 5663TIP3    H138624   4.280   2.545   8.181 -0.7864  0.7275 -1.9560
 5663TIP3    H238625   4.150   2.467   8.190 -0.8057  0.8150 -1.4383
 5664TIP3   OH238626   3.360   0.263   8.142 -0.2545  0.1395  0.2073
 5664TIP3    H138627   3.359   0.205   8.218 -1.4255 -0.5704 -0.2995
 5664TIP3    H238628   3.362   0.203   8.067  0.7208  0.8188 -0.3312
 5665TIP3   OH238629   3.915   3.513   7.646 -0.3225  0.4713  0.3814
 5665TIP3    H138630   3.911   3.555   7.560 -0.4782 -1.9187 -0.8632
 5665TIP3    H238631   3.842   3.552   7.694  0.5024  2.7440 -0.0793
 5666TIP3   OH238632   4.709   1.286   2.350  0.2132 -0.4855 -0.3853
 5666TIP3    H138633   4.742   1.257   2.265 -0.4053 -2.2489 -0.0692
 5666TIP3    H238634   4.641   1.351   2.328 -0.0496 -1.0314 -1.2531
 5667TIP3   OH238635   0.332   0.238   1.625 -0.7178 -0.2691  0.8764
 5667TIP3    H138636   0.419   0.239   1.666 -0.1148 -1.1038 -0.3153
 5667TIP3    H238637   0.291   0.159   1.658  1.0464 -2.8628 -2.4651
 5668TIP3   OH238638   5.201   0.908   0.837  0.2172 -0.3863 -0.6066
 5668TIP3    H138639   5.163   0.938   0.920 -1.0394  0.6380 -1.5082
 5668TIP3    H238640   5.227   0.989   0.792 -0.8316 -0.7745 -1.9923
 5669TIP3   OH238641   4.677   0.159   8.551 -0.3352 -0.8832 -0.1923
 5669TIP3    H138642   4.651   0.125   8.466  1.5073 -1.1605 -0.6852
 5669TIP3    H238643   4.608   0.222   8.574 -0.3058  0.0182 -2.3823
 5670TIP3   OH238644   0.045   4.413   8.936  0.4076 -0.2732  0.8895
 5670TIP3    H138645   0.066   4.321   8.920 -1.1496 -0.6615  0.9583
 5670TIP3    H238646   0.052   4.422   9.031  1.3985 -0.0815  0.8134
 5671TIP3   OH238647   3.668   6.634   0.671 -0.2397  0.0703  0.2183
 5671TIP3    H138648   3.691   6.580   0.595  0.2471 -0.5269  0.7719
 5671TIP3    H238649   3.743   6.626   0.730 -0.8610  0.0147  1.0334
 5672TIP3   OH238650   4.226   0.367   0.749 -0.8079  0.3219 -0.5223
 5672TIP3    H138651   4.311   0.405   0.727 -0.7472  0.5047  0.0202
 5672TIP3    H238652   4.163   0.419   0.699 -0.6564  0.6224 -0.4016
 5673TIP3   OH238653   0.911   2.547   0.574 -0.2602 -0.2301  0.1210
 5673TIP3    H138654   0.923   2.468   0.523  0.3559 -0.5646  0.7801
 5673TIP3    H238655   0.997   2.566   0.611  0.0893  1.8096 -1.5302
 5674TIP3   OH238656   3.613   5.381   1.235  0.0924 -0.2754 -0.7543
 5674TIP3    H138657   3.632   5.322   1.307 -0.0339 -1.9952 -2.0790
 5674TIP3    H238658   3.552   5.333   1.179  0.1964  0.9908 -2.0182
 5675TIP3   OH238659   1.567   0.782   0.360 -0.1099 -0.6563  0.3726
 5675TIP3    H138660   1.641   0.773   0.420 -1.0541 -0.3241  1.6514
 5675TIP3    H238661   1.490   0.780   0.418 -0.9818  1.7304 -0.6065
 5676TIP3   OH238662   0.983   1.963   0.793 -0.3183  0.0354 -0.6105
 5676TIP3    H138663   1.054   1.994   0.850  0.3525  0.5505 -1.6940
 5676TIP3    H238664   0.988   1.867   0.799  1.0776  0.0407 -1.3737
 5677TIP3   OH238665   3.228   2.531   9.072 -0.0501 -0.3586  0.7834
 5677TIP3    H138666   3.183   2.519   8.989 -1.3604  1.4008  1.1733
 5677TIP3    H238667   3.282   2.453   9.082 -2.1186 -2.0319 -0.2998
 5678TIP3   OH238668   3.832   4.462   0.806  0.5617 -0.0981  0.1451
 5678TIP3    H138669   3.896   4.453   0.736  0.7072 -0.7876  0.3629
 5678TIP3    H238670   3.749   4.479   0.761  0.7097 -0.2276 -0.1791
 5679TIP3   OH238671   0.134   5.563   7.885 -0.1961 -0.7697  0.2661
 5679TIP3    H138672   0.099   5.558   7.796  0.4066 -0.5129  0.0044
 5679TIP3    H238673   0.212   5.508   7.883 -0.3128 -0.9536  0.7048
 5680TIP3   OH238674   0.122   3.869   0.511 -0.2500  0.0288  0.4192
 5680TIP3    H138675   0.056   3.829   0.567 -1.1004  1.4115  0.4444
 5680TIP3    H238676   0.162   3.936   0.566 -0.1055  0.4380 -0.1757
 5681TIP3   OH238677   4.946   6.219   6.930  0.3927  0.0768  0.1226
 5681TIP3    H138678   5.028   6.258   6.899  0.5510 -1.6229 -1.9150
 5681TIP3    H238679   4.972   6.132   6.961 -0.3320  0.4298  1.8056
 5682TIP3   OH238680   0.907   5.965   2.971 -0.5505 -0.5407 -0.8495
 5682TIP3    H138681   0.824   5.979   3.014 -0.0252  1.3845 -0.3735
 5682TIP3    H238682   0.973   5.998   3.032  0.4735 -0.9330 -1.6896
 5683TIP3   OH238683   0.261   0.049   0.216 -0.2017  0.2557  0.2135
 5683TIP3    H138684   0.336  -0.007   0.233 -0.2920 -0.2417 -0.9643
 5683TIP3    H238685   0.202   0.033   0.291  0.5862  0.1977  0.8286
 5684TIP3   OH238686   0.496   1.724   0.344 -0.3320  0.0940  0.6755
 5684TIP3    H138687   0.460   1.728   0.255 -1.4978 -0.1181  1.1170
 5684TIP3    H238688   0.465   1.640   0.378  3.6792 -1.9392 -0.1471
 5685TIP3   OH238689   5.980   4.892   0.779  0.5140 -0.0741  0.2161
 5685TIP3    H138690   5.894   4.935   0.789  0.8719  0.3328  2.0444
 5685TIP3    H238691   5.988   4.837   0.857  1.4406 -1.0135 -0.5150
 5686TIP3   OH238692   5.658   5.029   0.360  0.2692  0.4802  0.1732
 5686TIP3    H138693   5.718   4.968   0.317  1.9807  1.1134  1.5815
 5686TIP3    H238694   5.571   4.991   0.344  1.1425 -1.3594 -0.5058
 5687TIP3   OH238695   5.593   1.974   2.315  0.6096  0.3653  0.0420
 5687TIP3    H138696   5.613   1.881   2.328 -0.1991 -0.2889 -2.8623
 5687TIP3    H238697   5.530   1.994   2.385 -0.2516 -1.6428 -0.0873
 5688TIP3   OH238698   4.977   1.851   8.783  0.8114  0.0335  0.3289
 5688TIP3    H138699   4.907   1.841   8.847 -0.5016 -0.8588 -1.1664
 5688TIP3    H238700   5.046   1.898   8.830 -1.3805  2.4209  1.4052
 5689TIP3   OH238701   1.048   4.740   8.320 -0.5228  0.7933  0.1944
 5689TIP3    H138702   1.112   4.724   8.389 -1.0964 -0.5956  0.4441
 5689TIP3    H238703   1.099   4.771   8.246  0.3609  0.2750  0.5753
 5690TIP3   OH238704   5.627   4.956   0.999  0.0310 -0.1187 -0.2607
 5690TIP3    H138705   5.624   4.990   0.909 -0.5620  0.5492 -0.0015
 5690TIP3    H238706   5.661   5.029   1.051  0.3440 -0.4927  0.0673
 5691TIP3   OH238707   1.648   1.901   2.206 -0.1954 -0.2387 -0.5992
 5691TIP3    H138708   1.652   1.969   2.273 -1.4588 -1.7152  1.0462
 5691TIP3    H238709   1.555   1.889   2.190 -0.1490 -3.0421  0.7420
 5692TIP3   OH238710   1.859   4.784   8.112  0.6844  0.5365 -0.4676
 5692TIP3    H138711   1.870   4.713   8.049  0.1399 -1.7892  1.8306
 5692TIP3    H238712   1.907   4.755   8.189 -1.0633  1.7764  1.2059
 5693TIP3   OH238713   4.906   3.771   6.923  0.2451  0.1000 -0.0720
 5693TIP3    H138714   4.974   3.722   6.876  0.9726 -0.6106  1.6337
 5693TIP3    H238715   4.955   3.831   6.979 -0.5696  0.3387  0.3838
 5694TIP3   OH238716   0.451   3.521   2.916  0.1689 -0.3627 -0.5787
 5694TIP3    H138717   0.410   3.588   2.971  0.1807 -2.3329  1.9988
 5694TIP3    H238718   0.544   3.526   2.937  0.0308 -1.8855  0.5231
 5695TIP3   OH238719   2.389   0.184   8.753 -0.2104 -0.5422 -0.0905
 5695TIP3    H138720   2.312   0.240   8.765 -2.0284 -3.0811  0.8438
 5695TIP3    H238721   2.460   0.233   8.793 -0.8233  2.7125 -2.5245
 5696TIP3   OH238722   5.584   6.348   1.844 -0.3756  0.4026 -0.2666
 5696TIP3    H138723   5.574   6.268   1.895  0.0696  0.9137  0.6586
 5696TIP3    H238724   5.674   6.344   1.811 -0.6213  0.1344 -0.9125
 5697TIP3   OH238725   0.836   2.214   2.185 -0.3572  0.0300 -0.0172
 5697TIP3    H138726   0.749   2.224   2.148 -0.2154  0.6734 -0.1844
 5697TIP3    H238727   0.895   2.246   2.117 -0.0285  0.2086  0.3504
 5698TIP3   OH238728   3.129   0.322   0.036  0.5936 -0.3832 -0.3663
 5698TIP3    H138729   3.169   0.330   0.122 -2.0689 -3.1808  1.3196
 5698TIP3    H238730   3.074   0.400   0.028  1.8400  0.5431 -0.1753
 5699TIP3   OH238731   3.433   5.001   1.319  0.2005 -0.5815  0.0108
 5699TIP3    H138732   3.406   5.079   1.270 -0.3021 -1.2148 -0.7516
 5699TIP3    H238733   3.409   5.019   1.409 -0.7957 -0.2464 -0.3170
 5700TIP3   OH238734   3.035   5.345   8.080 -0.0607  0.3456 -0.1273
 5700TIP3    H138735   2.971   5.292   8.032  0.4125  0.1408 -0.5381
 5700TIP3    H238736   2.996   5.357   8.166 -1.1142  1.0628 -0.6808
 5701TIP3   OH238737   6.414   4.732   2.079  0.1140 -0.0276  0.4557
 5701TIP3    H138738   6.507   4.753   2.084  0.1385 -0.2843  1.2645
 5701TIP3    H238739   6.394   4.732   1.985  1.0677 -0.6079  0.2418
 5702TIP3   OH238740   1.025   4.084   8.311 -0.2544 -0.4167 -0.9939
 5702TIP3    H138741   0.933   4.058   8.318  0.0223 -1.6671 -1.7441
 5702TIP3    H238742   1.026   4.174   8.344 -1.7934 -0.2654 -1.2460
 5703TIP3   OH238743   3.468   2.477   0.425  0.0205 -0.1501  0.0698
 5703TIP3    H138744   3.500   2.390   0.451 -1.1752 -0.3784  0.8769
 5703TIP3    H238745   3.422   2.509   0.503 -0.4881  0.7477 -0.5866
 5704TIP3   OH238746   1.758   0.839   0.597  0.2759  0.0649 -0.2861
 5704TIP3    H138747   1.746   0.811   0.688 -1.6418 -0.0271 -0.5303
 5704TIP3    H238748   1.825   0.906   0.602 -0.7390  1.0459  1.4211
 5705TIP3   OH238749   0.077   2.795   8.956  0.2206  0.0451 -0.3315
 5705TIP3    H138750   0.168   2.794   8.924  0.6918 -1.4010  0.9136
 5705TIP3    H238751   0.027   2.832   8.884  1.9064  1.7226 -0.7350
 5706TIP3   OH238752   3.157   4.794   0.201  0.2665  0.0557  0.0061
 5706TIP3    H138753   3.210   4.714   0.206 -0.9057 -0.7522 -0.1040
 5706TIP3    H238754   3.178   4.842   0.281  1.0023 -0.3417  0.0601
 5707TIP3   OH238755   0.625   1.457   1.550 -0.2599 -0.0881  0.0381
 5707TIP3    H138756   0.539   1.479   1.515 -0.2663  0.6023  0.4765
 5707TIP3    H238757   0.629   1.502   1.634  0.1697 -0.8688  0.4450
 5708TIP3   OH238758   0.087   2.205   2.937  0.0736  0.4088 -0.5130
 5708TIP3    H138759   0.080   2.244   2.850  1.7804  1.5237 -0.1926
 5708TIP3    H238760   0.004   2.159   2.949 -0.1047 -0.0221 -2.8348
 5709TIP3   OH238761   3.163   2.439   7.271 -0.0838 -0.2292 -0.3428
 5709TIP3    H138762   3.142   2.420   7.363  0.3275  1.1546  0.0606
 5709TIP3    H238763   3.180   2.533   7.270 -0.8223 -0.0911 -1.9976
 5710TIP3   OH238764   0.765   0.140   0.834 -0.4321  0.3667  0.9495
 5710TIP3    H138765   0.818   0.102   0.764 -1.2392  0.4515  0.2673
 5710TIP3    H238766   0.695   0.187   0.787  0.2463  2.3062  1.7498
 5711TIP3   OH238767   1.961   4.197   0.479  0.0603  0.1639 -0.1283
 5711TIP3    H138768   2.019   4.125   0.503 -1.2934 -0.8230  0.2966
 5711TIP3    H238769   1.977   4.210   0.385  0.4557 -0.5528 -0.1667
 5712TIP3   OH238770   0.513   2.489   8.458  0.4373 -0.4051 -0.4872
 5712TIP3    H138771   0.608   2.479   8.465  0.7896  2.1120 -0.9640
 5712TIP3    H238772   0.495   2.479   8.365  0.6969  2.0993 -0.8600
 5713TIP3   OH238773   0.334   0.967   1.138 -0.6907  0.4762 -0.3260
 5713TIP3    H138774   0.264   0.922   1.090 -0.7704 -0.1546  0.3742
 5713TIP3    H238775   0.288   1.012   1.209 -0.3219 -0.5162  0.5624
 5714TIP3   OH238776   3.985   2.564   7.399  0.0500  0.8042 -0.4955
 5714TIP3    H138777   3.933   2.625   7.452  1.1261 -0.6381  2.4508
 5714TIP3    H238778   3.937   2.481   7.404  0.7551  0.3622 -0.9025
 5715TIP3   OH238779   2.344   0.320   1.911 -0.7139  0.9418  0.7114
 5715TIP3    H138780   2.338   0.415   1.908 -0.6790  0.9338  0.3297
 5715TIP3    H238781   2.369   0.295   1.822 -0.0021  0.6255  0.9922
 5716TIP3   OH238782   3.996   0.671   0.677  0.1549  0.0718  0.0048
 5716TIP3    H138783   4.061   0.705   0.739  0.5274  3.6972 -2.1017
 5716TIP3    H238784   4.040   0.596   0.636  0.6927 -1.0886  2.5336
 5717TIP3   OH238785   3.895   0.132   7.627 -0.3832  0.0862 -0.0257
 5717TIP3    H138786   3.839   0.065   7.589 -0.5565  0.2201 -0.0104
 5717TIP3    H238787   3.959   0.084   7.679  0.3828 -0.1467 -1.1605
 5718TIP3   OH238788   4.623   2.248   1.230 -0.2085 -0.3776  0.2948
 5718TIP3    H138789   4.668   2.189   1.291  1.1683  1.4855  1.1842
 5718TIP3    H238790   4.540   2.204   1.211  0.5381 -2.3447  1.2973
 5719TIP3   OH238791   6.272   3.322   0.699 -0.4873 -0.2118  0.8780
 5719TIP3    H138792   6.177   3.336   0.706 -0.4724  0.3122  0.1692
 5719TIP3    H238793   6.285   3.294   0.608  0.0386 -0.2990  0.9792
 5720TIP3   OH238794   2.727   1.985   1.077  0.4810  0.0311 -0.2334
 5720TIP3    H138795   2.757   1.899   1.051  1.3242  0.4185 -0.5726
 5720TIP3    H238796   2.789   2.046   1.036  1.7764  0.6885  2.5118
 5721TIP3   OH238797   5.451   3.304   1.385 -0.3266 -0.3937  0.0891
 5721TIP3    H138798   5.525   3.291   1.443 -0.5303  1.0282  0.7030
 5721TIP3    H238799   5.478   3.375   1.326  0.2896 -2.4711 -2.3308
 5722TIP3   OH238800   6.022   1.927   1.154 -0.2571  0.1314 -0.4618
 5722TIP3    H138801   5.942   1.929   1.205  1.1449  0.3070  1.8967
 5722TIP3    H238802   6.050   1.836   1.157  1.4073  0.6048  1.9065
 5723TIP3   OH238803   3.982   0.361   8.733 -0.3612  0.6460  0.6970
 5723TIP3    H138804   4.041   0.397   8.799 -0.9108 -1.7946  2.6949
 5723TIP3    H238805   3.899   0.408   8.747 -0.8412 -0.6425  2.7206
 5724TIP3   OH238806   0.184   1.623   8.113 -0.0777 -0.0922  0.2676
 5724TIP3    H138807   0.219   1.538   8.086 -0.8514 -0.1117 -0.7453
 5724TIP3    H238808   0.155   1.609   8.203  1.7893 -0.2718  0.8816
 5725TIP3   OH238809   0.366   5.743   1.611  1.0294 -0.0269 -0.0089
 5725TIP3    H138810   0.307   5.818   1.609  1.7179  0.5178 -0.8477
 5725TIP3    H238811   0.436   5.768   1.671  0.3967 -0.7053  1.0504
 5726TIP3   OH238812   0.439   5.673   0.212 -0.0606 -0.0859 -0.2464
 5726TIP3    H138813   0.408   5.589   0.177  0.1744  0.4016 -1.6795
 5726TIP3    H238814   0.377   5.694   0.281  1.6688 -3.0046  2.4769
 5727TIP3   OH238815   3.365   2.346   2.400  0.0985 -0.2080 -0.1050
 5727TIP3    H138816   3.346   2.375   2.311  1.2250 -0.0790 -0.3157
 5727TIP3    H238817   3.316   2.264   2.409 -0.1383 -0.1506 -0.7848
 5728TIP3   OH238818   3.343   0.946   8.245  0.1717  1.1176  0.1068
 5728TIP3    H138819   3.358   0.884   8.316  1.0520  1.1292 -0.0584
 5728TIP3    H238820   3.300   0.895   8.176  0.4210  0.8190  0.1723
 5729TIP3   OH238821   3.025   6.078   2.518 -0.1163 -0.1806 -0.5564
 5729TIP3    H138822   3.014   6.042   2.606 -0.7972  0.1212 -0.5121
 5729TIP3    H238823   3.105   6.037   2.485  1.6030  1.5522  1.1357
 5730TIP3   OH238824   5.617   3.093   0.519 -0.1564  0.8819  0.3432
 5730TIP3    H138825   5.651   3.024   0.575 -1.1375  0.0470 -0.0742
 5730TIP3    H238826   5.694   3.123   0.469  0.1550 -0.3460  0.0666
 5731TIP3   OH238827   3.847   4.500   8.618 -0.0816  0.2775 -0.0149
 5731TIP3    H138828   3.872   4.410   8.639 -0.2460 -0.1297 -1.4335
 5731TIP3    H238829   3.767   4.515   8.667  0.2479 -0.1443  0.6694
 5732TIP3   OH238830   4.870   3.798   0.047  0.2488  0.2725  0.6625
 5732TIP3    H138831   4.802   3.791  -0.020  1.0523 -0.6994 -0.0808
 5732TIP3    H238832   4.907   3.710   0.053  1.9861  0.9468  0.4627
 5733TIP3   OH238833   6.048   6.133   2.045 -0.9008 -0.2242  0.1541
 5733TIP3    H138834   6.021   6.046   2.077  0.6165 -0.4685  0.8477
 5733TIP3    H238835   6.117   6.160   2.106  0.7288  0.1482 -1.7632
 5734TIP3   OH238836   3.337   4.518   0.225 -0.3003 -0.4658 -0.1985
 5734TIP3    H138837   3.323   4.510   0.319  0.7026 -2.8975 -0.1913
 5734TIP3    H238838   3.252   4.500   0.186 -0.0879 -2.6275  0.2079
 5735TIP3   OH238839   1.899   5.141   2.572 -0.5179 -0.5522  0.3701
 5735TIP3    H138840   1.947   5.189   2.506  2.3655 -1.9012  1.3167
 5735TIP3    H238841   1.820   5.193   2.588  0.4690  1.6549 -1.4939
 5736TIP3   OH238842   1.670   3.404   0.040 -0.4058 -0.2960  0.5338
 5736TIP3    H138843   1.665   3.312   0.065  2.3372 -0.2222  1.6738
 5736TIP3    H238844   1.698   3.449   0.120 -0.0481  1.2792 -0.4287
 5737TIP3   OH238845   4.812   4.726   0.072 -0.0247  0.0051 -0.2879
 5737TIP3    H138846   4.880   4.663   0.050  0.3347  0.5584 -0.7653
 5737TIP3    H238847   4.732   4.690   0.033 -0.0028 -0.6021  0.2041
 5738TIP3   OH238848   4.495   0.947   1.146  0.2929  0.3677 -0.1799
 5738TIP3    H138849   4.502   1.034   1.106  0.8301  0.5712  0.3369
 5738TIP3    H238850   4.402   0.936   1.165  0.4485  1.7019  1.6262
 5739TIP3   OH238851   0.450   0.481   2.014  0.3625 -0.4695  0.2078
 5739TIP3    H138852   0.511   0.508   1.945 -0.1701  0.3048  0.0269
 5739TIP3    H238853   0.370   0.530   1.996 -1.7136 -4.1359 -1.7987
 5740TIP3   OH238854   2.197   4.391   1.493 -0.4449 -0.2214  0.6752
 5740TIP3    H138855   2.252   4.374   1.416 -2.4829  0.7315 -1.1297
 5740TIP3    H238856   2.255   4.380   1.568  1.6476 -1.2352 -0.9982
 5741TIP3   OH238857   5.904   3.850   2.730  0.1975  0.6292 -0.3108
 5741TIP3    H138858   5.905   3.770   2.782 -0.7849  1.8403  1.6433
 5741TIP3    H238859   5.997   3.869   2.714  0.4473 -0.7554 -0.6483
 5742TIP3   OH238860   1.125   1.011   8.451 -0.2549 -0.5687 -0.4382
 5742TIP3    H138861   1.176   1.084   8.417  1.5445 -2.2394 -1.5563
 5742TIP3    H238862   1.037   1.047   8.465  0.8539  2.1000  0.3416
 5743TIP3   OH238863   3.328   2.502   7.940 -0.1818  0.1911  0.4944
 5743TIP3    H138864   3.384   2.515   7.864 -2.4164 -0.3682 -1.3345
 5743TIP3    H238865   3.278   2.423   7.920 -1.0513  0.1839  2.4238
 5744TIP3   OH238866   2.942   3.575   9.195  0.1495  0.5644  0.2841
 5744TIP3    H138867   2.911   3.577   9.105 -1.4957  1.1152  0.8386
 5744TIP3    H238868   2.928   3.484   9.224 -0.1370  0.6056  0.2695
 5745TIP3   OH238869   4.039   2.732   7.171  0.2700 -0.4246 -0.8442
 5745TIP3    H138870   3.985   2.674   7.226 -0.9051  2.2097  0.9848
 5745TIP3    H238871   3.987   2.811   7.162  2.6538  1.1638 -1.4778
 5746TIP3   OH238872   0.700   6.362   8.670 -0.2650 -0.2119 -0.2443
 5746TIP3    H138873   0.737   6.434   8.620  1.8473 -1.0010  0.0947
 5746TIP3    H238874   0.653   6.309   8.606  0.8109 -0.2016 -1.0571
 5747TIP3   OH238875   3.983   3.962   0.763  0.4742  0.1446  0.3014
 5747TIP3    H138876   3.952   3.937   0.851  0.1368 -1.3195 -0.1985
 5747TIP3    H238877   4.077   3.948   0.767  0.4916  0.3159  0.5088
 5748TIP3   OH238878   2.476   5.887   7.615  0.6491 -0.3236  0.0241
 5748TIP3    H138879   2.469   5.921   7.525  0.7190  0.4054  0.2826
 5748TIP3    H238880   2.396   5.919   7.658  0.2905 -1.2240  0.0523
 5749TIP3   OH238881   2.050   3.358   6.948  0.0279  0.0196 -0.2519
 5749TIP3    H138882   2.080   3.292   6.885  2.7693  1.4960 -0.6707
 5749TIP3    H238883   2.037   3.310   7.030  1.4368 -1.1501 -0.6819
 5750TIP3   OH238884   1.886   6.276   2.858 -0.6908 -0.2047  0.2928
 5750TIP3    H138885   1.855   6.199   2.907 -1.0999  0.0858  0.4946
 5750TIP3    H238886   1.972   6.249   2.825 -0.9151 -0.8235  0.1898
 5751TIP3   OH238887   2.978   1.208   8.135 -0.8993 -0.5685  0.3056
 5751TIP3    H138888   3.039   1.166   8.196 -1.1971 -0.0571  0.9668
 5751TIP3    H238889   2.978   1.301   8.161  0.6168  0.1151 -1.8378
 5752TIP3   OH238890   3.059   3.307   0.260 -0.6845  0.3568  0.1750
 5752TIP3    H138891   2.975   3.318   0.304 -0.5463  0.5230  0.3989
 5752TIP3    H238892   3.101   3.392   0.268  0.0622 -0.0834  1.2216
 5753TIP3   OH238893   3.148   0.970   8.677 -0.8535  0.1239 -0.7176
 5753TIP3    H138894   3.124   0.887   8.718 -1.5259  0.6134 -0.0935
 5753TIP3    H238895   3.171   0.946   8.587  0.3596 -0.9198 -0.1648
 5754TIP3   OH238896   6.314   2.731   2.046  0.0438  0.5696  0.1530
 5754TIP3    H138897   6.246   2.775   1.994 -0.0011  0.3070 -0.0130
 5754TIP3    H238898   6.395   2.746   1.999 -0.0910 -0.2175 -0.3448
 5755TIP3   OH238899   3.879   2.922   0.876  0.1861  0.4505 -0.2590
 5755TIP3    H138900   3.898   2.998   0.931  0.3525  0.3166 -0.1321
 5755TIP3    H238901   3.886   2.847   0.935  0.3753  0.3051 -0.4631
 5756TIP3   OH238902   2.423   0.484   3.187  0.6905  0.4926  0.1174
 5756TIP3    H138903   2.422   0.558   3.126  1.4719  0.4498  0.0382
 5756TIP3    H238904   2.344   0.496   3.240 -0.7883 -0.2230 -1.7754
 5757TIP3   OH238905   4.194   5.125   8.330  0.0525 -0.0465  0.4189
 5757TIP3    H138906   4.099   5.137   8.324  0.1432  0.3342 -0.3054
 5757TIP3    H238907   4.217   5.078   8.250  0.7554  1.6871 -0.4416
 5758TIP3   OH238908   2.831   5.438   9.102  0.4557  0.2326  0.4080
 5758TIP3    H138909   2.897   5.428   9.034 -1.4479  1.9017 -1.8629
 5758TIP3    H238910   2.825   5.533   9.116 -1.6545  0.1682  0.2625
 5759TIP3   OH238911   5.412   5.646   7.527  0.1793  0.3399 -0.4093
 5759TIP3    H138912   5.390   5.574   7.587  1.4474  0.5133  0.3111
 5759TIP3    H238913   5.439   5.717   7.585 -2.4222  1.9567 -1.0321
 5760TIP3   OH238914   3.960   3.549   0.321  0.0334  0.1830  0.0200
 5760TIP3    H138915   4.036   3.522   0.270  0.5883 -1.5487  1.6642
 5760TIP3    H238916   3.892   3.485   0.298 -0.0359  0.0303  0.6260
 5761TIP3   OH238917   1.717   0.778   0.861  0.4270  0.7631 -0.2912
 5761TIP3    H138918   1.670   0.757   0.942  1.1879  1.7345  0.4237
 5761TIP3    H238919   1.803   0.737   0.872  0.1792 -0.0154 -1.0928
 5762TIP3   OH238920   4.742   0.922   0.281 -0.4458 -0.2152 -0.1870
 5762TIP3    H138921   4.803   0.986   0.316 -1.6459  0.8443  0.0557
 5762TIP3    H238922   4.783   0.837   0.298  0.9397  0.4548 -0.0527
 5763TIP3   OH238923   3.652   4.546   7.340 -0.3425  0.1555 -0.0280
 5763TIP3    H138924   3.558   4.550   7.321 -0.5058 -1.6195  0.2783
 5763TIP3    H238925   3.667   4.621   7.397 -1.7355  0.0406  0.5478
 5764TIP3   OH238926   0.097   0.790   8.833  0.1987 -0.3535 -0.5512
 5764TIP3    H138927   0.177   0.841   8.848  2.1068 -2.9319 -1.1399
 5764TIP3    H238928   0.072   0.810   8.743 -0.5632  1.3659  0.0144
 5765TIP3   OH238929   2.066   5.569   8.898 -0.3772 -0.3188 -0.2170
 5765TIP3    H138930   2.126   5.627   8.851  0.9683 -0.5715  1.1228
 5765TIP3    H238931   2.032   5.621   8.970  1.4426 -1.2999  1.4700
 5766TIP3   OH238932   5.031   2.797   9.108 -0.3658 -0.4093 -0.6288
 5766TIP3    H138933   5.104   2.834   9.159 -0.0209 -0.7190 -0.8945
 5766TIP3    H238934   5.001   2.722   9.159 -1.4775  0.5867  0.2284
 5767TIP3   OH238935   4.711   5.083   9.075 -0.1823  0.3360 -0.0625
 5767TIP3    H138936   4.756   5.020   9.020 -1.2210 -0.0969 -0.4421
 5767TIP3    H238937   4.658   5.030   9.134 -1.4730  0.8333 -0.7313
 5768TIP3   OH238938   2.831   6.281   0.502 -0.2676 -0.2192 -0.3324
 5768TIP3    H138939   2.870   6.195   0.483 -0.2869 -0.1971 -0.4773
 5768TIP3    H238940   2.833   6.288   0.597  1.4402  0.3898 -0.3692
 5769TIP3   OH238941   2.849   3.223   2.229  0.3746  0.2485  0.4502
 5769TIP3    H138942   2.826   3.245   2.139  0.1935  0.0055  0.4375
 5769TIP3    H238943   2.899   3.299   2.260 -1.6844  1.4736  0.9621
 5770TIP3   OH238944   1.274   4.453   0.237  0.5679  0.2238 -0.3019
 5770TIP3    H138945   1.217   4.489   0.305  0.5628  1.2178 -0.8215
 5770TIP3    H238946   1.257   4.507   0.160  0.5702 -0.8893 -1.1117
 5771TIP3   OH238947   5.988   3.381   7.897  0.0069 -0.4329 -0.5717
 5771TIP3    H138948   5.985   3.366   7.991 -3.0615  0.7847 -0.3636
 5771TIP3    H238949   5.976   3.475   7.887  0.5019 -0.5121 -2.1937
 5772TIP3   OH238950   1.750   6.377   7.354  0.3540  0.0925 -0.2122
 5772TIP3    H138951   1.806   6.453   7.339  0.7509 -0.1668 -0.0817
 5772TIP3    H238952   1.730   6.380   7.448 -0.2992  0.4857 -0.3638
 5773TIP3   OH238953   0.145   5.415   8.277  0.1836  0.2308 -0.0956
 5773TIP3    H138954   0.220   5.410   8.217  0.5954  1.2924  0.3126
 5773TIP3    H238955   0.074   5.450   8.224 -0.3889 -1.8433 -0.7937
 5774TIP3   OH238956   1.201   2.771   8.699  0.0519 -0.0076 -0.6348
 5774TIP3    H138957   1.209   2.706   8.768  1.7976 -1.0572 -1.7617
 5774TIP3    H238958   1.132   2.830   8.730  1.9955  0.6861  2.8999
 5775TIP3   OH238959   4.984   6.608   2.049 -0.4429 -0.0430 -0.6547
 5775TIP3    H138960   4.966   6.664   2.125 -0.4214 -0.4478 -0.3482
 5775TIP3    H238961   4.898   6.576   2.023 -0.5353  0.6696 -1.2543
 5776TIP3   OH238962   3.005   0.530   9.111 -0.5136 -0.2044  0.6587
 5776TIP3    H138963   2.966   0.494   9.031  0.2747  2.2362 -0.9453
 5776TIP3    H238964   2.939   0.590   9.146  0.0771  0.6485  0.3650
 5777TIP3   OH238965   6.046   1.048   9.020 -0.1827  0.0241 -0.1754
 5777TIP3    H138966   6.126   1.035   9.070 -0.4904  0.2928  0.3958
 5777TIP3    H238967   6.010   1.130   9.053 -1.9374 -1.2489  1.2930
 5778TIP3   OH238968   6.185   4.403   1.417 -0.5522  0.1497  0.0544
 5778TIP3    H138969   6.194   4.480   1.473 -2.8718 -0.0022  0.7337
 5778TIP3    H238970   6.164   4.438   1.331 -2.3901  0.3119  0.5348
 5779TIP3   OH238971   6.083   5.560   0.251 -0.2223  0.0870  0.4785
 5779TIP3    H138972   6.018   5.581   0.184  0.1439  0.1090  0.1191
 5779TIP3    H238973   6.034   5.552   0.332 -0.6168  0.4950  0.2808
 5780TIP3   OH238974   1.997   2.928   7.683 -0.3416 -0.0257 -0.3725
 5780TIP3    H138975   2.016   2.925   7.589 -2.1426  1.7352 -0.8569
 5780TIP3    H238976   1.907   2.898   7.690  0.4676 -2.3642  1.1271
 5781TIP3   OH238977   5.548   2.845   8.889 -0.1581 -0.4603 -0.0083
 5781TIP3    H138978   5.592   2.879   8.966 -1.9049  0.4544  0.6404
 5781TIP3    H238979   5.605   2.774   8.858  0.0381 -1.6577  2.8089
 5782TIP3   OH238980   0.933   4.013   8.047 -0.1726  0.2299  0.3825
 5782TIP3    H138981   0.952   4.015   7.953  0.8596 -2.5121  0.4407
 5782TIP3    H238982   0.981   4.088   8.082  0.2102  0.7552 -1.1501
 5783TIP3   OH238983   1.597   0.477   8.120  0.1366  1.0729  0.0606
 5783TIP3    H138984   1.608   0.553   8.177 -2.8399 -0.5694  3.1662
 5783TIP3    H238985   1.502   0.463   8.116  0.5238 -2.1921 -0.7079
 5784TIP3   OH238986   4.526   3.731   7.934  0.0686  0.0210  0.2332
 5784TIP3    H138987   4.551   3.650   7.979  0.1209  0.4479  1.0001
 5784TIP3    H238988   4.586   3.737   7.860  0.3933 -0.3914  0.4537
 5785TIP3   OH238989   2.002   4.139   7.798  0.4993  0.5461  0.2559
 5785TIP3    H138990   2.006   4.195   7.720 -1.0150 -1.4407 -1.3451
 5785TIP3    H238991   1.915   4.155   7.835  0.8452  0.7509  1.0139
 5786TIP3   OH238992   5.428   1.990   1.596  0.0808  0.3492 -0.3825
 5786TIP3    H138993   5.431   2.048   1.672  1.2396  0.0849 -0.2060
 5786TIP3    H238994   5.433   2.049   1.521 -1.5675  0.6474 -0.3026
 5787TIP3   OH238995   3.023   6.196   8.295 -0.1434 -0.2537  0.3731
 5787TIP3    H138996   3.046   6.117   8.247  1.2034  0.5562 -0.3731
 5787TIP3    H238997   2.934   6.216   8.268  0.0925 -0.6022 -0.7079
 5788TIP3   OH238998   1.722   1.765   8.597  0.5432 -0.0505 -0.5460
 5788TIP3    H138999   1.803   1.716   8.614  1.0785  1.1168  0.3868
 5788TIP3    H239000   1.669   1.749   8.674 -0.3205 -1.1337 -1.3284
 5789TIP3   OH239001   6.009   3.286   1.490 -0.1019 -0.5074  0.0684
 5789TIP3    H139002   5.947   3.262   1.420 -0.4591 -1.6004  0.7344
 5789TIP3    H239003   6.069   3.211   1.495 -0.5225 -0.7875  1.4082
 5790TIP3   OH239004   5.985   1.211   3.282 -0.2532  0.0035 -0.1266
 5790TIP3    H139005   6.079   1.200   3.263 -0.4722 -1.6523 -0.4100
 5790TIP3    H239006   5.973   1.306   3.287  1.3586  0.2668 -0.4734
 5791TIP3   OH239007   3.485   1.497   8.545 -0.1096  0.1745 -0.5275
 5791TIP3    H139008   3.512   1.589   8.555  1.4232  0.0394 -2.6816
 5791TIP3    H239009   3.441   1.476   8.627 -0.9771  2.9832 -0.1509
 5792TIP3   OH239010   3.919   3.769   1.485 -0.0829  0.0505 -0.2528
 5792TIP3    H139011   3.906   3.840   1.423 -1.8803  0.7753  0.8816
 5792TIP3    H239012   3.884   3.691   1.441 -1.5851  0.6045 -0.0823
 5793TIP3   OH239013   1.650   5.676   1.925 -0.3451 -0.6033 -0.7887
 5793TIP3    H139014   1.564   5.677   1.966 -0.3553 -0.2738 -0.8090
 5793TIP3    H239015   1.698   5.606   1.970 -0.2363 -0.0065  0.0631
 5794TIP3   OH239016   0.807   4.843   1.898  0.2473  0.4865  0.0533
 5794TIP3    H139017   0.816   4.757   1.937  1.4231  0.0746 -1.0602
 5794TIP3    H239018   0.820   4.904   1.970 -1.9402 -0.2261  1.1371
 5795TIP3   OH239019   6.122   2.135   2.461  0.3278 -0.1652 -0.6435
 5795TIP3    H139020   6.131   2.046   2.425  0.8358  0.0212 -0.9836
 5795TIP3    H239021   6.144   2.125   2.554 -1.0918 -0.6693 -0.3229
 5796TIP3   OH239022   4.513   5.580   3.343  0.0587 -0.0536  0.1651
 5796TIP3    H139023   4.502   5.582   3.248 -1.7162 -2.4610  0.2194
 5796TIP3    H239024   4.429   5.549   3.376 -0.9343  4.7560  2.9774
 5797TIP3   OH239025   3.484   5.162   0.455  0.2158 -0.2071 -0.3470
 5797TIP3    H139026   3.526   5.079   0.433  0.1846 -1.0381  2.3935
 5797TIP3    H239027   3.394   5.138   0.478  0.4684  0.3955  1.4081
 5798TIP3   OH239028   1.179   6.440   2.107 -0.0435  0.3002  0.3109
 5798TIP3    H139029   1.242   6.507   2.079 -1.0076  0.9436 -0.3783
 5798TIP3    H239030   1.138   6.478   2.185 -0.7436  0.6266 -0.2044
 5799TIP3   OH239031   1.135   1.548   3.265 -0.5163 -0.2331 -0.7320
 5799TIP3    H139032   1.195   1.545   3.190  1.0330 -1.8024  0.4895
 5799TIP3    H239033   1.104   1.638   3.267  1.8561  0.6725 -1.4049
 5800TIP3   OH239034   0.763   3.433   2.201  0.4794  0.4463 -0.1928
 5800TIP3    H139035   0.836   3.383   2.163  2.1179  1.4252  1.4998
 5800TIP3    H239036   0.750   3.393   2.287 -0.3580  0.8901 -0.1102
 5801TIP3   OH239037   2.212   1.483   1.245  0.5611 -0.4152  0.1199
 5801TIP3    H139038   2.248   1.450   1.328  0.3564  1.9756  1.2495
 5801TIP3    H239039   2.273   1.552   1.218 -0.4127  0.1700 -0.6722
 5802TIP3   OH239040   6.341   5.453   1.310 -0.2752 -0.7211 -0.3333
 5802TIP3    H139041   6.346   5.526   1.371 -0.5480 -1.0354  0.0623
 5802TIP3    H239042   6.430   5.417   1.309 -0.0653 -0.2196 -0.7441
 5803TIP3   OH239043   5.839   4.811   8.538  0.1238  0.5236  0.2439
 5803TIP3    H139044   5.766   4.806   8.599  0.4756  0.2214  0.6472
 5803TIP3    H239045   5.838   4.901   8.505 -2.0835 -0.1346 -1.8115
 5804TIP3   OH239046   5.755   4.137   7.691  0.2458 -0.3126 -0.1381
 5804TIP3    H139047   5.695   4.066   7.669 -0.2111  0.3440 -1.0766
 5804TIP3    H239048   5.704   4.217   7.678  0.9410  0.2147  0.2884
 5805TIP3   OH239049   2.314   2.241   0.111 -0.6700  0.0096 -0.3325
 5805TIP3    H139050   2.407   2.221   0.121 -0.5878 -0.9507 -2.3356
 5805TIP3    H239051   2.278   2.165   0.065 -2.5578  0.1541  0.8114
 5806TIP3   OH239052   1.100   2.718   1.828  0.0239  0.0124  0.0068
 5806TIP3    H139053   1.071   2.645   1.774  0.9792  0.8404 -1.6934
 5806TIP3    H239054   1.019   2.755   1.863 -0.6723 -0.2097 -1.3168
 5807TIP3   OH239055   6.203   2.950   2.712 -0.2713  0.0672  0.3585
 5807TIP3    H139056   6.290   2.987   2.725  0.7220 -2.0608  0.2597
 5807TIP3    H239057   6.183   2.906   2.795 -1.2631  0.5232  0.3751
 5808TIP3   OH239058   1.884   5.540   0.362  0.3259  0.0318  0.2715
 5808TIP3    H139059   1.848   5.618   0.320  1.0029  0.7623  1.0221
 5808TIP3    H239060   1.948   5.574   0.424  0.9321 -1.1486  0.3073
 5809TIP3   OH239061   5.757   2.600   7.878  0.1455  0.3448  0.4449
 5809TIP3    H139062   5.760   2.531   7.812 -0.8057 -0.6604  1.4244
 5809TIP3    H239063   5.804   2.673   7.838  2.5883 -1.3618 -0.0047
 5810TIP3   OH239064   2.952   1.860   8.607 -0.4627  1.1441 -0.4308
 5810TIP3    H139065   3.020   1.793   8.593 -0.3058  1.3073 -0.4611
 5810TIP3    H239066   3.002   1.941   8.623 -0.6464  1.4412 -1.2979
 5811TIP3   OH239067   6.003   0.301   8.609 -0.1297 -0.2291 -0.1925
 5811TIP3    H139068   5.921   0.340   8.639 -0.1138  0.9704 -1.6034
 5811TIP3    H239069   6.063   0.311   8.683 -0.8689  0.0943  0.3790
 5812TIP3   OH239070   1.127   2.979   1.719 -0.3122 -0.2110  0.1490
 5812TIP3    H139071   1.096   2.890   1.738 -0.1850 -0.0292  1.2301
 5812TIP3    H239072   1.052   3.021   1.676 -0.8984 -0.3899  0.9749
 5813TIP3   OH239073   6.301   4.156   8.442  0.8635 -0.4193 -0.1257
 5813TIP3    H139074   6.329   4.242   8.472  2.6378 -1.0190  0.0917
 5813TIP3    H239075   6.338   4.148   8.354  3.2712 -2.0071  0.9116
 5814TIP3   OH239076   1.021   6.557   2.335 -0.2499  0.3173  0.0773
 5814TIP3    H139077   0.997   6.468   2.361 -0.1120  0.5524  1.0582
 5814TIP3    H239078   1.028   6.605   2.418  0.6240  1.0036 -0.3784
 5815TIP3   OH239079   1.572   0.413   1.279 -0.0924  0.8959  0.1274
 5815TIP3    H139080   1.629   0.344   1.313  2.6788  3.4770  1.2149
 5815TIP3    H239081   1.566   0.396   1.185  0.9296 -0.5326  0.2989
 5816TIP3   OH239082   3.835   0.049   7.238 -0.5299  0.1747  0.0905
 5816TIP3    H139083   3.758   0.037   7.183 -1.2848 -0.6462  1.2632
 5816TIP3    H239084   3.901  -0.011   7.202 -0.3795  0.9521 -0.9758
 5817TIP3   OH239085   3.828   6.006   0.243  0.0332 -0.1567 -0.2534
 5817TIP3    H139086   3.918   5.995   0.273  0.1966 -0.5589 -0.8797
 5817TIP3    H239087   3.795   5.917   0.231 -0.2808 -0.0101 -0.5104
 5818TIP3   OH239088   4.558   3.741   0.049 -0.4447  0.0598  0.2911
 5818TIP3    H139089   4.503   3.732  -0.029  0.0763 -0.4759 -0.0276
 5818TIP3    H239090   4.500   3.719   0.122 -0.9311  0.5416  0.0576
 5819TIP3   OH239091   0.699   1.359   1.949 -0.6165  0.3194 -0.4285
 5819TIP3    H139092   0.614   1.334   1.984 -0.8788 -0.7330 -1.7697
 5819TIP3    H239093   0.720   1.291   1.885  1.1314  0.6833 -0.2926
 5820TIP3   OH239094   3.556   0.445   7.979  0.4145  0.0807 -0.0480
 5820TIP3    H139095   3.534   0.381   8.046 -1.7891  1.1353  0.3165
 5820TIP3    H239096   3.480   0.446   7.921  1.6936  0.1860 -1.7979
 5821TIP3   OH239097   3.524   0.830   0.250  0.4355 -0.2918 -0.1758
 5821TIP3    H139098   3.528   0.923   0.230 -0.5096 -0.1172  0.3440
 5821TIP3    H239099   3.609   0.795   0.224 -0.0382  0.2410 -2.7164
 5822TIP3   OH239100   0.713   2.840   2.433 -0.5290 -0.3466  0.0393
 5822TIP3    H139101   0.640   2.782   2.416 -0.3395  0.0816 -2.5527
 5822TIP3    H239102   0.672   2.923   2.459 -0.9068 -0.4963 -0.0726
 5823TIP3   OH239103   4.163   1.147   7.639 -0.0092  0.6056 -0.1907
 5823TIP3    H139104   4.226   1.216   7.614  0.8967  0.0421  0.4931
 5823TIP3    H239105   4.187   1.073   7.584 -0.2663  0.4805 -0.1313
 5824TIP3   OH239106   5.893   5.477   1.762  0.3828 -0.0235 -0.0421
 5824TIP3    H139107   5.937   5.517   1.838  0.0440 -1.8823  1.2012
 5824TIP3    H239108   5.807   5.519   1.759  0.8052  0.8670 -0.1134
 5825TIP3   OH239109   0.699   2.568   9.149  0.3664  0.7282  0.3193
 5825TIP3    H139110   0.715   2.625   9.074 -1.3743  0.7454 -0.0931
 5825TIP3    H239111   0.653   2.624   9.212 -0.4496  0.0554  0.3313
 5826TIP3   OH239112   0.690   3.864   0.301 -0.3722  0.1835  0.7001
 5826TIP3    H139113   0.768   3.865   0.358  0.4656  2.7658 -0.3640
 5826TIP3    H239114   0.616   3.863   0.362  0.4953  1.4775  1.8354
 5827TIP3   OH239115   2.437   2.022   7.826  0.0779  0.4367  0.1314
 5827TIP3    H139116   2.399   1.961   7.762 -0.2070  0.1115  0.6044
 5827TIP3    H239117   2.411   2.109   7.795 -0.2232  0.2707 -0.0904
 5828TIP3   OH239118   5.712   5.597   8.614  0.6352 -0.1037  0.3932
 5828TIP3    H139119   5.631   5.584   8.662  0.6937  0.8295  0.7578
 5828TIP3    H239120   5.732   5.690   8.624  0.2112  0.3258 -2.1621
 5829TIP3   OH239121   1.858   4.767   1.821 -0.0807 -0.1637 -0.3431
 5829TIP3    H139122   1.808   4.690   1.791 -1.0278  1.2441 -2.6617
 5829TIP3    H239123   1.794   4.839   1.818  1.5784  1.3488 -1.5688
 5830TIP3   OH239124   5.695   2.869   0.658 -0.2755  0.0358 -0.9366
 5830TIP3    H139125   5.776   2.829   0.689 -1.4903 -1.0504  1.0202
 5830TIP3    H239126   5.652   2.801   0.607 -1.1127 -0.3148  0.1887
 5831TIP3   OH239127   3.278   4.310   0.900  0.3933 -0.1444  0.1245
 5831TIP3    H139128   3.243   4.398   0.887 -0.0071 -0.2363  0.5562
 5831TIP3    H239129   3.371   4.323   0.918  0.0137  0.3358  1.9710
 5832TIP3   OH239130   4.620   3.820   8.410 -0.3837  0.6250 -0.4277
 5832TIP3    H139131   4.650   3.730   8.392 -1.3750  0.3115 -0.5870
 5832TIP3    H239132   4.613   3.860   8.324 -0.4348  0.6916 -0.3926
 5833TIP3   OH239133   6.422   0.124   2.469  0.2402  0.3771  0.3196
 5833TIP3    H139134   6.373   0.156   2.545  0.4316  1.1669  0.1116
 5833TIP3    H239135   6.441   0.202   2.417  0.4590 -0.1064 -0.3443
 5834TIP3   OH239136   5.375   1.740   2.347  0.1447  0.1051  0.3388
 5834TIP3    H139137   5.351   1.727   2.438 -0.9867  1.4879  0.2565
 5834TIP3    H239138   5.302   1.788   2.308  1.3184  0.9969 -0.8921
 5835TIP3   OH239139   1.205   5.031   7.293  0.0559  0.3975 -0.1444
 5835TIP3    H139140   1.171   5.071   7.373 -1.0059  2.0817 -1.3940
 5835TIP3    H239141   1.128   5.013   7.240  0.8776  1.3009 -1.6858
 5836TIP3   OH239142   3.416   0.906   0.876  0.0328 -0.2148 -0.3553
 5836TIP3    H139143   3.407   0.911   0.971 -0.1182  1.6317 -0.4307
 5836TIP3    H239144   3.333   0.938   0.842  0.1472 -0.7044 -1.1197
 5837TIP3   OH239145   3.169   2.944   1.526  0.1922  0.2992  0.1819
 5837TIP3    H139146   3.187   3.002   1.452 -1.5776 -1.6745 -1.9686
 5837TIP3    H239147   3.074   2.949   1.537  0.3367 -0.1001  1.7685
 5838TIP3   OH239148   0.250   4.277   7.630  0.3898  0.1098  0.1877
 5838TIP3    H139149   0.277   4.220   7.558 -1.3181 -0.4311 -0.0726
 5838TIP3    H239150   0.223   4.358   7.588  3.0929  1.3386  0.5792
 5839TIP3   OH239151   4.442   3.930   7.613 -0.2511  0.5287  0.6504
 5839TIP3    H139152   4.419   3.869   7.543  2.4559 -0.2833  0.3591
 5839TIP3    H239153   4.386   3.905   7.686 -1.2218 -0.3920 -0.3647
 5840TIP3   OH239154   4.518   0.035   8.025 -0.3649 -0.2469 -0.1153
 5840TIP3    H139155   4.497  -0.057   8.009  0.4367 -0.7658  1.5518
 5840TIP3    H239156   4.593   0.052   7.968  0.1334 -0.9552  0.3035
 5841TIP3   OH239157   5.608   1.010   8.068 -0.4228 -0.4404  0.6379
 5841TIP3    H139158   5.548   0.985   8.139  1.7643  0.6911  3.0606
 5841TIP3    H239159   5.677   0.944   8.070 -1.9209 -2.3667 -2.8392
 5842TIP3   OH239160   6.415   0.821   9.188 -0.5532  0.4991  0.4129
 5842TIP3    H139161   6.386   0.805   9.278  0.6792 -0.1745  0.7185
 5842TIP3    H239162   6.497   0.771   9.180  1.0895  3.0968 -0.0647
 5843TIP3   OH239163   6.212   2.086   3.318 -0.3054  0.2139  0.6489
 5843TIP3    H139164   6.210   1.991   3.309 -0.0274  0.2864 -0.2452
 5843TIP3    H239165   6.144   2.118   3.258 -0.5000  0.5693  1.0540
 5844TIP3   OH239166   5.691   3.647   7.884  0.5784  0.2840  0.0706
 5844TIP3    H139167   5.745   3.575   7.853  0.7663  0.0942  0.8247
 5844TIP3    H239168   5.752   3.719   7.897  0.8604 -0.2595  1.9969
 5845TIP3   OH239169   5.174   5.613   8.294  0.1585 -0.0450 -0.1958
 5845TIP3    H139170   5.201   5.657   8.374 -0.3788  1.9830 -1.0683
 5845TIP3    H239171   5.119   5.540   8.324  0.9534 -0.0629  1.2970
 5846TIP3   OH239172   2.830   2.900   0.379 -0.0140 -0.5513 -0.3220
 5846TIP3    H139173   2.766   2.839   0.341 -0.8950  0.5693 -0.6948
 5846TIP3    H239174   2.777   2.955   0.437  1.1261 -1.5601  1.7905
 5847TIP3   OH239175   0.068   5.849   2.065  0.0921  0.2132  0.3932
 5847TIP3    H139176   0.003   5.850   2.135 -0.3976  1.7332 -0.0455
 5847TIP3    H239177   0.018   5.861   1.984  0.7867 -0.0544 -0.0904
 5848TIP3   OH239178   0.376   6.281   1.361  0.4399  0.2293 -0.7992
 5848TIP3    H139179   0.390   6.374   1.379  2.2321 -0.2913  0.8942
 5848TIP3    H239180   0.435   6.236   1.422 -1.0363 -2.0535 -0.9326
 5849TIP3   OH239181   5.948   4.799   1.051  0.5226 -0.3310  0.3033
 5849TIP3    H139182   5.942   4.737   1.124  0.8657 -0.3989  0.2755
 5849TIP3    H239183   5.876   4.774   0.992  0.2054 -0.2342  0.6491
 5850TIP3   OH239184   2.001   1.716   1.545 -0.1304 -0.4984 -0.0512
 5850TIP3    H139185   2.072   1.736   1.485  0.3223  0.3330  0.7480
 5850TIP3    H239186   1.924   1.759   1.507  0.3691  0.9108  0.4847
 5851TIP3   OH239187   2.239   6.655   3.301 -0.6253  0.7701  0.3841
 5851TIP3    H139188   2.235   6.749   3.321  0.9751  1.0261 -0.2998
 5851TIP3    H239189   2.321   6.645   3.253 -1.3754 -0.7810 -0.6579
 5852TIP3   OH239190   0.787   6.566   2.646 -0.8997 -0.5391  0.0549
 5852TIP3    H139191   0.763   6.501   2.711 -1.4103 -0.3471  0.0576
 5852TIP3    H239192   0.714   6.568   2.585  0.0016 -1.4577 -1.1211
 5853TIP3   OH239193   5.304   0.361   2.177  0.7869 -0.0551 -0.0152
 5853TIP3    H139194   5.379   0.418   2.192  0.3633  0.7628 -0.9277
 5853TIP3    H239195   5.229   0.409   2.212  0.7384 -1.1489  1.5049
 5854TIP3   OH239196   0.887   5.989   2.686  0.2833  0.5930  1.0932
 5854TIP3    H139197   0.855   5.933   2.756 -3.2533 -0.4415 -1.0876
 5854TIP3    H239198   0.854   6.076   2.708 -1.9283  0.0402  0.2418
 5855TIP3   OH239199   3.295   1.295   1.823  0.0686 -0.2170 -0.1279
 5855TIP3    H139200   3.310   1.322   1.732 -0.8579 -0.9116 -0.5043
 5855TIP3    H239201   3.284   1.377   1.871 -0.5696  0.1351 -0.8517
 5856TIP3   OH239202   1.573   2.460   0.748 -0.6661  0.5421  1.3318
 5856TIP3    H139203   1.533   2.382   0.785  0.8990 -1.7034 -1.3386
 5856TIP3    H239204   1.512   2.489   0.679  0.3049 -0.4847 -0.0179
 5857TIP3   OH239205   3.631   5.619   2.139 -0.4198  0.2353 -0.2555
 5857TIP3    H139206   3.648   5.672   2.061  1.1382  0.5369  0.2602
 5857TIP3    H239207   3.574   5.548   2.107  0.3651  0.2203 -1.7269
 5858TIP3   OH239208   5.001   0.151   8.889 -0.6340  0.3922  0.5582
 5858TIP3    H139209   4.988   0.174   8.797  2.6588  0.8171  0.0697
 5858TIP3    H239210   5.007   0.236   8.934  0.4788  0.2941  0.6382
 5859TIP3   OH239211   6.245   3.895   1.807  0.4539  0.4482  0.0534
 5859TIP3    H139212   6.188   3.838   1.756  0.9829  1.8340 -2.2239
 5859TIP3    H239213   6.185   3.946   1.862 -0.2224 -0.2173 -0.0475
 5860TIP3   OH239214   3.591   4.783   7.512  0.2955 -0.0855 -0.0853
 5860TIP3    H139215   3.643   4.793   7.593 -1.1466  0.9459  0.7564
 5860TIP3    H239216   3.633   4.842   7.449 -0.2292  1.2928  0.8067
 5861TIP3   OH239217   5.167   5.827   2.659  0.3560  0.1101 -0.8972
 5861TIP3    H139218   5.216   5.785   2.730 -0.5462  1.4116  0.5728
 5861TIP3    H239219   5.230   5.887   2.619  0.5151  0.3052 -0.3563
 5862TIP3   OH239220   6.039   2.402   8.025 -0.5165 -0.0954 -0.2147
 5862TIP3    H139221   6.070   2.334   7.966  0.7393 -0.7877  1.1695
 5862TIP3    H239222   5.951   2.424   7.994  0.5917  0.5801 -3.1589
 5863TIP3   OH239223   1.305   0.439   0.690 -0.3084  0.0655 -0.6227
 5863TIP3    H139224   1.230   0.459   0.747  0.6418 -0.1158  0.7303
 5863TIP3    H239225   1.324   0.521   0.646 -1.9244 -0.1225 -1.7785
 5864TIP3   OH239226   1.316   5.061   2.599  0.0061  0.1139  0.6468
 5864TIP3    H139227   1.352   5.131   2.653  1.8744 -0.1911 -0.1173
 5864TIP3    H239228   1.369   4.984   2.620  0.6025 -0.0805 -1.3341
 5865TIP3   OH239229   3.712   5.899   2.394  0.3659  0.1950 -0.4105
 5865TIP3    H139230   3.622   5.865   2.390  0.1255  0.7925 -0.2063
 5865TIP3    H239231   3.751   5.871   2.312  0.0835 -0.3255 -0.3723
 5866TIP3   OH239232   1.885   1.470   2.103  0.0230  0.2654 -0.1037
 5866TIP3    H139233   1.807   1.523   2.087  0.4213  1.9649  2.8677
 5866TIP3    H239234   1.855   1.398   2.158  0.3854  0.3934  0.2634
 5867TIP3   OH239235   1.349   0.209   7.832  0.4462 -0.4872  0.8481
 5867TIP3    H139236   1.426   0.164   7.865  0.5348 -0.0177  1.2815
 5867TIP3    H239237   1.293   0.221   7.909  1.3159  1.9829  1.1686
 5868TIP3   OH239238   6.690   5.270   2.789 -0.0125 -0.1624  0.2270
 5868TIP3    H139239   6.772   5.272   2.740 -1.1438  0.0520 -1.7429
 5868TIP3    H239240   6.656   5.182   2.776  0.3937 -0.6119  1.9575
 5869TIP3   OH239241   4.925   1.168   1.995 -0.5546  1.2143  0.0621
 5869TIP3    H139242   4.994   1.162   1.929 -0.7825 -0.4229 -0.0763
 5869TIP3    H239243   4.965   1.216   2.067  0.3830  1.1896 -0.4253
 5870TIP3   OH239244   6.414   1.515   2.094 -0.6497 -0.5962 -0.7476
 5870TIP3    H139245   6.449   1.579   2.032  1.6013 -0.2988  0.7188
 5870TIP3    H239246   6.330   1.550   2.121  0.3276  1.5467 -0.3150
 5871TIP3   OH239247   4.841   5.438   7.102 -0.0481 -0.6709  0.3069
 5871TIP3    H139248   4.904   5.485   7.047 -0.9046 -1.7004 -1.6277
 5871TIP3    H239249   4.894   5.373   7.148  0.6236 -0.0976  0.3595
 5872TIP3   OH239250   5.647   3.024   1.091  0.3524  0.1326 -0.1521
 5872TIP3    H139251   5.609   3.033   1.004  2.9434 -1.6076 -1.5919
 5872TIP3    H239252   5.656   3.113   1.124  0.3635  0.8876 -2.1264
 5873TIP3   OH239253   2.194   4.118   8.897 -0.3227 -0.2445 -1.0462
 5873TIP3    H139254   2.207   4.048   8.834 -0.6915 -0.6655 -0.6557
 5873TIP3    H239255   2.179   4.074   8.980  0.2549  0.3104 -0.6409
 5874TIP3   OH239256   0.014   1.923   9.020 -0.1141  0.7039 -0.0459
 5874TIP3    H139257  -0.029   1.850   9.063  1.1755  0.8465  1.5744
 5874TIP3    H239258  -0.050   1.995   9.025 -0.8294  0.1052 -0.3820
 5875TIP3   OH239259   1.130   2.279   1.795  0.5159 -0.4007  0.2998
 5875TIP3    H139260   1.098   2.327   1.871 -2.5086 -0.3128 -0.8569
 5875TIP3    H239261   1.146   2.190   1.827 -1.5093 -0.5817  0.9471
 5876TIP3   OH239262   2.968   6.337   2.458  0.1462 -0.1812  0.3353
 5876TIP3    H139263   3.048   6.342   2.406  1.0951  0.1569  1.7698
 5876TIP3    H239264   2.965   6.247   2.489  0.9518  0.2519  1.7380
 5877TIP3   OH239265   5.817   0.749   2.706  0.0473 -0.0350  0.9148
 5877TIP3    H139266   5.875   0.716   2.637  0.3755 -0.8995  1.5873
 5877TIP3    H239267   5.739   0.693   2.700 -0.2574  0.3995  0.7427
 5878TIP3   OH239268   6.251   4.187   0.083  0.6266 -0.1388 -0.3269
 5878TIP3    H139269   6.216   4.120   0.025  0.6688 -0.5182  0.0846
 5878TIP3    H239270   6.322   4.144   0.131 -0.0939 -0.1443  0.7731
 5879TIP3   OH239271   4.013   5.695   2.216  0.3331  0.1790  0.3488
 5879TIP3    H139272   4.064   5.629   2.168 -1.6798 -1.2230  0.0349
 5879TIP3    H239273   4.064   5.711   2.295  2.4589  0.6715 -1.0284
 5880TIP3   OH239274   3.427   4.306   1.397  0.3706 -0.1955  0.1044
 5880TIP3    H139275   3.338   4.311   1.433  0.2825 -0.5221 -0.0584
 5880TIP3    H239276   3.428   4.222   1.350  0.7128 -0.1131 -0.0328
 5881TIP3   OH239277   4.449   2.777   8.726 -0.4275  0.5379 -0.0075
 5881TIP3    H139278   4.450   2.728   8.808 -2.1040 -1.5230 -1.1292
 5881TIP3    H239279   4.372   2.744   8.679  1.4113  0.3951 -3.1688
 5882TIP3   OH239280   5.269   2.903   8.867 -0.0205 -0.7036  0.1168
 5882TIP3    H139281   5.353   2.862   8.848 -0.3233 -1.1338 -0.3323
 5882TIP3    H239282   5.267   2.912   8.962  0.2125 -1.3883  0.1871
 5883TIP3   OH239283   4.984   5.598   0.183  0.0105  0.2076 -0.4997
 5883TIP3    H139284   5.077   5.619   0.183  0.7592 -2.1492  3.2950
 5883TIP3    H239285   4.943   5.668   0.234  0.2231 -0.2411  0.3034
 5884TIP3   OH239286   4.366   4.924   1.967 -0.6212  0.4122  0.2914
 5884TIP3    H139287   4.320   4.927   1.883 -2.4017  1.1428  1.2334
 5884TIP3    H239288   4.297   4.936   2.032  0.6349 -0.6572  1.8997
 5885TIP3   OH239289   1.554   3.765   8.391  0.2418 -0.0634  0.3195
 5885TIP3    H139290   1.510   3.787   8.472  0.1629 -1.5472  0.7138
 5885TIP3    H239291   1.626   3.707   8.417  0.7144  0.0878 -0.5836
 5886TIP3   OH239292   2.452   5.657   8.950 -0.3531 -0.5933 -0.1372
 5886TIP3    H139293   2.426   5.746   8.928 -0.7432 -0.0927  2.0721
 5886TIP3    H239294   2.498   5.665   9.034  1.8435 -2.1927 -1.0812
 5887TIP3   OH239295   1.775   4.321   1.442  0.5860 -0.0443  0.0273
 5887TIP3    H139296   1.724   4.283   1.370  1.5164 -0.5635 -0.3716
 5887TIP3    H239297   1.841   4.375   1.398  1.7392 -1.0804  0.4405
 5888TIP3   OH239298   3.056   2.306   0.166  0.1108  0.3970  0.5028
 5888TIP3    H139299   3.044   2.254   0.245  2.1523  0.6242  1.0021
 5888TIP3    H239300   3.054   2.397   0.197 -1.9970  0.6561 -0.1695
 5889TIP3   OH239301   5.657   2.368   8.374  0.3386  0.5709  0.5355
 5889TIP3    H139302   5.565   2.378   8.396  0.4147 -2.7445  3.1254
 5889TIP3    H239303   5.658   2.355   8.279 -1.8724  0.5513  0.4652
 5890TIP3   OH239304   4.105   3.697   1.941 -0.6488 -0.2026  0.5998
 5890TIP3    H139305   4.169   3.742   1.996  2.1784 -2.6586 -0.3601
 5890TIP3    H239306   4.097   3.752   1.863  2.3113 -0.8653 -0.3178
 5891TIP3   OH239307   1.829   2.606   2.187  0.7094  0.5589 -0.2093
 5891TIP3    H139308   1.752   2.552   2.200 -0.5974  2.1060 -1.2333
 5891TIP3    H239309   1.821   2.676   2.252  1.9704  0.0221  0.5745
 5892TIP3   OH239310   5.233   5.823   2.121  0.0313  0.2348 -0.5088
 5892TIP3    H139311   5.309   5.851   2.172 -0.3715  0.2910  0.0718
 5892TIP3    H239312   5.175   5.899   2.120  0.2947  0.4247 -1.5551
 5893TIP3   OH239313   2.755   5.261   2.453 -0.7884 -0.0133  0.3113
 5893TIP3    H139314   2.810   5.265   2.532  0.8733 -3.1012 -0.5178
 5893TIP3    H239315   2.789   5.330   2.397  1.3649 -0.8986  0.4331
 5894TIP3   OH239316   0.712   3.566   2.976  0.0566  0.6320  0.3233
 5894TIP3    H139317   0.766   3.509   2.921 -0.3033 -0.0650  0.6725
 5894TIP3    H239318   0.774   3.606   3.037  0.1615 -0.3578  0.8908
 5895TIP3   OH239319   3.447   5.129   9.197  0.0507 -0.0072  0.0346
 5895TIP3    H139320   3.418   5.213   9.162 -0.3341  0.2681  0.9704
 5895TIP3    H239321   3.542   5.132   9.194  0.0339  0.3677 -0.1397
 5896TIP3   OH239322   3.534   0.650   7.758 -0.0851 -0.1810 -0.5164
 5896TIP3    H139323   3.500   0.638   7.846  0.6283 -1.4093 -0.3816
 5896TIP3    H239324   3.625   0.678   7.771 -0.5028  1.4106 -0.8691
 5897TIP3   OH239325   0.865   5.935   0.740 -0.4445 -0.1861 -0.3600
 5897TIP3    H139326   0.845   6.021   0.703  0.7542 -0.0045 -0.6452
 5897TIP3    H239327   0.911   5.889   0.671  1.5989  0.0623  0.7419
 5898TIP3   OH239328   2.817   3.811   2.318 -0.9725 -0.0039 -0.0634
 5898TIP3    H139329   2.824   3.843   2.408  0.9747  0.6723 -0.4118
 5898TIP3    H239330   2.746   3.747   2.321  0.9086 -2.2149  2.6289
 5899TIP3   OH239331   6.006   0.986   7.922 -0.3696 -0.7098  0.3256
 5899TIP3    H139332   5.952   0.961   7.997 -0.6568 -1.8563 -0.2452
 5899TIP3    H239333   6.059   0.908   7.904  1.5882  0.4086  0.9419
 5900TIP3   OH239334   4.234   5.221   8.900  0.2962 -0.6300 -0.7265
 5900TIP3    H139335   4.312   5.273   8.880 -0.9064  1.0744 -1.2099
 5900TIP3    H239336   4.257   5.132   8.874  2.1866 -0.2390 -0.5453
 5901TIP3   OH239337   4.666   2.947   0.738  0.3184 -0.0378  0.1108
 5901TIP3    H139338   4.619   2.998   0.804 -0.4216 -0.6243  0.0403
 5901TIP3    H239339   4.609   2.949   0.661 -0.2895 -1.9474  0.4700
 5902TIP3   OH239340   5.358   2.466   0.211  0.4013 -0.2617  0.8247
 5902TIP3    H139341   5.338   2.530   0.143  3.1229  0.6008  0.7039
 5902TIP3    H239342   5.313   2.386   0.183 -0.4850  0.7363 -0.7034
 5903TIP3   OH239343   2.803   1.585   7.797 -0.2768  0.0866 -0.0159
 5903TIP3    H139344   2.744   1.513   7.773 -1.1716  0.8654 -0.1900
 5903TIP3    H239345   2.797   1.646   7.724 -0.3758  0.8632  0.6321
 5904TIP3   OH239346   5.179   2.539   0.685 -0.6611  0.1959  0.1293
 5904TIP3    H139347   5.092   2.528   0.722 -1.3754  1.3825 -1.0964
 5904TIP3    H239348   5.234   2.564   0.759 -1.9836  2.2849  0.4857
 5905TIP3   OH239349   3.023   1.521   0.428  0.1762 -0.3506 -0.0500
 5905TIP3    H139350   2.948   1.469   0.400 -0.1118  0.1620 -0.2484
 5905TIP3    H239351   2.987   1.585   0.489  0.2867  0.4815 -0.8400
 5906TIP3   OH239352   0.610   5.991   0.613  0.2630  0.3945  0.0414
 5906TIP3    H139353   0.594   6.043   0.691  1.1037 -0.4701  0.8046
 5906TIP3    H239354   0.700   5.959   0.622  1.5095  2.6314 -2.6596
 5907TIP3   OH239355   1.200   6.320   0.875  0.2747  0.2991 -0.0294
 5907TIP3    H139356   1.123   6.292   0.825  1.1132 -2.3178 -0.0042
 5907TIP3    H239357   1.175   6.308   0.966  0.3617  0.4937  0.0215
 5908TIP3   OH239358   2.715   1.692   7.327  0.0900 -0.1700 -0.5310
 5908TIP3    H139359   2.655   1.684   7.253  0.2784 -2.9866 -0.4675
 5908TIP3    H239360   2.668   1.746   7.390 -2.0324 -1.5343 -0.8567
 5909TIP3   OH239361   0.349   4.716   0.744  0.6219  0.2038 -0.5431
 5909TIP3    H139362   0.261   4.750   0.758  0.2354 -0.8710 -0.2111
 5909TIP3    H239363   0.358   4.711   0.649  0.0927 -0.2041 -0.5810
 5910TIP3   OH239364   5.478   6.331   0.821  0.4983 -0.0642 -0.5713
 5910TIP3    H139365   5.445   6.370   0.740 -0.0096  2.3441  0.7155
 5910TIP3    H239366   5.426   6.370   0.890  0.0443 -3.0323  0.9179
 5911TIP3   OH239367   1.378   1.019   7.625  0.2336 -1.2406  0.2772
 5911TIP3    H139368   1.292   1.023   7.585 -0.9270 -3.4331  2.3387
 5911TIP3    H239369   1.433   0.973   7.562 -0.8678 -2.3325  0.0993
 5912TIP3   OH239370   4.665   1.513   8.083  0.0082 -0.0970 -0.4431
 5912TIP3    H139371   4.580   1.556   8.093  0.4800  1.1655 -1.4751
 5912TIP3    H239372   4.647   1.432   8.036 -0.7531 -0.4001  0.3558
 5913TIP3   OH239373   6.247   4.240   1.701 -0.2492 -0.4077 -0.1741
 5913TIP3    H139374   6.251   4.153   1.739 -2.6972 -1.0840 -1.2924
 5913TIP3    H239375   6.269   4.227   1.609  0.4285  0.3569 -0.1334
 5914TIP3   OH239376   4.629   2.076   1.773  0.0051 -0.0932  0.2744
 5914TIP3    H139377   4.550   2.124   1.748  1.5579  3.2005  1.2340
 5914TIP3    H239378   4.599   2.015   1.841 -1.7308  1.1954  0.7389
 5915TIP3   OH239379   2.266   3.124   2.317 -0.3857  0.2010  0.3740
 5915TIP3    H139380   2.256   3.033   2.290 -0.3352  0.9370 -2.4390
 5915TIP3    H239381   2.178   3.161   2.310 -0.3764  0.4554  1.3426
 5916TIP3   OH239382   5.393   3.913   0.918 -0.2058 -0.3628  0.3163
 5916TIP3    H139383   5.447   3.985   0.887 -0.9891  0.3038  0.4736
 5916TIP3    H239384   5.337   3.890   0.844 -0.3522 -0.4334  0.4461
 5917TIP3   OH239385   2.584   1.672   0.321  0.1656  0.0855  0.1254
 5917TIP3    H139386   2.518   1.740   0.303  0.0330 -0.0150  0.2351
 5917TIP3    H239387   2.570   1.648   0.413  1.6146  1.4510  0.7550
 5918TIP3   OH239388   2.735   1.895   2.329 -0.0877 -0.1034  0.2317
 5918TIP3    H139389   2.652   1.942   2.319  0.1502  0.4085  0.5962
 5918TIP3    H239390   2.732   1.861   2.419  0.1547  0.0397  0.2966
 5919TIP3   OH239391   6.011   4.856   1.620  0.6409  0.2478  0.5236
 5919TIP3    H139392   6.045   4.869   1.709  1.8981 -1.6097  0.3588
 5919TIP3    H239393   6.057   4.921   1.567  2.8324 -1.1679  0.5920
 5920TIP3   OH239394   2.497   2.576   9.105  0.3559  0.0931  0.3764
 5920TIP3    H139395   2.523   2.563   9.013  0.9520  2.0843  0.2148
 5920TIP3    H239396   2.571   2.622   9.144 -0.0242 -0.4620  1.8007
 5921TIP3   OH239397   6.642   0.547   1.095  0.3303 -0.4211  0.3589
 5921TIP3    H139398   6.694   0.545   1.175  1.2153  2.3859 -0.0404
 5921TIP3    H239399   6.592   0.629   1.101 -0.5120 -0.7485 -1.4187
 5922TIP3   OH239400   5.455   4.494   1.762 -0.1003  0.7738  0.2557
 5922TIP3    H139401   5.534   4.440   1.766  0.0246  0.9394  0.0901
 5922TIP3    H239402   5.393   4.451   1.820  0.3901  1.0885  1.0338
 5923TIP3   OH239403   4.637   0.766   7.460  0.1006  0.0762 -0.2088
 5923TIP3    H139404   4.567   0.787   7.399 -0.1459 -0.9297 -0.2930
 5923TIP3    H239405   4.696   0.708   7.411  1.6189  1.7831 -0.5039
 5924TIP3   OH239406   4.510   0.398   7.234  0.1786  0.6109  0.5214
 5924TIP3    H139407   4.575   0.469   7.237 -0.5841  1.3025  1.9432
 5924TIP3    H239408   4.544   0.338   7.168  1.7570  1.4359  0.5090
 5925TIP3   OH239409   3.811   5.225   3.232 -0.1553 -0.2794 -0.1286
 5925TIP3    H139410   3.899   5.231   3.195 -0.5434  0.6292 -0.9710
 5925TIP3    H239411   3.778   5.141   3.202  0.0660 -0.1789 -0.6727
 5926TIP3   OH239412   1.795   3.707   0.862 -0.3803  0.5730  0.2200
 5926TIP3    H139413   1.816   3.615   0.872  2.3402  1.1137  0.2072
 5926TIP3    H239414   1.791   3.741   0.952 -2.0825  0.3504  0.2578
 5927TIP3   OH239415   4.425   1.102   2.211 -0.6230 -0.2390  0.0266
 5927TIP3    H139416   4.502   1.125   2.160 -0.2243  0.8148  1.0728
 5927TIP3    H239417   4.351   1.136   2.161 -0.2028  1.2160  0.3535
 5928TIP3   OH239418   5.780   5.188   1.091  0.1156 -0.4165  0.1903
 5928TIP3    H139419   5.864   5.158   1.057 -0.4844 -0.3695 -1.4552
 5928TIP3    H239420   5.759   5.264   1.038 -1.2300 -0.7781  0.1644
 5929TIP3   OH239421   5.082   3.156   7.679 -0.5722  0.4394 -0.2133
 5929TIP3    H139422   5.142   3.096   7.635 -2.0192 -1.2170 -0.0442
 5929TIP3    H239423   5.129   3.184   7.757  0.5482  0.4061 -0.8481
 5930TIP3   OH239424   3.636   0.323   1.674  0.3056 -0.2616 -0.1349
 5930TIP3    H139425   3.687   0.258   1.723 -2.2232 -1.1444  1.5642
 5930TIP3    H239426   3.555   0.331   1.724 -1.3179  0.8899 -2.7807
 5931TIP3   OH239427   6.151   4.476   1.164  0.3354 -0.3554 -0.1548
 5931TIP3    H139428   6.183   4.506   1.079 -0.2351  0.3036 -0.1416
 5931TIP3    H239429   6.122   4.555   1.209  1.0123 -0.6398  0.8334
 5932TIP3   OH239430   4.317   1.203   8.099  0.2891  0.0848 -0.1634
 5932TIP3    H139431   4.381   1.248   8.154 -0.0396 -0.8130  1.0000
 5932TIP3    H239432   4.232   1.236   8.131  0.0894 -0.6064  0.0367
 5933TIP3   OH239433   0.443   3.508   0.312 -0.1113 -0.1465 -0.0703
 5933TIP3    H139434   0.464   3.439   0.248  0.3795 -1.1187  1.1021
 5933TIP3    H239435   0.413   3.582   0.258  0.3819 -0.8914 -1.4259
 5934TIP3   OH239436   6.680   2.266   7.771  0.5453  0.1969  0.7309
 5934TIP3    H139437   6.637   2.185   7.797  0.7412  0.2819  1.3173
 5934TIP3    H239438   6.762   2.238   7.730  2.0686  0.1472  3.5568
 5935TIP3   OH239439   0.781   4.015   8.359  0.5355 -0.7078  0.1185
 5935TIP3    H139440   0.703   4.030   8.306  1.2910 -0.9156 -1.1065
 5935TIP3    H239441   0.771   4.072   8.435 -0.0962  0.3787 -0.7607
 5936TIP3   OH239442   0.735   3.030   0.568  0.0932  0.2229 -0.8375
 5936TIP3    H139443   0.749   2.941   0.538  2.9561  0.0021  0.7305
 5936TIP3    H239444   0.675   3.021   0.643  0.6626 -0.4731 -0.4476
 5937TIP3   OH239445   1.262   5.674   7.851  0.4115  0.5852 -0.0480
 5937TIP3    H139446   1.281   5.710   7.938  0.5845 -0.3957  0.3284
 5937TIP3    H239447   1.197   5.606   7.866 -0.5951  1.3451 -0.8704
 5938TIP3   OH239448   5.154   2.741   1.685  0.2379 -0.0841 -0.0038
 5938TIP3    H139449   5.068   2.782   1.681  0.7404  1.0435 -3.9368
 5938TIP3    H239450   5.198   2.782   1.759 -2.0719  0.3589  1.1862
 5939TIP3   OH239451   1.836   0.961   8.040 -0.1047  0.2668  0.2102
 5939TIP3    H139452   1.826   1.030   8.105  3.1640  0.5987  0.4969
 5939TIP3    H239453   1.888   1.001   7.971  0.2109 -1.3755 -0.5354
 5940TIP3   OH239454   3.791   4.939   7.636  0.1470  0.2349 -0.1561
 5940TIP3    H139455   3.775   5.012   7.576  1.8623 -0.4706 -1.5882
 5940TIP3    H239456   3.839   4.978   7.709  1.0364  0.5670 -0.9021
 5941TIP3   OH239457   6.551   3.882   1.755  0.0007 -0.4675  0.3063
 5941TIP3    H139458   6.611   3.820   1.713  0.8655  0.1111  0.6545
 5941TIP3    H239459   6.474   3.830   1.778  0.7265 -1.4161  0.6333
 5942TIP3   OH239460   0.059   4.173   2.094  0.0282 -0.1231  0.7826
 5942TIP3    H139461   0.082   4.208   2.008  0.0388  1.2598  1.3204
 5942TIP3    H239462  -0.015   4.115   2.078 -0.4811  0.7313 -0.0718
 5943TIP3   OH239463   1.961   4.731   2.566  0.0741  0.3454 -0.0069
 5943TIP3    H139464   1.934   4.790   2.495  1.7452  0.1195 -0.9048
 5943TIP3    H239465   1.950   4.643   2.529 -0.7449  0.1494  0.6856
 5944TIP3   OH239466   2.440   4.948   7.585 -0.0910 -0.0132  0.2122
 5944TIP3    H139467   2.452   5.043   7.580  0.2714 -0.1250 -1.9735
 5944TIP3    H239468   2.497   4.921   7.657  1.2180  1.2417 -0.3023
 5945TIP3   OH239469   2.227   3.505   0.512  0.1118 -0.3056  0.2093
 5945TIP3    H139470   2.253   3.591   0.545  0.5682 -0.7168  0.9215
 5945TIP3    H239471   2.260   3.442   0.576 -1.2892 -0.9443  0.3453
 5946TIP3   OH239472   6.090   2.526   0.485 -0.2400  0.0287 -0.0688
 5946TIP3    H139473   6.085   2.605   0.430  1.0184 -0.2401 -0.5898
 5946TIP3    H239474   6.045   2.551   0.566  0.5833  1.4726 -0.0222
 5947TIP3   OH239475   1.067   0.141   2.994 -0.1960  0.1648 -0.0893
 5947TIP3    H139476   1.003   0.203   3.029  0.1461  1.0880 -1.0493
 5947TIP3    H239477   1.014   0.069   2.960 -0.8334  1.3589 -1.7467
 5948TIP3   OH239478   3.956   6.284   8.764  0.2806 -0.0774  0.2355
 5948TIP3    H139479   4.010   6.362   8.753 -1.1787  1.2980  2.1844
 5948TIP3    H239480   3.867   6.317   8.777 -1.3310 -2.2374 -3.4856
 5949TIP3   OH239481   2.713   3.467   7.739 -0.4050  0.2461 -0.0978
 5949TIP3    H139482   2.717   3.424   7.654  0.0064  2.4921 -1.2937
 5949TIP3    H239483   2.629   3.440   7.776  0.0774 -1.9702 -0.5021
 5950TIP3   OH239484   1.784   0.263   8.145  0.7729  0.3053 -0.6217
 5950TIP3    H139485   1.709   0.321   8.155 -0.8999 -1.4524 -2.0709
 5950TIP3    H239486   1.838   0.305   8.079 -0.1450  0.4949 -1.2759
 5951TIP3   OH239487   0.075   0.399   2.817  0.2811  0.0657  0.4122
 5951TIP3    H139488   0.155   0.354   2.846 -0.5199 -0.7418  1.4089
 5951TIP3    H239489   0.006   0.366   2.875 -1.0544 -0.2776 -1.2970
 5952TIP3   OH239490   3.675   6.495   2.307  0.2338 -0.2649 -0.2868
 5952TIP3    H139491   3.615   6.533   2.372  0.0588 -1.1778  0.0899
 5952TIP3    H239492   3.618   6.448   2.246  0.4175  0.3840 -0.9908
 5953TIP3   OH239493   2.017   2.694   8.507  0.0869 -0.6905  0.7870
 5953TIP3    H139494   1.940   2.680   8.561 -1.3708  1.0722 -0.6698
 5953TIP3    H239495   1.983   2.739   8.429  2.7285  1.1066  0.5541
 5954TIP3   OH239496   2.342   4.837   8.500  0.1411  0.3472 -0.0993
 5954TIP3    H139497   2.400   4.910   8.479  0.9009 -0.3425 -0.4480
 5954TIP3    H239498   2.276   4.838   8.431 -0.5151  1.3863  0.5254
 5955TIP3   OH239499   4.126   1.556   1.932  0.2625 -0.5957 -0.0490
 5955TIP3    H139500   4.146   1.648   1.950 -0.4671  0.2780 -3.1317
 5955TIP3    H239501   4.205   1.523   1.890 -0.5436 -0.4149 -1.7955
 5956TIP3   OH239502   1.740   5.433   0.991  0.1892 -0.3452  0.1894
 5956TIP3    H139503   1.662   5.384   1.016 -1.2496  1.2977 -0.8197
 5956TIP3    H239504   1.722   5.523   1.020  0.5405  0.6167 -2.3167
 5957TIP3   OH239505   3.533   4.778   1.548  0.3654 -0.0044  0.1863
 5957TIP3    H139506   3.511   4.742   1.462  1.2252 -2.8421  1.0473
 5957TIP3    H239507   3.450   4.812   1.581 -0.5283 -1.1755 -0.7528
 5958TIP3   OH239508   0.069   0.354   8.269 -0.4420 -0.3731  0.1671
 5958TIP3    H139509   0.116   0.297   8.330 -1.1846  1.6733  2.8138
 5958TIP3    H239510  -0.021   0.319   8.269  0.1055 -2.0703 -2.0946
 5959TIP3   OH239511   5.974   6.547   0.087 -0.3948 -0.4094 -0.6920
 5959TIP3    H139512   6.033   6.510   0.022 -2.4520 -0.4261 -2.6499
 5959TIP3    H239513   5.892   6.563   0.040 -2.0772 -0.6146  1.9283
 5960TIP3   OH239514   3.489   3.567   2.716 -0.5016  0.1367 -0.1088
 5960TIP3    H139515   3.538   3.649   2.707  1.0037 -0.8268 -1.0928
 5960TIP3    H239516   3.398   3.592   2.702  0.0345  1.4927 -1.4458
 5961TIP3   OH239517   0.680   2.011   1.774  0.3723 -0.0312  0.5663
 5961TIP3    H139518   0.734   1.970   1.842 -0.0830  0.8534  1.5048
 5961TIP3    H239519   0.742   2.045   1.711  0.8584 -0.0737  1.0126
 5962TIP3   OH239520   6.422   0.089   0.848  0.2990  0.0048  0.2555
 5962TIP3    H139521   6.424  -0.004   0.824  1.5346  0.4760 -1.6532
 5962TIP3    H239522   6.483   0.096   0.922  1.3187 -0.4934 -0.5163
 5963TIP3   OH239523   2.093   1.018   8.330  0.2989  0.1008 -0.1596
 5963TIP3    H139524   2.078   0.961   8.254  0.4259 -0.9483  0.5744
 5963TIP3    H239525   2.043   0.976   8.400  1.3811  0.2165  0.6993
 5964TIP3   OH239526   0.963   3.255   2.149  0.1615 -0.1762 -0.2700
 5964TIP3    H139527   1.000   3.195   2.084 -0.8598 -0.1418 -0.9029
 5964TIP3    H239528   0.961   3.203   2.230  0.5646 -0.5282 -0.4792
 5965TIP3   OH239529   2.351   5.602   7.619  0.3170  0.3339  0.1675
 5965TIP3    H139530   2.434   5.642   7.592 -0.8700  1.1506 -2.7028
 5965TIP3    H239531   2.356   5.512   7.586  0.1443  0.3279  0.1583
 5966TIP3   OH239532   5.456   6.302   7.511  0.4889 -0.1260  0.8381
 5966TIP3    H139533   5.501   6.274   7.431 -0.8055  1.1349 -0.3903
 5966TIP3    H239534   5.458   6.398   7.507 -0.9877 -0.0473  1.4984
 5967TIP3   OH239535   1.122   6.048   7.325  0.4571 -0.8285 -0.4454
 5967TIP3    H139536   1.105   5.957   7.351 -0.5763 -0.3809  0.5467
 5967TIP3    H239537   1.160   6.088   7.403 -1.5967  0.2487  0.0837
 5968TIP3   OH239538   5.104   0.980   9.096  0.5890  0.5383  0.1881
 5968TIP3    H139539   5.126   0.906   9.039  0.5227  0.5159  0.1921
 5968TIP3    H239540   5.080   0.940   9.179  1.6427  0.6117  0.5444
 5969TIP3   OH239541   1.656   5.926   7.987  0.6363  0.2076 -0.8735
 5969TIP3    H139542   1.650   5.834   8.014 -1.5001  0.8042  0.8884
 5969TIP3    H239543   1.741   5.955   8.021  0.9069 -0.8422 -0.6077
 5970TIP3   OH239544   6.504   3.124   1.445  0.0946 -0.3575  0.4268
 5970TIP3    H139545   6.437   3.069   1.407 -0.4806  1.2101 -0.9504
 5970TIP3    H239546   6.532   3.182   1.373  0.7333  1.0637  1.7509
 5971TIP3   OH239547   0.615   2.396   1.246 -0.2568  0.1980  0.8673
 5971TIP3    H139548   0.686   2.419   1.305 -0.6133  1.8149  0.7031
 5971TIP3    H239549   0.648   2.417   1.159 -0.8798  0.8103  0.7769
 5972TIP3   OH239550   4.093   3.662   6.919  0.6601  0.5573  0.6635
 5972TIP3    H139551   4.034   3.705   6.857  2.0650 -0.1147 -1.2515
 5972TIP3    H239552   4.036   3.613   6.977 -0.7421  1.5743  0.1961
 5973TIP3   OH239553   0.095   3.052   0.727  0.0848  0.3646  0.4531
 5973TIP3    H139554   0.061   3.119   0.786 -1.3699 -1.6004  1.9509
 5973TIP3    H239555   0.019   3.000   0.702  1.3421 -1.5733  0.4372
 5974TIP3   OH239556   1.945   3.474   1.114 -0.5142 -0.3019 -0.5008
 5974TIP3    H139557   1.853   3.485   1.089  0.0853  0.1551 -2.6770
 5974TIP3    H239558   1.974   3.396   1.068  0.3468 -0.1322 -0.2685
 5975TIP3   OH239559   6.094   3.174   3.060 -0.3217  0.4408 -0.1685
 5975TIP3    H139560   6.105   3.254   3.112 -0.5433 -0.0120  0.5931
 5975TIP3    H239561   6.004   3.178   3.028 -0.3030  0.5437 -0.2089
 5976TIP3   OH239562   1.917   2.531   1.018  0.1529 -0.2584  0.5184
 5976TIP3    H139563   1.989   2.473   1.044  0.0869 -1.1722 -1.2374
 5976TIP3    H239564   1.952   2.620   1.032  0.2601 -0.6344  3.2293
 5977TIP3   OH239565   0.545   1.811   2.456 -0.0941 -0.3317  0.9262
 5977TIP3    H139566   0.456   1.846   2.449 -0.1821 -0.9067 -2.3646
 5977TIP3    H239567   0.600   1.879   2.418  0.6160 -0.8547  1.0105
 5978TIP3   OH239568   0.874   3.829   8.895  0.1407  0.5081  0.0770
 5978TIP3    H139569   0.957   3.854   8.855 -0.5800  1.7941 -0.7106
 5978TIP3    H239570   0.873   3.873   8.980  0.5256 -0.0295  0.3646
 5979TIP3   OH239571   1.051   1.071   7.744 -0.1314 -0.3639  0.0322
 5979TIP3    H139572   0.957   1.051   7.742 -0.0359 -0.7192 -1.0494
 5979TIP3    H239573   1.075   1.086   7.653  0.5632  1.1907  0.4373
 5980TIP3   OH239574   4.590   5.796   0.719  0.5387  0.3866 -0.9807
 5980TIP3    H139575   4.571   5.780   0.627  1.9262  3.6387 -1.9928
 5980TIP3    H239576   4.517   5.851   0.749 -0.1621 -1.0563  0.0645
 5981TIP3   OH239577   3.837   0.568   1.709  0.3279  0.0431 -0.1497
 5981TIP3    H139578   3.892   0.492   1.731 -1.3056 -0.8722  1.0288
 5981TIP3    H239579   3.786   0.584   1.788 -2.0368 -0.0141 -1.5657
 5982TIP3   OH239580   2.309   1.636   8.013  0.4366  0.3943  0.7524
 5982TIP3    H139581   2.255   1.562   8.043 -0.3026  0.9208  0.7328
 5982TIP3    H239582   2.247   1.700   7.979  0.9667  1.6060  1.9882
 5983TIP3   OH239583   5.182   4.810   8.739 -0.2624  0.2197  0.1779
 5983TIP3    H139584   5.238   4.747   8.694 -0.8204 -0.0898 -0.0968
 5983TIP3    H239585   5.201   4.894   8.696 -2.1706 -0.3715 -2.0078
 5984TIP3   OH239586   3.337   2.147   1.014 -0.1567  0.0095  0.4335
 5984TIP3    H139587   3.334   2.063   1.059  0.2810  0.6540  1.6981
 5984TIP3    H239588   3.388   2.130   0.935  0.8102 -0.6814  1.1926
 5985TIP3   OH239589   5.846   3.760   1.292 -0.5869  0.1519 -0.8247
 5985TIP3    H139590   5.875   3.761   1.200 -1.9406  0.2338 -1.2674
 5985TIP3    H239591   5.836   3.667   1.313  0.9531  0.0616 -0.3240
 5986TIP3   OH239592   5.824   4.814   2.721  0.3006 -0.0392 -0.3753
 5986TIP3    H139593   5.878   4.848   2.650 -0.0276 -1.7365 -1.5016
 5986TIP3    H239594   5.854   4.723   2.733 -0.7813 -0.3024  0.5137
 5987TIP3   OH239595   3.165   0.064   8.613  0.0547  0.0297  0.1102
 5987TIP3    H139596   3.187  -0.029   8.609 -0.9574 -0.2989  1.3787
 5987TIP3    H239597   3.244   0.106   8.647  0.0992 -0.5513  0.7472
 5988TIP3   OH239598   3.486   6.064   1.779 -0.3751  0.2739  0.0454
 5988TIP3    H139599   3.480   5.969   1.766  0.4482  0.3018 -0.5761
 5988TIP3    H239600   3.407   6.086   1.830  0.6776 -1.1229  2.4225
 5989TIP3   OH239601   4.247   1.074   0.137  0.1135  0.5048 -0.3798
 5989TIP3    H139602   4.341   1.060   0.137  0.0083 -0.3296 -1.1244
 5989TIP3    H239603   4.215   1.022   0.063 -1.2858 -1.8705  1.6957
 5990TIP3   OH239604   2.360   6.118   8.678  0.3109 -0.0541 -0.2173
 5990TIP3    H139605   2.297   6.190   8.682  0.6150  0.1935  0.2698
 5990TIP3    H239606   2.444   6.159   8.701  0.7014 -0.3191 -1.1346
 5991TIP3   OH239607   2.603   3.686   2.441  0.0436 -0.3264 -0.2859
 5991TIP3    H139608   2.602   3.605   2.492 -0.2875 -0.3975 -0.4033
 5991TIP3    H239609   2.621   3.755   2.506  0.2517 -0.4833 -0.1747
 5992TIP3   OH239610   2.044   2.608   7.480  0.2869  0.4137  0.2580
 5992TIP3    H139611   1.949   2.602   7.490  0.3005  0.3947  0.3747
 5992TIP3    H239612   2.061   2.701   7.466  0.4117  0.6784  1.9249
 5993TIP3   OH239613   5.322   3.186   8.821  0.0227 -0.3701  0.2701
 5993TIP3    H139614   5.294   3.101   8.855  0.6907 -0.9068 -0.4809
 5993TIP3    H239615   5.411   3.171   8.789  0.5340  0.8686  1.0416
 5994TIP3   OH239616   5.827   1.975   8.102 -0.0012 -0.2076 -0.1719
 5994TIP3    H139617   5.885   2.000   8.173 -1.2933 -0.6076  1.0789
 5994TIP3    H239618   5.805   1.883   8.120 -2.5622  0.4658  0.5829
 5995TIP3   OH239619   1.945   0.209   8.827  0.2004 -0.3704  0.7300
 5995TIP3    H139620   1.905   0.271   8.888 -0.4643  1.2986 -1.2776
 5995TIP3    H239621   1.980   0.139   8.883  0.7210  1.6463  3.1039
 5996TIP3   OH239622   1.020   3.032   7.768 -0.1058  0.4613  0.0216
 5996TIP3    H139623   1.006   2.979   7.689 -0.0309 -0.6442  0.7329
 5996TIP3    H239624   1.072   3.106   7.737  0.6224 -0.3699 -0.8324
 5997TIP3   OH239625   5.621   4.690   7.475  0.7768  0.7167 -0.3462
 5997TIP3    H139626   5.606   4.601   7.443  1.3056  0.4443  0.1453
 5997TIP3    H239627   5.564   4.745   7.420  0.6953  0.1206 -0.8759
 5998TIP3   OH239628   4.468   3.149   7.640  0.1557  0.3164  0.2924
 5998TIP3    H139629   4.560   3.124   7.639 -0.2569 -1.4176  1.1634
 5998TIP3    H239630   4.456   3.193   7.724 -0.0536 -0.6539  0.7959
 5999TIP3   OH239631   0.375   1.755   1.059  0.1395 -0.1706 -0.1693
 5999TIP3    H139632   0.292   1.708   1.068  0.6986 -0.9659  1.3576
 5999TIP3    H239633   0.375   1.789   0.970 -2.5751  1.3200  0.2984
 6000TIP3   OH239634   5.478   3.597   8.275  0.9454  0.1191 -0.2569
 6000TIP3    H139635   5.463   3.674   8.331  2.3894 -0.0280  0.3628
 6000TIP3    H239636   5.498   3.634   8.189  0.8451  0.4043 -0.1604
 6001TIP3   OH239637   1.036   4.346   8.365  0.5559 -0.5109 -0.5227
 6001TIP3    H139638   1.120   4.380   8.333 -0.3664  0.6043 -1.8409
 6001TIP3    H239639   0.992   4.422   8.404 -0.5636 -0.6770 -1.4216
 6002TIP3   OH239640   4.538   3.666   0.922  0.3512  0.0699 -0.0795
 6002TIP3    H139641   4.503   3.747   0.884 -0.0579 -0.0433  0.0450
 6002TIP3    H239642   4.540   3.604   0.849 -1.0924 -0.3583  0.1971
 6003TIP3   OH239643   4.138   4.166   1.407 -0.0989 -0.0031 -0.0792
 6003TIP3    H139644   4.156   4.195   1.496  0.6064 -1.2989  0.2431
 6003TIP3    H239645   4.044   4.178   1.396 -0.2298  0.0121  0.9163
 6004TIP3   OH239646   3.701   6.252   0.238  0.0853  0.8777 -0.4500
 6004TIP3    H139647   3.606   6.250   0.234 -0.0337  0.6671  1.5052
 6004TIP3    H239648   3.727   6.160   0.241  0.1860  0.9175  0.9270
 6005TIP3   OH239649   6.202   6.254   0.994  0.1146  0.0645  0.4315
 6005TIP3    H139650   6.198   6.349   0.991  0.1836  0.1357  1.9924
 6005TIP3    H239651   6.132   6.228   1.053  0.4362 -0.8195  0.4438
 6006TIP3   OH239652   1.556   6.204   0.990  0.1909  0.3848 -0.1584
 6006TIP3    H139653   1.637   6.201   0.940  0.2527 -0.3084 -0.0337
 6006TIP3    H239654   1.486   6.195   0.924  0.2778 -0.7539 -0.1250
 6007TIP3   OH239655   2.152   2.660   0.579 -0.1602  0.1153 -0.6472
 6007TIP3    H139656   2.247   2.659   0.587 -0.0101 -0.1809 -2.1802
 6007TIP3    H239657   2.121   2.707   0.657  1.3685  2.3128 -1.2662
 6008TIP3   OH239658   4.657   3.164   1.499  0.1045 -0.2298 -0.0415
 6008TIP3    H139659   4.665   3.259   1.498 -0.3370 -0.1783  0.7017
 6008TIP3    H239660   4.682   3.137   1.411  0.8215  0.5242 -0.0784
 6009TIP3   OH239661   0.258   5.972   1.430  0.0741  0.3046  0.1556
 6009TIP3    H139662   0.219   6.039   1.374 -0.5916 -0.4195 -0.2708
 6009TIP3    H239663   0.317   6.020   1.488 -1.6034  1.4898  0.9542
 6010TIP3   OH239664   5.924   5.294   8.311 -0.0716  0.5071 -0.0983
 6010TIP3    H139665   5.875   5.372   8.286 -1.4195 -0.1160  0.4794
 6010TIP3    H239666   5.971   5.269   8.231 -0.8351  1.0332 -0.7294
 6011TIP3   OH239667   1.109   5.744   0.765 -0.1912  0.4875 -0.3875
 6011TIP3    H139668   1.035   5.684   0.779  1.1602 -1.0695  0.4163
 6011TIP3    H239669   1.134   5.730   0.673  1.0703 -1.4148  0.1797
 6012TIP3   OH239670   4.184   6.118   1.973 -0.1666 -0.1421 -0.1809
 6012TIP3    H139671   4.098   6.135   1.933 -0.0605  1.2029  0.1298
 6012TIP3    H239672   4.228   6.060   1.911  0.4375  2.7589 -2.6868
 6013TIP3   OH239673   0.916   1.463   1.657  0.4578  0.7446  0.2142
 6013TIP3    H139674   0.901   1.548   1.615 -1.6692  0.8237  1.0182
 6013TIP3    H239675   0.843   1.409   1.628  1.8287 -0.9090 -0.3683
 6014TIP3   OH239676   0.819   0.265   1.304  0.3289 -0.7666  0.0291
 6014TIP3    H139677   0.842   0.302   1.219 -1.1838 -1.9187 -0.9572
 6014TIP3    H239678   0.837   0.171   1.294  0.0972 -0.9142  0.9558
 6015TIP3   OH239679   3.143   1.841   1.050  0.0822  0.2799  0.0104
 6015TIP3    H139680   3.220   1.819   1.102 -1.0592 -0.6842  1.3715
 6015TIP3    H239681   3.092   1.899   1.106 -1.1932 -0.8043  0.0045
 6016TIP3   OH239682   5.286   6.583   7.337 -0.3476  0.3239  0.0046
 6016TIP3    H139683   5.214   6.639   7.311  1.1076  2.3390  0.1100
 6016TIP3    H239684   5.287   6.513   7.271 -1.3227  1.2047 -0.9805
 6017TIP3   OH239685   3.994   4.630   2.704  0.2134  0.4688 -0.7087
 6017TIP3    H139686   4.083   4.596   2.705  0.4207  0.9930  0.8244
 6017TIP3    H239687   3.994   4.700   2.769 -1.5661 -0.1836  0.0578
 6018TIP3   OH239688   5.200   0.922   2.058  0.4147 -0.2756 -0.0831
 6018TIP3    H139689   5.190   1.017   2.047  1.0044 -0.2903 -0.8319
 6018TIP3    H239690   5.157   0.903   2.141 -0.2510  0.5524 -0.2270
 6019TIP3   OH239691   6.059   0.311   2.372  0.7094 -0.4998 -0.5662
 6019TIP3    H139692   6.058   0.244   2.440  0.5829  1.2635  1.2433
 6019TIP3    H239693   6.122   0.377   2.404 -1.7081  1.9458 -0.4982
 6020TIP3   OH239694   4.148   1.680   2.871  0.1080  0.2176  0.2690
 6020TIP3    H139695   4.235   1.677   2.911  0.3487 -0.5306 -0.2873
 6020TIP3    H239696   4.115   1.767   2.891  0.9306  0.4534  0.6164
 6021TIP3   OH239697   3.086   5.649   8.765  0.1939 -0.2047  0.1960
 6021TIP3    H139698   3.105   5.601   8.846 -0.7553  0.0046  0.5534
 6021TIP3    H239699   3.000   5.617   8.737  1.3563 -1.8024 -1.8727
 6022TIP3   OH239700   3.472   6.129   8.594 -0.3320  0.3625  0.3405
 6022TIP3    H139701   3.495   6.095   8.681  1.3521 -2.9744 -1.1905
 6022TIP3    H239702   3.378   6.112   8.586 -0.4347  0.3688  1.3889
 6023TIP3   OH239703   1.347   0.785   0.537 -0.1739 -0.4915 -0.7191
 6023TIP3    H139704   1.260   0.745   0.529  0.0958 -0.9921 -1.2043
 6023TIP3    H239705   1.378   0.759   0.624 -0.5118 -0.2912 -0.5341
 6024TIP3   OH239706   4.477   5.555   2.299 -0.0926  0.0358  0.3499
 6024TIP3    H139707   4.473   5.492   2.371 -0.8237  0.3283  0.5730
 6024TIP3    H239708   4.555   5.530   2.249 -0.6502 -1.3586  0.1450
 6025TIP3   OH239709   0.857   1.999   8.899 -0.3203  0.1840 -0.2756
 6025TIP3    H139710   0.766   2.017   8.923  0.3435  2.4393  0.8129
 6025TIP3    H239711   0.887   1.937   8.964 -0.0063  2.4481  1.9016
 6026TIP3   OH239712   3.188   4.236   8.321  0.6979 -0.0156 -0.0924
 6026TIP3    H139713   3.142   4.312   8.358  0.6502  0.0047 -0.1924
 6026TIP3    H239714   3.119   4.185   8.278  0.8054  0.1445 -0.4599
 6027TIP3   OH239715   4.939   5.079   1.787  0.0960  0.3049 -0.5232
 6027TIP3    H139716   4.862   5.069   1.731  0.1878 -1.7643 -0.3585
 6027TIP3    H239717   5.013   5.070   1.728  0.2160  0.6437 -0.4278
 6028TIP3   OH239718   5.732   5.146   1.522 -0.2989 -0.2148  0.1820
 6028TIP3    H139719   5.822   5.159   1.552 -0.6902  0.6267  1.0222
 6028TIP3    H239720   5.730   5.054   1.493  1.1815  0.1239 -1.1692
 6029TIP3   OH239721   0.024   1.515   1.876  0.0021 -0.2972 -0.1505
 6029TIP3    H139722   0.053   1.543   1.789 -0.6468  1.1395  0.0814
 6029TIP3    H239723  -0.063   1.552   1.886  0.2813  0.0129  1.3368
 6030TIP3   OH239724   4.098   0.399   7.180 -0.1954 -0.0963 -0.2686
 6030TIP3    H139725   4.143   0.339   7.120 -1.8836 -0.2794 -1.4189
 6030TIP3    H239726   4.060   0.342   7.247 -0.5918 -0.1556 -0.5473
 6031TIP3   OH239727   2.735   5.897   8.011  0.3592  0.6084 -0.0039
 6031TIP3    H139728   2.699   5.816   7.976 -3.1391  1.9288  0.1258
 6031TIP3    H239729   2.694   5.906   8.098 -1.8379  3.8001 -1.1469
 6032TIP3   OH239730   6.244   1.489   1.785  0.7369 -0.0207 -0.1773
 6032TIP3    H139731   6.291   1.481   1.702 -0.8429 -1.5822 -0.9879
 6032TIP3    H239732   6.251   1.403   1.826 -2.4649 -0.8270 -1.0137
 6033TIP3   OH239733   2.819   4.894   7.622 -0.9187 -0.5623  0.3792
 6033TIP3    H139734   2.816   4.985   7.654  1.5785  0.8802 -2.8734
 6033TIP3    H239735   2.773   4.898   7.538 -1.2471 -2.4907  0.4420
 6034TIP3   OH239736   4.111   0.702   8.005 -0.2607 -0.0504  0.4960
 6034TIP3    H139737   4.074   0.744   8.083 -2.7917  0.4790 -0.8751
 6034TIP3    H239738   4.097   0.609   8.019  0.0758 -0.0311  1.0155
 6035TIP3   OH239739   2.456   5.282   2.355 -0.1735  0.4089  0.5233
 6035TIP3    H139740   2.538   5.298   2.401 -0.6843  1.2561  1.1726
 6035TIP3    H239741   2.483   5.267   2.264  0.7501 -0.0944  0.8648
 6036TIP3   OH239742   2.673   3.995   8.507  0.7112  0.1716 -0.9717
 6036TIP3    H139743   2.754   3.948   8.487  1.1287  0.0517  0.8295
 6036TIP3    H239744   2.667   3.993   8.603 -0.7596  1.3052 -1.0035
 6037TIP3   OH239745   3.469   5.591   1.784  0.3118 -0.3999  0.0517
 6037TIP3    H139746   3.554   5.610   1.824  0.4306 -2.5999  1.0011
 6037TIP3    H239747   3.423   5.675   1.783  2.6477  0.9499 -0.9440
 6038TIP3   OH239748   5.255   0.693   1.167  0.2526  0.2149  0.5301
 6038TIP3    H139749   5.206   0.772   1.143  0.7738  0.7853  1.2757
 6038TIP3    H239750   5.334   0.696   1.112 -1.7279 -2.1834 -2.7797
 6039TIP3   OH239751   3.777   4.615   1.780 -0.1049 -0.1278  0.1376
 6039TIP3    H139752   3.815   4.532   1.809  0.9964 -0.4401 -2.0484
 6039TIP3    H239753   3.757   4.602   1.688 -2.0410  1.3342  0.2682
 6040TIP3   OH239754   0.180   6.074   8.650 -0.7054 -0.1831 -0.4550
 6040TIP3    H139755   0.168   5.980   8.644 -2.1568  0.0409 -1.3062
 6040TIP3    H239756   0.272   6.088   8.626 -0.0906 -1.4675  0.9787
 6041TIP3   OH239757   4.983   5.384   8.746 -0.4072  1.2845  0.2389
 6041TIP3    H139758   5.017   5.318   8.806 -2.0436  0.9716  0.8745
 6041TIP3    H239759   4.889   5.385   8.762 -0.9125  1.2215 -2.3115
 6042TIP3   OH239760   5.202   1.042   8.757  0.3075 -0.1939  0.1767
 6042TIP3    H139761   5.286   1.038   8.711  0.1860 -0.2059 -0.0457
 6042TIP3    H239762   5.176   1.134   8.751 -0.2045 -0.3790 -0.6842
 6043TIP3   OH239763   4.375   3.708   0.264 -0.0858  0.0339 -0.0590
 6043TIP3    H139764   4.289   3.672   0.241 -0.2850  1.0350 -1.0198
 6043TIP3    H239765   4.369   3.728   0.357 -0.7885 -0.2003 -0.0469
 6044TIP3   OH239766   3.851   3.787   1.732 -0.3047  0.1443  0.0467
 6044TIP3    H139767   3.885   3.774   1.644  1.1295  0.6615  0.4940
 6044TIP3    H239768   3.757   3.801   1.721 -0.0891  0.5175 -1.4163
 6045TIP3   OH239769   5.603   4.619   0.067 -0.0604 -0.2639  0.1114
 6045TIP3    H139770   5.678   4.563   0.086 -1.4947 -1.7457  1.8292
 6045TIP3    H239771   5.639   4.693   0.018  3.1358  0.8007  3.5659
 6046TIP3   OH239772   3.517   0.357   0.700 -0.0414  0.2120  0.4885
 6046TIP3    H139773   3.444   0.298   0.720  0.1830 -0.3903 -0.3996
 6046TIP3    H239774   3.572   0.307   0.640  1.3197  0.5026  1.4442
 6047TIP3   OH239775   4.279   3.849   2.088  0.2947 -0.5463  0.1907
 6047TIP3    H139776   4.273   3.899   2.169  0.9006 -1.3108  0.7266
 6047TIP3    H239777   4.371   3.857   2.062  0.3622 -1.2236  0.1915
 6048TIP3   OH239778   0.193   1.422   0.970  0.0146 -0.8798  0.1121
 6048TIP3    H139779   0.129   1.356   0.996  0.2180 -0.9440  0.4503
 6048TIP3    H239780   0.277   1.388   1.001  0.3148 -1.1140 -0.9006
 6049TIP3   OH239781   0.652   5.281   2.441 -0.0530  0.2748 -0.0028
 6049TIP3    H139782   0.692   5.254   2.523  0.3899 -2.5107 -1.0197
 6049TIP3    H239783   0.620   5.370   2.457  0.9126  0.1908  2.8158
 6050TIP3   OH239784   1.640   6.542   1.787 -0.2128  0.1689 -0.2483
 6050TIP3    H139785   1.572   6.508   1.845 -0.8721  0.4143 -0.8633
 6050TIP3    H239786   1.669   6.465   1.738  0.7118 -0.1423  0.7423
 6051TIP3   OH239787   5.675   2.533   0.692 -0.0273  0.6325 -0.4790
 6051TIP3    H139788   5.731   2.551   0.768 -0.6805  0.2982  0.0973
 6051TIP3    H239789   5.638   2.447   0.710  1.0452 -0.1591 -1.9608
 6052TIP3   OH239790   5.478   4.670   8.510  0.0477 -0.0342  0.0114
 6052TIP3    H139791   5.553   4.665   8.451  0.7656 -0.8372  0.9532
 6052TIP3    H239792   5.514   4.706   8.591 -0.5746 -0.4462  0.4801
 6053TIP3   OH239793   1.979   1.803   0.864 -0.1865  0.4358  0.2526
 6053TIP3    H139794   2.005   1.712   0.877  1.1475  0.6480 -0.6621
 6053TIP3    H239795   1.952   1.833   0.951 -0.4367 -0.7583  0.6023
 6054TIP3   OH239796   6.253   0.476   0.931 -0.1077  0.0486 -0.3263
 6054TIP3    H139797   6.302   0.428   0.998  0.2745  0.2982 -0.4211
 6054TIP3    H239798   6.183   0.520   0.979  0.0459  0.0673 -0.1143
 6055TIP3   OH239799   1.621   3.574   1.831  0.3954 -0.0898  0.1150
 6055TIP3    H139800   1.692   3.514   1.808 -0.0250 -0.0949 -1.2206
 6055TIP3    H239801   1.549   3.517   1.858  0.7529 -0.0956  1.0944
 6056TIP3   OH239802   0.833   0.265   1.575 -0.1848  0.4712 -0.0204
 6056TIP3    H139803   0.926   0.245   1.584  0.0689  1.8670  0.8033
 6056TIP3    H239804   0.818   0.267   1.480  0.8896  1.2997 -0.1986
 6057TIP3   OH239805   3.068   3.203   1.044 -0.1837 -0.2919  0.4544
 6057TIP3    H139806   3.042   3.286   1.004 -0.9530 -1.1899 -1.0199
 6057TIP3    H239807   3.162   3.196   1.025 -0.0750  0.3271  0.7520
 6058TIP3   OH239808   0.845   0.304   1.847  0.3623  0.3271 -0.0823
 6058TIP3    H139809   0.916   0.245   1.872  0.1725 -0.0580 -0.4376
 6058TIP3    H239810   0.829   0.284   1.754 -0.8864 -0.3083  0.2561
 6059TIP3   OH239811   6.257   1.623   8.781 -0.1409  0.3391  0.0741
 6059TIP3    H139812   6.237   1.559   8.712 -1.1140 -0.4119  1.0090
 6059TIP3    H239813   6.184   1.615   8.842  2.1300 -1.2603  2.8143
 6060TIP3   OH239814   6.498   2.557   1.741  0.3771 -0.6993  0.1072
 6060TIP3    H139815   6.571   2.518   1.693 -0.5140 -0.2931 -1.6513
 6060TIP3    H239816   6.422   2.503   1.718  0.0529 -0.9982  1.7416
 6061TIP3   OH239817   6.296   0.160   1.831  0.2662 -0.1115  0.4204
 6061TIP3    H139818   6.351   0.186   1.757  1.2990  1.0335  1.5475
 6061TIP3    H239819   6.234   0.232   1.841 -0.0815 -0.4152  0.4990
 6062TIP3   OH239820   3.269   0.919   8.943  0.3309 -0.3535  0.1064
 6062TIP3    H139821   3.249   1.013   8.938 -0.2927 -0.4218  1.0597
 6062TIP3    H239822   3.208   0.878   8.882  2.8320  0.1099 -2.9547
 6063TIP3   OH239823   6.024   5.982   0.859  0.3195  0.3203 -1.2079
 6063TIP3    H139824   6.067   5.979   0.945  0.3840 -1.0522 -1.2615
 6063TIP3    H239825   5.963   5.908   0.860 -1.2378  1.5498 -1.5695
 6064TIP3   OH239826   4.663   3.339   7.839  0.8663  0.1891  0.1439
 6064TIP3    H139827   4.752   3.338   7.804  1.5129  1.7461  1.6104
 6064TIP3    H239828   4.668   3.289   7.921 -0.2931 -2.1212 -1.0851
 6065TIP3   OH239829   0.207   6.261   0.553  0.1337 -0.5169 -0.6680
 6065TIP3    H139830   0.258   6.195   0.506 -0.0708 -0.4307 -1.0187
 6065TIP3    H239831   0.153   6.211   0.615  0.2575 -0.6479 -0.6649
 6066TIP3   OH239832   5.392   1.056   8.985  0.3373 -0.2582 -0.0847
 6066TIP3    H139833   5.311   1.048   8.935  0.0345 -2.4834  0.6364
 6066TIP3    H239834   5.379   1.132   9.041 -1.6079 -1.0314  0.5903
 6067TIP3   OH239835   0.235   5.305   1.590 -0.4800 -0.3071 -0.7954
 6067TIP3    H139836   0.159   5.353   1.559 -0.1384  0.5329 -0.3532
 6067TIP3    H239837   0.308   5.338   1.538 -0.1960 -0.1415 -0.3022
 6068TIP3   OH239838   4.525   5.787   2.429 -0.6641 -0.2277 -0.2343
 6068TIP3    H139839   4.555   5.833   2.351 -1.7663  0.2573 -0.3850
 6068TIP3    H239840   4.487   5.706   2.396 -0.7156 -0.2336 -0.1621
 6069TIP3   OH239841   5.345   6.115   1.016  0.3694  0.4571 -0.4439
 6069TIP3    H139842   5.333   6.094   0.923  2.3594  2.4424 -1.2470
 6069TIP3    H239843   5.266   6.164   1.039  0.0986  0.4260 -1.2482
 6070TIP3   OH239844   5.686   2.006   8.449 -0.5931 -0.3263 -0.8047
 6070TIP3    H139845   5.621   2.058   8.402 -1.4282 -0.3141  0.3127
 6070TIP3    H239846   5.634   1.946   8.502  0.0331  2.0608  2.9473
 6071TIP3   OH239847   4.386   4.529   1.225 -0.4482 -0.4713 -0.5176
 6071TIP3    H139848   4.303   4.501   1.184 -0.3323 -1.4485 -0.1133
 6071TIP3    H239849   4.448   4.531   1.152 -0.7512 -0.0524 -0.7690
 6072TIP3   OH239850   0.268   5.707   1.134 -0.1435  0.9739  0.1206
 6072TIP3    H139851   0.340   5.654   1.099 -0.4186  0.6388  0.0492
 6072TIP3    H239852   0.189   5.659   1.108 -0.3691  0.9883  0.7763
 6073TIP3   OH239853   2.217   0.894   7.521  0.4686  0.1116 -0.6133
 6073TIP3    H139854   2.306   0.890   7.486  0.8735  1.0108  0.2355
 6073TIP3    H239855   2.179   0.810   7.500  1.3425 -0.0890 -1.4749
 6074TIP3   OH239856   1.471   1.578   0.348 -0.0191  0.4517 -0.4130
 6074TIP3    H139857   1.522   1.594   0.427 -1.8264  1.5018  0.6178
 6074TIP3    H239858   1.433   1.491   0.361 -0.5208  0.7290  0.0164
 6075TIP3   OH239859   4.526   0.274   1.081 -0.5006 -0.2833  0.1953
 6075TIP3    H139860   4.570   0.358   1.070 -0.7962 -0.0839  0.5207
 6075TIP3    H239861   4.597   0.213   1.105 -0.1672 -0.3033 -0.7946
 6076TIP3   OH239862   4.351   3.501   2.806 -0.3515  0.2065 -0.1431
 6076TIP3    H139863   4.390   3.575   2.759 -1.2566  0.6106 -0.2692
 6076TIP3    H239864   4.321   3.539   2.889  1.3727 -0.5276  0.8870
 6077TIP3   OH239865   3.727   4.772   2.323  0.1243  0.2255  0.0872
 6077TIP3    H139866   3.800   4.761   2.262 -0.4049 -0.4417 -0.4477
 6077TIP3    H239867   3.767   4.765   2.409  1.0583  2.2601 -0.1223
 6078TIP3   OH239868   0.268   2.271   0.628 -0.1788  0.2502  0.7271
 6078TIP3    H139869   0.287   2.196   0.684  0.8503  0.4595  0.6657
 6078TIP3    H239870   0.304   2.346   0.676 -0.5313  0.6127  0.4343
 6079TIP3   OH239871   6.020   1.469   3.270 -0.4561 -0.1637  0.1848
 6079TIP3    H139872   6.081   1.493   3.201  0.3200 -0.0238  0.8989
 6079TIP3    H239873   5.933   1.478   3.230 -0.0193 -0.2132 -0.7962
 6080TIP3   OH239874   2.590   4.515   0.695  0.3029 -0.3574  0.0736
 6080TIP3    H139875   2.535   4.591   0.678 -0.7021 -1.2972 -1.0091
 6080TIP3    H239876   2.577   4.458   0.620  2.0931 -1.0150  0.2088
 6081TIP3   OH239877   4.965   5.955   0.746  0.2190  0.4449  0.3639
 6081TIP3    H139878   4.984   5.885   0.809 -1.2155 -0.4839 -0.1813
 6081TIP3    H239879   4.906   5.914   0.683 -1.2264  2.3442  0.4099
 6082TIP3   OH239880   2.900   5.150   7.551  0.1242 -0.2557  0.0708
 6082TIP3    H139881   2.881   5.222   7.491  0.1938 -0.7346 -0.5369
 6082TIP3    H239882   2.924   5.077   7.494  1.1826 -0.4353  0.7185
 6083TIP3   OH239883   5.330   6.083   8.093 -0.3316 -0.7617  0.8614
 6083TIP3    H139884   5.405   6.070   8.150 -0.4542 -1.1325  0.9450
 6083TIP3    H239885   5.284   5.999   8.094 -1.6912 -0.0428  2.1635
 6084TIP3   OH239886   0.347   5.402   7.918  0.0297 -0.0957 -0.2386
 6084TIP3    H139887   0.331   5.311   7.943 -0.0611  0.3985  1.6771
 6084TIP3    H239888   0.415   5.397   7.850 -0.4840 -1.6077 -0.6704
 6085TIP3   OH239889   5.523   0.517   7.426  0.5437 -0.4426 -0.2972
 6085TIP3    H139890   5.615   0.536   7.408  0.8192  0.8870  2.1588
 6085TIP3    H239891   5.519   0.422   7.433  2.1807 -0.4299  1.5336
 6086TIP3   OH239892   4.734   2.362   0.458  0.5590  0.0320  0.0576
 6086TIP3    H139893   4.686   2.310   0.395  1.7290  0.6623 -1.4311
 6086TIP3    H239894   4.667   2.404   0.512 -0.4363 -1.2972 -0.1013
 6087TIP3   OH239895   6.497   5.408   9.091 -0.4649 -0.3185 -0.3095
 6087TIP3    H139896   6.492   5.493   9.136 -0.5048 -1.4815  2.0092
 6087TIP3    H239897   6.449   5.422   9.009 -1.1626  1.6851  0.3792
 6088TIP3   OH239898   4.139   5.695   0.785 -0.8923  0.0973 -0.0286
 6088TIP3    H139899   4.207   5.681   0.851 -0.8133 -1.3659 -0.3846
 6088TIP3    H239900   4.059   5.707   0.835 -0.0965  4.6476  0.5511
 6089TIP3   OH239901   0.114   0.740   7.905  0.2666  0.2981 -0.2980
 6089TIP3    H139902   0.124   0.742   8.000  2.1892  0.0044 -0.4557
 6089TIP3    H239903   0.135   0.649   7.882  0.9797  0.6635 -1.1053
 6090TIP3   OH239904   5.122   6.345   1.049 -0.5175 -0.4941  0.1275
 6090TIP3    H139905   5.137   6.411   0.982  0.1536 -0.6308  0.1342
 6090TIP3    H239906   5.044   6.298   1.020 -1.4814  0.8192  0.5404
 6091TIP3   OH239907   3.714   1.190   2.527  0.0761 -0.5080 -0.0459
 6091TIP3    H139908   3.695   1.211   2.619 -0.4683 -2.8574  0.4213
 6091TIP3    H239909   3.657   1.248   2.477 -0.8400 -0.3581  1.1378
 6092TIP3   OH239910   1.215   6.020   8.146 -0.5125 -0.6515 -0.3653
 6092TIP3    H139911   1.231   6.048   8.056 -1.5772  1.3508 -0.0080
 6092TIP3    H239912   1.300   5.990   8.177  0.4700  0.9958 -1.2942
 6093TIP3   OH239913   6.160   1.831   3.263 -0.0911 -0.6724  0.0984
 6093TIP3    H139914   6.098   1.862   3.197 -1.0150 -0.9163  0.8215
 6093TIP3    H239915   6.206   1.758   3.221  0.8909  0.5525 -1.0118
 6094TIP3   OH239916   2.471   6.556   8.742 -0.0799  0.4569  0.3216
 6094TIP3    H139917   2.525   6.591   8.813  1.1600  0.0963 -0.4224
 6094TIP3    H239918   2.510   6.592   8.662  1.2290 -2.4564 -0.4965
 6095TIP3   OH239919   1.163   5.500   1.188  0.1821  0.2315  0.1334
 6095TIP3    H139920   1.083   5.448   1.188 -1.0634  2.0322 -0.9001
 6095TIP3    H239921   1.218   5.461   1.120 -0.5910  0.0420 -0.3931
 6096TIP3   OH239922   4.715   0.892   0.980 -0.6148  0.2455  0.1166
 6096TIP3    H139923   4.641   0.919   1.035 -1.2216  0.0075 -0.5652
 6096TIP3    H239924   4.746   0.811   1.019  0.0436  0.9477  1.0928
 6097TIP3   OH239925   1.059   3.404   0.525  0.1536 -0.2358  0.2008
 6097TIP3    H139926   1.111   3.442   0.596 -1.0253 -0.0587  0.9907
 6097TIP3    H239927   1.076   3.462   0.450 -1.5866  1.9535  1.3565
 6098TIP3   OH239928   0.882   4.782   8.627 -0.3481 -0.5684 -0.3526
 6098TIP3    H139929   0.961   4.747   8.586 -0.2416  0.5282 -1.1281
 6098TIP3    H239930   0.912   4.815   8.711  0.3172  0.9685 -1.1451
 6099TIP3   OH239931   5.107   5.307   1.451 -0.0382 -0.0539  0.6757
 6099TIP3    H139932   5.178   5.370   1.461 -0.9157  0.7220  2.3514
 6099TIP3    H239933   5.115   5.249   1.527  0.6370 -1.9114 -0.7286
 6100TIP3   OH239934   0.961   0.412   1.111 -0.3995  0.3543  0.1793
 6100TIP3    H139935   0.948   0.449   1.024  0.5530 -1.8749 -0.9931
 6100TIP3    H239936   1.055   0.397   1.117 -0.3561  1.1132  1.8998
 6101TIP3   OH239937   2.280   4.590   2.399  1.1602 -0.1674  0.2969
 6101TIP3    H139938   2.227   4.517   2.433  0.2764 -0.2634 -1.2169
 6101TIP3    H239939   2.318   4.629   2.478  1.5334 -2.1461  1.1843
 6102TIP3   OH239940   0.781   0.123   2.857 -0.3121 -0.1008  0.0642
 6102TIP3    H139941   0.787   0.088   2.768  1.2047 -0.3252  0.2362
 6102TIP3    H239942   0.787   0.218   2.846  0.3675 -0.1507 -0.0555
 6103TIP3   OH239943   6.445   0.201   2.097  0.7216  0.3213  0.1883
 6103TIP3    H139944   6.472   0.136   2.031  0.3282  1.6557 -1.3542
 6103TIP3    H239945   6.352   0.214   2.081  0.0747 -0.8844  2.4848
 6104TIP3   OH239946   0.231   3.703   1.682 -0.3439  0.2536  1.0197
 6104TIP3    H139947   0.228   3.608   1.671 -0.6293  0.2906  0.7479
 6104TIP3    H239948   0.174   3.736   1.613  1.3544  0.7255 -0.2410
 6105TIP3   OH239949   6.229   6.524   0.995  0.0368  0.4847  0.2760
 6105TIP3    H139950   6.282   6.533   0.916 -2.6290  1.7092 -1.5125
 6105TIP3    H239951   6.195   6.612   1.012 -3.2887 -0.5555 -0.1628
 6106TIP3   OH239952   5.132   3.616   2.426  0.5010  0.3197 -0.1515
 6106TIP3    H139953   5.185   3.546   2.389 -0.0624 -0.7626  0.9790
 6106TIP3    H239954   5.045   3.602   2.389  0.3703  0.3710  0.1319
 6107TIP3   OH239955   5.541   4.881   1.616 -0.5929  0.0514 -0.3550
 6107TIP3    H139956   5.533   4.976   1.604 -0.2792  0.1329  0.0757
 6107TIP3    H239957   5.592   4.871   1.697 -1.1624 -0.4837 -0.0564
 6108TIP3   OH239958   2.083   3.226   1.691  0.0178 -0.3952  0.1926
 6108TIP3    H139959   2.057   3.316   1.707 -0.5252 -0.3663 -0.7928
 6108TIP3    H239960   2.175   3.222   1.719  0.6829  1.0132 -1.6193
 6109TIP3   OH239961   3.305   0.833   1.955  0.1362 -0.7165  0.7532
 6109TIP3    H139962   3.295   0.842   2.050  1.3895 -1.5183  0.9822
 6109TIP3    H239963   3.250   0.758   1.932 -0.4858 -0.2769  0.7656
 6110TIP3   OH239964   3.461   0.077   0.826 -0.3745  0.2511 -0.0258
 6110TIP3    H139965   3.508   0.048   0.748 -0.8056  1.1153 -0.6164
 6110TIP3    H239966   3.508   0.036   0.899 -0.8246 -1.7636 -0.7972
 6111TIP3   OH239967   6.128   1.581   7.873 -0.1511 -0.4561  0.4705
 6111TIP3    H139968   6.038   1.606   7.852 -0.4191  0.1632  2.2008
 6111TIP3    H239969   6.179   1.660   7.858  0.1345 -0.7944 -0.4652
 6112TIP3   OH239970   6.407   5.782   0.542 -0.0476  0.8670 -0.1556
 6112TIP3    H139971   6.427   5.691   0.520  1.7573  1.1080  0.2847
 6112TIP3    H239972   6.326   5.778   0.593  0.4553 -0.6019  0.5786
 6113TIP3   OH239973   0.724   3.845   8.038 -0.1776  0.2887  0.0419
 6113TIP3    H139974   0.670   3.884   7.969  1.5937 -0.4237 -1.8318
 6113TIP3    H239975   0.795   3.907   8.051  0.4502 -0.3874 -0.0666
 6114TIP3   OH239976   1.718   6.532   7.581 -0.1537  0.5180 -0.5863
 6114TIP3    H139977   1.680   6.467   7.639 -0.9490  0.0790 -1.5813
 6114TIP3    H239978   1.680   6.615   7.609  0.8043  0.5696  0.6351
 6115TIP3   OH239979   1.604   0.719   8.702  0.2667  0.1397 -0.0884
 6115TIP3    H139980   1.526   0.702   8.755  0.5982 -1.8702 -0.1691
 6115TIP3    H239981   1.671   0.744   8.766  0.1937 -0.5153  0.2463
 6116TIP3   OH239982   4.742   3.569   8.373  0.2333  0.5057  0.5551
 6116TIP3    H139983   4.697   3.524   8.445 -0.6464  0.6770  0.1266
 6116TIP3    H239984   4.810   3.620   8.416 -0.3467  0.6851  1.2871
 6117TIP3   OH239985   4.923   0.773   2.505  0.4232 -0.0434  0.0146
 6117TIP3    H139986   4.930   0.761   2.600  1.0863 -0.8389 -0.1303
 6117TIP3    H239987   4.831   0.797   2.491  0.2567 -0.1759  0.8250
 6118TIP3   OH239988   0.978   3.899   1.942  0.5436 -0.5107 -0.4309
 6118TIP3    H139989   0.994   3.832   1.875 -2.6491 -0.2851 -1.6085
 6118TIP3    H239990   0.983   3.852   2.025  3.1980 -1.0950 -0.8136
 6119TIP3   OH239991   0.641   4.781   1.182 -0.1407 -0.1054 -0.4514
 6119TIP3    H139992   0.594   4.764   1.100  0.0376  0.7896 -0.7527
 6119TIP3    H239993   0.650   4.876   1.185  1.3265 -0.2283 -0.2206
 6120TIP3   OH239994   5.072   2.753   7.860 -0.3774  0.0962 -0.5985
 6120TIP3    H139995   5.149   2.759   7.803 -0.4553  0.3993 -0.6741
 6120TIP3    H239996   5.004   2.716   7.804 -0.9041  1.8743 -1.1727
 6121TIP3   OH239997   0.614   3.091   0.319  0.0388 -0.0953 -0.3294
 6121TIP3    H139998   0.619   3.088   0.414 -1.0403  1.3298 -0.2026
 6121TIP3    H239999   0.595   3.000   0.293  0.4089 -0.5108  0.7873
 6122TIP3   OH240000   5.997   2.995   8.198 -0.0169 -0.3956 -0.8691
 6122TIP3    H140001   5.921   2.964   8.150  0.0913 -0.6970 -0.8543
 6122TIP3    H240002   6.063   2.927   8.184  0.4412  0.1416 -1.3556
 6123TIP3   OH240003   1.221   6.595   0.217 -0.0802 -0.4375 -0.2705
 6123TIP3    H140004   1.309   6.621   0.189 -0.1926  0.4757  0.1949
 6123TIP3    H240005   1.212   6.631   0.305 -1.4614  0.7736 -0.8682
 6124TIP3   OH240006   0.809   4.714   1.406  0.0930  0.5821 -0.3524
 6124TIP3    H140007   0.869   4.774   1.362 -1.6691  3.5954  1.0280
 6124TIP3    H240008   0.724   4.729   1.365 -1.0837  1.6327  2.2157
 6125TIP3   OH240009   6.093   5.346   1.300  0.3464 -0.5887 -0.4232
 6125TIP3    H140010   6.185   5.370   1.296  0.2790 -0.3259 -0.4706
 6125TIP3    H240011   6.055   5.410   1.361 -0.0639  0.1815 -1.4424
 6126TIP3   OH240012   4.010   4.506   7.727  0.5675  0.8589 -0.0489
 6126TIP3    H140013   3.996   4.492   7.820 -1.1033  0.2972 -0.3507
 6126TIP3    H240014   4.039   4.421   7.694 -2.2273 -0.0093 -0.5777
 6127TIP3   OH240015   6.303   1.408   0.491 -0.1400  0.1010 -0.1044
 6127TIP3    H140016   6.321   1.358   0.412 -1.9490 -1.3329  0.3132
 6127TIP3    H240017   6.274   1.493   0.459 -1.6529 -0.7273 -1.0793
 6128TIP3   OH240018   1.308   2.887   9.038 -0.3240  0.0417 -0.5443
 6128TIP3    H140019   1.336   2.978   9.023  0.2267 -0.2432 -1.3172
 6128TIP3    H240020   1.377   2.849   9.093 -0.2781 -0.0614 -0.6727
 6129TIP3   OH240021   2.833   4.588   2.434 -0.0202  0.9593  0.1508
 6129TIP3    H140022   2.838   4.629   2.520 -1.5459  1.1278  0.1840
 6129TIP3    H240023   2.741   4.563   2.424 -0.0984  1.8005 -1.8120
 6130TIP3   OH240024   4.530   6.317   1.139  0.2621 -0.3449 -0.0148
 6130TIP3    H140025   4.520   6.412   1.145  0.8286 -0.1422 -1.8396
 6130TIP3    H240026   4.595   6.296   1.206  0.3102  0.5788  0.2480
 6131TIP3   OH240027   4.414   3.332   8.003 -0.0066 -0.0026  0.2652
 6131TIP3    H140028   4.460   3.402   8.049 -0.9053  0.7276  0.1029
 6131TIP3    H240029   4.476   3.259   8.001  1.6958  1.4022 -1.2396
 6132TIP3   OH240030   6.016   3.672   7.858 -0.7472  0.3929  0.1036
 6132TIP3    H140031   6.071   3.666   7.780 -0.2542 -0.2225  0.4890
 6132TIP3    H240032   6.036   3.757   7.895  0.6027 -0.1710  0.7124
 6133TIP3   OH240033   6.525   1.621   0.939  0.4186  0.1640  0.2210
 6133TIP3    H140034   6.430   1.606   0.937  0.6593 -1.6469  0.9479
 6133TIP3    H240035   6.560   1.560   0.874  1.1627  0.0811  0.6900
 6134TIP3   OH240036   0.007   4.694   1.261 -0.0557 -0.5212  0.3249
 6134TIP3    H140037  -0.069   4.635   1.264  0.1936 -0.8510  0.3020
 6134TIP3    H240038   0.056   4.673   1.340 -1.0937  1.2243  1.4930
 6135TIP3   OH240039   1.301   1.992   7.903  0.0219 -0.5851  0.2557
 6135TIP3    H140040   1.284   2.084   7.882 -1.0199 -0.3133  2.0797
 6135TIP3    H240041   1.223   1.946   7.872  0.7764 -0.9693 -1.1481
 6136TIP3   OH240042   5.718   6.668   0.068 -0.5198 -0.1986  0.1403
 6136TIP3    H140043   5.696   6.754   0.031 -0.4177 -0.6200 -0.9378
 6136TIP3    H240044   5.745   6.687   0.158 -0.4925  0.9017 -0.0822
 6137TIP3   OH240045   4.692   2.689   0.797  0.2513 -0.2820  0.1626
 6137TIP3    H140046   4.730   2.649   0.719 -1.4528 -0.5879 -0.5424
 6137TIP3    H240047   4.700   2.783   0.782 -0.4162 -0.3345 -0.5661
 6138TIP3   OH240048   1.118   1.807   8.138 -0.0728 -0.3271  0.0276
 6138TIP3    H140049   1.094   1.809   8.046  0.3779  1.7606 -0.0981
 6138TIP3    H240050   1.214   1.809   8.138 -0.0809  0.6088  0.5172
 6139TIP3   OH240051   4.121   6.255   0.824  0.0682  0.0623  0.7956
 6139TIP3    H140052   4.195   6.303   0.861  0.1321  0.4008  0.2423
 6139TIP3    H240053   4.057   6.252   0.895  0.7581 -0.5759  1.4088
 6140TIP3   OH240054   0.525   0.978   1.403 -0.8150  0.4230  0.4561
 6140TIP3    H140055   0.474   1.051   1.438 -1.1207  0.9127 -0.9748
 6140TIP3    H240056   0.469   0.901   1.415 -0.0963  0.1894  2.8885
 6141TIP3   OH240057   2.567   0.004   8.941  0.6364  0.8852 -0.3366
 6141TIP3    H140058   2.539   0.094   8.958 -0.6992  0.2684  1.0197
 6141TIP3    H240059   2.582  -0.033   9.028 -0.9439 -0.8005 -0.7147
 6142TIP3   OH240060   4.125   5.494   0.610  0.3158  0.0332 -0.8543
 6142TIP3    H140061   4.109   5.449   0.693 -0.1048  1.1185 -0.3257
 6142TIP3    H240062   4.174   5.572   0.635 -0.5252  0.7888 -1.5193
 6143TIP3   OH240063   5.003   4.296   1.365  0.2115  0.3712 -0.2387
 6143TIP3    H140064   4.913   4.280   1.337  0.1855  1.3580 -0.8009
 6143TIP3    H240065   4.996   4.369   1.427  0.3273 -1.4772  2.0867
 6144TIP3   OH240066   0.474   0.247   7.953 -0.0437 -0.2703  0.2375
 6144TIP3    H140067   0.549   0.295   7.919  1.3822 -2.4966  0.0301
 6144TIP3    H240068   0.502   0.155   7.953 -3.0958 -1.3107 -0.7131
 6145TIP3   OH240069   2.188   2.010   1.016 -0.1016 -0.1332 -0.3145
 6145TIP3    H140070   2.222   2.023   1.105 -0.4251 -1.9197  0.1126
 6145TIP3    H240071   2.095   1.990   1.029  0.0791 -1.4516 -0.9617
 6146TIP3   OH240072   1.408   5.162   0.631 -0.0323 -0.2522  0.5543
 6146TIP3    H140073   1.357   5.162   0.712 -1.4546  0.9896 -0.3088
 6146TIP3    H240074   1.481   5.222   0.649  0.2113 -0.7370  1.2261
 6147TIP3   OH240075   2.439   1.148   8.398  0.2322 -0.2949 -0.1020
 6147TIP3    H140076   2.388   1.189   8.329  0.8092  0.6581  0.0260
 6147TIP3    H240077   2.376   1.130   8.468  0.3382  2.8081  0.9409
 6148TIP3   OH240078   2.192   3.976   7.957  0.0090  0.2619 -0.2193
 6148TIP3    H140079   2.249   3.928   7.896 -0.7332  1.7346 -2.1811
 6148TIP3    H240080   2.135   4.027   7.900 -0.6328  1.8506  1.7630
 6149TIP3   OH240081   2.153   4.850   0.397 -0.1067 -0.3757 -0.1533
 6149TIP3    H140082   2.171   4.877   0.307  1.1318 -0.2335  0.1158
 6149TIP3    H240083   2.171   4.756   0.397 -0.8037 -0.5109 -0.2181
 6150TIP3   OH240084   0.468   5.188   8.176  0.0868  0.1228  0.3622
 6150TIP3    H140085   0.455   5.258   8.239  2.5449  1.1526 -0.1579
 6150TIP3    H240086   0.390   5.191   8.120 -0.1625  2.0126  0.7599
 6151TIP3   OH240087   3.439   5.371   9.086 -0.3082  0.1045 -0.0987
 6151TIP3    H140088   3.388   5.365   9.005 -0.4435 -2.4997  0.1046
 6151TIP3    H240089   3.530   5.361   9.058 -0.4503 -2.4237  0.1287
 6152TIP3   OH240090   2.913   6.455   9.099  0.2147 -0.1406  0.0053
 6152TIP3    H140091   2.981   6.468   9.033  0.2627 -0.9765 -0.1201
 6152TIP3    H240092   2.857   6.533   9.091  0.9112  0.3514 -0.1740
 6153TIP3   OH240093   0.995   4.921   9.138  0.2284  0.0338 -0.6213
 6153TIP3    H140094   0.979   5.014   9.154  0.8895  0.3266 -1.5560
 6153TIP3    H240095   0.980   4.879   9.222 -1.1618  0.8368 -0.4472
 6154TIP3   OH240096   5.387   4.684   0.886  0.2585 -0.5876  0.1761
 6154TIP3    H140097   5.395   4.695   0.981  1.3942  2.1799 -0.1313
 6154TIP3    H240098   5.367   4.772   0.854  1.9863 -1.0158 -2.3246
 6155TIP3   OH240099   5.033   3.405   0.736 -0.2037 -0.4224  0.2502
 6155TIP3    H140100   4.979   3.483   0.751 -0.3253 -0.2867 -0.7958
 6155TIP3    H240101   5.113   3.439   0.695  0.0043 -0.7870  0.3488
 6156TIP3   OH240102   3.233   5.669   0.350 -0.1321 -0.5867 -0.4666
 6156TIP3    H140103   3.281   5.633   0.425 -0.2629  0.3062  0.0607
 6156TIP3    H240104   3.172   5.599   0.326 -0.4850 -0.6848  0.6311
 6157TIP3   OH240105   3.816   2.941   0.623  0.1552  0.2482  0.1414
 6157TIP3    H140106   3.752   3.010   0.641  0.4549  0.5329  0.1287
 6157TIP3    H240107   3.854   2.921   0.708  0.1282  0.1606  0.1322
 6158TIP3   OH240108   2.335   4.516   7.663  0.3475  0.2984 -0.0430
 6158TIP3    H140109   2.274   4.459   7.617 -0.0489  0.8493 -0.2103
 6158TIP3    H240110   2.286   4.597   7.677  0.5827  0.2608  1.0363
 6159TIP3   OH240111   3.500   2.247   2.097  0.2110  0.3604  0.2858
 6159TIP3    H140112   3.473   2.173   2.042  1.9036  0.7515 -1.1737
 6159TIP3    H240113   3.421   2.271   2.145 -1.4741  0.1649 -2.1760
 6160TIP3   OH240114   3.209   5.486   7.242  0.3933 -0.1523 -0.0137
 6160TIP3    H140115   3.169   5.573   7.235  0.0934 -0.3326 -0.6492
 6160TIP3    H240116   3.195   5.446   7.156  1.1771 -0.5548  0.0322
 6161TIP3   OH240117   0.531   3.229   8.226 -0.4012  0.4870  0.6166
 6161TIP3    H140118   0.472   3.162   8.192 -0.7491  1.0423  0.0855
 6161TIP3    H240119   0.485   3.312   8.209  0.4090  0.9148  0.4338
 6162TIP3   OH240120   5.491   0.606   0.991 -0.2421 -0.3653 -0.1804
 6162TIP3    H140121   5.487   0.656   0.909 -2.5107  1.4247  0.9138
 6162TIP3    H240122   5.435   0.529   0.975 -0.6459 -0.0422 -0.3277
 6163TIP3   OH240123   0.289   0.398   9.097 -0.3239  0.0546  0.4535
 6163TIP3    H140124   0.206   0.404   9.049  0.2716  3.7592 -0.3870
 6163TIP3    H240125   0.353   0.438   9.039  2.2101 -2.7828  1.0493
 6164TIP3   OH240126   3.423   5.714   7.963  0.2483 -0.1058  0.4267
 6164TIP3    H140127   3.345   5.677   8.005  0.3876 -0.2671  0.5430
 6164TIP3    H240128   3.492   5.704   8.028  0.1335  0.9966  0.7358
 6165TIP3   OH240129   5.484   1.082   3.213  0.0273 -0.0250  0.0046
 6165TIP3    H140130   5.410   1.022   3.223 -0.0010  0.1965  1.4073
 6165TIP3    H240131   5.488   1.128   3.297  0.2098  1.7553 -0.9464
 6166TIP3   OH240132   4.246   1.555   3.184  0.0145  0.2019 -0.1580
 6166TIP3    H140133   4.277   1.623   3.243 -1.2569  0.7482 -0.0709
 6166TIP3    H240134   4.201   1.493   3.241  2.2333 -1.4291 -0.0650
 6167TIP3   OH240135   4.361   5.705   0.965 -0.0617  0.6657 -0.1119
 6167TIP3    H140136   4.422   5.777   0.983 -0.0453  0.7684 -0.5543
 6167TIP3    H240137   4.322   5.685   1.049 -1.3889  2.3939 -0.2588
 6168TIP3   OH240138   5.146   6.020   0.142  0.2619 -0.5750  0.3817
 6168TIP3    H140139   5.161   6.055   0.054 -0.4067  0.1440  0.5380
 6168TIP3    H240140   5.233   5.996   0.174  1.1973  3.4509  1.3105
 6169TIP3   OH240141   0.788   5.020   7.391 -0.4509 -0.5209  0.5924
 6169TIP3    H140142   0.881   5.032   7.413 -0.0995 -1.5837 -0.2449
 6169TIP3    H240143   0.787   4.944   7.334 -1.7696 -0.0803  0.0005
 6170TIP3   OH240144   4.292   0.047   1.448 -0.4827 -1.0142  0.5595
 6170TIP3    H140145   4.359   0.105   1.484 -1.5995 -0.4882  1.9067
 6170TIP3    H240146   4.260   0.092   1.371 -0.7618 -0.2192  1.1302
 6171TIP3   OH240147   5.142   3.830   7.554  0.6467  0.2947 -0.0354
 6171TIP3    H140148   5.089   3.753   7.575  2.0007 -0.6700  0.0232
 6171TIP3    H240149   5.157   3.823   7.459  0.5798  0.6235 -0.0707
 6172TIP3   OH240150   0.369   2.535   1.532  0.2886  0.4336 -0.2341
 6172TIP3    H140151   0.377   2.536   1.628 -0.3877  0.5904 -0.1739
 6172TIP3    H240152   0.349   2.625   1.508  2.1213  0.7549 -0.6963
 6173TIP3   OH240153   1.771   3.713   2.092  0.2206 -0.3302 -0.3912
 6173TIP3    H140154   1.758   3.618   2.090 -0.2658 -0.2660 -0.3594
 6173TIP3    H240155   1.864   3.723   2.111  0.2014 -0.8030 -0.0032
 6174TIP3   OH240156   2.813   6.391   0.913  0.3871  0.6114  0.2459
 6174TIP3    H140157   2.782   6.410   1.001 -0.0455 -0.2730  0.3034
 6174TIP3    H240158   2.867   6.313   0.923  1.4522  1.2886 -0.0806
 6175TIP3   OH240159   0.602   1.201   8.657  0.3769  0.3047 -0.0980
 6175TIP3    H140160   0.688   1.161   8.673  0.3011 -0.1196 -0.7083
 6175TIP3    H240161   0.617   1.295   8.668  0.9527  0.2471 -0.3329
 6176TIP3   OH240162   1.448   6.381   8.654  0.0541 -0.3523 -0.3527
 6176TIP3    H140163   1.447   6.385   8.750 -0.9775 -0.6387 -0.3385
 6176TIP3    H240164   1.358   6.402   8.629  0.2385 -0.6155 -1.2486
 6177TIP3   OH240165   4.881   0.970   8.254  0.1139  0.0712  0.2639
 6177TIP3    H140166   4.955   0.935   8.303  0.1074  0.0986  0.2941
 6177TIP3    H240167   4.811   0.977   8.319  0.1423  0.2242  0.2781
 6178TIP3   OH240168   5.464   5.069   7.151 -0.0155  0.2574 -0.1007
 6178TIP3    H140169   5.375   5.100   7.134  0.0690  0.6075  0.0986
 6178TIP3    H240170   5.488   5.021   7.071 -0.6039 -0.3577  0.0836
 6179TIP3   OH240171   2.624   2.416   0.927  0.0387  0.7160  0.6262
 6179TIP3    H140172   2.547   2.463   0.896 -0.8157 -0.3585  1.0635
 6179TIP3    H240173   2.593   2.328   0.947  1.5353  0.0251  0.1034
 6180TIP3   OH240174   2.329   6.360   7.530  0.0707 -0.5366 -0.4446
 6180TIP3    H140175   2.314   6.310   7.450 -1.1201  0.8048 -1.1139
 6180TIP3    H240176   2.394   6.426   7.505 -1.0647  0.5466 -0.6463
 6181TIP3   OH240177   0.263   1.398   8.979  0.1901 -0.4796  0.3881
 6181TIP3    H140178   0.285   1.322   8.926  1.3229  1.3943 -2.0559
 6181TIP3    H240179   0.168   1.401   8.979  0.0967 -2.3134  1.2601
 6182TIP3   OH240180   1.081   1.575   2.532 -0.1172  0.3604 -0.3006
 6182TIP3    H140181   1.125   1.574   2.617  1.6158  1.7520 -1.1196
 6182TIP3    H240182   1.061   1.483   2.514  0.6454 -0.0957  1.0287
 6183TIP3   OH240183   6.396   2.872   1.050 -0.2241  0.3733 -0.5033
 6183TIP3    H140184   6.383   2.788   1.004 -1.0743  0.7580 -0.9999
 6183TIP3    H240185   6.332   2.931   1.009 -0.4867  0.9336  0.6853
 6184TIP3   OH240186   3.473   5.616   8.243 -0.0542  0.1132  0.2147
 6184TIP3    H140187   3.554   5.567   8.227 -0.3369 -0.3666  0.2403
 6184TIP3    H240188   3.407   5.549   8.261 -0.7137  0.4405 -0.9099
 6185TIP3   OH240189   5.811   5.289   7.252 -0.1342 -0.2191 -0.1911
 6185TIP3    H140190   5.724   5.267   7.284 -0.6933  1.3535 -0.5826
 6185TIP3    H240191   5.808   5.383   7.234  1.5584 -0.1816 -0.4701
 6186TIP3   OH240192   0.008   2.842   2.358 -0.8231 -0.0978 -0.0364
 6186TIP3    H140193  -0.050   2.903   2.313 -0.1156  0.0310 -0.8063
 6186TIP3    H240194   0.027   2.883   2.442 -0.8089  0.4715 -0.3155
 6187TIP3   OH240195   2.441   1.559   0.857 -0.4480  0.2993  0.3762
 6187TIP3    H140196   2.491   1.543   0.936 -1.4560  1.0413  1.1972
 6187TIP3    H240197   2.395   1.641   0.874 -1.5052 -0.0691 -0.5403
 6188TIP3   OH240198   2.277   2.289   0.845 -0.0812 -0.4363 -0.2828
 6188TIP3    H140199   2.211   2.267   0.910  1.5462 -0.6422  1.3777
 6188TIP3    H240200   2.280   2.385   0.845 -0.6862 -0.4107 -0.7183
 6189TIP3   OH240201   6.402   1.778   0.262 -0.3197  0.5312  0.5363
 6189TIP3    H140202   6.464   1.779   0.334  0.8713  0.3560 -0.4522
 6189TIP3    H240203   6.380   1.870   0.248 -0.2865  0.5948  0.8881
 6190TIP3   OH240204   1.317   3.763   2.710  0.5325 -0.1611  0.4745
 6190TIP3    H140205   1.255   3.811   2.656  0.4500 -1.2129 -0.4006
 6190TIP3    H240206   1.354   3.697   2.652  0.9985 -0.8384  1.5009
 6191TIP3   OH240207   4.113   4.210   2.530  0.3437 -0.4152  0.2010
 6191TIP3    H140208   4.119   4.209   2.625 -0.0262  1.3386  0.2692
 6191TIP3    H240209   4.030   4.253   2.511  0.1022 -1.3195 -0.9296
 6192TIP3   OH240210   0.271   2.048   1.545 -0.1854 -0.1385 -0.1263
 6192TIP3    H140211   0.306   2.122   1.495 -0.2005 -0.2869 -0.3553
 6192TIP3    H240212   0.318   2.052   1.628 -1.5104  1.2677  0.6248
 6193TIP3   OH240213   6.457   3.379   7.230 -0.2023  0.1643 -0.2739
 6193TIP3    H140214   6.366   3.409   7.229  0.2083  1.4864 -1.7624
 6193TIP3    H240215   6.454   3.295   7.185 -0.6423  0.3825 -0.6691
 6194TIP3   OH240216   3.831   0.551   9.066 -0.2564  0.2862 -0.0019
 6194TIP3    H140217   3.802   0.516   8.982 -0.5779 -0.7893  0.5416
 6194TIP3    H240218   3.771   0.514   9.130  1.2569 -0.6177  0.9513
 6195TIP3   OH240219   0.501   1.694   3.369  0.0113 -0.1383 -0.3952
 6195TIP3    H140220   0.452   1.737   3.439  2.4549  1.1923  0.6469
 6195TIP3    H240221   0.518   1.763   3.306  0.4247 -0.5915 -0.7838
 6196TIP3   OH240222   2.768   3.293   1.969  0.2886 -0.4412  0.1845
 6196TIP3    H140223   2.798   3.375   1.931  0.5327 -0.9310 -0.7113
 6196TIP3    H240224   2.805   3.225   1.912 -1.3004 -1.1223 -0.0916
 6197TIP3   OH240225   3.407   3.629   7.954  0.5100 -0.3531  0.3019
 6197TIP3    H140226   3.390   3.623   7.860 -0.1571  2.1880  0.1886
 6197TIP3    H240227   3.356   3.557   7.993 -0.7235 -0.2943 -1.1280
 6198TIP3   OH240228   3.970   4.518   7.055  0.0588 -0.1826  0.2120
 6198TIP3    H140229   3.915   4.457   7.104 -0.4582  1.6530  2.0506
 6198TIP3    H240230   3.928   4.603   7.065  1.7439  0.8244 -0.6788
 6199TIP3   OH240231   2.416   5.248   1.410  0.2124  0.3605  0.6926
 6199TIP3    H140232   2.347   5.233   1.475 -1.1890 -1.6999 -1.1348
 6199TIP3    H240233   2.372   5.293   1.338  1.1434  0.4377  0.1518
 6200TIP3   OH240234   4.238   2.611   1.121 -0.1925  0.4310  0.3172
 6200TIP3    H140235   4.228   2.697   1.162  0.2708 -0.4173  2.3357
 6200TIP3    H240236   4.310   2.622   1.060 -0.0449  1.4397  0.6465
 6201TIP3   OH240237   2.041   1.993   8.752 -0.5219 -0.3451  0.3553
 6201TIP3    H140238   1.983   1.988   8.828  0.0277  1.0394  0.8780
 6201TIP3    H240239   2.129   1.981   8.788 -0.4281 -3.1132 -0.5130
 6202TIP3   OH240240   4.118   4.710   7.898  0.0608 -0.3147  0.4084
 6202TIP3    H140241   4.086   4.656   7.825 -0.6503  0.4181  0.1576
 6202TIP3    H240242   4.052   4.779   7.906  0.0680 -0.4552  1.8323
 6203TIP3   OH240243   0.566   4.199   7.676 -0.3231 -0.1562 -0.5918
 6203TIP3    H140244   0.644   4.160   7.636  0.3982  0.8184 -0.1669
 6203TIP3    H240245   0.497   4.134   7.661  1.0516 -2.1194  0.9854
 6204TIP3   OH240246   6.495   4.008   7.635 -0.0289 -0.3802 -0.2722
 6204TIP3    H140247   6.583   4.040   7.654 -0.2486  0.4893 -0.6893
 6204TIP3    H240248   6.493   3.919   7.671  0.5937  0.0656  0.8805
 6205TIP3   OH240249   5.947   4.974   1.280  0.5838 -0.5186 -0.1497
 6205TIP3    H140250   5.880   4.947   1.343  0.7218 -0.4252  0.0390
 6205TIP3    H240251   5.949   4.904   1.215 -1.7564  0.7993 -1.8057
 6206TIP3   OH240252   4.410   3.076   1.290 -0.7531  0.5636  0.0964
 6206TIP3    H140253   4.459   3.073   1.208 -0.6093 -1.6053  0.2051
 6206TIP3    H240254   4.368   3.162   1.290  0.0539  1.0020 -1.7577
 6207TIP3   OH240255   3.397   3.145   8.528 -0.6281 -0.3217 -0.4881
 6207TIP3    H140256   3.404   3.073   8.590 -0.9369 -0.5606 -0.7274
 6207TIP3    H240257   3.425   3.223   8.577 -1.0072 -0.4845 -0.0096
 6208TIP3   OH240258   6.163   4.165   1.246  0.3198  0.1716  0.1640
 6208TIP3    H140259   6.179   4.257   1.267 -0.6441  0.2385  0.6196
 6208TIP3    H240260   6.146   4.123   1.330  0.0598 -0.2893 -0.1107
 6209TIP3   OH240261   3.102   6.670   1.644  0.2650 -0.1464 -0.2056
 6209TIP3    H140262   3.087   6.656   1.550  1.9724 -0.4657 -0.4491
 6209TIP3    H240263   3.122   6.583   1.678  0.5993  0.1185  0.2739
 6210TIP3   OH240264   3.240   0.183   7.848 -0.2026  0.2664  0.4013
 6210TIP3    H140265   3.275   0.137   7.772  0.7742  0.6940  0.5810
 6210TIP3    H240266   3.146   0.189   7.832 -0.0897 -0.2367 -0.4520
 6211TIP3   OH240267   1.147   2.746   8.083  0.6330 -0.4520 -0.1201
 6211TIP3    H140268   1.241   2.745   8.066  0.7636  1.7423  0.2660
 6211TIP3    H240269   1.119   2.834   8.059 -1.2891 -0.9647  0.0794
 6212TIP3   OH240270   1.855   4.313   9.136 -0.5328  0.1267  0.2276
 6212TIP3    H140271   1.893   4.397   9.111 -0.5383  0.0196 -0.1361
 6212TIP3    H240272   1.765   4.316   9.104 -0.4198 -0.1704 -0.1235
 6213TIP3   OH240273   1.876   0.326   2.959 -0.6960 -0.3205 -0.3715
 6213TIP3    H140274   1.833   0.406   2.930  0.0587 -0.1043 -0.9243
 6213TIP3    H240275   1.894   0.277   2.879 -0.5334 -0.7259 -0.0935
 6214TIP3   OH240276   3.851   0.588   7.808  0.3221 -0.0669 -0.2031
 6214TIP3    H140277   3.836   0.494   7.810  1.1156 -0.1975 -0.2936
 6214TIP3    H240278   3.912   0.605   7.879 -0.2469  0.4612  0.1698
 6215TIP3   OH240279   4.789   2.942   0.428  0.0145  0.1139  0.4054
 6215TIP3    H140280   4.801   3.017   0.369 -0.8915 -0.3200 -0.3601
 6215TIP3    H240281   4.799   2.979   0.516  0.1333  1.0265  0.0227
 6216TIP3   OH240282   1.858   6.435   2.625  0.1017 -0.7870 -0.2445
 6216TIP3    H140283   1.873   6.385   2.706  2.1319 -1.1919 -0.8295
 6216TIP3    H240284   1.873   6.372   2.555  1.2920  0.2661 -0.9691
 6217TIP3   OH240285   2.980   2.725   2.540  0.6313 -0.6020  0.3354
 6217TIP3    H140286   3.074   2.720   2.558  0.8845  0.0012 -0.7571
 6217TIP3    H240287   2.944   2.645   2.578  1.8062 -1.6025 -0.5770
 6218TIP3   OH240288   3.265   3.261   2.108  0.4858  0.4827  0.1062
 6218TIP3    H140289   3.316   3.221   2.039  0.8975  0.9660  0.1247
 6218TIP3    H240290   3.242   3.189   2.166 -0.8109 -0.1204 -1.0967
 6219TIP3   OH240291   4.950   6.093   7.959 -0.2862  0.0083  0.6620
 6219TIP3    H140292   4.931   6.067   8.049  0.6900  1.1543  1.2368
 6219TIP3    H240293   4.867   6.128   7.925 -0.6021 -0.2118  1.2047
 6220TIP3   OH240294   5.569   5.234   0.739 -0.4019  0.3815 -0.5537
 6220TIP3    H140295   5.588   5.275   0.823 -1.6411  0.2440 -0.1926
 6220TIP3    H240296   5.475   5.222   0.739 -0.5884  1.4207 -2.4439
 6221TIP3   OH240297   2.303   2.110   2.531  0.3159 -0.1047 -0.1500
 6221TIP3    H140298   2.269   2.022   2.546 -0.3576 -0.4705 -3.3113
 6221TIP3    H240299   2.230   2.168   2.551 -0.6735 -0.5897 -2.1251
 6222TIP3   OH240300   1.460   5.264   2.737  0.3966  0.3234  0.3023
 6222TIP3    H140301   1.537   5.275   2.792  1.0488 -0.0831 -0.5142
 6222TIP3    H240302   1.475   5.323   2.663  1.4939 -2.0884 -1.5091
 6223TIP3   OH240303   1.232   0.391   1.150 -0.1257  0.0529 -0.0647
 6223TIP3    H140304   1.223   0.387   1.246 -1.5009  0.4936 -0.1548
 6223TIP3    H240305   1.289   0.466   1.134  1.7648 -1.1921  0.4584
 6224TIP3   OH240306   4.041   2.300   0.525  0.3746 -0.0944  0.2039
 6224TIP3    H140307   4.036   2.217   0.573 -0.1527 -0.7568 -0.9396
 6224TIP3    H240308   3.950   2.328   0.518  0.4220 -0.1063 -0.5436
 6225TIP3   OH240309   4.809   2.259   0.753  0.3351  0.0564  0.1025
 6225TIP3    H140310   4.847   2.180   0.789 -0.3865 -0.3882 -0.0849
 6225TIP3    H240311   4.781   2.235   0.665 -2.0593 -0.2186  0.8442
 6226TIP3   OH240312   1.001   6.405   9.173 -0.2702  0.1653  0.2405
 6226TIP3    H140313   1.025   6.393   9.265  2.8342  0.3787 -0.4263
 6226TIP3    H240314   0.964   6.493   9.169 -0.0409  0.3162  1.2074
 6227TIP3   OH240315   6.483   6.382   2.241  0.2893  0.6592 -0.5160
 6227TIP3    H140316   6.543   6.310   2.254 -0.2199 -0.0040 -1.6204
 6227TIP3    H240317   6.501   6.412   2.151 -0.4447  0.9927 -0.5608
 6228TIP3   OH240318   3.582   4.512   1.322 -0.0853  0.4109 -0.2861
 6228TIP3    H140319   3.509   4.458   1.353 -0.9426  2.7602  2.1458
 6228TIP3    H240320   3.539   4.588   1.282  0.9735  1.6171  0.7885
 6229TIP3   OH240321   3.295   1.603   1.833  0.4582 -0.1779 -0.0549
 6229TIP3    H140322   3.285   1.670   1.766  0.3338 -0.3079 -0.1667
 6229TIP3    H240323   3.227   1.623   1.898 -0.2446 -0.7884 -0.5866
 6230TIP3   OH240324   5.861   5.492   2.700 -0.0430  0.0506  0.6389
 6230TIP3    H140325   5.930   5.432   2.728  0.1592 -0.8272 -1.5087
 6230TIP3    H240326   5.908   5.570   2.670  0.1513 -0.7535 -1.3311
 6231TIP3   OH240327   6.666   3.754   1.525  0.6717  0.4581 -0.0507
 6231TIP3    H140328   6.701   3.745   1.436  1.3493  0.9311  0.1672
 6231TIP3    H240329   6.573   3.730   1.516  0.9165 -0.2906 -0.7276
 6232TIP3   OH240330   4.124   1.192   0.356  0.0490 -0.3903  0.3050
 6232TIP3    H140331   4.115   1.107   0.398 -2.0028  0.5934  2.0312
 6232TIP3    H240332   4.141   1.171   0.264  1.2408 -2.6134  0.9528
 6233TIP3   OH240333   3.600   5.812   0.218 -0.2638  0.0400 -0.0027
 6233TIP3    H140334   3.585   5.789   0.126  1.9880 -2.0910  0.0672
 6233TIP3    H240335   3.641   5.734   0.256  3.0081  2.3445  1.6868
 6234TIP3   OH240336   6.201   3.041   0.931 -0.1615  0.4908  0.4841
 6234TIP3    H140337   6.141   3.060   1.003 -2.3926  2.0681 -1.6294
 6234TIP3    H240338   6.257   3.119   0.925 -2.1208  1.8873 -1.3620
 6235TIP3   OH240339   4.137   0.881   0.464 -0.3747  0.1361  0.2336
 6235TIP3    H140340   4.194   0.820   0.510 -1.2642 -0.5932  0.3866
 6235TIP3    H240341   4.107   0.833   0.387  0.3018  0.9995 -0.5991
 6236TIP3   OH240342   0.450   5.475   8.220 -0.0410 -0.7583  0.2548
 6236TIP3    H140343   0.474   5.495   8.310  0.0701  1.1759 -0.1622
 6236TIP3    H240344   0.526   5.500   8.168 -1.5148  2.1979 -0.7335
 6237TIP3   OH240345   2.647   5.319   7.218 -0.4098  0.3311  0.4724
 6237TIP3    H140346   2.733   5.336   7.178  0.3306  0.4128  2.0181
 6237TIP3    H240347   2.589   5.384   7.178  0.4877  0.9826  0.1820
 6238TIP3   OH240348   3.202   1.657   8.299 -0.1593 -0.2647 -0.1103
 6238TIP3    H140349   3.268   1.590   8.316  0.1586  0.3873  1.3408
 6238TIP3    H240350   3.127   1.630   8.351  0.3700  1.0816  1.4171
 6239TIP3   OH240351   4.770   4.923   8.851  0.0637  0.2418  0.0144
 6239TIP3    H140352   4.850   4.878   8.878  0.2632  0.2604 -0.5269
 6239TIP3    H240353   4.800   4.988   8.787 -0.1873  1.2865  0.9274
 6240TIP3   OH240354   4.443   1.613   8.285 -0.0229  0.2844 -0.0425
 6240TIP3    H140355   4.494   1.694   8.284  1.6469 -0.7019  0.8006
 6240TIP3    H240356   4.483   1.561   8.354 -2.6292 -0.3163  1.1169
 6241TIP3   OH240357   4.318   6.502   1.616  0.1199  0.8045  0.3146
 6241TIP3    H140358   4.369   6.560   1.673 -0.4139  0.0508  1.5936
 6241TIP3    H240359   4.293   6.558   1.542  2.0922  1.4096  0.0298
 6242TIP3   OH240360   5.760   6.251   8.500  0.1784 -0.0360 -0.0873
 6242TIP3    H140361   5.830   6.315   8.505 -0.6235  0.8369  0.2851
 6242TIP3    H240362   5.764   6.203   8.583  0.5224 -0.1937 -0.1952
 6243TIP3   OH240363   5.647   2.429   8.899 -0.2725 -0.5114  0.6064
 6243TIP3    H140364   5.718   2.437   8.963 -0.3307 -0.2837  0.6420
 6243TIP3    H240365   5.665   2.347   8.854  0.9274  0.3326 -0.5053
 6244TIP3   OH240366   2.923   5.355   7.134 -0.2176 -0.7564  0.5188
 6244TIP3    H140367   2.950   5.264   7.149  0.7358 -0.3459  1.5306
 6244TIP3    H240368   2.995   5.393   7.084 -1.3190 -0.9285 -1.2583
 6245TIP3   OH240369   3.774   6.143   2.064  0.1585 -0.4863 -0.0288
 6245TIP3    H140370   3.760   6.130   1.970 -2.4342 -0.3869  0.2926
 6245TIP3    H240371   3.815   6.061   2.093 -0.6141 -1.2204 -0.9519
 6246TIP3   OH240372   6.111   5.050   1.487  0.2266  0.1275  0.0449
 6246TIP3    H140373   6.203   5.068   1.468  0.5858 -0.4493  1.0955
 6246TIP3    H240374   6.065   5.065   1.405  1.1808  0.9694 -0.3511
 6247TIP3   OH240375   1.923   6.475   1.708  0.6272 -0.7863 -0.2141
 6247TIP3    H140376   1.847   6.433   1.668 -0.2882  0.2887  0.3288
 6247TIP3    H240377   1.994   6.413   1.697 -0.4690 -2.0725 -0.2362
 6248TIP3   OH240378   5.800   5.548   0.753 -0.1597  0.0660  0.4106
 6248TIP3    H140379   5.876   5.493   0.772  0.4038  0.6470 -0.1027
 6248TIP3    H240380   5.835   5.636   0.745 -0.6614  0.1690 -1.1507
 6249TIP3   OH240381   3.804   3.169   8.755 -0.6640 -0.0578  0.0930
 6249TIP3    H140382   3.740   3.194   8.687 -0.2876  0.7393  0.0149
 6249TIP3    H240383   3.812   3.248   8.809 -0.1673 -0.3445  0.4360
 6250TIP3   OH240384   0.182   4.878   1.074  0.0102  0.5314 -0.2635
 6250TIP3    H140385   0.125   4.852   1.001 -1.1281 -1.7417  1.3181
 6250TIP3    H240386   0.143   4.835   1.151  3.0483  0.0356  1.1246
 6251TIP3   OH240387   6.287   1.004   8.305  0.4782  0.1807 -0.5544
 6251TIP3    H140388   6.214   1.066   8.313 -0.1870 -0.6104 -0.3279
 6251TIP3    H240389   6.246   0.918   8.313  1.2469 -0.3372 -1.8488
 6252TIP3   OH240390   2.356   0.178   1.417  0.0378 -0.1894  0.8317
 6252TIP3    H140391   2.303   0.101   1.433  0.5351 -0.3118  1.9986
 6252TIP3    H240392   2.293   0.249   1.403 -0.4192 -0.6977  0.2880
 6253TIP3   OH240393   0.354   6.326   1.685  0.4274  0.8780  0.0286
 6253TIP3    H140394   0.274   6.356   1.641  0.5357 -0.6919 -1.3114
 6253TIP3    H240395   0.340   6.350   1.777 -1.2770  1.2909 -0.2964
 6254TIP3   OH240396   3.167   3.067   0.160  0.5004  0.2351  0.3577
 6254TIP3    H140397   3.125   3.150   0.182 -0.0244  0.1704 -0.3832
 6254TIP3    H240398   3.101   3.018   0.113  1.2277 -0.0796 -0.3677
 6255TIP3   OH240399   2.374   4.298   1.327  0.4793 -0.5721  0.2606
 6255TIP3    H140400   2.332   4.247   1.258  2.0718 -2.5866  0.7004
 6255TIP3    H240401   2.449   4.338   1.283  1.9542 -2.4945  0.9147
 6256TIP3   OH240402   2.350   0.491   0.588 -0.0509 -0.2950 -0.2679
 6256TIP3    H140403   2.323   0.578   0.617  1.5765  0.2068 -0.1794
 6256TIP3    H240404   2.312   0.430   0.652 -1.2625  0.3265 -0.3757
 6257TIP3   OH240405   6.312   0.624   1.275 -0.1542 -0.3965 -0.3878
 6257TIP3    H140406   6.221   0.638   1.302 -0.1693 -0.5688 -0.3478
 6257TIP3    H240407   6.335   0.703   1.227  0.2960  0.5116  1.2557
 6258TIP3   OH240408   5.279   6.535   7.830  0.5575  1.0874  0.4248
 6258TIP3    H140409   5.372   6.544   7.853  0.5057  0.2406  1.0001
 6258TIP3    H240410   5.258   6.444   7.851 -0.0365  0.8552 -1.0609
 6259TIP3   OH240411   6.272   1.539   9.189 -0.5555 -0.2561  0.6096
 6259TIP3    H140412   6.213   1.502   9.255  0.3660  0.1297  1.6831
 6259TIP3    H240413   6.214   1.588   9.131 -1.6538 -2.2815 -0.1178
 6260TIP3   OH240414   0.402   3.888   8.558  0.0235 -0.0038 -0.0489
 6260TIP3    H140415   0.319   3.870   8.602 -0.1112 -0.2867 -0.4084
 6260TIP3    H240416   0.380   3.952   8.490 -0.0269 -0.5491 -0.5545
 6261TIP3   OH240417   4.313   1.883   0.556 -0.1222 -0.0388 -0.2682
 6261TIP3    H140418   4.333   1.966   0.601 -1.2649  0.3291 -0.3989
 6261TIP3    H240419   4.383   1.873   0.492  1.7564 -0.7468  1.7616
 6262TIP3   OH240420   2.504   0.101   0.080 -0.5687 -0.2775  0.4702
 6262TIP3    H140421   2.479   0.108   0.172 -1.0564 -2.0959  0.5319
 6262TIP3    H240422   2.581   0.157   0.071 -0.7195  0.1982  1.8944
 6263TIP3   OH240423   1.297   1.305   0.339 -0.2817  0.3530 -0.0599
 6263TIP3    H140424   1.302   1.250   0.417 -1.0892 -0.8314 -0.8135
 6263TIP3    H240425   1.216   1.354   0.349 -0.7456 -0.3226 -0.4821
 6264TIP3   OH240426   0.058   6.326   2.558 -0.2842 -0.2547 -0.1775
 6264TIP3    H140427   0.012   6.319   2.474 -0.6120 -1.5519  0.0865
 6264TIP3    H240428   0.135   6.269   2.548  0.9776  1.4118 -0.3928
 6265TIP3   OH240429   1.320   4.402   1.535 -0.2796  0.2338 -0.1594
 6265TIP3    H140430   1.380   4.366   1.599  1.3695  1.2998 -1.0494
 6265TIP3    H240431   1.361   4.483   1.505 -0.6712 -0.4974 -2.9739
 6266TIP3   OH240432   5.206   2.251   0.123  0.8565 -0.4967 -0.7807
 6266TIP3    H140433   5.142   2.242   0.193  0.2197 -0.7706 -1.3896
 6266TIP3    H240434   5.156   2.285   0.049  1.1447 -1.8986 -1.6499
 6267TIP3   OH240435   1.810   1.339   0.031  0.4496  0.3244 -0.4352
 6267TIP3    H140436   1.897   1.337  -0.009 -0.5382 -0.3632 -2.7223
 6267TIP3    H240437   1.752   1.367  -0.039 -1.0142  2.4604  1.5034
 6268TIP3   OH240438   5.858   0.978   8.831  0.1607 -0.2738 -0.3246
 6268TIP3    H140439   5.940   0.971   8.881 -0.9458 -0.9218  1.5206
 6268TIP3    H240440   5.865   1.061   8.784  0.9755  0.7821  1.5453
 6269TIP3   OH240441   1.325   6.669   2.107 -0.2149 -0.4493  0.8116
 6269TIP3    H140442   1.258   6.730   2.135 -0.8514 -0.1797 -1.1129
 6269TIP3    H240443   1.399   6.725   2.081 -1.0780 -0.3252 -1.6951
 6270TIP3   OH240444   2.365   1.217   1.617 -0.3670  0.5381 -0.5478
 6270TIP3    H140445   2.290   1.164   1.643 -0.3760  0.8047 -0.0035
 6270TIP3    H240446   2.357   1.296   1.671 -0.1092  0.8900 -1.0267
 6271TIP3   OH240447   3.443   0.199   8.640 -0.2398  0.3226  0.9698
 6271TIP3    H140448   3.401   0.285   8.648 -1.9389 -0.3410 -0.3058
 6271TIP3    H240449   3.534   0.219   8.619 -1.0231  1.8456 -1.3369
 6272TIP3   OH240450   4.265   5.239   0.927 -0.0703 -0.2280 -0.0820
 6272TIP3    H140451   4.342   5.182   0.929  1.7474  2.0070  3.1123
 6272TIP3    H240452   4.300   5.326   0.910 -2.1563  0.6179 -0.2870
 6273TIP3   OH240453   3.023   6.615   2.504 -0.4860  0.9829 -0.1274
 6273TIP3    H140454   3.020   6.519   2.497 -0.6113  0.7134  2.6934
 6273TIP3    H240455   3.115   6.635   2.521 -0.5272  1.3277 -0.3027
 6274TIP3   OH240456   4.148   0.522   8.315 -0.4851  0.4743  0.0350
 6274TIP3    H140457   4.054   0.508   8.313 -0.3488 -0.4463 -0.7733
 6274TIP3    H240458   4.185   0.440   8.282  0.7525 -0.7376  3.8874
 6275TIP3   OH240459   6.687   1.853   2.882  0.1876 -0.0542 -0.5600
 6275TIP3    H140460   6.639   1.912   2.941  0.9177  0.3634 -0.3680
 6275TIP3    H240461   6.775   1.848   2.920  0.3475 -0.6683 -1.0045
 6276TIP3   OH240462   6.539   4.589   8.828 -0.8921  0.3163  0.0241
 6276TIP3    H140463   6.599   4.527   8.870 -2.0075 -0.3127  0.7616
 6276TIP3    H240464   6.586   4.672   8.827 -0.7418  0.3422  2.4884
 6277TIP3   OH240465   1.781   2.150   1.305  0.3964  0.3310 -0.4134
 6277TIP3    H140466   1.785   2.173   1.398 -1.9294  2.7336 -0.7864
 6277TIP3    H240467   1.852   2.199   1.265  0.3337  0.6935 -0.0963
 6278TIP3   OH240468   2.881   0.836   8.255 -0.6692 -0.0968 -0.1972
 6278TIP3    H140469   2.819   0.900   8.221 -0.6232  1.0605  1.7088
 6278TIP3    H240470   2.842   0.807   8.338  0.7120 -0.2904  0.4146
 6279TIP3   OH240471   1.177   0.838   2.792  0.0030 -0.0671 -0.2052
 6279TIP3    H140472   1.264   0.820   2.756 -0.3359 -0.1775 -0.9751
 6279TIP3    H240473   1.141   0.751   2.811  0.9537 -0.0081  2.3540
 6280TIP3   OH240474   4.009   2.760   1.050 -0.3984 -0.0920  0.0554
 6280TIP3    H140475   4.095   2.803   1.044 -0.5081  0.4674  1.7451
 6280TIP3    H240476   4.028   2.674   1.088 -0.5187 -0.2065 -0.1455
 6281TIP3   OH240477   6.134   3.053   1.442  0.4912 -0.3168  0.2254
 6281TIP3    H140478   6.186   3.055   1.362  0.1785 -3.7005 -0.2130
 6281TIP3    H240479   6.178   2.988   1.497 -0.7171  0.0884  1.7246
 6282TIP3   OH240480   1.040   6.676   2.591  0.0101 -0.4338  0.2769
 6282TIP3    H140481   0.945   6.669   2.597 -0.0047 -1.4905 -0.6958
 6282TIP3    H240482   1.060   6.767   2.612 -1.1182 -0.4233  1.4244
 6283TIP3   OH240483   4.600   1.709   0.184  0.0938 -0.3614  0.2380
 6283TIP3    H140484   4.662   1.734   0.116  0.7141  0.5180  1.0949
 6283TIP3    H240485   4.622   1.619   0.205 -1.1063 -1.1836 -1.7651
 6284TIP3   OH240486   1.339   3.521   8.577  0.1481  0.0871 -0.1409
 6284TIP3    H140487   1.365   3.459   8.508  1.7000  1.8235 -1.2283
 6284TIP3    H240488   1.256   3.556   8.547  0.3235  0.0941 -0.6314
 6285TIP3   OH240489   5.539   5.293   7.899  0.2803  0.2950  0.5102
 6285TIP3    H140490   5.612   5.267   7.956  0.5542  0.0234  0.0439
 6285TIP3    H240491   5.547   5.236   7.822 -1.7318 -1.2685  1.3797
 6286TIP3   OH240492   3.520   2.783   1.970 -0.2320 -0.3274 -0.1737
 6286TIP3    H140493   3.445   2.762   2.025  1.3286 -0.5947  1.9866
 6286TIP3    H240494   3.532   2.705   1.916 -0.7742 -0.7772  0.3412
 6287TIP3   OH240495   2.051   5.036   7.535 -0.0873  0.0929 -0.3276
 6287TIP3    H140496   1.993   5.094   7.485  0.7233  0.1557 -1.2224
 6287TIP3    H240497   2.139   5.065   7.513  0.2986  0.1063  1.1548
 6288TIP3   OH240498   2.326   2.287   8.709 -0.6157 -0.0092  0.3241
 6288TIP3    H140499   2.272   2.264   8.633 -0.2829  0.6272 -0.1157
 6288TIP3    H240500   2.263   2.314   8.776 -0.9296 -0.8724  0.3943
 6289TIP3   OH240501   2.722   6.591   0.206 -0.2392 -0.1429 -0.0109
 6289TIP3    H140502   2.752   6.682   0.206  0.1168 -0.2410 -1.4385
 6289TIP3    H240503   2.692   6.576   0.296 -1.4249  1.7464 -0.0195
 6290TIP3   OH240504   0.953   6.266   8.730 -0.4774 -0.0372  0.2503
 6290TIP3    H140505   0.860   6.280   8.716 -0.8902 -0.0917  2.5974
 6290TIP3    H240506   0.961   6.172   8.747 -0.6161  0.4523  3.6605
 6291TIP3   OH240507   1.514   5.121   8.558 -0.0657 -0.0525 -0.3572
 6291TIP3    H140508   1.586   5.183   8.564  0.3206 -0.6037  1.1208
 6291TIP3    H240509   1.555   5.038   8.537 -0.6058  0.1691 -2.5907
 6292TIP3   OH240510   0.642   2.224   1.981  0.0693  0.4745  0.5489
 6292TIP3    H140511   0.570   2.186   2.033 -1.0851  2.8532  0.8185
 6292TIP3    H240512   0.659   2.158   1.913 -3.2091  0.2445 -0.2500
 6293TIP3   OH240513   1.729   2.941   1.931  0.2275  0.4210 -0.2529
 6293TIP3    H140514   1.819   2.974   1.935  0.2740  0.3153 -0.4257
 6293TIP3    H240515   1.699   2.965   1.844  0.3261 -0.1576 -0.4523
 6294TIP3   OH240516   2.631   4.885   7.826 -0.3465  0.5706 -0.3917
 6294TIP3    H140517   2.633   4.972   7.787  1.5730  1.5550  1.7243
 6294TIP3    H240518   2.704   4.839   7.785 -1.3625 -0.1065 -1.5127
 6295TIP3   OH240519   0.923   5.669   8.012 -0.0698  0.4339 -0.5522
 6295TIP3    H140520   0.967   5.753   8.023  0.2688  0.1620  0.2916
 6295TIP3    H240521   0.989   5.612   7.972  0.0272  0.3006 -0.2071
 6296TIP3   OH240522   4.921   3.065   1.254 -0.1769 -0.2039  0.2074
 6296TIP3    H140523   4.947   2.979   1.221  1.5046  1.1379 -2.2940
 6296TIP3    H240524   4.837   3.084   1.212 -0.5924 -0.6373  0.8317
 6297TIP3   OH240525   5.569   4.820   7.728  0.2456  0.0106 -0.5227
 6297TIP3    H140526   5.527   4.738   7.701  0.5907  0.1817 -1.6400
 6297TIP3    H240527   5.662   4.806   7.707  0.4091  0.4318 -0.0726
 6298TIP3   OH240528   3.095   1.801   0.358  0.0080 -0.1018  0.2620
 6298TIP3    H140529   3.144   1.721   0.378  1.9998  0.9043 -0.2643
 6298TIP3    H240530   3.011   1.771   0.325  0.8899 -1.9971 -0.4108
 6299TIP3   OH240531   1.407   0.976   1.094  0.0049  0.1989  0.0974
 6299TIP3    H140532   1.392   1.026   1.014  1.2947  0.7059  0.1594
 6299TIP3    H240533   1.500   0.955   1.093  0.2172  0.8908  1.8431
 6300TIP3   OH240534   4.685   0.551   2.742  0.2790  0.1080 -0.6509
 6300TIP3    H140535   4.621   0.548   2.812  1.7850 -0.3391  0.7780
 6300TIP3    H240536   4.697   0.644   2.725  0.6327  0.2761  0.4239
 6301TIP3   OH240537   2.355   4.222   9.090  0.2610  0.0229 -0.2175
 6301TIP3    H140538   2.375   4.316   9.085  2.4986 -0.3903  0.0964
 6301TIP3    H240539   2.305   4.204   9.010 -0.3835  1.5003 -0.1784
 6302TIP3   OH240540   0.672   4.934   0.311  0.2304 -0.0501  0.2224
 6302TIP3    H140541   0.702   4.913   0.400  1.3567  0.9446  0.1159
 6302TIP3    H240542   0.595   4.989   0.324  1.1634  1.2329  0.6701
 6303TIP3   OH240543   6.245   2.350   1.671  0.1161 -0.3697  0.1545
 6303TIP3    H140544   6.171   2.319   1.618  1.2471  0.0979 -1.8074
 6303TIP3    H240545   6.211   2.425   1.719 -0.4067  0.6406 -1.6964
 6304TIP3   OH240546   5.091   3.451   8.984  0.2951 -0.1782 -0.1759
 6304TIP3    H140547   5.060   3.361   8.994 -1.2780  0.3358 -0.0851
 6304TIP3    H240548   5.095   3.485   9.073  2.1231 -0.5067 -0.0937
 6305TIP3   OH240549   5.010   5.772   0.933  0.5937  0.3986 -0.4124
 6305TIP3    H140550   5.032   5.679   0.931  0.9022  0.4207  0.9565
 6305TIP3    H240551   4.914   5.773   0.937  0.5908  0.1495 -0.3715
 6306TIP3   OH240552   4.144   2.174   7.858  0.0681 -0.0804  0.0769
 6306TIP3    H140553   4.093   2.186   7.778  0.8321  1.0723 -0.2495
 6306TIP3    H240554   4.204   2.103   7.838 -0.2415 -0.2944 -0.1110
 6307TIP3   OH240555   4.197   4.080   0.571 -0.3612  0.7048 -0.0147
 6307TIP3    H140556   4.257   4.154   0.576  1.2906 -0.5326 -0.5896
 6307TIP3    H240557   4.183   4.054   0.662  0.4540  0.6652  0.1112
 6308TIP3   OH240558   0.002   2.053   0.695  0.0061 -0.3926  0.5497
 6308TIP3    H140559   0.084   2.089   0.728  0.0130 -0.4511  0.5953
 6308TIP3    H240560  -0.053   2.130   0.680 -0.2121 -0.4114  1.2639
 6309TIP3   OH240561   5.182   0.757   1.851  0.0439 -0.3395 -0.1497
 6309TIP3    H140562   5.145   0.791   1.770  2.0980 -0.7289 -1.3224
 6309TIP3    H240563   5.200   0.835   1.903  0.3309  0.0579 -0.8240
 6310TIP3   OH240564   4.046   2.450   1.959 -0.4253 -1.0845  0.4116
 6310TIP3    H140565   4.085   2.384   1.901 -2.3443 -1.3386 -0.6934
 6310TIP3    H240566   3.959   2.415   1.979 -2.0109  1.5792 -1.2101
 6311TIP3   OH240567   1.392   1.237   1.793  0.0385 -0.3851 -0.1712
 6311TIP3    H140568   1.338   1.315   1.810  1.4110  0.3337  1.1335
 6311TIP3    H240569   1.423   1.249   1.703 -2.6055 -1.2737 -1.3166
 6312TIP3   OH240570   1.519   0.705   2.579 -0.3596 -0.2300 -0.1903
 6312TIP3    H140571   1.607   0.674   2.601 -0.2699 -0.2411 -0.5580
 6312TIP3    H240572   1.461   0.633   2.605 -0.3775  0.2003  1.0648
 6313TIP3   OH240573   6.327   1.759   1.524  0.4452  0.5123  0.1765
 6313TIP3    H140574   6.238   1.734   1.498  0.5185  0.9789 -0.5600
 6313TIP3    H240575   6.330   1.854   1.511  1.8590  0.2095 -2.4697
 6314TIP3   OH240576   2.684   1.539   8.367  0.4388  0.1905 -0.3454
 6314TIP3    H140577   2.591   1.558   8.351  1.0481  1.1861 -3.2244
 6314TIP3    H240578   2.712   1.608   8.428 -0.6313 -0.0330  0.4397
 6315TIP3   OH240579   2.063   5.590   1.550 -0.5568 -0.0254  0.0266
 6315TIP3    H140580   2.006   5.550   1.615 -1.1616  2.0386  0.8571
 6315TIP3    H240581   2.025   5.564   1.466  0.0187 -2.4129  0.4345
 6316TIP3   OH240582   4.538   4.220   0.177 -0.0542  0.2362 -0.1119
 6316TIP3    H140583   4.473   4.164   0.220  0.2713 -0.5472 -0.6164
 6316TIP3    H240584   4.605   4.159   0.146  0.0758  0.8506 -1.0728
 6317TIP3   OH240585   0.834   5.302   3.008  0.0266 -0.0552  0.2156
 6317TIP3    H140586   0.804   5.333   2.923  0.6608  0.8450  0.3067
 6317TIP3    H240587   0.917   5.347   3.022 -0.2426  0.1014  1.4650
 6318TIP3   OH240588   1.168   3.536   8.368 -0.4111  0.0117  0.4339
 6318TIP3    H140589   1.145   3.617   8.323  4.8568  1.3819 -0.4517
 6318TIP3    H240590   1.167   3.469   8.300  0.4715  0.5303 -0.0985
 6319TIP3   OH240591   3.102   4.334   1.415  0.5501 -0.1397 -0.9671
 6319TIP3    H140592   3.139   4.391   1.482 -1.5761 -0.3879  0.4932
 6319TIP3    H240593   3.075   4.255   1.462 -1.4181 -0.1372 -2.0004
 6320TIP3   OH240594   5.466   0.312   1.784 -0.3284 -0.3848 -0.4144
 6320TIP3    H140595   5.388   0.367   1.782 -0.2689 -0.2349  0.6292
 6320TIP3    H240596   5.517   0.338   1.708 -1.1082 -0.1987 -0.8769
 6321TIP3   OH240597   5.735   3.426   7.724 -0.2401 -0.5101 -0.2065
 6321TIP3    H140598   5.725   3.353   7.784 -0.4870 -1.6221 -1.5366
 6321TIP3    H240599   5.684   3.400   7.647 -0.1652  0.9840 -0.7921
 6322TIP3   OH240600   6.607   5.193   1.588 -0.5265  0.8645  0.2311
 6322TIP3    H140601   6.539   5.205   1.654 -1.0425 -0.5506  0.0004
 6322TIP3    H240602   6.645   5.280   1.576 -2.4431  1.7487  0.1974
 6323TIP3   OH240603   6.643   2.527   8.008 -0.0405  0.3178 -0.3575
 6323TIP3    H140604   6.592   2.579   8.070 -0.8296 -1.1704  0.2780
 6323TIP3    H240605   6.735   2.548   8.028 -0.2969  0.0456  1.1488
 6324TIP3   OH240606   0.922   1.478   8.782  0.1337  0.5521  0.0403
 6324TIP3    H140607   0.987   1.548   8.786  0.3526  0.5309 -2.0155
 6324TIP3    H240608   0.853   1.511   8.724 -0.1243 -0.6432 -0.3849
 6325TIP3   OH240609   2.210   1.860   7.308  0.1473 -0.0463  0.2669
 6325TIP3    H140610   2.160   1.794   7.356 -2.4112  1.4790 -0.0884
 6325TIP3    H240611   2.219   1.933   7.369  0.5653  0.3107 -0.2109
 6326TIP3   OH240612   2.926   5.266   1.664 -0.2040 -0.5576 -0.0967
 6326TIP3    H140613   2.843   5.237   1.626  0.2196 -1.3543 -0.4408
 6326TIP3    H240614   2.921   5.362   1.661 -1.5970 -0.5605  0.9624
 6327TIP3   OH240615   1.719   3.298   7.477  0.3817 -0.2576  0.3734
 6327TIP3    H140616   1.636   3.253   7.456 -0.1799 -0.0527  1.9962
 6327TIP3    H240617   1.785   3.251   7.426 -0.6740 -0.6324 -0.7123
 6328TIP3   OH240618   6.590   1.580   0.369 -0.0220 -0.3026  0.6916
 6328TIP3    H140619   6.614   1.507   0.311  0.9846  0.2220  0.4159
 6328TIP3    H240620   6.519   1.625   0.324  0.1379 -0.4383  0.2995
 6329TIP3   OH240621   5.915   0.870   2.056 -0.0846  0.0263  0.3978
 6329TIP3    H140622   5.970   0.948   2.056 -1.1390  0.8255  1.9166
 6329TIP3    H240623   5.901   0.849   1.964  2.3532  0.0515 -0.0399
 6330TIP3   OH240624   5.609   0.919   1.736  0.3709 -1.0136 -0.1400
 6330TIP3    H140625   5.579   0.848   1.679  1.7686 -0.2402 -1.9735
 6330TIP3    H240626   5.548   0.991   1.719 -0.3451 -1.3805  0.8222
 6331TIP3   OH240627   1.205   3.650   8.055 -0.3674  0.0124  0.3200
 6331TIP3    H140628   1.187   3.665   7.962 -1.2196  0.5827  0.5585
 6331TIP3    H240629   1.273   3.715   8.077 -0.6657  0.3494  0.2531
 6332TIP3   OH240630   5.843   1.121   3.047 -0.4146 -0.1224 -0.2122
 6332TIP3    H140631   5.879   1.046   2.999  0.3529  0.7181 -0.9925
 6332TIP3    H240632   5.880   1.114   3.135 -2.2696 -1.9945  0.4967
 6333TIP3   OH240633   2.591   3.590   8.305  0.6240  0.4217 -0.2459
 6333TIP3    H140634   2.523   3.533   8.271  1.0829 -0.9668  1.0302
 6333TIP3    H240635   2.642   3.616   8.228  0.3200 -0.8019 -0.8845
 6334TIP3   OH240636   4.744   3.045   2.408 -0.0943 -0.2530  0.0296
 6334TIP3    H140637   4.687   2.980   2.451  0.3871 -0.9299 -0.3530
 6334TIP3    H240638   4.769   3.104   2.479  1.3292 -1.8118  0.8978
 6335TIP3   OH240639   0.943   2.054   0.532  0.3850 -0.1581 -0.2593
 6335TIP3    H140640   0.858   2.012   0.520 -0.3903  1.5037 -0.8291
 6335TIP3    H240641   0.962   2.043   0.625 -1.4154  1.1586  0.3078
 6336TIP3   OH240642   4.143   0.802   1.071 -0.2957  0.0741  0.5297
 6336TIP3    H140643   4.102   0.849   1.142 -1.1827 -2.1144  1.5670
 6336TIP3    H240644   4.134   0.859   0.994 -1.2621  1.5307  1.6928
 6337TIP3   OH240645   4.584   0.876   8.303  0.2492  0.4392  0.0659
 6337TIP3    H140646   4.495   0.910   8.297 -0.3796 -1.3203 -1.2385
 6337TIP3    H240647   4.606   0.849   8.213  2.5013  1.7546  0.1356
 6338TIP3   OH240648   4.703   1.134   3.534 -0.5424 -0.0860  0.1141
 6338TIP3    H140649   4.649   1.114   3.457  1.3060 -1.8046 -0.8171
 6338TIP3    H240650   4.702   1.230   3.540 -0.1124  0.1560 -2.5346
 6339TIP3   OH240651   6.628   2.124   2.537 -0.5397  0.0004 -0.8604
 6339TIP3    H140652   6.577   2.154   2.612 -1.2966 -0.9439 -0.9872
 6339TIP3    H240653   6.718   2.153   2.557 -1.0273  1.3186 -0.4520
 6340TIP3   OH240654   0.394   2.473   0.758  0.4663 -0.1504  0.0658
 6340TIP3    H140655   0.382   2.464   0.853  1.0868 -0.2828  0.1340
 6340TIP3    H240656   0.488   2.487   0.747  0.4743 -0.6730 -0.5764
 6341TIP3   OH240657   0.085   5.013   2.897  0.0076 -0.3428  0.1181
 6341TIP3    H140658   0.100   5.025   2.803  1.9652 -1.7414  0.1978
 6341TIP3    H240659   0.124   5.091   2.937  0.2162 -0.3120 -0.1430
 6342TIP3   OH240660   2.035   6.543   1.464  0.1735  0.0247 -0.2347
 6342TIP3    H140661   2.064   6.550   1.555  0.8945  2.3535 -0.5755
 6342TIP3    H240662   2.112   6.570   1.412 -0.2680 -1.1131 -1.5407
 6343TIP3   OH240663   6.162   2.926   1.906  0.5776  0.2169  0.3364
 6343TIP3    H140664   6.198   3.012   1.883  1.1464  0.3189  1.5308
 6343TIP3    H240665   6.070   2.943   1.923  0.5001  0.4271 -0.2535
 6344TIP3   OH240666   2.184   0.509   2.182  0.0311 -0.2715  0.3491
 6344TIP3    H140667   2.092   0.537   2.178 -0.3041 -1.3615 -0.0191
 6344TIP3    H240668   2.179   0.416   2.203  1.1175  0.0033  2.0339
 6345TIP3   OH240669   0.093   2.455   8.787 -0.1653 -0.0293 -0.0789
 6345TIP3    H140670   0.064   2.541   8.757 -1.0185 -0.0804  0.5468
 6345TIP3    H240671   0.153   2.425   8.719 -0.0910  0.9264 -0.4538
 6346TIP3   OH240672   4.817   5.542   9.003  0.0444  0.5340 -0.2144
 6346TIP3    H140673   4.755   5.487   9.051  0.3000  2.6418  2.8267
 6346TIP3    H240674   4.891   5.553   9.062  0.5214  3.1127 -1.1416
 6347TIP3   OH240675   4.812   4.701   2.328  0.0760 -0.2821  0.5916
 6347TIP3    H140676   4.845   4.718   2.416  0.5652  0.2214  0.3155
 6347TIP3    H240677   4.813   4.787   2.285 -1.3909 -0.2749  0.4996
 6348TIP3   OH240678   1.935   0.744   2.046 -0.3179 -0.2473 -0.2956
 6348TIP3    H140679   1.922   0.672   1.983 -1.7480 -0.1503 -0.1480
 6348TIP3    H240680   1.902   0.821   2.000 -1.6120 -0.2185  0.6442
 6349TIP3   OH240681   3.166   0.956   0.796 -0.1974 -0.8063 -0.1371
 6349TIP3    H140682   3.116   0.919   0.869 -0.0216 -1.3416 -0.2863
 6349TIP3    H240683   3.154   0.893   0.725  0.1274 -0.5896 -0.3841
 6350TIP3   OH240684   0.023   3.811   8.292 -0.1138  0.2200 -0.2192
 6350TIP3    H140685   0.066   3.855   8.365 -1.2406  0.3914  0.3657
 6350TIP3    H240686  -0.069   3.805   8.318 -0.0615 -2.3460 -0.3330
 6351TIP3   OH240687   0.728   2.542   0.257  0.7580  0.4574  0.9306
 6351TIP3    H140688   0.789   2.572   0.190  0.2283  0.5847  0.4942
 6351TIP3    H240689   0.771   2.466   0.298  0.0713 -1.1734 -1.2046
 6352TIP3   OH240690   2.576   3.351   1.471  0.0440 -0.0106 -0.3995
 6352TIP3    H140691   2.545   3.438   1.496 -1.0604 -0.1480 -1.2253
 6352TIP3    H240692   2.577   3.302   1.553 -1.5531  0.1225 -0.2761
 6353TIP3   OH240693   0.031   2.045   1.225  0.9340 -0.1367 -0.0688
 6353TIP3    H140694  -0.028   1.981   1.263  0.9408 -0.2107 -0.1832
 6353TIP3    H240695   0.059   2.006   1.142  0.5324  0.2361 -0.3855
 6354TIP3   OH240696   4.342   3.025   8.093  0.4851 -0.2628  0.3845
 6354TIP3    H140697   4.345   3.048   8.186  1.2458 -0.2250  0.3531
 6354TIP3    H240698   4.273   3.081   8.057 -0.1302 -0.5986  1.0081
 6355TIP3   OH240699   1.147   4.554   1.810 -0.2279  0.1923  0.1027
 6355TIP3    H140700   1.135   4.644   1.780 -1.4118  0.6454  1.7579
 6355TIP3    H240701   1.170   4.505   1.731  2.0699  2.1883 -0.5999
 6356TIP3   OH240702   1.231   1.614   1.316  0.1214  0.0072 -0.1292
 6356TIP3    H140703   1.323   1.639   1.320  0.7308 -1.7310 -1.8096
 6356TIP3    H240704   1.206   1.602   1.408  1.5971  0.4330  0.3568
 6357TIP3   OH240705   4.970   4.583   2.756  0.6973  0.0404  0.0670
 6357TIP3    H140706   4.883   4.545   2.742  1.4327 -2.1535  0.9195
 6357TIP3    H240707   5.031   4.515   2.729  2.1226 -0.1178  3.1492
 6358TIP3   OH240708   1.750   2.659   1.623  0.6096 -1.0218 -0.1893
 6358TIP3    H140709   1.831   2.631   1.581  2.1519  1.1132  1.1631
 6358TIP3    H240710   1.732   2.590   1.688  2.3312 -0.7336  0.6518
 6359TIP3   OH240711   1.458   1.029   8.475 -0.7383 -0.4776 -0.0110
 6359TIP3    H140712   1.400   1.074   8.413  0.1906  0.7623 -0.0104
 6359TIP3    H240713   1.527   0.992   8.421 -0.4041 -0.1522  0.1935
 6360TIP3   OH240714   0.704   2.430   2.640 -0.4756 -0.0586 -0.0814
 6360TIP3    H140715   0.658   2.465   2.563 -1.0390  0.8224  0.6283
 6360TIP3    H240716   0.634   2.402   2.699 -0.0800  0.1736  0.5048
 6361TIP3   OH240717   5.167   1.062   1.501 -0.1183  0.0671  0.3317
 6361TIP3    H140718   5.202   0.981   1.464 -0.8923 -0.3185  0.4275
 6361TIP3    H240719   5.126   1.106   1.427  0.6480  0.5709  0.1968
 6362TIP3   OH240720   2.430   4.872   0.830 -0.2188 -0.0510 -0.3417
 6362TIP3    H140721   2.355   4.842   0.881  0.5934 -1.2153  0.2328
 6362TIP3    H240722   2.411   4.845   0.740 -1.1219  0.9412 -0.4551
 6363TIP3   OH240723   1.873   1.034   8.727 -0.3057 -0.1752  0.1344
 6363TIP3    H140724   1.914   0.987   8.655 -0.3982 -0.1417  0.0602
 6363TIP3    H240725   1.798   1.079   8.688 -0.4486 -0.2825  0.2827
 6364TIP3   OH240726   6.097   0.528   3.183  0.1136 -0.2789 -0.4963
 6364TIP3    H140727   6.186   0.535   3.147  0.5108  0.9655  0.6174
 6364TIP3    H240728   6.094   0.597   3.250 -0.9197 -1.8036  1.1067
 6365TIP3   OH240729   5.206   4.201   8.854  0.1595  0.1991 -0.2186
 6365TIP3    H140730   5.118   4.191   8.892 -0.4457 -1.3551 -1.8992
 6365TIP3    H240731   5.258   4.134   8.898  0.5616  1.1453  0.8052
 6366TIP3   OH240732   0.298   4.214   9.090  0.8182  0.1046 -0.0919
 6366TIP3    H140733   0.334   4.131   9.119  2.0191  0.0308 -1.7019
 6366TIP3    H240734   0.319   4.220   8.997 -1.7088  0.9412 -0.7153
 6367TIP3   OH240735   5.843   4.269   0.882 -0.3714 -0.3060 -0.1734
 6367TIP3    H140736   5.795   4.332   0.936 -1.8547 -0.8256 -0.8202
 6367TIP3    H240737   5.920   4.246   0.933  0.2278  2.0422  0.0634
 6368TIP3   OH240738   6.469   0.286   8.184  0.6950 -0.0111  0.1526
 6368TIP3    H140739   6.399   0.220   8.191  1.4101 -0.8122 -0.0859
 6368TIP3    H240740   6.440   0.358   8.240 -0.2280 -0.4199  0.2175
 6369TIP3   OH240741   5.394   3.577   7.571  0.5141  0.1032  0.0217
 6369TIP3    H140742   5.475   3.599   7.526  0.6644  1.1386  0.7632
 6369TIP3    H240743   5.333   3.647   7.547  0.4479  0.4066  1.0045
 6370TIP3   OH240744   3.478   0.778   2.778 -0.2545  0.2996  0.1338
 6370TIP3    H140745   3.468   0.709   2.844 -0.1615 -0.2052 -0.3744
 6370TIP3    H240746   3.389   0.806   2.760 -0.3970 -0.5974 -0.6065
 6371TIP3   OH240747   0.669   0.697   2.096 -0.2856 -0.8073 -0.2578
 6371TIP3    H140748   0.694   0.607   2.118  0.6935 -0.8028 -1.3101
 6371TIP3    H240749   0.671   0.700   2.001 -0.8254  0.2022 -0.2478
 6372TIP3   OH240750   2.142   0.224   3.027 -0.0411 -0.0793  0.1188
 6372TIP3    H140751   2.098   0.215   3.111  1.9320 -3.1712  0.9883
 6372TIP3    H240752   2.115   0.147   2.976  0.0010  0.9276 -1.5065
 6373TIP3   OH240753   3.978   1.336   7.599 -0.4431  0.1129  0.0872
 6373TIP3    H140754   4.013   1.248   7.592  0.3970  0.5325 -1.6304
 6373TIP3    H240755   3.906   1.338   7.536 -0.1394  0.7727 -0.2517
 6374TIP3   OH240756   1.799   6.683   8.122  0.1556 -0.2243 -0.9697
 6374TIP3    H140757   1.891   6.664   8.143  0.0429 -1.2507 -1.3493
 6374TIP3    H240758   1.787   6.774   8.149  1.2751 -0.0840 -0.8796
 6375TIP3   OH240759   5.898   1.728   7.855 -0.1014 -0.5802  0.0794
 6375TIP3    H140760   5.840   1.775   7.796  1.0921 -0.6891 -1.2349
 6375TIP3    H240761   5.969   1.789   7.873  1.2331 -1.6330 -1.2859
 6376TIP3   OH240762   0.084   1.728   8.824  0.3402  0.6138  0.6108
 6376TIP3    H140763   0.061   1.780   8.900  1.7957  1.3354  0.5850
 6376TIP3    H240764   0.093   1.639   8.857  0.8009  0.8967  1.2517
 6377TIP3   OH240765   2.194   3.761   0.653 -0.5640  0.2225 -0.1116
 6377TIP3    H140766   2.153   3.804   0.728 -0.1526  0.0177  0.2324
 6377TIP3    H240767   2.288   3.763   0.672 -0.5864 -1.7074  0.3860
 6378TIP3   OH240768   5.466   1.274   0.198 -0.1272  0.1530 -0.4783
 6378TIP3    H140769   5.530   1.219   0.243 -1.8070 -0.6084  1.1356
 6378TIP3    H240770   5.509   1.299   0.116  1.7870 -1.2011  0.0366
 6379TIP3   OH240771   4.646   3.977   0.120  0.2163 -0.7309 -0.5534
 6379TIP3    H140772   4.579   3.919   0.084  0.9932 -1.3274 -1.0802
 6379TIP3    H240773   4.723   3.921   0.132  0.5952 -0.0889  0.1353
 6380TIP3   OH240774   3.313   3.126   7.983  0.9977 -0.0404 -0.5567
 6380TIP3    H140775   3.333   3.035   7.965  0.2401 -0.0892 -1.1838
 6380TIP3    H240776   3.244   3.149   7.921  0.7309  0.7751  0.0179
 6381TIP3   OH240777   4.638   0.282   2.974  0.0214 -0.1073 -0.2911
 6381TIP3    H140778   4.720   0.276   2.925 -0.3939 -0.1326 -0.9939
 6381TIP3    H240779   4.629   0.196   3.015  0.1162 -0.2594 -0.5856
 6382TIP3   OH240780   2.486   2.171   1.003  0.2922  1.5289  0.7401
 6382TIP3    H140781   2.521   2.097   1.053  2.0985  0.0380 -2.4768
 6382TIP3    H240782   2.405   2.137   0.964  0.6556  1.5223 -0.0199
 6383TIP3   OH240783   3.564   3.172   2.629  0.0636 -0.0003 -0.1724
 6383TIP3    H140784   3.622   3.109   2.585 -0.6784  0.6792 -2.2532
 6383TIP3    H240785   3.491   3.184   2.568 -1.2653  0.6817  1.4918
 6384TIP3   OH240786   6.078   0.813   8.685 -0.1422 -0.2837 -0.1372
 6384TIP3    H140787   5.996   0.839   8.728  0.4881 -0.0852  1.0115
 6384TIP3    H240788   6.146   0.855   8.738  0.7690 -1.6285 -0.1951
 6385TIP3   OH240789   6.390   3.273   0.961 -1.0285  0.0881  0.1731
 6385TIP3    H140790   6.367   3.290   0.870  0.1696 -0.4542 -0.2591
 6385TIP3    H240791   6.485   3.288   0.964 -0.5018 -2.7683  0.6002
 6386TIP3   OH240792   4.964   2.256   0.383  0.3101 -0.3810  0.5719
 6386TIP3    H140793   4.880   2.291   0.412  0.4197  0.4741 -0.1287
 6386TIP3    H240794   5.024   2.330   0.387  0.8838 -0.8268  0.4193
 6387TIP3   OH240795   0.108   3.265   8.870  0.4195 -0.7414 -0.2057
 6387TIP3    H140796   0.172   3.221   8.927  1.5953  1.2932  0.1471
 6387TIP3    H240797   0.161   3.303   8.800 -0.6564 -0.6095 -0.9692
 6388TIP3   OH240798   2.549   3.068   1.341 -0.5039 -0.7924 -0.0953
 6388TIP3    H140799   2.614   2.998   1.333 -0.1144 -0.2296 -2.9572
 6388TIP3    H240800   2.565   3.106   1.427  1.7527 -1.8531  0.0212
 6389TIP3   OH240801   6.070   4.327   8.622 -0.0178 -0.0223  0.2678
 6389TIP3    H140802   6.091   4.237   8.648  0.5246  0.5018  1.7534
 6389TIP3    H240803   6.068   4.324   8.526  0.5879 -1.4847  0.2677
 6390TIP3   OH240804   2.272   6.430   2.143 -0.7353 -0.0374  0.5479
 6390TIP3    H140805   2.187   6.448   2.183 -0.5754  0.7560  0.5534
 6390TIP3    H240806   2.331   6.495   2.182 -0.6760  1.1000 -1.3200
 6391TIP3   OH240807   1.644   5.107   7.825 -0.3423  0.4122  0.3478
 6391TIP3    H140808   1.722   5.154   7.796 -0.2749  0.0053 -0.1356
 6391TIP3    H240809   1.671   5.063   7.906 -0.2695  0.8129  0.5426
 6392TIP3   OH240810   0.083   0.397   1.834  0.1986  0.6097 -0.5317
 6392TIP3    H140811   0.080   0.326   1.769  0.1983 -0.1838  0.3105
 6392TIP3    H240812  -0.004   0.435   1.831 -1.0606 -1.7806  1.4997
 6393TIP3   OH240813   5.941   0.860   0.446 -0.4599  0.0128 -0.1651
 6393TIP3    H140814   5.976   0.923   0.508  0.9920 -1.5421  0.6779
 6393TIP3    H240815   5.854   0.894   0.425 -0.3788  1.4302  1.4965
 6394TIP3   OH240816   0.354   1.318   8.650 -0.0250 -0.0712 -0.3589
 6394TIP3    H140817   0.434   1.266   8.641 -0.6496 -1.3683  1.2896
 6394TIP3    H240818   0.380   1.394   8.703 -0.0791 -1.0060  1.0425
 6395TIP3   OH240819   2.995   0.351   0.686 -0.0949  0.2130 -0.2233
 6395TIP3    H140820   2.908   0.330   0.719  0.4612 -0.4682  0.8933
 6395TIP3    H240821   3.043   0.380   0.764  1.4631 -2.1070 -0.2128
 6396TIP3   OH240822   0.532   3.070   7.790 -0.3077 -0.2284  0.4388
 6396TIP3    H140823   0.518   2.991   7.739 -0.4166 -0.9386  1.5305
 6396TIP3    H240824   0.476   3.059   7.867 -0.3189  0.9088  0.6116
 6397TIP3   OH240825   0.221   2.185   7.611 -0.5320 -0.5729  0.2829
 6397TIP3    H140826   0.313   2.185   7.585 -1.2809 -0.2892 -2.7379
 6397TIP3    H240827   0.186   2.105   7.573 -1.6948 -0.3435  0.8404
 6398TIP3   OH240828   2.693   3.905   1.571  0.3035 -0.3599  0.3731
 6398TIP3    H140829   2.778   3.902   1.614  0.9004 -1.5249 -0.7947
 6398TIP3    H240830   2.712   3.938   1.483 -0.3646 -1.0513 -0.0478
 6399TIP3   OH240831   1.220   1.854   1.186  0.6390  0.1103  0.1790
 6399TIP3    H140832   1.181   1.777   1.228 -0.1614  0.8423  0.8124
 6399TIP3    H240833   1.246   1.910   1.259  1.8134  0.1670 -0.2640
 6400TIP3   OH240834   0.009   0.912   8.588 -0.2473  0.1707 -0.5406
 6400TIP3    H140835   0.019   0.933   8.495 -1.6226  2.0664 -0.3316
 6400TIP3    H240836  -0.047   0.983   8.622  0.9885  0.0427  1.9347
 6401TIP3   OH240837   4.019   4.897   2.813  1.1964 -0.4242  0.3746
 6401TIP3    H140838   4.100   4.883   2.861  0.3543 -1.8033  1.4630
 6401TIP3    H240839   3.988   4.983   2.843  1.5608 -0.4984  0.9716
 6402TIP3   OH240840   6.680   5.763   0.073 -0.1766 -0.1748 -0.5309
 6402TIP3    H140841   6.691   5.700   0.002  0.5665 -0.1772 -0.4162
 6402TIP3    H240842   6.639   5.712   0.143 -3.4127  0.4108 -1.8140
 6403TIP3   OH240843   0.666   2.868   1.299 -0.1261  0.3658 -0.4620
 6403TIP3    H140844   0.598   2.804   1.318 -1.7350  2.0555 -0.1689
 6403TIP3    H240845   0.695   2.900   1.385  0.6636  0.0482 -0.6007
 6404TIP3   OH240846   2.445   4.828   1.580  0.1148 -0.3354  0.0602
 6404TIP3    H140847   2.386   4.903   1.574  0.9957  0.3718  0.0118
 6404TIP3    H240848   2.410   4.765   1.517 -1.1629 -0.3570  0.7474
 6405TIP3   OH240849   6.641   2.963   8.151  0.0667 -0.0663 -0.2435
 6405TIP3    H140850   6.731   2.945   8.124  0.5588  1.2344  0.4095
 6405TIP3    H240851   6.616   3.040   8.100  0.2951  1.1911  1.4688
 6406TIP3   OH240852   4.420   1.200   1.352  0.2506 -0.1882  0.0528
 6406TIP3    H140853   4.361   1.126   1.337  0.7025 -1.1627  2.5825
 6406TIP3    H240854   4.411   1.219   1.445  0.6402  2.5854 -0.4024
 6407TIP3   OH240855   4.939   6.299   3.051  0.1792  0.2257  0.3495
 6407TIP3    H140856   4.925   6.265   2.963 -0.3454 -0.2903  0.6239
 6407TIP3    H240857   4.862   6.272   3.100  1.2693 -1.0602  1.4338
 6408TIP3   OH240858   0.790   1.732   9.052  0.0656 -0.0901  0.3070
 6408TIP3    H140859   0.866   1.695   9.097  1.2644 -0.4127 -1.8555
 6408TIP3    H240860   0.741   1.656   9.020 -0.5166  0.1381  0.6285
 6409TIP3   OH240861   4.522   2.860   2.341  0.0171 -0.0539  0.5706
 6409TIP3    H140862   4.572   2.779   2.355  0.3971 -0.0679 -0.7560
 6409TIP3    H240863   4.444   2.832   2.294 -0.3032  0.2459  0.9087
 6410TIP3   OH240864   2.659   0.333   2.248 -0.1138  0.0789  0.3308
 6410TIP3    H140865   2.738   0.376   2.215 -1.1564  1.8094 -0.0288
 6410TIP3    H240866   2.679   0.315   2.340  0.3129  1.5894  0.5737
 6411TIP3   OH240867   3.848   5.627   7.942 -0.6762 -0.1819 -0.6122
 6411TIP3    H140868   3.814   5.562   7.882  1.3733 -0.9136 -1.0457
 6411TIP3    H240869   3.899   5.686   7.888 -1.3552  1.0135 -0.0133
 6412TIP3   OH240870   5.304   3.640   8.881  0.2955  0.3245 -0.1157
 6412TIP3    H140871   5.253   3.571   8.925  1.4322 -0.2558  0.3263
 6412TIP3    H240872   5.386   3.643   8.929 -0.4367  3.4218  1.2121
 6413TIP3   OH240873   0.397   3.905   1.484  0.2311  0.0177 -0.0320
 6413TIP3    H140874   0.484   3.867   1.499 -0.2773 -0.9582  0.5964
 6413TIP3    H240875   0.357   3.909   1.571 -0.4716  0.1428 -0.3498
 6414TIP3   OH240876   5.491   5.077   3.052 -0.0865 -0.7021  0.5098
 6414TIP3    H140877   5.463   5.143   2.988 -0.0647  0.4105  1.6078
 6414TIP3    H240878   5.541   5.014   3.001  0.5563  0.5497 -0.4665
 6415TIP3   OH240879   3.819   0.719   0.984  0.4204 -0.3885 -0.1453
 6415TIP3    H140880   3.841   0.628   0.963  1.1188 -0.7065  1.7638
 6415TIP3    H240881   3.733   0.713   1.026 -0.3215  0.0704 -1.5323
 6416TIP3   OH240882   2.817   2.734   8.347 -0.2535 -0.9383  0.1735
 6416TIP3    H140883   2.729   2.761   8.372 -0.3109  2.2298 -2.6538
 6416TIP3    H240884   2.875   2.785   8.403 -0.1994 -2.0329  1.1363
 6417TIP3   OH240885   6.007   2.307   8.729 -0.4606 -0.0051  0.0249
 6417TIP3    H140886   6.014   2.231   8.786  0.8287 -0.9442 -1.3127
 6417TIP3    H240887   6.058   2.375   8.774 -1.3148 -0.0127  1.0468
 6418TIP3   OH240888   0.716   0.137   7.746  0.3369  0.9441  0.5915
 6418TIP3    H140889   0.631   0.146   7.702 -1.0976 -0.6639  2.8435
 6418TIP3    H240890   0.731   0.223   7.786  0.6984  1.7960 -1.2565
 6419TIP3   OH240891   3.992   6.474   1.815 -0.3671  0.2453 -0.3633
 6419TIP3    H140892   4.069   6.499   1.868 -0.5211  1.8184 -0.8348
 6419TIP3    H240893   3.928   6.443   1.880  0.0546  0.5256  0.2002
 6420TIP3   OH240894   4.017   4.550   8.925 -0.3633 -0.3332 -0.1857
 6420TIP3    H140895   3.924   4.551   8.948 -0.7863 -2.0106 -1.6571
 6420TIP3    H240896   4.023   4.606   8.848  0.5914  2.9725  2.0420
 6421TIP3   OH240897   4.193   1.737   9.119  0.2619 -0.1482 -0.1493
 6421TIP3    H140898   4.287   1.720   9.118  0.4177  0.6921 -0.0306
 6421TIP3    H240899   4.161   1.705   9.034  0.4963 -1.2527  0.1597
 6422TIP3   OH240900   0.325   4.948   2.356 -0.3742 -0.0963 -0.3400
 6422TIP3    H140901   0.257   4.958   2.422  1.6761  1.6170  1.6887
 6422TIP3    H240902   0.382   4.878   2.389  0.6220  0.7029 -0.3146
 6423TIP3   OH240903   1.967   0.322   1.953 -0.3310  0.1536  0.7086
 6423TIP3    H140904   2.054   0.310   1.915 -0.5530  3.2299 -1.1375
 6423TIP3    H240905   1.981   0.323   2.048  1.4084 -0.6223  0.4894
 6424TIP3   OH240906   0.531   0.749   0.945  0.1707  0.0172 -0.2215
 6424TIP3    H140907   0.532   0.843   0.960  1.0313  0.5263 -2.9839
 6424TIP3    H240908   0.442   0.722   0.970 -0.5002  1.7736 -0.5592
 6425TIP3   OH240909   2.575   3.871   7.512 -0.3901 -0.0066  0.1046
 6425TIP3    H140910   2.636   3.912   7.573 -0.3423 -0.3117  0.2647
 6425TIP3    H240911   2.593   3.913   7.428 -2.0371  2.0987  0.7146
 6426TIP3   OH240912   5.451   1.705   2.786  0.2321  0.3390  0.2934
 6426TIP3    H140913   5.505   1.637   2.746  0.5515  0.7508  0.0104
 6426TIP3    H240914   5.377   1.716   2.726  0.2571  0.3395  0.2625
 6427TIP3   OH240915   1.024   3.037   8.692 -0.4388  0.5167 -0.1948
 6427TIP3    H140916   0.944   3.085   8.714 -1.0176 -0.5232  0.0099
 6427TIP3    H240917   1.088   3.067   8.757 -1.0485  0.3438  0.4947
 6428TIP3   OH240918   2.543   6.435   8.498 -0.1780  0.3704  0.5830
 6428TIP3    H140919   2.454   6.446   8.463 -0.2487 -0.3466  0.5235
 6428TIP3    H240920   2.535   6.457   8.591 -0.2020  1.2935  0.3670
 6429TIP3   OH240921   4.374   5.760   7.959  0.3349 -0.3080 -0.1741
 6429TIP3    H140922   4.383   5.778   7.866  0.3441 -0.2333 -0.1584
 6429TIP3    H240923   4.415   5.834   8.003  0.1316 -0.2316 -0.1090
 6430TIP3   OH240924   1.547   2.683   7.831 -0.4595 -0.0051  0.1072
 6430TIP3    H140925   1.473   2.622   7.840  0.7301 -1.5740 -0.2613
 6430TIP3    H240926   1.570   2.679   7.738  2.0834 -2.0706  0.7342
 6431TIP3   OH240927   5.612   4.318   0.290 -1.0048 -0.1546  0.4720
 6431TIP3    H140928   5.547   4.258   0.326 -0.2045 -1.4065 -0.0502
 6431TIP3    H240929   5.691   4.264   0.281 -0.7617  0.4483 -1.7559
 6432TIP3   OH240930   3.775   1.860   9.199  0.2113  0.1845  0.4558
 6432TIP3    H140931   3.725   1.849   9.118  0.9126 -2.4308  0.2628
 6432TIP3    H240932   3.716   1.906   9.258 -0.3034  2.1853 -1.5116
 6433TIP3   OH240933   3.121   1.666   8.670 -0.3917 -0.0150 -0.0531
 6433TIP3    H140934   3.138   1.736   8.733 -0.7609 -0.2810  0.3442
 6433TIP3    H240935   3.158   1.588   8.710 -1.3319 -0.3368  0.1977
 6434TIP3   OH240936   1.955   3.648   1.366 -0.1513  0.9060 -0.3346
 6434TIP3    H140937   1.898   3.572   1.359  0.1296  0.6534  0.0565
 6434TIP3    H240938   1.896   3.723   1.364 -0.9399  0.6151  3.4526
 6435TIP3   OH240939   2.747   1.609   1.327  0.3539  0.6246 -0.4828
 6435TIP3    H140940   2.840   1.617   1.309  0.6485 -0.4086  0.4379
 6435TIP3    H240941   2.740   1.623   1.421 -0.6346  2.2051 -0.7602
 6436TIP3   OH240942   4.334   0.623   2.624  0.0437  0.1747  0.1563
 6436TIP3    H140943   4.338   0.627   2.720 -0.9127  0.1844  0.2121
 6436TIP3    H240944   4.350   0.713   2.595  5.2819 -0.5194 -0.0034
 6437TIP3   OH240945   5.791   0.823   7.431 -0.2238 -0.5125 -0.0117
 6437TIP3    H140946   5.721   0.879   7.397  0.0692 -0.8167 -1.1790
 6437TIP3    H240947   5.796   0.750   7.368 -0.0280 -1.4057  1.0127
 6438TIP3   OH240948   4.784   4.253   2.078  0.1439 -0.2567  0.9750
 6438TIP3    H140949   4.746   4.321   2.022  1.2736  1.1491  1.8646
 6438TIP3    H240950   4.818   4.188   2.016 -2.3306 -0.8644  0.1194
 6439TIP3   OH240951   1.568   0.745   8.193  0.3415  0.2448 -0.3836
 6439TIP3    H140952   1.560   0.812   8.126  1.1800  0.0619 -0.6831
 6439TIP3    H240953   1.481   0.738   8.232  0.3311  1.7650 -0.0964
 6440TIP3   OH240954   5.482   2.109   0.231  0.5782 -0.0253  0.8377
 6440TIP3    H140955   5.509   2.171   0.163 -1.4632  1.8368  1.6107
 6440TIP3    H240956   5.488   2.158   0.313 -0.1828 -1.1478  1.5989
 6441TIP3   OH240957   1.998   3.062   8.145 -0.0845 -0.0048  0.1045
 6441TIP3    H140958   2.054   3.090   8.217  0.0513  1.6152 -0.5993
 6441TIP3    H240959   2.058   3.043   8.074 -0.3627  1.0699 -0.4347
 6442TIP3   OH240960   1.709   4.665   0.818 -0.1252  0.3098  0.3461
 6442TIP3    H140961   1.661   4.658   0.900 -0.4231  1.3925  0.2815
 6442TIP3    H240962   1.688   4.753   0.785 -2.0384 -0.9348 -2.1429
 6443TIP3   OH240963   5.689   3.502   9.149  0.4675 -0.2240 -0.1348
 6443TIP3    H140964   5.736   3.447   9.086  0.5088 -0.5273  0.1612
 6443TIP3    H240965   5.614   3.449   9.176  0.5867 -0.1939  0.2612
 6444TIP3   OH240966   5.118   1.938   8.997 -0.1015 -0.0720 -0.4177
 6444TIP3    H140967   5.094   1.880   9.069  1.5960 -0.9438 -0.4911
 6444TIP3    H240968   5.086   2.024   9.023  0.8211 -0.2789  1.5756
 6445TIP3   OH240969   4.971   4.848   7.195 -0.7603 -0.1108 -0.1287
 6445TIP3    H140970   4.918   4.925   7.178 -0.2025  0.5749  1.1388
 6445TIP3    H240971   5.044   4.854   7.133 -0.2410  0.8713  0.5524
 6446TIP3   OH240972   1.512   5.724   8.312  0.3880 -0.0698 -0.0565
 6446TIP3    H140973   1.594   5.677   8.296  1.3437  1.5640 -0.1111
 6446TIP3    H240974   1.490   5.703   8.403  0.4022 -1.2000 -0.3044
 6447TIP3   OH240975   4.854   3.516   1.181  0.2684 -0.0512 -0.3158
 6447TIP3    H140976   4.811   3.500   1.098 -2.7478  2.2688  0.5852
 6447TIP3    H240977   4.879   3.609   1.178 -0.6512  0.3267  1.5735
 6448TIP3   OH240978   3.749   2.146   0.449  0.3293 -0.2196 -0.6735
 6448TIP3    H140979   3.802   2.079   0.406  1.4820 -0.8962  1.6234
 6448TIP3    H240980   3.686   2.097   0.502  0.5309  0.5060  0.2651
 6449TIP3   OH240981   0.476   0.149   7.588 -0.0775 -0.1322  0.2645
 6449TIP3    H140982   0.429   0.228   7.564 -0.0193  0.1367  1.0377
 6449TIP3    H240983   0.413   0.078   7.575 -0.2181  0.0666 -0.1473
 6450TIP3   OH240984   2.463   0.781   8.553 -0.2775  0.3222 -0.0500
 6450TIP3    H140985   2.513   0.785   8.634  0.7489 -0.0430 -0.6386
 6450TIP3    H240986   2.385   0.834   8.569  0.2086  0.7458  0.9557
 6451TIP3   OH240987   0.603   4.565   0.674 -0.4197 -0.0856 -0.3282
 6451TIP3    H140988   0.555   4.530   0.749  1.1088 -1.1938  0.1932
 6451TIP3    H240989   0.594   4.499   0.606  0.0369 -0.1346 -0.3475
 6452TIP3   OH240990   3.770   2.902   1.985 -0.0461  0.2805  0.0704
 6452TIP3    H140991   3.691   2.853   1.959  1.8206 -2.0551 -1.6972
 6452TIP3    H240992   3.824   2.837   2.031  1.2041  1.6083  0.5521
 6453TIP3   OH240993   6.152   1.743   8.454  0.9191 -0.4361  0.3904
 6453TIP3    H140994   6.228   1.721   8.506  1.4496 -0.5043 -0.3965
 6453TIP3    H240995   6.102   1.662   8.448  1.5240 -0.7709 -0.2889
 6454TIP3   OH240996   3.172   4.555   9.050  0.0556  0.5014  0.0284
 6454TIP3    H140997   3.180   4.507   9.132  0.7618 -1.1232 -0.9400
 6454TIP3    H240998   3.262   4.572   9.023 -0.0228 -1.4797 -1.7477
 6455TIP3   OH240999   0.973   3.681   0.240  0.5175 -0.0792  0.3033
 6455TIP3    H141000   0.915   3.660   0.313 -0.5198 -0.0980 -0.5009
 6455TIP3    H241001   0.926   3.748   0.191 -0.4699 -2.4333 -2.2637
 6456TIP3   OH241002   4.034   5.288   0.085 -0.0129 -0.3572  0.3635
 6456TIP3    H141003   4.084   5.342   0.145  0.0421 -1.6764  1.5486
 6456TIP3    H241004   4.084   5.207   0.077 -0.8349 -0.8394 -0.1765
 6457TIP3   OH241005   5.857   2.998   1.617 -0.4587 -0.2125  0.1815
 6457TIP3    H141006   5.912   2.990   1.539 -1.4242  2.0228 -0.7945
 6457TIP3    H241007   5.858   2.910   1.655  2.2904 -0.7081 -0.7698
 6458TIP3   OH241008   0.380   0.736   7.389 -0.9378  0.3022 -0.1045
 6458TIP3    H141009   0.417   0.789   7.318 -2.3124  1.7915  0.2359
 6458TIP3    H241010   0.290   0.720   7.361 -1.4934  0.8942  1.2911
 6459TIP3   OH241011   5.196   0.596   2.674 -1.0061 -0.1958  0.1864
 6459TIP3    H141012   5.115   0.616   2.720 -0.1303  2.2119  0.8418
 6459TIP3    H241013   5.263   0.598   2.741 -0.1145  0.0978 -0.6841
 6460TIP3   OH241014   6.214   2.348   3.165 -0.1044  0.0342 -0.2497
 6460TIP3    H141015   6.158   2.364   3.241 -1.1271  0.9827 -1.1814
 6460TIP3    H241016   6.174   2.272   3.122 -1.3368  1.3360 -1.4855
 6461TIP3   OH241017   0.372   2.807   1.396  0.2656 -0.6855  0.2459
 6461TIP3    H141018   0.286   2.837   1.366  1.4624  3.3254  0.2574
 6461TIP3    H241019   0.408   2.757   1.323 -1.5655 -1.4194 -0.2024
 6462TIP3   OH241020   0.079   0.471   8.004 -0.1089  0.5306  0.0079
 6462TIP3    H141021  -0.009   0.472   7.966  0.7081  0.1766 -2.0459
 6462TIP3    H241022   0.073   0.409   8.077 -1.1048 -1.1689 -1.4336
 6463TIP3   OH241023   0.811   4.009   9.138 -0.2591 -0.1495 -0.8629
 6463TIP3    H141024   0.781   4.100   9.140  2.4614  0.8297 -0.1088
 6463TIP3    H241025   0.906   4.015   9.145 -0.0792 -3.1422  0.8476
 6464TIP3   OH241026   1.550   3.778   2.528  0.5482 -0.0760 -0.1105
 6464TIP3    H141027   1.643   3.787   2.548  0.3871  0.4237  0.4407
 6464TIP3    H241028   1.517   3.867   2.523  0.3322 -0.2099 -1.5279
 6465TIP3   OH241029   3.844   6.191   7.634  0.2765  0.1913 -0.3306
 6465TIP3    H141030   3.896   6.192   7.714 -2.2777  2.3223  1.4994
 6465TIP3    H241031   3.775   6.126   7.651 -0.6810  1.1453 -0.4817
 6466TIP3   OH241032   3.029   4.809   2.598  0.3928 -0.2974  0.2522
 6466TIP3    H141033   3.077   4.891   2.593  1.7719 -1.0702  0.1954
 6466TIP3    H241034   3.096   4.743   2.618 -0.5856 -1.4839 -0.2302
 6467TIP3   OH241035   5.467   4.116   0.424 -0.8309 -0.1064 -0.1109
 6467TIP3    H141036   5.414   4.068   0.361 -0.9354 -0.8108  0.4948
 6467TIP3    H241037   5.494   4.050   0.488  1.5879  0.0441 -0.9156
 6468TIP3   OH241038   6.029   2.012   0.629  0.1846  0.3314 -0.7252
 6468TIP3    H141039   6.116   2.037   0.658  0.2186 -0.8560  0.2605
 6468TIP3    H241040   5.992   2.093   0.593  0.9977  1.2966  0.5292
 6469TIP3   OH241041   5.619   0.235   2.285 -0.7922  0.3941 -0.2481
 6469TIP3    H141042   5.603   0.318   2.239 -0.3558  0.0510 -1.0530
 6469TIP3    H241043   5.606   0.169   2.217  0.7936 -0.0764 -0.1100
 6470TIP3   OH241044   6.343   4.944   0.386 -0.3174 -0.2059 -0.4626
 6470TIP3    H141045   6.250   4.944   0.408 -0.6084 -1.0933 -1.6236
 6470TIP3    H241046   6.387   4.914   0.466 -1.0500 -0.2046 -0.0522
 6471TIP3   OH241047   5.650   2.635   0.078  0.0073  0.4706 -0.2022
 6471TIP3    H141048   5.641   2.541   0.092 -0.5598  0.6230  0.4973
 6471TIP3    H241049   5.743   2.646   0.055 -0.5655 -0.6296 -3.6249
 6472TIP3   OH241050   3.177   2.640   8.123  0.3064 -1.0738 -0.0560
 6472TIP3    H141051   3.104   2.647   8.061  0.6852  1.1670 -0.3396
 6472TIP3    H241052   3.248   2.603   8.071  0.1414 -0.7612 -0.5127
 6473TIP3   OH241053   4.892   0.511   8.544 -0.3324 -0.0085  0.2414
 6473TIP3    H141054   4.934   0.589   8.580 -0.3952 -0.3097  1.0021
 6473TIP3    H241055   4.829   0.544   8.480  0.9043  0.4583 -0.7746
 6474TIP3   OH241056   1.407   1.867   0.789  0.0239 -0.1648 -0.4281
 6474TIP3    H141057   1.393   1.882   0.882 -1.3218 -1.1599 -0.4441
 6474TIP3    H241058   1.374   1.947   0.747 -0.4629 -0.1956 -0.1176
 6475TIP3   OH241059   6.075   4.161   0.988  0.3814  0.4728 -1.0353
 6475TIP3    H141060   6.158   4.192   0.951  0.9344  1.5345  0.9714
 6475TIP3    H241061   6.091   4.153   1.082 -2.0339  1.6629 -0.4224
 6476TIP3   OH241062   4.825   0.939   2.110 -0.0835 -0.2554 -0.1340
 6476TIP3    H141063   4.736   0.909   2.091  1.1297 -3.3695 -1.6505
 6476TIP3    H241064   4.832   1.023   2.065 -1.6045 -1.0134 -1.9306
 6477TIP3   OH241065   3.690   0.386   0.017 -0.3215  0.5789 -0.4868
 6477TIP3    H141066   3.672   0.407   0.109  0.9678 -2.1387  0.4956
 6477TIP3    H241067   3.605   0.359  -0.018 -0.8844  1.9201 -0.2298
 6478TIP3   OH241068   0.924   1.218   0.666 -0.3861  0.3690  0.0305
 6478TIP3    H141069   0.926   1.297   0.611  1.5789  0.4289  0.1281
 6478TIP3    H241070   0.959   1.248   0.750  1.4045 -0.8051 -0.2518
 6479TIP3   OH241071   2.076   4.813   1.575 -0.1811  0.1059  0.1151
 6479TIP3    H141072   1.997   4.832   1.626  0.6674  2.0242  0.8198
 6479TIP3    H241073   2.089   4.719   1.585 -0.9553  0.1558  2.1185
 6480TIP3   OH241074   5.321   4.433   8.403  0.2611 -0.5044  0.1764
 6480TIP3    H141075   5.307   4.384   8.484 -0.0760 -1.9347 -0.7121
 6480TIP3    H241076   5.369   4.512   8.431 -2.9884  0.9381  2.2654
 6481TIP3   OH241077   5.288   3.223   0.564  0.5122 -0.1923 -0.1175
 6481TIP3    H141078   5.326   3.303   0.526  0.2912  0.2409  0.5550
 6481TIP3    H241079   5.303   3.232   0.658  0.7779 -1.1065 -0.0585
 6482TIP3   OH241080   0.047   6.300   0.325 -0.0518 -0.0256 -0.0088
 6482TIP3    H141081   0.075   6.303   0.417 -0.2265  0.8283  0.0299
 6482TIP3    H241082   0.116   6.345   0.277  0.6033 -1.4590 -0.4715
 6483TIP3   OH241083   2.222   4.874   8.249 -0.1106 -0.1203 -0.4514
 6483TIP3    H141084   2.197   4.954   8.202  0.4108  0.8545  0.8429
 6483TIP3    H241085   2.267   4.821   8.184  0.0923  0.9340 -1.2043
 6484TIP3   OH241086   6.462   0.772   2.931 -0.1932 -0.5722  0.0731
 6484TIP3    H141087   6.556   0.763   2.919  0.3140  0.4878  2.5928
 6484TIP3    H241088   6.444   0.864   2.910 -0.3047 -0.2950  1.2904
 6485TIP3   OH241089   0.442   3.904   0.765  0.3853  0.0880  0.0469
 6485TIP3    H141090   0.469   3.995   0.774 -0.4587  0.3495  0.0556
 6485TIP3    H241091   0.346   3.907   0.769  0.2357 -0.5711 -1.8892
 6486TIP3   OH241092   6.496   2.605   0.655 -0.0497 -0.6218  0.5693
 6486TIP3    H141093   6.423   2.653   0.614 -0.5951 -0.4639  1.7002
 6486TIP3    H241094   6.477   2.609   0.748  2.1318  0.6215  1.0141
 6487TIP3   OH241095   3.877   1.948   0.300  0.1952 -0.3467 -0.1405
 6487TIP3    H141096   3.795   1.932   0.254  1.1382 -0.5833 -1.7967
 6487TIP3    H241097   3.945   1.915   0.241  1.4061 -1.9370  2.0022
 6488TIP3   OH241098   3.461   2.085   0.779 -0.3899 -0.4584  0.1324
 6488TIP3    H141099   3.474   2.039   0.696  0.0227  1.7177 -1.1166
 6488TIP3    H241100   3.547   2.083   0.821  0.1510  0.7204 -0.8307
 6489TIP3   OH241101   2.200   1.951   8.467  0.0999 -0.0649 -0.1990
 6489TIP3    H141102   2.251   2.026   8.435 -0.6981  0.3130 -0.6375
 6489TIP3    H241103   2.133   1.991   8.522 -0.3570 -0.4533 -0.4703
 6490TIP3   OH241104   1.232   5.642   3.131 -0.4339 -1.0808 -0.1300
 6490TIP3    H141105   1.285   5.721   3.146  0.9556 -2.4363  3.1037
 6490TIP3    H241106   1.283   5.590   3.070 -0.2155 -0.5184 -0.4396
 6491TIP3   OH241107   1.496   4.446   8.428 -0.5942  0.5784  0.7184
 6491TIP3    H141108   1.571   4.469   8.373  0.2308  0.1104  1.6231
 6491TIP3    H241109   1.421   4.447   8.368 -0.0755  2.2351  0.0377
 6492TIP3   OH241110   1.828   3.266   8.960 -0.1707  0.3851 -0.1298
 6492TIP3    H141111   1.770   3.245   8.887 -0.3052  0.0041  0.0877
 6492TIP3    H241112   1.811   3.198   9.025  2.6624 -1.5568 -1.2323
 6493TIP3   OH241113   5.245   5.747   8.566  0.1718  0.1039  0.5184
 6493TIP3    H141114   5.318   5.808   8.568 -0.5398  0.9815  0.1549
 6493TIP3    H241115   5.170   5.799   8.537 -1.0431 -0.3205  2.7273
 6494TIP3   OH241116   3.364   4.868   1.790 -0.2291  0.0285 -0.9437
 6494TIP3    H141117   3.359   4.784   1.835 -0.2693  1.1564  1.2656
 6494TIP3    H241118   3.458   4.889   1.790 -0.0056 -0.7446 -3.0104
 6495TIP3   OH241119   1.365   5.943   7.648 -0.0357  0.1690 -0.1493
 6495TIP3    H141120   1.314   5.994   7.584 -2.2618 -1.0534  0.5201
 6495TIP3    H241121   1.371   5.855   7.610  0.5130 -0.0207  0.3608
 6496TIP3   OH241122   1.498   4.511   2.340 -0.9969 -0.3058 -0.2054
 6496TIP3    H141123   1.459   4.571   2.276 -0.5445 -1.0391 -1.2001
 6496TIP3    H241124   1.482   4.553   2.425 -0.9306  1.0888 -0.8468
 6497TIP3   OH241125   5.281   1.279   9.095  0.3973  0.7391  0.5197
 6497TIP3    H141126   5.200   1.242   9.130  0.6156 -0.6838 -0.3761
 6497TIP3    H241127   5.252   1.338   9.026  0.0776 -1.3981 -1.3183
 6498TIP3   OH241128   4.521   6.409   0.686 -0.1154  0.4927  0.0116
 6498TIP3    H141129   4.517   6.321   0.648 -0.3295 -0.3369  1.8181
 6498TIP3    H241130   4.450   6.457   0.644  1.6355  0.7031 -2.9777
 6499TIP3   OH241131   2.177   6.364   7.163 -0.5004  0.6472  0.1620
 6499TIP3    H141132   2.085   6.340   7.155 -0.3808 -0.4727  1.7112
 6499TIP3    H241133   2.218   6.290   7.207  0.8830  1.6637  0.6868
 6500TIP3   OH241134   1.045   6.689   0.021 -0.0755 -0.3569  0.1355
 6500TIP3    H141135   1.087   6.648   0.097  0.7286  3.5169  2.0698
 6500TIP3    H241136   1.024   6.778   0.051 -1.8085  0.6691 -3.5512
 6501TIP3   OH241137   6.130   3.132   9.002 -0.1436  0.2641  0.4526
 6501TIP3    H141138   6.204   3.149   9.060 -0.9849 -0.2491  1.7073
 6501TIP3    H241139   6.054   3.128   9.060 -0.7299 -2.4336 -0.3675
 6502TIP3   OH241140   6.500   3.622   0.233 -0.5583  0.6645  0.2216
 6502TIP3    H141141   6.527   3.543   0.279  1.3894  0.1758 -1.5745
 6502TIP3    H241142   6.471   3.681   0.301  0.5585 -0.6202  1.9019
 6503TIP3   OH241143   0.494   0.280   8.809 -0.7469  0.0068  0.1542
 6503TIP3    H141144   0.548   0.355   8.834 -0.4453  0.0318 -0.5485
 6503TIP3    H241145   0.544   0.204   8.839 -0.2599  0.0257 -0.5835
 6504TIP3   OH241146   5.657   0.696   1.903 -0.1418 -0.0380  0.9011
 6504TIP3    H141147   5.616   0.723   1.985 -0.0029  0.9518  0.6545
 6504TIP3    H241148   5.649   0.772   1.846  1.8727  0.1200  0.7734
 6505TIP3   OH241149   2.340   1.378   3.009  0.2436 -0.4906  0.1425
 6505TIP3    H141150   2.417   1.408   2.961  0.7434 -0.1589  1.1169
 6505TIP3    H241151   2.300   1.458   3.043 -1.3001 -0.5364 -1.4355
 6506TIP3   OH241152   4.831   1.525   7.325  0.1402  0.0890 -0.1741
 6506TIP3    H141153   4.849   1.462   7.255 -1.4708  1.6888 -2.1417
 6506TIP3    H241154   4.773   1.589   7.285  1.4260  2.6733  1.8230
 6507TIP3   OH241155   2.601   2.707   0.253 -0.3452  0.0479  0.0108
 6507TIP3    H141156   2.530   2.730   0.315  0.5851  0.6601  0.8841
 6507TIP3    H241157   2.667   2.665   0.307  0.1569 -0.1168 -0.7236
 6508TIP3   OH241158   3.682   5.245   0.101 -0.2331  0.5870  0.8457
 6508TIP3    H141159   3.737   5.323   0.094 -0.0453  0.5292  1.6375
 6508TIP3    H241160   3.607   5.273   0.154 -0.8519  0.5930 -0.0005
 6509TIP3   OH241161   2.618   3.417   7.245 -0.3217 -0.5650  0.1029
 6509TIP3    H141162   2.592   3.509   7.239  0.3981 -0.3860 -0.5076
 6509TIP3    H241163   2.589   3.378   7.163  0.7787 -0.4870 -0.3500
 6510TIP3   OH241164   0.931   0.890   0.156  0.5205 -0.0556 -0.3168
 6510TIP3    H141165   0.962   0.981   0.153 -0.0404  0.1252 -2.5843
 6510TIP3    H241166   0.974   0.849   0.081 -2.1724 -0.6202 -1.6644
 6511TIP3   OH241167   0.393   2.127   1.762 -0.5323  0.4504  0.8077
 6511TIP3    H141168   0.484   2.097   1.766  0.1849  2.3452  0.1388
 6511TIP3    H241169   0.378   2.170   1.846 -1.0241 -0.4007  1.1585
 6512TIP3   OH241170   1.813   5.476   2.065 -0.3291 -0.3638 -0.1943
 6512TIP3    H141171   1.772   5.446   2.146 -1.9618 -2.8086 -1.7555
 6512TIP3    H241172   1.902   5.442   2.069 -0.6016 -1.0608  0.3206
 6513TIP3   OH241173   6.299   5.260   8.030  0.3087  0.7776  0.3335
 6513TIP3    H141174   6.370   5.217   7.982 -0.1311  0.9283 -0.4693
 6513TIP3    H241175   6.262   5.192   8.086 -0.4661  0.0550 -1.0221
 6514TIP3   OH241176   3.676   3.351   8.163  0.8046  0.0571  0.4319
 6514TIP3    H141177   3.723   3.271   8.138  0.0618 -0.0552 -0.6835
 6514TIP3    H241178   3.723   3.422   8.119 -0.6932 -0.1724 -1.7144
 6515TIP3   OH241179   1.933   2.456   0.555 -0.1531  0.0557  0.0730
 6515TIP3    H141180   1.989   2.501   0.491 -0.0844  0.6297  0.5325
 6515TIP3    H241181   1.970   2.479   0.640 -0.2553 -0.6921  0.3316
 6516TIP3   OH241182   2.979   4.894   1.083  0.2369  0.3651 -0.5686
 6516TIP3    H141183   3.002   4.938   1.165  1.1330 -1.8848  0.4551
 6516TIP3    H241184   3.003   4.803   1.096 -2.3491 -0.6786 -2.2834
 6517TIP3   OH241185   4.206   5.585   2.035  0.6677  0.9528 -0.1445
 6517TIP3    H141186   4.143   5.570   1.965  0.0377 -2.7671  1.0028
 6517TIP3    H241187   4.280   5.528   2.014  0.7048  0.1846  1.8462
 6518TIP3   OH241188   2.676   2.633   1.984  0.0847  0.1788 -0.7373
 6518TIP3    H141189   2.692   2.601   2.073  0.1250  1.0069 -0.4364
 6518TIP3    H241190   2.736   2.583   1.929  0.0729 -0.3277 -0.2981
 6519TIP3   OH241191   5.673   5.963   3.042  0.0913  0.6234  0.4883
 6519TIP3    H141192   5.695   5.874   3.015  0.0408  0.9226 -0.5876
 6519TIP3    H241193   5.692   6.017   2.965  0.9598  1.6712  1.4131
 6520TIP3   OH241194   5.571   3.346   0.383  0.5762 -0.5247 -0.4865
 6520TIP3    H141195   5.529   3.413   0.330 -1.2212  0.1324  1.6215
 6520TIP3    H241196   5.530   3.264   0.353 -0.5571 -0.1446 -0.0512
 6521TIP3   OH241197   4.224   0.336   2.227 -0.4965  0.0765  0.4239
 6521TIP3    H141198   4.138   0.378   2.228  0.5777  2.5244 -1.0463
 6521TIP3    H241199   4.277   0.387   2.289  0.5293  0.1445 -0.4825
 6522TIP3   OH241200   3.775   6.049   1.510  0.0382 -0.2222  0.0051
 6522TIP3    H141201   3.778   6.142   1.487 -0.8977 -0.3423 -0.6487
 6522TIP3    H241202   3.712   6.045   1.583  0.2868 -0.3077  0.2150
 6523TIP3   OH241203   6.173   1.940   9.034 -0.1737 -0.4525  0.0492
 6523TIP3    H141204   6.254   1.915   8.989 -0.0403 -0.5657  0.3487
 6523TIP3    H241205   6.103   1.908   8.977 -0.0118 -0.1555 -0.3236
 6524TIP3   OH241206   4.762   2.506   7.332 -0.2553  0.0172  0.3082
 6524TIP3    H141207   4.821   2.445   7.288  0.7177 -0.7744  2.5573
 6524TIP3    H241208   4.802   2.592   7.317 -0.9016  0.0141 -1.7348
 6525TIP3   OH241209   5.282   2.190   2.319  0.5163  0.2435 -0.1374
 6525TIP3    H141210   5.281   2.125   2.248  1.6568 -0.4342  0.4409
 6525TIP3    H241211   5.256   2.142   2.397 -0.0614  0.8313  0.0450
 6526TIP3   OH241212   1.550   6.141   2.109  1.0457 -0.2252 -0.2200
 6526TIP3    H141213   1.514   6.059   2.074 -2.1166 -0.4454  2.9426
 6526TIP3    H241214   1.511   6.209   2.055  0.6403 -0.6815 -0.5122
 6527TIP3   OH241215   5.092   5.487   2.243 -0.2275 -0.5794  0.1122
 6527TIP3    H141216   5.053   5.461   2.159 -0.5046 -0.7518  0.2911
 6527TIP3    H241217   5.162   5.423   2.258 -0.4777 -0.8281  0.2322
 6528TIP3   OH241218   4.285   4.849   2.547 -0.3936 -0.8071 -0.2266
 6528TIP3    H141219   4.378   4.857   2.526 -0.6650 -1.4247 -1.8210
 6528TIP3    H241220   4.278   4.875   2.639  1.3722 -0.9584 -0.0275
 6529TIP3   OH241221   5.574   1.718   2.136 -0.3763  0.0782 -0.3309
 6529TIP3    H141222   5.643   1.652   2.125 -0.6785 -0.0300 -1.9598
 6529TIP3    H241223   5.518   1.683   2.206  0.6431 -0.3369  0.2952
 6530TIP3   OH241224   3.495   5.171   8.530  0.7083 -0.2444  0.3475
 6530TIP3    H141225   3.510   5.166   8.625  0.9962 -1.6235  0.2480
 6530TIP3    H241226   3.568   5.123   8.492  0.1328 -0.4221 -0.5430
 6531TIP3   OH241227   5.568   4.343   2.534  0.4269  0.0717  0.0770
 6531TIP3    H141228   5.477   4.321   2.515  0.5461 -1.2477  0.9108
 6531TIP3    H241229   5.564   4.410   2.601  0.0609 -0.4808  0.6145
 6532TIP3   OH241230   4.719   5.670   7.881  0.4256 -0.2622 -0.1085
 6532TIP3    H141231   4.641   5.618   7.897  1.9542 -2.4161  0.9268
 6532TIP3    H241232   4.764   5.624   7.810  1.7163 -0.2823  0.6831
 6533TIP3   OH241233   3.193   1.960   1.429  0.3075 -0.3740  0.1723
 6533TIP3    H141234   3.173   2.021   1.358 -0.5570  1.3931  1.8372
 6533TIP3    H241235   3.124   1.975   1.494  1.2672 -1.6585  1.5650
 6534TIP3   OH241236   3.228   5.057   8.504  0.3427  0.2717  0.2806
 6534TIP3    H141237   3.238   5.009   8.421  0.1427  1.5885 -0.5359
 6534TIP3    H241238   3.315   5.092   8.522  0.1708  0.8072  0.0938
 6535TIP3   OH241239   0.408   2.333   8.785 -0.1395  0.2789 -0.1962
 6535TIP3    H141240   0.494   2.371   8.768 -1.2144  2.8969 -0.3385
 6535TIP3    H241241   0.383   2.292   8.702  0.7044  0.0444 -0.3425
 6536TIP3   OH241242   4.614   0.835   8.027 -0.3816 -0.3950  0.3462
 6536TIP3    H141243   4.597   0.742   8.012  1.1129 -0.4274 -1.3422
 6536TIP3    H241244   4.550   0.880   7.972  0.5656 -0.4613 -0.8279
 6537TIP3   OH241245   3.873   5.723   0.042  0.3475  0.1598  0.0179
 6537TIP3    H141246   3.878   5.635   0.005  1.5269  0.3319 -0.2726
 6537TIP3    H241247   3.911   5.714   0.130 -0.6972  0.1356  0.4813
 6538TIP3   OH241248   6.312   2.333   8.594 -0.2920  0.0533  0.3329
 6538TIP3    H141249   6.242   2.344   8.531 -1.2104  2.1261  1.5927
 6538TIP3    H241250   6.392   2.340   8.543 -0.9194 -2.4832 -1.1508
 6539TIP3   OH241251   1.611   6.613   0.664  0.4628 -0.2008 -0.1951
 6539TIP3    H141252   1.697   6.570   0.668  0.8005  0.3909  4.6325
 6539TIP3    H241253   1.552   6.546   0.629  2.2984 -1.7728 -0.4674
 6540TIP3   OH241254   0.494   0.579   0.263 -0.4066 -0.4373 -0.0838
 6540TIP3    H141255   0.429   0.509   0.262 -1.7590  0.7712 -0.1457
 6540TIP3    H241256   0.489   0.618   0.176  1.1310 -0.9232 -0.4281
 6541TIP3   OH241257   0.699   4.596   8.747 -0.6687  0.6499 -0.0415
 6541TIP3    H141258   0.777   4.635   8.708  0.6693 -0.2078  1.6468
 6541TIP3    H241259   0.691   4.638   8.832 -1.7593  0.3613  0.0075
 6542TIP3   OH241260   3.251   1.815   0.116  0.0818  0.0236  0.4280
 6542TIP3    H141261   3.224   1.897   0.073  0.7862  0.1831  0.2805
 6542TIP3    H241262   3.212   1.820   0.203  2.1621  1.7188  1.3543
 6543TIP3   OH241263   2.497   4.199   0.558 -0.1275  0.5308  0.2945
 6543TIP3    H141264   2.534   4.125   0.511  0.3994  0.0524  1.4286
 6543TIP3    H241265   2.493   4.269   0.493 -2.0970 -0.8957 -1.2503
 6544TIP3   OH241266   0.259   0.705   2.540 -0.4153 -0.6826  0.6684
 6544TIP3    H141267   0.165   0.716   2.555 -0.3893  0.8316 -0.0824
 6544TIP3    H241268   0.269   0.708   2.445  0.4679  0.0114  0.7670
 6545TIP3   OH241269   1.929   0.563   1.828 -0.3108 -0.1036 -0.3283
 6545TIP3    H141270   1.898   0.586   1.741 -0.7610 -0.5433 -0.2867
 6545TIP3    H241271   1.911   0.470   1.837 -1.1474  0.1280  0.5833
 6546TIP3   OH241272   1.749   6.377   9.055  0.1152 -0.3443  0.1179
 6546TIP3    H141273   1.730   6.352   9.145  2.0900  1.8234  1.2150
 6546TIP3    H241274   1.704   6.460   9.043  0.9695  0.0540 -0.4277
 6547TIP3   OH241275   3.493   3.724   7.213 -0.3338 -0.1527  0.4635
 6547TIP3    H141276   3.556   3.672   7.264 -0.1494 -0.4439 -0.0569
 6547TIP3    H241277   3.442   3.771   7.279 -1.4538 -2.0639  1.0202
 6548TIP3   OH241278   5.869   6.504   2.969  0.1389 -0.0636  0.2891
 6548TIP3    H141279   5.895   6.596   2.972 -1.0699  0.2865  0.4052
 6548TIP3    H241280   5.926   6.461   3.032  0.7005  0.6087  0.2551
 6549TIP3   OH241281   5.933   0.596   8.883 -0.2809 -0.3504 -0.3608
 6549TIP3    H141282   6.025   0.613   8.863  0.2104  0.1376  2.0892
 6549TIP3    H241283   5.936   0.532   8.954 -1.7496  1.4276  1.3760
 6550TIP3   OH241284   0.195   5.931   0.114  0.6044 -0.5121 -0.6425
 6550TIP3    H141285   0.137   5.870   0.069  0.2629  0.7294 -1.9785
 6550TIP3    H241286   0.157   5.941   0.201  0.3516 -1.7367 -0.5885
 6551TIP3   OH241287   5.247   3.672   1.991  0.2780 -0.1638 -0.1470
 6551TIP3    H141288   5.169   3.713   2.029  0.6751  0.5318 -0.0642
 6551TIP3    H241289   5.243   3.692   1.898 -1.3457 -2.9099 -0.7921
 6552TIP3   OH241290   1.564   3.788   1.476 -0.6369 -0.3462  0.1844
 6552TIP3    H141291   1.630   3.811   1.541  0.6247 -0.7226 -0.9165
 6552TIP3    H241292   1.574   3.855   1.407 -2.0393  0.1325  0.4052
 6553TIP3   OH241293   6.356   6.246   3.062 -0.0225  0.0723 -0.3180
 6553TIP3    H141294   6.355   6.169   3.005 -0.2616  1.1329 -1.8162
 6553TIP3    H241295   6.449   6.256   3.086 -0.1813 -1.5061  1.1317
 6554TIP3   OH241296   1.984   4.156   0.774 -0.0423  0.0776  0.0875
 6554TIP3    H141297   2.055   4.162   0.711  0.0805 -1.4417  0.0532
 6554TIP3    H241298   2.009   4.216   0.845  1.7517 -1.1045  0.5035
 6555TIP3   OH241299   4.634   4.424   0.596  0.2784 -0.3043 -0.0693
 6555TIP3    H141300   4.606   4.507   0.557  0.4648 -0.0733  0.2855
 6555TIP3    H241301   4.627   4.438   0.691 -0.0456 -0.8183 -0.0153
 6556TIP3   OH241302   2.109   6.223   2.714 -0.0744 -0.1497  0.2767
 6556TIP3    H141303   2.090   6.159   2.645  1.0783  0.2468 -0.4380
 6556TIP3    H241304   2.161   6.290   2.670 -1.0530  1.1697  1.0701
 6557TIP3   OH241305   2.495   0.539   8.439  0.2485  0.2066 -0.0552
 6557TIP3    H141306   2.406   0.552   8.406  0.3767 -0.8928 -0.8944
 6557TIP3    H241307   2.520   0.625   8.475 -0.5794  0.9531 -1.1860
 6558TIP3   OH241308   6.179   3.083   0.066 -0.3294  0.2860 -0.3159
 6558TIP3    H141309   6.152   3.153   0.124  0.4350  1.0753 -0.8856
 6558TIP3    H241310   6.264   3.055   0.100 -0.0882  0.4415 -0.7875
 6559TIP3   OH241311   1.676   3.535   1.103  0.2090 -0.8191 -0.0191
 6559TIP3    H141312   1.621   3.525   1.180 -1.8025  0.9262 -1.1171
 6559TIP3    H241313   1.627   3.493   1.033 -0.0423  1.1851 -1.1239
 6560TIP3   OH241314   5.139   5.871   8.162 -0.1141  0.1052 -0.6071
 6560TIP3    H141315   5.170   5.794   8.209  2.9344  1.3889 -0.2616
 6560TIP3    H241316   5.083   5.917   8.224 -0.4789 -0.8972 -0.1756
 6561TIP3   OH241317   1.294   4.669   8.440 -0.2816  1.0829  0.2258
 6561TIP3    H141318   1.317   4.597   8.498 -0.7604  1.7975  1.3263
 6561TIP3    H241319   1.335   4.646   8.356 -1.6658 -1.1707  0.1049
 6562TIP3   OH241320   1.348   6.630   1.699  0.2218 -0.6721  0.2354
 6562TIP3    H141321   1.432   6.611   1.657  0.2782 -1.2206  0.5776
 6562TIP3    H241322   1.338   6.725   1.693 -0.1913 -0.8121 -1.7708
 6563TIP3   OH241323   1.658   3.142   2.802  0.4432  0.1158 -0.4699
 6563TIP3    H141324   1.738   3.193   2.786  1.0015 -0.3095  0.8641
 6563TIP3    H241325   1.602   3.201   2.853  0.9154 -0.4136  0.7020
 6564TIP3   OH241326   1.112   0.790   1.683 -0.2520 -0.6671  0.1869
 6564TIP3    H141327   1.090   0.822   1.771 -0.6296 -0.5076  0.0393
 6564TIP3    H241328   1.032   0.746   1.654 -0.8124  0.9315 -0.8360
 6565TIP3   OH241329   4.071   0.413   7.967 -0.3611  0.2375 -0.6687
 6565TIP3    H141330   4.146   0.362   7.997 -1.8422 -0.7160  1.7160
 6565TIP3    H241331   4.006   0.348   7.943 -0.7478  1.0467 -1.8624
 6566TIP3   OH241332   5.011   0.023   1.016 -0.6220 -0.3668 -0.5189
 6566TIP3    H141333   4.955  -0.043   1.058 -0.5988  0.6966  1.3098
 6566TIP3    H241334   5.068   0.054   1.087 -0.1542  1.1042 -1.5012
 6567TIP3   OH241335   3.543   2.789   0.485 -0.0510  0.5164  1.0164
 6567TIP3    H141336   3.525   2.740   0.565 -3.4974  0.1373  0.1638
 6567TIP3    H241337   3.474   2.762   0.424  1.6001  1.8314 -1.6351
 6568TIP3   OH241338   4.753   5.597   0.960 -1.0726  0.3428 -0.2252
 6568TIP3    H141339   4.678   5.539   0.969  0.1180 -1.0212  1.9558
 6568TIP3    H241340   4.759   5.642   1.045  0.8291  0.0296 -0.1374
 6569TIP3   OH241341   1.874   5.027   1.619 -0.1157 -0.3841 -0.1512
 6569TIP3    H141342   1.879   4.965   1.546 -0.7378 -1.4912  0.7072
 6569TIP3    H241343   1.866   5.113   1.578 -1.9500 -1.1051 -1.4004
 6570TIP3   OH241344   6.085   5.123   1.116 -0.0154 -0.7358  0.8706
 6570TIP3    H141345   6.048   5.049   1.165 -2.4571  0.1365  0.4331
 6570TIP3    H241346   6.078   5.197   1.176 -0.6890 -0.1868  0.1325
 6571TIP3   OH241347   3.240   0.836   1.660  0.0055 -0.4525  0.3859
 6571TIP3    H141348   3.222   0.913   1.606 -1.3192 -1.2632 -0.3804
 6571TIP3    H241349   3.280   0.872   1.739  0.6991  0.8905 -0.5198
 6572TIP3   OH241350   4.381   5.958   1.490  0.6251 -0.1321 -0.4978
 6572TIP3    H141351   4.415   6.030   1.438  0.6880 -1.1047 -1.8525
 6572TIP3    H241352   4.442   5.886   1.475  1.0433 -0.2584  1.5025
 6573TIP3   OH241353   1.988   6.431   2.251 -0.4820  0.0388 -0.1579
 6573TIP3    H141354   1.905   6.390   2.275 -0.5193  0.3780  0.2979
 6573TIP3    H241355   1.983   6.440   2.156 -0.5959 -0.7423 -0.2390
 6574TIP3   OH241356   6.532   0.457   3.353 -0.8348  0.0145  0.0713
 6574TIP3    H141357   6.519   0.544   3.317 -2.6951 -0.1002  0.3636
 6574TIP3    H241358   6.606   0.421   3.305  1.0627  2.3393  1.0870
 6575TIP3   OH241359   5.405   5.522   1.770  0.3226  0.3972 -0.1660
 6575TIP3    H141360   5.498   5.516   1.751 -0.0558 -2.5454 -1.8067
 6575TIP3    H241361   5.401   5.554   1.861  2.9983 -0.9046  0.5249
 6576TIP3   OH241362   1.359   0.029   3.065  0.8648  0.3899  0.6566
 6576TIP3    H141363   1.325   0.114   3.036  0.9652 -0.4148 -2.1725
 6576TIP3    H241364   1.282  -0.027   3.068  1.2279 -0.2927 -1.2430
 6577TIP3   OH241365   1.824   0.586   0.120 -0.3488 -0.1298  0.0461
 6577TIP3    H141366   1.861   0.575   0.208 -0.2309  3.5721  0.5923
 6577TIP3    H241367   1.895   0.562   0.061  0.2960 -0.5628  0.9782
 6578TIP3   OH241368   3.683   3.298   1.956  0.3020  0.1319  0.1366
 6578TIP3    H141369   3.635   3.294   2.038  0.1310  0.0463  0.0336
 6578TIP3    H241370   3.717   3.387   1.952  0.4537  0.0840  0.3799
 6579TIP3   OH241371   0.119   0.551   0.837 -0.1427  0.2030  0.6392
 6579TIP3    H141372   0.086   0.519   0.921 -0.5742  0.7474  0.6848
 6579TIP3    H241373   0.045   0.544   0.778 -0.6410  2.1894  0.9373
 6580TIP3   OH241374   5.099   3.916   2.935 -0.4178 -0.2506 -0.6867
 6580TIP3    H141375   5.017   3.887   2.897 -0.6044  0.6723 -1.0151
 6580TIP3    H241376   5.073   3.978   3.003  0.0148  0.4681 -1.1600
 6581TIP3   OH241377   0.950   3.406   0.166  0.1518 -0.0930 -0.4233
 6581TIP3    H141378   0.908   3.463   0.230  0.4726  0.1396 -0.4142
 6581TIP3    H241379   0.944   3.318   0.203 -1.5897 -0.2866 -1.0742
 6582TIP3   OH241380   3.120   6.031   0.186 -0.3643 -0.3890  0.1421
 6582TIP3    H141381   3.215   6.027   0.192 -0.3254 -2.4177 -0.9288
 6582TIP3    H241382   3.101   6.117   0.149  1.1355 -0.4844 -0.8895
 6583TIP3   OH241383   3.230   0.496   8.975 -0.1253  0.2705 -0.1115
 6583TIP3    H141384   3.244   0.591   8.973 -0.2179  0.2716 -1.0045
 6583TIP3    H241385   3.188   0.480   9.060  1.4221  0.7997  0.7936
 6584TIP3   OH241386   5.289   2.739   2.400 -0.3121 -0.8889 -0.0381
 6584TIP3    H141387   5.373   2.699   2.421  0.2997  1.1075  1.6025
 6584TIP3    H241388   5.250   2.758   2.486 -2.3826 -1.5904 -0.7593
 6585TIP3   OH241389   3.059   5.523   7.518 -0.0941 -0.4350 -0.4075
 6585TIP3    H141390   3.041   5.515   7.612 -0.2556 -0.3990 -0.4348
 6585TIP3    H241391   3.152   5.547   7.513 -0.0406 -0.6140 -0.2638
 6586TIP3   OH241392   0.842   3.701   1.776  0.2184  0.0838 -0.1942
 6586TIP3    H141393   0.787   3.697   1.697  0.8229  1.1048 -0.6781
 6586TIP3    H241394   0.891   3.619   1.774  2.1311  1.1554 -2.3290
 6587TIP3   OH241395   6.529   3.210   8.308 -0.0168 -0.0043  0.4492
 6587TIP3    H141396   6.442   3.189   8.343 -0.1747 -2.4867 -1.1840
 6587TIP3    H241397   6.522   3.191   8.214  1.8233  1.4727 -0.0420
 6588TIP3   OH241398   1.446   1.420   1.003  0.4976 -0.1049 -0.0181
 6588TIP3    H141399   1.472   1.361   1.074  0.2735  0.5550  0.6277
 6588TIP3    H241400   1.353   1.436   1.018  0.8156  1.4241  0.6073
 6589TIP3   OH241401   0.885   5.532   8.833 -0.2245  0.1719  0.7647
 6589TIP3    H141402   0.888   5.440   8.859 -1.4202  0.3897  1.7731
 6589TIP3    H241403   0.972   5.550   8.798 -0.6481 -1.9267 -1.6164
 6590TIP3   OH241404   0.466   6.121   0.395 -0.0163  0.5038  0.1073
 6590TIP3    H141405   0.503   6.078   0.473 -0.0515  1.4550  0.6652
 6590TIP3    H241406   0.507   6.077   0.321 -1.6121 -1.9460  0.5645
 6591TIP3   OH241407   2.161   3.036   8.370 -0.1480  0.2284 -0.2834
 6591TIP3    H141408   2.212   3.117   8.378 -0.4988  0.6046 -1.5602
 6591TIP3    H241409   2.187   2.984   8.445  0.7033  1.1953  0.1236
 6592TIP3   OH241410   3.460   5.345   0.255 -0.0567 -0.0029  0.1034
 6592TIP3    H141411   3.470   5.279   0.324  0.5857  1.9002  1.9271
 6592TIP3    H241412   3.365   5.348   0.239 -0.0725 -1.5317 -0.2271
 6593TIP3   OH241413   0.484   6.596   0.323 -0.2902  0.3593  0.0808
 6593TIP3    H141414   0.530   6.596   0.407 -0.8485 -1.5196  0.4381
 6593TIP3    H241415   0.553   6.576   0.259  0.0211  1.1788  0.1415
 6594TIP3   OH241416   1.299   5.337   1.645 -0.3990  0.0069 -0.7482
 6594TIP3    H141417   1.329   5.427   1.653 -0.1387 -0.1052 -0.4291
 6594TIP3    H241418   1.371   5.291   1.601 -1.6851  0.5504 -3.7081
 6595TIP3   OH241419   5.629   3.668   0.176 -0.4066 -0.0323 -0.0334
 6595TIP3    H141420   5.628   3.753   0.132 -1.5092 -0.1673 -0.2966
 6595TIP3    H241421   5.639   3.605   0.106 -1.1499 -0.1915 -0.0100
 6596TIP3   OH241422   4.023   1.263   0.658 -0.2314  0.2233  0.1785
 6596TIP3    H141423   3.929   1.261   0.674 -0.2211 -1.6099  0.2185
 6596TIP3    H241424   4.039   1.348   0.616 -1.9926  0.2742 -0.4494
 6597TIP3   OH241425   0.964   0.807   7.471 -0.0989  0.0771  0.2686
 6597TIP3    H141426   0.890   0.858   7.437  0.8768 -0.7109 -3.4964
 6597TIP3    H241427   0.924   0.744   7.532 -2.0022  1.8269  0.9338
 6598TIP3   OH241428   5.232   4.078   8.342  0.0948  0.3299  0.0481
 6598TIP3    H141429   5.180   4.008   8.380 -1.5227  0.8605 -1.0677
 6598TIP3    H241430   5.242   4.143   8.412 -1.7307  0.7234 -0.0224
 6599TIP3   OH241431   6.637   3.211   0.193 -0.2478 -0.5359 -0.2200
 6599TIP3    H141432   6.702   3.168   0.138  0.8453 -0.2131  0.7730
 6599TIP3    H241433   6.689   3.268   0.251 -1.5283  0.9061 -0.4358
 6600TIP3   OH241434   0.939   2.925   0.774 -0.6218 -0.0600 -1.0381
 6600TIP3    H141435   0.860   2.882   0.741 -0.3694  0.8362 -2.9886
 6600TIP3    H241436   1.007   2.898   0.713  0.3211  0.1716 -0.1106
 6601TIP3   OH241437   3.082   4.841   9.061 -0.2632 -0.4756 -0.2788
 6601TIP3    H141438   3.092   4.746   9.054  0.5096 -0.8138  3.3280
 6601TIP3    H241439   3.171   4.875   9.047 -0.1762 -0.4946  0.1901
 6602TIP3   OH241440   3.136   2.316   1.912  0.0712  0.3254  0.3928
 6602TIP3    H141441   3.143   2.344   2.003 -2.7024 -0.7932  1.0701
 6602TIP3    H241442   3.043   2.329   1.890  0.1785 -1.5411 -1.5184
 6603TIP3   OH241443   3.627   0.158   0.309  0.3985 -0.4256 -0.1140
 6603TIP3    H141444   3.642   0.144   0.215  0.5495  1.2788 -0.3761
 6603TIP3    H241445   3.535   0.134   0.322  0.5670 -1.3540 -0.5424
 6604TIP3   OH241446   5.996   4.473   8.355 -0.1072  0.2732 -0.0551
 6604TIP3    H141447   6.057   4.461   8.282 -1.3453 -0.3272 -1.0224
 6604TIP3    H241448   5.951   4.389   8.363 -0.7193  0.6639  0.7416
 6605TIP3   OH241449   4.746   3.555   1.667 -0.4454 -0.3677 -0.4544
 6605TIP3    H141450   4.689   3.617   1.713 -1.0658 -1.4142  0.2220
 6605TIP3    H241451   4.689   3.511   1.605 -0.6832 -2.1999  0.9776
 6606TIP3   OH241452   2.355   1.111   8.957  0.2677 -0.6415  0.3236
 6606TIP3    H141453   2.395   1.064   9.030  1.1381  0.0632  0.3148
 6606TIP3    H241454   2.304   1.044   8.910  2.5667 -1.9269 -0.4970
 6607TIP3   OH241455   1.089   5.799   1.150 -0.9359  0.1357  0.0032
 6607TIP3    H141456   1.139   5.717   1.160 -1.2842  0.0315  0.9824
 6607TIP3    H241457   1.127   5.840   1.072  0.8428  0.1582  0.8288
 6608TIP3   OH241458   4.913   4.281   1.775  0.7327  0.1838 -0.0832
 6608TIP3    H141459   4.957   4.198   1.757 -0.5874 -0.4201 -0.6787
 6608TIP3    H241460   4.820   4.260   1.770  0.3472  1.2680  1.7887
 6609TIP3   OH241461   0.304   4.938   1.667  0.4554 -0.0291 -0.5090
 6609TIP3    H141462   0.385   4.966   1.626  0.9901 -0.4646  0.2278
 6609TIP3    H241463   0.277   5.011   1.721  0.1472  0.2599 -1.0434
 6610TIP3   OH241464   6.272   0.277   7.908 -0.0487 -0.4663  0.3970
 6610TIP3    H141465   6.205   0.223   7.866  1.6174 -1.9614 -0.5079
 6610TIP3    H241466   6.299   0.226   7.984  0.1024  0.1046  0.7336
 6611TIP3   OH241467   4.220   0.008   0.302  0.1179  0.2117 -0.2185
 6611TIP3    H141468   4.147   0.043   0.251  0.9698  0.1795 -1.5246
 6611TIP3    H241469   4.286   0.077   0.298 -0.2852  0.7858  2.0449
 6612TIP3   OH241470   0.456   3.256   1.460  0.5429 -0.5045 -0.2920
 6612TIP3    H141471   0.401   3.230   1.386 -0.5635 -2.2404  1.0425
 6612TIP3    H241472   0.437   3.349   1.472  1.2465 -0.0316 -2.5472
 6613TIP3   OH241473   5.760   0.716   1.049 -0.4506 -0.0951 -0.7620
 6613TIP3    H141474   5.751   0.702   1.143  0.2459  1.0497 -0.5034
 6613TIP3    H241475   5.710   0.644   1.009  1.1816 -2.0049  0.4337
 6614TIP3   OH241476   2.366   6.356   0.328 -0.0428  0.0656  0.1843
 6614TIP3    H141477   2.450   6.310   0.328 -0.1992 -0.2291  0.9407
 6614TIP3    H241478   2.309   6.302   0.383 -0.1522  1.3108  1.3489
 6615TIP3   OH241479   1.854   4.025   9.138 -0.1174 -0.7558 -0.1174
 6615TIP3    H141480   1.871   4.005   9.046 -0.1096 -0.4802 -0.1773
 6615TIP3    H241481   1.862   4.120   9.143 -1.7840 -0.5779 -0.1884
 6616TIP3   OH241482   4.605   4.210   1.533  0.8734 -0.0611  0.1969
 6616TIP3    H141483   4.600   4.120   1.501  0.8969  0.0828 -0.2136
 6616TIP3    H241484   4.641   4.260   1.460 -0.3010  0.5069 -0.0115
 6617TIP3   OH241485   5.447   0.351   0.430  0.5136  0.0044 -0.7293
 6617TIP3    H141486   5.538   0.363   0.459  1.0379 -0.7852 -1.9503
 6617TIP3    H241487   5.395   0.403   0.491  1.8293  0.8382 -0.2774
 6618TIP3   OH241488   0.919   1.802   2.294  0.5353  0.1185  0.5337
 6618TIP3    H141489   0.944   1.797   2.202  0.9226 -0.1524  0.6530
 6618TIP3    H241490   1.000   1.828   2.339  0.7822 -1.4090  1.0036
 6619TIP3   OH241491   6.350   0.638   8.278 -0.0008 -0.6539  0.5245
 6619TIP3    H141492   6.423   0.665   8.221 -0.0879  0.2686  0.8361
 6619TIP3    H241493   6.392   0.586   8.347  0.6485  1.2414  1.6444
 6620TIP3   OH241494   1.516   6.125   2.368  0.6814 -0.2406  0.3277
 6620TIP3    H141495   1.548   6.127   2.278 -0.8305 -1.4309 -0.2798
 6620TIP3    H241496   1.431   6.169   2.364  0.6948 -0.1090  1.2363
 6621TIP3   OH241497   5.180   4.083   0.703  0.0936 -0.1576  0.0100
 6621TIP3    H141498   5.203   3.992   0.721  1.1374  0.0545 -0.2245
 6621TIP3    H241499   5.153   4.083   0.611  2.0168  0.1135 -0.5825
 6622TIP3   OH241500   5.978   5.292   0.207  0.3135 -0.6646 -0.4944
 6622TIP3    H141501   6.012   5.382   0.212 -1.8928  0.2193 -0.2005
 6622TIP3    H241502   5.952   5.272   0.297 -0.4662 -1.0550 -0.8000
 6623TIP3   OH241503   2.985   4.093   7.807 -0.1068 -0.4206  0.4109
 6623TIP3    H141504   3.078   4.113   7.813  0.3444 -1.7453 -1.3573
 6623TIP3    H241505   2.978   4.001   7.831 -0.9346 -0.3835  0.3445
 6624TIP3   OH241506   1.590   1.370   8.701 -0.6683 -0.1290  0.4677
 6624TIP3    H141507   1.501   1.391   8.673 -1.0967 -0.1797  1.7344
 6624TIP3    H241508   1.619   1.302   8.640 -1.4709 -0.0828  0.0171
 6625TIP3   OH241509   6.160   0.236   8.855  0.6598 -0.8259 -0.2106
 6625TIP3    H141510   6.236   0.240   8.913 -0.3337  0.1624  1.0833
 6625TIP3    H241511   6.093   0.189   8.905 -0.3903  0.5103 -0.2986
 6626TIP3   OH241512   2.208   5.323   2.575 -0.2811 -0.6786 -0.4587
 6626TIP3    H141513   2.214   5.372   2.657 -1.1764 -2.4441  0.7301
 6626TIP3    H241514   2.131   5.359   2.531  1.3875  1.7485 -1.6457
 6627TIP3   OH241515   1.362   5.897   2.020  0.2774  0.3323 -0.2684
 6627TIP3    H141516   1.288   5.867   1.968  0.8424  0.8677 -1.4227
 6627TIP3    H241517   1.342   5.869   2.109 -0.0424 -1.9356 -0.9893
 6628TIP3   OH241518   1.654   4.155   1.658  0.0508 -0.1694 -0.1827
 6628TIP3    H141519   1.690   4.220   1.598 -0.8484  1.2705  0.7880
 6628TIP3    H241520   1.699   4.074   1.635  0.8077  0.6656 -1.7875
 6629TIP3   OH241521   2.485   1.006   1.494  0.1262 -0.0404 -0.2123
 6629TIP3    H141522   2.560   1.042   1.543  0.8689 -0.5251 -0.9555
 6629TIP3    H241523   2.416   1.071   1.505  0.2243 -0.1987  1.5780
 6630TIP3   OH241524   4.992   1.395   2.730 -0.6062  0.4300 -0.6999
 6630TIP3    H141525   5.042   1.314   2.741 -1.5065  0.0663  0.9002
 6630TIP3    H241526   5.058   1.464   2.729  0.0829 -0.2231 -0.9113
 6631TIP3   OH241527   4.517   1.759   7.939  0.3535 -0.2470 -0.8235
 6631TIP3    H141528   4.498   1.814   7.863  0.5847  0.6521 -0.2486
 6631TIP3    H241529   4.581   1.809   7.990  0.7888 -1.1848 -0.4254
 6632TIP3   OH241530   0.217   3.431   1.695  0.1110  0.0112  0.0747
 6632TIP3    H141531   0.124   3.421   1.674  0.5994 -1.2527 -1.8084
 6632TIP3    H241532   0.236   3.358   1.753 -0.4535  1.4113  2.1066
 6633TIP3   OH241533   4.157   3.234   8.009 -0.0481 -0.4319 -0.0522
 6633TIP3    H141534   4.112   3.237   7.925 -1.8270  0.0312  0.8775
 6633TIP3    H241535   4.232   3.292   7.998 -0.4030 -0.1676 -1.2198
 6634TIP3   OH241536   3.977   3.503   8.232 -0.1309 -0.1224 -0.0295
 6634TIP3    H141537   3.932   3.574   8.278 -1.1280  0.4337 -1.7576
 6634TIP3    H241538   3.919   3.482   8.159  0.9345 -1.6062 -0.4877
 6635TIP3   OH241539   0.574   3.552   9.156  0.1514 -0.1224 -0.4476
 6635TIP3    H141540   0.626   3.618   9.202 -1.1021  0.4477  0.2022
 6635TIP3    H241541   0.601   3.469   9.195 -0.9199  0.3478  1.3976
 6636TIP3   OH241542   4.096   2.548   0.371 -0.3778 -0.0157 -0.0897
 6636TIP3    H141543   4.049   2.472   0.406 -0.9100  0.5881  0.5282
 6636TIP3    H241544   4.062   2.559   0.282  0.3877 -1.0595 -0.5371
 6637TIP3   OH241545   5.175   6.242   7.936  0.5948  0.4462  0.2373
 6637TIP3    H141546   5.241   6.179   7.964  0.5782  0.8579  1.2274
 6637TIP3    H241547   5.091   6.198   7.952  0.5983  0.4129  0.1660
 6638TIP3   OH241548   2.971   2.667   8.692 -0.0983 -0.0078  0.2457
 6638TIP3    H141549   2.991   2.585   8.738 -1.8853 -1.5999 -1.5936
 6638TIP3    H241550   2.916   2.640   8.618  0.2389  2.7497 -1.1375
 6639TIP3   OH241551   4.347   1.536   2.557 -0.0225 -0.3359 -0.0683
 6639TIP3    H141552   4.425   1.538   2.612  0.7369  0.1260 -1.1442
 6639TIP3    H241553   4.359   1.460   2.500  0.0247  0.1958 -0.7759
 6640TIP3   OH241554   3.384   1.512   0.593 -0.8024  0.3892  0.6841
 6640TIP3    H141555   3.470   1.472   0.607 -0.2815  1.0926 -0.3434
 6640TIP3    H241556   3.322   1.449   0.629 -0.0178 -1.3451 -0.8474
 6641TIP3   OH241557   6.109   2.421   0.186  0.7812 -0.0825 -0.1349
 6641TIP3    H141558   6.131   2.331   0.210  2.3378  0.3377  0.0778
 6641TIP3    H241559   6.139   2.430   0.095 -0.8625 -0.2387 -0.7447
 6642TIP3   OH241560   6.304   3.617   0.806 -0.1414  0.2110 -0.3889
 6642TIP3    H141561   6.276   3.562   0.732 -1.0602  0.9912 -0.6453
 6642TIP3    H241562   6.396   3.637   0.788  0.0009 -0.6409 -0.6621
 6643TIP3   OH241563   3.050   0.755   8.833 -0.1918  0.0296 -0.5797
 6643TIP3    H141564   2.985   0.779   8.898  0.6410 -0.8281  0.6056
 6643TIP3    H241565   3.016   0.675   8.793  0.3573 -0.6855  0.3762
 6644TIP3   OH241566   3.125   1.919   8.854  0.2283 -0.0537 -0.0918
 6644TIP3    H141567   3.069   1.875   8.918  0.5702  1.2993  1.1833
 6644TIP3    H241568   3.201   1.862   8.846 -0.0816 -0.5280  0.2608
 6645TIP3   OH241569   3.335   3.938   7.336  0.6135  0.0949  0.1492
 6645TIP3    H141570   3.282   3.986   7.272 -0.0131  0.2771  0.7839
 6645TIP3    H241571   3.360   4.004   7.401  3.5660  0.5307 -1.2621
 6646TIP3   OH241572   3.609   4.512   8.776 -0.0210 -0.3408 -0.4891
 6646TIP3    H141573   3.522   4.488   8.807 -0.2226 -0.1727 -0.9145
 6646TIP3    H241574   3.662   4.517   8.855 -0.0380 -1.9206 -0.3608
 6647TIP3   OH241575   1.534   0.578   1.838 -0.1036 -0.1141  0.3458
 6647TIP3    H141576   1.582   0.581   1.921  0.7107 -0.9246 -0.0726
 6647TIP3    H241577   1.535   0.669   1.808  0.4869  0.0239  0.7430
 6648TIP3   OH241578   2.461   5.041   2.607  0.1520 -0.2170  0.0424
 6648TIP3    H141579   2.542   5.019   2.560  0.9183 -0.1596  1.2901
 6648TIP3    H241580   2.487   5.043   2.699 -1.2535 -0.0667  0.4543
 6649TIP3   OH241581   2.768   0.685   0.605 -0.3725  0.2788 -0.0136
 6649TIP3    H141582   2.853   0.641   0.614  0.5520  1.9387 -0.2506
 6649TIP3    H241583   2.736   0.693   0.694 -2.0576 -3.4921 -0.0752
 6650TIP3   OH241584   1.552   1.680   0.646 -0.3532 -0.3851  0.2109
 6650TIP3    H141585   1.496   1.745   0.688  0.3913  0.6739 -0.3735
 6650TIP3    H241586   1.521   1.596   0.679 -1.9594  0.1976  0.2628
 6651TIP3   OH241587   5.697   1.032   2.778  0.4400 -0.2041 -0.6980
 6651TIP3    H141588   5.668   1.063   2.692  1.8838  0.2993 -1.0291
 6651TIP3    H241589   5.690   0.937   2.772 -2.6710 -0.1217 -0.1683
 6652TIP3   OH241590   6.445   5.036   9.095 -0.1508  0.3883 -0.1163
 6652TIP3    H141591   6.389   5.104   9.056 -0.2739  0.6425  0.4905
 6652TIP3    H241592   6.386   4.962   9.108 -0.2042  0.4425 -0.0464
 6653TIP3   OH241593   0.783   5.469   1.089 -0.2218 -0.7583 -0.1409
 6653TIP3    H141594   0.744   5.382   1.091  0.9877 -1.3827 -1.4654
 6653TIP3    H241595   0.839   5.473   1.166  0.8846 -1.7759 -0.8547
 6654TIP3   OH241596   4.472   2.536   7.599  0.1709  0.0371 -0.2385
 6654TIP3    H141597   4.532   2.466   7.623  0.6047  0.3780 -0.3329
 6654TIP3    H241598   4.386   2.504   7.627  0.4642 -0.2261  0.3769
 6655TIP3   OH241599   1.295   5.181   8.714 -0.2346 -0.0153  0.1694
 6655TIP3    H141600   1.323   5.157   8.802  0.3417 -0.2455 -0.0702
 6655TIP3    H241601   1.362   5.143   8.656 -2.1509 -2.5168 -0.6026
 6656TIP3   OH241602   5.965   0.398   9.097 -0.0233  0.4528 -0.2724
 6656TIP3    H141603   5.909   0.340   9.148 -2.3520  1.3332 -1.6437
 6656TIP3    H241604   6.016   0.340   9.040 -1.9526 -0.3485 -1.2798
 6657TIP3   OH241605   1.609   2.201   8.957  0.3081 -0.1907 -0.6154
 6657TIP3    H141606   1.565   2.147   9.023  1.0515  0.4222  0.3985
 6657TIP3    H241607   1.542   2.218   8.892 -0.6840 -0.0862  0.4116
 6658TIP3   OH241608   4.273   1.374   0.077  0.1722  0.2405  0.0590
 6658TIP3    H141609   4.265   1.279   0.071  1.0171  0.1702 -0.1906
 6658TIP3    H241610   4.337   1.388   0.148  1.2705  0.5470 -0.9543
 6659TIP3   OH241611   3.584   2.706   1.561  0.3172  0.2318  0.2563
 6659TIP3    H141612   3.640   2.711   1.638  0.6278 -0.8480  0.1190
 6659TIP3    H241613   3.547   2.794   1.552 -1.8192 -0.2324  3.1945
 6660TIP3   OH241614   6.189   5.528   2.044 -0.7472  0.2938  0.1894
 6660TIP3    H141615   6.207   5.503   2.135  0.7170 -2.5916 -0.7775
 6660TIP3    H241616   6.261   5.586   2.020 -1.4457  1.5322  0.9882
 6661TIP3   OH241617   2.472   4.194   8.438 -0.1616 -0.0998 -0.7186
 6661TIP3    H141618   2.540   4.128   8.426 -1.0314 -1.3703  0.9440
 6661TIP3    H241619   2.469   4.208   8.533 -0.9092  1.3598 -0.9331
 6662TIP3   OH241620   3.835   6.620   0.086 -0.2935  0.0565  0.2601
 6662TIP3    H141621   3.862   6.689   0.146 -2.2544  0.5690  0.6432
 6662TIP3    H241622   3.741   6.634   0.074 -0.4324 -1.5577 -0.9620
 6663TIP3   OH241623   1.978   2.487   8.066 -0.3048  0.0706 -0.3233
 6663TIP3    H141624   1.937   2.573   8.059  1.4551  0.9485 -0.4678
 6663TIP3    H241625   1.908   2.429   8.098 -1.9812  1.1670 -1.8384
 6664TIP3   OH241626   4.910   5.761   8.639  0.4205 -0.3571  0.8237
 6664TIP3    H141627   4.841   5.724   8.695  0.4664  0.0114  1.1302
 6664TIP3    H241628   4.914   5.702   8.564 -3.7744  2.2205 -1.8550
 6665TIP3   OH241629   0.128   1.190   2.228 -0.1699  0.2316 -0.0155
 6665TIP3    H141630   0.104   1.228   2.312  0.1548  0.5419 -0.0635
 6665TIP3    H241631   0.221   1.208   2.218  0.1131 -1.0433  0.2024
 6666TIP3   OH241632   3.935   6.198   2.858 -0.1246 -0.0008 -0.6825
 6666TIP3    H141633   3.864   6.222   2.917  0.8936 -3.0445  2.0830
 6666TIP3    H241634   3.930   6.263   2.788 -2.8863  2.5056  1.5216
 6667TIP3   OH241635   3.607   3.121   0.669 -0.1344 -0.2841 -0.2494
 6667TIP3    H141636   3.513   3.121   0.648 -0.3607 -2.4958  0.5271
 6667TIP3    H241637   3.610   3.132   0.764  0.5037  1.2919 -0.4198
 6668TIP3   OH241638   4.128   1.277   0.979 -0.1420  0.3213  0.5270
 6668TIP3    H141639   4.072   1.275   0.901  1.0135 -1.4443 -0.3129
 6668TIP3    H241640   4.094   1.351   1.030 -3.8795 -1.2128  0.5514
 6669TIP3   OH241641   2.498   2.937   2.339  0.4990 -0.6178 -0.1588
 6669TIP3    H141642   2.516   2.873   2.408  2.4138 -0.0198 -0.0440
 6669TIP3    H241643   2.553   3.012   2.361 -1.2354  0.8447 -0.6404
 6670TIP3   OH241644   1.250   6.257   3.065  0.5287 -0.2591  0.0979
 6670TIP3    H141645   1.329   6.224   3.023  1.4276  1.4616  0.3638
 6670TIP3    H241646   1.217   6.323   3.004  1.2342  1.4751  1.5221
 6671TIP3   OH241647   2.063   0.166   1.707  0.5267 -0.4245 -0.0931
 6671TIP3    H141648   2.149   0.204   1.691  0.6773 -1.6087 -2.5360
 6671TIP3    H241649   2.073   0.073   1.686 -0.8508 -0.9991  1.6066
 6672TIP3   OH241650   2.670   4.880   8.379  0.0046  0.0524  0.2326
 6672TIP3    H141651   2.763   4.896   8.397  0.1313  0.6177 -0.8242
 6672TIP3    H241652   2.666   4.789   8.349  0.2116  0.0206  0.2986
 6673TIP3   OH241653   0.882   0.626   2.625 -0.1051  0.4748  0.3026
 6673TIP3    H141654   0.965   0.651   2.586 -0.8580  1.5289 -0.6772
 6673TIP3    H241655   0.870   0.687   2.698 -0.9351  1.6511 -0.7817
 6674TIP3   OH241656   5.080   5.978   8.415 -0.1042 -0.4380 -0.3072
 6674TIP3    H141657   5.052   6.014   8.499  3.2834 -0.3408  0.9429
 6674TIP3    H241658   5.114   6.052   8.366  0.2046 -0.8719 -0.7646
 6675TIP3   OH241659   5.025   6.132   0.374 -0.3885 -0.6708 -0.0829
 6675TIP3    H141660   4.930   6.136   0.363 -0.3678 -0.5365 -0.2156
 6675TIP3    H241661   5.058   6.111   0.287 -0.1080  2.1173 -0.7518
 6676TIP3   OH241662   3.606   0.070   7.079  0.0745  0.8738 -0.1189
 6676TIP3    H141663   3.562  -0.002   7.033  0.0798  0.3753  0.6439
 6676TIP3    H241664   3.592   0.146   7.023  1.2217  0.0296 -1.6447
 6677TIP3   OH241665   5.611   0.209   1.529  0.2309  0.1159  0.0302
 6677TIP3    H141666   5.613   0.130   1.583  0.9620  0.6813  0.8483
 6677TIP3    H241667   5.519   0.220   1.506  0.1811 -1.2576 -0.5335
 6678TIP3   OH241668   2.716   1.747   8.873  0.0043 -0.1867  0.1955
 6678TIP3    H141669   2.740   1.837   8.850 -0.2331 -0.3605 -0.7960
 6678TIP3    H241670   2.621   1.747   8.875  0.0171 -0.1257  1.4712
 6679TIP3   OH241671   1.467   5.617   0.013 -0.1551  0.6742 -0.0681
 6679TIP3    H141672   1.438   5.595   0.102  3.4995 -0.2113  1.0901
 6679TIP3    H241673   1.477   5.532  -0.030 -1.6431  1.0870 -1.2997
 6680TIP3   OH241674   2.032   5.384   8.710  0.0801 -0.1378 -0.0403
 6680TIP3    H141675   2.050   5.446   8.781  1.5422  0.4083 -0.8552
 6680TIP3    H241676   2.000   5.437   8.638  0.3288 -0.4683 -0.3982
 6681TIP3   OH241677   3.926   0.241   2.295  0.0646  0.0072 -0.3398
 6681TIP3    H141678   3.966   0.255   2.380 -2.5607  1.1934  0.8016
 6681TIP3    H241679   3.885   0.155   2.301 -2.2728  1.0859  0.6444
 6682TIP3   OH241680   2.662   6.071   1.097 -0.4959 -0.9058  0.4514
 6682TIP3    H141681   2.698   6.074   1.186 -1.3589  0.4538  0.7791
 6682TIP3    H241682   2.737   6.090   1.040 -0.1409 -0.7666  0.9627
 6683TIP3   OH241683   5.051   4.886   0.084 -0.5335 -0.2653  0.5202
 6683TIP3    H141684   5.055   4.937   0.165 -1.0399  1.2188 -0.3583
 6683TIP3    H241685   4.962   4.849   0.084 -0.5526 -0.2187  0.6213
 6684TIP3   OH241686   1.466   5.996   8.286 -0.4175 -0.2557  0.2036
 6684TIP3    H141687   1.492   5.906   8.306  1.7864  0.2512 -0.1385
 6684TIP3    H241688   1.486   6.045   8.366  2.0122  0.5517 -0.8033
 6685TIP3   OH241689   3.334   2.694   1.067 -0.2871  0.4114  0.0702
 6685TIP3    H141690   3.318   2.789   1.067 -0.6740  0.3826  1.6704
 6685TIP3    H241691   3.418   2.684   1.113  0.3785  0.0418 -1.1907
 6686TIP3   OH241692   1.870   3.781   0.074  0.0302  0.6723 -0.3321
 6686TIP3    H141693   1.822   3.855   0.038  0.0054 -0.2954 -2.4172
 6686TIP3    H241694   1.806   3.733   0.126 -0.3975  1.1804 -0.3887
 6687TIP3   OH241695   0.146   0.830   1.553  0.3360 -0.2172  0.0466
 6687TIP3    H141696   0.157   0.888   1.628 -0.1556 -1.4142  1.0859
 6687TIP3    H241697   0.056   0.797   1.561 -0.0454  0.3371 -1.5962
 6688TIP3   OH241698   2.775   0.752   8.979  0.0300 -0.3630  0.6039
 6688TIP3    H141699   2.722   0.765   8.900 -0.9420  0.0387  1.3020
 6688TIP3    H241700   2.797   0.841   9.009  1.0927 -0.5238  0.3389
 6689TIP3   OH241701   6.024   2.815   2.355 -0.1053 -0.3371 -0.8793
 6689TIP3    H141702   6.114   2.785   2.370 -1.0638 -2.4311  1.5152
 6689TIP3    H241703   5.997   2.853   2.439 -1.2473  0.8999 -1.7738
 6690TIP3   OH241704   4.285   4.973   1.366 -0.1427  0.6097  0.2430
 6690TIP3    H141705   4.280   4.878   1.357 -1.0168  0.6311  0.4075
 6690TIP3    H241706   4.305   5.004   1.277 -0.4529  0.3080  0.0663
 6691TIP3   OH241707   1.262   0.176   2.510 -0.0299 -0.1985  0.0265
 6691TIP3    H141708   1.199   0.243   2.484  1.9607  1.5109 -0.6209
 6691TIP3    H241709   1.286   0.199   2.600 -2.3805 -2.5687  1.4125
 6692TIP3   OH241710   2.490   4.329   8.727  0.6001  0.0959  0.5397
 6692TIP3    H141711   2.563   4.392   8.727 -0.4611  1.3863  0.6756
 6692TIP3    H241712   2.412   4.384   8.714 -0.1446 -1.4997 -3.0026
 6693TIP3   OH241713   2.809   3.683   8.673  0.1354  0.2240  0.1234
 6693TIP3    H141714   2.830   3.617   8.607 -1.2640  0.4955 -0.6153
 6693TIP3    H241715   2.856   3.761   8.645  1.5284 -0.3187  0.8200
 6694TIP3   OH241716   0.771   2.797   0.994 -0.5760  0.7408 -0.3982
 6694TIP3    H141717   0.770   2.828   1.084 -0.6442 -0.2260 -0.0561
 6694TIP3    H241718   0.844   2.844   0.953  0.0042  0.5563  0.3967
 6695TIP3   OH241719   3.085   6.311   0.074  0.4105 -0.2227 -0.1011
 6695TIP3    H141720   3.049   6.380   0.129 -1.4192 -0.7753 -0.5315
 6695TIP3    H241721   3.066   6.339  -0.016  1.7675 -0.1825 -0.4053
 6696TIP3   OH241722   5.010   3.682   7.922 -0.2380 -0.2493  0.5074
 6696TIP3    H141723   5.066   3.611   7.892 -1.5552 -0.7452 -0.8901
 6696TIP3    H241724   5.047   3.761   7.882 -0.2476 -0.5056 -0.0147
 6697TIP3   OH241725   4.012   5.141   0.643  0.1733  0.3680  0.3335
 6697TIP3    H141726   3.974   5.202   0.580 -3.1961 -1.4684  0.3461
 6697TIP3    H241727   4.042   5.196   0.715 -2.9964  2.0971  0.5095
 6698TIP3   OH241728   0.904   5.614   1.889  0.1087 -0.4706  0.0720
 6698TIP3    H141729   0.840   5.626   1.818  0.1281 -2.0746 -0.2408
 6698TIP3    H241730   0.945   5.530   1.871 -0.2974 -1.2113  2.3160
 6699TIP3   OH241731   5.263   6.401   0.559  0.1379  0.1340  0.6767
 6699TIP3    H141732   5.285   6.385   0.467  0.4161 -1.7561  1.0187
 6699TIP3    H241733   5.216   6.322   0.586 -4.0844  2.4457  0.9814
 6700TIP3   OH241734   2.375   5.617   8.196 -0.1633 -0.1896  0.5705
 6700TIP3    H141735   2.305   5.633   8.259  0.0681 -2.3335  1.4368
 6700TIP3    H241736   2.454   5.648   8.239 -0.3894  1.0894  0.0945
 6701TIP3   OH241737   1.123   5.997   8.413  0.5014 -0.1858 -0.6977
 6701TIP3    H141738   1.044   6.051   8.405  0.3463 -0.4332 -0.8580
 6701TIP3    H241739   1.173   6.016   8.333  0.5182 -0.1645 -0.6813
 6702TIP3   OH241740   0.572   5.043   2.289  0.9881 -0.7630 -0.0426
 6702TIP3    H141741   0.583   5.117   2.348  1.8850 -2.1956  1.7098
 6702TIP3    H241742   0.477   5.035   2.278  0.8722  0.4678 -0.0414
 6703TIP3   OH241743   5.393   0.640   8.677  0.0991 -0.5660 -0.2225
 6703TIP3    H141744   5.419   0.625   8.767  2.1954 -0.0127 -0.6607
 6703TIP3    H241745   5.370   0.554   8.643 -0.1919 -0.8529  0.6770
 6704TIP3   OH241746   3.263   2.429   0.993 -0.1222 -0.4681  0.0485
 6704TIP3    H141747   3.281   2.350   1.042 -0.6723  0.0900  1.1819
 6704TIP3    H241748   3.333   2.490   1.017 -0.1905 -0.3144 -0.1324
 6705TIP3   OH241749   0.308   4.207   7.259  0.2945 -0.4848 -0.3048
 6705TIP3    H141750   0.232   4.264   7.268  0.1393 -0.4092 -1.7726
 6705TIP3    H241751   0.301   4.146   7.332 -0.4745  0.3117  0.3067
 6706TIP3   OH241752   3.304   2.841   8.910 -0.4739 -0.6045 -0.2825
 6706TIP3    H141753   3.354   2.921   8.924 -0.4157 -0.6074 -0.4696
 6706TIP3    H241754   3.357   2.772   8.950 -0.1164 -0.6703 -0.8653
 6707TIP3   OH241755   3.495   1.044   7.501  0.1246 -0.0633 -0.5334
 6707TIP3    H141756   3.576   0.993   7.499  0.7648  0.9372 -0.7987
 6707TIP3    H241757   3.482   1.072   7.411 -0.4096 -0.0593 -0.4552
 6708TIP3   OH241758   2.296   3.356   7.875  0.3457 -0.0939  0.3540
 6708TIP3    H141759   2.378   3.307   7.881  0.2121 -0.4635 -0.7750
 6708TIP3    H241760   2.229   3.293   7.900  0.3848  0.2038  1.2598
 6709TIP3   OH241761   6.432   2.369   8.313  0.4387 -0.6587  0.6547
 6709TIP3    H141762   6.524   2.384   8.290  0.3877 -0.7572  0.3869
 6709TIP3    H241763   6.383   2.401   8.238  0.1450  1.2114  1.5775
 6710TIP3   OH241764   0.780   1.701   0.360  0.1469  0.1596 -0.1696
 6710TIP3    H141765   0.688   1.714   0.383  0.3834  1.7853 -0.0468
 6710TIP3    H241766   0.800   1.773   0.300  0.9013 -1.1353 -1.5280
 6711TIP3   OH241767   4.155   4.223   8.275 -0.1778 -0.5688  0.5636
 6711TIP3    H141768   4.119   4.282   8.208  0.1624 -1.3852 -0.3608
 6711TIP3    H241769   4.079   4.180   8.313 -0.4772  0.7734  1.5881
 6712TIP3   OH241770   0.757   0.456   2.197 -0.2106  0.1878 -0.2976
 6712TIP3    H141771   0.836   0.420   2.158  0.8551 -0.0339  1.8748
 6712TIP3    H241772   0.706   0.379   2.223 -0.4641  0.3081 -0.4408
 6713TIP3   OH241773   0.206   4.646   8.556  0.2055  0.3369 -0.0713
 6713TIP3    H141774   0.206   4.736   8.589  0.6569 -0.0548  1.0492
 6713TIP3    H241775   0.298   4.627   8.539  0.0246  0.3694 -1.1406
 6714TIP3   OH241776   4.631   4.989   7.921 -0.1578 -0.2423  0.4220
 6714TIP3    H141777   4.600   5.074   7.892  0.2440  0.0762  0.9001
 6714TIP3    H241778   4.617   4.988   8.015  0.8499 -0.2576  0.5916
 6715TIP3   OH241779   1.606   2.672   1.383 -0.8535  0.0475 -0.2969
 6715TIP3    H141780   1.669   2.675   1.455 -1.2419  0.8925  0.0235
 6715TIP3    H241781   1.520   2.664   1.426 -1.1630  1.4528 -0.6054
 6716TIP3   OH241782   0.098   3.801   0.224 -0.2699  0.4968  0.1470
 6716TIP3    H141783   0.050   3.740   0.166 -2.4765  2.5101 -0.3183
 6716TIP3    H241784   0.048   3.799   0.306  0.4828  0.6471  0.6116
 6717TIP3   OH241785   0.788   2.500   7.914  0.2361 -0.1382 -0.2091
 6717TIP3    H141786   0.849   2.497   7.840 -0.0317 -1.1404 -0.4091
 6717TIP3    H241787   0.738   2.419   7.906 -2.4674  1.5007 -1.1942
 6718TIP3   OH241788   0.956   5.196   9.137 -0.0742 -0.3210 -0.1533
 6718TIP3    H141789   1.046   5.218   9.160 -0.4439  0.9902  0.1180
 6718TIP3    H241790   0.942   5.238   9.052 -1.1299  1.5467  0.8605
 6719TIP3   OH241791   5.103   2.833   1.997 -0.2147 -0.1779 -0.4105
 6719TIP3    H141792   5.039   2.786   1.944 -0.3860  0.2991 -0.6341
 6719TIP3    H241793   5.090   2.925   1.974  0.5058 -0.0725 -0.4132
 6720TIP3   OH241794   2.795   5.218   1.044 -0.3793  0.1431 -0.2193
 6720TIP3    H141795   2.765   5.160   1.114  2.2993  1.3925  2.1811
 6720TIP3    H241796   2.854   5.163   0.991  1.1963  0.2526  1.3279
 6721TIP3   OH241797   3.333   5.955   7.877 -0.4746  0.3748  0.0776
 6721TIP3    H141798   3.242   5.947   7.849 -0.6076 -1.4736  0.9407
 6721TIP3    H241799   3.363   5.865   7.887  1.9062  0.8875 -1.5351
 6722TIP3   OH241800   4.946   1.088   0.950 -0.3291 -0.5800 -0.2793
 6722TIP3    H141801   4.871   1.030   0.968 -0.7190 -0.0161 -0.0512
 6722TIP3    H241802   4.907   1.164   0.907  0.1934 -0.5302 -0.6649
 6723TIP3   OH241803   4.629   0.495   2.478  0.2881  0.5771 -1.0979
 6723TIP3    H141804   4.634   0.536   2.564  2.8747  0.3459 -1.0669
 6723TIP3    H241805   4.559   0.543   2.433  0.5633  2.3784  0.2648
 6724TIP3   OH241806   4.684   4.842   7.349  0.3504  0.9977  0.0628
 6724TIP3    H141807   4.601   4.888   7.338 -0.3519 -0.0580  0.7622
 6724TIP3    H241808   4.732   4.859   7.267  0.8248  4.2593  0.8831
 6725TIP3   OH241809   4.077   1.862   0.141 -0.0421 -0.2807 -0.6240
 6725TIP3    H141810   4.105   1.809   0.066 -0.5095  0.3232 -1.2356
 6725TIP3    H241811   4.146   1.850   0.206  0.8552 -0.0612 -1.5121
 6726TIP3   OH241812   4.692   5.396   0.299  0.4155 -0.1560 -0.3437
 6726TIP3    H141813   4.620   5.361   0.352  0.1449 -0.3068 -0.8062
 6726TIP3    H241814   4.722   5.473   0.348 -1.5663  1.2665 -1.2579
 6727TIP3   OH241815   2.503   5.957   9.137  0.0584  0.0479  0.2396
 6727TIP3    H141816   2.593   5.987   9.149 -0.7185  2.1375  1.3201
 6727TIP3    H241817   2.492   5.953   9.042  1.0323  0.5823  0.0915
 6728TIP3   OH241818   3.786   3.639   0.801 -0.1348 -0.0298 -0.1336
 6728TIP3    H141819   3.850   3.679   0.860 -0.6738 -0.0578  0.4846
 6728TIP3    H241820   3.826   3.645   0.715  0.9072 -0.4960  0.3087
 6729TIP3   OH241821   5.833   3.506   1.400 -0.0729 -0.1575 -0.3392
 6729TIP3    H141822   5.769   3.553   1.453 -1.0865 -1.6539 -0.1831
 6729TIP3    H241823   5.918   3.534   1.435 -0.6743  0.4140  0.7086
 6730TIP3   OH241824   2.497   3.581   0.838 -0.0880 -0.0534 -0.0553
 6730TIP3    H141825   2.592   3.578   0.829 -0.1255 -0.9017 -0.2418
 6730TIP3    H241826   2.466   3.501   0.795 -0.7481 -0.7942  1.7310
 6731TIP3   OH241827   4.083   5.007   7.206 -0.1896  0.3072 -0.0623
 6731TIP3    H141828   4.134   5.043   7.279 -0.2593  1.6913 -0.6696
 6731TIP3    H241829   4.109   5.059   7.130 -1.0601 -0.2698 -0.7794
 6732TIP3   OH241830   0.035   6.200   1.335 -0.3769 -0.3609 -0.3439
 6732TIP3    H141831   0.069   6.205   1.425 -2.7316 -2.0927  0.7445
 6732TIP3    H241832   0.079   6.272   1.289  1.3182  0.2463  2.0234
 6733TIP3   OH241833   4.175   5.791   9.057 -0.1563  0.3764  0.4816
 6733TIP3    H141834   4.153   5.707   9.016  0.8660 -0.0225  0.7037
 6733TIP3    H241835   4.096   5.844   9.049 -1.1284 -0.9197  1.1286
 6734TIP3   OH241836   0.936   6.194   8.414 -0.3385 -0.1324  0.8499
 6734TIP3    H141837   0.861   6.253   8.415  0.4838  1.0419 -0.7629
 6734TIP3    H241838   1.009   6.250   8.386  1.2494 -1.1273  2.7933
 6735TIP3   OH241839   0.365   0.327   0.481 -0.5187  0.0029 -0.3651
 6735TIP3    H141840   0.434   0.266   0.455 -1.6407 -1.2576 -0.4983
 6735TIP3    H241841   0.328   0.358   0.398 -1.1205 -0.5205 -0.2967
 6736TIP3   OH241842   2.311   1.597   0.460  0.5003 -0.0902  0.0508
 6736TIP3    H141843   2.222   1.586   0.494  1.8472 -0.0369  4.0735
 6736TIP3    H241844   2.350   1.510   0.468  1.3293  0.2706 -0.0367
 6737TIP3   OH241845   3.918   2.692   8.200 -0.5636  0.2043 -0.0955
 6737TIP3    H141846   3.891   2.728   8.284  0.3329  0.3658  0.1311
 6737TIP3    H241847   3.993   2.636   8.220  0.9552  1.8116 -1.0194
 6738TIP3   OH241848   3.613   4.445   8.279 -0.3874  0.2800 -0.2604
 6738TIP3    H141849   3.596   4.386   8.353 -1.4195  1.9175  0.8805
 6738TIP3    H241850   3.637   4.528   8.320  0.1887  0.9101 -1.8017
 6739TIP3   OH241851   3.785   1.795   8.112  0.0998  0.7463  0.0280
 6739TIP3    H141852   3.807   1.732   8.043  0.2869  0.5063  0.3054
 6739TIP3    H241853   3.868   1.815   8.155 -0.1342  0.1982  0.7687
 6740TIP3   OH241854   2.465   0.542   2.078  0.0291 -0.0303 -0.1264
 6740TIP3    H141855   2.463   0.546   2.173  1.7464 -1.7618  0.0445
 6740TIP3    H241856   2.373   0.541   2.051 -0.4784  0.7923  1.4704
 6741TIP3   OH241857   3.255   0.828   9.204 -0.4791 -0.6481 -0.1035
 6741TIP3    H141858   3.301   0.747   9.227 -0.3194 -0.4399  0.3105
 6741TIP3    H241859   3.250   0.826   9.108 -0.6473 -1.2401 -0.0854
 6742TIP3   OH241860   5.359   1.800   9.178  0.0745  0.3436  0.4108
 6742TIP3    H141861   5.364   1.708   9.203 -0.8594  0.3135  0.5197
 6742TIP3    H241862   5.343   1.846   9.261 -0.1649  0.5266  0.2653
 6743TIP3   OH241863   3.029   3.135   8.397  0.1101  0.1328 -0.4898
 6743TIP3    H141864   3.033   3.048   8.436 -0.9189 -0.2462 -1.1900
 6743TIP3    H241865   2.974   3.186   8.457  1.2918  0.5214  0.2916
 6744TIP3   OH241866   5.055   0.695   8.677 -0.9071 -0.2342 -0.2521
 6744TIP3    H141867   5.013   0.773   8.713  0.6111  0.3151  0.3883
 6744TIP3    H241868   5.109   0.728   8.605 -1.6007 -0.9463 -1.1336
 6745TIP3   OH241869   2.156   4.791   2.244  0.4300 -0.2655 -0.2418
 6745TIP3    H141870   2.092   4.838   2.297  1.4203 -0.0232  0.7678
 6745TIP3    H241871   2.182   4.716   2.297  0.5120 -0.7186 -0.9096
 6746TIP3   OH241872   4.800   1.436   9.023  0.3850 -0.0608  0.5049
 6746TIP3    H141873   4.781   1.431   8.930  0.1506  0.0087  0.5495
 6746TIP3    H241874   4.860   1.363   9.039  1.2245  0.5166  0.1080
 6747TIP3   OH241875   2.450   0.173   1.682 -0.3023  0.5663  0.1178
 6747TIP3    H141876   2.395   0.149   1.608 -0.0163  0.9657 -0.2351
 6747TIP3    H241877   2.533   0.127   1.666 -1.0631 -1.4100  1.5327
 6748TIP3   OH241878   0.449   0.735   0.037 -0.0362  0.8788  0.0439
 6748TIP3    H141879   0.524   0.786   0.066  0.2041  0.3367  0.3876
 6748TIP3    H241880   0.481   0.686  -0.038 -0.4594  1.7403 -0.7250
 6749TIP3   OH241881   3.682   5.462   8.237 -0.0698  0.1268  0.1771
 6749TIP3    H141882   3.654   5.383   8.191  0.9227  0.3104 -0.7840
 6749TIP3    H241883   3.689   5.435   8.329 -3.0274 -0.0041  0.4612
 6750TIP3   OH241884   0.300   3.069   0.336 -0.6459  0.8115  0.1135
 6750TIP3    H141885   0.252   3.122   0.273 -1.1675  0.9735  0.6348
 6750TIP3    H241886   0.356   3.013   0.283  0.0808  2.0338 -0.4542
 6751TIP3   OH241887   6.570   1.124   8.733 -0.0915 -0.3953  0.0791
 6751TIP3    H141888   6.660   1.125   8.767  2.2624 -1.5792 -5.1164
 6751TIP3    H241889   6.553   1.216   8.710  0.4011 -0.3767 -0.2329
 6752TIP3   OH241890   1.801   6.042   1.614 -0.1198 -0.2183  0.8696
 6752TIP3    H141891   1.896   6.045   1.612 -0.0941 -1.0306  0.7667
 6752TIP3    H241892   1.775   6.012   1.527 -0.3750 -1.9910  1.5120
 6753TIP3   OH241893   0.729   0.577   0.411 -0.1556 -0.2732  0.4818
 6753TIP3    H141894   0.648   0.566   0.361 -1.3422  0.6741  2.1147
 6753TIP3    H241895   0.720   0.662   0.453  1.8276 -0.0282  0.5196
 6754TIP3   OH241896   0.289   2.436   8.241  0.3018  0.1064  0.4566
 6754TIP3    H141897   0.292   2.529   8.219  1.0680  0.2664  1.1887
 6754TIP3    H241898   0.245   2.395   8.167  0.2028  1.0151  0.0037
 6755TIP3   OH241899   2.675   4.017   0.459 -0.4310 -0.6009 -0.6555
 6755TIP3    H141900   2.650   3.984   0.373  0.0975 -1.0048 -0.6588
 6755TIP3    H241901   2.770   4.018   0.458 -0.4125  0.7628 -0.5835
 6756TIP3   OH241902   2.574   0.269   8.981 -0.4700  0.9177 -0.0777
 6756TIP3    H141903   2.571   0.356   8.941 -0.3289  1.1553  0.4181
 6756TIP3    H241904   2.590   0.286   9.074  1.4296  0.2966 -0.2511
 6757TIP3   OH241905   2.174   5.991   8.270 -0.0369  0.3479 -0.4053
 6757TIP3    H141906   2.219   5.968   8.189  0.2363  1.2755 -0.5353
 6757TIP3    H241907   2.163   5.908   8.316  0.1225 -0.1444 -1.2265
 6758TIP3   OH241908   0.507   5.753   2.242  0.3892  0.1115 -0.1316
 6758TIP3    H141909   0.577   5.816   2.228  2.4518 -2.5294 -2.8284
 6758TIP3    H241910   0.473   5.734   2.155 -2.0628 -0.5524  0.8747
 6759TIP3   OH241911   4.119   5.823   8.147 -0.3611  0.4246  0.3576
 6759TIP3    H141912   4.202   5.796   8.186 -0.1978 -2.3463 -1.6291
 6759TIP3    H241913   4.141   5.849   8.058 -1.3632  2.0525  0.5338
 6760TIP3   OH241914   2.257   6.361   8.780 -0.8171 -0.2323 -0.2809
 6760TIP3    H141915   2.343   6.399   8.761 -1.0334 -0.0677 -0.9808
 6760TIP3    H241916   2.260   6.338   8.872  0.4388 -1.4470 -0.6045
 6761TIP3   OH241917   4.936   4.818   2.541 -0.0200  0.8959 -0.2090
 6761TIP3    H141918   4.957   4.911   2.533 -1.6878  1.5545  2.0716
 6761TIP3    H241919   4.975   4.792   2.625 -1.0602  0.0280  0.0276
 6762TIP3   OH241920   6.680   2.468   0.507 -0.3977 -0.0928  0.0748
 6762TIP3    H141921   6.608   2.517   0.546  0.1862 -0.0788  1.1876
 6762TIP3    H241922   6.744   2.536   0.483 -0.7359 -0.1049 -0.8893
 6763TIP3   OH241923   3.170   4.710   7.462 -0.5166 -0.5598 -0.0128
 6763TIP3    H141924   3.112   4.649   7.507 -0.1356  0.5169  2.0232
 6763TIP3    H241925   3.112   4.772   7.419 -0.8688 -1.1118 -0.3547
 6764TIP3   OH241926   3.013   1.436   1.997 -0.5145 -0.0655  0.0891
 6764TIP3    H141927   3.061   1.362   2.035  0.2909  0.6885  0.5968
 6764TIP3    H241928   2.973   1.479   2.072  0.6995  1.1641  0.0764
 6765TIP3   OH241929   4.232   0.516   0.373  0.0438 -0.3787  0.6518
 6765TIP3    H141930   4.182   0.575   0.430 -1.8720 -1.8390  0.5816
 6765TIP3    H241931   4.252   0.569   0.296 -2.4012  0.0170  0.1957
 6766TIP3   OH241932   3.605   6.645   1.039 -0.7972 -0.4704 -0.4163
 6766TIP3    H141933   3.547   6.693   1.099 -0.9959 -0.8037 -0.3358
 6766TIP3    H241934   3.682   6.624   1.091  0.2476  1.5690 -1.0202
 6767TIP3   OH241935   4.996   3.747   0.490  0.3111  0.7465 -0.2127
 6767TIP3    H141936   4.989   3.841   0.504  2.3697  1.0370 -0.8303
 6767TIP3    H241937   5.061   3.717   0.553 -1.2294 -0.5421  0.8673
 6768TIP3   OH241938   2.660   5.661   0.730  0.1204 -0.0311  0.1178
 6768TIP3    H141939   2.678   5.568   0.718 -0.3472 -0.2384  0.9566
 6768TIP3    H241940   2.603   5.665   0.807  2.0933  1.1299  1.5992
 6769TIP3   OH241941   2.264   0.026   8.485  0.6616  0.3082  0.0006
 6769TIP3    H141942   2.252   0.061   8.574  0.8461 -0.5737  0.3810
 6769TIP3    H241943   2.217  -0.057   8.485 -0.3598  0.8539 -1.1140
 6770TIP3   OH241944   0.876   5.889   0.030  0.1035 -0.3518 -0.1899
 6770TIP3    H141945   0.904   5.822  -0.033 -0.6703 -0.5967 -0.2833
 6770TIP3    H241946   0.954   5.941   0.047  0.7269 -1.3079 -0.0874
 6771TIP3   OH241947   1.742   4.221   7.879 -0.2622  0.0054 -0.1075
 6771TIP3    H141948   1.660   4.172   7.877 -0.9599  1.1461 -1.0057
 6771TIP3    H241949   1.716   4.313   7.885  0.9432  0.3857 -0.2417
 6772TIP3   OH241950   0.507   0.568   8.980 -0.3391  0.3379 -0.1282
 6772TIP3    H141951   0.497   0.613   8.896  1.8178 -0.1446 -0.7215
 6772TIP3    H241952   0.596   0.591   9.008 -1.0073  0.4495  2.0268
 6773TIP3   OH241953   2.547   3.829   0.643 -0.1363 -0.7344  0.1285
 6773TIP3    H141954   2.599   3.886   0.587 -2.3614  0.1470 -1.1867
 6773TIP3    H241955   2.573   3.852   0.732  0.9509  0.3859 -0.4466
 6774TIP3   OH241956   1.126   3.443   8.824 -0.0677 -0.2359  0.7077
 6774TIP3    H141957   1.219   3.461   8.831 -0.2744  0.3335  2.3307
 6774TIP3    H241958   1.117   3.395   8.741  1.5759  0.1288  0.2850
 6775TIP3   OH241959   1.091   0.391   2.463  0.7106  0.2288  0.0639
 6775TIP3    H141960   1.109   0.482   2.484 -0.1669  0.0563  1.7096
 6775TIP3    H241961   0.999   0.389   2.439  1.4278  0.2386 -3.0674
 6776TIP3   OH241962   1.242   0.233   0.432 -0.1740  0.0948 -0.5056
 6776TIP3    H141963   1.322   0.245   0.380  1.3206  0.2046  1.7064
 6776TIP3    H241964   1.221   0.320   0.464  0.2281 -0.2892  0.8555
 6777TIP3   OH241965   1.513   5.452   2.551  0.2878 -0.1563 -0.3240
 6777TIP3    H141966   1.599   5.491   2.537  0.4300  0.0397  0.9915
 6777TIP3    H241967   1.459   5.486   2.479  1.1263  0.2656 -0.7609
 6778TIP3   OH241968   0.436   1.802   2.786 -0.0342 -0.3437  0.0551
 6778TIP3    H141969   0.479   1.758   2.713 -0.6911  0.5772 -0.9130
 6778TIP3    H241970   0.507   1.822   2.847  0.7433  0.0954 -0.9707
 6779TIP3   OH241971   1.159   6.565   3.125 -0.5096 -0.2537 -0.2822
 6779TIP3    H141972   1.102   6.607   3.189 -0.2919 -0.1585 -0.1500
 6779TIP3    H241973   1.099   6.524   3.063 -0.7961 -2.5575  1.3925
 6780TIP3   OH241974   2.750   3.714   0.162  0.0035 -0.3506 -0.5389
 6780TIP3    H141975   2.725   3.654   0.092  1.0982 -0.3254 -0.9674
 6780TIP3    H241976   2.837   3.686   0.188 -0.1395  0.0404  0.3894
 6781TIP3   OH241977   0.075   3.813   2.235  0.2239 -0.5470 -0.5592
 6781TIP3    H141978   0.095   3.885   2.295 -1.6099  0.0954 -0.6886
 6781TIP3    H241979   0.157   3.799   2.187  0.3861  2.0868 -1.1994
 6782TIP3   OH241980   2.585   0.476   8.176 -0.0149  0.3121 -0.3652
 6782TIP3    H141981   2.564   0.487   8.269  0.6673 -0.2993 -0.1292
 6782TIP3    H241982   2.578   0.564   8.140 -1.2126  0.4113  0.0601
 6783TIP3   OH241983   3.690   4.806   8.647  0.2893 -0.3815  0.3611
 6783TIP3    H141984   3.702   4.796   8.741 -1.3700 -0.7655  0.5579
 6783TIP3    H241985   3.595   4.816   8.636  0.6370  3.9680 -0.8417
 6784TIP3   OH241986   4.262   3.190   0.397 -0.3707 -0.0302  0.0006
 6784TIP3    H141987   4.325   3.152   0.336 -1.5475  0.1194 -1.3469
 6784TIP3    H241988   4.315   3.246   0.454  0.8743 -0.8671 -0.3070
 6785TIP3   OH241989   6.341   6.527   0.751  0.4241 -0.3447 -0.2207
 6785TIP3    H141990   6.280   6.572   0.692 -0.1332 -0.5633  0.1801
 6785TIP3    H241991   6.364   6.447   0.704 -0.0619 -0.5464 -0.1260
 6786TIP3   OH241992   0.201   1.340   8.433 -0.3537 -0.0183 -0.1795
 6786TIP3    H141993   0.253   1.313   8.509 -1.4181 -1.6503  0.0004
 6786TIP3    H241994   0.258   1.320   8.358 -0.2984 -0.8423  0.0669
 6787TIP3   OH241995   0.146   2.918   1.312  0.4465 -0.4176 -0.0784
 6787TIP3    H141996   0.096   2.953   1.385  2.1255  0.7119  0.5873
 6787TIP3    H241997   0.081   2.900   1.244 -1.0042 -0.4013  1.2667
 6788TIP3   OH241998   2.407   2.791   0.731  0.2210 -0.1383  1.0918
 6788TIP3    H141999   2.494   2.795   0.770  0.7716  0.4568 -0.1448
 6788TIP3    H242000   2.422   2.771   0.639 -0.8981  0.7974  0.6753
 6789TIP3   OH242001   5.537   4.365   2.141 -0.5167  0.8136  0.1833
 6789TIP3    H142002   5.616   4.325   2.178 -0.4628  1.6009  0.9611
 6789TIP3    H242003   5.467   4.304   2.164 -0.5098  1.3597  1.7847
 6790TIP3   OH242004   5.102   3.854   8.425 -0.1446  0.0574 -0.3389
 6790TIP3    H142005   5.118   3.791   8.495 -1.0711  0.1907  0.0158
 6790TIP3    H242006   5.067   3.802   8.353 -1.6796  0.2338  0.2366
 6791TIP3   OH242007   3.943   1.034   8.084 -0.0396  0.1865  0.0506
 6791TIP3    H142008   3.997   1.027   8.163 -0.1057 -0.9826  0.0072
 6791TIP3    H242009   4.005   1.034   8.012  0.0621  1.9036  0.0993
 6792TIP3   OH242010   5.741   0.813   8.378 -0.6113 -0.5699 -0.1077
 6792TIP3    H142011   5.652   0.811   8.343 -0.8246 -1.9018  0.4543
 6792TIP3    H242012   5.730   0.811   8.473  0.0277 -0.6235 -0.0300
 6793TIP3   OH242013   3.899   5.979   8.033  0.1633 -0.0423 -0.5483
 6793TIP3    H142014   3.874   6.011   8.120 -0.8937 -1.4568 -0.2791
 6793TIP3    H242015   3.949   5.899   8.051  0.2991 -0.1149 -1.2306
 6794TIP3   OH242016   0.953   0.684   2.238  0.2080  0.8770  0.0740
 6794TIP3    H142017   1.000   0.764   2.214  0.9074  0.4367 -0.0383
 6794TIP3    H242018   0.934   0.641   2.155  1.1501  0.1877  0.2058
 6795TIP3   OH242019   5.477   5.460   2.862 -0.1306 -0.4477 -0.3803
 6795TIP3    H142020   5.557   5.513   2.858  0.7243 -1.7799 -2.0095
 6795TIP3    H242021   5.407   5.523   2.847  0.5193  0.8216  1.5079
 6796TIP3   OH242022   3.241   6.107   2.840 -0.4644  0.5810  0.0461
 6796TIP3    H142023   3.246   6.068   2.927  0.1529  3.5268  1.4580
 6796TIP3    H242024   3.178   6.052   2.793  0.2280 -1.9416  1.8185
 6797TIP3   OH242025   2.492   0.534   0.016  0.3473 -0.2155  0.5781
 6797TIP3    H142026   2.484   0.529   0.112 -0.7422 -0.8779  0.4678
 6797TIP3    H242027   2.547   0.611   0.001  2.1323 -1.1853  1.7855
 6798TIP3   OH242028   2.862   2.347   8.553  0.2018  0.4733  0.1273
 6798TIP3    H142029   2.790   2.294   8.519  0.8123  0.1122 -0.6238
 6798TIP3    H242030   2.821   2.430   8.576 -0.3481  0.5199 -0.9447
 6799TIP3   OH242031   1.179   3.956   8.542 -0.2060 -0.5708 -0.1821
 6799TIP3    H142032   1.254   3.907   8.508 -0.6869 -0.3143 -1.6690
 6799TIP3    H242033   1.130   3.981   8.465 -0.9991  0.6297  0.6825
 6800TIP3   OH242034   2.568   5.116   8.269 -0.3097  0.2164  0.0027
 6800TIP3    H142035   2.581   5.052   8.339 -0.7017  0.7569  0.5773
 6800TIP3    H242036   2.522   5.068   8.200 -0.3672 -0.1848  0.3185
 6801TIP3   OH242037   5.476   3.659   0.404 -0.5704 -0.2907  0.1986
 6801TIP3    H142038   5.530   3.671   0.482 -0.1491 -1.3740  0.0914
 6801TIP3    H242039   5.538   3.658   0.332 -0.8740 -0.1687 -0.0652
 6802TIP3   OH242040   5.505   5.484   2.260 -0.1461 -0.0913  0.3185
 6802TIP3    H142041   5.599   5.495   2.267  0.0650 -0.3840 -1.5050
 6802TIP3    H242042   5.494   5.395   2.225 -1.0867  0.0294  0.2764
 6803TIP3   OH242043   1.989   4.845   0.127 -0.0257 -0.1016 -0.3275
 6803TIP3    H142044   2.051   4.772   0.131  0.5428  0.4112  0.7579
 6803TIP3    H242045   2.000   4.882   0.039 -0.1426 -1.1601 -0.7924
 6804TIP3   OH242046   2.687   4.323   8.266  0.3124 -0.3776 -0.3860
 6804TIP3    H142047   2.698   4.417   8.260  0.8171 -0.4665 -0.9526
 6804TIP3    H242048   2.593   4.309   8.260  0.2205  0.1044 -0.0563
 6805TIP3   OH242049   3.672   1.653   2.578  0.1902  1.1435 -0.2255
 6805TIP3    H142050   3.666   1.601   2.659  0.4081 -0.1965 -1.0356
 6805TIP3    H242051   3.583   1.684   2.563  0.1657  1.4966  0.5700
 6806TIP3   OH242052   4.832   6.209   2.000 -0.1189  0.1848 -0.5875
 6806TIP3    H142053   4.819   6.227   2.093 -1.7139  1.0862 -0.9456
 6806TIP3    H242054   4.771   6.137   1.981 -1.3212  1.3643 -1.3408
 6807TIP3   OH242055   6.567   5.852   8.744 -0.1852  0.1996  0.2357
 6807TIP3    H142056   6.600   5.778   8.795 -0.2430 -0.1299 -0.1987
 6807TIP3    H242057   6.601   5.930   8.789  0.8038 -0.1205  0.0626
 6808TIP3   OH242058   4.527   2.846   0.336 -0.4730  0.1332 -0.6970
 6808TIP3    H142059   4.621   2.853   0.356  0.0141 -2.1269 -1.8666
 6808TIP3    H242060   4.486   2.836   0.422  0.5283 -0.3492 -0.2485
 6809TIP3   OH242061   2.697   6.266   9.035  0.2686 -0.0379 -0.0584
 6809TIP3    H142062   2.784   6.303   9.041 -0.0460  0.8381 -0.7506
 6809TIP3    H242063   2.661   6.274   9.123  0.9566 -0.6149  0.2857
 6810TIP3   OH242064   0.328   5.911   2.718  0.0744  0.8997 -0.1956
 6810TIP3    H142065   0.272   5.939   2.790 -1.6746 -0.4875 -0.9609
 6810TIP3    H242066   0.413   5.895   2.759 -0.5174  1.3975  1.3003
 6811TIP3   OH242067   5.672   5.360   7.577 -0.5609  0.4180 -0.0470
 6811TIP3    H142068   5.635   5.332   7.494 -0.4385 -1.2490  0.4289
 6811TIP3    H242069   5.677   5.280   7.630 -1.9984  1.6542  2.1099
 6812TIP3   OH242070   5.576   4.597   0.665  0.6101 -0.1198  0.0516
 6812TIP3    H142071   5.538   4.569   0.582 -0.4885 -0.6832  0.7298
 6812TIP3    H242072   5.502   4.632   0.715  1.0291 -0.8746  1.2473
 6813TIP3   OH242073   5.988   6.113   1.456  0.5203  0.1739 -0.0428
 6813TIP3    H142074   5.894   6.115   1.440  0.6834  0.7118 -0.9662
 6813TIP3    H242075   6.001   6.034   1.509 -0.4760  0.2445  0.3361
 6814TIP3   OH242076   0.940   1.692   0.830  0.4764  0.0315 -0.0224
 6814TIP3    H142077   0.902   1.638   0.760 -0.3538  2.3254 -1.4393
 6814TIP3    H242078   0.893   1.665   0.908 -1.1916 -0.0936 -1.0119
 6815TIP3   OH242079   3.788   0.615   1.975  0.0989  0.0711  0.0145
 6815TIP3    H142080   3.706   0.588   2.015 -0.6193  0.8248 -0.9029
 6815TIP3    H242081   3.855   0.563   2.019 -0.8769 -0.6288  0.6972
 6816TIP3   OH242082   3.794   5.726   8.258  0.5026  0.1317  0.3049
 6816TIP3    H142083   3.738   5.655   8.227  1.3654 -0.7460  0.7037
 6816TIP3    H242084   3.852   5.745   8.185  1.5491 -0.9203  0.8255
 6817TIP3   OH242085   4.142   0.719   8.559 -0.0132 -0.2060  0.1123
 6817TIP3    H142086   4.097   0.802   8.575 -0.1336 -0.2467 -0.0199
 6817TIP3    H242087   4.234   0.737   8.581 -0.4366 -0.7355  2.6149
 6818TIP3   OH242088   1.889   2.147   8.556  0.0124 -0.5528 -0.4050
 6818TIP3    H142089   1.836   2.224   8.577 -1.0900 -1.0641 -1.2287
 6818TIP3    H242090   1.922   2.118   8.641  1.1056  1.2541 -0.1523
 6819TIP3   OH242091   6.168   2.879   8.430  0.0265 -0.1607  0.3099
 6819TIP3    H142092   6.254   2.917   8.447  0.3835 -0.3216 -0.9983
 6819TIP3    H242093   6.174   2.846   8.340 -1.7260  0.7536 -0.1937
 6820TIP3   OH242094   6.062   6.151   8.576  0.3953  0.1036  0.3010
 6820TIP3    H142095   5.996   6.220   8.569 -0.3116 -0.5855 -0.0701
 6820TIP3    H242096   6.131   6.189   8.630  0.3071  1.3102 -0.3970
 6821TIP3   OH242097   2.106   6.258   8.336 -0.3586  0.0673  0.6929
 6821TIP3    H142098   2.157   6.179   8.358  0.1088  0.3501  0.6406
 6821TIP3    H242099   2.064   6.237   8.253 -0.9001 -0.4352  1.0852
 6822TIP3   OH242100   0.635   3.255   0.979  0.2039  0.1356 -0.2359
 6822TIP3    H142101   0.688   3.317   1.029  0.2101 -0.2244  0.2130
 6822TIP3    H242102   0.610   3.188   1.043 -0.0008 -0.1974 -0.6586
 6823TIP3   OH242103   2.747   4.600   0.215 -0.4994  0.8431  0.2885
 6823TIP3    H142104   2.818   4.606   0.151 -0.9406 -0.3353 -0.3401
 6823TIP3    H242105   2.789   4.619   0.299  1.3030 -2.8033  0.3942
 6824TIP3   OH242106   0.771   2.401   8.474 -0.2336  0.3059  0.4505
 6824TIP3    H142107   0.784   2.459   8.398 -2.6728 -0.2257 -0.4556
 6824TIP3    H242108   0.846   2.342   8.471  1.0826  1.9012  0.0148
 6825TIP3   OH242109   5.763   4.820   0.233  0.1151  0.3729 -0.9053
 6825TIP3    H142110   5.803   4.771   0.305 -2.1189  1.1320  0.9461
 6825TIP3    H242111   5.703   4.758   0.191 -1.7807  1.0542  0.6586
 6826TIP3   OH242112   2.440   5.052   7.279 -0.1842 -0.1851  0.3874
 6826TIP3    H142113   2.354   5.095   7.286 -0.1449 -0.1874  0.9132
 6826TIP3    H242114   2.477   5.058   7.367 -0.3192 -1.5976  0.5611
 6827TIP3   OH242115   4.825   5.083   8.641 -0.3775  0.3607  0.3452
 6827TIP3    H142116   4.889   5.048   8.578 -0.8224 -0.8625  0.5413
 6827TIP3    H242117   4.844   5.177   8.645  0.8176  0.1665 -0.2739
 6828TIP3   OH242118   6.645   4.319   8.401 -0.3008  1.0526 -0.4588
 6828TIP3    H142119   6.617   4.229   8.415 -0.4082  1.2198  0.4953
 6828TIP3    H242120   6.720   4.330   8.459 -0.6246  1.7368 -0.1540
 6829TIP3   OH242121   3.796   2.989   8.390  0.1885  0.1764 -0.0437
 6829TIP3    H142122   3.889   3.011   8.396  0.3361  0.0703 -1.6581
 6829TIP3    H242123   3.789   2.902   8.430  0.8442  0.0432 -0.2091
 6830TIP3   OH242124   4.565   0.889   2.057  0.4402 -0.2932 -0.5485
 6830TIP3    H142125   4.492   0.900   1.995  0.1398 -0.2525 -0.1950
 6830TIP3    H242126   4.552   0.802   2.095  0.8810 -0.5008 -0.8712
 6831TIP3   OH242127   5.234   4.833   1.516 -0.3389  0.3572  0.4125
 6831TIP3    H142128   5.219   4.768   1.448  1.0838  1.9180 -1.5443
 6831TIP3    H242129   5.265   4.783   1.592 -0.6088 -1.3294 -0.5416
 6832TIP3   OH242130   5.356   5.436   0.954  0.2464 -0.3394 -0.5896
 6832TIP3    H142131   5.335   5.373   1.023  2.1784 -0.1897  0.2100
 6832TIP3    H242132   5.289   5.422   0.887 -0.1906 -2.2622  0.1919
 6833TIP3   OH242133   6.145   1.539   2.270  0.0293  0.0138  0.3328
 6833TIP3    H142134   6.181   1.572   2.352 -0.7885 -2.1292  1.6333
 6833TIP3    H242135   6.069   1.487   2.296 -0.6331 -0.2200 -1.8524
 6834TIP3   OH242136   2.100   4.359   7.976  0.4361  0.2248 -0.3416
 6834TIP3    H142137   2.171   4.316   8.023 -0.0246 -0.1587  0.0117
 6834TIP3    H242138   2.066   4.293   7.916 -2.3814 -1.0851  2.4152
 6835TIP3   OH242139   3.901   1.193   1.603 -0.3612 -0.4553 -0.4349
 6835TIP3    H142140   3.862   1.139   1.534  0.9902  0.5232 -2.0445
 6835TIP3    H242141   3.843   1.269   1.609 -0.7189 -0.7459 -0.1762
 6836TIP3   OH242142   5.646   0.835   0.236 -0.7081  0.1185  0.5136
 6836TIP3    H142143   5.601   0.852   0.154  0.1155  0.8130  0.1902
 6836TIP3    H242144   5.732   0.801   0.210  0.0475  1.5164  1.0213
 6837TIP3   OH242145   0.119   3.315   7.598 -1.0111  0.1705 -0.9143
 6837TIP3    H142146   0.140   3.259   7.523 -1.2169 -0.4162 -0.5448
 6837TIP3    H242147   0.193   3.375   7.605  0.0138 -1.1062 -0.3332
 6838TIP3   OH242148   6.047   6.236   0.390 -0.2890  0.5322 -0.0750
 6838TIP3    H142149   6.062   6.166   0.454 -0.5205  0.5598  0.0127
 6838TIP3    H242150   5.993   6.195   0.322  0.4855  0.3272 -0.5795
 6839TIP3   OH242151   4.752   1.654   1.448  0.1171 -0.2697  0.1113
 6839TIP3    H142152   4.670   1.606   1.442 -1.0639  1.5341  0.9503
 6839TIP3    H242153   4.744   1.725   1.384  0.9090  0.0871  0.3841
 6840TIP3   OH242154   2.737   3.078   0.183  0.3585 -0.8094  0.6178
 6840TIP3    H142155   2.777   3.140   0.123 -1.8725 -1.0409 -1.2282
 6840TIP3    H242156   2.792   3.081   0.262  1.4032  2.0416 -0.1344
 6841TIP3   OH242157   1.621   0.766   7.847 -0.1009  0.9047  0.1075
 6841TIP3    H142158   1.538   0.751   7.802 -0.3524  1.8377  0.2286
 6841TIP3    H242159   1.615   0.856   7.879 -0.1645  0.0922  2.5398
 6842TIP3   OH242160   4.404   3.867   0.520  0.5240 -0.1893  0.3422
 6842TIP3    H142161   4.354   3.896   0.596  0.5537 -2.5540  1.3651
 6842TIP3    H242162   4.496   3.877   0.546  0.6247  1.8069 -0.5888
 6843TIP3   OH242163   2.165   5.313   7.914 -0.1989 -0.3260  0.3715
 6843TIP3    H142164   2.095   5.360   7.867 -2.4707 -4.0236 -0.3777
 6843TIP3    H242165   2.200   5.252   7.848  2.4572  0.0991  1.3034
 6844TIP3   OH242166   1.170   6.337   8.336  0.2955  0.2708  0.4834
 6844TIP3    H142167   1.138   6.394   8.266 -0.8403  2.3038  2.4964
 6844TIP3    H242168   1.246   6.383   8.371  0.3366 -0.2708  1.1118
 6845TIP3   OH242169   6.636   1.621   0.663  0.4630  0.7992 -0.0876
 6845TIP3    H142170   6.625   1.639   0.570 -1.2294  3.0633  0.4702
 6845TIP3    H242171   6.731   1.623   0.677  0.7882 -0.2361 -1.8188
 6846TIP3   OH242172   1.831   6.586   8.735  0.1208  0.6703  0.2522
 6846TIP3    H142173   1.850   6.611   8.825 -1.0556 -0.2474  0.7861
 6846TIP3    H242174   1.745   6.623   8.717  0.4888  1.1406 -0.6340
 6847TIP3   OH242175   5.018   3.108   0.594 -0.3600  0.3868 -0.4310
 6847TIP3    H142176   5.110   3.135   0.599 -0.5103  0.8809 -0.2414
 6847TIP3    H242177   5.018   3.018   0.627 -0.1590  0.9110  1.0737
 6848TIP3   OH242178   4.606   1.879   8.946  0.3308  0.0356 -0.1447
 6848TIP3    H142179   4.588   1.904   9.037 -0.3649  0.0894 -0.2918
 6848TIP3    H242180   4.651   1.795   8.953 -0.1334 -0.1844  0.2346
 6849TIP3   OH242181   0.720   1.971   0.914  0.0207 -0.0392 -0.1780
 6849TIP3    H142182   0.811   1.979   0.885  0.7029  0.6728  2.0128
 6849TIP3    H242183   0.678   2.053   0.886 -0.3258 -0.8210 -2.1852
 6850TIP3   OH242184   3.966   5.042   0.936  0.2548 -0.2700  0.1172
 6850TIP3    H142185   3.936   5.109   0.998 -2.0643 -0.7784 -0.3318
 6850TIP3    H242186   3.936   5.075   0.850  1.3844 -0.6751 -0.4535
 6851TIP3   OH242187   0.785   1.129   1.781 -0.3251  0.0892 -0.0244
 6851TIP3    H142188   0.756   1.071   1.710 -0.5831  1.9984 -1.5605
 6851TIP3    H242189   0.880   1.115   1.785 -0.6999 -2.7732  1.8935
 6852TIP3   OH242190   1.168   1.025   0.373  0.2588  0.4073 -0.2312
 6852TIP3    H142191   1.241   0.963   0.371 -0.7011 -0.7587 -0.2235
 6852TIP3    H242192   1.155   1.050   0.282  0.8604  0.8692 -0.1970
 6853TIP3   OH242193   6.221   0.598   1.650  0.9684  0.3749  0.7283
 6853TIP3    H142194   6.179   0.526   1.697  1.7359  0.8502  2.1920
 6853TIP3    H242195   6.288   0.556   1.596  2.3257  0.0345  2.5665
 6854TIP3   OH242196   3.458   1.130   8.065  0.1968  0.0103  0.2010
 6854TIP3    H142197   3.420   1.057   8.114 -1.5722 -0.6169 -1.9527
 6854TIP3    H242198   3.460   1.100   7.975 -0.8322  2.6775 -0.8232
 6855TIP3   OH242199   5.447   3.456   6.641  0.4568 -0.2015 -0.1467
 6855TIP3    H142200   5.358   3.425   6.625  0.3573 -1.0759  1.7940
 6855TIP3    H242201   5.437   3.533   6.697  0.9060 -1.3538  1.6170
 6856TIP3   OH242202   1.362   0.430   9.199  0.0220  0.3721 -0.0740
 6856TIP3    H142203   1.417   0.433   9.121 -0.9684  0.2806 -0.8075
 6856TIP3    H242204   1.416   0.465   9.269  1.5524 -1.1669 -0.4228
 6857TIP3   OH242205   3.008   3.825   7.921 -0.1987  0.2071  0.3103
 6857TIP3    H142206   2.989   3.746   7.870  1.5372  0.5035 -0.9129
 6857TIP3    H242207   3.093   3.807   7.961  0.0546  1.3076  0.2966
 6858TIP3   OH242208   3.357   5.437   8.807  0.1076  0.1430 -0.0895
 6858TIP3    H142209   3.367   5.459   8.715  2.3488 -0.6699 -0.1027
 6858TIP3    H242210   3.373   5.519   8.854 -0.0037  0.3237 -0.3667
 6859TIP3   OH242211   6.159   0.244   2.103  0.1530 -0.4997 -0.3639
 6859TIP3    H142212   6.112   0.243   2.187 -0.9057  1.2104 -0.8573
 6859TIP3    H242213   6.097   0.206   2.041  0.4012 -0.5366 -0.5882
 6860TIP3   OH242214   3.851   6.388   8.238  0.2349 -0.1260  0.2818
 6860TIP3    H142215   3.811   6.406   8.153  0.2508 -0.0348  0.2947
 6860TIP3    H242216   3.816   6.302   8.263 -1.1529  0.6169  1.0133
 6861TIP3   OH242217   5.844   5.985   3.332 -0.2820  0.1837  0.1880
 6861TIP3    H142218   5.765   6.035   3.350 -1.3133 -0.3128 -2.4678
 6861TIP3    H242219   5.822   5.933   3.254  2.0966 -1.2900  0.3966
 6862TIP3   OH242220   2.999   6.592   0.771  0.2090 -0.3904 -0.3624
 6862TIP3    H142221   2.931   6.655   0.795  0.5260 -0.2791  0.2616
 6862TIP3    H242222   2.966   6.508   0.805  0.4934 -0.2939  0.1622
 6863TIP3   OH242223   6.210   3.908   0.450  0.3691 -0.6290 -0.0309
 6863TIP3    H142224   6.170   3.891   0.364 -1.6794  0.1608  0.6948
 6863TIP3    H242225   6.141   3.887   0.513  1.4318 -0.0716  1.3724
 6864TIP3   OH242226   4.266   3.323   0.816  0.5618  0.2551 -0.1409
 6864TIP3    H142227   4.237   3.250   0.761 -1.6058  0.3058  0.8288
 6864TIP3    H242228   4.251   3.294   0.905  1.9441  1.0185  0.3791
 6865TIP3   OH242229   1.742   4.109   0.914 -0.1626 -0.2788 -0.0359
 6865TIP3    H142230   1.663   4.131   0.864 -0.2281  0.8282  0.5240
 6865TIP3    H242231   1.813   4.113   0.849 -0.7311 -3.1636 -0.9877
 6866TIP3   OH242232   3.573   4.911   2.091 -0.2790 -0.1173 -0.4610
 6866TIP3    H142233   3.595   4.908   1.998  0.8506  0.2524 -0.2187
 6866TIP3    H242234   3.605   4.828   2.125 -1.2582 -0.5290 -0.5015
 6867TIP3   OH242235   4.581   0.695   1.618 -0.0317 -0.2337 -0.1406
 6867TIP3    H142236   4.486   0.705   1.615 -0.3463 -2.3184  0.5886
 6867TIP3    H242237   4.604   0.654   1.535 -0.3709 -3.0730  1.0236
 6868TIP3   OH242238   6.337   3.385   8.506  0.5535 -0.2698  0.5805
 6868TIP3    H142239   6.335   3.345   8.593 -0.7745 -0.1663  0.6181
 6868TIP3    H242240   6.298   3.318   8.449 -0.2252  0.3513  0.3741
 6869TIP3   OH242241   4.049   4.193   0.138 -0.1031  0.3571  0.3989
 6869TIP3    H142242   3.962   4.225   0.115  0.4693  0.6814 -1.4853
 6869TIP3    H242243   4.086   4.262   0.193 -0.3358  1.1556 -0.4138
 6870TIP3   OH242244   2.712   2.384   3.143 -0.0309 -0.4704 -0.5942
 6870TIP3    H142245   2.800   2.367   3.109  0.6672 -0.9816  1.3266
 6870TIP3    H242246   2.668   2.300   3.139  0.5841 -0.9208  1.0979
 6871TIP3   OH242247   3.885   1.001   0.956 -0.1035  0.2730 -0.0395
 6871TIP3    H142248   3.863   0.908   0.963  0.7097 -0.0232 -1.2642
 6871TIP3    H242249   3.977   1.003   0.932 -0.0249  1.4123  0.2797
 6872TIP3   OH242250   2.392   3.496   0.300  0.2575  0.1597  0.0478
 6872TIP3    H142251   2.476   3.521   0.337 -0.3025  1.5290  0.4697
 6872TIP3    H242252   2.333   3.493   0.376  0.0108 -1.2388 -0.1764
 6873TIP3   OH242253   3.907   5.102   0.279 -0.0034 -0.1601 -0.2517
 6873TIP3    H142254   3.935   5.156   0.205  0.3689  0.9099  0.6422
 6873TIP3    H242255   3.867   5.164   0.340  0.9230 -0.7912  1.0402
 6874TIP3   OH242256   4.545   3.245   0.542 -0.5046 -0.0565 -0.4507
 6874TIP3    H142257   4.547   3.182   0.469  1.6252 -2.7961  1.7112
 6874TIP3    H242258   4.637   3.265   0.558 -0.6028 -1.5375  2.9064
 6875TIP3   OH242259   2.425   5.041   8.783 -0.2308 -0.4379  0.3427
 6875TIP3    H142260   2.369   5.084   8.719  0.6613 -0.1957 -0.2982
 6875TIP3    H242261   2.403   4.948   8.776 -0.0055 -0.4409 -0.4719
 6876TIP3   OH242262   3.910   5.950   1.863  0.0002 -0.6202 -0.4860
 6876TIP3    H142263   3.929   5.893   1.789  0.1368 -0.9917 -0.1684
 6876TIP3    H242264   3.887   6.034   1.824  1.0744 -0.5170 -0.9157
 6877TIP3   OH242265   5.835   0.661   0.742  0.2792  0.2002  0.6774
 6877TIP3    H142266   5.857   0.745   0.703 -0.6587  0.7000  1.1904
 6877TIP3    H242267   5.739   0.658   0.741  0.2909 -1.4102 -0.4775
 6878TIP3   OH242268   0.198   2.682   0.458  0.2535 -0.4690 -0.0241
 6878TIP3    H142269   0.206   2.774   0.432  0.5014 -0.0764  1.3379
 6878TIP3    H242270   0.288   2.655   0.476  0.1038 -0.7190  0.3721
 6879TIP3   OH242271   6.271   6.593   1.757  0.0653  0.1054 -0.2518
 6879TIP3    H142272   6.235   6.532   1.821  1.4530  1.2571  1.7595
 6879TIP3    H242273   6.255   6.679   1.796 -2.0879  1.1512 -3.1225
 6880TIP3   OH242274   6.136   5.972   1.141  0.4101 -0.6044  0.1610
 6880TIP3    H142275   6.183   5.930   1.213 -0.1512 -0.5879  0.5507
 6880TIP3    H242276   6.138   6.065   1.163 -0.0127 -0.6267  0.3193
 6881TIP3   OH242277   2.472   3.668   7.888  0.3016 -0.2699 -0.2636
 6881TIP3    H142278   2.553   3.650   7.936 -0.4629 -1.5731  0.6117
 6881TIP3    H242279   2.412   3.700   7.955  0.1350  0.9288 -0.9517
 6882TIP3   OH242280   0.127   4.002   8.495 -0.6073 -0.2153  0.3565
 6882TIP3    H142281   0.038   4.021   8.524 -0.7111  0.9557 -0.6631
 6882TIP3    H242282   0.176   4.083   8.511 -0.0987 -0.3341 -0.5222
 6883TIP3   OH242283   5.949   1.552   8.410  0.4177 -0.6344 -0.0852
 6883TIP3    H142284   5.877   1.490   8.426  0.6209 -1.2136 -1.2997
 6883TIP3    H242285   5.989   1.521   8.329  0.8196  0.8265 -0.4643
 6884TIP3   OH242286   5.015   0.510   1.068 -0.0082 -0.1213  0.0019
 6884TIP3    H142287   4.990   0.451   1.138 -1.6706  0.0181 -0.4310
 6884TIP3    H242288   5.008   0.598   1.106  0.2092 -0.1004 -0.0065
 6885TIP3   OH242289   2.768   1.417   0.634 -0.3182 -0.0741 -1.0234
 6885TIP3    H142290   2.700   1.483   0.648 -2.0062 -1.6425 -1.3428
 6885TIP3    H242291   2.760   1.395   0.541  1.2929  0.3704 -1.2874
 6886TIP3   OH242292   2.347   0.068   1.154  0.5811  0.0071  0.7473
 6886TIP3    H142293   2.388  -0.002   1.205  1.3255 -0.3231 -0.2763
 6886TIP3    H242294   2.377   0.148   1.196  1.2543 -0.2573  0.7767
 6887TIP3   OH242295   6.467   4.467   2.266 -0.3171  0.2967  0.1980
 6887TIP3    H142296   6.485   4.415   2.345 -2.0234 -0.3274  0.2002
 6887TIP3    H242297   6.383   4.509   2.283 -0.1691  1.0662 -0.8533
 6888TIP3   OH242298   4.947   4.674   7.441 -0.3754 -0.0107 -0.0916
 6888TIP3    H142299   4.941   4.654   7.348 -2.4082 -0.9304  0.1860
 6888TIP3    H242300   4.878   4.739   7.456 -0.1173  0.0707  0.8064
 6889TIP3   OH242301   5.387   5.204   2.804  0.1085  0.3271 -0.2866
 6889TIP3    H142302   5.413   5.291   2.835  0.5853 -0.2042  0.8725
 6889TIP3    H242303   5.468   5.165   2.773 -0.0697  0.2152 -0.6127
 6890TIP3   OH242304   2.241   3.119   2.024 -0.4112  0.0027  0.4452
 6890TIP3    H142305   2.248   3.034   2.068  0.1516  0.9054  2.1849
 6890TIP3    H242306   2.329   3.156   2.030 -0.3578  0.2612 -1.3290
 6891TIP3   OH242307   1.794   2.700   0.319 -0.0469  0.4032 -0.7260
 6891TIP3    H142308   1.863   2.637   0.298 -0.2771 -0.2287  0.3273
 6891TIP3    H242309   1.812   2.724   0.410 -0.8531  0.6961 -0.6426
 6892TIP3   OH242310   2.511   4.920   8.067 -0.5554  0.2367 -0.1624
 6892TIP3    H142311   2.430   4.871   8.053  1.2774 -2.9950 -0.4147
 6892TIP3    H242312   2.555   4.919   7.982  0.8990 -0.4037  0.5666
 6893TIP3   OH242313   3.217   0.913   2.201  0.1229 -0.4172 -0.3210
 6893TIP3    H142314   3.179   0.992   2.239 -0.1237 -1.1048  0.9275
 6893TIP3    H242315   3.259   0.869   2.275  2.2705 -0.3393 -1.3951
 6894TIP3   OH242316   3.085   1.121   1.868 -0.2085  0.0536 -0.1829
 6894TIP3    H142317   3.128   1.116   1.954 -0.5214 -0.0273 -0.0314
 6894TIP3    H242318   3.150   1.163   1.812  0.7390 -1.5884 -0.3730
 6895TIP3   OH242319   3.015   4.891   1.359  0.0390 -1.0458 -0.1995
 6895TIP3    H142320   3.018   4.959   1.425  0.7667 -0.3339 -0.9436
 6895TIP3    H242321   2.926   4.856   1.364 -0.4087  0.0903  0.0565
 6896TIP3   OH242322   4.843   4.618   8.710  0.0460 -0.2997 -0.1889
 6896TIP3    H142323   4.855   4.523   8.707  0.7595 -0.2051 -0.6738
 6896TIP3    H242324   4.874   4.644   8.797 -0.1628 -0.5122 -0.0516
 6897TIP3   OH242325   6.172   4.874   7.161 -0.1942 -0.4801 -0.2069
 6897TIP3    H142326   6.237   4.926   7.207 -0.0417  0.3534 -1.3093
 6897TIP3    H242327   6.215   4.848   7.079 -1.4931  0.8829 -1.3947
 6898TIP3   OH242328   1.435   2.680   2.970  0.2239 -0.1832 -0.0054
 6898TIP3    H142329   1.474   2.729   2.898  1.6610  1.5525  1.8178
 6898TIP3    H242330   1.358   2.731   2.995 -0.8667 -1.3292 -0.8959
 6899TIP3   OH242331   4.072   5.544   8.950  0.0812  0.1363  0.4914
 6899TIP3    H142332   4.032   5.515   9.031 -1.1775  2.0588  0.6254
 6899TIP3    H242333   4.011   5.516   8.881  0.3506 -0.1023  0.3456
 6900TIP3   OH242334   1.407   0.083   7.468 -0.2593  0.3847 -0.5135
 6900TIP3    H142335   1.423   0.010   7.409  0.8366  2.0191 -2.3683
 6900TIP3    H242336   1.471   0.073   7.537 -1.8483 -1.8070  0.7658
 6901TIP3   OH242337   2.404   5.884   8.542  0.0212 -0.7942  0.2187
 6901TIP3    H142338   2.361   5.957   8.586  0.3135 -1.1234  1.0773
 6901TIP3    H242339   2.337   5.816   8.537  0.0227 -0.7993  0.2670
 6902TIP3   OH242340   3.063   1.206   7.633 -0.2533  0.7017 -0.5942
 6902TIP3    H142341   3.057   1.281   7.574 -3.7251  0.8931 -0.2081
 6902TIP3    H242342   2.972   1.183   7.652  0.7043 -2.1878  1.1434
 6903TIP3   OH242343   0.715   3.298   2.416 -0.3780  0.0863  0.3389
 6903TIP3    H142344   0.798   3.305   2.463 -1.3759  3.7283  1.9435
 6903TIP3    H242345   0.661   3.241   2.471 -1.1964  3.4880  3.4854
 6904TIP3   OH242346   3.875   0.907   8.764 -0.2146  0.4929 -0.4942
 6904TIP3    H142347   3.917   0.834   8.810  0.9588  0.7768 -1.0974
 6904TIP3    H242348   3.797   0.869   8.724 -1.6771  0.3394  2.1983
 6905TIP3   OH242349   4.530   0.900   0.460  0.0975  0.1141 -0.0931
 6905TIP3    H142350   4.606   0.924   0.407  1.3628 -1.9988  0.6829
 6905TIP3    H242351   4.461   0.884   0.395 -0.8639  5.0899 -0.7478
 6906TIP3   OH242352   1.114   4.569   7.515 -0.1618 -0.0920 -0.2393
 6906TIP3    H142353   1.102   4.486   7.470 -1.7530  0.3634 -0.7298
 6906TIP3    H242354   1.051   4.628   7.474  1.2400  1.4927 -0.1969
 6907TIP3   OH242355   6.600   3.425   1.379  0.5310 -0.4054  0.3647
 6907TIP3    H142356   6.613   3.516   1.351 -0.5874 -0.8878 -1.9607
 6907TIP3    H242357   6.654   3.374   1.319 -1.1135 -1.4380 -0.2766
 6908TIP3   OH242358   3.646   5.759   8.642  0.6744 -0.6557 -0.0496
 6908TIP3    H142359   3.719   5.706   8.610  0.3866 -1.5801  0.7696
 6908TIP3    H242360   3.675   5.791   8.727  0.0388 -1.2630  0.4112
 6909TIP3   OH242361   0.201   1.294   1.596 -0.5974 -0.3135 -0.6271
 6909TIP3    H142362   0.161   1.241   1.665 -0.4991  0.0953 -0.2517
 6909TIP3    H242363   0.141   1.286   1.521 -0.0358 -1.8480 -0.9614
 6910TIP3   OH242364   4.752   5.316   1.905 -0.2369 -0.4990 -0.3187
 6910TIP3    H142365   4.833   5.280   1.869 -0.9911 -0.3969 -2.1953
 6910TIP3    H242366   4.683   5.259   1.871 -1.2355  1.2455 -1.3897
 6911TIP3   OH242367   4.794   4.080   8.903  0.0099  0.2604  0.0466
 6911TIP3    H142368   4.714   4.089   8.956 -0.0252  1.8034 -0.2216
 6911TIP3    H242369   4.764   4.089   8.813 -0.0131 -2.9221 -0.3683
 6912TIP3   OH242370   5.703   3.679   2.246  0.3679 -0.1300  0.1689
 6912TIP3    H142371   5.705   3.603   2.303  0.9399  0.5599  1.0915
 6912TIP3    H242372   5.615   3.678   2.207 -0.2299 -0.3309  1.4691
 6913TIP3   OH242373   0.452   6.087   1.606 -0.3303 -0.0464  0.0510
 6913TIP3    H142374   0.420   6.172   1.637 -1.7871 -1.1004  1.6557
 6913TIP3    H242375   0.546   6.099   1.595 -0.5237  1.7905  0.1909
 6914TIP3   OH242376   2.803   5.030   0.382  0.3663 -0.2024  0.1825
 6914TIP3    H142377   2.860   5.048   0.457 -0.2258  0.0356  0.5818
 6914TIP3    H242378   2.862   5.029   0.307  1.0109 -0.6931  0.6785
 6915TIP3   OH242379   3.309   0.867   1.140  0.1074 -0.3153  0.5977
 6915TIP3    H142380   3.323   0.925   1.215 -0.3046  2.3148 -1.2025
 6915TIP3    H242381   3.224   0.826   1.156  0.1221  0.0585  1.6614
 6916TIP3   OH242382   4.899   0.920   8.687 -0.0689 -0.1437  0.4289
 6916TIP3    H142383   4.946   0.977   8.747  0.9303  0.0708 -0.5146
 6916TIP3    H242384   4.847   0.979   8.632  0.5323 -0.1627 -0.1801
 6917TIP3   OH242385   3.602   6.334   8.105  0.1103  0.1774  0.5095
 6917TIP3    H142386   3.559   6.330   8.191 -3.2606 -3.3098 -1.0508
 6917TIP3    H242387   3.675   6.272   8.111  0.2147  0.3409  0.9694
 6918TIP3   OH242388   2.972   4.662   7.668 -0.1568  0.2305  0.0845
 6918TIP3    H142389   2.997   4.668   7.760  0.5820 -1.6394  0.0481
 6918TIP3    H242390   2.922   4.742   7.651  0.5192  1.0710  1.8382
 6919TIP3   OH242391   2.086   1.519   0.974  0.8361  0.4551 -0.0367
 6919TIP3    H142392   2.123   1.500   1.061  0.9228  0.9018  0.0234
 6919TIP3    H242393   2.130   1.456   0.916 -2.0299 -2.6121  0.8023
 6920TIP3   OH242394   0.384   4.241   0.358 -0.8427  0.3168  0.0733
 6920TIP3    H142395   0.405   4.148   0.355  0.4906  0.6211 -0.8118
 6920TIP3    H242396   0.332   4.256   0.279  0.3189  0.6217 -0.6475
 6921TIP3   OH242397   0.964   2.656   8.903  0.1133  0.0481 -0.7738
 6921TIP3    H142398   0.995   2.703   8.981 -0.9530 -0.9942  0.3221
 6921TIP3    H242399   1.039   2.603   8.877  1.4737  2.4729 -2.2492
 6922TIP3   OH242400   3.353   2.296   9.093  0.3152 -0.2928  0.0699
 6922TIP3    H142401   3.437   2.279   9.051 -0.2657  0.0471 -1.2533
 6922TIP3    H242402   3.340   2.221   9.151  1.3486 -0.5359  0.0001
 6923TIP3   OH242403   3.986   0.704   8.900  0.2557  0.2528 -0.2726
 6923TIP3    H142404   3.923   0.678   8.967  0.9851  0.7112  0.6109
 6923TIP3    H242405   4.052   0.634   8.901  2.6739  2.2828  2.6874
 6924TIP3   OH242406   3.454   0.320   2.035  0.2830  0.0630 -0.5955
 6924TIP3    H142407   3.525   0.256   2.030 -0.1708 -0.3939 -1.5155
 6924TIP3    H242408   3.437   0.344   1.944  0.4029  1.4683 -0.2760
 6925TIP3   OH242409   2.169   3.697   2.844 -0.6596 -0.8132  0.4211
 6925TIP3    H142410   2.138   3.773   2.796  3.0669  0.5637 -0.1510
 6925TIP3    H242411   2.139   3.711   2.934 -0.6551  0.9706  0.1751
 6926TIP3   OH242412   5.922   3.678   7.129  0.6478  0.5480  0.2686
 6926TIP3    H142413   5.904   3.669   7.223  3.4562 -1.2148  0.7690
 6926TIP3    H242414   6.016   3.696   7.124  0.7242 -0.1554 -2.2036
 6927TIP3   OH242415   4.661   0.824   2.722  0.3207  0.1796 -0.0841
 6927TIP3    H142416   4.707   0.890   2.773  0.6620  1.3394 -1.8023
 6927TIP3    H242417   4.617   0.873   2.653 -2.5899 -1.0065  0.7679
 6928TIP3   OH242418   1.870   5.111   0.120 -0.0500 -0.6202 -0.1123
 6928TIP3    H142419   1.952   5.131   0.075  0.2577  0.8986  1.0460
 6928TIP3    H242420   1.876   5.018   0.141  1.0135 -0.7126 -0.7408
 6929TIP3   OH242421   4.006   2.365   8.021 -0.6680 -0.6287  0.0836
 6929TIP3    H142422   4.022   2.435   7.957  0.9632  1.0203  2.1541
 6929TIP3    H242423   4.031   2.285   7.974 -1.6572  0.2249 -2.0393
 6930TIP3   OH242424   3.492   6.047   8.295  0.1647 -0.4178  0.4006
 6930TIP3    H142425   3.455   6.100   8.365 -0.8872 -2.0193  1.0816
 6930TIP3    H242426   3.454   5.960   8.306  0.3847 -0.8633 -1.8321
 6931TIP3   OH242427   5.664   6.153   0.869  0.1167  0.0585  0.1504
 6931TIP3    H142428   5.594   6.210   0.838  0.3104  1.0880  1.5361
 6931TIP3    H242429   5.744   6.191   0.833  0.2048  0.4086  0.7117
 6932TIP3   OH242430   6.382   5.488   0.563 -0.0746  0.7882  0.3070
 6932TIP3    H142431   6.407   5.469   0.653  0.6154  0.4481  0.0546
 6932TIP3    H242432   6.293   5.521   0.569  0.1913  1.3920  1.1789
 6933TIP3   OH242433   0.168   6.149   3.212 -0.7791  0.6366 -0.1670
 6933TIP3    H142434   0.091   6.101   3.181 -1.0539  1.4403 -0.7639
 6933TIP3    H242435   0.242   6.101   3.174 -0.8752 -0.9249  1.4729
 6934TIP3   OH242436   4.658   2.016   8.418 -0.4799 -0.1457 -0.1212
 6934TIP3    H142437   4.669   2.102   8.460  0.2029  0.5226 -1.5998
 6934TIP3    H242438   4.693   1.954   8.482 -0.9767  0.6745  0.9749
 6935TIP3   OH242439   6.047   0.107   9.074  0.7961  0.1975 -0.4433
 6935TIP3    H142440   6.103   0.111   9.151  0.0599  0.4336  0.0852
 6935TIP3    H242441   5.997   0.026   9.084 -1.2522  1.5225  0.7197
 6936TIP3   OH242442   5.794   6.223   2.520  0.2240 -0.3582  0.4410
 6936TIP3    H142443   5.702   6.202   2.532 -0.0641 -0.3070 -1.3864
 6936TIP3    H242444   5.795   6.310   2.482  1.1982  0.8981  3.0911
 6937TIP3   OH242445   2.069   0.280   0.751  0.3326 -0.3363 -0.2712
 6937TIP3    H142446   2.066   0.284   0.655  2.1238 -0.9141 -0.3976
 6937TIP3    H242447   2.002   0.342   0.780 -2.5275 -2.4444 -1.8601
 6938TIP3   OH242448   5.415   0.161   2.597 -0.4092 -0.6640  0.1983
 6938TIP3    H142449   5.428   0.089   2.657  2.3602 -1.3944 -1.1133
 6938TIP3    H242450   5.456   0.236   2.640  1.6672 -1.2096 -0.6726
 6939TIP3   OH242451   0.488   1.585   8.481  0.1479  0.7105 -0.8871
 6939TIP3    H142452   0.433   1.609   8.556  1.1426  0.0205  0.0903
 6939TIP3    H242453   0.490   1.664   8.427  0.0660  1.5075  0.2332
 6940TIP3   OH242454   6.284   1.240   1.909 -0.4260  0.1703  0.4410
 6940TIP3    H142455   6.239   1.236   1.994  0.2851 -0.2264  0.8065
 6940TIP3    H242456   6.360   1.184   1.920  0.5900  1.4240  0.0892
 6941TIP3   OH242457   3.630   0.839   7.952  0.4051 -0.2966 -0.0143
 6941TIP3    H142458   3.713   0.879   7.976  0.7384 -0.5317 -0.7492
 6941TIP3    H242459   3.607   0.879   7.868  0.8871 -1.8092 -0.9109
 6942TIP3   OH242460   4.569   3.826   2.103  0.3719 -0.2177 -0.2904
 6942TIP3    H142461   4.633   3.845   2.034  1.8364  0.1829  1.1080
 6942TIP3    H242462   4.622   3.814   2.182 -1.1500 -1.8707  0.5587
 6943TIP3   OH242463   4.974   6.279   9.112 -0.1414  0.4567  0.2265
 6943TIP3    H142464   4.924   6.263   9.192 -1.2942  0.8582 -0.3946
 6943TIP3    H242465   5.004   6.370   9.120  0.2940  0.2942  0.4850
 6944TIP3   OH242466   5.977   6.536   8.290  0.1542 -0.1284 -0.0521
 6944TIP3    H142467   6.032   6.570   8.361  1.2584  0.7528 -1.2865
 6944TIP3    H242468   6.034   6.474   8.244  0.3022  1.1007 -1.6019
 6945TIP3   OH242469   0.804   2.750   8.711  0.2864  0.0113 -0.1548
 6945TIP3    H142470   0.855   2.713   8.782 -1.7010 -0.6213  1.0253
 6945TIP3    H242471   0.853   2.728   8.631  2.4401  0.5401  0.9482
 6946TIP3   OH242472   1.295   3.711   2.046 -0.3236 -0.3072  0.1731
 6946TIP3    H142473   1.320   3.694   2.137  0.9298 -1.2569 -0.3110
 6946TIP3    H242474   1.316   3.803   2.033 -2.7725  0.5215  1.4983
 6947TIP3   OH242475   2.126   6.482   0.673  0.7496 -0.2722 -0.2874
 6947TIP3    H142476   2.154   6.491   0.764  0.0055  1.5605 -0.1925
 6947TIP3    H242477   2.135   6.388   0.654  1.2832 -0.6299  1.5419
 6948TIP3   OH242478   2.758   6.515   1.275 -0.1863 -0.7713  0.0033
 6948TIP3    H142479   2.731   6.564   1.353 -2.5402 -0.4379 -0.9263
 6948TIP3    H242480   2.797   6.581   1.218  2.4674 -1.1805  1.1852
 6949TIP3   OH242481   5.102   0.492   8.334 -0.2214 -0.7378 -0.0317
 6949TIP3    H142482   5.067   0.478   8.246 -0.1653  2.1626 -0.6051
 6949TIP3    H242483   5.025   0.496   8.390 -0.5148  0.5722 -0.4929
 6950TIP3   OH242484   2.942   3.605   7.794 -0.4739  0.6074  0.2456
 6950TIP3    H142485   3.011   3.540   7.783  1.0500  2.1353  0.2525
 6950TIP3    H242486   2.861   3.556   7.783  0.5417 -1.5316  1.5735
 6951TIP3   OH242487   4.929   0.761   8.040 -0.3026  0.5935 -0.3485
 6951TIP3    H142488   4.860   0.825   8.059  1.3844  2.4959 -0.2721
 6951TIP3    H242489   4.986   0.763   8.118  1.0904  0.8492 -1.3251
 6952TIP3   OH242490   0.645   4.142   8.648 -0.0602  0.3627  0.1301
 6952TIP3    H142491   0.701   4.196   8.592  0.9166 -0.8387 -0.0844
 6952TIP3    H242492   0.657   4.179   8.736  0.7675  0.3574  0.0250
 6953TIP3   OH242493   5.947   6.494   0.368  0.1606  0.3365  0.9968
 6953TIP3    H142494   5.998   6.414   0.374  0.5824  0.4269 -0.7014
 6953TIP3    H242495   5.953   6.519   0.275 -1.8782  1.0680  1.0079
 6954TIP3   OH242496   5.634   0.298   2.725 -0.2905 -0.5308  0.1533
 6954TIP3    H142497   5.629   0.265   2.815 -0.4832  0.7354  0.6181
 6954TIP3    H242498   5.703   0.245   2.684 -1.0372 -1.9511  0.6675
 6955TIP3   OH242499   0.014   3.844   9.136  0.3122 -0.2646  0.4120
 6955TIP3    H142500   0.043   3.890   9.214 -1.0744  1.0674  0.1973
 6955TIP3    H242501  -0.026   3.912   9.081 -0.9090 -1.5501 -0.3693
 6956TIP3   OH242502   5.620   3.626   0.634  0.0430 -0.0128  0.2031
 6956TIP3    H142503   5.683   3.567   0.593 -1.2342  0.1230 -2.1543
 6956TIP3    H242504   5.630   3.611   0.728  1.8683 -1.7274 -0.1997
 6957TIP3   OH242505   5.065   5.322   1.975 -0.3928 -0.4239 -0.6837
 6957TIP3    H142506   5.154   5.306   1.944  0.4110 -1.2846  1.8522
 6957TIP3    H242507   5.029   5.235   1.994 -1.9096 -0.1122 -1.8857
 6958TIP3   OH242508   1.730   2.340   2.395  0.3329 -0.0948 -0.8424
 6958TIP3    H142509   1.771   2.352   2.480 -1.3783 -0.2208  0.0521
 6958TIP3    H242510   1.708   2.429   2.367 -0.8243 -0.1665 -0.2249
 6959TIP3   OH242511   6.434   6.072   1.011  0.5802 -0.5163  0.6620
 6959TIP3    H142512   6.371   6.144   1.012  0.9209 -0.2150  0.4238
 6959TIP3    H242513   6.490   6.090   0.936 -0.1388 -1.7313 -0.2068
 6960TIP3   OH242514   5.305   4.480   1.113 -0.6966  0.4993 -0.0655
 6960TIP3    H142515   5.354   4.424   1.173 -1.2965  1.9697  1.8737
 6960TIP3    H242516   5.351   4.470   1.029  3.0886  1.9161  1.6448
 6961TIP3   OH242517   2.612   2.543   2.254 -0.3000  0.0748 -0.4706
 6961TIP3    H142518   2.529   2.500   2.230  0.4856 -1.2112 -0.9936
 6961TIP3    H242519   2.614   2.539   2.350 -0.2648 -1.0468 -0.5090
 6962TIP3   OH242520   6.029   2.252   0.473 -0.3780  0.2383  0.6581
 6962TIP3    H142521   6.060   2.226   0.386 -0.0773  0.4614  0.6976
 6962TIP3    H242522   6.043   2.346   0.476 -0.4291  0.2366  0.9316
 6963TIP3   OH242523   3.870   5.503   8.738  0.4767 -0.0318 -0.2516
 6963TIP3    H142524   3.895   5.420   8.698 -1.5964 -0.9666  0.2243
 6963TIP3    H242525   3.865   5.564   8.665  0.4704 -0.7406 -0.8668
 6964TIP3   OH242526   6.538   0.709   8.631 -0.1201  0.1013  0.1166
 6964TIP3    H142527   6.592   0.783   8.602 -0.3448  0.9102  1.6541
 6964TIP3    H242528   6.552   0.642   8.564  0.8762  1.1670 -0.7965
 6965TIP3   OH242529   3.130   3.767   8.687 -0.0605  0.4756 -0.4009
 6965TIP3    H142530   3.096   3.785   8.775  0.1923  1.5065 -0.5006
 6965TIP3    H242531   3.122   3.672   8.677 -1.9340  0.5627 -0.0195
 6966TIP3   OH242532   0.876   1.465   0.538 -0.1748  0.0602 -0.0350
 6966TIP3    H142533   0.826   1.478   0.618 -1.6409  2.5860 -1.2298
 6966TIP3    H242534   0.814   1.486   0.468  2.0516  1.6556 -1.6583
 6967TIP3   OH242535   1.752   2.916   7.813  0.2970  0.2558 -0.7788
 6967TIP3    H142536   1.739   2.893   7.905  2.9316  0.7497 -0.2001
 6967TIP3    H242537   1.673   2.884   7.769 -0.4903 -1.1053  1.4366
 6968TIP3   OH242538   0.399   2.122   2.697 -0.2957 -0.0882 -0.3215
 6968TIP3    H142539   0.494   2.134   2.703 -0.0963  0.2407 -2.9245
 6968TIP3    H242540   0.386   2.028   2.709  0.3408 -0.1209  0.1544
 6969TIP3   OH242541   5.950   5.324   8.849  0.1146 -0.4739 -0.4080
 6969TIP3    H142542   5.901   5.260   8.901  0.5102  0.4314  1.1423
 6969TIP3    H242543   5.974   5.277   8.770 -1.5499 -1.5400 -0.3217
 6970TIP3   OH242544   0.883   1.751   2.586  0.1902  0.0570 -0.3943
 6970TIP3    H142545   0.957   1.709   2.543 -0.4562  0.4673 -2.0081
 6970TIP3    H242546   0.818   1.760   2.516 -0.4878  1.8079  0.4175
 6971TIP3   OH242547   4.270   2.250   0.385 -0.2736 -0.0395  0.7246
 6971TIP3    H142548   4.263   2.268   0.291 -2.0414  1.2592  1.0696
 6971TIP3    H242549   4.187   2.280   0.422 -0.1804 -1.7887  2.5260
 6972TIP3   OH242550   3.227   3.767   7.067 -0.5198 -0.1850 -0.1444
 6972TIP3    H142551   3.202   3.858   7.079 -1.1862 -0.2090 -1.1795
 6972TIP3    H242552   3.306   3.756   7.120 -0.2131  1.0992 -0.3045
 6973TIP3   OH242553   1.485   5.056   7.358 -0.0281 -0.0680  0.3602
 6973TIP3    H142554   1.486   5.133   7.415 -0.1530  0.5035 -0.3813
 6973TIP3    H242555   1.393   5.044   7.336  0.1277  0.4644 -0.6699
 6974TIP3   OH242556   0.092   1.158   1.080 -0.5063  0.1338 -0.0913
 6974TIP3    H142557   0.113   1.106   1.159 -2.2141 -0.1363  0.2198
 6974TIP3    H242558   0.068   1.092   1.015 -4.3968  0.4362  0.8075
 6975TIP3   OH242559   1.438   2.165   1.941 -0.2619  0.0568  0.5110
 6975TIP3    H142560   1.367   2.100   1.945  1.2743 -1.6937  0.9318
 6975TIP3    H242561   1.467   2.163   1.850 -0.7996  0.8534  0.3144
 6976TIP3   OH242562   6.604   5.242   0.095  0.3158  0.7544  0.6470
 6976TIP3    H142563   6.513   5.220   0.118  0.4256 -1.7828 -0.9459
 6976TIP3    H242564   6.596   5.303   0.022 -0.0559  1.8094  1.5371
 6977TIP3   OH242565   2.130   3.401   8.414 -0.7043 -0.8821  0.2814
 6977TIP3    H142566   2.104   3.387   8.323 -0.6769 -1.2725  0.3336
 6977TIP3    H242567   2.128   3.497   8.425 -0.0944 -0.7906 -0.3145
 6978TIP3   OH242568   1.595   4.120   8.606 -1.0131  0.1775 -0.1506
 6978TIP3    H142569   1.546   4.061   8.663 -0.7936  1.5094  1.5198
 6978TIP3    H242570   1.530   4.183   8.573 -0.7911  0.7514  0.4718
 6979TIP3   OH242571   5.515   6.085   8.625  0.4580  0.4235  0.2128
 6979TIP3    H142572   5.498   6.007   8.571 -0.7173  1.3478 -0.8061
 6979TIP3    H242573   5.608   6.078   8.648  0.0890 -1.9406  1.2532
 6980TIP3   OH242574   6.534   1.726   9.090 -0.9438 -0.1908  0.5994
 6980TIP3    H142575   6.474   1.724   9.165 -0.2792 -0.0775  1.1480
 6980TIP3    H242576   6.524   1.641   9.049 -0.7814 -0.5347  1.2580
 6981TIP3   OH242577   6.135   3.331   0.201  0.4403 -0.9485 -0.4272
 6981TIP3    H142578   6.189   3.365   0.129  1.2744 -1.3666 -0.0151
 6981TIP3    H242579   6.046   3.361   0.181  1.0898  1.3731 -0.1705
 6982TIP3   OH242580   1.273   4.070   8.214 -0.1565  0.2610 -0.6711
 6982TIP3    H142581   1.274   4.160   8.247 -1.2682 -0.5353  1.7597
 6982TIP3    H242582   1.186   4.037   8.235  0.7990 -1.9391  0.1916
 6983TIP3   OH242583   0.670   1.378   3.579 -0.5042  0.3501 -0.4016
 6983TIP3    H142584   0.760   1.363   3.551 -0.1888 -1.5004  1.4207
 6983TIP3    H242585   0.671   1.467   3.616  1.1415 -0.4133  1.5601
 6984TIP3   OH242586   5.208   4.678   0.382 -0.2738  0.4392 -0.0637
 6984TIP3    H142587   5.177   4.605   0.327 -0.1998  0.8150 -0.6157
 6984TIP3    H242588   5.237   4.636   0.463 -0.7280 -0.0889 -0.1679
 6985TIP3   OH242589   2.105   5.670   0.963 -0.1342  0.0154  0.5946
 6985TIP3    H142590   2.197   5.649   0.980  0.0048 -0.4423 -0.6403
 6985TIP3    H242591   2.108   5.726   0.886 -0.8902  0.2010  0.6967
 6986TIP3   OH242592   1.689   1.508   7.984 -0.1011  0.4369 -0.1035
 6986TIP3    H142593   1.675   1.603   7.978  0.1936  0.4722 -0.2574
 6986TIP3    H242594   1.767   1.499   8.039 -0.2225  0.2794  0.0404
 6987TIP3   OH242595   6.412   1.742   1.165  0.4851  0.4497 -0.2837
 6987TIP3    H142596   6.474   1.728   1.093  1.7062 -0.4173  0.8557
 6987TIP3    H242597   6.361   1.661   1.168 -0.1053  0.8079 -0.6714
 6988TIP3   OH242598   5.037   0.493   7.621 -0.0051 -0.1215 -0.2509
 6988TIP3    H142599   5.101   0.485   7.550  0.3726  1.3059 -0.1136
 6988TIP3    H242600   5.077   0.446   7.695  1.4453  1.6352  0.1559
 6989TIP3   OH242601   6.055   2.231   1.179  0.0598 -0.0060  0.3177
 6989TIP3    H142602   6.074   2.227   1.085 -2.0658 -2.2469 -0.1236
 6989TIP3    H242603   6.110   2.163   1.217 -1.3678 -1.3314  0.1372
 6990TIP3   OH242604   3.883   3.827   8.714  0.2239 -0.6696  0.1727
 6990TIP3    H142605   3.925   3.887   8.652  0.4317 -1.6142 -0.6199
 6990TIP3    H242606   3.856   3.883   8.787  0.5983  0.3512 -0.4544
 6991TIP3   OH242607   5.776   3.154   7.829 -0.3544 -0.1953 -0.5396
 6991TIP3    H142608   5.755   3.175   7.920 -0.9980  1.1461 -0.9710
 6991TIP3    H242609   5.856   3.101   7.835 -0.2359  0.0816  0.7889
 6992TIP3   OH242610   6.541   2.916   0.666 -0.2197  0.1482 -0.3630
 6992TIP3    H142611   6.464   2.873   0.629  0.3367  0.3632 -1.8224
 6992TIP3    H242612   6.539   2.892   0.759  0.8295 -4.2909 -1.2648
 6993TIP3   OH242613   6.673   5.775   8.147  0.2184 -0.0384 -0.7681
 6993TIP3    H142614   6.592   5.826   8.147  0.0944 -0.2352 -1.0362
 6993TIP3    H242615   6.688   5.754   8.055  1.4047  1.3139 -0.9072
 6994TIP3   OH242616   5.516   1.810   1.382  0.4117 -0.0245  0.3076
 6994TIP3    H142617   5.607   1.834   1.401  0.2833  0.6118  0.1538
 6994TIP3    H242618   5.466   1.852   1.451  0.1838  0.1192  0.0570
 6995TIP3   OH242619   5.594   0.884   1.392  0.4813  0.4923  0.2145
 6995TIP3    H142620   5.624   0.975   1.391  1.1027  0.3414 -2.5041
 6995TIP3    H242621   5.668   0.834   1.358 -0.4926 -0.7979 -0.1040
 6996TIP3   OH242622   0.598   3.757   1.606 -0.3488 -0.8292  0.0570
 6996TIP3    H142623   0.594   3.668   1.640  1.6577 -0.3273  1.8045
 6996TIP3    H242624   0.558   3.811   1.674  0.3721 -0.1767 -0.0225
 6997TIP3   OH242625   0.575   0.237   1.698 -0.3667 -0.1980  0.7268
 6997TIP3    H142626   0.667   0.255   1.678 -0.2889 -1.2181  0.1019
 6997TIP3    H242627   0.573   0.230   1.794  0.4124 -1.1234  0.7001
 6998TIP3   OH242628   1.909   6.112   8.470  0.0645  0.7805  0.1432
 6998TIP3    H142629   1.842   6.150   8.413 -0.6133  0.9379  1.0331
 6998TIP3    H242630   1.979   6.177   8.471 -0.2743  1.1464  0.1475
 6999TIP3   OH242631   5.006   2.923   8.063 -0.1183 -0.4618  0.2468
 6999TIP3    H142632   5.003   2.853   7.998 -1.9369 -0.6558  0.4986
 6999TIP3    H242633   4.947   2.990   8.029  1.5936  1.0035  0.0038
 7000TIP3   OH242634   4.351   4.552   0.241 -0.3470 -0.2454  0.3770
 7000TIP3    H142635   4.401   4.511   0.170  0.4800  0.6630  0.4251
 7000TIP3    H242636   4.304   4.624   0.199  2.1458  1.9732  1.1110
 7001TIP3   OH242637   3.194   3.574   2.692  0.1702  0.8167  0.0887
 7001TIP3    H142638   3.161   3.486   2.710 -1.2724  1.3579  0.1543
 7001TIP3    H242639   3.169   3.626   2.768  0.6750  1.3789 -0.1222
 7002TIP3   OH242640   0.150   6.605   8.365  0.8344 -0.1349  0.1142
 7002TIP3    H142641   0.073   6.565   8.407  0.1496  0.6030 -0.4277
 7002TIP3    H242642   0.155   6.692   8.403  1.0425  0.0387 -0.3137
 7003TIP3   OH242643   2.861   6.559   0.463  0.1255 -0.5438  0.4695
 7003TIP3    H142644   2.925   6.614   0.418 -2.1223  1.5104 -0.4327
 7003TIP3    H242645   2.883   6.469   0.435  1.1022  0.3090 -1.7596
 7004TIP3   OH242646   4.721   6.294   1.347  0.5496  0.5419  0.5519
 7004TIP3    H142647   4.661   6.302   1.421 -1.8979  1.3577 -1.3721
 7004TIP3    H242648   4.736   6.200   1.338 -1.2367  0.2092  0.5834
 7005TIP3   OH242649   5.599   1.196   0.625  0.3962 -0.1102 -0.3598
 7005TIP3    H142650   5.529   1.254   0.652 -0.3871 -0.9338 -0.5735
 7005TIP3    H242651   5.635   1.235   0.545  0.0127  0.1750 -0.3897
 7006TIP3   OH242652   5.117   6.031   2.425 -0.0662  0.8308  0.6453
 7006TIP3    H142653   5.182   5.987   2.370  1.8559  2.5780  1.4332
 7006TIP3    H242654   5.167   6.089   2.481 -2.2067  1.1630  2.3544
 7007TIP3   OH242655   1.710   2.301   0.503 -0.0490 -0.0153  0.1087
 7007TIP3    H142656   1.769   2.370   0.534 -1.3558  0.8068  0.8856
 7007TIP3    H242657   1.735   2.224   0.553  0.8795  0.0987 -0.1582
 7008TIP3   OH242658   3.850   6.402   2.048  0.4433 -0.2072  0.7491
 7008TIP3    H142659   3.815   6.313   2.051  0.2000 -0.2406 -1.2989
 7008TIP3    H242660   3.921   6.402   2.112  0.7858 -2.0392  0.4313
 7009TIP3   OH242661   2.208   2.450   2.429 -0.1092 -0.3368  0.2883
 7009TIP3    H142662   2.150   2.392   2.477 -0.4713  2.0354  2.9935
 7009TIP3    H242663   2.284   2.461   2.487  1.5885 -0.8064 -1.7213
 7010TIP3   OH242664   1.377   4.629   7.509  0.1664  0.2212 -0.0036
 7010TIP3    H142665   1.437   4.641   7.582 -0.0079  1.4633 -0.0465
 7010TIP3    H242666   1.290   4.622   7.549 -0.0866  2.1183 -0.1023
 7011TIP3   OH242667   4.839   2.064   8.983 -0.2993 -0.2958  0.0806
 7011TIP3    H142668   4.784   2.077   9.060 -0.8189 -0.8055 -0.1944
 7011TIP3    H242669   4.792   1.998   8.931 -0.2754  0.5089 -0.9839
 7012TIP3   OH242670   3.667   4.720   8.375 -0.1550  0.5546  0.6170
 7012TIP3    H142671   3.680   4.758   8.462 -1.6544  0.7703  0.7772
 7012TIP3    H242672   3.573   4.733   8.358 -0.0010 -0.0599 -0.7593
 7013TIP3   OH242673   4.329   0.012   7.507  0.3519  0.3065  0.3691
 7013TIP3    H142674   4.359  -0.021   7.422 -1.1082  0.4294 -0.2363
 7013TIP3    H242675   4.408   0.018   7.560  1.0459 -1.6535 -0.3420
 7014TIP3   OH242676   5.715   0.271   0.040 -0.7792  0.0924 -1.1291
 7014TIP3    H142677   5.641   0.251   0.098  0.0355  0.3812  0.0460
 7014TIP3    H242678   5.697   0.359   0.007 -0.8473  0.2570 -0.6581
 7015TIP3   OH242679   2.943   1.965   1.577 -0.4830  0.4650  0.3194
 7015TIP3    H142680   2.901   2.003   1.500  0.2977  0.6092 -0.0474
 7015TIP3    H242681   2.895   1.883   1.593 -1.5609  1.1238  0.5436
 7016TIP3   OH242682   4.966   2.841   1.142 -0.6110 -0.1891  0.1894
 7016TIP3    H142683   4.954   2.746   1.141  1.8101 -0.5467 -0.8833
 7016TIP3    H242684   4.994   2.863   1.053  0.4113  1.2879  0.8315
 7017TIP3   OH242685   3.964   1.856   1.549 -0.2825 -0.6315  0.5986
 7017TIP3    H142686   3.959   1.951   1.545  0.9737 -0.5371  0.7884
 7017TIP3    H242687   3.874   1.826   1.533 -0.6311  0.5649  0.2204
 7018TIP3   OH242688   6.474   3.640   8.184  0.1160 -0.2622 -0.0404
 7018TIP3    H142689   6.557   3.652   8.138  0.4776  1.4448  0.9694
 7018TIP3    H242690   6.424   3.581   8.128  2.0387 -1.4444 -0.6172
 7019TIP3   OH242691   2.675   5.319   8.472 -0.2379 -0.0396 -0.3169
 7019TIP3    H142692   2.662   5.293   8.563  1.1376  0.8784  0.1773
 7019TIP3    H242693   2.681   5.237   8.423 -0.5051 -0.5432  0.4903
 7020TIP3   OH242694   2.776   6.680   9.123  0.5559 -0.0259  0.0010
 7020TIP3    H142695   2.734   6.647   9.203  2.2593 -0.5197  0.7241
 7020TIP3    H242696   2.829   6.753   9.153  0.1712  0.6337 -0.9158
 7021TIP3   OH242697   5.448   2.771   0.215  0.0221 -0.1089  0.1438
 7021TIP3    H142698   5.422   2.840   0.154  0.9669  1.3392  1.3093
 7021TIP3    H242699   5.524   2.730   0.173 -0.4231 -0.3322 -0.4649
 7022TIP3   OH242700   3.392   5.101   1.553  0.3165 -0.0118  0.6320
 7022TIP3    H142701   3.348   5.058   1.627 -0.6428 -1.1318 -0.5398
 7022TIP3    H242702   3.350   5.187   1.547  0.2833  0.0228  1.2621
 7023TIP3   OH242703   0.444   4.366   8.686 -0.1918  0.5114  0.1633
 7023TIP3    H142704   0.388   4.384   8.761  0.5519  2.8284  0.2442
 7023TIP3    H242705   0.476   4.452   8.658 -1.0298 -0.1381 -3.3175
 7024TIP3   OH242706   3.001   3.372   8.262  0.5365 -0.2897 -0.0768
 7024TIP3    H142707   3.023   3.280   8.274 -0.0327 -0.5540 -0.9317
 7024TIP3    H242708   3.082   3.419   8.281  1.1270 -1.0451 -0.6467
 7025TIP3   OH242709   0.087   1.583   8.368 -0.2421 -0.0318 -0.5197
 7025TIP3    H142710  -0.009   1.581   8.375 -0.3235 -2.3883 -1.4417
 7025TIP3    H242711   0.117   1.512   8.425  1.0675  1.2616  0.4848
 7026TIP3   OH242712   3.477   5.769   2.311  0.1859 -0.8887  0.3845
 7026TIP3    H142713   3.439   5.703   2.369 -0.5549 -1.5868 -0.8468
 7026TIP3    H242714   3.527   5.719   2.247  0.3491 -0.1926 -0.0409
 7027TIP3   OH242715   3.055   4.744   7.898  0.1747 -0.4849 -0.0392
 7027TIP3    H142716   3.102   4.688   7.960 -0.7587 -1.4520 -0.1674
 7027TIP3    H242717   3.036   4.823   7.947  0.2118 -0.8913  0.6454
 7028TIP3   OH242718   2.779   4.653   8.735  0.2147  0.3000  0.4594
 7028TIP3    H142719   2.763   4.596   8.659 -0.0496  2.5670 -1.3085
 7028TIP3    H242720   2.697   4.703   8.745  1.5102  2.7722 -0.3363
 7029TIP3   OH242721   6.204   5.522   8.981 -0.0776  0.0035 -0.0663
 7029TIP3    H142722   6.222   5.444   9.034 -1.0667 -0.0335  0.2305
 7029TIP3    H242723   6.286   5.537   8.933  0.9253  0.1667  1.6146
 7030TIP3   OH242724   5.610   0.892   8.902  0.3066  0.5018 -0.1658
 7030TIP3    H142725   5.696   0.935   8.903  0.1771  0.7662 -0.1710
 7030TIP3    H242726   5.548   0.964   8.914  0.1308  0.1844  0.8951
 7031TIP3   OH242727   4.531   1.484   2.287 -0.2741  0.4099 -0.2081
 7031TIP3    H142728   4.436   1.484   2.298 -0.2764  2.9546  0.4953
 7031TIP3    H242729   4.545   1.492   2.193 -0.7666  0.2752 -0.2935
 7032TIP3   OH242730   6.565   6.639   8.784  0.0921  0.3102 -0.3654
 7032TIP3    H142731   6.646   6.592   8.803 -0.6574 -0.4924  0.9829
 7032TIP3    H242732   6.586   6.693   8.708  1.7809 -0.1435 -0.2592
 7033TIP3   OH242733   0.476   1.362   1.285  0.3012  0.2600 -0.5642
 7033TIP3    H142734   0.416   1.435   1.301  0.6712  0.6285 -0.8291
 7033TIP3    H242735   0.464   1.304   1.361 -1.6961 -0.5951 -1.4494
 7034TIP3   OH242736   3.363   3.644   1.740 -0.0258  0.0534 -0.3372
 7034TIP3    H142737   3.376   3.554   1.770  1.8888  0.5069  0.3206
 7034TIP3    H242738   3.384   3.642   1.647 -1.6976 -0.4808 -0.7469
 7035TIP3   OH242739   4.393   2.215   9.117 -0.1180 -0.1086 -0.3593
 7035TIP3    H142740   4.360   2.152   9.053 -0.5776  1.2100 -1.4451
 7035TIP3    H242741   4.397   2.298   9.070  2.7451  0.2461  0.3521
 7036TIP3   OH242742   0.864   4.610   0.712 -0.0233 -0.1198  0.8830
 7036TIP3    H142743   0.877   4.669   0.786  1.0763 -2.8661  3.0682
 7036TIP3    H242744   0.774   4.579   0.722  0.7016 -1.9291  2.3217
 7037TIP3   OH242745   6.142   0.480   8.170 -0.0839 -0.3115 -0.5119
 7037TIP3    H142746   6.198   0.524   8.234 -0.9591  1.0901 -0.6759
 7037TIP3    H242747   6.126   0.393   8.207  1.4407 -0.4113 -0.0378
 7038TIP3   OH242748   2.515   4.742   0.156  0.0516 -0.2280  0.0400
 7038TIP3    H142749   2.452   4.676   0.127  0.5703 -1.5517  1.7969
 7038TIP3    H242750   2.599   4.696   0.158  0.2498  0.1337  2.3416
 7039TIP3   OH242751   5.334   5.123   8.912  0.7504  0.3594  0.5148
 7039TIP3    H142752   5.273   5.093   8.979  1.8227 -0.3692  1.1929
 7039TIP3    H242753   5.413   5.069   8.924  1.2707  0.7712 -0.8028
 7040TIP3   OH242754   4.893   6.568   2.947  0.6012 -0.0606  0.1479
 7040TIP3    H142755   4.926   6.485   2.982  1.0153  1.0910  2.7357
 7040TIP3    H242756   4.801   6.550   2.925  1.2735 -1.7663 -1.6608
 7041TIP3   OH242757   6.287   4.340   2.415 -0.0596 -0.3223 -0.0929
 7041TIP3    H142758   6.353   4.317   2.480 -1.2319 -0.2522  1.1844
 7041TIP3    H242759   6.217   4.382   2.466  0.0140  1.9621 -1.7174
 7042TIP3   OH242760   1.558   5.320   8.175  0.2466  0.6517 -0.1729
 7042TIP3    H142761   1.628   5.370   8.134  0.1948 -1.0607 -2.5701
 7042TIP3    H242762   1.602   5.246   8.216 -0.0404  0.2032 -0.6603
 7043TIP3   OH242763   3.051   3.795   0.479 -0.0439 -0.0608 -0.4005
 7043TIP3    H142764   3.019   3.783   0.390  2.5171 -0.5604 -1.3418
 7043TIP3    H242765   3.139   3.832   0.469 -0.0378  0.7918  1.9656
 7044TIP3   OH242766   2.060   4.039   2.300  0.3523 -0.0691 -0.5643
 7044TIP3    H142767   2.066   3.951   2.338  1.5391  0.3984  0.4137
 7044TIP3    H242768   2.011   4.089   2.365  0.7819  0.2880 -0.5087
 7045TIP3   OH242769   1.701   0.656   1.350  0.2298  0.2059 -0.0640
 7045TIP3    H142770   1.638   0.693   1.412  2.5791 -0.9258  3.3125
 7045TIP3    H242771   1.663   0.572   1.325 -0.0547 -0.0807  1.2526
 7046TIP3   OH242772   5.549   0.509   2.159  0.4115 -0.0706 -0.3628
 7046TIP3    H142773   5.585   0.540   2.076 -0.5069  1.7151 -0.1395
 7046TIP3    H242774   5.601   0.552   2.226 -0.2520  0.2195 -0.0291
 7047TIP3   OH242775   6.241   3.568   2.469  0.1318  0.1322 -1.1318
 7047TIP3    H142776   6.231   3.553   2.375 -0.8774 -0.5280 -0.9352
 7047TIP3    H242777   6.181   3.641   2.488 -0.6817 -0.6102 -0.7852
 7048TIP3   OH242778   1.650   5.958   1.354  0.2869 -0.2203 -0.1611
 7048TIP3    H142779   1.608   5.903   1.288  1.4120 -0.8938 -0.3412
 7048TIP3    H242780   1.668   6.040   1.307  2.8650 -1.3514 -1.4019
 7049TIP3   OH242781   6.103   2.205   7.485 -0.0867 -0.5499 -0.1025
 7049TIP3    H142782   6.018   2.190   7.526  0.1571 -0.3255  0.5024
 7049TIP3    H242783   6.151   2.123   7.498 -0.2300 -0.6947 -0.4901
 7050TIP3   OH242784   3.479   2.947   1.537  0.1556 -0.7440  0.2317
 7050TIP3    H142785   3.420   3.019   1.516 -1.0127 -1.6673  0.2628
 7050TIP3    H242786   3.557   2.989   1.573 -0.1762  0.5378 -0.4971
 7051TIP3   OH242787   6.441   4.624   1.368  1.0108 -0.2140 -1.0600
 7051TIP3    H142788   6.363   4.675   1.346  0.1320 -0.8310  0.4382
 7051TIP3    H242789   6.484   4.675   1.437  0.4052 -1.1745  0.0753
 7052TIP3   OH242790   2.425   4.955   9.087  0.7412 -0.1556  0.2262
 7052TIP3    H142791   2.411   4.973   8.994 -0.8309  1.0269  0.6492
 7052TIP3    H242792   2.512   4.989   9.105  1.6403 -1.5939 -1.0575
 7053TIP3   OH242793   0.706   5.600   8.128  0.6687  0.3336 -0.1080
 7053TIP3    H142794   0.749   5.543   8.192 -0.0302  1.5802  1.5504
 7053TIP3    H242795   0.778   5.635   8.075  1.4789  0.6795  1.1816
 7054TIP3   OH242796   1.006   5.460   0.376  0.2394  0.9039 -0.3842
 7054TIP3    H142797   0.964   5.430   0.296 -0.8067  1.4085 -0.0372
 7054TIP3    H242798   0.987   5.392   0.441 -0.1641  1.1904 -0.1956
 7055TIP3   OH242799   1.772   0.138   0.648 -0.2558 -0.2048 -0.0519
 7055TIP3    H142800   1.820   0.119   0.729 -0.9080  3.0830  1.2247
 7055TIP3    H242801   1.690   0.089   0.657  0.6433 -1.7710  0.0960
 7056TIP3   OH242802   2.270   5.991   2.612 -0.1862  0.0742 -0.1536
 7056TIP3    H142803   2.363   5.974   2.597 -0.4621 -2.3607  0.5006
 7056TIP3    H242804   2.266   6.029   2.700  0.1168 -0.6567  0.1786
 7057TIP3   OH242805   1.594   3.038   0.371 -0.2074  0.3382  0.1635
 7057TIP3    H142806   1.511   3.079   0.393  0.3542  1.2982  0.5841
 7057TIP3    H242807   1.654   3.066   0.440  1.4806  3.0336 -2.1634
 7058TIP3   OH242808   5.158   1.926   2.222  0.1449 -0.0890 -0.5533
 7058TIP3    H142809   5.124   1.997   2.167 -1.3186  0.8628  1.4368
 7058TIP3    H242810   5.086   1.907   2.282  1.7116 -0.9388  1.1305
 7059TIP3   OH242811   1.025   6.270   1.367 -0.3998 -0.0265  0.1167
 7059TIP3    H142812   1.029   6.352   1.317 -1.6539  0.1053  0.2093
 7059TIP3    H242813   1.084   6.211   1.321  0.8235  1.0305  0.2572
 7060TIP3   OH242814   3.991   4.952   2.101 -0.8631 -0.4473  0.2254
 7060TIP3    H142815   4.015   5.015   2.033 -2.3704 -1.6587 -1.5160
 7060TIP3    H242816   3.926   4.999   2.154  0.4609  0.5699  0.9998
 7061TIP3   OH242817   5.088   4.403   1.947  0.4822 -0.2209  0.1022
 7061TIP3    H142818   5.044   4.467   2.002 -0.7118 -0.6336 -0.3443
 7061TIP3    H242819   5.021   4.373   1.886  1.9200  0.7281 -2.0542
 7062TIP3   OH242820   3.252   5.947   3.070  0.1392  0.6467 -0.4458
 7062TIP3    H142821   3.298   5.923   3.150 -1.0296  0.6418  0.2470
 7062TIP3    H242822   3.163   5.969   3.099 -0.0551  1.5091 -1.6255
 7063TIP3   OH242823   2.218   0.368   0.383  0.2310  0.4694  0.4711
 7063TIP3    H142824   2.269   0.426   0.439 -0.7855  1.2916  0.5954
 7063TIP3    H242825   2.192   0.423   0.309  0.3674 -0.2098 -0.0920
 7064TIP3   OH242826   6.262   5.450   8.402  0.3167 -0.0191  0.2142
 7064TIP3    H142827   6.326   5.418   8.340  2.4323 -0.8266  2.6360
 7064TIP3    H242828   6.191   5.386   8.399 -0.0547  0.4370 -1.9142
 7065TIP3   OH242829   0.110   1.912   0.310 -0.2804  0.0180  0.2549
 7065TIP3    H142830   0.169   1.964   0.365 -0.2839  0.5687 -0.2558
 7065TIP3    H242831   0.166   1.842   0.276 -0.3003 -0.3848  1.0227
 7066TIP3   OH242832   3.515   4.525   8.039 -0.6939  0.4380 -0.3514
 7066TIP3    H142833   3.451   4.454   8.037  0.0633 -0.2490 -0.8896
 7066TIP3    H242834   3.563   4.512   8.121  1.2621 -1.3722 -1.6710
 7067TIP3   OH242835   5.737   3.150   0.197  0.2397 -0.0640  0.2823
 7067TIP3    H142836   5.688   3.079   0.154 -0.7508  0.6275  0.2314
 7067TIP3    H242837   5.673   3.191   0.256  0.6982  0.9973  0.0670
 7068TIP3   OH242838   0.344   2.551   1.801 -0.0588 -0.9300 -0.0866
 7068TIP3    H142839   0.350   2.505   1.885  0.3495 -0.2781  0.2502
 7068TIP3    H242840   0.313   2.638   1.823  2.9462  0.3030 -0.1792
 7069TIP3   OH242841   1.680   1.173   8.556 -0.1015  0.0322 -0.4894
 7069TIP3    H142842   1.623   1.102   8.584  0.5665  0.3121  1.7396
 7069TIP3    H242843   1.717   1.143   8.472 -0.2601 -1.9951  0.1263
 7070TIP3   OH242844   5.063   1.553   2.359  0.2593  0.0079 -0.0431
 7070TIP3    H142845   5.008   1.548   2.437  1.6630 -0.5868  0.9423
 7070TIP3    H242846   5.149   1.524   2.388  0.5923 -1.2053 -2.0369
 7071TIP3   OH242847   5.235   0.504   7.415  0.2424  0.1273  0.4756
 7071TIP3    H142848   5.329   0.510   7.430  0.5812 -0.5151 -1.1896
 7071TIP3    H242849   5.224   0.425   7.362 -0.8935  1.5702 -1.5837
 7072TIP3   OH242850   5.820   5.999   0.388  0.0694  0.2603 -0.1371
 7072TIP3    H142851   5.912   5.975   0.400 -0.1229 -0.4335  0.0181
 7072TIP3    H242852   5.781   5.924   0.343 -0.5122  0.3526  0.1938
 7073TIP3   OH242853   5.350   5.251   1.861  0.2541  0.1568  0.3902
 7073TIP3    H142854   5.424   5.219   1.912  1.2536 -1.2047 -1.8033
 7073TIP3    H242855   5.387   5.318   1.804 -0.7302  1.2330  0.9659
 7074TIP3   OH242856   3.783   1.100   3.112 -0.1117 -0.0468  0.1529
 7074TIP3    H142857   3.777   1.195   3.100  0.1002 -0.0938 -0.3610
 7074TIP3    H242858   3.866   1.086   3.157  0.2859 -0.0465 -0.5583
 7075TIP3   OH242859   2.560   2.558   1.707  0.3491 -0.2361 -0.1682
 7075TIP3    H142860   2.480   2.564   1.760  0.4138  3.2089 -0.2463
 7075TIP3    H242861   2.611   2.490   1.750 -2.1262 -1.7946  0.5362
 7076TIP3   OH242862   0.310   0.615   1.032  0.2187 -0.4191  0.1669
 7076TIP3    H142863   0.271   0.574   0.954  0.2643 -0.6814  0.2801
 7076TIP3    H242864   0.308   0.546   1.098  2.6519 -1.0914 -0.3549
 7077TIP3   OH242865   3.297   0.440   8.702  0.1412 -0.3011 -0.2619
 7077TIP3    H142866   3.291   0.446   8.797 -0.7091  0.9844 -0.3765
 7077TIP3    H242867   3.207   0.431   8.672  0.3711 -0.3301 -0.9760
 7078TIP3   OH242868   5.307   1.747   2.051  0.3859  0.1032 -0.0873
 7078TIP3    H142869   5.266   1.826   2.088  0.2554  0.1550 -0.3408
 7078TIP3    H242870   5.397   1.751   2.082 -0.1107 -0.6987  1.5705
 7079TIP3   OH242871   1.350   2.239   2.406  0.1470 -0.2524  0.5224
 7079TIP3    H142872   1.293   2.205   2.337 -0.3370  0.9475  0.2900
 7079TIP3    H242873   1.290   2.284   2.466  0.6362 -0.7261  1.3784
 7080TIP3   OH242874   4.144   2.815   8.052  0.3257 -0.1544  0.1414
 7080TIP3    H142875   4.095   2.805   8.134 -0.2532  2.0020  0.1364
 7080TIP3    H242876   4.214   2.877   8.074  2.6459 -2.5178 -0.0734
 7081TIP3   OH242877   5.616   1.559   1.827  0.1925 -0.4257  0.2894
 7081TIP3    H142878   5.585   1.488   1.883  0.7457  0.6931  2.0809
 7081TIP3    H242879   5.541   1.617   1.818  0.0192 -0.7482 -0.3881
 7082TIP3   OH242880   1.437   3.663   7.507 -0.9889  0.0366 -0.6976
 7082TIP3    H142881   1.525   3.668   7.469 -0.3729 -1.4988  0.3958
 7082TIP3    H242882   1.451   3.675   7.601 -1.0954 -5.0799  0.2758
 7083TIP3   OH242883   5.488   4.333   1.264  0.1891  0.1109  0.3869
 7083TIP3    H142884   5.465   4.366   1.351 -0.3184  1.7900 -0.3610
 7083TIP3    H242885   5.547   4.399   1.229  0.9325 -0.8949 -0.3067
 7084TIP3   OH242886   1.417   6.294   0.272 -0.0588 -0.4881 -0.5541
 7084TIP3    H142887   1.364   6.284   0.193  0.3498 -0.0233 -0.8916
 7084TIP3    H242888   1.489   6.232   0.261  0.2982 -0.0375 -0.8086
 7085TIP3   OH242889   2.537   3.040   8.589  0.2382 -0.7246  0.0713
 7085TIP3    H142890   2.560   2.980   8.660 -0.7964 -0.4189  0.6785
 7085TIP3    H242891   2.493   3.113   8.632 -0.7859 -0.7277 -0.9215
 7086TIP3   OH242892   4.013   1.899   8.790 -0.0344  0.4216  0.5005
 7086TIP3    H142893   4.030   1.805   8.799  0.6422  0.6275  1.6285
 7086TIP3    H242894   3.945   1.917   8.855 -0.2655  0.6809  0.1829
 7087TIP3   OH242895   2.052   1.058   2.645  0.3381 -0.4590  0.3975
 7087TIP3    H142896   2.039   0.970   2.681  1.4006 -1.0034 -0.4791
 7087TIP3    H242897   1.979   1.109   2.679 -1.3958 -2.1515 -0.6054
 7088TIP3   OH242898   4.014   1.906   7.655 -0.8713  0.2063  0.5139
 7088TIP3    H142899   3.931   1.925   7.610 -2.4254 -2.5246  1.9512
 7088TIP3    H242900   4.055   1.838   7.600 -1.9086 -1.8140  2.0968
 7089TIP3   OH242901   4.945   3.499   0.357 -0.1572  0.4617 -0.0928
 7089TIP3    H142902   5.036   3.477   0.337 -0.0612  0.1969  0.5958
 7089TIP3    H242903   4.950   3.589   0.390  0.1127 -0.1588  1.6364
 7090TIP3   OH242904   5.319   4.924   7.705 -0.5462 -0.1387  1.2166
 7090TIP3    H142905   5.271   4.855   7.659  0.7012  1.1117 -2.3049
 7090TIP3    H242906   5.410   4.893   7.707  0.2234  1.6800 -1.3325
 7091TIP3   OH242907   6.263   4.794   2.329 -0.0850  0.2192 -0.1223
 7091TIP3    H142908   6.235   4.885   2.317  3.2599  1.4278  0.0950
 7091TIP3    H242909   6.313   4.774   2.249 -0.3764 -1.2724  0.0493
 7092TIP3   OH242910   2.136   2.966   1.626 -0.2151  0.1645 -0.8452
 7092TIP3    H142911   2.113   3.058   1.614 -0.0734  0.2213 -0.6941
 7092TIP3    H242912   2.195   2.946   1.553  2.1446  1.0299  0.6828
 7093TIP3   OH242913   1.774   4.537   8.297 -0.2346 -0.0493  0.5749
 7093TIP3    H142914   1.808   4.449   8.281 -0.2488  0.0548 -0.0575
 7093TIP3    H242915   1.852   4.591   8.310 -0.0391  0.4073 -1.9788
 7094TIP3   OH242916   1.880   5.520   0.051 -0.4219 -0.3457 -0.0220
 7094TIP3    H142917   1.950   5.474   0.096 -2.1304 -1.3980  1.7319
 7094TIP3    H242918   1.875   5.606   0.095  1.2933  0.7403 -1.7957
 7095TIP3   OH242919   3.676   3.700   0.332  0.2464  0.1549  0.1013
 7095TIP3    H142920   3.753   3.714   0.388  0.3818  0.4243 -0.1459
 7095TIP3    H242921   3.709   3.646   0.260 -0.1907 -1.1723  0.8599
 7096TIP3   OH242922   1.848   0.679   8.437  0.3264  0.1845 -0.0855
 7096TIP3    H142923   1.768   0.628   8.426 -0.0167  0.7753 -0.3477
 7096TIP3    H242924   1.918   0.620   8.408 -0.0615 -0.1465 -0.3594
 7097TIP3   OH242925   1.708   0.211   1.393 -0.3850 -0.6544 -0.0947
 7097TIP3    H142926   1.783   0.154   1.408 -0.8934 -1.1698  0.5823
 7097TIP3    H242927   1.644   0.183   1.458 -1.0089  0.0513 -0.3920
 7098TIP3   OH242928   3.522   2.536   8.648 -0.7882  0.2903  0.0429
 7098TIP3    H142929   3.607   2.549   8.690 -1.6346 -1.7126  2.6499
 7098TIP3    H242930   3.536   2.564   8.558  2.4036  0.8109  0.5676
 7099TIP3   OH242931   1.235   0.914   7.891  0.4396 -0.2505 -0.0818
 7099TIP3    H142932   1.163   0.957   7.846 -1.0925 -1.6055  0.9773
 7099TIP3    H242933   1.294   0.886   7.821  0.7856  2.2540 -0.8684
 7100TIP3   OH242934   4.272   4.199   9.200 -0.1381 -0.4665  0.7741
 7100TIP3    H142935   4.240   4.242   9.121  0.8589  1.1796  1.2130
 7100TIP3    H242936   4.195   4.194   9.257 -0.2485  1.0147  0.7974
 7101TIP3   OH242937   5.484   6.551   1.988 -0.3647 -0.1116  0.1844
 7101TIP3    H142938   5.527   6.496   1.923 -1.5340 -0.5327 -0.2704
 7101TIP3    H242939   5.390   6.536   1.973 -0.8281 -3.2114  4.4013
 7102TIP3   OH242940   5.895   4.212   8.385  0.4772  0.1732 -0.2229
 7102TIP3    H142941   5.809   4.170   8.394  0.1498  1.0144  0.9027
 7102TIP3    H242942   5.957   4.139   8.378 -0.0500 -0.5611  1.9071
 7103TIP3   OH242943   4.207   6.326   9.132  1.0020 -0.3217  0.3188
 7103TIP3    H142944   4.188   6.318   9.225 -0.6440  0.1941  0.0610
 7103TIP3    H242945   4.299   6.299   9.123  1.9323  1.8432  2.4121
 7104TIP3   OH242946   0.624   2.675   8.054 -0.4662 -0.2144  0.3598
 7104TIP3    H142947   0.692   2.617   8.020 -0.0795  0.8713 -0.8021
 7104TIP3    H242948   0.547   2.656   8.000 -0.6254 -0.3195  0.6199
 7105TIP3   OH242949   4.071   5.472   1.118  0.0148  0.0219  0.3342
 7105TIP3    H142950   4.017   5.548   1.096  0.3836  0.7376  1.7826
 7105TIP3    H242951   4.045   5.448   1.207  1.5520 -0.0698  0.7991
 7106TIP3   OH242952   2.057   6.153   8.814 -0.3485  0.2657 -0.2351
 7106TIP3    H142953   1.975   6.201   8.808  0.1565  1.1301 -0.5052
 7106TIP3    H242954   2.123   6.215   8.780  0.0395 -1.3714 -2.7056
 7107TIP3   OH242955   4.011   0.178   0.181 -0.0035  0.1896 -0.2938
 7107TIP3    H142956   3.976   0.263   0.206  1.9744  1.1546 -0.5858
 7107TIP3    H242957   4.062   0.195   0.102  0.1722 -1.3258 -0.5420
 7108TIP3   OH242958   1.847   6.004   7.031 -0.8719 -0.3232 -0.0864
 7108TIP3    H142959   1.844   5.915   7.066  1.1588 -0.3021  0.2816
 7108TIP3    H242960   1.865   5.993   6.938 -0.0301 -0.3173  0.0656
 7109TIP3   OH242961   2.078   0.900   1.004 -0.2244  0.0875  0.1877
 7109TIP3    H142962   2.022   0.978   1.006  0.0537  0.2864  2.1186
 7109TIP3    H242963   2.166   0.933   1.024 -0.2591 -0.7793  2.0178
 7110TIP3   OH242964   6.203   1.640   0.913 -0.0621  0.0353 -0.4028
 7110TIP3    H142965   6.232   1.678   0.830 -2.7903  0.0371 -1.4362
 7110TIP3    H242966   6.221   1.546   0.904  0.3350  0.1335 -0.6685
 7111TIP3   OH242967   1.912   0.653   0.422  0.1834  0.1106  0.1980
 7111TIP3    H142968   1.873   0.716   0.482 -0.1277  1.7344 -1.6277
 7111TIP3    H242969   1.998   0.688   0.402  0.1161 -0.1805 -0.6326
 7112TIP3   OH242970   6.424   0.487   1.521  0.1302 -0.2250  0.6692
 7112TIP3    H142971   6.445   0.514   1.432  1.3838 -1.6362  0.5123
 7112TIP3    H242972   6.486   0.536   1.576  2.2148 -2.3927  0.4040
 7113TIP3   OH242973   4.288   6.492   2.146  0.3903  0.3632  0.3687
 7113TIP3    H142974   4.281   6.556   2.075  0.9889  1.0189  0.8935
 7113TIP3    H242975   4.339   6.536   2.213  0.7756 -0.6581  0.7560
 7114TIP3   OH242976   5.319   5.465   8.499 -0.2224  0.1056  0.8065
 7114TIP3    H142977   5.230   5.443   8.472  0.5766  0.4098 -2.4863
 7114TIP3    H242978   5.309   5.538   8.560 -2.2807 -1.5058  2.5415
 7115TIP3   OH242979   4.914   3.946   1.395 -0.0040  0.3918  0.2555
 7115TIP3    H142980   4.936   3.920   1.306 -1.2477 -0.0293  0.0626
 7115TIP3    H242981   4.991   3.994   1.425  0.4040  0.5954 -1.0585
 7116TIP3   OH242982   1.397   0.015   3.353  0.1587 -0.4624  0.8297
 7116TIP3    H142983   1.399  -0.061   3.410  2.8298 -1.7350 -0.7703
 7116TIP3    H242984   1.351  -0.015   3.274 -0.2579  0.1315  0.8363
 7117TIP3   OH242985   4.521   4.946   0.346  0.5099  0.4548 -0.2372
 7117TIP3    H142986   4.533   4.951   0.441  1.2132 -0.1555 -0.2853
 7117TIP3    H242987   4.431   4.976   0.331  0.6428  1.2730  0.5450
 7118TIP3   OH242988   2.498   5.912   0.910  0.3862 -0.4330 -0.0124
 7118TIP3    H142989   2.543   5.979   0.963  0.5557 -0.1618 -0.4905
 7118TIP3    H242990   2.424   5.884   0.965 -0.7140  1.3815 -0.4663
 7119TIP3   OH242991   0.635   3.090   2.181 -0.3188  0.0965  0.3569
 7119TIP3    H142992   0.553   3.138   2.168 -0.4418 -0.0150  0.7167
 7119TIP3    H242993   0.693   3.154   2.223 -0.1912  0.2045  0.0150
 7120TIP3   OH242994   0.921   0.558   1.959  0.4671 -0.2778  0.0184
 7120TIP3    H142995   0.877   0.481   1.923  0.4807 -0.2751 -0.0051
 7120TIP3    H242996   0.993   0.522   2.011  0.5901 -0.2775 -0.1498
 7121TIP3   OH242997   2.046   1.380   8.650  0.1646 -0.0831 -0.2426
 7121TIP3    H142998   2.119   1.407   8.594  0.3491  0.1895  0.1197
 7121TIP3    H242999   2.009   1.303   8.607  1.3616 -0.8980  0.1381
 7122TIP3   OH243000   0.134   4.953   2.577 -0.0786  0.0485  0.4679
 7122TIP3    H143001   0.114   4.860   2.568  0.3870 -0.0821  0.7428
 7122TIP3    H243002   0.049   4.996   2.578 -0.2919 -0.3633  0.2109
 7123TIP3   OH243003   1.362   0.973   1.940  0.2738  0.1368  0.0236
 7123TIP3    H143004   1.344   0.984   2.033  0.6600 -1.0534  0.2526
 7123TIP3    H243005   1.349   1.060   1.903 -1.3605  0.3175  0.9331
 7124TIP3   OH243006   2.973   2.349   1.285  0.4976  0.3296 -0.2511
 7124TIP3    H143007   3.062   2.347   1.320  0.3879  0.6156  0.0455
 7124TIP3    H243008   2.983   2.326   1.193  0.4521 -3.9394  0.5866
 7125TIP3   OH243009   3.008   5.951   2.757 -0.0269 -0.1232  0.3902
 7125TIP3    H143010   3.039   5.866   2.790  1.5867  1.0971  2.2261
 7125TIP3    H243011   2.976   5.996   2.835 -0.1009  1.2702 -0.4176
 7126TIP3   OH243012   6.247   4.265   7.098 -0.1182 -0.4637  0.4235
 7126TIP3    H143013   6.161   4.307   7.092 -0.2072  0.1531  3.8959
 7126TIP3    H243014   6.308   4.329   7.061 -0.6776  1.3554  2.4308
 7127TIP3   OH243015   4.495   2.579   8.275 -0.2798 -0.1243  0.9210
 7127TIP3    H143016   4.458   2.662   8.304  0.2913  0.4527  0.0442
 7127TIP3    H243017   4.582   2.602   8.243 -0.1936 -1.0274  0.4879
 7128TIP3   OH243018   1.778   5.590   8.201 -0.1378  0.0925  0.1215
 7128TIP3    H143019   1.790   5.498   8.176  0.2585  0.0177  0.5797
 7128TIP3    H243020   1.705   5.620   8.146 -0.9129 -0.7692  0.6448
 7129TIP3   OH243021   4.383   6.546   2.405 -1.1849  0.2017  0.4625
 7129TIP3    H143022   4.294   6.551   2.439 -1.3450 -1.8940  0.4545
 7129TIP3    H243023   4.439   6.554   2.482 -1.3768  0.9927  0.5296
 7130TIP3   OH243024   0.381   3.533   0.593  0.2266 -0.5081  0.2127
 7130TIP3    H143025   0.390   3.449   0.637  3.4992 -0.5122 -0.1509
 7130TIP3    H243026   0.405   3.515   0.502 -2.6516  0.2133 -0.7966
 7131TIP3   OH243027   0.078   3.589   0.049  0.0966 -0.6304 -0.2344
 7131TIP3    H143028   0.154   3.568  -0.006 -0.8742 -0.3001 -1.7573
 7131TIP3    H243029   0.032   3.658   0.001 -0.7038 -0.1893  1.1080
 7132TIP3   OH243030   4.144   0.947   0.814  0.0003  0.0284  0.1452
 7132TIP3    H143031   4.093   0.956   0.733 -1.1938  1.7537  1.0161
 7132TIP3    H243032   4.235   0.954   0.786 -0.2624 -1.5176 -1.2678
 7133TIP3   OH243033   5.658   3.691   7.577 -0.1877  0.8632 -0.0588
 7133TIP3    H143034   5.681   3.624   7.641  1.8472  0.0893 -1.4680
 7133TIP3    H243035   5.648   3.771   7.628  0.2049  0.0566  1.3401
 7134TIP3   OH243036   5.232   0.455   1.332 -0.6316  0.2124 -0.4144
 7134TIP3    H143037   5.183   0.528   1.296 -0.9120  1.2604  1.8642
 7134TIP3    H243038   5.322   0.469   1.301 -0.9187  0.8156 -1.0019
 7135TIP3   OH243039   1.802   3.217   1.071 -0.1591  0.6348  0.0473
 7135TIP3    H143040   1.823   3.182   0.984 -1.0388 -1.3407  0.5766
 7135TIP3    H243041   1.714   3.183   1.090  1.0382 -1.2597  2.8066
 7136TIP3   OH243042   2.694   4.349   0.891  0.2357  0.4495 -0.2791
 7136TIP3    H143043   2.789   4.351   0.881  0.5649  2.3085  2.2051
 7136TIP3    H243044   2.661   4.406   0.822  0.6444 -1.8916 -2.5511
 7137TIP3   OH243045   4.769   4.226   1.256 -0.6700 -0.5816  1.0142
 7137TIP3    H143046   4.703   4.159   1.237 -2.8478  1.5886  0.4876
 7137TIP3    H243047   4.718   4.304   1.278  1.7049  1.5968 -0.7248
 7138TIP3   OH243048   4.331   5.516   1.187 -0.1314  0.1942 -0.1910
 7138TIP3    H143049   4.340   5.563   1.270 -1.3126 -2.3595  1.5036
 7138TIP3    H243050   4.246   5.473   1.193 -0.4961  0.3509 -3.0187
 7139TIP3   OH243051   4.742   6.504   0.828  0.1095 -0.0618  0.0932
 7139TIP3    H143052   4.673   6.486   0.765  0.6143 -2.0359  0.0259
 7139TIP3    H243053   4.699   6.551   0.899 -1.2543 -1.0201 -0.0671
 7140TIP3   OH243054   3.600   5.210   7.716  0.1342 -0.4208 -0.3975
 7140TIP3    H143055   3.570   5.129   7.757 -0.8067 -0.1005 -0.4390
 7140TIP3    H243056   3.614   5.187   7.624 -0.3008 -0.4919 -0.4454
 7141TIP3   OH243057   1.590   6.429   8.279  0.1259 -0.0724 -0.2687
 7141TIP3    H143058   1.555   6.463   8.197 -1.3831 -2.5235 -0.7464
 7141TIP3    H243059   1.541   6.475   8.347 -0.5282  0.0722 -0.8294
 7142TIP3   OH243060   4.920   1.980   2.411  0.0687  0.8787  0.4749
 7142TIP3    H143061   4.849   1.962   2.350  0.9500 -0.8048 -0.1081
 7142TIP3    H243062   4.910   2.072   2.434 -0.7088  1.3652 -1.6549
 7143TIP3   OH243063   2.077   3.336   8.685  0.3109  0.3806 -0.0519
 7143TIP3    H143064   2.011   3.268   8.673  1.5384 -0.8854  0.1658
 7143TIP3    H243065   2.106   3.357   8.596 -0.2706  0.8506 -0.1397
 7144TIP3   OH243066   6.693   2.606   2.128 -0.3177  0.2263  0.7046
 7144TIP3    H143067   6.686   2.536   2.062  2.0773  0.9145 -0.3953
 7144TIP3    H243068   6.648   2.680   2.090 -1.5245 -0.2293  1.1979
 7145TIP3   OH243069   4.845   0.158   2.508  0.1693 -0.2149 -0.0909
 7145TIP3    H143070   4.817   0.100   2.578 -0.3741  0.5159  0.3166
 7145TIP3    H243071   4.869   0.239   2.552  0.6683 -0.0423 -0.6704
 7146TIP3   OH243072   5.979   0.153   1.445 -0.1355 -0.4305 -0.4157
 7146TIP3    H143073   6.063   0.108   1.438 -0.0816 -0.4010  0.0278
 7146TIP3    H243074   5.952   0.139   1.536  0.4251  1.4218  0.0712
 7147TIP3   OH243075   2.625   4.771   2.251  0.4780  0.3100 -0.4753
 7147TIP3    H143076   2.659   4.857   2.227 -0.0683  0.8006  0.4710
 7147TIP3    H243077   2.665   4.711   2.188 -0.8372  1.5088 -2.5743
 7148TIP3   OH243078   1.241   2.115   0.694  0.0806 -0.2954 -0.0771
 7148TIP3    H143079   1.158   2.107   0.647 -0.2177 -1.1275  0.5475
 7148TIP3    H243080   1.216   2.115   0.786  0.8552 -2.9048  0.2349
 7149LIG     O143081   4.122   5.279   7.684 -0.2948 -0.6703 -0.2478
 7149LIG     O243082   4.243   5.384   7.508  0.0826  0.6566 -1.2472
 7149LIG     O343083   4.330   5.274   7.327 -0.0420  0.4037 -0.2514
 7149LIG     O443084   3.887   5.388   7.474  0.2189 -0.1521  0.0940
 7149LIG     O543085   3.865   5.429   7.748 -0.1075 -0.3092 -0.0574
 7149LIG     O643086   4.275   5.644   7.385 -0.0437 -0.2617 -0.2972
 7149LIG     O743087   4.509   5.548   7.505  0.2325 -0.1009  0.5041
 7149LIG     O843088   4.687   5.381   7.350 -0.6593  0.3984  0.0565
 7149LIG     O943089   4.185   5.083   7.484 -0.3145 -0.0042 -0.3906
 7149LIG    O1043090   4.228   5.602   7.732  0.0498  0.2698  0.2342
 7149LIG    O1143091   4.450   5.024   7.352  0.2085  0.3096 -0.0599
 7149LIG     C143092   4.118   5.320   7.547  0.2668  0.0337  0.4293
 7149LIG     C243093   4.007   5.431   7.546  0.4689 -0.3210  0.0048
 7149LIG     C343094   3.986   5.470   7.687 -0.7797  0.4269 -0.7797
 7149LIG     C443095   4.101   5.392   7.764 -0.7381 -0.0238 -0.1524
 7149LIG     C543096   4.257   5.390   7.368 -0.7936  0.3066 -0.2826
 7149LIG     C643097   4.334   5.520   7.334 -0.5193  0.3513  0.8471
 7149LIG     C743098   4.484   5.515   7.368  0.1472 -0.3297 -0.2105
 7149LIG     C843099   4.549   5.386   7.316 -0.7576 -0.2495 -0.2239
 7149LIG     C943100   4.467   5.268   7.369 -0.4216  0.0477 -0.1439
 7149LIG    C1043101   4.083   5.184   7.472 -0.8315 -0.5607  0.6210
 7149LIG    C1143102   4.230   5.476   7.800  0.9391 -0.7630 -0.8610
 7149LIG    C1243103   4.536   5.134   7.327  0.1645 -0.3401 -0.9307
 7149LIG     H143104   4.032   5.521   7.489 -1.2869  0.9225  1.0810
 7149LIG     H243105   3.993   5.576   7.715  0.0840 -0.0927  1.1470
 7149LIG     H343106   4.062   5.361   7.861  0.0649  0.1959  0.2512
 7149LIG     H443107   4.164   5.385   7.307 -0.7401  0.7877 -0.4070
 7149LIG     H543108   4.350   5.523   7.224  1.4063  2.0217  1.1221
 7149LIG     H643109   4.531   5.595   7.307  1.4198  0.5610  1.8318
 7149LIG     H743110   4.536   5.387   7.206 -1.0829 -0.4891 -0.1896
 7149LIG     H843111   4.459   5.267   7.480 -0.6675 -1.9432 -0.1419
 7149LIG     H943112   3.986   5.153   7.517 -0.4558 -0.0303  1.8090
 7149LIG    H1043113   4.056   5.218   7.369  1.9216 -2.3479 -0.8089
 7149LIG    H1143114   4.235   5.499   7.909  1.4705  1.0078 -1.2229
 7149LIG    H1243115   4.317   5.418   7.764  1.4129 -0.4919 -0.1825
 7149LIG    H1343116   4.570   5.134   7.222 -2.8902 -2.0521 -2.0364
 7149LIG    H1443117   4.614   5.123   7.405 -2.1846  0.6560  1.7591
 7149LIG    H1543118   3.866   5.448   7.402  0.7827  0.4526  0.4256
 7149LIG    H1643119   3.843   5.346   7.707 -2.4211  0.9625 -1.6224
 7149LIG    H1743120   4.205   5.657   7.320 -0.2206 -1.6187 -0.4071
 7149LIG    H1843121   4.480   5.639   7.510  2.5155  0.7309 -0.1726
 7149LIG    H1943122   4.730   5.377   7.264 -0.4027 -0.8898  0.2373
 7149LIG    H2043123   4.228   5.104   7.567  1.6467 -0.1637 -1.3003
 7149LIG    H2143124   4.278   5.583   7.651  3.0628  1.4489  1.6444
 7149LIG    H2243125   4.372   5.064   7.392  0.0760  0.2235 -0.2315
   6.69347   6.69347   9.20470
