* GENERATE LIGAND
*  DATE:     4/17/25      6:30:15      CREATED BY USER: charmm-gui
*
        68  EXT
         1         1  LIG       O1              1.2787001552       -0.4549759737       -0.5117192153  LIG       1               0.0000000000
         2         1  LIG       O2             -6.2352728187       -0.2821376493       -0.2902233172  LIG       1               0.0000000000
         3         1  LIG       O3              3.0946834308       -1.7974528091       -0.6596542004  LIG       1               0.0000000000
         4         1  LIG       O4              2.2950746865        1.1983462198        1.1792805680  LIG       1               0.0000000000
         5         1  LIG       N              -2.1746722502       -2.9412040018       -0.9402615608  LIG       1               0.0000000000
         6         1  LIG       C1             -1.7657037502       -1.9834615825       -2.0451717308  LIG       1               0.0000000000
         7         1  LIG       C2             -0.9363435874       -3.5021304534       -0.2631121698  LIG       1               0.0000000000
         8         1  LIG       C3             -0.7925780581       -0.8830348217       -1.5868159970  LIG       1               0.0000000000
         9         1  LIG       C4              0.0699614409       -2.4289167417        0.2120839327  LIG       1               0.0000000000
        10         1  LIG       C5              0.4605405900       -1.5170220367       -0.9699894557  LIG       1               0.0000000000
        11         1  LIG       C6             -3.0541343276       -2.2094771278        0.0557962125  LIG       1               0.0000000000
        12         1  LIG       C7             -2.9768605479       -4.0720808768       -1.5372777243  LIG       1               0.0000000000
        13         1  LIG       C8             -4.2959653605       -1.5487465408       -0.5803969945  LIG       1               0.0000000000
        14         1  LIG       C9             -5.1863553707       -0.8793833087        0.4627645931  LIG       1               0.0000000000
        15         1  LIG       C10             2.5800383987       -0.7432735838       -0.3238852073  LIG       1               0.0000000000
        16         1  LIG       C11             3.2805767821        0.5048656644        0.3682322113  LIG       1               0.0000000000
        17         1  LIG       C12             3.8271785169        1.4796570265       -0.6926951716  LIG       1               0.0000000000
        18         1  LIG       C13             4.4695466164       -0.0252335002        1.2147460579  LIG       1               0.0000000000
        19         1  LIG       C14            -6.8715109015        0.8097524051        0.3097010960  LIG       1               0.0000000000
        20         1  LIG       C15             4.4004345336        2.6967080199       -0.2610209446  LIG       1               0.0000000000
        21         1  LIG       C16             5.6088040768       -0.6248590705        0.6256545980  LIG       1               0.0000000000
        22         1  LIG       C17             3.7363538436        1.2449215736       -2.0837151029  LIG       1               0.0000000000
        23         1  LIG       C18             4.4579595304        0.1070577016        2.6235214991  LIG       1               0.0000000000
        24         1  LIG       C19            -6.8918223246        0.9883364315        1.7051735896  LIG       1               0.0000000000
        25         1  LIG       C20            -7.4744980556        1.7652867396       -0.5177241515  LIG       1               0.0000000000
        26         1  LIG       C21             4.8518312108        3.6515553620       -1.1760556809  LIG       1               0.0000000000
        27         1  LIG       C22             6.6827908642       -1.0639647776        1.4150400626  LIG       1               0.0000000000
        28         1  LIG       C23             4.1841325070        2.2063425778       -3.0019048813  LIG       1               0.0000000000
        29         1  LIG       C24             5.5278687698       -0.3240233406        3.4090959647  LIG       1               0.0000000000
        30         1  LIG       C25             4.7376873073        3.4089392787       -2.5479811344  LIG       1               0.0000000000
        31         1  LIG       C26             6.6410368628       -0.9111483751        2.8055811755  LIG       1               0.0000000000
        32         1  LIG       C27            -7.4834412951        2.1290690506        2.2601172693  LIG       1               0.0000000000
        33         1  LIG       C28            -8.0637768786        2.9097810550        0.0351319469  LIG       1               0.0000000000
        34         1  LIG       C29            -8.0636893515        3.0915446486        1.4241304732  LIG       1               0.0000000000
        35         1  LIG       H1             -2.6595417565       -1.5093620884       -2.4481207664  LIG       1               0.0000000000
        36         1  LIG       H2             -1.3128763240       -2.5311917669       -2.8651424568  LIG       1               0.0000000000
        37         1  LIG       H3             -0.4171825323       -4.1597892774       -0.9579125308  LIG       1               0.0000000000
        38         1  LIG       H4             -1.2232522265       -4.1280564635        0.5784810544  LIG       1               0.0000000000
        39         1  LIG       H5             -1.2676295660       -0.2155838875       -0.8344289771  LIG       1               0.0000000000
        40         1  LIG       H6             -0.4931941902       -0.2454678136       -2.4466434373  LIG       1               0.0000000000
        41         1  LIG       H7              0.9807717686       -2.9229269031        0.6160717964  LIG       1               0.0000000000
        42         1  LIG       H8             -0.3656045328       -1.8122853889        1.0265315742  LIG       1               0.0000000000
        43         1  LIG       H9              0.9723038905       -2.1189852738       -1.7577853638  LIG       1               0.0000000000
        44         1  LIG       H10            -2.4614340205       -1.4378285231        0.5464945040  LIG       1               0.0000000000
        45         1  LIG       H11            -3.3749405112       -2.8879808672        0.8417191675  LIG       1               0.0000000000
        46         1  LIG       H12            -2.4201819252       -4.6148490541       -2.2892835907  LIG       1               0.0000000000
        47         1  LIG       H13            -3.8771331042       -3.6800875406       -2.0048970362  LIG       1               0.0000000000
        48         1  LIG       H14            -3.3012448928       -4.7707696060       -0.7742669974  LIG       1               0.0000000000
        49         1  LIG       H15            -4.9367756748       -2.2765082499       -1.1233556114  LIG       1               0.0000000000
        50         1  LIG       H16            -4.0010401363       -0.7506656678       -1.2983908194  LIG       1               0.0000000000
        51         1  LIG       H17            -5.6031638034       -1.6237045744        1.1766582488  LIG       1               0.0000000000
        52         1  LIG       H18            -4.5809714834       -0.1179108523        1.0094839581  LIG       1               0.0000000000
        53         1  LIG       H19             1.5257660979        1.3314873695        0.6044469769  LIG       1               0.0000000000
        54         1  LIG       H20             4.4839824898        2.8926894828        0.7988471215  LIG       1               0.0000000000
        55         1  LIG       H21             5.6650929623       -0.7489840769       -0.4462400926  LIG       1               0.0000000000
        56         1  LIG       H22             3.3153904466        0.3289346477       -2.4687502379  LIG       1               0.0000000000
        57         1  LIG       H23             3.6173938749        0.5692329457        3.1181548169  LIG       1               0.0000000000
        58         1  LIG       H24            -6.4662855879        0.2520034286        2.3681640253  LIG       1               0.0000000000
        59         1  LIG       H25            -7.4582657936        1.6225168274       -1.5876141542  LIG       1               0.0000000000
        60         1  LIG       H26             5.2817814626        4.5776630806       -0.8209723532  LIG       1               0.0000000000
        61         1  LIG       H27             7.5481297905       -1.5180232304        0.9539080738  LIG       1               0.0000000000
        62         1  LIG       H28             4.1002234441        2.0247082997       -4.0641470034  LIG       1               0.0000000000
        63         1  LIG       H29             5.4884846829       -0.1945813183        4.4812776444  LIG       1               0.0000000000
        64         1  LIG       H30             5.0789365667        4.1516994747       -3.2554934199  LIG       1               0.0000000000
        65         1  LIG       H31             7.4677838269       -1.2433437311        3.4172857695  LIG       1               0.0000000000
        66         1  LIG       H32            -7.4886958386        2.2646972640        3.3318724883  LIG       1               0.0000000000
        67         1  LIG       H33            -8.5123776496        3.6520450308       -0.6097895749  LIG       1               0.0000000000
        68         1  LIG       H34            -8.5158339675        3.9734447047        1.8537216603  LIG       1               0.0000000000
