PSF EXT CMAP XPLOR

         2 !NTITLE
* GENERATE LIGAND                                                               
*  DATE:     4/17/25      6:30:15      CREATED BY USER: charmm-gui              

        68 !NATOM
         1 LIG      1        LIG      O1       OG302   -0.482000       15.9994           0
         2 LIG      1        LIG      O2       OG301   -0.393000       15.9994           0
         3 LIG      1        LIG      O3       OG2D1   -0.631000       15.9994           0
         4 LIG      1        LIG      O4       OG311   -0.608000       15.9994           0
         5 LIG      1        LIG      N        NG3P0   -0.594000       14.0070           0
         6 LIG      1        LIG      C1       CG324   -0.121000       12.0110           0
         7 LIG      1        LIG      C2       CG324   -0.121000       12.0110           0
         8 LIG      1        LIG      C3       CG321   -0.184000       12.0110           0
         9 LIG      1        LIG      C4       CG321   -0.184000       12.0110           0
        10 LIG      1        LIG      C5       CG311    0.206000       12.0110           0
        11 LIG      1        LIG      C6       CG324   -0.161000       12.0110           0
        12 LIG      1        LIG      C7       CG334   -0.350000       12.0110           0
        13 LIG      1        LIG      C8       CG321   -0.167000       12.0110           0
        14 LIG      1        LIG      C9       CG321    0.370000E-01   12.0110           0
        15 LIG      1        LIG      C10      CG2O2    0.907000       12.0110           0
        16 LIG      1        LIG      C11      CG301    0.171000       12.0110           0
        17 LIG      1        LIG      C12      CG2R61   -0.00000       12.0110           0
        18 LIG      1        LIG      C13      CG2R61   -0.00000       12.0110           0
        19 LIG      1        LIG      C14      CG2R61   0.222000       12.0110           0
        20 LIG      1        LIG      C15      CG2R61  -0.120000       12.0110           0
        21 LIG      1        LIG      C16      CG2R61  -0.120000       12.0110           0
        22 LIG      1        LIG      C17      CG2R61  -0.120000       12.0110           0
        23 LIG      1        LIG      C18      CG2R61  -0.120000       12.0110           0
        24 LIG      1        LIG      C19      CG2R61  -0.116000       12.0110           0
        25 LIG      1        LIG      C20      CG2R61  -0.116000       12.0110           0
        26 LIG      1        LIG      C21      CG2R61  -0.115000       12.0110           0
        27 LIG      1        LIG      C22      CG2R61  -0.115000       12.0110           0
        28 LIG      1        LIG      C23      CG2R61  -0.115000       12.0110           0
        29 LIG      1        LIG      C24      CG2R61  -0.115000       12.0110           0
        30 LIG      1        LIG      C25      CG2R61  -0.115000       12.0110           0
        31 LIG      1        LIG      C26      CG2R61  -0.115000       12.0110           0
        32 LIG      1        LIG      C27      CG2R61  -0.114000       12.0110           0
        33 LIG      1        LIG      C28      CG2R61  -0.114000       12.0110           0
        34 LIG      1        LIG      C29      CG2R61  -0.115000       12.0110           0
        35 LIG      1        LIG      H1       HGP5     0.250000       1.00800           0
        36 LIG      1        LIG      H2       HGP5     0.250000       1.00800           0
        37 LIG      1        LIG      H3       HGP5     0.250000       1.00800           0
        38 LIG      1        LIG      H4       HGP5     0.250000       1.00800           0
        39 LIG      1        LIG      H5       HGA2     0.900000E-01   1.00800           0
        40 LIG      1        LIG      H6       HGA2     0.900000E-01   1.00800           0
        41 LIG      1        LIG      H7       HGA2     0.900000E-01   1.00800           0
        42 LIG      1        LIG      H8       HGA2     0.900000E-01   1.00800           0
        43 LIG      1        LIG      H9       HGA1     0.900000E-01   1.00800           0
        44 LIG      1        LIG      H10      HGP5     0.250000       1.00800           0
        45 LIG      1        LIG      H11      HGP5     0.250000       1.00800           0
        46 LIG      1        LIG      H12      HGP5     0.250000       1.00800           0
        47 LIG      1        LIG      H13      HGP5     0.250000       1.00800           0
        48 LIG      1        LIG      H14      HGP5     0.250000       1.00800           0
        49 LIG      1        LIG      H15      HGA2     0.900000E-01   1.00800           0
        50 LIG      1        LIG      H16      HGA2     0.900000E-01   1.00800           0
        51 LIG      1        LIG      H17      HGA2     0.900000E-01   1.00800           0
        52 LIG      1        LIG      H18      HGA2     0.900000E-01   1.00800           0
        53 LIG      1        LIG      H19      HGP1     0.413000       1.00800           0
        54 LIG      1        LIG      H20      HGR61    0.115000       1.00800           0
        55 LIG      1        LIG      H21      HGR61    0.115000       1.00800           0
        56 LIG      1        LIG      H22      HGR61    0.115000       1.00800           0
        57 LIG      1        LIG      H23      HGR61    0.115000       1.00800           0
        58 LIG      1        LIG      H24      HGR61    0.115000       1.00800           0
        59 LIG      1        LIG      H25      HGR61    0.115000       1.00800           0
        60 LIG      1        LIG      H26      HGR61    0.115000       1.00800           0
        61 LIG      1        LIG      H27      HGR61    0.115000       1.00800           0
        62 LIG      1        LIG      H28      HGR61    0.115000       1.00800           0
        63 LIG      1        LIG      H29      HGR61    0.115000       1.00800           0
        64 LIG      1        LIG      H30      HGR61    0.115000       1.00800           0
        65 LIG      1        LIG      H31      HGR61    0.115000       1.00800           0
        66 LIG      1        LIG      H32      HGR61    0.115000       1.00800           0
        67 LIG      1        LIG      H33      HGR61    0.115000       1.00800           0
        68 LIG      1        LIG      H34      HGR61    0.115000       1.00800           0

        71 !NBOND: bonds
        10         1         1        15         2        14         2        19
         3        15         4        16         4        53         5         6
         5         7         5        11         5        12         6         8
         6        35         6        36         7         9         7        37
         7        38         8        10         8        39         8        40
         9        10         9        41         9        42        10        43
        11        13        11        44        11        45        12        46
        12        47        12        48        13        14        13        49
        13        50        14        51        14        52        15        16
        16        17        16        18        17        20        17        22
        18        21        18        23        19        24        19        25
        20        26        20        54        21        27        21        55
        22        28        22        56        23        29        23        57
        24        32        24        58        25        33        25        59
        26        30        26        60        27        31        27        61
        28        30        28        62        29        31        29        63
        30        64        31        65        32        34        32        66
        33        34        33        67        34        68

       126 !NTHETA: angles
        10         1        15        14         2        19        16         4        53
         6         5         7         6         5        11         6         5        12
         7         5        11         7         5        12        11         5        12
         5         6         8         5         6        35         5         6        36
         8         6        35         8         6        36        35         6        36
         5         7         9         5         7        37         5         7        38
         9         7        37         9         7        38        37         7        38
         6         8        10         6         8        39         6         8        40
        10         8        39        10         8        40        39         8        40
         7         9        10         7         9        41         7         9        42
        10         9        41        10         9        42        41         9        42
         1        10         8         1        10         9         1        10        43
         8        10         9         8        10        43         9        10        43
         5        11        13         5        11        44         5        11        45
        13        11        44        13        11        45        44        11        45
         5        12        46         5        12        47         5        12        48
        46        12        47        46        12        48        47        12        48
        11        13        14        11        13        49        11        13        50
        14        13        49        14        13        50        49        13        50
         2        14        13         2        14        51         2        14        52
        13        14        51        13        14        52        51        14        52
         1        15         3         1        15        16         3        15        16
         4        16        15         4        16        17         4        16        18
        15        16        17        15        16        18        17        16        18
        16        17        20        16        17        22        20        17        22
        16        18        21        16        18        23        21        18        23
         2        19        24         2        19        25        24        19        25
        17        20        26        17        20        54        26        20        54
        18        21        27        18        21        55        27        21        55
        17        22        28        17        22        56        28        22        56
        18        23        29        18        23        57        29        23        57
        19        24        32        19        24        58        32        24        58
        19        25        33        19        25        59        33        25        59
        20        26        30        20        26        60        30        26        60
        21        27        31        21        27        61        31        27        61
        22        28        30        22        28        62        30        28        62
        23        29        31        23        29        63        31        29        63
        26        30        28        26        30        64        28        30        64
        27        31        29        27        31        65        29        31        65
        24        32        34        24        32        66        34        32        66
        25        33        34        25        33        67        34        33        67
        32        34        33        32        34        68        33        34        68

       193 !NPHI: dihedrals
         1        10         8         6         1        10         8        39
         1        10         8        40         1        10         9         7
         1        10         9        41         1        10         9        42
         1        15        16         4         1        15        16        17
         1        15        16        18         2        14        13        11
         2        14        13        49         2        14        13        50
         2        19        24        32         2        19        24        58
         2        19        25        33         2        19        25        59
         3        15         1        10         3        15        16         4
         3        15        16        17         3        15        16        18
         4        16        17        20         4        16        17        22
         4        16        18        21         4        16        18        23
         5         6         8        10         5         6         8        39
         5         6         8        40         5         7         9        10
         5         7         9        41         5         7         9        42
         5        11        13        14         5        11        13        49
         5        11        13        50         6         5         7         9
         6         5         7        37         6         5         7        38
         6         5        11        13         6         5        11        44
         6         5        11        45         6         5        12        46
         6         5        12        47         6         5        12        48
         6         8        10         9         6         8        10        43
         7         5         6         8         7         5         6        35
         7         5         6        36         7         5        11        13
         7         5        11        44         7         5        11        45
         7         5        12        46         7         5        12        47
         7         5        12        48         7         9        10         8
         7         9        10        43         8         6         5        11
         8         6         5        12         8        10         1        15
         8        10         9        41         8        10         9        42
         9         7         5        11         9         7         5        12
         9        10         1        15         9        10         8        39
         9        10         8        40        10         1        15        16
        10         8         6        35        10         8         6        36
        10         9         7        37        10         9         7        38
        11         5         6        35        11         5         6        36
        11         5         7        37        11         5         7        38
        11         5        12        46        11         5        12        47
        11         5        12        48        11        13        14        51
        11        13        14        52        12         5         6        35
        12         5         6        36        12         5         7        37
        12         5         7        38        12         5        11        13
        12         5        11        44        12         5        11        45
        13        14         2        19        14         2        19        24
        14         2        19        25        14        13        11        44
        14        13        11        45        15         1        10        43
        15        16         4        53        15        16        17        20
        15        16        17        22        15        16        18        21
        15        16        18        23        16        17        20        26
        16        17        20        54        16        17        22        28
        16        17        22        56        16        18        21        27
        16        18        21        55        16        18        23        29
        16        18        23        57        17        16         4        53
        17        16        18        21        17        16        18        23
        17        20        26        30        17        20        26        60
        17        22        28        30        17        22        28        62
        18        16         4        53        18        16        17        20
        18        16        17        22        18        21        27        31
        18        21        27        61        18        23        29        31
        18        23        29        63        19         2        14        51
        19         2        14        52        19        24        32        34
        19        24        32        66        19        25        33        34
        19        25        33        67        20        17        22        28
        20        17        22        56        20        26        30        28
        20        26        30        64        21        18        23        29
        21        18        23        57        21        27        31        29
        21        27        31        65        22        17        20        26
        22        17        20        54        22        28        30        26
        22        28        30        64        23        18        21        27
        23        18        21        55        23        29        31        27
        23        29        31        65        24        19        25        33
        24        19        25        59        24        32        34        33
        24        32        34        68        25        19        24        32
        25        19        24        58        25        33        34        32
        25        33        34        68        26        30        28        62
        27        31        29        63        28        30        26        60
        29        31        27        61        30        26        20        54
        30        28        22        56        31        27        21        55
        31        29        23        57        32        34        33        67
        33        34        32        66        34        32        24        58
        34        33        25        59        35         6         8        39
        35         6         8        40        36         6         8        39
        36         6         8        40        37         7         9        41
        37         7         9        42        38         7         9        41
        38         7         9        42        39         8        10        43
        40         8        10        43        41         9        10        43
        42         9        10        43        44        11        13        49
        44        11        13        50        45        11        13        49
        45        11        13        50        49        13        14        51
        49        13        14        52        50        13        14        51
        50        13        14        52        54        20        26        60
        55        21        27        61        56        22        28        62
        57        23        29        63        58        24        32        66
        59        25        33        67        60        26        30        64
        61        27        31        65        62        28        30        64
        63        29        31        65        66        32        34        68
        67        33        34        68

         1 !NIMPHI: impropers
        15        16         3         1

         0 !NDON: donors


         0 !NACC: acceptors


         0 !NNB

         0         0         0         0         0         0         0         0
         0         0         0         0         0         0         0         0
         0         0         0         0         0         0         0         0
         0         0         0         0         0         0         0         0
         0         0         0         0         0         0         0         0
         0         0         0         0         0         0         0         0
         0         0         0         0         0         0         0         0
         0         0         0         0         0         0         0         0
         0         0         0         0

         1         0 !NGRP NST2
         0         2         0

         0         0 !NUMLP NUMLPH

         0 !NCRTERM: cross-terms

