* GENERATED BY CHARMM-GUI (HTTP://WWW.CHARMM-GUI.ORG)
*
        34  EXT
         1         1  LIG       O1              1.2525000000       -0.4563000000       -0.3718000000  LIG       1               0.0000000000
         2         1  LIG       O2             -6.2810000000       -0.3114000000       -0.2727000000  LIG       1               0.0000000000
         3         1  LIG       O3              3.1111000000       -1.7539000000       -0.7584000000  LIG       1               0.0000000000
         4         1  LIG       O4              2.3072000000        0.9811000000        1.1057000000  LIG       1               0.0000000000
         5         1  LIG       N              -2.1850000000       -2.8824000000       -0.9080000000  LIG       1               0.0000000000
         6         1  LIG       C1             -1.7891000000       -1.9235000000       -2.0371000000  LIG       1               0.0000000000
         7         1  LIG       C2             -0.9407000000       -3.5024000000       -0.2609000000  LIG       1               0.0000000000
         8         1  LIG       C3             -0.8055000000       -0.8641000000       -1.5599000000  LIG       1               0.0000000000
         9         1  LIG       C4              0.0402000000       -2.4381000000        0.2107000000  LIG       1               0.0000000000
        10         1  LIG       C5              0.4271000000       -1.4828000000       -0.9109000000  LIG       1               0.0000000000
        11         1  LIG       C6             -3.0599000000       -2.1827000000        0.1317000000  LIG       1               0.0000000000
        12         1  LIG       C7             -3.0197000000       -4.0162000000       -1.5173000000  LIG       1               0.0000000000
        13         1  LIG       C8             -4.2581000000       -1.5598000000       -0.5639000000  LIG       1               0.0000000000
        14         1  LIG       C9             -5.1901000000       -0.8865000000        0.4333000000  LIG       1               0.0000000000
        15         1  LIG       C10             2.6007000000       -0.7174000000       -0.3504000000  LIG       1               0.0000000000
        16         1  LIG       C11             3.3671000000        0.4434000000        0.2889000000  LIG       1               0.0000000000
        17         1  LIG       C12             3.8508000000        1.4959000000       -0.7114000000  LIG       1               0.0000000000
        18         1  LIG       C13             4.5162000000       -0.0287000000        1.1825000000  LIG       1               0.0000000000
        19         1  LIG       C14            -6.8609000000        0.7991000000        0.2835000000  LIG       1               0.0000000000
        20         1  LIG       C15             4.4056000000        2.6909000000       -0.2533000000  LIG       1               0.0000000000
        21         1  LIG       C16             5.6414000000       -0.6265000000        0.6148000000  LIG       1               0.0000000000
        22         1  LIG       C17             3.7367000000        1.2601000000       -2.0814000000  LIG       1               0.0000000000
        23         1  LIG       C18             4.4382000000        0.1389000000        2.5650000000  LIG       1               0.0000000000
        24         1  LIG       C19            -6.8634000000        0.9652000000        1.6685000000  LIG       1               0.0000000000
        25         1  LIG       C20            -7.4485000000        1.7633000000       -0.5355000000  LIG       1               0.0000000000
        26         1  LIG       C21             4.8462000000        3.6502000000       -1.1651000000  LIG       1               0.0000000000
        27         1  LIG       C22             6.6886000000       -1.0567000000        1.4296000000  LIG       1               0.0000000000
        28         1  LIG       C23             4.1774000000        2.2192000000       -2.9932000000  LIG       1               0.0000000000
        29         1  LIG       C24             5.4854000000       -0.2913000000        3.3798000000  LIG       1               0.0000000000
        30         1  LIG       C25             4.7321000000        3.4143000000       -2.5351000000  LIG       1               0.0000000000
        31         1  LIG       C26             6.6106000000       -0.8891000000        2.8122000000  LIG       1               0.0000000000
        32         1  LIG       C27            -7.4535000000        2.0953000000        2.2344000000  LIG       1               0.0000000000
        33         1  LIG       C28            -8.0385000000        2.8933000000        0.0304000000  LIG       1               0.0000000000
        34         1  LIG       C29            -8.0411000000        3.0594000000        1.4153000000  LIG       1               0.0000000000
