PSF EXT CMAP XPLOR

         2 !NTITLE
* GENERATE LIGAND                                                               
*  DATE:     4/17/25     10:58: 9      CREATED BY USER: charmm-gui              

        58 !NATOM
         1 LIG      1        LIG      O1       OG302   -0.428000       15.9994           0
         2 LIG      1        LIG      O2       OG301   -0.356000       15.9994           0
         3 LIG      1        LIG      O3       OG2D1   -0.618000       15.9994           0
         4 LIG      1        LIG      O4       OG2R50  -0.267000       15.9994           0
         5 LIG      1        LIG      O5       OG311   -0.650000       15.9994           0
         6 LIG      1        LIG      N        NG3P0   -0.280000       14.0070           0
         7 LIG      1        LIG      C1       CG3C54  -0.351000       12.0110           0
         8 LIG      1        LIG      C2       CG3C54  -0.363000       12.0110           0
         9 LIG      1        LIG      C3       CG3C51   0.308000       12.0110           0
        10 LIG      1        LIG      C4       CG3C52  -0.175000       12.0110           0
        11 LIG      1        LIG      C5       CG334   -0.350000       12.0110           0
        12 LIG      1        LIG      C6       CG334   -0.350000       12.0110           0
        13 LIG      1        LIG      C7       CG2O2    0.956000       12.0110           0
        14 LIG      1        LIG      C8       CG301   -0.980000E-01   12.0110           0
        15 LIG      1        LIG      C9       CG2R61   0.210000E-01   12.0110           0
        16 LIG      1        LIG      C10      CG2R51   0.469000       12.0110           0
        17 LIG      1        LIG      C11      CG321    0.250000E-01   12.0110           0
        18 LIG      1        LIG      C12      CG2R61  -0.120000       12.0110           0
        19 LIG      1        LIG      C13      CG2R61  -0.120000       12.0110           0
        20 LIG      1        LIG      C14      CG2R51  -0.367000       12.0110           0
        21 LIG      1        LIG      C15      CG321   -0.180000       12.0110           0
        22 LIG      1        LIG      C16      CG321   -0.179000       12.0110           0
        23 LIG      1        LIG      C17      CG2R51  -0.275000       12.0110           0
        24 LIG      1        LIG      C18      CG2R61  -0.115000       12.0110           0
        25 LIG      1        LIG      C19      CG2R61  -0.115000       12.0110           0
        26 LIG      1        LIG      C20      CG2R51   0.620000E-01   12.0110           0
        27 LIG      1        LIG      C21      CG2R61  -0.115000       12.0110           0
        28 LIG      1        LIG      C22      CG321    0.500000E-01   12.0110           0
        29 LIG      1        LIG      H1       HGP5     0.250000       1.00800           0
        30 LIG      1        LIG      H2       HGP5     0.250000       1.00800           0
        31 LIG      1        LIG      H3       HGP5     0.250000       1.00800           0
        32 LIG      1        LIG      H4       HGP5     0.250000       1.00800           0
        33 LIG      1        LIG      H5       HGA1     0.900000E-01   1.00800           0
        34 LIG      1        LIG      H6       HGA2     0.900000E-01   1.00800           0
        35 LIG      1        LIG      H7       HGA2     0.900000E-01   1.00800           0
        36 LIG      1        LIG      H8       HGP5     0.250000       1.00800           0
        37 LIG      1        LIG      H9       HGP5     0.250000       1.00800           0
        38 LIG      1        LIG      H10      HGP5     0.250000       1.00800           0
        39 LIG      1        LIG      H11      HGP5     0.250000       1.00800           0
        40 LIG      1        LIG      H12      HGP5     0.250000       1.00800           0
        41 LIG      1        LIG      H13      HGP5     0.250000       1.00800           0
        42 LIG      1        LIG      H14      HGA2     0.900000E-01   1.00800           0
        43 LIG      1        LIG      H15      HGA2     0.900000E-01   1.00800           0
        44 LIG      1        LIG      H16      HGR61    0.115000       1.00800           0
        45 LIG      1        LIG      H17      HGR61    0.115000       1.00800           0
        46 LIG      1        LIG      H18      HGR51    0.170000       1.00800           0
        47 LIG      1        LIG      H19      HGA2     0.900000E-01   1.00800           0
        48 LIG      1        LIG      H20      HGA2     0.900000E-01   1.00800           0
        49 LIG      1        LIG      H21      HGA2     0.900000E-01   1.00800           0
        50 LIG      1        LIG      H22      HGA2     0.900000E-01   1.00800           0
        51 LIG      1        LIG      H23      HGR51    0.189000       1.00800           0
        52 LIG      1        LIG      H24      HGR61    0.115000       1.00800           0
        53 LIG      1        LIG      H25      HGR61    0.115000       1.00800           0
        54 LIG      1        LIG      H26      HGR52    0.138000       1.00800           0
        55 LIG      1        LIG      H27      HGR61    0.115000       1.00800           0
        56 LIG      1        LIG      H28      HGA2     0.900000E-01   1.00800           0
        57 LIG      1        LIG      H29      HGA2     0.900000E-01   1.00800           0
        58 LIG      1        LIG      H30      HGP1     0.419000       1.00800           0

        60 !NBOND: bonds
         9         1         1        13        14         2         2        17
         3        13         4        16         4        26         5        28
         5        58         6         7         6         8         6        11
         6        12         7         9         7        29         7        30
         8        10         8        31         8        32         9        10
         9        33        10        34        10        35        11        36
        11        37        11        38        12        39        12        40
        12        41        14        13        14        15        14        16
        15        18        15        19        16        20        17        21
        17        42        17        43        18        24        18        44
        19        25        19        45        20        23        20        46
        21        22        21        47        21        48        22        28
        22        49        22        50        23        26        23        51
        24        27        24        52        25        27        25        53
        26        54        27        55        28        56        28        57

       109 !NTHETA: angles
         9         1        13        14         2        17        16         4        26
        28         5        58         7         6         8         7         6        11
         7         6        12         8         6        11         8         6        12
        11         6        12         6         7         9         6         7        29
         6         7        30         9         7        29         9         7        30
        29         7        30         6         8        10         6         8        31
         6         8        32        10         8        31        10         8        32
        31         8        32         1         9         7         1         9        10
         1         9        33         7         9        10         7         9        33
        10         9        33         8        10         9         8        10        34
         8        10        35         9        10        34         9        10        35
        34        10        35         6        11        36         6        11        37
         6        11        38        36        11        37        36        11        38
        37        11        38         6        12        39         6        12        40
         6        12        41        39        12        40        39        12        41
        40        12        41         1        13         3         1        13        14
         3        13        14         2        14        13         2        14        15
         2        14        16        13        14        15        13        14        16
        15        14        16        14        15        18        14        15        19
        18        15        19         4        16        14         4        16        20
        14        16        20         2        17        21         2        17        42
         2        17        43        21        17        42        21        17        43
        42        17        43        15        18        24        15        18        44
        24        18        44        15        19        25        15        19        45
        25        19        45        16        20        23        16        20        46
        23        20        46        17        21        22        17        21        47
        17        21        48        22        21        47        22        21        48
        47        21        48        21        22        28        21        22        49
        21        22        50        28        22        49        28        22        50
        49        22        50        20        23        26        20        23        51
        26        23        51        18        24        27        18        24        52
        27        24        52        19        25        27        19        25        53
        27        25        53         4        26        23         4        26        54
        23        26        54        24        27        25        24        27        55
        25        27        55         5        28        22         5        28        56
         5        28        57        22        28        56        22        28        57
        56        28        57

       162 !NPHI: dihedrals
         1         9         7         6         1         9         7        29
         1         9         7        30         1         9        10         8
         1         9        10        34         1         9        10        35
         1        13        14         2         1        13        14        15
         1        13        14        16         2        14        13         3
         2        14        15        18         2        14        15        19
         2        14        16         4         2        14        16        20
         2        17        21        22         2        17        21        47
         2        17        21        48         3        13         1         9
         3        13        14        15         3        13        14        16
         4        16        14        13         4        16        14        15
         4        16        20        23         4        16        20        46
         4        26        23        20         4        26        23        51
         5        28        22        21         5        28        22        49
         5        28        22        50         6         7         9        10
         6         7         9        33         6         8        10         9
         6         8        10        34         6         8        10        35
         7         6         8        10         7         6         8        31
         7         6         8        32         7         6        11        36
         7         6        11        37         7         6        11        38
         7         6        12        39         7         6        12        40
         7         6        12        41         7         9         1        13
         7         9        10         8         7         9        10        34
         7         9        10        35         8         6         7         9
         8         6         7        29         8         6         7        30
         8         6        11        36         8         6        11        37
         8         6        11        38         8         6        12        39
         8         6        12        40         8         6        12        41
         8        10         9        33         9         1        13        14
         9         7         6        11         9         7         6        12
         9        10         8        31         9        10         8        32
        10         8         6        11        10         8         6        12
        10         9         1        13        10         9         7        29
        10         9         7        30        11         6         7        29
        11         6         7        30        11         6         8        31
        11         6         8        32        11         6        12        39
        11         6        12        40        11         6        12        41
        12         6         7        29        12         6         7        30
        12         6         8        31        12         6         8        32
        12         6        11        36        12         6        11        37
        12         6        11        38        13         1         9        33
        13        14         2        17        13        14        15        18
        13        14        15        19        13        14        16        20
        14         2        17        21        14         2        17        42
        14         2        17        43        14        15        18        24
        14        15        18        44        14        15        19        25
        14        15        19        45        14        16         4        26
        14        16        20        23        14        16        20        46
        15        14         2        17        15        14        16        20
        15        18        24        27        15        18        24        52
        15        19        25        27        15        19        25        53
        16         4        26        23        16         4        26        54
        16        14         2        17        16        14        15        18
        16        14        15        19        16        20        23        26
        16        20        23        51        17        21        22        28
        17        21        22        49        17        21        22        50
        18        15        19        25        18        15        19        45
        18        24        27        25        18        24        27        55
        19        15        18        24        19        15        18        44
        19        25        27        24        19        25        27        55
        20        16         4        26        20        23        26        54
        21        22        28        56        21        22        28        57
        22        21        17        42        22        21        17        43
        22        28         5        58        24        27        25        53
        25        27        24        52        26        23        20        46
        27        24        18        44        27        25        19        45
        28        22        21        47        28        22        21        48
        29         7         9        33        30         7         9        33
        31         8        10        34        31         8        10        35
        32         8        10        34        32         8        10        35
        33         9        10        34        33         9        10        35
        42        17        21        47        42        17        21        48
        43        17        21        47        43        17        21        48
        44        18        24        52        45        19        25        53
        46        20        23        51        47        21        22        49
        47        21        22        50        48        21        22        49
        48        21        22        50        49        22        28        56
        49        22        28        57        50        22        28        56
        50        22        28        57        51        23        26        54
        52        24        27        55        53        25        27        55
        56        28         5        58        57        28         5        58

         1 !NIMPHI: impropers
        13        14         3         1

         0 !NDON: donors


         0 !NACC: acceptors


         0 !NNB

         0         0         0         0         0         0         0         0
         0         0         0         0         0         0         0         0
         0         0         0         0         0         0         0         0
         0         0         0         0         0         0         0         0
         0         0         0         0         0         0         0         0
         0         0         0         0         0         0         0         0
         0         0         0         0         0         0         0         0
         0         0

         1         0 !NGRP NST2
         0         2         0

         0         0 !NUMLP NUMLPH

         0 !NCRTERM: cross-terms

