* GENERATE LIGAND
*  DATE:     4/17/25     10:58: 9      CREATED BY USER: charmm-gui
*
        58  EXT
         1         1  LIG       O1             -1.0641619399        0.8923122216        0.2778771149  LIG       1               0.0000000000
         2         1  LIG       O2              1.3238083479       -0.0217578714       -0.8244520122  LIG       1               0.0000000000
         3         1  LIG       O3             -0.0966209979        0.2399870363        2.2167974550  LIG       1               0.0000000000
         4         1  LIG       O4              2.3520511604       -2.4882986787        0.1126711493  LIG       1               0.0000000000
         5         1  LIG       O5              5.5960715278        4.3313560795       -0.8474562306  LIG       1               0.0000000000
         6         1  LIG       N              -3.9507010791        2.1034651585        0.0478539022  LIG       1               0.0000000000
         7         1  LIG       C1             -2.5646444647        2.7190556599        0.0663535649  LIG       1               0.0000000000
         8         1  LIG       C2             -3.9311149399        0.9709848431        1.0372995747  LIG       1               0.0000000000
         9         1  LIG       C3             -1.7118729581        1.8981754993        1.0317984393  LIG       1               0.0000000000
        10         1  LIG       C4             -2.7514065300        1.2917481638        1.9634117740  LIG       1               0.0000000000
        11         1  LIG       C5             -4.9792867664        3.0979441987        0.4692969307  LIG       1               0.0000000000
        12         1  LIG       C6             -4.2516292072        1.5681805003       -1.3106944341  LIG       1               0.0000000000
        13         1  LIG       C7             -0.2396284621        0.1171887126        1.0116782716  LIG       1               0.0000000000
        14         1  LIG       C8              0.5667632496       -0.8304084324        0.0993211846  LIG       1               0.0000000000
        15         1  LIG       C9             -0.4305903309       -1.7221772520       -0.6538131676  LIG       1               0.0000000000
        16         1  LIG       C10             1.5276247202       -1.7204460509        0.8990673427  LIG       1               0.0000000000
        17         1  LIG       C11             2.2396539699        0.8391983860       -0.1609400798  LIG       1               0.0000000000
        18         1  LIG       C12            -1.2288705473       -2.6683646877        0.0250936474  LIG       1               0.0000000000
        19         1  LIG       C13            -0.5746397910       -1.6087489555       -2.0526516583  LIG       1               0.0000000000
        20         1  LIG       C14             1.9091813981       -1.8311952534        2.2080580474  LIG       1               0.0000000000
        21         1  LIG       C15             2.9474495329        1.6858239840       -1.2010647764  LIG       1               0.0000000000
        22         1  LIG       C16             3.9585755351        2.6163076072       -0.5286929726  LIG       1               0.0000000000
        23         1  LIG       C17             2.9831667451       -2.6686531884        2.2551925943  LIG       1               0.0000000000
        24         1  LIG       C18            -2.1212946413       -3.4876074028       -0.6793380731  LIG       1               0.0000000000
        25         1  LIG       C19            -1.4672943527       -2.4228475512       -2.7557821255  LIG       1               0.0000000000
        26         1  LIG       C20             3.2407088360       -3.0575456591        0.9820692218  LIG       1               0.0000000000
        27         1  LIG       C21            -2.2407343112       -3.3636823729       -2.0689076468  LIG       1               0.0000000000
        28         1  LIG       C22             4.6746849947        3.5025937129       -1.5385390044  LIG       1               0.0000000000
        29         1  LIG       H1             -2.6116193536        3.7693075762        0.4226593081  LIG       1               0.0000000000
        30         1  LIG       H2             -2.0918415081        2.6905563713       -0.9383785953  LIG       1               0.0000000000
        31         1  LIG       H3             -3.7238220713        0.0115414244        0.5069603391  LIG       1               0.0000000000
        32         1  LIG       H4             -4.8843972128        0.8745154372        1.6021177197  LIG       1               0.0000000000
        33         1  LIG       H5             -0.9664050257        2.5319828983        1.5435138489  LIG       1               0.0000000000
        34         1  LIG       H6             -2.4155039606        0.3970806461        2.5018289091  LIG       1               0.0000000000
        35         1  LIG       H7             -3.0321654918        2.0239880103        2.7370800649  LIG       1               0.0000000000
        36         1  LIG       H8             -5.0046492904        3.9429464506       -0.2040357894  LIG       1               0.0000000000
        37         1  LIG       H9             -4.7664573772        3.4485489129        1.4714341964  LIG       1               0.0000000000
        38         1  LIG       H10            -5.9601067700        2.6382379006        0.4793762929  LIG       1               0.0000000000
        39         1  LIG       H11            -3.4935730827        0.8480736315       -1.5989020905  LIG       1               0.0000000000
        40         1  LIG       H12            -4.2659773273        2.3633221099       -2.0435079258  LIG       1               0.0000000000
        41         1  LIG       H13            -5.2129904507        1.0717920982       -1.3182544264  LIG       1               0.0000000000
        42         1  LIG       H14             3.0197204347        0.2633400422        0.3892140622  LIG       1               0.0000000000
        43         1  LIG       H15             1.7160532437        1.5071413669        0.5586166982  LIG       1               0.0000000000
        44         1  LIG       H16            -1.1322207757       -2.7931022026        1.0939444948  LIG       1               0.0000000000
        45         1  LIG       H17             0.0331594453       -0.9035499621       -2.6010747703  LIG       1               0.0000000000
        46         1  LIG       H18             1.4756022887       -1.3158946342        3.0514588319  LIG       1               0.0000000000
        47         1  LIG       H19             2.1937437730        2.2742608288       -1.7696907104  LIG       1               0.0000000000
        48         1  LIG       H20             3.4671778882        1.0092589066       -1.9177193778  LIG       1               0.0000000000
        49         1  LIG       H21             4.6984472473        1.9980582703        0.0298252774  LIG       1               0.0000000000
        50         1  LIG       H22             3.4278193732        3.2555055425        0.2145009650  LIG       1               0.0000000000
        51         1  LIG       H23             3.5511144223       -2.9460377065        3.1361903204  LIG       1               0.0000000000
        52         1  LIG       H24            -2.7065932577       -4.2296056849       -0.1546941139  LIG       1               0.0000000000
        53         1  LIG       H25            -1.5429575129       -2.3359642173       -3.8309660439  LIG       1               0.0000000000
        54         1  LIG       H26             4.0190552745       -3.6982286753        0.5781132684  LIG       1               0.0000000000
        55         1  LIG       H27            -2.9175253910       -4.0051644534       -2.6154711267  LIG       1               0.0000000000
        56         1  LIG       H28             5.2040416542        2.8780154422       -2.2933052749  LIG       1               0.0000000000
        57         1  LIG       H29             3.9284005129        4.1392433003       -2.0668031799  LIG       1               0.0000000000
        58         1  LIG       H30             6.2854232817        3.7543148671       -0.5062733204  LIG       1               0.0000000000
