* GENERATED BY CHARMM-GUI (HTTP://WWW.CHARMM-GUI.ORG)
*
        28  EXT
         1         1  LIG       O1             -0.9813000000        0.9572000000        0.2579000000  LIG       1               0.0000000000
         2         1  LIG       O2              1.2600000000       -0.0600000000       -0.8188000000  LIG       1               0.0000000000
         3         1  LIG       O3             -0.0825000000        0.1570000000        2.2178000000  LIG       1               0.0000000000
         4         1  LIG       O4              2.3931000000       -2.4204000000        0.0877000000  LIG       1               0.0000000000
         5         1  LIG       O5              5.5469000000        4.2880000000       -0.8308000000  LIG       1               0.0000000000
         6         1  LIG       N              -3.9440000000        2.1045000000        0.0507000000  LIG       1               0.0000000000
         7         1  LIG       C1             -2.5537000000        2.7897000000        0.0590000000  LIG       1               0.0000000000
         8         1  LIG       C2             -3.8585000000        0.9523000000        1.0660000000  LIG       1               0.0000000000
         9         1  LIG       C3             -1.6944000000        1.9477000000        0.9889000000  LIG       1               0.0000000000
        10         1  LIG       C4             -2.6792000000        1.3120000000        1.9493000000  LIG       1               0.0000000000
        11         1  LIG       C5             -5.0210000000        3.0973000000        0.4719000000  LIG       1               0.0000000000
        12         1  LIG       C6             -4.2777000000        1.5709000000       -1.3330000000  LIG       1               0.0000000000
        13         1  LIG       C7             -0.1985000000        0.1097000000        0.9978000000  LIG       1               0.0000000000
        14         1  LIG       C8              0.5400000000       -0.8908000000        0.1074000000  LIG       1               0.0000000000
        15         1  LIG       C9             -0.4409000000       -1.7709000000       -0.6723000000  LIG       1               0.0000000000
        16         1  LIG       C10             1.6209000000       -1.6707000000        0.8702000000  LIG       1               0.0000000000
        17         1  LIG       C11             2.1811000000        0.7730000000       -0.1400000000  LIG       1               0.0000000000
        18         1  LIG       C12            -1.1952000000       -2.6887000000        0.0210000000  LIG       1               0.0000000000
        19         1  LIG       C13            -0.5297000000       -1.6089000000       -2.0354000000  LIG       1               0.0000000000
        20         1  LIG       C14             1.9101000000       -1.7212000000        2.1683000000  LIG       1               0.0000000000
        21         1  LIG       C15             2.9154000000        1.6297000000       -1.1615000000  LIG       1               0.0000000000
        22         1  LIG       C16             3.9168000000        2.5663000000       -0.4947000000  LIG       1               0.0000000000
        23         1  LIG       C17             3.0060000000       -2.6139000000        2.2415000000  LIG       1               0.0000000000
        24         1  LIG       C18            -2.0890000000       -3.4903000000       -0.6892000000  LIG       1               0.0000000000
        25         1  LIG       C19            -1.4236000000       -2.4105000000       -2.7454000000  LIG       1               0.0000000000
        26         1  LIG       C20             3.2616000000       -3.0113000000        0.9497000000  LIG       1               0.0000000000
        27         1  LIG       C21            -2.2032000000       -3.3512000000       -2.0722000000  LIG       1               0.0000000000
        28         1  LIG       C22             4.6204000000        3.4533000000       -1.5120000000  LIG       1               0.0000000000
